/*--------------------------------*- C++ -*----------------------------------*\
| =========                 |                                                 |
| \\      /  F ield         | OpenFOAM: The Open Source CFD Toolbox           |
|  \\    /   O peration     | Version:  2312                                  |
|   \\  /    A nd           | Website:  www.openfoam.com                      |
|    \\/     M anipulation  |                                                 |
\*---------------------------------------------------------------------------*/
FoamFile
{
    version     2.0;
    format      ascii;
    arch        "LSB;label=32;scalar=64";
    class       volVectorField;
    location    "95.110709497487576";
    object      U;
}
// * * * * * * * * * * * * * * * * * * * * * * * * * * * * * * * * * * * * * //

dimensions      [0 1 -1 0 0 0 0];

internalField   nonuniform List<vector> 
21039
(
(0.913792 0.0474846 0)
(1.02605 0.0665172 0)
(1.00449 0.0294773 0)
(1.00177 0.0189135 0)
(1.00121 0.0139068 0)
(1.0008 0.0105283 0)
(1.00055 0.00820506 0)
(1.0004 0.00656567 0)
(1.0003 0.00535894 0)
(1.00023 0.00444102 0)
(1.00018 0.00372644 0)
(1.00015 0.0031602 0)
(1.00012 0.00270529 0)
(1.00009 0.00233614 0)
(1.00008 0.00203462 0)
(1.00006 0.00178761 0)
(1.00005 0.0015854 0)
(1.00004 0.00142065 0)
(1.00003 0.00128771 0)
(1.00002 0.00118196 0)
(1.00002 0.00109952 0)
(1.00001 0.00103834 0)
(1.00001 0.00100009 0)
(1 0.000965682 0)
(1.00001 0.000939708 0)
(1.00001 0.000919106 0)
(1.00001 0.000899625 0)
(1.00001 0.00087117 0)
(1.00001 0.000811939 0)
(0.794623 0.0731024 0)
(1.07447 0.121702 0)
(1.03987 0.070817 0)
(1.0181 0.0497249 0)
(1.01128 0.0383064 0)
(1.00763 0.0295254 0)
(1.00538 0.023231 0)
(1.00395 0.0186571 0)
(1.00299 0.0152034 0)
(1.00232 0.0125286 0)
(1.00184 0.0104164 0)
(1.00148 0.00871985 0)
(1.0012 0.00733833 0)
(1.00098 0.00620139 0)
(1.00081 0.00525876 0)
(1.00067 0.0044739 0)
(1.00055 0.0038198 0)
(1.00045 0.00327623 0)
(1.00036 0.00282779 0)
(1.00028 0.00246246 0)
(1.00022 0.00217026 0)
(1.00016 0.00194477 0)
(1.00011 0.00179005 0)
(1.00009 0.00167484 0)
(1.00008 0.00160431 0)
(1.00008 0.0015608 0)
(1.00008 0.00153031 0)
(1.00009 0.00149341 0)
(1.0001 0.00142024 0)
(0.667377 0.0572919 0)
(1.08299 0.124805 0)
(1.08433 0.0902706 0)
(1.04627 0.0676802 0)
(1.02905 0.0541576 0)
(1.02024 0.0431954 0)
(1.01468 0.0348895 0)
(1.01098 0.0285068 0)
(1.00843 0.0234751 0)
(1.00661 0.0194628 0)
(1.00528 0.0162244 0)
(1.00428 0.0135775 0)
(1.00351 0.0113908 0)
(1.0029 0.00956894 0)
(1.00241 0.0080419 0)
(1.00201 0.00675774 0)
(1.00167 0.00567758 0)
(1.00138 0.00477204 0)
(1.00113 0.00401875 0)
(1.00091 0.00340049 0)
(1.00071 0.00290317 0)
(1.00054 0.0025165 0)
(1.00039 0.00224635 0)
(1.00028 0.00205693 0)
(1.00023 0.00194812 0)
(1.0002 0.00188555 0)
(1.0002 0.00184556 0)
(1.00021 0.00180298 0)
(1.00022 0.00172451 0)
(0.541069 0.0352683 0)
(1.05074 0.110823 0)
(1.11587 0.0969936 0)
(1.07608 0.0762697 0)
(1.04921 0.0621 0)
(1.03525 0.0509851 0)
(1.02641 0.0423043 0)
(1.02024 0.0352679 0)
(1.01582 0.0294737 0)
(1.01259 0.0246963 0)
(1.01017 0.0207314 0)
(1.00833 0.0174149 0)
(1.00688 0.0146226 0)
(1.00574 0.0122592 0)
(1.0048 0.0102516 0)
(1.00403 0.0085438 0)
(1.00337 0.00709293 0)
(1.00281 0.00586606 0)
(1.00232 0.00483788 0)
(1.00188 0.00398895 0)
(1.00148 0.00330363 0)
(1.00113 0.00276932 0)
(1.00081 0.00239343 0)
(1.00058 0.00213848 0)
(1.00043 0.00199651 0)
(1.00036 0.00191783 0)
(1.00033 0.00187041 0)
(1.00033 0.00182421 0)
(1.00034 0.00174071 0)
(0.444252 0.0186698 0)
(0.997737 0.0918665 0)
(1.12896 0.0956267 0)
(1.10139 0.0794438 0)
(1.06821 0.0653853 0)
(1.04975 0.0546932 0)
(1.03825 0.04629 0)
(1.03005 0.0392338 0)
(1.02397 0.0332365 0)
(1.01939 0.0281487 0)
(1.01589 0.0238119 0)
(1.01316 0.020098 0)
(1.01099 0.0169071 0)
(1.00924 0.0141588 0)
(1.00779 0.011789 0)
(1.00658 0.00974692 0)
(1.00555 0.00799285 0)
(1.00465 0.00649567 0)
(1.00385 0.00523124 0)
(1.00313 0.00418098 0)
(1.00248 0.00333021 0)
(1.00189 0.00266612 0)
(1.00135 0.002198 0)
(1.00094 0.0018887 0)
(1.00068 0.00172172 0)
(1.00053 0.00163367 0)
(1.00046 0.00158536 0)
(1.00045 0.00154211 0)
(1.00044 0.00145778 0)
(0.378718 0.00810508 0)
(0.939729 0.0718387 0)
(1.12694 0.0882633 0)
(1.12078 0.0785765 0)
(1.08548 0.0658034 0)
(1.06306 0.0557912 0)
(1.0493 0.0478922 0)
(1.03951 0.0411058 0)
(1.0321 0.0351997 0)
(1.0264 0.0300695 0)
(1.02193 0.025595 0)
(1.01839 0.0216822 0)
(1.01552 0.0182563 0)
(1.01317 0.0152551 0)
(1.0112 0.0126281 0)
(1.00953 0.0103344 0)
(1.00808 0.00834159 0)
(1.00681 0.00662407 0)
(1.00567 0.00516196 0)
(1.00463 0.00394016 0)
(1.00367 0.00294718 0)
(1.00279 0.00217194 0)
(1.00198 0.00162679 0)
(1.00136 0.00127609 0)
(1.00094 0.00109467 0)
(1.0007 0.00100639 0)
(1.00058 0.000965353 0)
(1.00054 0.000933857 0)
(1.00051 0.000857524 0)
(0.333514 0.00233567 0)
(0.883479 0.0538338 0)
(1.11403 0.077807 0)
(1.13384 0.074732 0)
(1.10089 0.0641458 0)
(1.07535 0.0550298 0)
(1.05954 0.0477623 0)
(1.04843 0.0414163 0)
(1.03997 0.0357705 0)
(1.03333 0.0307537 0)
(1.02806 0.0262854 0)
(1.0238 0.0223031 0)
(1.0203 0.0187551 0)
(1.01738 0.0155973 0)
(1.01491 0.0127932 0)
(1.01278 0.0103134 0)
(1.01091 0.00813443 0)
(1.00924 0.00623815 0)
(1.00773 0.00461087 0)
(1.00633 0.0032428 0)
(1.00503 0.00212758 0)
(1.00382 0.00125802 0)
(1.00269 0.000649094 0)
(1.00181 0.000267304 0)
(1.00121 8.15701e-05 0)
(1.00085 2.64008e-06 0)
(1.00067 -2.43647e-05 0)
(1.00058 -3.70818e-05 0)
(1.00051 -8.78651e-05 0)
(0.301231 -0.000192351 0)
(0.831801 0.0395679 0)
(1.09389 0.0668968 0)
(1.14059 0.0692719 0)
(1.11393 0.0611896 0)
(1.08662 0.0530452 0)
(1.06899 0.0464115 0)
(1.05679 0.0405662 0)
(1.04748 0.0352654 0)
(1.0401 0.0304507 0)
(1.03415 0.0260755 0)
(1.02927 0.0221052 0)
(1.02521 0.0185088 0)
(1.02179 0.015259 0)
(1.01884 0.0123332 0)
(1.01626 0.00971336 0)
(1.01397 0.00738565 0)
(1.0119 0.00534008 0)
(1.00999 0.00357025 0)
(1.00822 0.00207287 0)
(1.00654 0.000847733 0)
(1.00495 -0.000107284 0)
(1.00346 -0.000772888 0)
(1.00228 -0.00117514 0)
(1.00147 -0.00135669 0)
(1.00097 -0.0014187 0)
(1.00069 -0.00141965 0)
(1.00055 -0.00140998 0)
(1.00043 -0.00146227 0)
(0.278275 -0.000987715 0)
(0.786193 0.0290773 0)
(1.06979 0.0568958 0)
(1.14186 0.0632431 0)
(1.12432 0.057615 0)
(1.09676 0.0504254 0)
(1.07767 0.0443286 0)
(1.06455 0.0389351 0)
(1.05459 0.0339787 0)
(1.04662 0.0293918 0)
(1.04012 0.0251476 0)
(1.03473 0.021231 0)
(1.03019 0.0176271 0)
(1.02631 0.014323 0)
(1.02293 0.0113083 0)
(1.01993 0.0085756 0)
(1.01723 0.00612039 0)
(1.01475 0.00394107 0)
(1.01245 0.00203901 0)
(1.01027 0.00041792 0)
(1.00819 -0.000916505 0)
(1.00618 -0.00195852 0)
(1.00429 -0.0026802 0)
(1.00277 -0.00310343 0)
(1.0017 -0.00328003 0)
(1.00102 -0.00332017 0)
(1.00063 -0.0032873 0)
(1.0004 -0.00324069 0)
(1.0002 -0.00327282 0)
(0.261855 -0.00103313 0)
(0.747029 0.0216545 0)
(1.04426 0.0482218 0)
(1.13896 0.0572118 0)
(1.13221 0.0538144 0)
(1.10583 0.0475466 0)
(1.08567 0.0418785 0)
(1.07177 0.0368402 0)
(1.06129 0.0321743 0)
(1.05287 0.0277931 0)
(1.04595 0.0236766 0)
(1.04014 0.0198206 0)
(1.0352 0.0162212 0)
(1.03092 0.0128759 0)
(1.02714 0.00978412 0)
(1.02376 0.00694737 0)
(1.02067 0.00436952 0)
(1.0178 0.00205704 0)
(1.01509 1.82866e-05 0)
(1.01249 -0.0017364 0)
(1.00998 -0.00319259 0)
(1.00753 -0.00433572 0)
(1.00519 -0.00512773 0)
(1.00327 -0.00558499 0)
(1.00191 -0.00576388 0)
(1.00101 -0.00578381 0)
(1.00046 -0.00571592 0)
(1.00011 -0.00562737 0)
(0.999788 -0.00562963 0)
(0.249649 -0.000814612 0)
(0.713806 0.0165106 0)
(1.01891 0.0408965 0)
(1.13312 0.0514622 0)
(1.13792 0.049977 0)
(1.11395 0.0445895 0)
(1.09314 0.0392724 0)
(1.07856 0.0344952 0)
(1.06765 0.0300498 0)
(1.0589 0.0258296 0)
(1.05164 0.0218131 0)
(1.0455 0.0180011 0)
(1.04023 0.0143961 0)
(1.03561 0.0110025 0)
(1.03149 0.00782694 0)
(1.02775 0.00487786 0)
(1.0243 0.00216624 0)
(1.02104 -0.000295456 0)
(1.01793 -0.00249243 0)
(1.01491 -0.00440567 0)
(1.01195 -0.00601165 0)
(1.00902 -0.00728722 0)
(1.00618 -0.00818291 0)
(1.00382 -0.0087044 0)
(1.0021 -0.00890784 0)
(1.00094 -0.00892237 0)
(1.00018 -0.00882732 0)
(0.999652 -0.0086994 0)
(0.999178 -0.00867052 0)
(0.240132 -0.000555106 0)
(0.685679 0.0129595 0)
(0.994638 0.0347954 0)
(1.12531 0.0461384 0)
(1.14179 0.0462097 0)
(1.12123 0.0416438 0)
(1.10023 0.0366264 0)
(1.08506 0.0320326 0)
(1.07378 0.0277398 0)
(1.06476 0.02363 0)
(1.05724 0.0196758 0)
(1.05085 0.0158784 0)
(1.0453 0.0122437 0)
(1.0404 0.00878045 0)
(1.03599 0.00549976 0)
(1.03193 0.0024154 0)
(1.02814 -0.000457363 0)
(1.02453 -0.0031009 0)
(1.02103 -0.00549276 0)
(1.01758 -0.00760595 0)
(1.01414 -0.0094088 0)
(1.01071 -0.0108691 0)
(1.00733 -0.0119255 0)
(1.00447 -0.0125666 0)
(1.00234 -0.0128403 0)
(1.00085 -0.0128838 0)
(0.999821 -0.0127848 0)
(0.999055 -0.0126315 0)
(0.998362 -0.0125776 0)
(0.232431 -0.000344776 0)
(0.661815 0.0104634 0)
(0.971898 0.0297371 0)
(1.11626 0.0412964 0)
(1.14412 0.0425811 0)
(1.12773 0.0387638 0)
(1.10701 0.0340121 0)
(1.09137 0.0295408 0)
(1.07977 0.0253394 0)
(1.07052 0.0212905 0)
(1.06282 0.0173579 0)
(1.05622 0.0135402 0)
(1.05047 0.00984403 0)
(1.04534 0.0062801 0)
(1.04068 0.00286228 0)
(1.03635 -0.000393435 0)
(1.03226 -0.00346864 0)
(1.02831 -0.00634003 0)
(1.02443 -0.00897862 0)
(1.02056 -0.0113507 0)
(1.01665 -0.0134177 0)
(1.01269 -0.0151391 0)
(1.00874 -0.0164422 0)
(1.00533 -0.0172922 0)
(1.00274 -0.0177162 0)
(1.00085 -0.0178545 0)
(0.999466 -0.0178012 0)
(0.998375 -0.0176577 0)
(0.997383 -0.0175993 0)
(0.226032 -0.000201926 0)
(0.641481 0.00864711 0)
(0.950903 0.0255351 0)
(1.10653 0.0369342 0)
(1.14519 0.0391306 0)
(1.13354 0.0359844 0)
(1.11353 0.0314769 0)
(1.09758 0.0270839 0)
(1.08569 0.0229229 0)
(1.07627 0.0188893 0)
(1.06843 0.0149384 0)
(1.06169 0.0110638 0)
(1.05578 0.00727042 0)
(1.05048 0.00356892 0)
(1.04562 -2.68997e-05 0)
(1.04108 -0.0035006 0)
(1.03673 -0.00683068 0)
(1.03248 -0.00998923 0)
(1.02826 -0.0129423 0)
(1.02398 -0.0156506 0)
(1.01961 -0.0180698 0)
(1.01511 -0.0201533 0)
(1.01057 -0.0218202 0)
(1.00659 -0.0230092 0)
(1.00349 -0.0237106 0)
(1.00112 -0.0240573 0)
(0.999281 -0.0241439 0)
(0.99775 -0.0240833 0)
(0.996344 -0.0240692 0)
(0.220607 -0.000116461 0)
(0.624063 0.00727977 0)
(0.931691 0.0220536 0)
(1.09649 0.0330507 0)
(1.14523 0.0358931 0)
(1.13867 0.0333288 0)
(1.1198 0.0290472 0)
(1.10367 0.0247032 0)
(1.09155 0.0205434 0)
(1.082 0.016487 0)
(1.07406 0.0124822 0)
(1.06724 0.00851597 0)
(1.06123 0.00458986 0)
(1.05581 0.00071194 0)
(1.05082 -0.00310634 0)
(1.0461 -0.0068486 0)
(1.04155 -0.0104914 0)
(1.03706 -0.0140039 0)
(1.03252 -0.0173484 0)
(1.02787 -0.0204805 0)
(1.02305 -0.0233513 0)
(1.01803 -0.025911 0)
(1.01293 -0.0280778 0)
(1.00842 -0.0297746 0)
(1.00483 -0.0309457 0)
(1.00198 -0.0317024 0)
(0.999615 -0.0321184 0)
(0.997526 -0.0322983 0)
(0.995568 -0.0324312 0)
(0.216321 -5.90054e-05 0)
(0.610153 0.00630124 0)
(0.915529 0.0193616 0)
(1.08729 0.0298577 0)
(1.14463 0.0331181 0)
(1.14295 0.031025 0)
(1.12544 0.0269433 0)
(1.10933 0.0226328 0)
(1.09703 0.0184533 0)
(1.0874 0.0143526 0)
(1.07942 0.0102734 0)
(1.07257 0.00619488 0)
(1.06654 0.00211327 0)
(1.06108 -0.00196812 0)
(1.05603 -0.00604159 0)
(1.05123 -0.0100928 0)
(1.04656 -0.0140991 0)
(1.04189 -0.0180293 0)
(1.03713 -0.0218437 0)
(1.03218 -0.0254924 0)
(1.02698 -0.0289189 0)
(1.02151 -0.0320664 0)
(1.01593 -0.0348476 0)
(1.011 -0.0371756 0)
(1.00704 -0.0389736 0)
(1.00381 -0.0403529 0)
(1.00097 -0.041355 0)
(0.998239 -0.0420263 0)
(0.995525 -0.0424865 0)
(0.213141 -2.49246e-05 0)
(0.599881 0.00563609 0)
(0.903109 0.01743 0)
(1.07973 0.0274598 0)
(1.14376 0.0309792 0)
(1.14621 0.0292422 0)
(1.13006 0.0253221 0)
(1.11406 0.021036 0)
(1.10167 0.0168346 0)
(1.092 0.01269 0)
(1.08403 0.00853944 0)
(1.07721 0.00435412 0)
(1.0712 0.000123807 0)
(1.06577 -0.00415388 0)
(1.06073 -0.00847623 0)
(1.05593 -0.0128334 0)
(1.05122 -0.017207 0)
(1.04648 -0.0215696 0)
(1.0416 -0.0258827 0)
(1.03646 -0.0300943 0)
(1.031 -0.0341398 0)
(1.0252 -0.037949 0)
(1.01923 -0.0414077 0)
(1.01401 -0.0443888 0)
(1.0099 -0.0468127 0)
(1.00658 -0.0488728 0)
(1.00361 -0.0506927 0)
(1.00059 -0.0523049 0)
(0.997408 -0.0535458 0)
(0.210665 2.25674e-05 0)
(0.591971 0.00518374 0)
(0.893264 0.0160274 0)
(1.07339 0.0256446 0)
(1.14273 0.0293279 0)
(1.14872 0.0278699 0)
(1.13385 0.0240919 0)
(1.11802 0.0198379 0)
(1.10558 0.0156268 0)
(1.09589 0.0114513 0)
(1.08795 0.00724389 0)
(1.08118 0.00296877 0)
(1.07523 -0.00139017 0)
(1.06987 -0.00584138 0)
(1.06489 -0.0103883 0)
(1.06014 -0.0150275 0)
(1.05547 -0.0197479 0)
(1.05074 -0.0245295 0)
(1.04582 -0.02934 0)
(1.04059 -0.0341305 0)
(1.03497 -0.0388335 0)
(1.02893 -0.0433686 0)
(1.02266 -0.0475785 0)
(1.01717 -0.0512146 0)
(1.01294 -0.0541101 0)
(1.00971 -0.0565276 0)
(1.00711 -0.0588377 0)
(1.00484 -0.0614262 0)
(1.00228 -0.0637297 0)
(0.20906 1.43952e-05 0)
(0.586486 0.00483024 0)
(0.886212 0.0150277 0)
(1.06875 0.0243647 0)
(1.14197 0.028156 0)
(1.15067 0.0268679 0)
(1.13684 0.023168 0)
(1.12121 0.0189349 0)
(1.10877 0.0147264 0)
(1.0991 0.0105357 0)
(1.09122 0.00628715 0)
(1.08452 0.00193926 0)
(1.07867 -0.00252806 0)
(1.0734 -0.00712866 0)
(1.06853 -0.0118729 0)
(1.06388 -0.0167655 0)
(1.0593 -0.021805 0)
(1.05465 -0.0269819 0)
(1.04979 -0.0322745 0)
(1.0446 -0.0376444 0)
(1.03898 -0.0430329 0)
(1.03289 -0.0483709 0)
(1.02655 -0.053491 0)
(1.02098 -0.0579904 0)
(1.0167 -0.0614775 0)
(1.01352 -0.0639916 0)
(1.01118 -0.0655594 0)
(1.00967 -0.0668978 0)
(1.00992 -0.071889 0)
(1.00002 0.000820541 0)
(1.00001 0.000821702 0)
(1.00001 0.000817802 0)
(1.00001 0.000814799 1.0312e-21)
(1.00001 0.000813799 5.14196e-21)
(1.00001 0.000814622 -9.25169e-21)
(1.00001 0.000817101 5.13771e-21)
(1.00001 0.000821124 -4.09249e-21)
(1 0.000826536 5.2336e-22)
(1 0.000833353 4.09012e-21)
(1 0.000841408 0)
(1 0.000850685 -4.57167e-21)
(0.999999 0.000861071 5.19756e-22)
(0.999998 0.000872436 4.05845e-21)
(0.999997 0.000884763 0)
(0.999996 0.000897888 0)
(0.999995 0.000911768 -4.01885e-21)
(0.999993 0.000926272 4.02138e-21)
(0.999992 0.00094124 0)
(0.999991 0.00095667 -1.99395e-21)
(0.99999 0.000972383 2.11932e-21)
(0.999989 0.000988264 1.85848e-21)
(0.999989 0.00100426 -2.97157e-21)
(0.999988 0.0010202 9.57704e-22)
(0.999987 0.00103598 3.06895e-23)
(0.999987 0.00105154 -6.13397e-23)
(0.999986 0.00106672 8.53224e-22)
(0.999986 0.00108141 -9.75292e-22)
(0.999985 0.00109562 0)
(0.999985 0.00110904 0)
(0.999985 0.00112164 -2.40635e-22)
(0.999985 0.00113348 -2.39628e-22)
(0.999985 0.00114441 -4.04849e-21)
(0.999986 0.00115441 3.33201e-21)
(0.999986 0.00116336 -4.24933e-21)
(0.999986 0.00117122 4.2439e-21)
(0.999987 0.00117797 -3.27312e-21)
(0.999988 0.00118347 3.27176e-21)
(0.999988 0.00118776 4.6422e-22)
(0.999989 0.00119071 4.61991e-22)
(0.99999 0.00119232 -4.5973e-22)
(0.999991 0.00119257 0)
(0.999993 0.00119135 0)
(0.999994 0.00118873 0)
(0.999996 0.00118459 0)
(0.999997 0.00117914 0)
(0.999999 0.00117221 1.78112e-21)
(1 0.00116296 -1.7781e-21)
(1 0.00114734 0)
(1.0001 0.00142567 0)
(1.00008 0.00142464 2.08108e-21)
(1.00007 0.00142049 -2.07367e-21)
(1.00005 0.00142023 -1.03477e-21)
(1.00004 0.00142508 -1.035e-21)
(1.00002 0.00143439 -3.09435e-21)
(1.00001 0.00144792 5.16568e-21)
(0.999996 0.00146561 0)
(0.999983 0.00148694 -5.13946e-22)
(0.999971 0.00151207 -1.02677e-21)
(0.999959 0.0015405 0)
(0.999948 0.00157213 5.10967e-22)
(0.999938 0.00160679 -4.58365e-21)
(0.999928 0.00164402 4.07736e-21)
(0.999919 0.00168382 0)
(0.99991 0.00172577 1.01401e-21)
(0.999902 0.00176967 0)
(0.999895 0.00181537 0)
(0.999889 0.00186234 0)
(0.999883 0.00191054 -2.00265e-21)
(0.999878 0.00195967 1.87842e-21)
(0.999874 0.00200934 -1.24886e-22)
(0.99987 0.00205942 0)
(0.999868 0.00210957 -4.63741e-22)
(0.999866 0.0021595 4.8704e-22)
(0.999865 0.00220901 9.23394e-23)
(0.999865 0.0022578 1.22611e-22)
(0.999866 0.00230559 0)
(0.999867 0.0023522 -1.9446e-21)
(0.99987 0.00239733 1.94417e-21)
(0.999873 0.00244075 -3.61757e-21)
(0.999877 0.00248226 7.94199e-21)
(0.999881 0.00252159 -3.60228e-21)
(0.999886 0.00255858 4.77233e-22)
(0.999892 0.00259292 4.75207e-22)
(0.999899 0.00262449 4.73566e-22)
(0.999907 0.00265307 -4.70964e-22)
(0.999915 0.00267841 4.21285e-21)
(0.999924 0.00270044 -3.27337e-21)
(0.999934 0.00271884 -1.39345e-21)
(0.999944 0.00273355 5.0771e-21)
(0.999955 0.00274438 -3.68609e-21)
(0.999967 0.00275107 -1.83044e-21)
(0.99998 0.00275368 3.63531e-21)
(0.999993 0.00275177 -7.24791e-21)
(1.00001 0.00274557 3.61161e-21)
(1.00002 0.00273487 1.78974e-21)
(1.00003 0.00271884 -3.97632e-24)
(1.00005 0.00269242 0)
(1.0002 0.0017192 3.1318e-21)
(1.00016 0.00171595 -1.04571e-21)
(1.00012 0.0017151 -4.16536e-21)
(1.00007 0.001721 2.07634e-21)
(1.00003 0.00173492 -2.07584e-21)
(0.999993 0.001756 0)
(0.999955 0.00178395 -2.06546e-21)
(0.999919 0.00181887 -6.18434e-21)
(0.999884 0.00185968 6.18554e-21)
(0.999851 0.0019068 1.02673e-21)
(0.99982 0.0019593 0)
(0.999791 0.00201705 -6.13741e-21)
(0.999763 0.00207989 1.18429e-23)
(0.999738 0.00214686 4.08187e-21)
(0.999715 0.00221816 0)
(0.999693 0.00229299 -1.01336e-21)
(0.999674 0.00237098 -1.01323e-21)
(0.999657 0.0024521 0)
(0.999641 0.00253529 -1.00788e-21)
(0.999629 0.00262052 -2.00414e-21)
(0.999618 0.00270743 2.00475e-21)
(0.999609 0.00279523 -2.50348e-22)
(0.999603 0.00288379 -2.49025e-22)
(0.999599 0.00297263 0)
(0.999597 0.00306114 3.85462e-23)
(0.999597 0.00314908 -2.15616e-22)
(0.9996 0.00323602 0)
(0.999605 0.00332139 0)
(0.999612 0.00340492 -1.94495e-21)
(0.999621 0.00348621 1.94458e-21)
(0.999632 0.00356478 -3.85942e-21)
(0.999646 0.00364032 3.85814e-21)
(0.999661 0.00371242 0)
(0.999678 0.00378073 0)
(0.999698 0.00384484 0)
(0.999719 0.00390448 -9.45922e-22)
(0.999742 0.00395925 -1.88482e-21)
(0.999767 0.00400879 0)
(0.999795 0.00405293 -9.32947e-22)
(0.999823 0.00409112 -9.212e-22)
(0.999854 0.00412329 2.77987e-21)
(0.999887 0.00414902 0)
(0.999921 0.00416792 3.65359e-21)
(0.999957 0.00418004 -5.46865e-21)
(0.999994 0.00418459 0)
(1.00003 0.00418185 0)
(1.00007 0.00417124 0)
(1.00012 0.0041519 -1.78418e-21)
(1.00016 0.00411967 -1.77275e-21)
(1.00029 0.00172481 -2.09248e-21)
(1.00022 0.00172354 4.18772e-21)
(1.00014 0.00173115 4.17977e-21)
(1.00006 0.00174815 6.24787e-21)
(0.999976 0.00177619 -2.08739e-21)
(0.999899 0.00181427 -4.14649e-21)
(0.999825 0.00186208 8.29052e-21)
(0.999754 0.00191995 -4.26863e-24)
(0.999687 0.00198604 -2.06218e-21)
(0.999624 0.00206126 2.0644e-21)
(0.999564 0.00214408 0)
(0.999508 0.00223435 2.0494e-21)
(0.999455 0.00233202 -2.03731e-21)
(0.999407 0.00243542 8.17213e-21)
(0.999363 0.00254509 -8.15224e-21)
(0.999323 0.00265977 6.10958e-21)
(0.999287 0.00277892 -1.01975e-21)
(0.999255 0.00290271 1.01336e-21)
(0.999228 0.00302931 1.00712e-21)
(0.999205 0.00315889 -1.00776e-21)
(0.999186 0.00329098 0)
(0.999171 0.00342429 -1.49684e-21)
(0.999161 0.00355875 1.25035e-21)
(0.999155 0.00369373 9.94918e-22)
(0.999154 0.00382824 4.63726e-23)
(0.999157 0.00396201 9.22647e-23)
(0.999164 0.00409451 1.47328e-21)
(0.999176 0.00422479 -9.80925e-22)
(0.999192 0.00435255 1.9471e-21)
(0.999212 0.00447726 -1.94678e-21)
(0.999236 0.00459815 0)
(0.999264 0.00471484 4.8116e-21)
(0.999296 0.00482676 -3.84543e-21)
(0.999332 0.00493334 3.81328e-21)
(0.999372 0.00503411 -3.81188e-21)
(0.999416 0.00512862 0)
(0.999464 0.00521631 3.75897e-21)
(0.999515 0.00529669 -1.88231e-21)
(0.99957 0.0053695 0)
(0.999629 0.00543396 3.70892e-21)
(0.999691 0.00549 -3.70429e-21)
(0.999757 0.005537 1.8391e-21)
(0.999826 0.00557441 1.83006e-21)
(0.999899 0.00560229 5.45976e-21)
(0.999974 0.00561954 6.2208e-24)
(1.00005 0.00562652 3.60994e-21)
(1.00014 0.00562225 1.78815e-21)
(1.00022 0.00560576 1.77617e-21)
(1.00032 0.00557416 1.77417e-21)
(1.00036 0.00143501 0)
(1.00024 0.00144235 -4.1937e-21)
(1.00011 0.0014654 -4.18373e-21)
(0.999982 0.00150059 0)
(0.99985 0.0015502 -4.17154e-21)
(0.999723 0.00161295 1.05338e-23)
(0.999601 0.00168854 8.3408e-21)
(0.999485 0.00177756 -2.08858e-21)
(0.999374 0.00187731 -1.08714e-23)
(0.999269 0.0019893 -6.20775e-21)
(0.999171 0.00211127 0)
(0.999079 0.00224312 -6.18101e-21)
(0.998993 0.00238493 2.06522e-21)
(0.998914 0.00253419 0)
(0.998842 0.00269191 -2.05132e-21)
(0.998776 0.00285622 9.76864e-24)
(0.998718 0.00302643 -2.03343e-21)
(0.998666 0.003203 7.10554e-21)
(0.998622 0.00338315 -1.29362e-23)
(0.998585 0.0035673 -1.02094e-21)
(0.998555 0.00375492 -1.00659e-21)
(0.998532 0.00394406 2.00201e-21)
(0.998516 0.00413483 -2.00231e-21)
(0.998508 0.00432638 -2.47503e-22)
(0.998507 0.00451727 5.12615e-22)
(0.998513 0.00470728 -2.76694e-22)
(0.998527 0.00489571 9.85054e-22)
(0.998547 0.00508119 -9.83186e-22)
(0.998575 0.00526344 9.79354e-22)
(0.99861 0.00544175 1.94303e-21)
(0.998651 0.00561502 -5.81171e-21)
(0.998699 0.00578286 -9.48226e-22)
(0.998754 0.00594448 5.77614e-21)
(0.998816 0.00609909 1.91552e-21)
(0.998884 0.00624615 -3.80066e-21)
(0.998958 0.00638503 3.79837e-21)
(0.999039 0.00651499 8.50583e-24)
(0.999126 0.00663545 5.63245e-21)
(0.999219 0.00674601 -3.75327e-21)
(0.999318 0.00684572 -9.30072e-21)
(0.999423 0.00693446 3.69848e-21)
(0.999534 0.00701144 1.83962e-21)
(0.99965 0.00707597 7.31077e-21)
(0.999772 0.00712817 -3.64795e-21)
(0.9999 0.00716657 -9.04427e-24)
(1.00003 0.0071917 -9.86803e-24)
(1.00017 0.00720216 0)
(1.00032 0.00719701 -3.5644e-21)
(1.00048 0.00717523 -3.53793e-21)
(1.00039 0.000833855 0)
(1.00022 0.000857478 -6.34251e-21)
(1.00002 0.000904905 6.33259e-21)
(0.999827 0.000967351 0)
(0.99963 0.00104803 0)
(0.999439 0.00114529 -4.18736e-21)
(0.999255 0.0012589 -2.88678e-24)
(0.999079 0.00138985 -4.18638e-21)
(0.998912 0.00153427 -8.22334e-24)
(0.998754 0.00169449 0)
(0.998606 0.00186735 0)
(0.998467 0.00205282 2.06605e-21)
(0.998338 0.00225115 0)
(0.998219 0.00245881 0)
(0.99811 0.00267743 -2.05579e-21)
(0.998011 0.00290442 4.12047e-21)
(0.997923 0.00313888 2.05261e-21)
(0.997846 0.00338168 0)
(0.997779 0.00362887 2.02009e-21)
(0.997724 0.00388125 -5.07845e-21)
(0.997679 0.00413816 -2.02135e-21)
(0.997645 0.00439693 -2.01049e-21)
(0.997622 0.00465785 2.01069e-21)
(0.997611 0.00491984 1.36034e-24)
(0.99761 0.00518096 1.56119e-23)
(0.99762 0.00544102 2.47704e-22)
(0.997641 0.00569914 -4.95229e-22)
(0.997673 0.00595351 0)
(0.997716 0.00620381 -9.78384e-22)
(0.997769 0.0064492 0)
(0.997833 0.00668817 0)
(0.997907 0.0069203 -1.93878e-21)
(0.997991 0.0071446 -7.69591e-21)
(0.998085 0.00736002 2.29628e-23)
(0.99819 0.00756596 1.9131e-21)
(0.998303 0.00776158 0)
(0.998427 0.00794595 -1.88639e-21)
(0.99856 0.00811838 -3.76188e-21)
(0.998702 0.00827838 3.73487e-21)
(0.998853 0.00842474 7.43766e-21)
(0.999013 0.0085574 -7.39691e-21)
(0.999181 0.00867531 1.46242e-24)
(0.999358 0.00877769 -3.65882e-21)
(0.999543 0.00886472 -1.37964e-24)
(0.999737 0.00893454 0)
(0.999939 0.00898794 -3.5988e-21)
(1.00015 0.00902297 -1.78394e-21)
(1.00037 0.00903891 1.78261e-21)
(1.00061 0.00903771 3.54018e-21)
(1.00033 -9.30011e-05 0)
(1.00009 -4.74033e-05 4.24071e-21)
(0.999825 2.45833e-05 -1.27398e-20)
(0.999553 0.000124233 0)
(0.999276 0.00024898 0)
(0.999005 0.000393782 -8.45373e-21)
(0.998744 0.000558902 8.42229e-21)
(0.998494 0.000745582 -4.22137e-21)
(0.998256 0.000948781 -8.33756e-24)
(0.998031 0.00117191 4.19401e-21)
(0.997819 0.00141075 0)
(0.99762 0.00166534 0)
(0.997436 0.00193614 4.17755e-21)
(0.997266 0.0022184 0)
(0.99711 0.00251452 0)
(0.996969 0.00282103 -4.13011e-21)
(0.996844 0.00313682 1.54171e-23)
(0.996733 0.00346324 0)
(0.996638 0.00379497 2.03921e-21)
(0.996559 0.00413324 5.09982e-21)
(0.996495 0.00447727 -2.04314e-21)
(0.996447 0.00482355 0)
(0.996414 0.00517256 -1.00704e-21)
(0.996398 0.00552298 1.25808e-21)
(0.996397 0.00587228 -5.4856e-22)
(0.996412 0.00622028 -2.50127e-22)
(0.996443 0.00656594 4.92755e-22)
(0.996489 0.0069069 -9.90704e-22)
(0.99655 0.0072428 0)
(0.996627 0.00757262 -3.9203e-21)
(0.996719 0.00789442 5.84597e-21)
(0.996826 0.00820773 1.91901e-21)
(0.996948 0.00851133 -8.20263e-24)
(0.997084 0.00880383 1.91547e-21)
(0.997234 0.00908458 -1.92408e-21)
(0.997397 0.00935255 -3.79394e-21)
(0.997575 0.00960652 7.56506e-21)
(0.997766 0.00984573 -3.76693e-21)
(0.99797 0.0100696 7.49534e-21)
(0.998186 0.0102765 5.33929e-24)
(0.998415 0.0104666 7.39981e-21)
(0.998656 0.0106386 -3.67696e-21)
(0.998908 0.0107914 0)
(0.999173 0.0109255 -1.43374e-24)
(0.999449 0.0110386 7.22682e-21)
(0.999737 0.0111316 0)
(1.00004 0.0112021 0)
(1.00036 0.0112498 6.20621e-21)
(1.00069 0.011281 8.84421e-22)
(1.00017 -0.00145881 1.07118e-21)
(0.999839 -0.00133767 7.52993e-21)
(0.999473 -0.00117703 8.52237e-21)
(0.999098 -0.00103171 -8.58033e-21)
(0.998722 -0.00087454 0)
(0.998359 -0.000670874 -1.1237e-23)
(0.998009 -0.000438866 -4.28523e-21)
(0.997668 -0.000179596 -4.272e-21)
(0.997342 9.96893e-05 1.27243e-20)
(0.997033 0.000403999 -4.22946e-21)
(0.996743 0.000727562 0)
(0.99647 0.00107057 8.42895e-21)
(0.996217 0.00143376 -8.37863e-21)
(0.995983 0.00181098 2.64812e-23)
(0.995769 0.00220551 8.34711e-21)
(0.995575 0.00261284 -2.09565e-21)
(0.995402 0.0030316 -2.03977e-21)
(0.995249 0.00346363 4.14269e-21)
(0.995118 0.00390216 0)
(0.995009 0.00434882 -2.04637e-21)
(0.99492 0.00480268 2.04764e-21)
(0.994854 0.00525928 2.03541e-21)
(0.994809 0.00571932 -2.03537e-21)
(0.994787 0.00618114 2.53985e-22)
(0.994786 0.0066416 3.13688e-23)
(0.994807 0.00710045 7.50278e-22)
(0.994849 0.00755642 -2.72512e-24)
(0.994913 0.00800661 0)
(0.994999 0.00845051 0)
(0.995106 0.00888688 -8.17045e-25)
(0.995233 0.00931333 -1.94416e-21)
(0.995382 0.00972922 3.90661e-21)
(0.99555 0.0101331 -3.87752e-21)
(0.995739 0.0105232 3.84491e-21)
(0.995946 0.0108987 -7.68817e-21)
(0.996173 0.0112585 1.78935e-23)
(0.996419 0.0116009 3.80046e-21)
(0.996682 0.011925 3.75924e-21)
(0.996964 0.0122302 -7.51286e-21)
(0.997262 0.0125145 -7.45654e-21)
(0.997577 0.0127783 -3.71228e-21)
(0.997908 0.0130197 -3.68831e-21)
(0.998255 0.0132378 0)
(0.998617 0.013433 -3.63246e-21)
(0.998994 0.0136025 -7.07911e-24)
(0.999388 0.0137479 7.16736e-21)
(0.9998 0.0138657 -8.89558e-21)
(1.00023 0.0139563 1.7566e-21)
(1.00069 0.0140326 0)
(0.999857 -0.00326069 0)
(0.999421 -0.00309738 -8.60804e-21)
(0.998936 -0.0028784 0)
(0.998432 -0.00264108 8.5873e-21)
(0.997933 -0.00236245 4.30181e-21)
(0.997445 -0.00205327 -8.59946e-21)
(0.996974 -0.00175197 1.28495e-20)
(0.996521 -0.00142223 4.26441e-21)
(0.996092 -0.00104994 -4.2584e-21)
(0.995685 -0.000643497 0)
(0.995297 -0.000212946 4.25354e-21)
(0.994934 0.000241706 -8.484e-21)
(0.994594 0.000721571 4.26109e-21)
(0.99428 0.00121881 -4.2069e-21)
(0.993993 0.00173757 3.02567e-23)
(0.993733 0.0022722 4.20832e-21)
(0.9935 0.00282093 -8.38299e-21)
(0.993295 0.00338614 0)
(0.993118 0.00395942 4.15302e-21)
(0.992971 0.00454287 -4.15302e-21)
(0.992852 0.00513525 -1.02753e-21)
(0.992762 0.00573114 0)
(0.992702 0.00633134 1.02921e-21)
(0.992671 0.0069338 2.54835e-22)
(0.99267 0.00753474 -5.40413e-22)
(0.992698 0.00813367 7.57597e-22)
(0.992756 0.00872906 4.99035e-22)
(0.992843 0.00931742 -1.00261e-21)
(0.992959 0.00989791 0)
(0.993104 0.010469 -1.97458e-21)
(0.993277 0.0110279 3.94988e-21)
(0.993478 0.0115735 0)
(0.993706 0.0121042 1.94148e-21)
(0.993961 0.0126177 0)
(0.994243 0.0131129 3.83933e-21)
(0.994549 0.0135885 -7.64939e-21)
(0.994881 0.0140425 3.78851e-21)
(0.995236 0.0144738 -2.25414e-23)
(0.995615 0.0148814 3.72408e-21)
(0.996016 0.0152633 -3.7399e-21)
(0.996439 0.0156197 3.70096e-21)
(0.996883 0.0159484 7.35942e-21)
(0.997346 0.0162484 0)
(0.99783 0.0165204 0)
(0.998333 0.0167609 -7.2152e-21)
(0.998856 0.016972 -1.43166e-20)
(0.999403 0.0171493 1.42165e-20)
(0.999976 0.0172942 -7.95263e-21)
(1.00059 0.0174283 7.87731e-21)
(0.999331 -0.00559112 0)
(0.998767 -0.00535788 8.76648e-21)
(0.998146 -0.00506106 8.75153e-21)
(0.9975 -0.00473587 1.31062e-20)
(0.996853 -0.00436895 -1.30974e-20)
(0.996212 -0.00396319 -4.34118e-21)
(0.99559 -0.00352784 1.308e-20)
(0.994996 -0.00304526 -4.3289e-21)
(0.994429 -0.0025347 4.33307e-21)
(0.993891 -0.00201409 0)
(0.993382 -0.00146591 8.6733e-21)
(0.992909 -0.000874412 0)
(0.992462 -0.000248879 -4.26275e-21)
(0.992049 0.000398574 -4.30426e-21)
(0.991669 0.0010732 5.1483e-23)
(0.991325 0.00176785 0)
(0.991017 0.00248018 4.24745e-21)
(0.990745 0.00321298 8.47434e-21)
(0.99051 0.00395621 0)
(0.990314 0.00471232 2.09034e-21)
(0.990156 0.00547964 -2.08969e-21)
(0.990036 0.00625175 -2.07231e-21)
(0.989956 0.00702941 2.08337e-21)
(0.989915 0.00781003 -4.198e-24)
(0.989913 0.00858916 -5.13203e-22)
(0.989952 0.00936584 -2.25641e-22)
(0.990029 0.0101382 -5.07962e-22)
(0.990145 0.010902 1.01298e-21)
(0.990301 0.0116559 0)
(0.990494 0.0123981 1.98743e-21)
(0.990726 0.0131249 -3.96023e-21)
(0.990995 0.013835 0)
(0.9913 0.0145264 0)
(0.991641 0.0151959 3.87585e-21)
(0.992016 0.0158421 -7.7278e-21)
(0.992425 0.0164639 3.85292e-21)
(0.992867 0.0170581 3.82334e-21)
(0.993339 0.0176236 0)
(0.993842 0.0181593 1.12746e-20)
(0.994373 0.0186625 -7.46602e-21)
(0.994932 0.0191339 -3.7e-21)
(0.995518 0.0195705 7.41436e-24)
(0.996129 0.0199713 -7.30683e-21)
(0.996764 0.0203372 -7.24405e-21)
(0.997423 0.0206641 -7.1925e-21)
(0.998108 0.0209548 1.52716e-23)
(0.99882 0.0212036 -2.09326e-23)
(0.999566 0.0214132 0)
(1.00036 0.0216171 -1.39603e-20)
(0.998564 -0.0085926 0)
(0.997835 -0.0082673 2.29639e-21)
(0.997041 -0.0078666 -1.09521e-20)
(0.996218 -0.00743057 -8.75559e-21)
(0.99539 -0.00694635 8.74535e-21)
(0.994573 -0.00641829 4.45291e-21)
(0.993776 -0.00584622 -4.33827e-21)
(0.993007 -0.00522401 0)
(0.992267 -0.00456559 0)
(0.991563 -0.00386585 8.8061e-21)
(0.990899 -0.00311726 -8.67808e-21)
(0.990277 -0.00234822 4.35285e-21)
(0.989694 -0.00156012 -4.34958e-21)
(0.989153 -0.000728458 4.34371e-21)
(0.988656 0.000141262 4.34659e-21)
(0.988203 0.00103665 -4.3118e-21)
(0.987798 0.00195463 -4.26414e-21)
(0.98744 0.00289839 -4.24658e-21)
(0.98713 0.00385622 4.24928e-21)
(0.98687 0.00483076 -4.24832e-21)
(0.986661 0.00581971 0)
(0.986502 0.00681565 2.11555e-21)
(0.986396 0.00781905 -2.08201e-21)
(0.986341 0.00882657 1.5595e-21)
(0.986339 0.00983298 0)
(0.98639 0.0108366 1.02937e-21)
(0.986492 0.0118348 0)
(0.986647 0.0128228 -1.01182e-21)
(0.986854 0.0137984 1.76909e-23)
(0.987112 0.0147589 1.2222e-23)