/*--------------------------------*- C++ -*----------------------------------*\
| =========                 |                                                 |
| \\      /  F ield         | OpenFOAM: The Open Source CFD Toolbox           |
|  \\    /   O peration     | Version:  2312                                  |
|   \\  /    A nd           | Website:  www.openfoam.com                      |
|    \\/     M anipulation  |                                                 |
\*---------------------------------------------------------------------------*/
FoamFile
{
    version     2.0;
    format      ascii;
    arch        "LSB;label=32;scalar=64";
    class       volScalarField;
    location    "91.168221370753216";
    object      p;
}
// * * * * * * * * * * * * * * * * * * * * * * * * * * * * * * * * * * * * * //

dimensions      [0 2 -2 0 0 0 0];

internalField   nonuniform List<scalar> 
21039
(
0.611953
0.478132
0.435925
0.407634
0.38626
0.370115
0.357599
0.347607
0.339458
0.332699
0.327015
0.322174
0.318004
0.314375
0.311182
0.308343
0.30579
0.303467
0.301326
0.299326
0.297433
0.295617
0.293849
0.29221
0.290783
0.289528
0.288399
0.287358
0.286388
0.464867
0.427006
0.413149
0.394734
0.377916
0.364565
0.353735
0.344793
0.337345
0.331079
0.325752
0.321178
0.317213
0.313744
0.310681
0.307948
0.305483
0.303234
0.301157
0.299212
0.297366
0.295587
0.29385
0.292232
0.290812
0.289557
0.288427
0.287386
0.286414
0.375475
0.373083
0.375217
0.368429
0.359936
0.352076
0.344744
0.338121
0.332279
0.327159
0.322672
0.31873
0.315254
0.312172
0.309419
0.306942
0.304693
0.302627
0.300709
0.298902
0.297176
0.295504
0.293859
0.292311
0.290942
0.289723
0.28862
0.287601
0.286647
0.33743
0.33954
0.34399
0.342873
0.340209
0.336928
0.333049
0.329039
0.325165
0.321528
0.318174
0.315112
0.312331
0.309809
0.307515
0.305422
0.303498
0.301713
0.300041
0.298452
0.296922
0.295425
0.293938
0.292524
0.291256
0.290117
0.289075
0.288103
0.287185
0.312473
0.316434
0.322312
0.323998
0.324163
0.323381
0.321777
0.319764
0.317561
0.315294
0.313058
0.310913
0.308888
0.306994
0.305232
0.303592
0.302062
0.300625
0.299262
0.297953
0.296678
0.295415
0.294144
0.292915
0.291793
0.290766
0.289813
0.288907
0.288038
0.292914
0.29816
0.305504
0.309357
0.311337
0.3121
0.311972
0.31133
0.310357
0.309177
0.307891
0.30657
0.305259
0.303987
0.302768
0.301609
0.300508
0.299458
0.298448
0.297465
0.296492
0.295512
0.294507
0.293508
0.292569
0.291685
0.290843
0.290023
0.289216
0.280247
0.285258
0.292347
0.297283
0.300486
0.302395
0.303368
0.30375
0.303717
0.303399
0.302899
0.30229
0.301623
0.300932
0.300242
0.299566
0.298908
0.29827
0.297644
0.297023
0.296393
0.295739
0.295046
0.294323
0.293605
0.292897
0.292193
0.291479
0.290751
0.27307
0.277157
0.282892
0.287833
0.291527
0.294089
0.295801
0.296929
0.297622
0.297998
0.298153
0.298158
0.298065
0.297911
0.297724
0.297521
0.297311
0.297099
0.296881
0.296652
0.296402
0.296117
0.295783
0.295382
0.294926
0.294428
0.29389
0.293306
0.292676
0.268682
0.27187
0.27623
0.280714
0.284404
0.287192
0.289291
0.290891
0.292101
0.29301
0.293698
0.294224
0.294637
0.294973
0.295259
0.295514
0.29575
0.295971
0.296179
0.296368
0.296531
0.296654
0.296726
0.296696
0.296546
0.296295
0.295953
0.295523
0.295012
0.265421
0.267862
0.271179
0.27513
0.278632
0.281441
0.283712
0.285586
0.28714
0.288441
0.289548
0.290507
0.291359
0.292137
0.292864
0.293559
0.294233
0.294892
0.295538
0.296168
0.296775
0.297347
0.297871
0.298263
0.298469
0.298507
0.298397
0.298144
0.297761
0.26258
0.264424
0.266993
0.270432
0.273696
0.276456
0.278805
0.280844
0.282634
0.284225
0.285662
0.286981
0.288214
0.289389
0.290525
0.29164
0.292743
0.293841
0.294937
0.296027
0.297106
0.298165
0.29919
0.30006
0.300674
0.30105
0.301217
0.301181
0.300955
0.259841
0.261243
0.263285
0.266258
0.269273
0.271954
0.274332
0.276476
0.278437
0.280253
0.281958
0.283582
0.285149
0.286684
0.288202
0.289718
0.291242
0.29278
0.294334
0.295901
0.297477
0.299055
0.300625
0.302026
0.303102
0.30387
0.304359
0.30458
0.304546
0.25704
0.258134
0.259813
0.262387
0.265161
0.267747
0.270122
0.272332
0.274418
0.276412
0.278341
0.280227
0.282092
0.283955
0.285832
0.287734
0.289671
0.291649
0.293668
0.295725
0.297816
0.299936
0.302083
0.304055
0.305641
0.30685
0.307709
0.308229
0.308424
0.254103
0.254986
0.256407
0.25865
0.261204
0.26369
0.266043
0.268291
0.27047
0.272606
0.274722
0.276835
0.278966
0.281131
0.283345
0.285621
0.287966
0.290384
0.292874
0.29543
0.298046
0.300717
0.303447
0.305998
0.308111
0.309788
0.311054
0.311911
0.312369
0.251008
0.251744
0.252965
0.254921
0.257266
0.259647
0.261968
0.264237
0.266484
0.268733
0.271003
0.273313
0.27568
0.278121
0.280654
0.283291
0.286039
0.2889
0.291869
0.294935
0.298084
0.301301
0.304587
0.307665
0.310248
0.312354
0.314018
0.31523
0.315986
0.248019
0.248649
0.249716
0.251458
0.253636
0.255922
0.258205
0.260483
0.262778
0.265112
0.267504
0.269972
0.272537
0.275218
0.278035
0.281003
0.28413
0.287415
0.290851
0.294417
0.29808
0.301797
0.305533
0.308934
0.311705
0.313939
0.315739
0.317139
0.318127
0.245457
0.24602
0.246993
0.248604
0.250658
0.252859
0.25511
0.257398
0.259735
0.262139
0.264628
0.267226
0.269954
0.272839
0.275904
0.279166
0.282635
0.286315
0.290194
0.294242
0.298403
0.302589
0.306686
0.310182
0.312715
0.314452
0.315656
0.31659
0.317476
0.243314
0.243835
0.244744
0.24626
0.24822
0.250368
0.252615
0.254931
0.257316
0.259785
0.262363
0.265076
0.267953
0.271024
0.274316
0.277851
0.281647
0.28571
0.29003
0.294574
0.29927
0.303984
0.308507
0.312077
0.314083
0.314558
0.313771
0.312235
0.311046
0.241572
0.242146
0.24308
0.244504
0.246304
0.24835
0.250593
0.252959
0.255406
0.257948
0.260616
0.263445
0.266468
0.269721
0.273234
0.277037
0.281154
0.285602
0.290376
0.295448
0.300749
0.306126
0.311313
0.315305
0.317064
0.316096
0.31207
0.304416
0.292849
0.285452
0.284508
0.283569
0.282632
0.281697
0.280763
0.279828
0.278893
0.277955
0.277015
0.276072
0.275124
0.274172
0.273215
0.272251
0.271281
0.270304
0.26932
0.268329
0.267329
0.266322
0.265307
0.264284
0.263254
0.262216
0.261171
0.260119
0.259061
0.257997
0.256928
0.255854
0.254776
0.253695
0.252612
0.251527
0.250441
0.249356
0.248271
0.24719
0.246111
0.245037
0.243969
0.242907
0.241852
0.240806
0.23977
0.238745
0.23773
0.236727
0.285481
0.284546
0.283616
0.28269
0.281764
0.280839
0.279914
0.278987
0.278058
0.277126
0.27619
0.27525
0.274305
0.273353
0.272395
0.27143
0.270457
0.269475
0.268486
0.267488
0.266481
0.265465
0.264441
0.263408
0.262367
0.261318
0.260261
0.259197
0.258126
0.257049
0.255967
0.25488
0.25379
0.252697
0.251601
0.250505
0.249408
0.248312
0.247218
0.246127
0.245041
0.243959
0.242884
0.241816
0.240757
0.239708
0.238669
0.237642
0.236627
0.285734
0.284823
0.283916
0.28301
0.282105
0.281199
0.280292
0.279382
0.278469
0.277551
0.276628
0.275698
0.274762
0.273817
0.272864
0.271902
0.27093
0.269948
0.268955
0.267952
0.266939
0.265914
0.264879
0.263834
0.262778
0.261712
0.260638
0.259554
0.258462
0.257363
0.256257
0.255146
0.254029
0.252908
0.251784
0.250659
0.249532
0.248405
0.24728
0.246157
0.245038
0.243923
0.242814
0.241713
0.240619
0.239536
0.238463
0.237401
0.236352
0.286306
0.28543
0.284555
0.283679
0.282802
0.281922
0.281038
0.280149
0.279254
0.278352
0.277442
0.276523
0.275594
0.274654
0.273703
0.272739
0.271763
0.270774
0.269771
0.268756
0.267726
0.266683
0.265627
0.264557
0.263475
0.262381
0.261275
0.260158
0.25903
0.257893
0.256748
0.255595
0.254435
0.25327
0.2521
0.250927
0.249751
0.248575
0.247399
0.246224
0.245052
0.243884
0.242721
0.241565
0.240416
0.239276
0.238146
0.237028
0.235922
0.287205
0.286375
0.285541
0.284703
0.283861
0.283012
0.282157
0.281292
0.280418
0.279534
0.278637
0.277727
0.276804
0.275866
0.274913
0.273943
0.272957
0.271954
0.270934
0.269897
0.268843
0.267771
0.266683
0.265578
0.264458
0.263322
0.262171
0.261007
0.259829
0.25864
0.257439
0.256229
0.25501
0.253783
0.25255
0.251312
0.25007
0.248826
0.247581
0.246336
0.245092
0.243852
0.242616
0.241385
0.240161
0.238946
0.237739
0.236543
0.235359
0.288441
0.287669
0.286887
0.286096
0.285296
0.284485
0.283663
0.282827
0.281977
0.281111
0.280229
0.279328
0.278409
0.27747
0.276511
0.27553
0.274529
0.273505
0.27246
0.271393
0.270304
0.269193
0.268062
0.26691
0.265738
0.264547
0.263337
0.262111
0.260868
0.25961
0.258338
0.257053
0.255757
0.254452
0.253138
0.251816
0.25049
0.249159
0.247825
0.246491
0.245157
0.243824
0.242495
0.241171
0.239852
0.238541
0.237239
0.235946
0.234666
0.290047
0.289343
0.288622
0.287887
0.287137
0.286372
0.285588
0.284785
0.283962
0.283117
0.282249
0.281357
0.280439
0.279496
0.278527
0.27753
0.276506
0.275454
0.274375
0.273268
0.272134
0.270973
0.269786
0.268573
0.267336
0.266075
0.264791
0.263486
0.262161
0.260818
0.259457
0.25808
0.256689
0.255285
0.25387
0.252446
0.251015
0.249577
0.248135
0.246691
0.245245
0.2438
0.242358
0.240919
0.239486
0.238059
0.23664
0.23523
0.233834
0.292058
0.291432
0.290783
0.290114
0.289423
0.288708
0.287969
0.287203
0.286409
0.285586
0.284732
0.283847
0.282929
0.281978
0.280993
0.279974
0.27892
0.277832
0.276709
0.275552
0.274361
0.273138
0.271882
0.270595
0.269277
0.26793
0.266556
0.265156
0.263731
0.262283
0.260814
0.259325
0.257818
0.256296
0.254759
0.253211
0.251653
0.250087
0.248514
0.246937
0.245359
0.243779
0.242201
0.240625
0.239055
0.237491
0.235934
0.234387
0.232855
0.29449
0.293954
0.293401
0.29281
0.292183
0.291525
0.290835
0.29011
0.289348
0.288548
0.287709
0.28683
0.285909
0.284946
0.283941
0.282893
0.281803
0.280669
0.279494
0.278276
0.277018
0.275719
0.27438
0.273004
0.271591
0.270142
0.26866
0.267146
0.265601
0.264029
0.262431
0.260808
0.259164
0.2575
0.255819
0.254123
0.252414
0.250694
0.248966
0.247232
0.245495
0.243756
0.242017
0.240281
0.238549
0.236823
0.235104
0.233397
0.231707
0.297374
0.296963
0.296499
0.295987
0.295404
0.294836
0.29421
0.293529
0.292801
0.292027
0.291203
0.29033
0.289405
0.288428
0.2874
0.286318
0.285185
0.284
0.282763
0.281476
0.280139
0.278753
0.277319
0.275839
0.274315
0.272748
0.27114
0.269494
0.267809
0.266092
0.264341
0.262561
0.260755
0.258923
0.25707
0.255199
0.25331
0.251409
0.249497
0.247576
0.245651
0.243722
0.241794
0.239867
0.237945
0.23603
0.234122
0.232227
0.230353
0.300694
0.300389
0.300026
0.299625
0.299181
0.298679
0.298111
0.297437
0.296761
0.296028
0.295228
0.294364
0.293437
0.292448
0.291396
0.290281
0.289103
0.287863
0.286561
0.285198
0.283775
0.282294
0.280754
0.279159
0.27751
0.275808
0.274057
0.272258
0.270413
0.268526
0.266598
0.264633
0.262635
0.260606
0.258549
0.256469
0.254366
0.252247
0.250114
0.247971
0.245821
0.243665
0.24151
0.239357
0.237209
0.235069
0.232938
0.230823
0.228735
0.304446
0.304277
0.304032
0.303728
0.303361
0.302931
0.302438
0.301881
0.301257
0.300558
0.299782
0.298937
0.298021
0.297031
0.295965
0.294824
0.293608
0.292318
0.290955
0.289518
0.288009
0.286429
0.284778
0.28306
0.281275
0.279425
0.277513
0.275542
0.273511
0.271428
0.269294
0.267111
0.264886
0.262619
0.260317
0.257985
0.255623
0.25324
0.250837
0.248421
0.245997
0.243565
0.241135
0.238706
0.236285
0.233874
0.231475
0.229098
0.226755
0.308513
0.308498
0.308394
0.308219
0.307968
0.307642
0.307239
0.306758
0.306199
0.305559
0.304839
0.304036
0.303147
0.302207
0.301149
0.30001
0.298779
0.297459
0.296052
0.294554
0.29297
0.291299
0.28954
0.287698
0.285772
0.283762
0.281675
0.279511
0.277269
0.274959
0.272581
0.270139
0.267639
0.265084
0.262481
0.259836
0.257151
0.254438
0.251698
0.24894
0.246171
0.243393
0.240617
0.237845
0.235084
0.232339
0.22961
0.226913
0.224263
0.312679
0.312838
0.3129
0.312886
0.31279
0.312612
0.31235
0.312001
0.311566
0.31104
0.310425
0.309714
0.308906
0.307997
0.306982
0.305993
0.304776
0.30346
0.302044
0.300517
0.298884
0.297144
0.295293
0.293336
0.291271
0.289097
0.28682
0.284441
0.281957
0.27938
0.276709
0.273948
0.271108
0.268189
0.265204
0.262158
0.259056
0.255913
0.252733
0.249528
0.246307
0.243076
0.23985
0.236632
0.233434
0.230262
0.227118
0.224021
0.22099
0.316548
0.3169
0.317163
0.317363
0.317492
0.317552
0.317532
0.317428
0.317235
0.316939
0.31654
0.316029
0.315406
0.314671
0.313809
0.312826
0.311728
0.310521
0.309169
0.307675
0.30605
0.304288
0.302382
0.300337
0.29815
0.295813
0.293337
0.290719
0.287955
0.285058
0.282028
0.27887
0.275596
0.272207
0.26872
0.265145
0.261486
0.257767
0.253993
0.250182
0.246348
0.242502
0.238665
0.234846
0.231063
0.227325
0.223639
0.22003
0.216521
0.318918
0.319425
0.319934
0.320483
0.321036
0.321567
0.322031
0.322401
0.322656
0.32277
0.322746
0.322567
0.322243
0.321774
0.321155
0.320394
0.319464
0.318374
0.317199
0.315807
0.314262
0.31255
0.310652
0.308573
0.306303
0.30383
0.301165
0.298299
0.295226
0.291963
0.288507
0.284864
0.281053
0.277074
0.272951
0.268698
0.264322
0.259856
0.255308
0.250702
0.246061
0.2414
0.236753
0.232133
0.227576
0.223101
0.218727
0.214488
0.210421
0.31844
0.319013
0.319951
0.321247
0.322692
0.324133
0.32544
0.32655
0.327436
0.328079
0.328501
0.328701
0.328707
0.328532
0.328179
0.327672
0.326992
0.326128
0.325092
0.323925
0.322538
0.320956
0.319149
0.317116
0.314836
0.312289
0.309482
0.306401
0.303034
0.299399
0.295494
0.291327
0.286924
0.282286
0.27745
0.272433
0.26725
0.261942
0.25652
0.251016
0.245455
0.239855
0.234258
0.228681
0.223176
0.217781
0.212545
0.207544
0.202846
0.310599
0.311591
0.314687
0.318594
0.322348
0.325595
0.328222
0.33027
0.331821
0.332945
0.333735
0.334231
0.334494
0.33456
0.334441
0.334171
0.333738
0.333154
0.332397
0.331459
0.330346
0.328999
0.327388
0.325507
0.323319
0.320785
0.317904
0.314651
0.311007
0.306994
0.302609
0.297865
0.2928
0.287423
0.281785
0.275915
0.269837
0.263608
0.257241
0.25078
0.244247
0.237654
0.231036
0.224392
0.21776
0.211178
0.204726
0.198602
0.193085
0.284026
0.294571
0.306694
0.316519
0.323699
0.32877
0.332303
0.334787
0.336549
0.337791
0.338664
0.339236
0.33959
0.339768
0.339793
0.339706
0.339492
0.339176
0.338733
0.338097
0.337346
0.336309
0.334983
0.333353
0.331365
0.328952
0.326092
0.322741
0.31887
0.314507
0.309651
0.304326
0.298584
0.292447
0.285986
0.27925
0.272276
0.265139
0.257867
0.250513
0.243103
0.235644
0.228152
0.220577
0.212885
0.204986
0.1968
0.18839
0.180371
0.235746
0.234727
0.233615
0.232395
0.231047
0.229561
0.227964
0.226442
0.225137
0.224076
0.223296
0.222832
0.222721
0.223013
0.223758
0.225021
0.22688
0.229431
0.232801
0.237157
0.242722
0.249808
0.25886
0.270557
0.285996
0.306779
0.334598
0.376367
0.509849
0.23563
0.234594
0.233462
0.232216
0.230836
0.229309
0.227667
0.226095
0.224738
0.223624
0.222787
0.22226
0.222082
0.222292
0.222939
0.224081
0.225787
0.228144
0.231257
0.235265
0.240347
0.246741
0.254751
0.264767
0.277415
0.293633
0.311565
0.324979
0.36253
0.235321
0.234245
0.233066
0.231763
0.230312
0.2287
0.226953
0.225266
0.223788
0.222548
0.221574
0.220897
0.220547
0.220558
0.220966
0.221818
0.22316
0.22505
0.227553
0.230743
0.2347
0.239506
0.245214
0.251746
0.25891
0.266799
0.27308
0.270467
0.272562
0.234831
0.23369
0.232433
0.231038
0.229477
0.227731
0.225824
0.223959
0.222297
0.220862
0.219679
0.218772
0.218162
0.217874
0.217931
0.218356
0.219173
0.220404
0.222062
0.224153
0.226659
0.229525
0.232643
0.235741
0.238339
0.240402
0.240992
0.236057
0.233688
0.234188
0.232957
0.231595
0.230076
0.228366
0.226443
0.224325
0.22223
0.22033
0.218649
0.217205
0.216015
0.215093
0.21445
0.214096
0.214038
0.214275
0.214799
0.215589
0.216607
0.217785
0.219019
0.220175
0.221025
0.221146
0.220395
0.218186
0.211856
0.207686
0.233393
0.23205
0.230557
0.228884
0.226991
0.22485
0.222475
0.220103
0.217925
0.215959
0.214219
0.212715
0.211454
0.210437
0.209663
0.209124
0.208804
0.208677
0.208706
0.208834
0.208982
0.209038
0.208869
0.208285
0.206896
0.204359
0.20001
0.192257
0.186846
0.23244
0.230961
0.22931
0.227451
0.225339
0.22294
0.220265
0.217575
0.215082
0.212802
0.210743
0.208911
0.207304
0.205917
0.20474
0.203754
0.202935
0.202248
0.201645
0.201065
0.200424
0.199609
0.198479
0.196849
0.194363
0.190647
0.185255
0.177808
0.172674
0.231316
0.229676
0.227838
0.22576
0.223392
0.220693
0.217676
0.214629
0.211793
0.209177
0.206787
0.204623
0.202677
0.200939
0.19939
0.198006
0.196757
0.195601
0.194486
0.19335
0.192108
0.190653
0.188856
0.18656
0.183485
0.179336
0.173996
0.167965
0.163794
0.229999
0.228171
0.226115
0.223782
0.221118
0.218077
0.214674
0.211237
0.208033
0.205069
0.202346
0.199857
0.197592
0.195533
0.193656
0.191932
0.190326
0.188795
0.187288
0.18574
0.18408
0.182216
0.180045
0.177452
0.174233
0.170164
0.16535
0.160762
0.157525
0.228449
0.226402
0.224092
0.221465
0.218462
0.215035
0.211206
0.207347
0.203758
0.200441
0.197393
0.1946
0.192045
0.189705
0.187554
0.185556
0.183675
0.181867
0.180082
0.178265
0.176353
0.174274
0.17195
0.169293
0.166153
0.162364
0.158162
0.154685
0.152225
0.226601
0.224297
0.221694
0.218728
0.215338
0.211479
0.207182
0.202876
0.198893
0.19523
0.191875
0.188809
0.186006
0.183438
0.181073
0.178873
0.176798
0.174807
0.172852
0.170883
0.168848
0.166689
0.164341
0.161736
0.158762
0.155315
0.151714
0.149052
0.147216
0.224348
0.221746
0.218799
0.215443
0.211613
0.207272
0.20247
0.1977
0.193327
0.189338
0.185711
0.182416
0.17942
0.176686
0.174176
0.171849
0.169664
0.167577
0.165544
0.163519
0.161456
0.159307
0.157019
0.154534
0.151772
0.148692
0.145652
0.143584
0.142214
0.221528
0.218571
0.215224
0.211417
0.20709
0.20222
0.196885
0.191652
0.186913
0.18264
0.178795
0.175335
0.172215
0.16939
0.166814
0.164441
0.162227
0.160127
0.158098
0.156099
0.154086
0.152019
0.149855
0.147541
0.145024
0.142312
0.139772
0.138132
0.137091
0.217858
0.214479
0.210664
0.206341
0.201465
0.196034
0.190165
0.184502
0.179455
0.174972
0.170991
0.167455
0.164303
0.161478
0.158926
0.156595
0.154438
0.15241
0.150466
0.148567
0.146674
0.144751
0.14276
0.140658
0.138406
0.136052
0.133947
0.132623
0.131812
0.2129
0.209019
0.204665
0.199769
0.194313
0.188328
0.181978
0.175975
0.170729
0.166153
0.162159
0.158665
0.155596
0.152882
0.150459
0.14827
0.146263
0.144392
0.142611
0.140884
0.139173
0.137447
0.135671
0.133809
0.13184
0.12984
0.128125
0.127051
0.126394
0.206249
0.201834
0.196943
0.191524
0.18559
0.179204
0.172566
0.16643
0.161182
0.156696
0.152855
0.149556
0.146705
0.144223
0.142037
0.140086
0.138313
0.136672
0.135119
0.133617
0.132131
0.130632
0.12909
0.127478
0.125788
0.124102
0.1227
0.121827
0.121278
0.198079
0.193152
0.18786
0.18214
0.176
0.169506
0.162868
0.15685
0.151807
0.147583
0.144037
0.141049
0.138513
0.13634
0.134454
0.13279
0.131293
0.129913
0.128609
0.127344
0.126087
0.124808
0.123488
0.122109
0.120676
0.119257
0.118096
0.117371
0.116899
0.187788
0.18264
0.177447
0.171912
0.165966
0.159683
0.153304
0.147606
0.142922
0.139079
0.135921
0.133313
0.131143
0.129317
0.127758
0.126399
0.125187
0.124073
0.123018
0.121986
0.120946
0.119869
0.118738
0.117552
0.116336
0.11515
0.114193
0.113599
0.113192
0.174025
0.170106
0.16611
0.161347
0.155951
0.150115
0.144172
0.138929
0.1347
0.131307
0.128583
0.126387
0.1246
0.12313
0.121897
0.120838
0.119901
0.11904
0.118218
0.1174
0.116555
0.11565
0.114674
0.113667
0.112702
0.111812
0.111062
0.110521
0.110095
0.239781
0.240137
0.240893
0.242344
0.244342
0.246598
0.248975
0.251411
0.253912
0.256522
0.259284
0.262235
0.265413
0.268853
0.272592
0.276666
0.281106
0.285936
0.291159
0.296753
0.302658
0.308717
0.31463
0.319232
0.321109
0.319068
0.311572
0.296282
0.264824
0.237988
0.238466
0.239341
0.240786
0.242705
0.244893
0.247239
0.24969
0.252248
0.254948
0.257827
0.260921
0.264268
0.26791
0.271886
0.276241
0.281015
0.286239
0.291932
0.298096
0.304712
0.311692
0.318816
0.325022
0.328957
0.329905
0.327277
0.322868
0.326983
0.236147
0.236709
0.237671
0.239115
0.240971
0.243088
0.245386
0.247827
0.250417
0.253182
0.256152
0.259363
0.262854
0.266669
0.270858
0.275473
0.280567
0.286191
0.292394
0.299228
0.306769
0.315106
0.324331
0.333902
0.342882
0.351492
0.360061
0.367193
0.383681
0.234233
0.234775
0.235712
0.237146
0.239011
0.24114
0.243438
0.245883
0.248495
0.251303
0.25434
0.25764
0.261247
0.265209
0.269582
0.27443
0.279821
0.285831
0.292547
0.300083
0.308637
0.318532
0.330232
0.343807
0.358446
0.374504
0.392636
0.409435
0.431027
0.232247
0.232755
0.233643
0.23505
0.236919
0.239066
0.241377
0.243831
0.24646
0.249298
0.252382
0.255751
0.259449
0.263531
0.268058
0.273104
0.278754
0.285105
0.292283
0.300462
0.309944
0.321292
0.33517
0.352177
0.371261
0.392982
0.416977
0.441593
0.468781
0.230191
0.230682
0.231539
0.23291
0.234752
0.236883
0.239186
0.241637
0.24427
0.247123
0.250235
0.253646
0.257406
0.261572
0.266211
0.271406
0.277252
0.283868
0.29141
0.30009
0.310273
0.322746
0.33807
0.35726
0.378565
0.403298
0.431485
0.461613
0.49162
0.228059
0.22854
0.229376
0.230708
0.232502
0.234592
0.236862
0.23929
0.241907
0.244752
0.247865
0.251289
0.255074
0.259279
0.263978
0.269256
0.275218
0.281994
0.289762
0.298747
0.309291
0.322431
0.338107
0.358696
0.382
0.407461
0.434745
0.462923
0.491175
0.225846
0.226316
0.227127
0.228415
0.23015
0.232184
0.234405
0.23679
0.239368
0.242179
0.245263
0.248663
0.252429
0.256623
0.261319
0.266606
0.272588
0.279395
0.287226
0.296284
0.306783
0.319835
0.336497
0.356895
0.379662
0.403645
0.428045
0.452462
0.476682
0.22355
0.224007
0.224791
0.226027
0.227693
0.229656
0.23181
0.234131
0.236647
0.239396
0.242418
0.245755
0.249457
0.253585
0.25821
0.263422
0.26932
0.276014
0.283723
0.292541
0.303019
0.315832
0.332032
0.351094
0.371708
0.392953
0.414065
0.434803
0.454461
0.221168
0.221614
0.222368
0.223546
0.225131
0.227008
0.229076
0.231312
0.233741
0.236399
0.239325
0.242559
0.246148
0.25015
0.254634
0.259684
0.265394
0.271822
0.279219
0.287833
0.297863
0.309918
0.324666
0.341654
0.359466
0.377347
0.394728
0.411629
0.427069
0.2187
0.219132
0.219852
0.220966
0.222462
0.224238
0.226204
0.228334
0.230652
0.23319
0.235986
0.239076
0.242504
0.246323
0.250595
0.255395
0.260806
0.266921
0.273894
0.281967
0.291208
0.302096
0.31501
0.329512
0.344218
0.358454
0.371828
0.384652
0.396078
0.216145
0.216564
0.217249
0.218293
0.219691
0.221354
0.223199
0.225202
0.227384
0.229774
0.232406
0.235313
0.238534
0.242116
0.246109
0.250585
0.25563
0.261305
0.267712
0.274997
0.283232
0.292729
0.303648
0.315467
0.326976
0.337629
0.347191
0.356141
0.363895
0.213508
0.213918
0.214569
0.215541
0.216828
0.21836
0.220064
0.221918
0.22394
0.226155
0.228592
0.231278
0.234247
0.237539
0.241199
0.245286
0.249869
0.254982
0.260696
0.267073
0.274169
0.282144
0.290989
0.300121
0.308584
0.316004
0.322297
0.327979
0.332701
0.21079
0.211185
0.211796
0.212689
0.213862
0.215256
0.216807
0.218497
0.220337
0.222352
0.224563
0.226995
0.229673
0.232631
0.235906
0.23954
0.243577
0.248041
0.252967
0.258368
0.264247
0.270649
0.277444
0.28407
0.289845
0.294566
0.298273
0.301466
0.303983
0.207996
0.208378
0.208949
0.20976
0.210811
0.212056
0.213442
0.21495
0.21659
0.218382
0.220344
0.222493
0.224849
0.227434
0.230276
0.233403
0.236838
0.24059
0.244666
0.24904
0.253669
0.258521
0.263392
0.267801
0.271334
0.273934
0.275726
0.277183
0.278313
0.205133
0.205504
0.206034
0.20676
0.207684
0.208772
0.209979
0.211291
0.212716
0.214266
0.215959
0.217801
0.219804
0.221983
0.224353
0.226928
0.229717
0.232712
0.235892
0.239209
0.242588
0.245952
0.249067
0.25157
0.253297
0.25431
0.254776
0.255141
0.255573
0.202206
0.202563
0.203049
0.203689
0.204484
0.205411
0.206433
0.20754
0.208735
0.210034
0.211441
0.212957
0.214585
0.216332
0.2182
0.220192
0.222301
0.224506
0.226766
0.229015
0.231167
0.233123
0.234652
0.235536
0.235841
0.235717
0.235326
0.235084
0.235313
0.199225
0.199569
0.200011
0.200563
0.201228
0.201992
0.202822
0.203715
0.204676
0.205714
0.206823
0.207999
0.209237
0.210533
0.211881
0.213269
0.214679
0.216074
0.217403
0.21859
0.219545
0.22017
0.220257
0.219756
0.218934
0.218001
0.217069
0.216517
0.216819
0.1962
0.196534
0.196933
0.197398
0.197931
0.198531
0.199159
0.199836
0.200561
0.20133
0.202134
0.202962
0.203801
0.204637
0.205453
0.206227
0.206926
0.207504
0.207898
0.208029
0.20781
0.207156
0.2059
0.204162
0.202398
0.200853
0.199552
0.198835
0.199329
0.193139
0.193461
0.193814
0.194192
0.194596
0.195038
0.19546
0.195936
0.196418
0.196917
0.197415
0.197894
0.198332
0.198705
0.198988
0.199145
0.199134
0.198896
0.19836
0.197443
0.196064
0.194154
0.191593
0.188681
0.186059
0.183992
0.182398
0.181567
0.182281
0.190054
0.190365
0.190672
0.190966
0.191243
0.191506
0.191777
0.192031
0.192273
0.192506
0.192703
0.192837
0.19288
0.192799
0.192556
0.192108
0.191399
0.190359
0.188907
0.186955
0.184423
0.181255
0.177374
0.173262
0.169761
0.167162
0.165255
0.164288
0.165194
0.186954
0.187257
0.187519
0.187731
0.187885
0.187999
0.188091
0.188135
0.18815
0.188127
0.188032
0.187833
0.187492
0.186971
0.18622
0.185186
0.183801
0.181984
0.17964
0.176671
0.172988
0.168537
0.163267
0.157837
0.153322
0.150068
0.147742
0.146554
0.147612
0.183853
0.184153
0.184373
0.184503
0.184554
0.184522
0.184423
0.184272
0.184073
0.183806
0.183433
0.182916
0.182211
0.18127
0.180036
0.178445
0.176417
0.173857
0.170657
0.166699
0.161876
0.15611
0.149345
0.142388
0.13659
0.132419
0.129439
0.127874
0.129042
0.180759
0.181056
0.18122
0.181304
0.181242
0.181062
0.180796
0.180466
0.180069
0.179575
0.178943
0.178128
0.177082
0.175748
0.174064
0.171953
0.169324
0.16607
0.162063
0.157163
0.151229
0.144135
0.135774
0.12704
0.119585
0.114069
0.110022
0.107798
0.109005
0.177684
0.177969
0.178122
0.17814
0.177965
0.177646
0.177228
0.176735
0.176157
0.175457
0.174589
0.173503
0.172145
0.170453
0.168357
0.165773
0.162599
0.158713
0.15397
0.148203
0.141227
0.132847
0.122852
0.112125
0.102579
0.095113
0.0892927
0.0858926
0.087054
0.174639
0.174911
0.175036
0.174981
0.174706
0.174269
0.173725
0.173097
0.172365
0.171486
0.170408
0.169079
0.167442
0.16543
0.162969
0.159965
0.156309
0.151865
0.146471
0.139935
0.132029
0.122479
0.11094
0.0981896
0.0862664
0.0762304
0.067626
0.0620774
0.0630414
0.171653
0.171964
0.172112
0.172013
0.171622
0.171026
0.170324
0.169558
0.168692
0.167662
0.166407
0.164872
0.162996
0.160713
0.157942
0.154585
0.150524
0.145614
0.13968
0.13251
0.123844
0.113329
0.100463
0.0858539
0.0715323
0.0585822
0.046236
0.0364592
0.0353764
0.140462
0.121918
0.0964696
0.0641004
0.0279376
-0.0074917
-0.0390912
-0.0684632
-0.0952357
-0.124186
-0.15346
-0.187794
-0.223094
-0.256208
-0.283018
-0.300838
-0.309714
-0.311954
-0.31141
0.146679
0.131959
0.107522
0.0742175
0.0344458
-0.00776892
-0.0485562
-0.0899776
-0.128635
-0.17134
-0.214561
-0.258539
-0.300839
-0.338046
-0.366726
-0.385586
-0.39589
-0.400344
-0.401896
0.140395
0.12667
0.103672
0.0702405
0.0280847
-0.0192604
-0.0672589
-0.119718
-0.172055
-0.225028
-0.278105
-0.330102
-0.378176
-0.418901
-0.449636
-0.469994
-0.481792
-0.487798
-0.490704
0.128358
0.115114
0.0940106
0.0611879
0.016732
-0.0357893
-0.0926915
-0.152583
-0.214147
-0.276566
-0.338792
-0.398783
-0.452815
-0.497163
-0.529725
-0.551001
-0.563583
-0.570537
-0.574392
0.113957
0.10144
0.0811716
0.0483064
0.00211435
-0.0538935
-0.116483
-0.183259
-0.253057
-0.324563
-0.39535
-0.46208
-0.520354
-0.566629
-0.599774
-0.621324
-0.634507
-0.64237
-0.64704
0.0947024
0.0824269
0.0631216
0.030963
-0.0157535
-0.0738654
-0.140339
-0.213221
-0.290419
-0.369545
-0.447019
-0.518444
-0.579202
-0.626422
-0.660055
-0.682396
-0.696958
-0.706537
-0.712827
0.0709266
0.0576046
0.0385378
0.00714719
-0.0393889
-0.0986518
-0.167846
-0.244995
-0.327256
-0.411135
-0.492029
-0.564752
-0.624835
-0.67036
-0.702338
-0.723663
-0.737983
-0.747716
-0.754205
0.0440274
0.0285969
0.00845752
-0.0231532
-0.0696745
-0.129418
-0.199899
-0.278952
-0.363302
-0.448653
-0.529593
-0.600591
-0.657793
-0.700402
-0.730299
-0.750615
-0.764796
-0.774731
-0.781515
0.0150377
-0.00296553
-0.0252069
-0.058202
-0.10528
-0.165115
-0.235549
-0.314393
-0.398102
-0.481783
-0.559518
-0.625943
-0.678173
-0.716489
-0.74335
-0.761884
-0.775229
-0.784809
-0.791406
-0.0151779
-0.0357311
-0.0605231
-0.095611
-0.143734
-0.20351
-0.273021
-0.350172
-0.431261
-0.511018
-0.58343
-0.643758
-0.690245
-0.724086
-0.74805
-0.765088
-0.777953
-0.787712
-0.794791
-0.0456119
-0.0684493
-0.0958132
-0.133216
-0.182673
-0.242437
-0.310605
-0.385044
-0.461805
-0.535372
-0.600056
-0.652182
-0.69122
-0.719089
-0.738652
-0.752581
-0.763185
-0.771299
-0.777146
-0.0750365
-0.0997377
-0.129372
-0.168844
-0.219528
-0.279147
-0.345601
-0.41654
-0.487771
-0.553863
-0.609961
-0.653721
-0.685695
-0.708193
-0.723901
-0.73508
-0.743541
-0.750001
-0.754569
-0.102292
-0.12837
-0.159787
-0.20076
-0.252179
-0.311242
-0.375577
-0.44258
-0.507935
-0.566614
-0.614831
-0.65147
-0.677822
-0.696294
-0.709275
-0.718646
-0.725843
-0.731554
-0.735708
-0.126524
-0.153552
-0.186269
-0.228134
-0.279695
-0.337682
-0.399405
-0.461945
-0.52096
-0.572071
-0.612692
-0.642794
-0.664138
-0.679035
-0.689527
-0.697141
-0.702986
-0.707693
-0.711087
-0.14714
-0.17479
-0.208394
-0.250608
-0.301733
-0.358084
-0.416676
-0.474345
-0.526956
-0.571013
-0.60512
-0.630059
-0.647772
-0.660318
-0.669355
-0.67607
-0.681306
-0.685605
-0.688727
-0.163901
-0.19199
-0.226192
-0.268383
-0.318658
-0.372976
-0.428155
-0.480946
-0.527638
-0.565688
-0.594676
-0.615881
-0.631219
-0.64245
-0.650896
-0.657472
-0.662839
-0.667423
-0.670877
-0.176924
-0.205438
-0.24014
-0.282187
-0.331448
-0.383496
-0.434977
-0.4827
-0.5236
-0.556162
-0.580777
-0.59898
-0.612513
-0.622798
-0.63084
-0.637319
-0.64275
-0.647418
-0.650946
-0.186401
-0.215477
-0.250744
-0.292755
-0.341081
-0.390856
-0.438612
-0.481415
-0.517038
-0.544952
-0.566136
-0.582184
-0.594572
-0.604388
-0.612349
-0.618928
-0.62452
-0.6293
-0.6329
-0.192599
-0.222503
-0.258573
-0.300901
-0.348671
-0.396514
-0.440905
-0.479317
-0.510422
-0.534542
-0.553048
-0.567477
-0.579038
-0.588528
-0.596439
-0.603087
-0.608781
-0.613627
-0.617279
-0.195824
-0.226941
-0.264229
-0.307464
-0.355251
-0.401533
-0.442733
-0.476915
-0.503791
-0.52449
-0.540633
-0.553605
-0.56432
-0.573314
-0.580893
-0.587263
-0.592675
-0.597208
-0.600574
-0.196166
-0.228981
-0.268055
-0.313
-0.361589
-0.406885
-0.445266
-0.475571
-0.498622
-0.516275
-0.53031
-0.541926
-0.55177
-0.560154
-0.567241
-0.573155
-0.578098
-0.582154
-0.58512
-0.193647
-0.228736
-0.270312
-0.317925
-0.368198
-0.413115
-0.449029
-0.475721