/*--------------------------------*- C++ -*----------------------------------*\
| =========                 |                                                 |
| \\      /  F ield         | OpenFOAM: The Open Source CFD Toolbox           |
|  \\    /   O peration     | Version:  2312                                  |
|   \\  /    A nd           | Website:  www.openfoam.com                      |
|    \\/     M anipulation  |                                                 |
\*---------------------------------------------------------------------------*/
FoamFile
{
    version     2.0;
    format      ascii;
    arch        "LSB;label=32;scalar=64";
    class       volVectorField;
    location    "94.303485984841316";
    object      U;
}
// * * * * * * * * * * * * * * * * * * * * * * * * * * * * * * * * * * * * * //

dimensions      [0 1 -1 0 0 0 0];

internalField   nonuniform List<vector> 
21039
(
(0.913792 0.0474791 0)
(1.02605 0.066508 0)
(1.00449 0.029464 0)
(1.00177 0.0188914 0)
(1.00121 0.0138783 0)
(1.0008 0.0104928 0)
(1.00055 0.00816193 0)
(1.0004 0.00651446 0)
(1.00031 0.0052993 0)
(1.00024 0.00437258 0)
(1.00019 0.00364881 0)
(1.00015 0.003073 0)
(1.00012 0.00260814 0)
(1.0001 0.00222867 0)
(1.00008 0.00191648 0)
(1.00007 0.00165847 0)
(1.00005 0.00144496 0)
(1.00004 0.00126869 0)
(1.00003 0.00112404 0)
(1.00003 0.00100649 0)
(1.00002 0.000912218 0)
(1.00001 0.000839246 0)
(1.00001 0.000789313 0)
(1.00001 0.000744501 0)
(1.00001 0.00071005 0)
(1.00001 0.000682569 0)
(1.00001 0.000657676 0)
(1.00001 0.000625254 0)
(1.00002 0.000563126 0)
(0.794625 0.0730908 0)
(1.0745 0.121686 0)
(1.03989 0.0707914 0)
(1.01812 0.0496739 0)
(1.0113 0.0382396 0)
(1.00765 0.029441 0)
(1.0054 0.023127 0)
(1.00397 0.0185327 0)
(1.00302 0.0150578 0)
(1.00235 0.0123609 0)
(1.00187 0.0102256 0)
(1.00151 0.00850516 0)
(1.00123 0.00709877 0)
(1.00101 0.00593607 0)
(1.00084 0.00496683 0)
(1.0007 0.00415453 0)
(1.00058 0.00347228 0)
(1.00048 0.00289995 0)
(1.00039 0.0024223 0)
(1.00032 0.00202749 0)
(1.00025 0.00170576 0)
(1.0002 0.00145085 0)
(1.00015 0.00126692 0)
(1.00012 0.00112565 0)
(1.00011 0.00103388 0)
(1.00011 0.000973151 0)
(1.00011 0.000928958 0)
(1.00012 0.000881703 0)
(1.00013 0.000800653 0)
(0.667391 0.0572846 0)
(1.08305 0.124794 0)
(1.08438 0.0902462 0)
(1.04632 0.0676207 0)
(1.0291 0.0540768 0)
(1.02029 0.0430902 0)
(1.01473 0.0347573 0)
(1.01104 0.0283468 0)
(1.00849 0.0232863 0)
(1.00667 0.0192442 0)
(1.00535 0.0159747 0)
(1.00435 0.0132956 0)
(1.00358 0.0110753 0)
(1.00297 0.00921872 0)
(1.00249 0.00765578 0)
(1.00209 0.00633458 0)
(1.00175 0.00521635 0)
(1.00146 0.00427187 0)
(1.00121 0.00347896 0)
(1.00099 0.00282063 0)
(1.0008 0.00228313 0)
(1.00062 0.00185641 0)
(1.00047 0.00154647 0)
(1.00036 0.00132149 0)
(1.0003 0.00118368 0)
(1.00028 0.00109768 0)
(1.00027 0.00103897 0)
(1.00028 0.000982017 0)
(1.00029 0.000892573 0)
(0.541093 0.0352663 0)
(1.05081 0.110823 0)
(1.11596 0.0969858 0)
(1.07617 0.076225 0)
(1.0493 0.0620305 0)
(1.03535 0.0508886 0)
(1.02651 0.0421789 0)
(1.02035 0.0351131 0)
(1.01593 0.0292885 0)
(1.0127 0.0244797 0)
(1.01029 0.0204821 0)
(1.00845 0.0171317 0)
(1.00701 0.0143042 0)
(1.00587 0.0119043 0)
(1.00494 0.00985886 0)
(1.00417 0.0081119 0)
(1.00352 0.00662064 0)
(1.00296 0.0053523 0)
(1.00246 0.00428176 0)
(1.00203 0.00338983 0)
(1.00163 0.00266121 0)
(1.00127 0.00208368 0)
(1.00095 0.00166473 0)
(1.00072 0.00137122 0)
(1.00057 0.00119776 0)
(1.00049 0.00109365 0)
(1.00045 0.00102588 0)
(1.00045 0.000963955 0)
(1.00045 0.000868793 0)
(0.44427 0.0186697 0)
(0.997803 0.0918823 0)
(1.12908 0.0956502 0)
(1.10152 0.0794365 0)
(1.06834 0.0653514 0)
(1.04988 0.0546338 0)
(1.03839 0.0462052 0)
(1.03019 0.0391238 0)
(1.02412 0.0331006 0)
(1.01955 0.0279861 0)
(1.01605 0.0236217 0)
(1.01333 0.0198791 0)
(1.01116 0.0166585 0)
(1.00942 0.0138792 0)
(1.00798 0.011477 0)
(1.00678 0.00940119 0)
(1.00575 0.00761205 0)
(1.00485 0.00607856 0)
(1.00406 0.0047767 0)
(1.00334 0.00368812 0)
(1.00269 0.00279843 0)
(1.0021 0.00209528 0)
(1.00155 0.00158808 0)
(1.00114 0.00124361 0)
(1.00087 0.00104771 0)
(1.00071 0.000936369 0)
(1.00064 0.000869399 0)
(1.00062 0.000811769 0)
(1.0006 0.000717531 0)
(0.378719 0.00810505 0)
(0.939757 0.0718702 0)
(1.12706 0.0883265 0)
(1.12095 0.078624 0)
(1.08564 0.0658266 0)
(1.06322 0.0557937 0)
(1.04948 0.0478776 0)
(1.03969 0.0410754 0)
(1.03228 0.0351534 0)
(1.02659 0.0300073 0)
(1.02213 0.0255166 0)
(1.01859 0.021587 0)
(1.01574 0.0181434 0)
(1.01339 0.0151236 0)
(1.01143 0.0124766 0)
(1.00977 0.0101617 0)
(1.00833 0.00814634 0)
(1.00706 0.00640482 0)
(1.00592 0.00491736 0)
(1.00489 0.00366897 0)
(1.00394 0.00264832 0)
(1.00305 0.0018449 0)
(1.00224 0.00127107 0)
(1.00161 0.000894453 0)
(1.00118 0.00069131 0)
(1.00093 0.000585248 0)
(1.0008 0.000530505 0)
(1.00075 0.000489061 0)
(1.00071 0.000407012 0)
(0.333493 0.00233518 0)
(0.883436 0.0538776 0)
(1.11412 0.0779101 0)
(1.13403 0.0748432 0)
(1.10109 0.0642417 0)
(1.07554 0.055113 0)
(1.05972 0.0478403 0)
(1.04863 0.0414925 0)
(1.04016 0.0358461 0)
(1.03354 0.0308295 0)
(1.02827 0.0263617 0)
(1.02402 0.02238 0)
(1.02053 0.0188323 0)
(1.01762 0.015674 0)
(1.01516 0.0128685 0)
(1.01304 0.0103861 0)
(1.01118 0.00820313 0)
(1.00952 0.00630128 0)
(1.00801 0.00466679 0)
(1.00662 0.00328984 0)
(1.00533 0.00216389 0)
(1.00411 0.00128188 0)
(1.00298 0.000660441 0)
(1.00209 0.000269 0)
(1.00148 7.32175e-05 0)
(1.00111 -1.99705e-05 0)
(1.00091 -5.89707e-05 0)
(1.00082 -6.75805e-05 0)
(1.00074 -9.95888e-05 0)
(0.301183 -0.000192911 0)
(0.83166 0.0396191 0)
(1.09392 0.0670329 0)
(1.14078 0.0694457 0)
(1.11414 0.0613652 0)
(1.08681 0.0532203 0)
(1.06917 0.0465962 0)
(1.05697 0.0407667 0)
(1.04766 0.0354844 0)
(1.04029 0.03069 0)
(1.03434 0.0263364 0)
(1.02948 0.0223885 0)
(1.02543 0.0188148 0)
(1.02201 0.0155874 0)
(1.01907 0.0126833 0)
(1.01651 0.0100842 0)
(1.01423 0.00777578 0)
(1.01217 0.00574774 0)
(1.01028 0.00399344 0)
(1.00851 0.00250945 0)
(1.00684 0.00129534 0)
(1.00525 0.000348755 0)
(1.00376 -0.000310238 0)
(1.00257 -0.000705961 0)
(1.00175 -0.000882868 0)
(1.00123 -0.000943632 0)
(1.00094 -0.000944402 0)
(1.00079 -0.000929423 0)
(1.00065 -0.000963571 0)
(0.278195 -0.000987427 0)
(0.785932 0.0291312 0)
(1.06972 0.0570531 0)
(1.142 0.0634692 0)
(1.12451 0.0578673 0)
(1.09694 0.0506943 0)
(1.07782 0.0446243 0)
(1.0647 0.0392667 0)
(1.05473 0.0343507 0)
(1.04676 0.0298073 0)
(1.04027 0.0256087 0)
(1.03489 0.0217392 0)
(1.03036 0.0181833 0)
(1.02648 0.0149275 0)
(1.02311 0.0119607 0)
(1.02013 0.00927508 0)
(1.01745 0.00686544 0)
(1.01498 0.00472971 0)
(1.01269 0.00286874 0)
(1.01052 0.00128614 0)
(1.00845 -1.17893e-05 0)
(1.00645 -0.00102125 0)
(1.00456 -0.00171413 0)
(1.00303 -0.00211229 0)
(1.00196 -0.0022687 0)
(1.00126 -0.00229358 0)
(1.00086 -0.00225067 0)
(1.00062 -0.00219479 0)
(1.0004 -0.00221181 0)
(0.261739 -0.00103115 0)
(0.746643 0.0217066 0)
(1.04405 0.0483858 0)
(1.13901 0.0574728 0)
(1.13236 0.0541309 0)
(1.10596 0.0479017 0)
(1.08576 0.0422803 0)
(1.07184 0.0372994 0)
(1.06135 0.0326973 0)
(1.05293 0.028384 0)
(1.04601 0.0243385 0)
(1.04021 0.0205558 0)
(1.03527 0.0170312 0)
(1.031 0.0137613 0)
(1.02724 0.010745 0)
(1.02387 0.00798295 0)
(1.0208 0.00547824 0)
(1.01795 0.00323653 0)
(1.01525 0.00126618 0)
(1.01267 -0.000422484 0)
(1.01017 -0.00181586 0)
(1.00774 -0.00290203 0)
(1.0054 -0.00364193 0)
(1.00348 -0.0040542 0)
(1.00211 -0.00419785 0)
(1.0012 -0.00418972 0)
(1.00064 -0.00410107 0)
(1.00028 -0.0039961 0)
(0.999954 -0.00398037 0)
(0.249498 -0.00081063 0)
(0.7133 0.0165569 0)
(1.01854 0.0410519 0)
(1.13304 0.051736 0)
(1.13799 0.0503372 0)
(1.114 0.0450148 0)
(1.09314 0.0397661 0)
(1.07853 0.0350683 0)
(1.0676 0.0307104 0)
(1.05884 0.0265827 0)
(1.05158 0.0226626 0)
(1.04544 0.0189499 0)
(1.04017 0.0154462 0)
(1.03557 0.0121551 0)
(1.03146 0.0090822 0)
(1.02774 0.00623512 0)
(1.0243 0.00362375 0)
(1.02107 0.0012607 0)
(1.01798 -0.000839823 0)
(1.01498 -0.00266055 0)
(1.01204 -0.00417877 0)
(1.00913 -0.00537339 0)
(1.0063 -0.00619515 0)
(1.00395 -0.00665312 0)
(1.00223 -0.00680698 0)
(1.00106 -0.00678227 0)
(1.00029 -0.00665714 0)
(0.999759 -0.00650586 0)
(0.999282 -0.0064552 0)
(0.239948 -0.000549379 0)
(0.685069 0.0129965 0)
(0.994094 0.0349285 0)
(1.12506 0.0464016 0)
(1.14172 0.0465877 0)
(1.12117 0.0421154 0)
(1.10011 0.0371899 0)
(1.08489 0.0326975 0)
(1.07359 0.0285147 0)
(1.06455 0.024521 0)
(1.05702 0.0206872 0)
(1.05063 0.0170136 0)
(1.04509 0.0135052 0)
(1.04019 0.0101697 0)
(1.03579 0.00701729 0)
(1.03176 0.0040605 0)
(1.02799 0.00131475 0)
(1.02439 -0.0012034 0)
(1.02092 -0.00347337 0)
(1.0175 -0.00546977 0)
(1.0141 -0.00716227 0)
(1.01069 -0.00852034 0)
(1.00734 -0.00948377 0)
(1.00449 -0.0100455 0)
(1.00237 -0.0102575 0)
(1.00088 -0.0102529 0)
(0.999845 -0.0101169 0)
(0.999077 -0.00993509 0)
(0.998387 -0.009857 0)
(0.232218 -0.000337887 0)
(0.661126 0.0104882 0)
(0.971198 0.0298367 0)
(1.11582 0.0415265 0)
(1.14388 0.0429484 0)
(1.12752 0.0392529 0)
(1.10673 0.0346172 0)
(1.09103 0.0302682 0)
(1.07939 0.0261975 0)
(1.07012 0.0222857 0)
(1.0624 0.0184949 0)
(1.0558 0.0148229 0)
(1.05005 0.0112753 0)
(1.04493 0.00786175 0)
(1.04028 0.00459503 0)
(1.03597 0.00149106 0)
(1.0319 -0.00143298 0)
(1.02798 -0.00415582 0)
(1.02414 -0.00665019 0)
(1.0203 -0.00888452 0)
(1.01644 -0.0108218 0)
(1.01251 -0.0124234 0)
(1.00861 -0.0136183 0)
(1.00523 -0.0143769 0)
(1.00265 -0.0147308 0)
(1.00077 -0.0148154 0)
(0.999387 -0.0147214 0)
(0.998302 -0.0145474 0)
(0.997319 -0.0144652 0)
(0.225797 -0.000194393 0)
(0.640743 0.00865768 0)
(0.950067 0.0255932 0)
(1.10589 0.0371119 0)
(1.14475 0.0394588 0)
(1.13313 0.0364593 0)
(1.11307 0.0320907 0)
(1.09704 0.0278392 0)
(1.0851 0.0238266 0)
(1.07566 0.0199479 0)
(1.06779 0.0161569 0)
(1.06104 0.0124463 0)
(1.05513 0.00882024 0)
(1.04984 0.00528832 0)
(1.04499 0.00186396 0)
(1.04046 -0.00143729 0)
(1.03614 -0.00459597 0)
(1.03193 -0.00758618 0)
(1.02775 -0.0103763 0)
(1.02352 -0.0129294 0)
(1.0192 -0.0152031 0)
(1.01476 -0.0171533 0)
(1.01028 -0.0187011 0)
(1.00635 -0.019791 0)
(1.00327 -0.020418 0)
(1.00092 -0.0207094 0)
(0.999096 -0.0207553 0)
(0.997582 -0.0206658 0)
(0.996194 -0.0206318 0)
(0.22036 -0.000108963 0)
(0.62331 0.00727471 0)
(0.930757 0.0220654 0)
(1.09566 0.0331611 0)
(1.14456 0.0361564 0)
(1.13804 0.033757 0)
(1.11911 0.029634 0)
(1.10292 0.0254477 0)
(1.09073 0.0214504 0)
(1.08114 0.0175624 0)
(1.07318 0.0137313 0)
(1.06634 0.00994324 0)
(1.06032 0.00619915 0)
(1.05491 0.00250647 0)
(1.04992 -0.00112378 0)
(1.04523 -0.00467685 0)
(1.04071 -0.00813158 0)
(1.03625 -0.0114595 0)
(1.03177 -0.0146257 0)
(1.02718 -0.0175885 0)
(1.02243 -0.0203014 0)
(1.0175 -0.0227179 0)
(1.01248 -0.0247587 0)
(1.00803 -0.0263526 0)
(1.00449 -0.0274491 0)
(1.00167 -0.0281525 0)
(0.999334 -0.0285315 0)
(0.997275 -0.0286876 0)
(0.995347 -0.0288079 0)
(0.216072 -5.17794e-05 0)
(0.609417 0.00628132 0)
(0.914542 0.0193289 0)
(1.0863 0.0298965 0)
(1.14374 0.0333023 0)
(1.14209 0.0313831 0)
(1.12454 0.0274738 0)
(1.10835 0.0233322 0)
(1.09599 0.0193243 0)
(1.08631 0.0154003 0)
(1.0783 0.0115033 0)
(1.07143 0.00761216 0)
(1.06538 0.00372278 0)
(1.05992 -0.000161996 0)
(1.05487 -0.00403541 0)
(1.05009 -0.0078849 0)
(1.04545 -0.0116902 0)
(1.04083 -0.015423 0)
(1.03613 -0.0190465 0)
(1.03126 -0.0225143 0)
(1.02615 -0.0257732 0)
(1.02079 -0.0287698 0)
(1.01531 -0.0314205 0)
(1.01047 -0.0336444 0)
(1.00658 -0.0353693 0)
(1.00341 -0.0366993 0)
(1.00061 -0.0376704 0)
(0.997933 -0.0383259 0)
(0.995267 -0.0387831 0)
(0.212897 -1.75822e-05 0)
(0.599182 0.00560434 0)
(0.902108 0.0173602 0)
(1.07863 0.0274338 0)
(1.14269 0.0310849 0)
(1.14516 0.0295229 0)
(1.12896 0.0257821 0)
(1.11289 0.0216712 0)
(1.10043 0.0176456 0)
(1.0907 0.0136815 0)
(1.0827 0.0097171 0)
(1.07584 0.00572381 0)
(1.06981 0.00169163 0)
(1.06438 -0.00238216 0)
(1.05934 -0.00649617 0)
(1.05456 -0.0106426 0)
(1.04989 -0.0148053 0)
(1.0452 -0.0189599 0)
(1.04039 -0.0230715 0)
(1.03534 -0.0270921 0)
(1.02999 -0.0309612 0)
(1.02431 -0.034613 0)
(1.01848 -0.0379375 0)
(1.01337 -0.0408134 0)
(1.00935 -0.0431652 0)
(1.00611 -0.0451784 0)
(1.00321 -0.0469707 0)
(1.00026 -0.048572 0)
(0.997137 -0.0498215 0)
(0.21043 3.01895e-05 0)
(0.591319 0.00514294 0)
(0.892276 0.0159277 0)
(1.07223 0.0255629 0)
(1.14152 0.0293611 0)
(1.1475 0.0280737 0)
(1.13258 0.0244771 0)
(1.11668 0.0204005 0)
(1.10418 0.0163664 0)
(1.09443 0.0123719 0)
(1.08644 0.00835158 0)
(1.07964 0.00427041 0)
(1.07366 0.0001127 0)
(1.06828 -0.00413023 0)
(1.06331 -0.00846306 0)
(1.05858 -0.0128843 0)
(1.05394 -0.0173855 0)
(1.04926 -0.0219496 0)
(1.04442 -0.0265487 0)
(1.0393 -0.0311385 0)
(1.0338 -0.0356566 0)
(1.02791 -0.0400275 0)
(1.02179 -0.0440995 0)
(1.01644 -0.0476298 0)
(1.01231 -0.0504539 0)
(1.00918 -0.0528245 0)
(1.00667 -0.0551057 0)
(1.00449 -0.0576893 0)
(1.00204 -0.0600076 0)
(0.208836 2.24743e-05 0)
(0.585881 0.0047826 0)
(0.885249 0.0149043 0)
(1.06754 0.0242364 0)
(1.14066 0.0281251 0)
(1.14931 0.0270001 0)
(1.13544 0.0234806 0)
(1.11973 0.0194248 0)
(1.10722 0.0153922 0)
(1.09749 0.0113812 0)
(1.08956 0.00731907 0)
(1.08282 0.00316545 0)
(1.07693 -0.00109908 0)
(1.07165 -0.00548844 0)
(1.06677 -0.010014 0)
(1.06213 -0.0146824 0)
(1.05759 -0.0194947 0)
(1.053 -0.0244449 0)
(1.04823 -0.0295159 0)
(1.04315 -0.0346748 0)
(1.03767 -0.0398688 0)
(1.03175 -0.0450344 0)
(1.02557 -0.0500107 0)
(1.02016 -0.0544016 0)
(1.016 -0.0578135 0)
(1.01293 -0.0602726 0)
(1.01071 -0.0617977 0)
(1.00934 -0.063093 0)
(1.00969 -0.0681071 0)
(1.00002 0.000568629 0)
(1.00002 0.000566955 0)
(1.00002 0.000560496 0)
(1.00001 0.000555082 1.0045e-21)
(1.00001 0.000551761 5.01193e-21)
(1.00001 0.000550358 -9.02008e-21)
(1.00001 0.000550715 5.01038e-21)
(1.00001 0.000552709 -3.99443e-21)
(1.00001 0.000556201 5.09124e-22)
(1 0.000561199 3.99391e-21)
(1 0.00056754 0)
(1 0.000575218 -4.47021e-21)
(1 0.000584107 5.06463e-22)
(0.999999 0.000594092 3.97038e-21)
(0.999998 0.000605152 0)
(0.999997 0.000617122 0)
(0.999995 0.000629972 -3.93931e-21)
(0.999994 0.000643557 3.94179e-21)
(0.999993 0.000657725 0)
(0.999992 0.000672481 -1.95745e-21)
(0.999991 0.000687638 2.08055e-21)
(0.99999 0.000703084 1.82636e-21)
(0.999989 0.000718771 -2.92067e-21)
(0.999988 0.000734517 9.41616e-22)
(0.999987 0.000750231 3.02059e-23)
(0.999986 0.000765848 -6.0381e-23)
(0.999986 0.000781197 8.40697e-22)
(0.999985 0.000796233 -9.60927e-22)
(0.999985 0.000810765 0)
(0.999985 0.00082466 0)
(0.999985 0.000838008 -2.37488e-22)
(0.999985 0.000850689 -2.36622e-22)
(0.999984 0.000862599 -4.00081e-21)
(0.999985 0.000873721 3.29268e-21)
(0.999985 0.000883922 -4.20377e-21)
(0.999985 0.000893146 4.19866e-21)
(0.999986 0.000901366 -3.24174e-21)
(0.999986 0.000908452 3.24015e-21)
(0.999987 0.000914407 4.6014e-22)
(0.999988 0.000919132 4.58179e-22)
(0.999989 0.00092261 -4.56184e-22)
(0.99999 0.000924826 0)
(0.999991 0.000925687 0)
(0.999992 0.000925253 0)
(0.999993 0.000923431 0)
(0.999995 0.000920364 0)
(0.999996 0.000916108 1.77366e-21)
(0.999998 0.000909619 -1.77083e-21)
(0.999999 0.000896733 0)
(1.00012 0.000798569 0)
(1.00011 0.000790571 2.02559e-21)
(1.00009 0.000779908 -2.01979e-21)
(1.00007 0.000773425 -1.00838e-21)
(1.00006 0.000772253 -1.00878e-21)
(1.00004 0.000775781 -3.018e-21)
(1.00003 0.000783775 5.03797e-21)
(1.00001 0.000796174 0)
(1 0.000812489 -5.01807e-22)
(0.999987 0.000832858 -1.00289e-21)
(0.999974 0.0008568 0)
(0.999962 0.000884237 4.99591e-22)
(0.999951 0.000914984 -4.4846e-21)
(0.99994 0.000948591 3.98936e-21)
(0.99993 0.000985077 0)
(0.99992 0.00102401 9.93301e-22)
(0.999911 0.00106521 0)
(0.999903 0.00110851 0)
(0.999895 0.0011534 0)
(0.999888 0.00119986 -1.96628e-21)
(0.999882 0.00124755 1.84427e-21)
(0.999877 0.00129612 -1.22712e-22)
(0.999873 0.00134542 0)
(0.999869 0.00139513 -4.56277e-22)
(0.999866 0.00144494 4.79191e-22)
(0.999864 0.00149468 9.09243e-23)
(0.999863 0.00154402 1.20795e-22)
(0.999862 0.00159271 0)
(0.999863 0.00164053 -1.91838e-21)
(0.999864 0.0016872 1.91795e-21)
(0.999866 0.00173249 -3.5727e-21)
(0.999869 0.00177619 7.84546e-21)
(0.999872 0.00181799 -3.55925e-21)
(0.999876 0.0018577 4.71872e-22)
(0.999881 0.00189511 4.70082e-22)
(0.999887 0.00193008 4.68758e-22)
(0.999893 0.0019624 -4.66335e-22)
(0.999901 0.00199181 4.17471e-21)
(0.999909 0.00201825 -3.24365e-21)
(0.999917 0.00204137 -1.38211e-21)
(0.999927 0.00206114 5.03965e-21)
(0.999937 0.00207734 -3.65945e-21)
(0.999948 0.00208976 -1.81905e-21)
(0.999959 0.00209823 3.6155e-21)
(0.999971 0.00210232 -7.21033e-21)
(0.999984 0.0021024 3.59384e-21)
(0.999996 0.00209826 1.78283e-21)
(1.00001 0.002089 -3.29525e-24)
(1.00003 0.00206955 0)
(1.00026 0.000877067 3.04694e-21)
(1.00022 0.000863724 -1.01737e-21)
(1.00018 0.000853397 -4.05525e-21)
(1.00013 0.000850243 2.02281e-21)
(1.00009 0.000855414 -2.0228e-21)
(1.00005 0.000868074 0)
(1.00001 0.000887962 -2.01484e-21)
(0.999966 0.000915159 -6.03581e-21)
(0.999929 0.000948625 6.03792e-21)
(0.999894 0.000988784 1.00294e-21)
(0.99986 0.00103472 0)
(0.999828 0.00108632 -6.00138e-21)
(0.999798 0.00114342 9.64167e-24)
(0.99977 0.00120508 3.99378e-21)
(0.999744 0.00127149 0)
(0.999719 0.00134189 -9.92759e-22)
(0.999697 0.00141591 -9.93056e-22)
(0.999677 0.00149351 0)
(0.999659 0.00157364 -9.88847e-22)
(0.999643 0.00165631 -1.96787e-21)
(0.999629 0.00174112 1.96847e-21)
(0.999618 0.00182731 -2.46008e-22)
(0.999609 0.00191474 -2.44842e-22)
(0.999601 0.00200295 0)
(0.999597 0.00209132 3.79473e-23)
(0.999594 0.00217961 -2.12329e-22)
(0.999594 0.00226739 0)
(0.999596 0.0023541 0)
(0.9996 0.00243947 -1.91901e-21)
(0.999606 0.00252307 1.91864e-21)
(0.999614 0.00260443 -3.81212e-21)
(0.999624 0.00268324 3.81085e-21)
(0.999637 0.00275908 0)
(0.999651 0.0028316 0)
(0.999668 0.00290038 0)
(0.999686 0.00296514 -9.36594e-22)
(0.999706 0.00302548 -1.86755e-21)
(0.999729 0.00308102 0)
(0.999753 0.00313158 -9.25262e-22)
(0.999779 0.0031766 -9.15042e-22)
(0.999807 0.00321599 2.75926e-21)
(0.999837 0.00324935 0)
(0.999869 0.00327627 3.63228e-21)
(0.999902 0.00329675 -5.43814e-21)
(0.999937 0.00331001 0)
(0.999974 0.00331632 0)
(1.00001 0.00331509 0)
(1.00005 0.00330546 -1.7781e-21)
(1.0001 0.00328331 -1.76815e-21)
(1.0004 0.000841854 -2.03556e-21)
(1.00033 0.00082834 4.07423e-21)
(1.00024 0.00082448 4.06808e-21)
(1.00016 0.000830596 6.0853e-21)
(1.00007 0.000848132 -2.0327e-21)
(0.999991 0.000876096 -4.04283e-21)
(0.999913 0.000914218 8.08516e-21)
(0.999838 0.000962794 -3.29126e-24)
(0.999767 0.00102006 -2.01317e-21)
(0.999699 0.00108688 2.0159e-21)
(0.999634 0.00116178 0)
(0.999574 0.00124461 2.00358e-21)
(0.999517 0.00133532 -1.99379e-21)
(0.999464 0.0014323 7.99687e-21)
(0.999414 0.00153605 -7.98148e-21)
(0.999369 0.00164535 5.98354e-21)
(0.999328 0.00175967 -9.99278e-22)
(0.999291 0.00187917 9.93635e-22)
(0.999259 0.00200207 9.88111e-22)
(0.99923 0.00212851 -9.89218e-22)
(0.999206 0.00225804 0)
(0.999186 0.00238938 -1.47144e-21)
(0.999171 0.00252247 1.22856e-21)
(0.99916 0.00265667 9.78489e-22)
(0.999153 0.002791 4.56532e-23)
(0.999151 0.0029252 9.08719e-23)
(0.999152 0.00305872 1.45204e-21)
(0.999159 0.00319062 -9.66862e-22)
(0.999169 0.00332061 1.92133e-21)
(0.999184 0.00344814 -1.92102e-21)
(0.999203 0.00357241 0)
(0.999226 0.00369307 4.75577e-21)
(0.999253 0.00380954 -3.80095e-21)
(0.999284 0.00392121 3.77345e-21)
(0.999319 0.00402763 -3.77205e-21)
(0.999357 0.00412831 0)
(0.9994 0.00422269 3.72558e-21)
(0.999447 0.00431028 -1.865e-21)
(0.999497 0.00439078 0)
(0.999551 0.00446343 3.68316e-21)
(0.999609 0.0045281 -3.67803e-21)
(0.99967 0.00458417 1.82793e-21)
(0.999735 0.00463111 1.81938e-21)
(0.999803 0.00466892 5.43215e-21)
(0.999874 0.00469652 5.94811e-24)
(0.999949 0.00471421 3.59436e-21)
(1.00003 0.00472102 1.78239e-21)
(1.00011 0.00471603 1.77226e-21)
(1.0002 0.00469654 1.76959e-21)
(1.00052 0.000684576 0)
(1.0004 0.000678434 -4.07978e-21)
(1.00026 0.000689205 -4.07184e-21)
(1.00012 0.000712843 0)
(0.999988 0.000751248 -4.06394e-21)
(0.999855 0.000803208 8.36536e-24)
(0.999727 0.000868426 8.12978e-21)
(0.999605 0.000947505 -2.03575e-21)
(0.999488 0.00103779 -8.62585e-24)
(0.999377 0.00114075 -6.06006e-21)
(0.999272 0.00125422 0)
(0.999173 0.00137804 -6.04164e-21)
(0.999081 0.00151234 2.01823e-21)
(0.998995 0.00165464 0)
(0.998916 0.00180594 -2.00777e-21)
(0.998843 0.00196442 9.29356e-24)
(0.998777 0.00212936 -1.99355e-21)
(0.998718 0.00230125 6.96651e-21)
(0.998666 0.00247738 -1.05153e-23)
(0.998622 0.00265809 -1.0004e-21)
(0.998584 0.00284289 -9.88009e-22)
(0.998554 0.00302989 1.96775e-21)
(0.99853 0.00321912 -1.96804e-21)
(0.998514 0.0034098 -2.43609e-22)
(0.998506 0.00360049 5.04428e-22)
(0.998504 0.00379092 -2.72622e-22)
(0.99851 0.00398044 9.70841e-22)
(0.998523 0.00416768 -9.6912e-22)
(0.998542 0.00435229 9.66254e-22)
(0.998569 0.00453365 1.91856e-21)
(0.998603 0.00471058 -5.74076e-21)
(0.998644 0.00488268 -9.39251e-22)
(0.998691 0.0050492 5.71086e-21)
(0.998745 0.00520929 1.89553e-21)
(0.998806 0.00536243 -3.76378e-21)
(0.998874 0.00550795 3.7615e-21)
(0.998947 0.00564507 7.41505e-24)
(0.999027 0.00577326 5.58621e-21)
(0.999114 0.00589204 -3.72303e-21)
(0.999206 0.00600047 -9.23408e-21)
(0.999305 0.00609842 3.67518e-21)
(0.999409 0.00618503 1.82988e-21)
(0.99952 0.00625967 7.27344e-21)
(0.999636 0.00632236 -3.62772e-21)
(0.999757 0.00637169 -7.22246e-24)
(0.999885 0.0064081 -7.78272e-24)
(1.00002 0.00643018 0)
(1.00016 0.00643714 -3.55452e-21)
(1.00031 0.00642838 -3.53205e-21)
(1.00059 0.000376124 0)
(1.00041 0.000385737 -6.16493e-21)
(1.00021 0.000420385 6.15723e-21)
(1.00001 0.000471528 0)
(0.999802 0.000541414 0)
(0.999604 0.000628376 -4.0793e-21)
(0.999414 0.000732029 -2.62914e-24)
(0.99923 0.000853344 -4.08077e-21)
(0.999056 0.000988602 -8.28918e-24)
(0.99889 0.00114001 0)
(0.998734 0.00130457 0)
(0.998586 0.00148215 2.0187e-21)
(0.998449 0.00167308 0)
(0.998321 0.0018739 0)
(0.998203 0.00208614 -2.01265e-21)
(0.998096 0.00230736 4.03291e-21)
(0.997999 0.00253656 2.01068e-21)
(0.997912 0.00277469 0)
(0.997836 0.00301789 1.98248e-21)
(0.997771 0.00326679 -4.98245e-21)
(0.997716 0.00352088 -1.98476e-21)
(0.997673 0.0037775 -1.97583e-21)
(0.99764 0.00403685 1.97603e-21)
(0.997619 0.00429795 1.34703e-24)
(0.997608 0.00455886 1.5366e-23)
(0.997608 0.00481929 2.44094e-22)
(0.997619 0.00507849 -4.87846e-22)
(0.997641 0.0053346 0)
(0.997674 0.00558723 -9.65175e-22)
(0.997718 0.00583562 0)
(0.997772 0.00607822 0)
(0.997836 0.00631456 -1.91651e-21)
(0.997911 0.00654373 -7.61228e-21)
(0.997996 0.00676453 2.09993e-23)
(0.998091 0.00697647 1.89279e-21)
(0.998196 0.00717864 0)
(0.998311 0.00737004 -1.86981e-21)
(0.998435 0.00755007 -3.73264e-21)
(0.998569 0.00771811 3.70648e-21)
(0.998712 0.00787299 7.38728e-21)
(0.998864 0.00801463 -7.35127e-21)
(0.999025 0.00814188 3.41229e-24)
(0.999194 0.00825406 -3.63962e-21)
(0.999373 0.00835121 7.60329e-25)
(0.999559 0.00843156 0)
(0.999755 0.00849577 -3.5862e-21)
(0.99996 0.00854188 -1.77977e-21)
(1.00018 0.00856942 1.77844e-21)
(1.00041 0.00858111 3.53387e-21)
(1.00055 -0.000120321 0)
(1.00031 -0.000103238 4.12052e-21)
(1.00004 -3.40221e-05 -1.238e-20)
(0.999754 5.75045e-05 0)
(0.99947 0.00017232 0)
(0.999192 0.000308136 -8.22825e-21)
(0.998923 0.000464499 8.20178e-21)
(0.998665 0.000642822 -4.11213e-21)
(0.998419 0.000838128 -8.46976e-24)
(0.998185 0.00105354 4.08977e-21)
(0.997964 0.00128507 0)
(0.997757 0.00153263 0)
(0.997563 0.0017968 4.08097e-21)
(0.997383 0.00207292 0)
(0.997218 0.00236326 0)
(0.997067 0.00266455 -4.04224e-21)
(0.996931 0.00297554 1.4736e-23)
(0.996809 0.00329767 0)
(0.996703 0.00362578 1.99951e-21)
(0.996613 0.00396085 5.00384e-21)
(0.996538 0.00430229 -2.00503e-21)
(0.996479 0.00464661 0)
(0.996435 0.00499417 -9.901e-22)
(0.996407 0.00534379 1.23715e-21)
(0.996395 0.00569292 -5.39685e-22)
(0.996398 0.00604126 -2.46319e-22)
(0.996417 0.00638793 4.85797e-22)
(0.996452 0.00673053 -9.76483e-22)
(0.996503 0.00706857 0)
(0.996568 0.00740118 -3.87104e-21)
(0.996649 0.00772634 5.7755e-21)
(0.996745 0.00804352 1.89907e-21)
(0.996856 0.0083516 -6.81052e-24)
(0.996981 0.00864903 1.89736e-21)
(0.997121 0.00893526 -1.9047e-21)
(0.997275 0.00920922 -3.76104e-21)
(0.997442 0.00946956 7.50186e-21)
(0.997623 0.00971567 -3.73873e-21)
(0.997818 0.00994673 7.44223e-21)
(0.998025 0.0101613 7.52115e-24)
(0.998245 0.0103595 7.35703e-21)
(0.998478 0.0105398 -3.65681e-21)
(0.998723 0.0107013 0)
(0.998979 0.0108443 1.23639e-24)
(0.999248 0.0109666 7.20602e-21)
(0.999529 0.0110691 0)
(0.999823 0.0111492 0)
(1.00013 0.0112069 6.20034e-21)
(1.00047 0.01125 8.83408e-22)
(1.00039 -0.000928623 1.03993e-21)
(1.00005 -0.000831481 7.30794e-21)
(0.999687 -0.000733634 8.27916e-21)
(0.999316 -0.000594288 -8.33318e-21)
(0.998935 -0.000421261 0)
(0.99856 -0.000221524 -1.09543e-23)
(0.998197 3.80603e-06 -4.16876e-21)
(0.997847 0.000256376 -4.15849e-21)
(0.997513 0.000529687 1.23952e-20)
(0.997196 0.000827876 -4.12161e-21)
(0.996896 0.00114571 0)
(0.996614 0.00148316 8.22629e-21)
(0.996351 0.00184104 -8.1812e-21)
(0.996107 0.00221335 2.38886e-23)
(0.995882 0.00260313 8.16085e-21)
(0.995678 0.00300622 -2.04866e-21)
(0.995494 0.00342102 -1.99869e-21)
(0.99533 0.00384951 4.05653e-21)
(0.995187 0.0042851 0)
(0.995066 0.0047291 -2.00709e-21)
(0.994966 0.00518086 2.00952e-21)
(0.994888 0.00563592 1.99947e-21)
(0.994831 0.00609478 -1.99944e-21)
(0.994796 0.00655603 2.49753e-22)
(0.994783 0.00701646 3.08643e-23)
(0.994792 0.00747567 7.38882e-22)
(0.994822 0.00793262 -2.55975e-24)
(0.994874 0.00838432 0)
(0.994948 0.00883011 0)
(0.995042 0.00926897 -1.72676e-24)
(0.995158 0.00969835 -1.92265e-21)
(0.995295 0.0101176 3.86075e-21)
(0.995452 0.0105254 -3.836e-21)
(0.99563 0.0109196 3.80754e-21)
(0.995827 0.0112998 -7.61583e-21)
(0.996043 0.0116646 1.76284e-23)
(0.996279 0.0120123 3.76865e-21)
(0.996532 0.0123422 3.73285e-21)
(0.996804 0.0126534 -7.46038e-21)
(0.997093 0.012944 -7.40924e-21)
(0.997399 0.0132143 -3.69152e-21)
(0.997722 0.0134624 -3.66985e-21)
(0.998061 0.0136874 0)
(0.998416 0.0138897 -3.61888e-21)
(0.998786 0.0140664 -2.47919e-25)
(0.999173 0.0142191 7.15682e-21)
(0.999577 0.0143441 -8.8881e-21)
(1 0.0144425 1.76232e-21)
(1.00046 0.0145287 0)
(1.00005 -0.00217624 0)
(0.999608 -0.00200297 -8.35764e-21)
(0.999122 -0.00176204 0)
(0.998623 -0.00154127 8.34464e-21)
(0.998124 -0.00132938 4.18054e-21)
(0.997639 -0.00105281 -8.35704e-21)
(0.997164 -0.00073925 1.24949e-20)
(0.996704 -0.000392267 4.14989e-21)
(0.996263 -1.9557e-05 -4.14644e-21)
(0.995843 0.000383881 0)
(0.995446 0.000811329 4.14695e-21)
(0.995073 0.00126282 -8.27361e-21)
(0.994725 0.00173937 4.15721e-21)
(0.994401 0.00223344 -4.10874e-21)
(0.994104 0.00274896 2.73849e-23)
(0.993833 0.00328071 4.1134e-21)
(0.99359 0.00382666 -8.20188e-21)
(0.993374 0.00438937 0)
(0.993186 0.0049607 4.0702e-21)
(0.993027 0.00554229 -4.07021e-21)
(0.992896 0.00613329 -1.00811e-21)
(0.992794 0.00672826 0)
(0.992722 0.00732778 1.01113e-21)
(0.992679 0.00793006 2.50716e-22)
(0.992666 0.00853126 -5.31491e-22)
(0.992682 0.0091307 7.4606e-22)
(0.992728 0.00972712 4.92185e-22)
(0.992803 0.0103169 -9.88138e-22)
(0.992907 0.0108991 0)
(0.99304 0.0114724 -1.95029e-21)
(0.993202 0.0120337 3.90244e-21)
(0.993392 0.0125821 0)
(0.993609 0.013116 1.92063e-21)
(0.993853 0.0136327 0)
(0.994124 0.0141316 3.80344e-21)
(0.994421 0.0146112 -7.58584e-21)
(0.994743 0.0150692 3.76102e-21)
(0.995089 0.0155048 -1.96544e-23)
(0.995459 0.0159169 3.70239e-21)
(0.995852 0.0163033 -3.71816e-21)
(0.996267 0.0166644 3.68187e-21)
(0.996704 0.0169977 7.33391e-21)
(0.997161 0.0173025 0)
(0.997638 0.0175791 0)
(0.998135 0.0178243 -7.19792e-21)
(0.998653 0.01804 -1.43007e-20)
(0.999194 0.0182217 1.42107e-20)
(0.999761 0.0183714 -7.9506e-21)
(1.00037 0.0185129 7.88945e-21)
(0.999494 -0.00392145 0)
(0.998926 -0.00368132 8.49604e-21)
(0.998301 -0.0033764 8.48705e-21)
(0.997646 -0.00304634 1.27227e-20)
(0.996997 -0.00266014 -1.27201e-20)
(0.996361 -0.00226376 -4.2211e-21)
(0.995742 -0.00186961 1.27124e-20)
(0.995148 -0.00141635 -4.21049e-21)
(0.994584 -0.000921358 4.21308e-21)
(0.994038 -0.000388195 0)
(0.993521 0.000175715 8.44266e-21)
(0.993034 0.000769862 0)
(0.992579 0.00139498 -4.15777e-21)
(0.992157 0.00204181 -4.19891e-21)
(0.991768 0.00271518 4.83778e-23)
(0.991415 0.00340864 0)
(0.991097 0.00411968 4.15176e-21)
(0.990815 0.00485132 8.29055e-21)
(0.99057 0.00559384 0)
(0.990363 0.00634918 2.04927e-21)
(0.990194 0.00711608 -2.04864e-21)
(0.990063 0.00788814 -2.03463e-21)
(0.989972 0.00866582 2.0455e-21)
(0.98992 0.00944687 -3.95157e-24)
(0.989907 0.0102267 -5.04646e-22)
(0.989934 0.0110042 -2.21977e-22)
(0.99 0.0117778 -5.00244e-22)
(0.990105 0.0125431 9.98912e-22)
(0.99025 0.0132986 0)
(0.990433 0.0140428 1.96331e-21)
(0.990654 0.0147717 -3.9125e-21)
(0.990913 0.0154841 0)
(0.991209 0.0161779 0)
(0.99154 0.0168499 3.84087e-21)
(0.991907 0.0174989 -7.66107e-21)
(0.992307 0.0181234 3.81826e-21)
(0.992741 0.0187203 3.79481e-21)
(0.993206 0.0192887 0)
(0.993702 0.0198272 1.12181e-20)
(0.994227 0.0203332 -7.43071e-21)
(0.994781 0.0208072 -3.6915e-21)
(0.995361 0.0212462 1.62753e-23)
(0.995967 0.0216495 -7.29441e-21)
(0.996598 0.0220174 -7.23757e-21)
(0.997254 0.0223463 -7.19183e-21)
(0.997935 0.0226385 4.84402e-24)
(0.998644 0.0228885 -1.01647e-23)
(0.999386 0.0230998 0)
(1.00018 0.0233083 -1.39915e-20)
(0.99867 -0.00635352 0)
(0.997945 -0.00602454 2.214e-21)
(0.997153 -0.00562115 -1.06216e-20)
(0.99633 -0.00518027 -8.49874e-21)
(0.995502 -0.00468733 8.49472e-21)
(0.994677 -0.00415763 4.31829e-21)
(0.993878 -0.00357837 -4.22253e-21)
(0.993109 -0.00293242 0)
(0.992373 -0.00229735 0)
(0.99167 -0.00163848 8.56513e-21)
(0.991004 -0.000907622 -8.44859e-21)
(0.990376 -0.000135628 4.23959e-21)
(0.989786 0.000674365 -4.23622e-21)
(0.989238 0.00151199 4.23336e-21)
(0.988734 0.00238275 4.24016e-21)
(0.988274 0.00327883 -4.20887e-21)
(0.98786 0.00419726 -4.16794e-21)
(0.987494 0.00514135 -4.15388e-21)
(0.987175 0.00609989 4.16078e-21)
(0.986907 0.00707496 -4.15985e-21)
(0.986688 0.00806465 0)
(0.98652 0.00906159 2.07556e-21)
(0.986404 0.0100659 -2.04483e-21)
(0.98634 0.0110747 1.53216e-21)
(0.986328 0.0120825 0)
(0.986369 0.0130874 1.0133e-21)
(0.986463 0.0140873 0)