/*--------------------------------*- C++ -*----------------------------------*\
| =========                 |                                                 |
| \\      /  F ield         | OpenFOAM: The Open Source CFD Toolbox           |
|  \\    /   O peration     | Version:  2312                                  |
|   \\  /    A nd           | Website:  www.openfoam.com                      |
|    \\/     M anipulation  |                                                 |
\*---------------------------------------------------------------------------*/
FoamFile
{
    version     2.0;
    format      ascii;
    arch        "LSB;label=32;scalar=64";
    class       volVectorField;
    location    "6.424085023397097";
    object      U;
}
// * * * * * * * * * * * * * * * * * * * * * * * * * * * * * * * * * * * * * //

dimensions      [0 1 -1 0 0 0 0];

internalField   nonuniform List<vector> 
21039
(
(0.913952 0.0476997 0)
(1.02596 0.0665862 0)
(1.00448 0.0293191 0)
(1.00178 0.0188919 0)
(1.00121 0.013874 0)
(1.00079 0.0104862 0)
(1.00055 0.00816216 0)
(1.0004 0.00652345 0)
(1.0003 0.00531775 0)
(1.00023 0.0044013 0)
(1.00018 0.00368854 0)
(1.00014 0.00312431 0)
(1.00011 0.00267143 0)
(1.00009 0.00230419 0)
(1.00007 0.00200431 0)
(1.00006 0.00175851 0)
(1.00005 0.00155692 0)
(1.00004 0.00139205 0)
(1.00003 0.00125807 0)
(1.00002 0.00115021 0)
(1.00002 0.0010644 0)
(1.00001 0.00099856 0)
(1.00001 0.000954868 0)
(1.00001 0.000912851 0)
(1.00001 0.00087902 0)
(1.00001 0.000850846 0)
(1.00001 0.000824295 0)
(1.00002 0.000788096 0)
(1.00002 0.000717224 0)
(0.795069 0.073274 0)
(1.07433 0.121639 0)
(1.03984 0.0704862 0)
(1.01815 0.0495972 0)
(1.0113 0.0381317 0)
(1.00764 0.0293239 0)
(1.00538 0.0230222 0)
(1.00395 0.0184406 0)
(1.00299 0.0149799 0)
(1.00232 0.0122998 0)
(1.00184 0.0101833 0)
(1.00147 0.0084832 0)
(1.0012 0.00709829 0)
(1.00098 0.0059578 0)
(1.00081 0.00501104 0)
(1.00067 0.00422105 0)
(1.00055 0.00356045 0)
(1.00045 0.00300865 0)
(1.00037 0.00254989 0)
(1.00029 0.0021718 0)
(1.00023 0.00186406 0)
(1.00018 0.00162009 0)
(1.00014 0.00144506 0)
(1.00011 0.00130628 0)
(1.00011 0.00121343 0)
(1.00011 0.00114942 0)
(1.00012 0.00110066 0)
(1.00013 0.00104623 0)
(1.00015 0.00095161 0)
(0.667894 0.057329 0)
(1.08298 0.124611 0)
(1.08429 0.0898393 0)
(1.04634 0.0674183 0)
(1.0291 0.0538266 0)
(1.02027 0.0428315 0)
(1.0147 0.0345157 0)
(1.011 0.0281201 0)
(1.00844 0.023078 0)
(1.00662 0.0190586 0)
(1.00528 0.015815 0)
(1.00428 0.0131642 0)
(1.00351 0.0109741 0)
(1.0029 0.00914879 0)
(1.00242 0.00761756 0)
(1.00202 0.00632777 0)
(1.00168 0.00523991 0)
(1.0014 0.00432398 0)
(1.00116 0.00355705 0)
(1.00094 0.00292137 0)
(1.00076 0.00240231 0)
(1.00059 0.00198918 0)
(1.00045 0.0016894 0)
(1.00036 0.0014655 0)
(1.00031 0.00132381 0)
(1.0003 0.00123066 0)
(1.0003 0.001163 0)
(1.00033 0.00109421 0)
(1.00034 0.000986407 0)
(0.541696 0.0352432 0)
(1.05099 0.110562 0)
(1.1159 0.0964758 0)
(1.07615 0.075847 0)
(1.0493 0.0616174 0)
(1.03531 0.0504757 0)
(1.02645 0.0417861 0)
(1.02028 0.0347393 0)
(1.01585 0.0289407 0)
(1.01261 0.024164 0)
(1.01018 0.0202027 0)
(1.00833 0.0168919 0)
(1.00689 0.0141064 0)
(1.00574 0.0117499 0)
(1.00481 0.0097482 0)
(1.00405 0.00804435 0)
(1.0034 0.00659451 0)
(1.00285 0.00536483 0)
(1.00237 0.00432915 0)
(1.00194 0.00346723 0)
(1.00156 0.00276264 0)
(1.00123 0.00220207 0)
(1.00093 0.00179469 0)
(1.00072 0.00150059 0)
(1.0006 0.00131965 0)
(1.00054 0.00120345 0)
(1.00053 0.00112114 0)
(1.00055 0.00104178 0)
(1.00057 0.000922485 0)
(0.445137 0.0186189 0)
(0.998383 0.0915415 0)
(1.12914 0.0949897 0)
(1.10147 0.0788233 0)
(1.06831 0.0647331 0)
(1.04984 0.0540295 0)
(1.03831 0.0456238 0)
(1.03008 0.0385676 0)
(1.02398 0.0325799 0)
(1.01939 0.0275082 0)
(1.01588 0.0231916 0)
(1.01314 0.0195008 0)
(1.01097 0.0163344 0)
(1.00922 0.0136107 0)
(1.00779 0.0112641 0)
(1.00659 0.00924253 0)
(1.00557 0.00750485 0)
(1.00468 0.00601869 0)
(1.00391 0.00475867 0)
(1.00322 0.00370513 0)
(1.00259 0.00284229 0)
(1.00203 0.00215617 0)
(1.00152 0.001658 0)
(1.00115 0.00130734 0)
(1.00092 0.00109671 0)
(1.0008 0.000964597 0)
(1.00077 0.000874398 0)
(1.00078 0.000791311 0)
(1.0008 0.000665543 0)
(0.379918 0.00802859 0)
(0.940895 0.0714269 0)
(1.12737 0.0874581 0)
(1.12089 0.0777109 0)
(1.08558 0.0649351 0)
(1.06315 0.0549356 0)
(1.04936 0.0470493 0)
(1.03952 0.040281 0)
(1.03209 0.034405 0)
(1.02636 0.0293124 0)
(1.02188 0.0248804 0)
(1.01832 0.0210135 0)
(1.01546 0.0176348 0)
(1.01311 0.0146804 0)
(1.01115 0.0120979 0)
(1.0095 0.00984464 0)
(1.00807 0.00788649 0)
(1.00682 0.0061961 0)
(1.00572 0.00475198 0)
(1.00472 0.0035375 0)
(1.00381 0.00253973 0)
(1.00297 0.00174606 0)
(1.00221 0.00117045 0)
(1.00164 0.000774219 0)
(1.00128 0.000542288 0)
(1.00109 0.000399482 0)
(1.00102 0.000301771 0)
(1.00103 0.000223797 0)
(1.00103 0.000113731 0)
(0.33506 0.00223718 0)
(0.885303 0.0533151 0)
(1.11484 0.0767853 0)
(1.13401 0.0735624 0)
(1.10096 0.0629935 0)
(1.07542 0.0539247 0)
(1.05955 0.0466957 0)
(1.0484 0.0403933 0)
(1.03989 0.0348038 0)
(1.03322 0.0298512 0)
(1.02792 0.025452 0)
(1.02365 0.0215419 0)
(1.02015 0.0180668 0)
(1.01724 0.0149801 0)
(1.01478 0.0122433 0)
(1.01268 0.00982456 0)
(1.01084 0.00769832 0)
(1.00921 0.00584421 0)
(1.00775 0.00424644 0)
(1.00641 0.0028933 0)
(1.00518 0.0017767 0)
(1.00403 0.000887131 0)
(1.00298 0.000239347 0)
(1.00219 -0.000197564 0)
(1.00167 -0.000445645 0)
(1.00139 -0.000593944 0)
(1.00128 -0.000690382 0)
(1.00126 -0.000772303 0)
(1.00124 -0.000908502 0)
(0.303193 -0.000301465 0)
(0.834467 0.0389227 0)
(1.09524 0.0656067 0)
(1.14087 0.0677236 0)
(1.11393 0.0596656 0)
(1.08661 0.0516121 0)
(1.06893 0.0450531 0)
(1.05666 0.0392828 0)
(1.04729 0.0340683 0)
(1.03987 0.0293471 0)
(1.03389 0.0250698 0)
(1.029 0.021199 0)
(1.02494 0.017701 0)
(1.02152 0.0145457 0)
(1.0186 0.0117079 0)
(1.01606 0.00916681 0)
(1.01382 0.00690579 0)
(1.01181 0.0049122 0)
(1.00998 0.00317703 0)
(1.00829 0.00169476 0)
(1.0067 0.000462597 0)
(1.00521 -0.000525213 0)
(1.00384 -0.00124579 0)
(1.00278 -0.00172894 0)
(1.00209 -0.00200181 0)
(1.00169 -0.00215741 0)
(1.00152 -0.0022494 0)
(1.00147 -0.00232731 0)
(1.00142 -0.00247708 0)
(0.28075 -0.00109877 0)
(0.789932 0.0282825 0)
(1.0719 0.0552779 0)
(1.14231 0.0612259 0)
(1.1242 0.0556114 0)
(1.0966 0.0485609 0)
(1.07747 0.042584 0)
(1.06429 0.037301 0)
(1.05425 0.0324623 0)
(1.04623 0.0279983 0)
(1.0397 0.0238792 0)
(1.0343 0.0200868 0)
(1.02977 0.016603 0)
(1.0259 0.0134119 0)
(1.02256 0.0105 0)
(1.01962 0.00785651 0)
(1.01699 0.00547371 0)
(1.0146 0.00334681 0)
(1.0124 0.00147417 0)
(1.01034 -0.000144837 0)
(1.00839 -0.00150721 0)
(1.00653 -0.00261064 0)
(1.00479 -0.00342397 0)
(1.00344 -0.00397255 0)
(1.00254 -0.00428484 0)
(1.00202 -0.00445994 0)
(1.00177 -0.00455622 0)
(1.00166 -0.00463229 0)
(1.00155 -0.00479218 0)
(0.264946 -0.00114287 0)
(0.752119 0.0206856 0)
(1.04739 0.0462121 0)
(1.13971 0.0546255 0)
(1.13196 0.0512057 0)
(1.10545 0.0451231 0)
(1.08528 0.0396267 0)
(1.07131 0.034737 0)
(1.06075 0.0302187 0)
(1.05229 0.0259862 0)
(1.04533 0.0220171 0)
(1.03952 0.0183038 0)
(1.03459 0.014839 0)
(1.03035 0.0116168 0)
(1.02663 0.00863314 0)
(1.02333 0.00588576 0)
(1.02034 0.0033748 0)
(1.01759 0.00110245 0)
(1.01503 -0.000928399 0)
(1.0126 -0.00271153 0)
(1.01027 -0.0042351 0)
(1.00802 -0.00548905 0)
(1.00589 -0.0064337 0)
(1.00421 -0.00708413 0)
(1.00307 -0.00746476 0)
(1.00239 -0.00768185 0)
(1.00203 -0.00779885 0)
(1.00183 -0.00788316 0)
(1.00164 -0.00806012 0)
(0.253475 -0.000924272 0)
(0.720563 0.0153435 0)
(1.0234 0.0384327 0)
(1.13434 0.0482042 0)
(1.13754 0.0466271 0)
(1.11329 0.0414603 0)
(1.09249 0.0363689 0)
(1.07787 0.0317789 0)
(1.06689 0.0275072 0)
(1.05808 0.0234552 0)
(1.0508 0.0196006 0)
(1.04467 0.0159409 0)
(1.03943 0.0124753 0)
(1.03487 0.00920448 0)
(1.03084 0.00613113 0)
(1.02721 0.00325971 0)
(1.0239 0.000595465 0)
(1.02082 -0.00185555 0)
(1.01791 -0.00408324 0)
(1.01511 -0.00607311 0)
(1.0124 -0.00780643 0)
(1.00974 -0.00926485 0)
(1.0072 -0.0103989 0)
(1.00516 -0.0112075 0)
(1.00375 -0.0117035 0)
(1.00287 -0.0119995 0)
(1.00236 -0.0121642 0)
(1.00204 -0.0122755 0)
(1.00172 -0.0124821 0)
(0.244828 -0.000669261 0)
(0.69446 0.0115718 0)
(1.00086 0.031821 0)
(1.12724 0.042111 0)
(1.14131 0.0419804 0)
(1.12021 0.0376514 0)
(1.09925 0.0329115 0)
(1.08409 0.0285424 0)
(1.07276 0.0244448 0)
(1.0637 0.0205159 0)
(1.05617 0.01673 0)
(1.04981 0.0130857 0)
(1.04432 0.00958567 0)
(1.03951 0.00623473 0)
(1.03521 0.00303998 0)
(1.03132 8.49767e-06 0)
(1.02772 -0.00285155 0)
(1.02435 -0.00552787 0)
(1.02112 -0.00800369 0)
(1.01797 -0.0102585 0)
(1.01487 -0.012267 0)
(1.0118 -0.014003 0)
(1.00883 -0.0154071 0)
(1.0064 -0.0164552 0)
(1.00468 -0.0171376 0)
(1.00356 -0.0175698 0)
(1.00284 -0.0178257 0)
(1.00234 -0.0179952 0)
(1.00184 -0.0182516 0)
(0.238147 -0.00047037 0)
(0.673006 0.00883309 0)
(0.980304 0.0262034 0)
(1.11919 0.0364129 0)
(1.14363 0.0373442 0)
(1.12632 0.0337553 0)
(1.10563 0.0293271 0)
(1.09007 0.0251184 0)
(1.07846 0.0211327 0)
(1.06921 0.0172742 0)
(1.06152 0.0135124 0)
(1.05498 0.00984418 0)
(1.04931 0.00627292 0)
(1.04431 0.00280547 0)
(1.03982 -0.000551088 0)
(1.03571 -0.00378837 0)
(1.03188 -0.00689351 0)
(1.02825 -0.00984948 0)
(1.02473 -0.0126352 0)
(1.02126 -0.0152253 0)
(1.01779 -0.0175894 0)
(1.01431 -0.0196953 0)
(1.0109 -0.0214758 0)
(1.00806 -0.0228778 0)
(1.00601 -0.0238529 0)
(1.0046 -0.0245118 0)
(1.00362 -0.0249307 0)
(1.00285 -0.0252131 0)
(1.0021 -0.0255546 0)
(0.232931 -0.00034323 0)
(0.655504 0.00675037 0)
(0.961975 0.0213981 0)
(1.11081 0.0311223 0)
(1.14483 0.0327796 0)
(1.13172 0.0298304 0)
(1.11171 0.0256885 0)
(1.09591 0.0216026 0)
(1.08408 0.0176852 0)
(1.07469 0.0138583 0)
(1.0669 0.0100862 0)
(1.06025 0.0063619 0)
(1.05448 0.00268737 0)
(1.04936 -0.000932863 0)
(1.04473 -0.00449263 0)
(1.04048 -0.00798125 0)
(1.03647 -0.0113831 0)
(1.03263 -0.0146789 0)
(1.02887 -0.0178444 0)
(1.02512 -0.0208505 0)
(1.02131 -0.023664 0)
(1.01744 -0.0262502 0)
(1.01361 -0.0285398 0)
(1.01039 -0.030449 0)
(1.00799 -0.0318712 0)
(1.00624 -0.0328984 0)
(1.00492 -0.0336005 0)
(1.00378 -0.0340923 0)
(1.00265 -0.0345859 0)
(0.228873 -0.00026567 0)
(0.641382 0.00509428 0)
(0.945948 0.0172665 0)
(1.10252 0.0262519 0)
(1.14515 0.028353 0)
(1.13643 0.0259413 0)
(1.11745 0.0220709 0)
(1.10158 0.0180947 0)
(1.08959 0.0142264 0)
(1.08012 0.0104114 0)
(1.07228 0.00661018 0)
(1.06559 0.00281004 0)
(1.05978 -0.000991465 0)
(1.05461 -0.00479324 0)
(1.04992 -0.00858994 0)
(1.04558 -0.0123702 0)
(1.04147 -0.0161185 0)
(1.03749 -0.0198142 0)
(1.03354 -0.0234312 0)
(1.02955 -0.0269371 0)
(1.02546 -0.0302976 0)
(1.02126 -0.0334805 0)
(1.0171 -0.0364249 0)
(1.0136 -0.0390318 0)
(1.01094 -0.0411252 0)
(1.00889 -0.042759 0)
(1.00718 -0.0439711 0)
(1.00557 -0.0448642 0)
(1.00395 -0.045636 0)
(0.226038 -0.000199599 0)
(0.630949 0.00384126 0)
(0.933192 0.0139333 0)
(1.09528 0.0221059 0)
(1.14499 0.0244403 0)
(1.14033 0.02246 0)
(1.12255 0.0188422 0)
(1.10675 0.0149756 0)
(1.09469 0.0111542 0)
(1.0852 0.00734704 0)
(1.07738 0.00351125 0)
(1.07073 -0.000372891 0)
(1.06495 -0.00431358 0)
(1.05982 -0.00831368 0)
(1.05516 -0.0123704 0)
(1.05082 -0.016475 0)
(1.0467 -0.0206145 0)
(1.04266 -0.0247692 0)
(1.03862 -0.0289114 0)
(1.03449 -0.0330054 0)
(1.0302 -0.0370122 0)
(1.02576 -0.0408973 0)
(1.02137 -0.044604 0)
(1.01774 -0.0480294 0)
(1.01502 -0.0509587 0)
(1.01283 -0.053431 0)
(1.0108 -0.0554376 0)
(1.00865 -0.0570121 0)
(1.00633 -0.0582649 0)
(0.224225 -0.00014943 0)
(0.623931 0.00294812 0)
(0.923978 0.0114382 0)
(1.08962 0.0188804 0)
(1.1446 0.0213218 0)
(1.14326 0.0196701 0)
(1.12663 0.0162715 0)
(1.111 0.0125117 0)
(1.09893 0.00874108 0)
(1.08947 0.00494702 0)
(1.08172 0.0010827 0)
(1.07516 -0.00287814 0)
(1.06948 -0.0069493 0)
(1.06445 -0.0111384 0)
(1.05989 -0.0154471 0)
(1.05564 -0.0198725 0)
(1.05158 -0.0244065 0)
(1.0476 -0.0290337 0)
(1.04357 -0.0337285 0)
(1.0394 -0.0384543 0)
(1.03502 -0.0431663 0)
(1.03045 -0.04782 0)
(1.02595 -0.0523362 0)
(1.02234 -0.0565746 0)
(1.01977 -0.0603066 0)
(1.01777 -0.063651 0)
(1.01582 -0.0666852 0)
(1.01353 -0.0694288 0)
(1.01084 -0.0716425 0)
(0.222985 -8.77334e-05 0)
(0.618969 0.00230809 0)
(0.917061 0.00955066 0)
(1.08507 0.0163579 0)
(1.14406 0.0188385 0)
(1.14548 0.0174477 0)
(1.12989 0.0142485 0)
(1.11448 0.0105997 0)
(1.10244 0.00688811 0)
(1.09304 0.00311474 0)
(1.08539 -0.000769471 0)
(1.07895 -0.00479594 0)
(1.0734 -0.00898336 0)
(1.0685 -0.013344 0)
(1.06408 -0.0178859 0)
(1.05997 -0.0226133 0)
(1.05604 -0.0275258 0)
(1.05216 -0.0326151 0)
(1.04822 -0.0378633 0)
(1.0441 -0.043238 0)
(1.03973 -0.048694 0)
(1.03512 -0.0541783 0)
(1.03054 -0.059568 0)
(1.02695 -0.0645893 0)
(1.02453 -0.0689078 0)
(1.0229 -0.0727206 0)
(1.02163 -0.0763864 0)
(1.0204 -0.0802947 0)
(1.01853 -0.0837986 0)
(0.222507 -8.96468e-05 0)
(0.61612 0.00180523 0)
(0.912596 0.00814688 0)
(1.08199 0.0144774 0)
(1.14372 0.0169541 0)
(1.14715 0.0157218 0)
(1.13241 0.01266 0)
(1.11722 0.00910655 0)
(1.10527 0.00545609 0)
(1.09597 0.00170715 0)
(1.08843 -0.0021929 0)
(1.08214 -0.00627843 0)
(1.07674 -0.0105718 0)
(1.07202 -0.0150902 0)
(1.06777 -0.0198484 0)
(1.06385 -0.024859 0)
(1.06011 -0.030131 0)
(1.05643 -0.0356671 0)
(1.05267 -0.0414616 0)
(1.04873 -0.047495 0)
(1.04451 -0.0537354 0)
(1.04006 -0.0601473 0)
(1.03567 -0.0666031 0)
(1.0323 -0.072657 0)
(1.0301 -0.0777058 0)
(1.02877 -0.081683 0)
(1.02797 -0.0845669 0)
(1.02764 -0.0871889 0)
(1.02913 -0.0935565 0)
(1.00002 0.000723243 0)
(1.00002 0.000720907 0)
(1.00002 0.0007125 0)
(1.00002 0.000704771 9.97037e-22)
(1.00002 0.000698947 4.97212e-21)
(1.00002 0.000694835 -8.94643e-21)
(1.00001 0.000692276 4.96832e-21)
(1.00001 0.000691139 -3.95804e-21)
(1.00001 0.000691284 5.05879e-22)
(1.00001 0.000692731 3.95608e-21)
(1.00001 0.000695309 0)
(1.00001 0.000699027 -4.42306e-21)
(1.00001 0.000703752 5.02398e-22)
(1.00001 0.000709372 3.92708e-21)
(1 0.000715879 0)
(1 0.000723099 0)
(1 0.000731022 -3.89114e-21)
(1 0.000739493 3.8936e-21)
(0.999999 0.000748361 0)
(0.999998 0.000757657 -1.93175e-21)
(0.999997 0.000767179 2.05322e-21)
(0.999996 0.000776827 1.80138e-21)
(0.999995 0.000786568 -2.88048e-21)
(0.999994 0.000796211 9.28504e-22)
(0.999994 0.000805679 2.97705e-23)
(0.999993 0.000814926 -5.95048e-23)
(0.999992 0.000823771 8.28217e-22)
(0.999992 0.000832185 -9.46672e-22)
(0.999991 0.00083999 0)
(0.999991 0.000847058 0)
(0.999991 0.000853522 -2.33799e-22)
(0.999991 0.000859266 -2.32912e-22)
(0.999991 0.000864169 -3.93765e-21)
(0.999991 0.000868232 3.24075e-21)
(0.999991 0.000871321 -4.1365e-21)
(0.999991 0.000873393 4.13141e-21)
(0.999992 0.000874449 -3.1894e-21)
(0.999992 0.000874354 3.18784e-21)
(0.999993 0.000873134 4.52631e-22)
(0.999994 0.000870698 4.50686e-22)
(0.999995 0.000867032 -4.48715e-22)
(0.999996 0.000862144 0)
(0.999997 0.000855943 0)
(0.999998 0.000848512 0)
(0.999999 0.000839766 0)
(1 0.000829874 0)
(1 0.000818891 1.74521e-21)
(1 0.000805838 -1.74248e-21)
(1 0.000785866 0)
(1.00014 0.000946927 0)
(1.00013 0.000934547 2.01171e-21)
(1.00012 0.000917733 -2.00484e-21)
(1.0001 0.000904442 -1.00022e-21)
(1.00009 0.000895995 -1.00076e-21)
(1.00007 0.000891736 -2.99187e-21)
(1.00006 0.000891444 4.99437e-21)
(1.00005 0.000895066 0)
(1.00004 0.000902108 -4.97051e-22)
(1.00002 0.000912749 -9.92842e-22)
(1.00001 0.000926489 0)
(1 0.00094329 4.94309e-22)
(0.999992 0.000962958 -4.43464e-21)
(0.999982 0.000985054 3.94484e-21)
(0.999973 0.00100963 0)
(0.999964 0.00103623 9.81212e-22)
(0.999956 0.00106474 0)
(0.999948 0.00109496 0)
(0.999942 0.0011264 0)
(0.999935 0.00115908 -1.93994e-21)
(0.99993 0.00119266 1.81958e-21)
(0.999925 0.0012268 -1.20959e-22)
(0.999921 0.00126141 0)
(0.999918 0.00129612 -4.49679e-22)
(0.999915 0.00133068 4.72272e-22)
(0.999913 0.00136496 8.9569e-23)
(0.999912 0.0013986 1.18993e-22)
(0.999912 0.00143139 0)
(0.999913 0.00146316 -1.88869e-21)
(0.999914 0.00149364 1.88827e-21)
(0.999916 0.0015226 -3.51621e-21)
(0.999918 0.00154979 7.72034e-21)
(0.999921 0.00157503 -3.50193e-21)
(0.999925 0.00159827 4.64216e-22)
(0.99993 0.0016192 4.62403e-22)
(0.999935 0.00163771 4.60751e-22)
(0.999941 0.00165367 -4.58637e-22)
(0.999948 0.00166678 4.10514e-21)
(0.999956 0.00167706 -3.1898e-21)
(0.999964 0.00168415 -1.35879e-21)
(0.999973 0.00168804 4.95502e-21)
(0.999982 0.00168857 -3.5981e-21)
(0.999992 0.00168543 -1.78818e-21)
(1 0.0016788 3.55552e-21)
(1.00001 0.00166835 -7.09204e-21)
(1.00003 0.00165381 3.53528e-21)
(1.00004 0.00163503 1.75408e-21)
(1.00005 0.00161159 -3.53744e-24)
(1.00006 0.00157743 0)
(1.00032 0.000962931 3.027e-21)
(1.00029 0.000939994 -1.01115e-21)
(1.00025 0.000918336 -4.02606e-21)
(1.00021 0.000902946 2.0074e-21)
(1.00017 0.000895191 -2.00622e-21)
(1.00013 0.000894179 0)
(1.00009 0.000899693 -1.99708e-21)
(1.00006 0.000911841 -5.97855e-21)
(1.00003 0.000929562 5.97987e-21)
(0.999993 0.000953356 9.92938e-22)
(0.999962 0.000982279 0)
(0.999933 0.00101627 -5.93514e-21)
(0.999906 0.00105517 1.10221e-23)
(0.99988 0.00109805 3.94827e-21)
(0.999856 0.00114516 0)
(0.999834 0.0011957 -9.80727e-22)
(0.999814 0.0012494 -9.8028e-22)
(0.999796 0.00130618 0)
(0.999779 0.00136502 -9.75468e-22)
(0.999765 0.00142601 -1.94089e-21)
(0.999753 0.00148871 1.9415e-21)
(0.999743 0.00155243 -2.42332e-22)
(0.999734 0.00161708 -2.41238e-22)
(0.999728 0.00168215 0)
(0.999724 0.00174712 3.73795e-23)
(0.999722 0.0018118 -2.09089e-22)
(0.999723 0.00187571 0)
(0.999725 0.0019384 0)
(0.999729 0.00199962 -1.8886e-21)
(0.999735 0.00205895 1.88825e-21)
(0.999743 0.002116 -3.75051e-21)
(0.999753 0.00217047 3.74928e-21)
(0.999765 0.00222197 0)
(0.999778 0.00227025 0)
(0.999794 0.00231485 0)
(0.999811 0.00235571 -9.21226e-22)
(0.99983 0.00239222 -1.8356e-21)
(0.999851 0.00242397 0)
(0.999873 0.00245135 -9.09934e-22)
(0.999897 0.00247372 -9.00135e-22)
(0.999923 0.00249035 2.71269e-21)
(0.999951 0.00250098 0)
(0.99998 0.00250582 3.57264e-21)
(1.00001 0.00250479 -5.3466e-21)
(1.00004 0.00249704 0)
(1.00008 0.00248275 0)
(1.00011 0.00246139 0)
(1.00015 0.0024321 -1.74947e-21)
(1.00019 0.00238988 -1.73892e-21)
(1.00053 0.000881377 -2.02243e-21)
(1.00046 0.000852306 4.04571e-21)
(1.00039 0.000831163 4.03831e-21)
(1.00031 0.000818892 6.03729e-21)
(1.00023 0.000817178 -2.01663e-21)
(1.00016 0.00082493 -4.00681e-21)
(1.00009 0.000841937 8.01143e-21)
(1.00002 0.000868531 -4.22546e-24)
(0.999952 0.000902907 -1.99341e-21)
(0.99989 0.000946035 1.99453e-21)
(0.999831 0.00099639 0)
(0.999775 0.00105392 1.98154e-21)
(0.999723 0.00111856 -1.97045e-21)
(0.999674 0.00118873 7.90118e-21)
(0.99963 0.00126499 -7.88297e-21)
(0.999588 0.00134612 5.90758e-21)
(0.999551 0.00143168 -9.85293e-22)
(0.999518 0.00152179 9.79952e-22)
(0.999488 0.00161473 9.74795e-22)
(0.999463 0.00171074 -9.74915e-22)
(0.999441 0.00180932 0)
(0.999423 0.00190929 -1.4494e-21)
(0.99941 0.00201065 1.21068e-21)
(0.9994 0.00211272 9.63715e-22)
(0.999395 0.00221466 4.49349e-23)
(0.999393 0.00231625 8.94787e-23)
(0.999396 0.00241689 1.42851e-21)
(0.999402 0.00251583 -9.51323e-22)
(0.999413 0.00261277 1.88967e-21)
(0.999427 0.00270714 -1.88938e-21)
(0.999445 0.00279835 0)
(0.999467 0.002886 4.67475e-21)
(0.999492 0.00296953 -3.73659e-21)
(0.999521 0.00304855 3.70864e-21)
(0.999554 0.00312244 -3.70732e-21)
(0.99959 0.00319096 0)
(0.99963 0.00325354 3.66253e-21)
(0.999673 0.00330963 -1.83365e-21)
(0.999719 0.00335919 0)
(0.999769 0.00340145 3.6173e-21)
(0.999822 0.00343618 -3.61398e-21)
(0.999879 0.00346284 1.7952e-21)
(0.999939 0.00348105 1.78853e-21)
(1 0.00349091 5.33715e-21)
(1.00007 0.00349118 3.86587e-24)
(1.00014 0.00348236 3.53281e-21)
(1.00021 0.00346345 1.75227e-21)
(1.00029 0.00343335 1.74084e-21)
(1.00037 0.00338857 1.74067e-21)
(1.00074 0.000611176 0)
(1.00063 0.000582324 -4.0515e-21)
(1.00051 0.000568675 -4.04171e-21)
(1.00038 0.000566572 0)
(1.00026 0.000578045 -4.02865e-21)
(1.00014 0.000601858 1.02383e-23)
(1.00002 0.000637864 8.05367e-21)
(0.999905 0.000686696 -2.01609e-21)
(0.999798 0.000745653 -1.04113e-23)
(0.999695 0.000816314 -5.99628e-21)
(0.999599 0.000896433 0)
(0.999508 0.000986007 -5.96987e-21)
(0.999423 0.00108508 1.99424e-21)
(0.999344 0.00119128 0)
(0.999271 0.00130563 -1.98112e-21)
(0.999205 0.00142631 7.68946e-24)
(0.999145 0.00155278 -1.96487e-21)
(0.999091 0.0016854 6.86839e-21)
(0.999044 0.00182159 -1.18276e-23)
(0.999003 0.00196184 -9.86333e-22)
(0.998969 0.00210555 -9.73965e-22)
(0.998942 0.00225101 1.93711e-21)
(0.998921 0.00239831 -1.93743e-21)
(0.998907 0.00254662 -2.39778e-22)
(0.9989 0.00269469 4.96272e-22)
(0.998899 0.00284231 -2.68199e-22)
(0.998905 0.00298876 9.54255e-22)
(0.998917 0.00313291 -9.52744e-22)
(0.998936 0.00327447 9.48984e-22)
(0.998962 0.00341269 1.88495e-21)
(0.998993 0.00354675 -5.6396e-21)
(0.999031 0.00367615 -9.22446e-22)
(0.999076 0.00380018 5.60771e-21)
(0.999126 0.00391827 1.86011e-21)
(0.999182 0.00402968 -3.69547e-21)
(0.999244 0.00413405 3.6933e-21)
(0.999312 0.00423067 7.0759e-24)
(0.999386 0.00431884 5.48318e-21)
(0.999465 0.00439847 -3.65245e-21)
(0.99955 0.0044684 -9.06366e-21)
(0.999641 0.00452874 3.60552e-21)
(0.999737 0.00457874 1.79307e-21)
(0.999838 0.00461757 7.13901e-21)
(0.999945 0.00464564 -3.56632e-21)
(1.00006 0.00466123 -8.73846e-24)
(1.00017 0.00466512 -9.80717e-24)
(1.0003 0.0046558 0)
(1.00043 0.00463215 -3.49386e-21)
(1.00058 0.00459283 -3.46846e-21)
(1.00093 5.07079e-05 0)
(1.00077 1.61266e-05 -6.12095e-21)
(1.0006 1.48797e-05 6.11052e-21)
(1.00041 3.01309e-05 0)
(1.00023 6.33337e-05 0)
(1.00004 0.000112219 -4.04093e-21)
(0.999867 0.000176559 -2.37592e-24)
(0.999698 0.000257077 -4.03835e-21)
(0.999536 0.000350036 -5.86193e-24)
(0.999383 0.000457932 0)
(0.999238 0.000577721 0)
(0.999101 0.00070954 1.99486e-21)
(0.998974 0.000853565 0)
(0.998856 0.00100648 0)
(0.998747 0.00116987 -1.98374e-21)
(0.998648 0.00134125 3.97564e-21)
(0.998558 0.00151993 1.98065e-21)
(0.998478 0.00170659 0)
(0.998408 0.0018976 1.95277e-21)
(0.998348 0.0020938 -4.90499e-21)
(0.998298 0.00229446 -1.95296e-21)
(0.998258 0.00249723 -1.94326e-21)
(0.998228 0.00270238 1.94349e-21)
(0.998208 0.00290881 1.00469e-24)
(0.998198 0.00311489 1.50891e-23)
(0.998198 0.00332041 2.39593e-22)
(0.998208 0.00352445 -4.79223e-22)
(0.998228 0.00372554 0)
(0.998258 0.00392334 -9.48135e-22)
(0.998298 0.00411694 0)
(0.998347 0.00430521 0)
(0.998406 0.0044876 -1.87875e-21)
(0.998475 0.00466322 -7.46702e-21)
(0.998552 0.00483131 1.81726e-23)
(0.998639 0.00499096 1.8583e-21)
(0.998735 0.00514175 0)
(0.998839 0.00528276 -1.83492e-21)
(0.998953 0.00541312 -3.65699e-21)
(0.999074 0.00553279 3.63715e-21)
(0.999205 0.00564025 7.2434e-21)
(0.999343 0.00573574 -7.20835e-21)
(0.99949 0.00581827 -2.32313e-24)
(0.999644 0.00588683 -3.57217e-21)
(0.999807 0.00594206 -4.76322e-24)
(0.999977 0.00598172 0)
(1.00016 0.00600691 -3.521e-21)
(1.00035 0.00601553 -1.74669e-21)
(1.00055 0.00600658 1.74544e-21)
(1.00077 0.00598186 3.47144e-21)
(1.00109 -0.000973147 0)
(1.00087 -0.000927669 4.09163e-21)
(1.00062 -0.000894524 -1.22845e-20)
(1.00036 -0.000892009 0)
(1.0001 -0.000834721 0)
(0.999845 -0.000751319 -8.14876e-21)
(0.999602 -0.000649363 8.12245e-21)
(0.999364 -0.000527451 -4.06746e-21)
(0.999135 -0.000389636 -5.93163e-24)
(0.998917 -0.000232607 4.04335e-21)
(0.998711 -6.07633e-05 0)
(0.998518 0.000126 0)
(0.998337 0.000327869 4.0247e-21)
(0.998169 0.000540438 0)
(0.998014 0.000766067 0)
(0.997873 0.00100148 -3.98234e-21)
(0.997745 0.00124594 1.20123e-23)
(0.997631 0.00150045 0)
(0.997532 0.00176021 1.96845e-21)
(0.997446 0.00202653 4.91955e-21)
(0.997375 0.00229841 -1.96995e-21)
(0.997318 0.00257283 0)
(0.997276 0.00285024 -9.72332e-22)
(0.997248 0.00312922 1.21467e-21)
(0.997234 0.00340771 -5.29801e-22)
(0.997236 0.0036855 -2.41463e-22)
(0.997251 0.00396142 4.76868e-22)
(0.99728 0.00423363 -9.57753e-22)
(0.997324 0.00450175 0)
(0.997382 0.00476457 -3.79215e-21)
(0.997454 0.00502077 5.65975e-21)
(0.997539 0.00526965 1.86159e-21)
(0.997638 0.00551007 -7.43242e-24)
(0.99775 0.00574115 1.85662e-21)
(0.997875 0.00596169 -1.86412e-21)
(0.998013 0.00617126 -3.68319e-21)
(0.998164 0.00636873 7.34654e-21)
(0.998327 0.00655296 -3.65798e-21)
(0.998502 0.00672401 7.28391e-21)
(0.998689 0.00687995 1.22407e-25)
(0.998888 0.00702119 7.20426e-21)
(0.999097 0.00714652 -3.58469e-21)
(0.999318 0.00725467 0)
(0.99955 0.0073466 -5.66779e-24)
(0.999794 0.00741944 7.05301e-21)
(1.00005 0.0074747 0)
(1.00032 0.00750962 0)
(1.00061 0.00752343 6.07183e-21)
(1.00092 0.00752236 8.6621e-22)
(1.00122 -0.00255874 1.03154e-21)
(1.00093 -0.00251864 7.24631e-21)
(1.00058 -0.00244548 8.20914e-21)
(1.00023 -0.00236213 -8.2571e-21)
(0.99987 -0.00224236 0)
(0.99952 -0.00208576 -8.28035e-24)
(0.999182 -0.00193758 -4.12181e-21)
(0.998856 -0.00178834 -4.10896e-21)
(0.998544 -0.00160064 1.2251e-20)
(0.998247 -0.00138349 -4.07301e-21)
(0.997967 -0.0011466 0)
(0.997705 -0.000891178 8.11244e-21)
(0.997461 -0.00061765 -8.07045e-21)
(0.997232 -0.00033099 2.18219e-23)
(0.99702 -2.78384e-05 8.03755e-21)
(0.996825 0.000287498 -2.01644e-21)
(0.99665 0.000614192 -1.96999e-21)
(0.996493 0.000953299 3.9898e-21)
(0.996355 0.00129877 0)
(0.996238 0.0016524 -1.97309e-21)
(0.996139 0.0020128 1.97278e-21)
(0.996061 0.00237625 1.96177e-21)
(0.996002 0.00274345 -1.9618e-21)
(0.995964 0.00311248 2.44618e-22)
(0.995945 0.00348093 3.02806e-23)
(0.995947 0.00384852 7.24109e-22)
(0.995968 0.0042137 -2.12402e-24)
(0.996009 0.00457435 0)
(0.99607 0.00492995 0)
(0.99615 0.00527893 5.42447e-25)
(0.996249 0.00561976 -1.88048e-21)
(0.996367 0.00595152 3.77719e-21)
(0.996504 0.00627281 -3.75142e-21)
(0.996659 0.00658258 3.72324e-21)
(0.996833 0.00687924 -7.44225e-21)
(0.997023 0.00716242 1.24127e-23)
(0.997232 0.00743069 3.68477e-21)
(0.997456 0.00768254 3.64948e-21)
(0.997698 0.00791826 -7.29311e-21)
(0.997955 0.00813537 -7.24827e-21)
(0.998227 0.00833451 -3.60861e-21)
(0.998515 0.00851421 -3.58866e-21)
(0.998817 0.00867287 0)
(0.999135 0.0088119 -3.54376e-21)
(0.999467 0.00892768 -1.67632e-23)
(0.999815 0.0090222 6.99484e-21)
(1.00018 0.00909194 -8.69168e-21)
(1.00057 0.0091365 1.70992e-21)
(1.001 0.0091681 0)
(1.00128 -0.00488287 0)
(1.0009 -0.00481596 -8.28266e-21)
(1.00045 -0.00469833 0)
(0.999989 -0.00455992 8.25851e-21)
(0.999519 -0.00439217 4.13291e-21)
(0.999052 -0.0041943 -8.26181e-21)
(0.998595 -0.00397316 1.23521e-20)
(0.998158 -0.0037279 4.10096e-21)
(0.997741 -0.00345806 -4.09596e-21)
(0.997345 -0.00315787 0)
(0.996971 -0.00282919 4.08902e-21)
(0.996618 -0.00247807 -8.16065e-21)
(0.996287 -0.00212071 4.0925e-21)
(0.99598 -0.00175367 -4.04825e-21)
(0.995696 -0.00135884 2.45879e-23)
(0.995436 -0.000945488 4.04609e-21)
(0.995201 -0.000517514 -8.05911e-21)
(0.994991 -7.3673e-05 0)
(0.994806 0.000378202 3.99375e-21)
(0.994647 0.000840346 -3.99394e-21)
(0.994514 0.00131072 -9.89383e-22)
(0.994407 0.00178497 0)
(0.994328 0.00226392 9.89033e-22)
(0.994275 0.00274508 2.45057e-22)
(0.994248 0.00322572 -5.20173e-22)
(0.99425 0.00370543 7.29316e-22)
(0.994277 0.00418213 4.80961e-22)
(0.994332 0.00465347 -9.66056e-22)
(0.994413 0.00511868 0)
(0.99452 0.00557565 -1.9049e-21)
(0.994654 0.00602273 3.80855e-21)
(0.994813 0.0064586 0)
(0.994997 0.00688149 1.87747e-21)
(0.995206 0.00729021 0)
(0.995438 0.00768257 3.71708e-21)
(0.995695 0.0080583 -7.40203e-21)
(0.995974 0.00841563 3.67012e-21)
(0.996276 0.00875253 -1.93529e-23)
(0.996599 0.00906957 3.61795e-21)
(0.996943 0.00936359 -3.62871e-21)
(0.997307 0.00963552 3.59846e-21)
(0.997691 0.00988359 7.14774e-21)
(0.998093 0.0101058 0)
(0.998515 0.0103041 0)
(0.998955 0.0104741 -7.03978e-21)
(0.999417 0.0106182 -1.39706e-20)
(0.999903 0.0107321 1.3887e-20)
(1.00042 0.0108159 -7.78166e-21)
(1.00098 0.0108898 7.70603e-21)
(1.00127 -0.00815744 0)
(1.00077 -0.008045 8.41221e-21)
(1.0002 -0.00787055 8.394e-21)
(0.999601 -0.00767066 1.25678e-20)
(0.998993 -0.0074351 -1.25553e-20)
(0.998391 -0.00716783 -4.1612e-21)
(0.997802 -0.00686689 1.25279e-20)
(0.997232 -0.00652963 -4.14653e-21)
(0.996686 -0.00616558 4.15074e-21)
(0.996165 -0.00576752 0)
(0.99567 -0.00534354 8.29958e-21)
(0.995202 -0.00489146 0)
(0.994761 -0.00441351 -4.08968e-21)
(0.994353 -0.00391801 -4.12082e-21)
(0.993976 -0.00339707 3.92675e-23)
(0.993631 -0.00285759 0)
(0.993319 -0.00230075 4.07386e-21)
(0.993039 -0.00172514 8.12618e-21)
(0.992792 -0.00113998 0)
(0.99258 -0.000541898 2.00644e-21)
(0.992402 6.6464e-05 -2.00594e-21)
(0.992258 0.000680332 -1.98975e-21)
(0.99215 0.00130051 1.99762e-21)
(0.992076 0.00192346 -3.18584e-24)
(0.992039 0.00254632 -4.92979e-22)
(0.992038 0.0031684 -2.1632e-22)
(0.992072 0.00378688 -4.8828e-22)
(0.992142 0.00439932 9.72666e-22)
(0.992248 0.00500442 0)
(0.992388 0.00559925 1.91354e-21)
(0.992564 0.00618212 -3.81621e-21)
(0.992773 0.00675111 0)
(0.993016 0.00730394 0)
(0.993292 0.00783919 3.74056e-21)
(0.9936 0.00835383 -7.46091e-21)
(0.993938 0.00884776 3.72462e-21)
(0.994307 0.00931871 3.6954e-21)
(0.994705 0.00976395 0)
(0.995131 0.0101844 1.09103e-20)
(0.995583 0.0105761 -7.23681e-21)
(0.996061 0.0109402 -3.58204e-21)
(0.996564 0.0112746 -8.96742e-24)
(0.99709 0.011577 -7.09441e-21)
(0.99764 0.0118498 -7.04103e-21)
(0.998214 0.0120876 -6.99882e-21)
(0.998814 0.0122937 2.77017e-23)
(0.999446 0.0124626 -3.23252e-23)
(1.00012 0.0125952 0)
(1.00084 0.012722 -1.366e-20)
(1.00121 -0.0125841 0)
(1.00056 -0.0124151 2.18761e-21)
(0.999833 -0.0121728 -1.04971e-20)
(0.999065 -0.0118989 -8.38888e-21)
(0.998285 -0.0115805 8.37516e-21)
(0.997509 -0.011223 4.25057e-21)
(0.99675 -0.0108246 -4.15371e-21)
(0.996014 -0.0103824 0)
(0.995305 -0.00990704 0)
(0.994627 -0.00938943 8.39524e-21)
(0.993982 -0.00883992 -8.28979e-21)
(0.993371 -0.00825603 4.15242e-21)
(0.992796 -0.00763789 -4.15113e-21)
(0.992259 -0.00699452 4.14527e-21)
(0.991762 -0.00631987 4.14436e-21)
(0.991305 -0.00562225 -4.11824e-21)
(0.99089 -0.00490223 -4.07958e-21)
(0.990517 -0.00415898 -4.06444e-21)
(0.990187 -0.0034021 4.06274e-21)
(0.989903 -0.00262787 -4.06384e-21)
(0.989663 -0.00184061 0)
(0.989469 -0.00104548 2.02198e-21)
(0.989322 -0.000241529 -1.9962e-21)
(0.989221 0.000566314 1.49513e-21)
(0.989167 0.00137515 0)
(0.989161 0.00218388 9.86821e-22)
(0.989202 0.00298833 0)
(0.98929 0.00378551 -9.72461e-22)