/*--------------------------------*- C++ -*----------------------------------*\
| =========                 |                                                 |
| \\      /  F ield         | OpenFOAM: The Open Source CFD Toolbox           |
|  \\    /   O peration     | Version:  2312                                  |
|   \\  /    A nd           | Website:  www.openfoam.com                      |
|    \\/     M anipulation  |                                                 |
\*---------------------------------------------------------------------------*/
FoamFile
{
    version     2.0;
    format      ascii;
    arch        "LSB;label=32;scalar=64";
    class       surfaceScalarField;
    location    "65.649063786863294";
    object      phi;
}
// * * * * * * * * * * * * * * * * * * * * * * * * * * * * * * * * * * * * * //

dimensions      [0 3 -1 0 0 0 0];

oriented        oriented;

internalField   nonuniform List<scalar> 
41713
(
0.00736327
0.0568832
0.00362755
0.0679822
0.00211551
0.0657585
0.00148245
0.0648795
0.00109607
0.0646328
0.000841258
0.0645013
0.000665417
0.0644223
0.000537629
0.0643742
0.000441282
0.0643428
0.000366721
0.064321
0.000307821
0.0643053
0.000260527
0.0642937
0.000222073
0.0642849
0.000190521
0.064278
0.000164479
0.0642725
0.000142928
0.064268
0.000125108
0.0642643
0.000110439
0.0642611
9.84682e-05
0.0642584
8.88213e-05
0.0642561
8.11472e-05
0.0642541
7.50937e-05
0.0642525
7.03867e-05
0.0642511
6.69202e-05
0.0548146
6.40167e-05
0.0456789
6.14152e-05
0.0380659
5.90842e-05
0.0317218
5.70209e-05
0.0264349
0.0220292
5.51784e-05
0.00999405
0.0468891
0.00842649
0.0695497
0.00571334
0.0684716
0.00411853
0.0664743
0.00311653
0.0656348
0.00242367
0.0651941
0.0019242
0.0649217
0.00155267
0.0647458
0.00126878
0.0646267
0.00104674
0.064543
0.000869604
0.0644825
0.000725991
0.0644373
0.000608058
0.0644028
0.000510269
0.0643758
0.00042864
0.0643541
0.000360257
0.0643364
0.000302959
0.0643216
0.000255117
0.0643089
0.000215481
0.064298
0.000183077
0.0642885
0.000157111
0.0642801
0.000136897
0.0642727
0.000121741
0.0642663
0.000111937
0.0548244
0.000105404
0.0456854
0.000100715
0.0380706
9.70231e-05
0.0317254
9.38925e-05
0.0264381
0.0220318
9.12697e-05
0.00859588
0.0382932
0.00970674
0.0684389
0.00746722
0.0707111
0.00569655
0.068245
0.00450639
0.066825
0.00361908
0.0660814
0.0029344
0.0656064
0.00240077
0.0652794
0.0019795
0.0650479
0.00164204
0.0648805
0.00136795
0.0647566
0.0011426
0.0646627
0.000955434
0.06459
0.000798771
0.0645324
0.000666945
0.0644859
0.00055575
0.0644476
0.000462029
0.0644153
0.000383397
0.0643876
0.000318029
0.0643634
0.00026451
0.064342
0.000221726
0.0643229
0.000188758
0.0643057
0.000164682
0.0642904
0.000149958
0.0548392
0.000140938
0.0456944
0.000135042
0.0380765
0.000130734
0.0317298
0.000127233
0.0264416
0.0220347
0.000124365
0.00677464
0.0315186
0.0094741
0.0657394
0.00811824
0.072067
0.00643671
0.0699265
0.00524392
0.0680178
0.00433655
0.0669888
0.00360301
0.06634
0.00300395
0.0658784
0.00251221
0.0655397
0.00210576
0.065287
0.00176731
0.065095
0.00148349
0.0649465
0.00124399
0.0648295
0.00104092
0.0647355
0.000868253
0.0646586
0.000721382
0.0645944
0.000596779
0.0645399
0.000491739
0.0644926
0.000404182
0.064451
0.000332497
0.0644137
0.000275421
0.0643799
0.000231922
0.0643492
0.000200881
0.0643214
0.000182696
0.0548574
0.000172251
0.0457049
0.000165937
0.0380828
0.000161652
0.031734
0.000158386
0.0264448
0.0220372
0.000155881
0.00506483
0.0264538
0.00856974
0.0622345
0.00818099
0.0724558
0.00673578
0.0713717
0.00557894
0.0691746
0.00470139
0.0678663
0.00398153
0.0670598
0.00337548
0.0664845
0.00286229
0.0660529
0.00242601
0.0657232
0.00205369
0.0654673
0.00173482
0.0652654
0.00146091
0.0651034
0.00122521
0.0649712
0.00102235
0.0648615
0.000848088
0.0647687
0.000699113
0.0646889
0.000572843
0.0646189
0.000467275
0.0645565
0.000380854
0.0645001
0.000312367
0.0644484
0.0002608
0.0644007
0.000224949
0.0643573
0.000204999
0.0548773
0.000194492
0.0457154
0.000188905
0.0380884
0.000185654
0.0317373
0.000183523
0.0264469
0.0220386
0.000182166
0.00361822
0.0228355
0.00731268
0.05854
0.0077854
0.071983
0.006726
0.0724311
0.00566422
0.0702364
0.00483784
0.0686927
0.00415574
0.0677419
0.00356947
0.0670708
0.00306111
0.0665612
0.00261909
0.0661652
0.00223391
0.0658525
0.00189769
0.0656016
0.00160399
0.0653971
0.00134753
0.0652277
0.00112404
0.065085
0.00093007
0.0649627
0.000762888
0.064856
0.00062035
0.0647614
0.000500796
0.0646761
0.00040295
0.064598
0.000325828
0.0645255
0.000268595
0.064458
0.00023011
0.0643958
0.000210189
0.0548972
0.000201123
0.0457245
0.000197562
0.038092
0.00019649
0.0317384
0.000196504
0.0264469
0.0220379
0.000197173
0.00252297
0.0203126
0.00602209
0.0550409
0.00710425
0.0709009
0.00647588
0.0730595
0.00556428
0.071148
0.00480902
0.069448
0.00417962
0.0683713
0.00362875
0.0676216
0.00314041
0.0670496
0.00270693
0.0665987
0.00232201
0.0662374
0.00198022
0.0659434
0.001677
0.0657003
0.00140856
0.0654961
0.00117181
0.0653217
0.00096423
0.0651703
0.000783834
0.0650364
0.000629093
0.0649162
0.000498859
0.0648063
0.000392302
0.0647045
0.000308824
0.064609
0.000247914
0.0645189
0.000208635
0.064435
0.000190298
0.0549156
0.000184025
0.0457307
0.000183709
0.0380923
0.00018594
0.0317361
0.000189136
0.0264437
0.0220343
0.000192774
0.00175897
0.0185536
0.00489334
0.0519065
0.00633132
0.0694629
0.00608726
0.0733036
0.00534453
0.0718907
0.00466583
0.0701267
0.00409264
0.0689445
0.00358426
0.06813
0.00312443
0.0675094
0.002708
0.0670151
0.00233144
0.066614
0.00199154
0.0662833
0.00168552
0.0660063
0.001411
0.0657706
0.00116603
0.0655667
0.000949058
0.0653872
0.000758908
0.0652266
0.000594743
0.0650803
0.000456033
0.064945
0.000342506
0.064818
0.000254075
0.0646975
0.000190672
0.0645823
0.000151704
0.064474
0.000135964
0.0549313
0.000133463
0.0457332
0.000137389
0.0380884
0.000143956
0.0317296
0.00015137
0.0264363
0.0220267
0.000158951
0.00124848
0.0173051
0.00397445
0.0491805
0.00558024
0.0678571
0.00564331
0.0732405
0.005065
0.072469
0.00445779
0.0707339
0.00393378
0.0694685
0.00346555
0.0685982
0.00303559
0.0679394
0.00263931
0.0674114
0.00227488
0.0669784
0.00194078
0.0666174
0.00163567
0.0663115
0.00135839
0.0660479
0.00110805
0.065817
0.000884016
0.0656113
0.000685902
0.0654247
0.000513603
0.0652526
0.000367259
0.0650914
0.000247234
0.0649381
0.000154059
0.0647906
8.82158e-05
0.0646481
4.96404e-05
0.0645126
3.66885e-05
0.0549443
3.83275e-05
0.0457316
4.70076e-05
0.0380797
5.85626e-05
0.031718
7.09744e-05
0.0264239
0.0220142
8.34151e-05
0.000914439
0.0163907
0.00324626
0.0468487
0.00489387
0.0662095
0.0051872
0.0729472
0.00476019
0.072896
0.00421842
0.0712756
0.00373387
0.0699531
0.00329847
0.0690336
0.0028946
0.0683432
0.00251706
0.067789
0.00216474
0.0673308
0.00183715
0.066945
0.00153392
0.0666147
0.00125486
0.066327
0.000999928
0.0660719
0.000769277
0.0658419
0.000563278
0.0656307
0.000382528
0.0654334
0.000227864
0.065246
0.000100342
0.0650656
1.17876e-06
0.0648898
-6.83915e-05
0.0647177
-0.000108042
0.0645522
-0.000119328
0.0549555
-0.000114195
0.0457265
-0.000100979
0.0380665
-8.45642e-05
0.0317016
-6.73454e-05
0.0264067
0.0219972
-5.0266e-05
0.00069706
0.0156936
0.00267536
0.0448704
0.00428445
0.0646004
0.0047395
0.0724921
0.00444586
0.0731897
0.00396456
0.0717569
0.00351139
0.0704062
0.00310084
0.0694442
0.00271734
0.0687267
0.00235475
0.0681516
0.00201204
0.0676735
0.00168927
0.0672678
0.00138672
0.0669172
0.00110481
0.0666089
0.00084417
0.0663326
0.000605593
0.0660805
0.000390095
0.0658462
0.000198945
0.0656245
3.35937e-05
0.0654114
-0.000104265
0.0652034
-0.000212681
0.0649982
-0.000289648
0.0647947
-0.000333759
0.0645963
-0.000345932
0.0549677
-0.0003391
0.0457196
-0.000322377
0.0380497
-0.000301078
0.0316803
-0.000278144
0.0263838
0.0219743
-0.000255242
0.000552748
0.0151409
0.00222768
0.0431955
0.00375141
0.0630767
0.00431153
0.071932
0.00413063
0.0733706
0.0037048
0.0721828
0.00327677
0.0708343
0.00288389
0.0698371
0.00251473
0.0690959
0.00216242
0.0685039
0.00182562
0.0680103
0.00150459
0.0675888
0.00119997
0.0672219
0.000912622
0.0668962
0.000643616
0.0666016
0.000394258
0.0663298
0.000166088
0.0660744
-3.91509e-05
0.0658298
-0.000219423
0.0655917
-0.000372287
0.0653563
-0.000494944
0.0651209
-0.000584519
0.0648842
-0.000638774
0.0646506
-0.000656769
0.0549857
-0.000651984
0.0457148
-0.000634374
0.0380321
-0.000610064
0.031656
-0.00058265
0.0263563
0.021946
-0.000554342
0.000452267
0.0146886
0.00187307
0.0417747
0.00328783
0.0616619
0.00390918
0.0713106
0.00382027
0.0734595
0.00344449
0.0725586
0.00303672
0.071242
0.00265531
0.0702185
0.00229471
0.0694565
0.00194777
0.0688508
0.00161263
0.0683454
0.0012895
0.0679119
0.00097916
0.0675322
0.000682708
0.0671927
0.000401523
0.0668828
0.000137223
0.0665941
-0.000108345
0.0663199
-0.000332985
0.0660544
-0.000534012
0.0657927
-0.000708282
0.0655306
-0.000852311
0.0652649
-0.000962467
0.0649944
-0.00103569
0.0647238
-0.0010677
0.0550177
-0.00107199
0.0457191
-0.00105909
0.0380192
-0.00103582
0.0316327
-0.00100669
0.0263272
0.0219142
-0.000974896
0.000377952
0.0143107
0.00158784
0.0405648
0.00288457
0.0603652
0.00353454
0.0706607
0.00351852
0.0734755
0.00318726
0.0728898
0.00279606
0.0716332
0.00242106
0.0705935
0.00206378
0.0698138
0.00171743
0.0691972
0.00137957
0.0686833
0.00105014
0.0682414
0.000729889
0.0678524
0.000419977
0.0675026
0.000121849
0.0671809
-0.000162788
0.0668788
-0.0004318
0.0665889
-0.0006825
0.0663051
-0.000911669
0.0660219
-0.00111562
0.0657345
-0.00129028
0.0654396
-0.00143152
0.0651356
-0.00153593
0.0648282
-0.00159428
0.0550761
-0.0016192
0.045744
-0.00162094
0.038021
-0.00160658
0.0316184
-0.00158156
0.0263022
0.021883
-0.00155041
0.000319761
0.0139909
0.00135635
0.0395282
0.00253573
0.0591858
0.00318991
0.0700065
0.00322847
0.073437
0.00293542
0.0731829
0.00255776
0.0720109
0.00218527
0.070966
0.00182685
0.0701722
0.00147675
0.0695473
0.001132
0.069028
0.000792126
0.0685812
0.000457669
0.0681869
0.000129622
0.0678306
-0.00019073
0.0675013
-0.000501629
0.0671897
-0.000800665
0.066888
-0.00108482
0.0665893
-0.00135048
0.0662875
-0.00159345
0.0659775
-0.0018092
0.0656553
-0.00199352
0.0653199
-0.00214382
0.0649785
-0.00224526
0.0551775
-0.00230916
0.0458079
-0.00234393
0.0380557
-0.00235471
0.0316291
-0.00234621
0.0262937
0.0218609
-0.00232412
0.000234126
0.0137568
0.000994571
0.0387678
0.00190144
0.058279
0.00244434
0.0694636
0.00250831
0.073373
0.00228655
0.0734046
0.00197697
0.0723205
0.00166298
0.07128
0.0013576
0.0704776
0.00105699
0.0698479
0.00075827
0.0693267
0.000460611
0.0688789
0.000164151
0.0684834
-0.000130655
0.0681254
-0.000422941
0.0677935
-0.000711267
0.067478
-0.000993636
0.0671703
-0.00126742
0.0668631
-0.00152931
0.0665494
-0.00177527
0.0662235
-0.00200084
0.0658809
-0.002202
0.0655211
-0.00237719
0.0651537
-0.00250944
0.0553097
-0.00260967
0.0459082
-0.00268452
0.0381306
-0.00273501
0.0316796
-0.00276088
0.0263196
0.0218657
-0.00276565
0.000174867
0.0135819
0.000740423
0.0382022
0.00143844
0.0575809
0.00188074
0.0690213
0.00195121
0.0733025
0.00178168
0.0735742
0.0015289
0.0725733
0.00126655
0.0715423
0.001009
0.0707351
0.000753731
0.0701031
0.000498017
0.0695824
0.000240792
0.0691361
-1.82251e-05
0.0687424
-0.000278966
0.0683862
-0.000540987
0.0680556
-0.000803366
0.0677404
-0.0010647
0.0674317
-0.00132298
0.0671213
-0.00157544
0.0668019
-0.0018185
0.0664665
-0.00204778
0.0661102
-0.00225886
0.0657322
-0.00244933
0.0653442
-0.00259945
0.0554599
-0.00272247
0.0460312
-0.00282956
0.0382377
-0.00292521
0.0317753
-0.00300693
0.0264013
0.0219197
-0.00306096
0.000134763
0.0134471
0.000564183
0.0377728
0.00110781
0.0570373
0.00146728
0.0686618
0.00153551
0.0732343
0.00140408
0.0737056
0.00119726
0.0727801
0.000978457
0.0717611
0.000761809
0.0709518
0.00054572
0.0703192
0.00032771
0.0698004
0.000106603
0.0693572
-0.000118174
0.0689672
-0.000346853
0.0686148
-0.000579347
0.0682881
-0.000815282
0.0679763
-0.00105387
0.0676703
-0.00129381
0.0673613
-0.00153308
0.0670411
-0.00176884
0.0667023
-0.0019972
0.0663385
-0.0022135
0.0659485
-0.00241304
0.0655437
-0.00256938
0.0556162
-0.00269366
0.0461555
-0.00280243
0.0383464
-0.00291
0.0318829
-0.00303451
0.0265258
0.0220715
-0.00318632
0.000103199
0.0133439
0.000437336
0.0374387
0.000869363
0.0566053
0.00116364
0.0683675
0.00122446
0.0731735
0.00111889
0.0738112
0.000947984
0.072951
0.000765557
0.0719436
0.000583967
0.0711334
0.000401782
0.0705014
0.000216737
0.0699855
2.76673e-05
0.0695463
-0.000166079
0.0691609
-0.000364946
0.0688137
-0.000569199
0.0684923
-0.000778906
0.068186
-0.000993853
0.0678852
-0.00121341
0.0675808
-0.00143641
0.0672641
-0.00166096
0.0669268
-0.0018844
0.066562
-0.00210322
0.0661673
-0.00231243
0.065753
-0.00247834
0.0557821
-0.00260049
0.0462776
-0.00268528
0.0384312
-0.00274242
0.03194
-0.00278992
0.0265733
-0.00296502
0.0222466
9.95566e-05
0.021983
0.000141425
0.0219855
0.000174355
0.0219944
0.000204949
0.0219968
0.00022973
0.0220026
0.000249986
0.0220071
0.000267217
0.0220101
0.000278135
0.0220164
0.000287053
0.0220184
0.000290953
0.0220235
0.00029179
0.0220265
0.000290105
0.022029
0.000283978
0.0220335
0.000276252
0.0220351
0.000265278
0.0220383
0.000251999
0.0220406
0.000237387
0.022042
0.000219796
0.0220449
0.000201141
0.022046
0.000181246
0.0220472
0.000159786
0.0220488
0.000137708
0.0220494
0.00011496
0.0220501
9.16994e-05
0.0220506
6.8327e-05
0.0220507
4.50096e-05
0.0220507
2.21316e-05
0.0220502
-3.0855e-07
0.0220498
-2.19901e-05
0.022049
-4.22725e-05
0.0220476
-6.16513e-05
0.0220467
-7.92966e-05
0.022045
-9.49043e-05
0.022043
-0.000109239
0.0220417
-0.000120263
0.0220384
-0.0001293
0.0220364
-0.000136043
0.0220341
-0.000138597
0.0220299
-0.000139354
0.0220281
-0.000135424
0.0220234
-0.000128319
0.0220203
-0.000118075
0.0220171
-0.000102013
0.0220113
-8.37729e-05
0.0220091
-5.87963e-05
0.0220024
-3.03575e-05
0.0219989
2.90825e-06
0.0219941
4.25484e-05
0.0219877
0.0219852
8.47088e-05
0.000135037
0.0219392
0.000176524
0.021944
0.000209307
0.0219616
0.000239999
0.0219661
0.000265132
0.0219774
0.000285993
0.0219862
0.000304069
0.021992
0.000316068
0.0220044
0.000326285
0.0220082
0.000331696
0.022018
0.000334239
0.022024
0.000334441
0.0220288
0.000330375
0.0220375
0.000324864
0.0220406
0.000316251
0.0220469
0.000305464
0.0220514
0.000293456
0.022054
0.00027858
0.0220598
0.000262726
0.0220619
0.00024571
0.0220643
0.000227194
0.0220673
0.00020811
0.0220685
0.000188392
0.0220698
0.000168189
0.0220708
0.000147883
0.022071
0.00012763
0.0220709
0.000107808
0.0220701
8.83943e-05
0.0220692
6.97005e-05
0.0220677
5.23581e-05
0.022065
3.58469e-05
0.0220632
2.09894e-05
0.0220599
8.0749e-06
0.0220559
-3.68318e-06
0.0220534
-1.22466e-05
0.0220469
-1.89619e-05
0.0220431
-2.35327e-05
0.0220387
-2.40675e-05
0.0220304
-2.29845e-05
0.022027
-1.73921e-05
0.0220178
-8.82715e-06
0.0220117
2.66467e-06
0.0220056
1.97549e-05
0.0219942
3.87751e-05
0.0219901
6.4288e-05
0.0219769
9.29886e-05
0.0219702
0.000126226
0.0219609
0.000165526
0.0219484
0.0219437
0.00020701
0.000167927
0.0218956
0.00020943
0.0219025
0.000242489
0.0219286
0.000273717
0.0219348
0.000299646
0.0219515
0.000321552
0.0219643
0.000340911
0.0219727
0.000354425
0.0219909
0.000366371
0.0219963
0.000373718
0.0220107
0.00037839
0.0220193
0.000380899
0.0220263
0.000379313
0.0220391
0.000376433
0.0220435
0.000370594
0.0220528
0.000362712
0.0220593
0.00035372
0.022063
0.000341968
0.0220716
0.000329325
0.0220745
0.000315591
0.022078
0.000300426
0.0220825
0.000284737
0.0220842
0.000268447
0.0220861
0.000251698
0.0220876
0.000234849
0.0220879
0.000218045
0.0220877
0.000201658
0.0220864
0.000185641
0.0220852
0.000170295
0.0220831
0.000156245
0.022079
0.000142946
0.0220765
0.000131216
0.0220716
0.00012133
0.0220658
0.000112479
0.0220623
0.000106705
0.0220527
0.000102633
0.0220472
0.000100546
0.0220408
0.000102333
0.0220287
0.000105546
0.0220238
0.00011308
0.0220103
0.000123375
0.0220014
0.00013637
0.0219926
0.000154739
0.0219758
0.000174782
0.0219701
0.000201066
0.0219506
0.000230256
0.021941
0.000263691
0.0219274
0.000302882
0.0219092
0.0219027
0.000343911
0.000199902
0.0218516
0.000242064
0.0218603
0.000276022
0.0218946
0.000308404
0.0219025
0.000335746
0.0219242
0.000359321
0.0219408
0.000380595
0.0219514
0.000396265
0.0219753
0.000410587
0.021982
0.000420528
0.0220008
0.000427991
0.0220118
0.000433477
0.0220208
0.000435045
0.0220376
0.000435474
0.022043
0.000433094
0.0220552
0.000428801
0.0220636
0.000423512
0.0220683
0.000415574
0.0220795
0.000406828
0.0220833
0.000397064
0.0220878
0.000385934
0.0220936
0.000374319
0.0220958
0.000362134
0.0220983
0.000349509
0.0221002
0.000336782
0.0221006
0.000324084
0.0221004
0.000311781
0.0220987
0.000299799
0.0220972
0.000288431
0.0220944
0.000278293
0.0220892
0.000268813
0.022086
0.000260805
0.0220796
0.000254529
0.022072
0.000249152
0.0220677
0.000246721
0.0220551
0.000245832
0.0220481
0.000246755
0.0220398
0.000251383
0.022024
0.000257231
0.022018
0.000267204
0.0220003
0.000279716
0.0219889
0.000294692
0.0219776
0.000314812
0.0219557
0.000336334
0.0219485
0.000363845
0.0219231
0.00039397
0.0219109
0.000428044
0.0218933
0.00046757
0.0218697
0.0218617
0.000508585
0.000227522
0.0218063
0.00027121
0.0218166
0.000306929
0.0218589
0.000341322
0.0218681
0.000370937
0.0218946
0.000397046
0.0219147
0.000421107
0.0219274
0.000439814
0.0219565
0.000457405
0.0219644
0.000470839
0.0219873
0.000482006
0.0220007
0.000491388
0.0220115
0.000497039
0.0220319
0.000501715
0.0220384
0.000503737
0.0220531
0.000503984
0.0220633
0.000503351
0.0220689
0.000500186
0.0220827
0.000496298
0.0220871
0.000491466
0.0220926
0.000485333
0.0220998
0.000478753
0.0221024
0.000471629
0.0221054
0.000464082
0.0221077
0.000456421
0.0221083
0.000448768
0.0221081
0.000441479
0.022106
0.000434452
0.0221042
0.000427968
0.0221009
0.000422638
0.0220945
0.000417859
0.0220908
0.000414439
0.022083
0.000412627
0.0220739
0.000411557
0.0220687
0.000413289
0.0220534
0.000416384
0.022045
0.000421102
0.0220351
0.000429339
0.0220158
0.000438572
0.0220087
0.000451719
0.0219872
0.000467167
0.0219734
0.000484827
0.02196
0.00050739
0.0219332
0.000531071
0.0219248
0.000560482
0.0218937
0.000592211
0.0218792
0.000627588
0.021858
0.000668115
0.0218292
0.02182
0.000709775
0.000244912
0.0217585
0.000291185
0.0217704
0.000329725
0.0218204
0.0003672
0.0218306
0.00040017
0.0218616
0.000429908
0.0218849
0.000457869
0.0218994
0.000480742
0.0219337
0.000502748
0.0219424
0.000520842
0.0219692
0.000536895
0.0219846
0.000551373
0.021997
0.000562324
0.022021
0.000572475
0.0220282
0.000580142
0.0220455
0.000586183
0.0220573
0.00059147
0.0220636
0.000594349
0.0220798
0.000596598
0.0220849
0.000597978
0.0220912
0.000598126
0.0220996
0.000597864
0.0221027
0.000597083
0.0221062
0.000595891
0.0221089
0.000594568
0.0221096
0.00059322
0.0221094
0.000592197
0.0221071
0.000591364
0.0221051
0.000590987
0.0221013
0.000591672
0.0220938
0.00059278
0.0220897
0.000595116
0.0220807
0.000598913
0.0220701
0.000603272
0.0220644
0.000610267
0.0220464
0.000618421
0.0220368
0.000627981
0.0220256
0.000640851
0.0220029
0.000654462
0.0219951
0.000671755
0.0219699
0.000691084
0.0219541
0.000712347
0.0219387
0.000738252
0.0219072
0.000764965
0.0218981
0.000797132
0.0218615
0.000831298
0.021845
0.000868794
0.0218205
0.00091112
0.0217868
0.0217769
0.000954202
0.000244117
0.0217072
0.000294219
0.0217203
0.000336843
0.0217777
0.000378688
0.0217887
0.000416324
0.0218239
0.000451033
0.0218502
0.000484264
0.0218662
0.000512702
0.0219052
0.000540557
0.0219145
0.000564771
0.021945
0.000587199
0.0219622
0.000608291
0.0219759
0.000626083
0.0220032
0.000643277
0.022011
0.000658177
0.0220306
0.00067162
0.0220439
0.000684452
0.0220508
0.000695015
0.0220692
0.000705051
0.0220749
0.000714304
0.022082
0.0007224
0.0220915
0.000730126
0.0220949
0.000737356
0.022099
0.000744185
0.0221021
0.000750859
0.0221029
0.000757465
0.0221028
0.000764345
0.0221002
0.000771322
0.0220981
0.000778651
0.022094
0.000786928
0.0220855
0.000795471
0.0220812
0.000805082
0.0220711
0.000815977
0.0220592
0.000827216
0.0220531
0.000840892
0.0220327
0.000855482
0.0220222
0.000871219
0.0220098
0.00089002
0.0219841
0.000909262
0.0219759
0.000931913
0.0219472
0.00095629
0.0219297
0.000982279
0.0219127
0.00101261
0.0218769
0.00104339
0.0218674
0.00107932
0.0218256
0.00111689
0.0218074
0.00115743
0.0217799
0.00120244
0.0217418
0.0217316
0.0012478
0.000215253
0.0216509
0.000270572
0.021665
0.000318711
0.0217296
0.000366412
0.021741
0.00041025
0.0217801
0.000451512
0.0218089
0.000491649
0.021826
0.000527335
0.0218696
0.000562772
0.0218791
0.000594886
0.0219129
0.000625519
0.0219316
0.000655099
0.0219463
0.000681646
0.0219766
0.000707838
0.0219848
0.000731962
0.0220065
0.00075483
0.022021
0.000777262
0.0220283
0.000797586
0.0220489
0.000817511
0.0220549
0.000836756
0.0220627
0.000854931
0.0220733
0.000872784
0.0220771
0.000890169
0.0220816
0.000907162
0.0220851
0.000923967
0.0220861
0.000940651
0.0220861
0.000957539
0.0220833
0.000974412
0.0220812
0.000991502
0.0220769
0.00100939
0.0220676
0.00102736
0.0220632
0.00104619
0.0220522
0.00106608
0.0220393
0.00108604
0.0220332
0.00110819
0.0220106
0.00113095
0.0219995
0.00115454
0.0219862
0.00118088
0.0219578
0.0012073
0.0219495
0.00123679
0.0219177
0.00126763
0.0218989
0.00129969
0.0218807
0.00133573
0.0218409
0.00137179
0.0218313
0.00141263
0.0217847
0.00145468
0.0217654
0.00149928
0.0217353
0.00154795
0.0216932
0.0216831
0.00159646
0.000146163
0.0215881
0.000208255
0.0216029
0.000263545
0.0216743
0.000318792
0.0216858
0.000370578
0.0217283
0.000420228
0.0217593
0.000469195
0.0217771
0.000514125
0.0218246
0.000559224
0.021834
0.00060139
0.0218707
0.000642448
0.0218905
0.000682808
0.021906
0.000720462
0.021939
0.00075807
0.0219472
0.000793889
0.0219706
0.000828708
0.0219862
0.000863315
0.0219937
0.000896016
0.0220162
0.000928483
0.0220225
0.000960406
0.0220308
0.00099137
0.0220424
0.00102208
0.0220464
0.00105236
0.0220513
0.00108226
0.0220552
0.00111193
0.0220564
0.00114142
0.0220566
0.00117102
0.0220537
0.00120046
0.0220518
0.00122995
0.0220474
0.00126005
0.0220375
0.00128997
0.0220333
0.0013205
0.0220217
0.00135179
0.022008
0.00138281
0.0220022
0.00141569
0.0219777
0.00144878
0.0219664
0.00148229
0.0219527
0.00151815
0.0219219
0.00155362
0.021914
0.00159172
0.0218796
0.0016307
0.0218599
0.00167039
0.021841
0.00171361
0.0217977
0.00175631
0.0217886
0.00180333
0.0217377
0.00185102
0.0217177
0.00190075
0.0216856
0.00195404
0.0216399
0.0216305
0.00200659
2.03198e-05
0.0215176
9.14387e-05
0.0215317
0.000156222
0.0216095
0.000220995
0.021621
0.000282918
0.0216664
0.000343205
0.021699
0.000403299
0.021717
0.000459841
0.0217681
0.000517082
0.0217767
0.000571876
0.0218159
0.000626045
0.0218363
0.000679975
0.021852
0.00073162
0.0218873
0.000783627
0.0218952
0.000834213
0.02192
0.000884139
0.0219362
0.000934159
0.0219437
0.000982541
0.0219678
0.00103092
0.0219741
0.00107895
0.0219828
0.00112617
0.0219952
0.00117323
0.0219993
0.00121993
0.0220046
0.00126627
0.0220089
0.00131235
0.0220104
0.00135815
0.0220108
0.00140396
0.0220079
0.00144943
0.0220063
0.00149471
0.0220021
0.00154036
0.0219919
0.00158549
0.0219881
0.00163088
0.0219763
0.00167665
0.0219622
0.00172167
0.0219571
0.00176811
0.0219313
0.00181425
0.0219202
0.00186024
0.0219067
0.00190805
0.0218741
0.00195484
0.0218672
0.00200369
0.0218308
0.00205276
0.0218108
0.0021019
0.0217918
0.00215396
0.0217456
0.0022048
0.0217378
0.00225934
0.0216832
0.00231387
0.0216632
0.00236978
0.0216297
0.00242861
0.021581
0.0215732
0.00248596
-0.000176015
0.0214383
-9.63162e-05
0.021452
-2.19805e-05
0.0215352
5.49433e-05
0.0215441
0.000129677
0.0215917
0.000203338
0.0216253
0.00027714
0.0216432
0.000348114
0.0216971
0.000420476
0.0217044
0.000491003
0.0217454
0.000561532
0.0217658
0.000632428
0.0217811
0.000701597
0.0218182
0.000771691
0.0218251
0.000840869
0.0218509
0.000909863
0.0218673
0.000979385
0.0218742
0.00104765
0.0218996
0.00111624
0.0219055
0.00118477
0.0219143
0.00125271
0.0219272
0.00132066
0.0219314
0.00138834
0.0219369
0.00145571
0.0219415
0.00152279
0.0219433
0.0015895
0.0219441
0.00165607
0.0219413
0.00172206
0.0219403
0.00178757
0.0219366
0.0018531
0.0219264
0.00191767
0.0219236
0.00198202
0.021912
0.0020462
0.021898
0.00210901
0.0218943
0.00217262
0.0218677
0.00223519
0.0218577
0.00229686
0.0218451
0.0023596
0.0218113
0.00242046
0.0218064
0.00248257
0.0217687
0.00254404
0.0217494
0.00260467
0.0217312
0.00266739
0.0216829
0.00272794
0.0216772
0.00279138
0.0216197
0.0028539
0.0216006
0.00291692
0.0215667
0.00298201
0.0215159
0.0215105
0.00304468
-0.000463904
0.0213479
-0.00037161
0.0213598
-0.000284239
0.0214478
-0.000195268
0.0214551
-0.000107646
0.021504
-1.96796e-05
0.0215374
7.07465e-05
0.0215527
0.000159152
0.0216087
0.000249863
0.0216137
0.000339591
0.0216557
0.000430251
0.0216751
0.000522182
0.0216892
0.000613213
0.0217271
0.000705991
0.0217323
0.000798573
0.0217583
0.000891663
0.0217742
0.000985924
0.0217799
0.00107947
0.021806
0.00117386
0.0218111
0.00126858
0.0218195
0.00136307
0.0218327
0.00145784
0.0218366
0.00155251
0.0218423
0.00164696
0.0218471
0.00174111
0.0218491
0.00183479
0.0218504
0.00192814
0.021848
0.00202061
0.0218479
0.0021122
0.021845
0.00220335
0.0218352
0.00229292
0.021834
0.0023816
0.0218233
0.00246936
0.0218103
0.00255486
0.0218088
0.00264026
0.0217823
0.00272361
0.0217743
0.00280497
0.0217637
0.00288635
0.02173
0.00296462
0.0217281
0.003043
0.0216903
0.0031195
0.0216729
0.00319391
0.0216568
0.00326923
0.0216076
0.00334108
0.0216053
0.00341467
0.0215461
0.0034861
0.0215292
0.00355685
0.0214959
0.00362855
0.0214442
0.0214425
0.00369659
-0.000873366
0.0212464
-0.000768408
0.0212548
-0.000666823
0.0213462
-0.000561415
0.0213497
-0.000455995
0.0213986
-0.000349284
0.0214307
-0.000240067
0.0214435
-0.000131512
0.0215001
-1.90901e-05
0.0215012
9.37792e-05
0.0215428
0.000208859
0.0215601
0.000326609
0.0215714
0.000444775
0.021609
0.000565947
0.0216112
0.000688065
0.0216362
0.000811755
0.0216505
0.000937532
0.0216542
0.00106339
0.0216802
0.00119084
0.0216837
0.00131926
0.0216911
0.00144798
0.021704
0.00157739
0.0217072
0.001707
0.0217126
0.00183659
0.0217175
0.00196592
0.0217198
0.00209469
0.0217217
0.00222292
0.0217197
0.00234987
0.0217209
0.00247541
0.0217195
0.00259986
0.0217108
0.0027219
0.0217119
0.00284208
0.0217031
0.00296027
0.0216921
0.00307491
0.0216942
0.00318819
0.021669
0.00329792
0.0216646
0.0034041
0.0216575
0.00350873
0.0216253
0.0036085
0.0216283
0.00370671
0.0215921
0.00380125
0.0215783
0.00389189
0.0215662
0.00398176
0.0215177
0.00406631
0.0215208
0.00415099
0.0214615
0.0042318
0.0214484
0.0043103
0.0214174
0.00438824
0.0213663
0.0213698
0.00446088
-0.0014385
0.0211344
-0.001321
0.0211373
-0.00120512
0.0212304
-0.00108328
0.0212279
-0.000959276
0.0212746
-0.000831598
0.021303
-0.000698676
0.0213106
-0.000564389
0.0213659
-0.000424124
0.021361
-0.000281555
0.0214002
-0.000134827
0.0214133
1.59252e-05
0.0214207
0.000168031
0.0214569
0.00032457
0.0214546
0.0004843
0.0214764
0.00064687
0.0214879
0.00081291
0.0214881
0.00098026
0.0215128
0.00115029
0.0215136
0.00132226
0.0215191
0.00149535
0.0215309
0.00166983
0.0215327
0.00184506
0.0215374
0.00202065
0.0215419
0.00219615
0.0215443
0.00237107
0.0215468
0.00254525
0.0215455
0.00271768
0.0215485
0.00288801
0.0215491
0.00305636
0.0215424
0.00322111
0.0215472
0.00338265
0.0215416
0.00354061
0.0215341
0.00369318
0.0215416
0.00384247
0.0215197
0.00398604
0.021521
0.00412372
0.0215199
0.00425752
0.0214915
0.00438384
0.021502
0.00450611
0.0214698
0.00462205
0.0214624
0.0047314
0.0214568
0.00483746
0.0214116
0.00493552
0.0214227
0.00503134
0.0213656
0.00512084
0.0213589
0.00520575
0.0213325
0.00528805
0.021284
0.021295
0.00536287
-0.00220526
0.0210156
-0.00207724
0.0210093
-0.00194811
0.0211012
-0.00180966
0.0210894
-0.00166561
0.0211306
-0.00151417
0.0211515
-0.0013536
0.02115
-0.00118805
0.0212003
-0.00101299
0.0211859
-0.000832633
0.0212199
-0.000645374
0.0212261
-0.000451172
0.0212265
-0.000252758
0.0212584
-4.79649e-05
0.0212498
0.000158721
0.0212698
0.000369917
0.0212767
0.000587895
0.0212701
0.000808553
0.0212922
0.00103349
0.0212887
0.00126188
0.0212907
0.00149277
0.0213
0.00172627
0.0212992
0.00196156
0.0213021
0.00219801
0.0213054
0.0024349
0.0213074
0.00267143
0.0213102
0.00290714
0.0213098
0.00314059
0.021315
0.00337106
0.0213187
0.00359836
0.0213151
0.00382034
0.0213252
0.00403712
0.0213248
0.00424798
0.0213233
0.00445063
0.021339
0.00464714
0.0213232
0.00483459
0.0213336
0.00501262
0.0213418
0.00518323
0.0213209
0.00534241
0.0213428
0.00549373
0.0213185
0.0056347
0.0213214
0.00576502
0.0213265
0.00588823
0.0212884
0.00599938
0.0213116
0.00610477
0.0212602
0.00620027
0.0212634
0.00628799
0.0212448
0.00637027
0.0212017
0.0212232
0.00644212
-0.00267173
0.0209217
-0.00256721
0.0209048
-0.00245703
0.020991
-0.00233161
0.020964
-0.0021938
0.0209928
-0.00204251
0.0210003
-0.00187734
0.0209849
-0.0017032
0.0210262
-0.00151724
0.021
-0.00132407
0.0210267
-0.00112304
0.021025
-0.000914756
0.0210182
-0.000701935
0.0210456
-0.000482229
0.0210301
-0.000256655
0.0210442
-2.5991e-05
0.021046
0.000206704
0.0210374
0.000444233
0.0210546
0.000687553
0.0210454
0.000935727
0.0210426
0.00118794
0.0210478
0.00144419
0.0210429
0.0017036
0.0210427
0.00196545
0.0210436
0.00222877
0.0210441
0.0024925
0.0210465
0.00275584
0.0210465
0.003017
0.0210539
0.00327486
0.0210608
0.00352878
0.0210612
0.00377629
0.0210777
0.00401707
0.021084
0.00425006
0.0210903
0.00447276
0.0211163
0.0046868
0.0211092
0.00488926
0.0211311
0.00507958
0.0211515
0.00525951
0.021141
0.00542523
0.0211771
0.00557997
0.0211638
0.00572139
0.02118
0.00584914
0.0211987
0.00596637
0.0211712
0.00606856
0.0212094
0.00616139
0.0211674
0.00624126
0.0211836
0.00631042
0.0211756
0.00637163
0.0211405
0.0211736
0.00642118
-0.00299013
0.0208508
-0.00291869
0.0208333
-0.00283801
0.0209104
-0.00273129
0.0208573
-0.0026005
0.020862
-0.00244747
0.0208472
-0.00227543
0.0208128
-0.00209171
0.0208424
-0.00189598
0.0208042
-0.00169357
0.0208243
-0.00148453
0.020816
-0.00126962
0.0208033
-0.00105124
0.0208272
-0.000827445
0.0208063
-0.000599891
0.0208166
-0.000367451
0.0208136