/*--------------------------------*- C++ -*----------------------------------*\
| =========                 |                                                 |
| \\      /  F ield         | OpenFOAM: The Open Source CFD Toolbox           |
|  \\    /   O peration     | Version:  2312                                  |
|   \\  /    A nd           | Website:  www.openfoam.com                      |
|    \\/     M anipulation  |                                                 |
\*---------------------------------------------------------------------------*/
FoamFile
{
    version     2.0;
    format      ascii;
    arch        "LSB;label=32;scalar=64";
    class       surfaceScalarField;
    location    "35.894301416626881";
    object      phi;
}
// * * * * * * * * * * * * * * * * * * * * * * * * * * * * * * * * * * * * * //

dimensions      [0 3 -1 0 0 0 0];

oriented        oriented;

internalField   nonuniform List<scalar> 
41713
(
0.00736717
0.0568793
0.0036299
0.0679837
0.00211869
0.0657576
0.00148718
0.0648779
0.00110219
0.0646314
0.000848746
0.0644999
0.000674344
0.0644208
0.000548078
0.0643727
0.000453341
0.0643412
0.000380482
0.0643193
0.000323378
0.0643035
0.000277974
0.0642918
0.000241505
0.0642829
0.000212027
0.0642759
0.000188146
0.0642703
0.000168837
0.0642657
0.00015333
0.0642619
0.000141037
0.0642587
0.000131491
0.064256
0.000124304
0.0642536
0.000119106
0.0642516
0.000115525
0.06425
0.000113267
0.0642487
0.000111855
0.0548126
0.000110629
0.0456772
0.000109396
0.0380645
0.000108184
0.0317206
0.000107034
0.026434
0.0220285
0.000105937
0.00999759
0.0468817
0.00843514
0.0695461
0.00572489
0.0684679
0.00413309
0.0664697
0.00313473
0.0656298
0.00244587
0.0651887
0.00195065
0.0649161
0.00158364
0.0647397
0.00130453
0.0646203
0.00108754
0.0645363
0.000915717
0.0644754
0.000777693
0.0644299
0.000665614
0.064395
0.000573935
0.0643676
0.00049866
0.0643456
0.000436858
0.0643275
0.000386342
0.0643125
0.000345453
0.0642996
0.000312907
0.0642885
0.000287682
0.0642788
0.000268937
0.0642704
0.000255927
0.064263
0.000247902
0.0642567
0.000244067
0.0548164
0.000242385
0.0456789
0.000241626
0.0380653
0.000241115
0.0317212
0.000240555
0.0264346
0.022029
0.000240012
0.00860055
0.0382811
0.00971849
0.0684282
0.00748429
0.0707021
0.00571858
0.0682354
0.00453417
0.0668142
0.00365319
0.0660697
0.00297526
0.065594
0.00244878
0.0652662
0.00203509
0.065034
0.00170564
0.0648657
0.00143996
0.064741
0.00122346
0.0646464
0.00104557
0.0645729
0.00089859
0.0645146
0.000776836
0.0644673
0.000676077
0.0644283
0.000593122
0.0643954
0.000525536
0.0643672
0.000471436
0.0643426
0.000429339
0.0643209
0.000398049
0.0643017
0.000376554
0.0642845
0.00036383
0.0642694
0.000358596
0.0548217
0.000357282
0.0456802
0.000357625
0.038065
0.000358365
0.0317204
0.000358954
0.026434
0.0220286
0.000359405
0.0067788
0.0315023
0.00948635
0.0657207
0.00813785
0.0720506
0.00646312
0.0699102
0.00527774
0.0679996
0.00437852
0.0669689
0.00365371
0.0663188
0.00306391
0.065856
0.00258195
0.0655159
0.00218583
0.0652619
0.00185827
0.0650686
0.0015859
0.0649187
0.00135839
0.0648004
0.00116787
0.0647051
0.00100828
0.0646269
0.000874981
0.0645616
0.000764403
0.064506
0.000673783
0.0644578
0.000600965
0.0644154
0.000544246
0.0643777
0.000502257
0.0643437
0.000473842
0.0643129
0.000457739
0.0642855
0.000452055
0.0548273
0.000451772
0.0456805
0.000453698
0.038063
0.000456093
0.031718
0.000458248
0.0264318
0.0220267
0.000460148
0.00506802
0.0264343
0.00857992
0.0622088
0.00819963
0.0724309
0.00676281
0.071347
0.00561459
0.0691478
0.00474639
0.0678372
0.00403654
0.0670286
0.00344111
0.0664514
0.00293915
0.0660179
0.00251473
0.0656863
0.00215492
0.0654284
0.00184922
0.0652245
0.00158916
0.0650604
0.00136797
0.0649263
0.00118028
0.0648146
0.00102181
0.0647201
0.000889205
0.0646386
0.000779824
0.0645672
0.000691576
0.0645037
0.000622801
0.0644464
0.000572159
0.0643943
0.000538488
0.0643466
0.000520414
0.0643036
0.000515381
0.0548324
0.000517027
0.0456788
0.000521313
0.0380587
0.000526077
0.0317133
0.000530455
0.0264274
0.0220227
0.000534391
0.0036202
0.0228141
0.00731878
0.0585102
0.00779935
0.0719503
0.00674934
0.072397
0.00569705
0.0702001
0.00488056
0.0686536
0.00420896
0.0677002
0.00363383
0.0670266
0.00313724
0.0665145
0.00270767
0.0661159
0.00233564
0.0658004
0.00201332
0.0655468
0.00173429
0.0653395
0.00149327
0.0651673
0.00128599
0.0650219
0.00110898
0.0648971
0.00095948
0.0647881
0.000835276
0.0646914
0.000734623
0.0646043
0.000656135
0.0645249
0.000598691
0.0644517
0.000561291
0.064384
0.000542601
0.0643223
0.000539357
0.0548356
0.000543921
0.0456743
0.00055146
0.0380512
0.000559414
0.0317053
0.000566768
0.0264201
0.0220161
0.000573413
0.00252358
0.0202905
0.00602283
0.0550109
0.00711037
0.0708628
0.00649122
0.0730162
0.00558947
0.0711018
0.00484405
0.0693991
0.00422483
0.0683195
0.0036847
0.0675667
0.00320771
0.0669915
0.00278625
0.0665373
0.00241409
0.0661726
0.00208584
0.065875
0.00179701
0.0656283
0.00154383
0.0654205
0.00132322
0.0652425
0.00113268
0.0650876
0.000970182
0.0649506
0.000834155
0.0648274
0.000723374
0.0647151
0.000636901
0.0646114
0.000574001
0.0645146
0.000533988
0.064424
0.00051571
0.0643406
0.000515175
0.0548362
0.000523516
0.0456659
0.00053514
0.0380396
0.000547105
0.0316933
0.000558232
0.026409
0.022006
0.000568343
0.00175812
0.0185324
0.00488817
0.0518809
0.00632747
0.0694235
0.00609091
0.0732527
0.00535757
0.0718352
0.00468803
0.0700686
0.00412391
0.0688836
0.00362493
0.0680657
0.00317504
0.0674414
0.00276919
0.0669432
0.00240393
0.0665379
0.00207615
0.0662028
0.00178314
0.0659213
0.00152259
0.065681
0.00129261
0.0654725
0.00109165
0.0652886
0.000918562
0.0651237
0.000772467
0.0649735
0.000652782
0.0648348
0.00055914
0.064705
0.000491324
0.0645825
0.000449095
0.0644663
0.000431632
0.0643581
0.000434284
0.0548335
0.000446995
0.0456532
0.000463409
0.0380232
0.000480178
0.0316766
0.000495915
0.0263932
0.0219916
0.00051031
0.0012461
0.0172863
0.00396342
0.0491636
0.00556541
0.0678215
0.00563264
0.0731855
0.00506212
0.0724057
0.00446265
0.0706681
0.00394583
0.0694004
0.00348479
0.0685267
0.0030624
0.0678637
0.00267424
0.0673313
0.00231864
0.0668935
0.0019942
0.0665272
0.00169969
0.0662158
0.00143407
0.0659466
0.00119654
0.06571
0.000986503
0.0654986
0.00080364
0.0653065
0.000647844
0.0651293
0.000519229
0.0649634
0.000418099
0.0648062
0.000344877
0.0646557
0.000299886
0.0645112
0.000282786
0.0643752
0.000288447
0.0548278
0.000305675
0.045636
0.000327266
0.0380016
0.00034942
0.0316544
0.000370505
0.0263721
0.0219721
0.00039002
0.00091049
0.0163758
0.00322992
0.0468441
0.00486818
0.0661832
0.00516091
0.0728928
0.00473871
0.0728279
0.00420236
0.0712044
0.00372236
0.0698804
0.00329112
0.068958
0.00289157
0.0682633
0.00251881
0.0677041
0.00217193
0.0672403
0.0018506
0.0668486
0.00155464
0.0665118
0.001284
0.0662173
0.00103879
0.0659553
0.00081926
0.0657181
0.000625883
0.0654999
0.000459318
0.0652959
0.00032044
0.0651023
0.000210273
0.0649163
0.000129948
0.064736
8.05585e-05
0.0645606
6.22983e-05
0.0643934
6.98804e-05
0.0548203
9.09199e-05
0.045615
0.000117497
0.037975
0.00014519
0.0316267
0.000171962
0.0263454
0.0219469
0.000197133
0.00069156
0.0156843
0.00265459
0.0448811
0.00424896
0.0645889
0.00469763
0.0724441
0.00440443
0.0731211
0.00392521
0.0716837
0.00347319
0.0703324
0.00306303
0.0693681
0.00267982
0.0686465
0.00231788
0.068066
0.00197642
0.0675818
0.00165574
0.0671692
0.00135633
0.0668112
0.00107885
0.0664948
0.000824106
0.06621
0.000593082
0.0659492
0.000386975
0.065706
0.000207144
0.0654757
5.51071e-05
0.0652543
-6.73911e-05
0.0650388
-0.000158402
0.064827
-0.000215999
0.0646182
-0.000239057
0.0644165
-0.000232214
0.0548134
-0.000209036
0.0455918
-0.000178591
0.0379446
-0.00014597
0.0315941
-0.000113789
0.0263132
0.0219165
-8.33675e-05
0.000545781
0.0151385
0.00220349
0.0432234
0.00370785
0.0630845
0.00425534
0.0718966
0.0040693
0.0733071
0.00364111
0.0721118
0.00321008
0.0707635
0.00281317
0.069765
0.00243966
0.06902
0.00208321
0.0684225
0.00174283
0.0679222
0.00141908
0.067493
0.00111287
0.0671174
0.000825351
0.0667823
0.000557864
0.0664775
0.000311981
0.066195
8.9414e-05
0.0659286
-0.000107924
0.0656731
-0.000277781
0.0654242
-0.000417532
0.0651786
-0.000524306
0.0649338
-0.000595245
0.0646892
-0.000628314
0.0644495
-0.000626547
0.0548116
-0.000604397
0.0455696
-0.000571866
0.037912
-0.000534861
0.0315571
-0.000496677
0.026275
0.021879
-0.000459236
0.000443976
0.0146945
0.00184648
0.0418209
0.00323825
0.0616927
0.00384082
0.071294
0.00374035
0.0734076
0.00335677
0.0724954
0.00294113
0.0711791
0.00255075
0.0701554
0.00218065
0.0693901
0.0018243
0.0687788
0.00148028
0.0682662
0.00114914
0.0678241
0.000832021
0.0674345
0.000530367
0.0670839
0.000245879
0.066762
-1.95689e-05
0.0664605
-0.000263828
0.0661729
-0.000484306
0.0658935
-0.000677973
0.0656179
-0.000841426
0.065342
-0.000970963
0.0650633
-0.00106286
0.0647811
-0.0011142
0.0645009
-0.00112499
0.0548224
-0.00111009
0.0455547
-0.00108032
0.0378823
-0.00104249
0.0315193
-0.00100091
0.0262334
0.0218366
-0.00095852
0.000368504
0.014326
0.00155974
0.0406297
0.0028311
0.0604214
0.00345674
0.0706684
0.00342235
0.073442
0.00307708
0.0728407
0.00267249
0.0715837
0.00228317
0.0705447
0.00191089
0.0697624
0.00154954
0.0691402
0.00119716
0.0686186
0.000854117
0.0681672
0.000521564
0.0677671
0.000201029
0.0674045
-0.000105717
0.0670687
-0.000396542
0.0667513
-0.000668775
0.0664451
-0.000919213
0.066144
-0.00114419
0.0658428
-0.00133959
0.0655374
-0.00150095
0.0652247
-0.00162388
0.064904
-0.00170499
0.064582
-0.00173976
0.0548572
-0.00174266
0.0455576
-0.00172456
0.0378642
-0.00169271
0.0314874
-0.00165246
0.0261932
0.0217924
-0.0016082
0.000309285
0.0140167
0.00132741
0.0396115
0.00248025
0.0592685
0.00310558
0.0700431
0.00311915
0.0734284
0.00280543
0.0731544
0.00240841
0.0719807
0.00201592
0.0709372
0.00163681
0.0701415
0.00126592
0.0695111
0.000900811
0.0689837
0.000541491
0.0685265
0.000188902
0.0681197
-0.000155605
0.067749
-0.000490237
0.0674034
-0.000812571
0.0670737
-0.00111957
0.0667521
-0.0014076
0.066432
-0.00167239
0.0661076
-0.00190909
0.0657741
-0.00211257
0.0654282
-0.00227815
0.0650696
-0.00240303
0.0647069
-0.00247751
0.0549317
-0.00251533
0.0455954
-0.00252591
0.0378747
-0.00251488
0.0314764
-0.00248713
0.0261654
0.0217536
-0.00244831
0.000224591
0.0137921
0.000969952
0.0388662
0.00185438
0.0583841
0.00237038
0.0695271
0.00240861
0.0733902
0.00216424
0.0733988
0.00183354
0.0723114
0.00149819
0.0712726
0.00117091
0.0704688
0.00084824
0.0698337
0.00052777
0.0693041
0.000209112
0.0688452
-0.000107394
0.0684362
-0.000420789
0.0680624
-0.000729609
0.0677122
-0.00103183
0.0673759
-0.00132483
0.0670451
-0.00160529
0.0667125
-0.00186919
0.0663715
-0.00211175
0.0660167
-0.00232781
0.0656442
-0.00251273
0.0652545
-0.00266458
0.0648587
-0.00277105
0.0550382
-0.00284544
0.0456698
-0.00289553
0.0379248
-0.00292309
0.0315039
-0.00292835
0.0261707
0.0217403
-0.00291505
0.000166513
0.0136256
0.000720003
0.0383127
0.00139977
0.0577043
0.00181847
0.0691084
0.00186462
0.073344
0.00167274
0.0735907
0.00139899
0.0725851
0.0011157
0.0715558
0.0008368
0.0707477
0.000560001
0.0701105
0.00028293
0.0695812
4.80846e-06
0.0691233
-0.000274237
0.0687152
-0.000553822
0.068342
-0.000832917
0.0679913
-0.00111006
0.067653
-0.00138321
0.0673182
-0.00164967
0.0669789
-0.00190595
0.0666278
-0.00214767
0.0662584
-0.00236972
0.0658663
-0.00256705
0.0654518
-0.00273679
0.0650285
-0.00286335
0.0551647
-0.00296219
0.0457687
-0.00304548
0.0380081
-0.00311838
0.0315768
-0.00317882
0.0262311
0.021775
-0.00321356
0.000127593
0.013498
0.000547372
0.0378929
0.00107635
0.0571753
0.00141572
0.068769
0.001462
0.0732978
0.00130964
0.073743
0.00108307
0.0728117
0.000844674
0.0717942
0.000608128
0.0709842
0.000371936
0.0703467
0.000133906
0.0698192
-0.000106932
0.0693641
-0.000350858
0.0689591
-0.000597658
0.0685888
-0.000846818
0.0682404
-0.00109744
0.0679036
-0.00134815
0.0675689
-0.00159696
0.0672277
-0.00184113
0.066872
-0.00207703
0.0664943
-0.00230002
0.0660893
-0.00250478
0.0656566
-0.00268623
0.0652099
-0.00282165
0.0553001
-0.00292425
0.0458713
-0.00301147
0.0380954
-0.00309789
0.0316633
-0.00320147
0.0263347
0.0219064
-0.00333284
9.71478e-05
0.0134009
0.000423556
0.0375665
0.000843861
0.056755
0.00112127
0.0684916
0.00116279
0.0732562
0.00103831
0.0738675
0.000849407
0.0730006
0.000649207
0.0719944
0.000449594
0.0711838
0.000249159
0.0705472
4.58495e-05
0.0700226
-0.000161304
0.0695713
-0.000372697
0.0691705
-0.000588428
0.0688045
-0.000808372
0.0684604
-0.00103212
0.0681274
-0.00125889
0.0677957
-0.00148743
0.0674563
-0.00171586
0.0671004
-0.00194153
0.06672
-0.00216102
0.0663087
-0.00237017
0.0658657
-0.00256368
0.0654034
-0.00271134
0.0554478
-0.00281483
0.0459747
-0.00288185
0.0381624
-0.00292277
0.0317042
-0.00295614
0.0263681
-0.00311776
0.022068
0.000150813
0.0219825
0.000193154
0.021985
0.000226545
0.021994
0.000257577
0.0219963
0.00028278
0.0220022
0.00030344
0.0220067
0.000321056
0.0220097
0.000332345
0.0220161
0.000341612
0.0220181
0.000345847
0.0220231
0.000346999
0.0220262
0.000345609
0.0220287
0.000339763
0.0220332
0.000332297
0.0220348
0.000321565
0.0220381
0.000308511
0.0220404
0.0002941
0.0220418
0.000276698
0.0220448
0.000258209
0.0220458
0.000238461
0.0220471
0.000217131
0.0220487
0.000195162
0.0220493
0.000172503
0.02205
0.000149316
0.0220505
0.000125995
0.0220507
0.000102711
0.0220506
7.98518e-05
0.0220502
5.74101e-05
0.0220498
3.57088e-05
0.0220491
1.53907e-05
0.0220477
-4.04871e-06
0.0220468
-2.17761e-05
0.0220451
-3.7488e-05
0.0220431
-5.1954e-05
0.0220418
-6.31269e-05
0.0220385
-7.23361e-05
0.0220366
-7.92735e-05
0.0220343
-8.20391e-05
0.0220301
-8.3032e-05
0.0220283
-7.93539e-05
0.0220237
-7.25236e-05
0.0220205
-6.25756e-05
0.0220174
-4.68282e-05
0.0220116
-2.89287e-05
0.0220095
-4.31086e-06
0.0220027
2.37454e-05
0.0219993
5.66086e-05
0.0219945
9.58296e-05
0.0219881
0.0219856
0.000137549
0.000285199
0.0219373
0.00032805
0.0219422
0.000362168
0.0219598
0.000394138
0.0219644
0.000420507
0.0219758
0.000442555
0.0219846
0.000461763
0.0219905
0.000474856
0.022003
0.000486103
0.0220068
0.000492502
0.0220167
0.000495977
0.0220227
0.000497052
0.0220277
0.000493817
0.0220364
0.000489071
0.0220396
0.000481173
0.022046
0.000471045
0.0220505
0.000459629
0.0220532
0.000445304
0.0220591
0.000429935
0.0220612
0.00041334
0.0220637
0.000395199
0.0220668
0.000376422
0.0220681
0.00035695
0.0220695
0.000336943
0.0220706
0.000316765
0.0220709
0.000296579
0.0220708
0.000276772
0.02207
0.000257306
0.0220693
0.000238496
0.0220679
0.000220987
0.0220652
0.00020424
0.0220635
0.00018909
0.0220602
0.000175829
0.0220563
0.000163653
0.022054
0.000154626
0.0220476
0.000147381
0.0220438
0.000142216
0.0220395
0.000141037
0.0220313
0.000141405
0.022028
0.000146232
0.0220188
0.000153972
0.0220128
0.000164575
0.0220068
0.000180733
0.0219955
0.000198755
0.0219914
0.00022323
0.0219783
0.000250833
0.0219717
0.000282923
0.0219624
0.000321029
0.02195
0.0219454
0.000361261
0.000405291
0.0218914
0.000449031
0.0218984
0.00048428
0.0219246
0.000517609
0.021931
0.000545572
0.0219478
0.000569435
0.0219608
0.000590664
0.0219693
0.000605987
0.0219877
0.00061964
0.0219932
0.000628625
0.0220077
0.000634844
0.0220165
0.000638805
0.0220237
0.000638599
0.0220366
0.000636992
0.0220412
0.000632345
0.0220506
0.00062556
0.0220573
0.000617555
0.0220612
0.000606721
0.0220699
0.000594884
0.0220731
0.000581854
0.0220767
0.00056731
0.0220814
0.000552129
0.0220833
0.000536248
0.0220854
0.000519819
0.022087
0.000503179
0.0220875
0.000486481
0.0220875
0.000470111
0.0220864
0.000453999
0.0220854
0.000438454
0.0220834
0.000424118
0.0220795
0.000410418
0.0220772
0.000398192
0.0220725
0.000387716
0.0220668
0.00037816
0.0220636
0.000371602
0.0220541
0.000366638
0.0220488
0.000363556
0.0220425
0.000364271
0.0220306
0.000366298
0.022026
0.000372568
0.0220126
0.000381504
0.0220039
0.000393041
0.0219953
0.000409881
0.0219786
0.000428287
0.021973
0.000452868
0.0219537
0.000480262
0.0219443
0.000511819
0.0219308
0.000549061
0.0219128
0.0219064
0.000588047
0.000507369
0.0218442
0.000552616
0.0218532
0.000589596
0.0218876
0.000624881
0.0218957
0.000655038
0.0219177
0.000681324
0.0219345
0.000705192
0.0219454
0.000723372
0.0219695
0.000740071
0.0219765
0.00075229
0.0219955
0.00076191
0.0220069
0.000769421
0.0220162
0.000772915
0.0220331
0.000775123
0.022039
0.000774408
0.0220513
0.00077165
0.0220601
0.000767745
0.0220651
0.000761088
0.0220766
0.000753472
0.0220807
0.000744694
0.0220855
0.000734432
0.0220916
0.00072353
0.0220942
0.000711917
0.022097
0.000699738
0.0220992
0.000687301
0.0220999
0.00067475
0.0221001
0.000662467
0.0220987
0.00065035
0.0220975
0.0006387
0.0220951
0.000628157
0.0220901
0.000618113
0.0220873
0.000609407
0.0220812
0.000602303
0.0220739
0.000595939
0.0220699
0.000592409
0.0220576
0.000590274
0.0220509
0.000589811
0.022043
0.000592941
0.0220275
0.00059714
0.0220218
0.000605354
0.0220044
0.000615977
0.0219932
0.000628931
0.0219823
0.000646929
0.0219606
0.000666189
0.0219538
0.000691346
0.0219285
0.000718994
0.0219167
0.000750479
0.0218994
0.000787322
0.0218759
0.0218682
0.000825528
0.000583779
0.0217948
0.000631363
0.0218056
0.000670899
0.0218481
0.000708969
0.0218577
0.000742154
0.0218845
0.000771708
0.0219049
0.000799071
0.0219181
0.000820973
0.0219476
0.000841596
0.0219559
0.000857939
0.0219792
0.000871862
0.021993
0.000883838
0.0220042
0.000891954
0.022025
0.000898912
0.022032
0.000903069
0.0220472
0.000905285
0.0220579
0.000906433
0.0220639
0.000904911
0.0220781
0.000902474
0.0220831
0.000898911
0.0220891
0.00089389
0.0220967
0.000888226
0.0220998
0.000881838
0.0221034
0.000874859
0.0221061
0.00086757
0.0221072
0.000860103
0.0221075
0.000852834
0.0221059
0.000845629
0.0221047
0.00083878
0.0221019
0.000832921
0.0220959
0.000827413
0.0220928
0.000823093
0.0220855
0.000820209
0.0220768
0.000817871
0.0220723
0.000818186
0.0220573
0.000819682
0.0220494
0.000822622
0.0220401
0.000828936
0.0220211
0.00083606
0.0220146
0.000846958
0.0219935
0.000859993
0.0219802
0.000875079
0.0219672
0.000894939
0.0219408
0.000915749
0.021933
0.000942172
0.0219021
0.000970765
0.0218881
0.00100287
0.0218673
0.00104001
0.0218388
0.0218301
0.00107814
0.000625974
0.0217422
0.000676923
0.0217546
0.000720044
0.021805
0.000761946
0.0218158
0.000799217
0.0218472
0.000833115
0.021871
0.000865072
0.0218861
0.000891811
0.0219208
0.000917499
0.0219302
0.000939123
0.0219576
0.000958526
0.0219736
0.000976163
0.0219866
0.000990112
0.0220111
0.00100305
0.0220191
0.00101332
0.0220369
0.00102176
0.0220494
0.00102923
0.0220565
0.00103411
0.0220732
0.00103814
0.0220791
0.00104107
0.0220861
0.00104257
0.0220951
0.00104343
0.022099
0.00104355
0.0221033
0.00104304
0.0221066
0.00104217
0.0221081
0.00104105
0.0221087
0.00104004
0.0221069
0.00103898
0.0221058
0.00103816
0.0221027
0.00103818
0.0220959
0.0010384
0.0220926
0.00103962
0.0220843
0.0010421
0.0220743
0.00104491
0.0220694
0.00105016
0.0220521
0.00105636
0.0220432
0.00106375
0.0220327
0.00107427
0.0220106
0.00108531
0.0220036
0.00109987
0.0219789
0.00111627
0.0219638
0.00113441
0.0219491
0.00115704
0.0219181
0.00118029
0.0219097
0.00120885
0.0218735
0.00123924
0.0218577
0.00127281
0.0218337
0.00131107
0.0218005
0.0217912
0.00134992
0.000625265
0.0216853
0.000680802
0.0216991
0.000728755
0.021757
0.000775766
0.0217688
0.000818428
0.0218045
0.000858003
0.0218315
0.000895922
0.0218482
0.000928894
0.0218879
0.000961079
0.021898
0.000989446
0.0219292
0.00101582
0.0219472
0.00104064
0.0219618
0.00106197
0.0219898
0.00108246
0.0219986
0.00110044
0.0220189
0.00111673
0.0220331
0.00113215
0.0220411
0.00114508
0.0220603
0.00115722
0.0220669
0.00116831
0.022075
0.00117801
0.0220855
0.00118706
0.0220899
0.00119536
0.022095
0.001203
0.022099
0.0012102
0.0221009
0.00121707
0.0221018
0.00122395
0.0221001
0.00123066
0.0220991
0.00123745
0.0220959
0.00124493
0.0220884
0.0012524
0.0220851
0.00126069
0.022076
0.00127001
0.022065
0.0012794
0.0220601
0.001291
0.0220405
0.00130327
0.022031
0.00131643
0.0220195
0.00133245
0.0219946
0.00134866
0.0219874
0.00136808
0.0219595
0.001389
0.0219429
0.00141133
0.0219268
0.00143781
0.0218916
0.00146454
0.021883
0.00149625
0.0218418
0.00152941
0.0218245
0.00156538
0.0217977
0.00160567
0.0217602
0.0217508
0.00164613
0.000572936
0.0216227
0.000634459
0.0216376
0.000688683
0.0217028
0.000742299
0.0217151
0.000791898
0.0217549
0.000838748
0.0217846
0.000884282
0.0218027
0.000925185
0.021847
0.000965622
0.0218576
0.00100253
0.0218923
0.00103773
0.021912
0.00107163
0.0219279
0.00110228
0.0219591
0.0011323
0.0219686
0.00116
0.0219912
0.00118617
0.022007
0.00121162
0.0220156
0.00123469
0.0220372
0.00125706
0.0220446
0.00127846
0.0220536
0.00129849
0.0220654
0.00131789
0.0220705
0.00133651
0.0220763
0.00135444
0.0220811
0.00137186
0.0220835
0.00138884
0.0220848
0.00140572
0.0220832
0.00142226
0.0220825
0.00143871
0.0220795
0.00145566
0.0220715
0.00147236
0.0220684
0.00148964
0.0220587
0.00150767
0.022047
0.00152548
0.0220422
0.0015452
0.0220208
0.00156525
0.0220109
0.00158585
0.0219989
0.00160895
0.0219715
0.00163185
0.0219645
0.00165759
0.0219338
0.00168443
0.021916
0.00171227
0.0218989
0.00174388
0.02186
0.00177528
0.0218516
0.00181128
0.0218058
0.00184829
0.0217875
0.00188768
0.0217583
0.00193097
0.021717
0.0217078
0.00197392
0.00045986
0.0215528
0.000528948
0.0215685
0.000591069
0.0216407
0.000652995
0.0216532
0.000711312
0.0216966
0.000767313
0.0217286
0.000822428
0.0217475
0.000873305
0.0217961
0.000924121
0.0218067
0.000971772
0.0218446
0.00101807
0.0218657
0.0010634
0.0218825
0.00110576
0.0219168
0.00114778
0.0219265
0.00118772
0.0219513
0.00122635
0.0219683
0.00126444
0.0219775
0.00130031
0.0220013
0.00133561
0.0220093
0.00137002
0.0220192
0.00140313
0.0220323
0.00143562
0.022038
0.00146733
0.0220446
0.00149829
0.0220501
0.00152866
0.0220531
0.00155848
0.022055
0.00158806
0.0220536
0.0016171
0.0220535
0.00164583
0.0220508
0.00167482
0.0220425
0.00170326
0.02204
0.00173197
0.02203
0.0017611
0.0220178
0.00178962
0.0220137
0.00181967
0.0219907
0.00184962
0.021981
0.00187967
0.0219689
0.00191178
0.0219394
0.00194321
0.021933
0.001977
0.0219
0.0020114
0.0218816
0.00204626
0.0218641
0.00208442
0.0218219
0.00212183
0.0218142
0.00216334
0.0217643
0.00220533
0.0217455
0.00224917
0.0217145
0.0022964
0.0216697
0.0216615
0.00234271
0.000275894
0.0214741
0.000353942
0.0214904
0.000425658
0.0215689
0.000497921
0.021581
0.000567129
0.0216274
0.000634529
0.0216612
0.000701554
0.0216805
0.00076483
0.0217328
0.000828578
0.021743
0.000889633
0.0217836
0.000949796
0.0218055
0.00100944
0.0218229
0.00106649
0.0218597
0.00112358
0.0218694
0.00117892
0.021896
0.00123325
0.021914
0.0012873
0.0219235
0.00133935
0.0219493
0.001391
0.0219576
0.00144191
0.0219683
0.0014916
0.0219826
0.00154072
0.0219889
0.00158906
0.0219963
0.00163662
0.0220026
0.00168349
0.0220062
0.00172966
0.0220088
0.00177541
0.0220079
0.00182039
0.0220085
0.00186476
0.0220064
0.00190908
0.0219982
0.00195248
0.0219966
0.00199573
0.0219867
0.00203897
0.0219746
0.00208107
0.0219716
0.00212422
0.0219476
0.00216669
0.0219385
0.00220868
0.0219269
0.00225215
0.0218959
0.00229428
0.0218909
0.00233816
0.0218561
0.00238198
0.0218378
0.0024256
0.0218204
0.00247187
0.0217756
0.00251668
0.0217694
0.00256498
0.021716
0.00261307
0.0216974
0.00266233
0.0216652
0.00271434
0.0216177
0.0216112
0.0027647
4.30402e-06
0.0213864
9.41814e-05
0.0214006
0.000178586
0.0214845
0.000264034
0.0214955
0.000346996
0.0215445
0.000428405
0.0215798
0.00051024
0.0215987
0.000589005
0.021654
0.000668913
0.0216631
0.000746714
0.0217058
0.00082422
0.021728
0.000901778
0.0217453
0.000977253
0.0217842
0.00105329
0.0217934
0.00112802
0.0218212
0.00120216
0.0218399
0.00127641
0.0218492
0.00134895
0.0218768
0.00142137
0.0218852
0.00149326
0.0218964
0.00156408
0.0219118
0.00163442
0.0219186
0.00170401
0.0219267
0.00177277
0.0219338
0.00184075
0.0219382
0.00190785
0.0219417
0.0019743
0.0219414
0.00203968
0.0219431
0.00210408
0.021942
0.002168
0.0219342
0.00223049
0.0219341
0.00229228
0.021925
0.00235345
0.0219134
0.0024128
0.0219123
0.00247251
0.0218878
0.00253077
0.0218802
0.00258773
0.0218699
0.00264539
0.0218383
0.0027008
0.0218355
0.00275713
0.0217998
0.0028125
0.0217824
0.00286674
0.0217662
0.00292279
0.0217196
0.00297642
0.0217157
0.0030327
0.0216597
0.00308786
0.0216423
0.00314333
0.0216098
0.00320069
0.0215604
0.0215564
0.00325547
-0.000358419
0.0212856
-0.000256576
0.0212987
-0.000159783
0.0213877
-6.07478e-05
0.0213965
3.69748e-05
0.0214467
0.000135546
0.0214812
0.00023547
0.0214988
0.000333053
0.0215565
0.000432665
0.0215635
0.000531013
0.0216074
0.000629943
0.0216291
0.000729782
0.0216455
0.000828308
0.0216857
0.000928174
0.0216935
0.00102738
0.021722
0.00112661
0.0217406
0.0012265
0.0217493
0.00132514
0.0217781
0.00142408
0.0217862
0.0015228
0.0217977
0.0016207
0.0218139
0.00171828
0.021821
0.00181518
0.0218298
0.00191124
0.0218377
0.0020064
0.0218431
0.00210048
0.0218476
0.00219362
0.0218483
0.00228528
0.0218515
0.00237546
0.0218518
0.00246459
0.0218451
0.00255159
0.0218471
0.00263713
0.0218394
0.0027212
0.0218294
0.00280249
0.021831
0.00288317
0.0218072
0.00296132
0.0218021
0.00303703
0.0217942
0.0031123
0.021763
0.00318408
0.0217637
0.00325557
0.0217283
0.00332485
0.0217132
0.00339171
0.0216993
0.00345918
0.0216521
0.00352293
0.021652
0.00358818
0.0215945
0.00365106
0.0215794
0.00371307
0.0215478
0.00377586
0.0214976
0.0214974
0.00383484
-0.000844937
0.021172
-0.000727855
0.0211816
-0.000614177
0.0212741
-0.00049674
0.021279
-0.000379381
0.0213294
-0.000261255
0.0213631
-0.000140436
0.0213779
-2.05163e-05
0.0214365
0.000102951
0.02144
0.000226414
0.021484
0.000351679
0.0215038
0.000479101
0.0215181
0.000606406
0.0215584
0.00073618
0.0215638
0.000866327
0.0215919
0.000997469
0.0216095
0.0011301
0.0216167
0.00126216
0.0216461
0.00139513
0.0216533
0.00152839
0.0216645
0.00166122
0.0216811
0.00179401
0.0216882
0.00192627
0.0216976
0.00205774
0.0217063
0.0021882
0.0217126
0.00231734
0.0217185
0.00244518
0.0217204
0.00257099
0.0217256
0.00269466
0.0217281
0.0028165
0.0217233
0.00293522
0.0217283
0.0030514
0.0217232
0.00316492
0.0217158
0.00327427
0.0217216
0.00338163
0.0216998
0.00348489
0.0216988
0.00358404
0.0216951
0.00368114
0.0216659
0.00377291
0.021672
0.0038627
0.0216385
0.00394842
0.0216274
0.0040299
0.0216179
0.00411028
0.0215717
0.00418509
0.0215772
0.00425978
0.0215198
0.00433039
0.0215088
0.00439853
0.0214796
0.00446596
0.0214301
0.0214354
0.00452796
-0.00148167
0.0210455
-0.00134947
0.0210494
-0.00121881
0.0211434
-0.00108214
0.0211424
-0.00094336
0.0211906
-0.00080103
0.0212208
-0.000653673
0.0212306
-0.000505225
0.0212881
-0.000351195
0.021286
-0.000195305
0.0213281
-3.57965e-05
0.0213443
0.000127239
0.021355
0.000291113
0.0213945
0.000458731
0.0213961
0.000628546
0.0214221
0.00080048
0.0214376
0.000975069
0.0214421
0.00115014
0.021471
0.00132706
0.0214764
0.00150504
0.0214865
0.00168323
0.0215029
0.00186187
0.0215095
0.0020403
0.0215191
0.00221812
0.0215284
0.00239487
0.0215359
0.00257006
0.0215433
0.00274354
0.021547
0.0029143
0.0215549
0.00308201
0.0215604
0.00324683
0.0215584
0.00340713
0.021568
0.00356336
0.021567
0.00371519
0.021564
0.00386082
0.021576
0.00400244
0.0215582
0.00413763
0.0215636
0.00426628
0.0215664
0.00439045
0.0215417
0.00450659
0.0215558
0.00461818
0.0215269
0.00472301
0.0215226
0.00482087
0.02152
0.00491511
0.0214775
0.00500106
0.0214912
0.00508455
0.0214363
0.00516153
0.0214318
0.0052338
0.0214073
0.00530334
0.0213606
0.0213734
0.00536532
-0.00231121
0.0209084
-0.00216471
0.0209029
-0.00201685
0.0209955
-0.00185954
0.0209851
-0.00169661
0.0210277
-0.00152638
0.0210506
-0.00134722
0.0210514
-0.00116336
0.0211042
-0.000970435
0.021093
-0.000772704
0.0211303
-0.000568731
0.0211403
-0.000358641
0.0211449
-0.00014524
0.0211811
7.36293e-05
0.0211773
0.000294123
0.0212016
0.000518196
0.0212135
0.000747032
0.0212133
0.000977711
0.0212403
0.00121159
0.0212425
0.00144774
0.0212503
0.00168519
0.0212654
0.00192399
0.0212707
0.00216327
0.0212798
0.00240243
0.0212893
0.00264071
0.0212976
0.00287729
0.0213067
0.00311178
0.0213125
0.0033427
0.021324
0.00356937
0.0213338
0.00379166
0.0213362
0.00400744
0.0213523
0.00421689
0.0213575
0.00441934
0.0213616
0.00461256
0.0213828
0.0047987
0.0213721
0.0049749
0.0213874
0.00514087
0.0214004
0.00529871
0.0213839
0.00544445
0.0214101
0.00558177
0.0213896
0.00570825
0.0213961
0.00582364
0.0214046
0.0059316
0.0213695
0.00602721
0.0213956
0.00611689
0.0213466
0.00619652
0.0213522
0.00626831
0.0213356
0.00633464
0.0212943
0.0213175
0.00639055
-0.00280185
0.0207952
-0.00267761
0.0207787
-0.00254729
0.0208652
-0.00240155
0.0208393
-0.00224334
0.0208695
-0.00207171
0.0208789
-0.00188641
0.0208661
-0.00169241
0.0209102
-0.00148702
0.0208877
-0.00127491
0.0209182
-0.00105554
0.020921
-0.000829648
0.0209191
-0.000600096
0.0209516
-0.000364776
0.020942
-0.000125232
0.020962
0.00011772
0.0209705
0.000363379
0.0209676
0.000613104
0.0209906
0.000866725
0.0209889
0.00112368
0.0209934
0.00138322
0.0210059
0.00164525
0.0210087
0.00190895
0.0210161
0.0021736
0.0210246
0.00243817
0.021033
0.00270163
0.0210433
0.00296325
0.0210509
0.00322119
0.021066
0.00347439
0.0210806
0.0037223
0.0210882
0.00396246
0.0211121
0.00419463
0.0211254
0.00441783
0.0211384
0.00462961
0.021171
0.00483176
0.0211699
0.00502137
0.0211978
0.00519801
0.0212238
0.00536354
0.0212183
0.00551421
0.0212594
0.00565337
0.0212504
0.00577876
0.0212708
0.0058901
0.0212933
0.0059907
0.0212689
0.00607603
0.0213103
0.00615193
0.0212707
0.00621481
0.0212893
0.00626703
0.0212833
0.00631141
0.0212499
0.0212847
0.00634424
-0.00312293
0.0207046
-0.00303077
0.0206865
-0.00292885
0.0207633
-0.00280079
0.0207113
-0.00264873
0.0207174
-0.00247462
0.0207048
-0.00228176
0.0206733
-0.00207747
0.0207059
-0.00186154
0.0206717
-0.00163931
0.020696
-0.00141095
0.0206926
-0.00117735
0.0206854
-0.000940928
0.0207152
-0.000699938
0.020701
-0.000456006
0.0207181
-0.000207963
0.0207225
4.50952e-05
0.0207145
0.000298084
0.0207376
0.000557219
0.0207297
0.000820864
0.0207297
0.00108862
0.0207381
0.00136049
0.0207368
0.00163565