/*--------------------------------*- C++ -*----------------------------------*\
| =========                 |                                                 |
| \\      /  F ield         | OpenFOAM: The Open Source CFD Toolbox           |
|  \\    /   O peration     | Version:  2312                                  |
|   \\  /    A nd           | Website:  www.openfoam.com                      |
|    \\/     M anipulation  |                                                 |
\*---------------------------------------------------------------------------*/
FoamFile
{
    version     2.0;
    format      ascii;
    arch        "LSB;label=32;scalar=64";
    class       volScalarField;
    location    "58.1648255662938";
    object      p;
}
// * * * * * * * * * * * * * * * * * * * * * * * * * * * * * * * * * * * * * //

dimensions      [0 2 -2 0 0 0 0];

internalField   nonuniform List<scalar> 
21039
(
0.611403
0.477546
0.435375
0.407089
0.385726
0.369595
0.357094
0.347121
0.338993
0.332259
0.326601
0.321791
0.317655
0.314063
0.310912
0.308118
0.305615
0.303346
0.301264
0.299327
0.297502
0.295759
0.294068
0.292505
0.291144
0.289946
0.288866
0.287865
0.286929
0.464284
0.426434
0.412594
0.394184
0.377378
0.364041
0.353227
0.344303
0.336876
0.330634
0.325334
0.32079
0.316859
0.313427
0.310405
0.307717
0.305302
0.303107
0.301088
0.299206
0.297427
0.295722
0.294062
0.292519
0.291166
0.289969
0.288888
0.287887
0.286949
0.374888
0.372508
0.374652
0.36787
0.35939
0.351543
0.344226
0.33762
0.331799
0.326702
0.322241
0.318329
0.314886
0.31184
0.309128
0.306696
0.304495
0.302483
0.300622
0.298878
0.29722
0.29562
0.294052
0.292581
0.291278
0.290117
0.289063
0.288084
0.287165
0.336836
0.338951
0.343409
0.342301
0.339648
0.336379
0.332514
0.328521
0.324666
0.321052
0.317722
0.314689
0.31194
0.309453
0.307199
0.305149
0.303273
0.301541
0.299925
0.298399
0.296936
0.295511
0.294102
0.292764
0.291564
0.290482
0.28949
0.288559
0.287675
0.311862
0.315826
0.321711
0.323406
0.323581
0.32281
0.32122
0.319221
0.317036
0.31479
0.312578
0.310459
0.308464
0.306605
0.30488
0.303283
0.3018
0.300415
0.299108
0.29786
0.296652
0.295461
0.294268
0.293115
0.292061
0.291094
0.29019
0.289327
0.288492
0.292282
0.29753
0.30488
0.30874
0.310728
0.311501
0.311384
0.310756
0.309799
0.308638
0.307375
0.306079
0.304796
0.303556
0.302373
0.301255
0.300199
0.299199
0.298245
0.297322
0.296415
0.295506
0.294579
0.293657
0.292787
0.291963
0.291172
0.290395
0.289624
0.279591
0.284603
0.291696
0.296636
0.299845
0.301762
0.302745
0.303139
0.303119
0.302818
0.302338
0.301752
0.30111
0.30045
0.299794
0.299156
0.298541
0.297951
0.297379
0.296817
0.296252
0.29567
0.295055
0.294409
0.293761
0.293113
0.292461
0.291791
0.2911
0.272387
0.276475
0.28221
0.287152
0.29085
0.293417
0.295136
0.296273
0.296977
0.297367
0.297539
0.297564
0.297494
0.297368
0.297212
0.297044
0.296875
0.296708
0.296542
0.296371
0.296185
0.295971
0.295714
0.295391
0.295006
0.294568
0.294081
0.293541
0.292951
0.267966
0.271155
0.275514
0.279996
0.283685
0.286476
0.288578
0.290185
0.291402
0.292323
0.293024
0.293566
0.293999
0.294359
0.294673
0.29496
0.295233
0.295497
0.295753
0.295998
0.296223
0.296417
0.296565
0.296614
0.296537
0.296349
0.296061
0.295677
0.295207
0.264669
0.267111
0.270425
0.274371
0.277869
0.280676
0.282948
0.284825
0.286383
0.287691
0.288807
0.289778
0.290646
0.291443
0.292194
0.292916
0.293623
0.294321
0.295012
0.295694
0.29636
0.297
0.2976
0.298071
0.298349
0.298451
0.298397
0.29819
0.297841
0.261788
0.263633
0.266198
0.269629
0.272885
0.27564
0.277985
0.280023
0.281813
0.283406
0.284848
0.286174
0.287418
0.288606
0.289761
0.290898
0.292029
0.29316
0.294296
0.295433
0.296568
0.297691
0.29879
0.299738
0.300425
0.300866
0.301089
0.301102
0.300917
0.259007
0.260409
0.262447
0.26541
0.268413
0.271084
0.273454
0.275592
0.277548
0.279361
0.281065
0.282691
0.284263
0.285805
0.287334
0.288866
0.290411
0.291976
0.293563
0.295171
0.296797
0.298434
0.300075
0.301551
0.302699
0.303532
0.304078
0.304348
0.304356
0.256162
0.257256
0.258929
0.261491
0.26425
0.266822
0.269185
0.271383
0.273459
0.275445
0.277366
0.279247
0.281109
0.282973
0.284852
0.286762
0.288712
0.290708
0.292752
0.294842
0.296974
0.299146
0.301357
0.303399
0.305055
0.306328
0.307244
0.307813
0.308049
0.253182
0.254064
0.255478
0.257708
0.260244
0.262711
0.265047
0.267278
0.269441
0.271562
0.273662
0.275763
0.277883
0.280039
0.282247
0.28452
0.286867
0.289293
0.291797
0.294375
0.297021
0.299733
0.302517
0.305131
0.307307
0.309044
0.310366
0.311271
0.31177
0.250046
0.25078
0.251994
0.253933
0.256257
0.258617
0.260915
0.263161
0.265385
0.267611
0.269859
0.272146
0.274493
0.276915
0.27943
0.282053
0.284791
0.287646
0.290616
0.29369
0.296854
0.300098
0.303424
0.306552
0.309188
0.311347
0.313061
0.314317
0.315111
0.247023
0.247652
0.248709
0.250434
0.252589
0.254848
0.257104
0.259353
0.261619
0.263923
0.266284
0.268721
0.271255
0.273905
0.276694
0.279635
0.282737
0.286003
0.289425
0.292983
0.296645
0.300371
0.304127
0.30756
0.310367
0.312639
0.314478
0.315912
0.316933
0.244439
0.245
0.245964
0.247555
0.249584
0.251756
0.253975
0.256229
0.258532
0.260899
0.26335
0.265908
0.268597
0.271441
0.274466
0.277689
0.281122
0.284768
0.288618
0.292642
0.296787
0.300964
0.305061
0.308567
0.311114
0.312867
0.314089
0.315041
0.315946
0.242283
0.242801
0.2437
0.245197
0.247131
0.249247
0.251458
0.253737
0.256082
0.258509
0.261042
0.263709
0.266538
0.269559
0.272801
0.276287
0.280035
0.284052
0.28833
0.292837
0.297501
0.30219
0.306695
0.310253
0.312248
0.312711
0.311909
0.310356
0.309156
0.240535
0.241105
0.242029
0.243434
0.245206
0.247218
0.249424
0.251748
0.254152
0.256647
0.259265
0.262041
0.26501
0.268205
0.27166
0.275404
0.279464
0.283856
0.288577
0.2936
0.298857
0.304195
0.309349
0.313311
0.315037
0.314028
0.309946
0.302211
0.290533
0.286023
0.285111
0.284203
0.283298
0.282395
0.281494
0.280592
0.27969
0.278786
0.277881
0.276972
0.276059
0.275143
0.274221
0.273293
0.272359
0.271419
0.270472
0.269517
0.268555
0.267585
0.266608
0.265622
0.26463
0.26363
0.262622
0.261608
0.260588
0.259562
0.258531
0.257495
0.256455
0.255412
0.254366
0.253319
0.25227
0.251222
0.250175
0.24913
0.248088
0.24705
0.246017
0.244991
0.243972
0.242962
0.24196
0.240969
0.239988
0.239019
0.286046
0.285142
0.284244
0.283349
0.282456
0.281564
0.280671
0.279778
0.278883
0.277986
0.277085
0.27618
0.27527
0.274355
0.273433
0.272504
0.271568
0.270623
0.269671
0.268711
0.267741
0.266763
0.265777
0.264782
0.263779
0.262768
0.261749
0.260724
0.259691
0.258653
0.257609
0.256561
0.255508
0.254453
0.253395
0.252336
0.251277
0.250218
0.249161
0.248107
0.247057
0.246012
0.244973
0.243941
0.242917
0.241902
0.240898
0.239905
0.238924
0.286283
0.285403
0.284527
0.283654
0.282781
0.281909
0.281035
0.28016
0.279281
0.278398
0.27751
0.276617
0.275716
0.274808
0.273892
0.272967
0.272032
0.271088
0.270133
0.269169
0.268193
0.267207
0.266211
0.265204
0.264187
0.263161
0.262125
0.261081
0.260028
0.258968
0.257901
0.256828
0.255751
0.254669
0.253583
0.252496
0.251407
0.250319
0.249231
0.248146
0.247063
0.245986
0.244914
0.243848
0.242791
0.241743
0.240705
0.239678
0.238663
0.286828
0.285984
0.285141
0.284298
0.283454
0.282608
0.281759
0.280905
0.280045
0.279179
0.278305
0.277423
0.276531
0.275628
0.274715
0.273789
0.272852
0.271902
0.270938
0.269961
0.268971
0.267968
0.266952
0.265922
0.26488
0.263826
0.26276
0.261683
0.260596
0.2595
0.258395
0.257282
0.256162
0.255036
0.253906
0.252773
0.251637
0.250499
0.249362
0.248226
0.247092
0.245962
0.244837
0.243718
0.242606
0.241503
0.240409
0.239326
0.238255
0.287691
0.286894
0.286093
0.285289
0.284481
0.283667
0.282847
0.282018
0.281181
0.280333
0.279473
0.278602
0.277717
0.276818
0.275903
0.274973
0.274027
0.273065
0.272085
0.271089
0.270076
0.269045
0.267999
0.266936
0.265857
0.264763
0.263654
0.262531
0.261396
0.260248
0.25909
0.257921
0.256744
0.255559
0.254367
0.25317
0.251969
0.250766
0.249561
0.248356
0.247152
0.245951
0.244754
0.243562
0.242376
0.241198
0.240029
0.23887
0.237722
0.288881
0.288142
0.287393
0.286637
0.285872
0.285098
0.284312
0.283514
0.282701
0.281874
0.28103
0.280169
0.27929
0.278392
0.277473
0.276534
0.275574
0.274593
0.27359
0.272566
0.27152
0.270453
0.269365
0.268256
0.267128
0.265981
0.264816
0.263633
0.262435
0.261221
0.259993
0.258752
0.2575
0.256238
0.254968
0.25369
0.252406
0.251118
0.249827
0.248534
0.247242
0.245951
0.244663
0.243379
0.2421
0.240828
0.239564
0.23831
0.237068
0.290429
0.289758
0.289071
0.288372
0.287659
0.286931
0.286185
0.285421
0.284638
0.283833
0.283006
0.282155
0.28128
0.28038
0.279453
0.2785
0.277521
0.276513
0.275479
0.274417
0.273329
0.272214
0.271073
0.269907
0.268716
0.267502
0.266265
0.265007
0.263729
0.262432
0.261118
0.259788
0.258443
0.257086
0.255717
0.25434
0.252953
0.251561
0.250164
0.248764
0.247363
0.245962
0.244562
0.243166
0.241775
0.24039
0.239011
0.237642
0.236286
0.292367
0.291778
0.291163
0.290528
0.289875
0.289199
0.288501
0.287775
0.287024
0.286243
0.285433
0.284592
0.283719
0.282814
0.281875
0.280902
0.279896
0.278855
0.27778
0.276672
0.27553
0.274356
0.273149
0.271912
0.270644
0.269348
0.268024
0.266674
0.265299
0.263902
0.262483
0.261044
0.259588
0.258115
0.256628
0.25513
0.25362
0.252102
0.250578
0.249049
0.247517
0.245984
0.244452
0.242922
0.241396
0.239876
0.238362
0.236859
0.235368
0.294748
0.294265
0.293637
0.293101
0.292537
0.291929
0.291283
0.290603
0.289887
0.289134
0.288341
0.28751
0.286637
0.285723
0.284768
0.28377
0.28273
0.281648
0.280525
0.27936
0.278154
0.276908
0.275624
0.274301
0.272942
0.271548
0.270121
0.268662
0.267172
0.265654
0.264111
0.262543
0.260953
0.259343
0.257716
0.256073
0.254417
0.25275
0.251074
0.249391
0.247705
0.246015
0.244326
0.242639
0.240955
0.239276
0.237604
0.235942
0.234297
0.297479
0.297097
0.296675
0.296217
0.295711
0.295154
0.294562
0.293943
0.293266
0.292534
0.291757
0.290933
0.290059
0.289135
0.288159
0.287132
0.286054
0.284925
0.283745
0.282515
0.281236
0.279908
0.278533
0.277113
0.275649
0.274141
0.272593
0.271007
0.269383
0.267725
0.266035
0.264315
0.262568
0.260796
0.259002
0.257189
0.255358
0.253514
0.251658
0.249794
0.247924
0.246049
0.244175
0.242301
0.240431
0.238566
0.236708
0.234863
0.233037
0.300693
0.300429
0.300106
0.299736
0.29932
0.298862
0.298358
0.297796
0.297174
0.296391
0.29566
0.29486
0.293993
0.293063
0.292071
0.291016
0.2899
0.288721
0.287483
0.286183
0.284824
0.283408
0.281933
0.280404
0.278822
0.277186
0.275502
0.27377
0.271991
0.270171
0.26831
0.266412
0.26448
0.262516
0.260524
0.258508
0.25647
0.254414
0.252343
0.250261
0.248172
0.246076
0.24398
0.241884
0.239792
0.237708
0.23563
0.233569
0.231533
0.304296
0.30417
0.30397
0.30371
0.30339
0.303006
0.302559
0.302045
0.30147
0.300829
0.300118
0.299331
0.298472
0.297544
0.296543
0.295468
0.294319
0.293097
0.291804
0.290437
0.289
0.287493
0.285915
0.284271
0.282561
0.280785
0.278949
0.277053
0.275098
0.27309
0.27103
0.268922
0.266771
0.264577
0.262348
0.260088
0.257797
0.255484
0.253151
0.250803
0.248446
0.24608
0.243714
0.241348
0.238988
0.236637
0.234297
0.231977
0.229691
0.308179
0.308209
0.308152
0.308025
0.307826
0.307552
0.307202
0.306775
0.306273
0.305692
0.305032
0.304292
0.30347
0.302566
0.301609
0.300537
0.29938
0.298137
0.296809
0.295391
0.293888
0.2923
0.290625
0.288867
0.287027
0.285103
0.283101
0.281023
0.278867
0.276643
0.27435
0.271992
0.269577
0.267104
0.264583
0.26202
0.259415
0.25678
0.254118
0.251436
0.248741
0.246036
0.243332
0.240629
0.237935
0.235256
0.232591
0.229956
0.227367
0.312121
0.312327
0.312438
0.312474
0.312431
0.312309
0.312106
0.311819
0.311449
0.31099
0.310445
0.309808
0.30908
0.308259
0.307335
0.306315
0.305219
0.303996
0.302675
0.301245
0.299711
0.298069
0.296315
0.294457
0.292492
0.290416
0.288239
0.285958
0.283573
0.281095
0.278522
0.275858
0.273115
0.270291
0.267398
0.264446
0.261434
0.25838
0.255288
0.252167
0.24903
0.24588
0.242733
0.239592
0.236469
0.233368
0.230294
0.227264
0.224299
0.315713
0.316111
0.316424
0.316676
0.316861
0.31698
0.317023
0.316985
0.316861
0.316638
0.316316
0.315884
0.315343
0.314693
0.313923
0.313029
0.312006
0.31093
0.309687
0.308299
0.306783
0.305133
0.303339
0.301408
0.299334
0.297113
0.294752
0.29225
0.289601
0.286819
0.283903
0.280857
0.277694
0.274415
0.271036
0.267567
0.264012
0.260394
0.256719
0.253004
0.249265
0.245509
0.24176
0.238026
0.234325
0.230666
0.227056
0.22352
0.220082
0.31776
0.318312
0.318869
0.319471
0.320082
0.320676
0.321208
0.321652
0.321984
0.32218
0.322242
0.322154
0.321923
0.321551
0.321032
0.320376
0.319562
0.318601
0.317545
0.316301
0.314884
0.3133
0.311532
0.309585
0.307448
0.30511
0.30258
0.299849
0.296912
0.293783
0.290459
0.286948
0.283266
0.279414
0.275415
0.271284
0.267027
0.262676
0.258239
0.253742
0.249206
0.244645
0.240095
0.235569
0.231101
0.226712
0.22242
0.21826
0.214268
0.316939
0.31755
0.318534
0.319885
0.321393
0.322904
0.324287
0.32548
0.326453
0.327188
0.327708
0.32801
0.328122
0.328059
0.327822
0.327433
0.326876
0.326154
0.325269
0.324266
0.323039
0.321602
0.319942
0.318061
0.315936
0.313547
0.310898
0.307974
0.304764
0.301286
0.297535
0.293519
0.289264
0.284771
0.280076
0.275197
0.270147
0.264967
0.259669
0.254284
0.248838
0.243348
0.237856
0.232381
0.226971
0.221668
0.21652
0.211602
0.206982
0.308711
0.309734
0.312885
0.316862
0.320695
0.324027
0.326744
0.328884
0.330533
0.331759
0.332656
0.333264
0.333646
0.333837
0.333849
0.333718
0.333429
0.332999
0.332407
0.331603
0.330719
0.329521
0.328079
0.326378
0.324372
0.32202
0.319322
0.316252
0.312789
0.308954
0.304744
0.300173
0.295276
0.290062
0.284582
0.278865
0.272934
0.266845
0.260613
0.25428
0.24787
0.241393
0.234886
0.228347
0.221817
0.215331
0.208973
0.202937
0.197502
0.28161
0.292244
0.304481
0.314421
0.321712
0.326888
0.330522
0.333108
0.334975
0.336324
0.337311
0.338002
0.338484
0.338797
0.338966
0.339033
0.338983
0.33884
0.338588
0.338141
0.337519
0.33669
0.335573
0.33415
0.332369
0.330165
0.327513
0.32437
0.320705
0.316544
0.311886
0.306754
0.301199
0.295243
0.288956
0.282387
0.275572
0.268587
0.261458
0.254239
0.246958
0.239619
0.23224
0.224773
0.217184
0.209388
0.201303
0.192999
0.185082
0.238071
0.237089
0.236021
0.234853
0.233567
0.232152
0.230637
0.2292
0.227974
0.22699
0.226282
0.225886
0.225821
0.226173
0.226972
0.228284
0.230186
0.232777
0.236183
0.240571
0.246164
0.253275
0.26235
0.274066
0.289522
0.31032
0.338153
0.379905
0.51344
0.237961
0.236961
0.235873
0.23468
0.233361
0.231907
0.230347
0.228859
0.227582
0.226544
0.225777
0.225315
0.225196
0.225462
0.22616
0.22735
0.2291
0.231496
0.234645
0.238685
0.243795
0.250213
0.258246
0.268281
0.280944
0.297176
0.315123
0.32854
0.366094
0.237666
0.236627
0.235493
0.234242
0.232853
0.231314
0.22965
0.228047
0.226649
0.225484
0.224581
0.223969
0.223679
0.223745
0.224205
0.225103
0.226488
0.228417
0.230955
0.234176
0.238161
0.242991
0.24872
0.25527
0.26245
0.270352
0.276647
0.274046
0.276142
0.237199
0.236096
0.234884
0.233543
0.232044
0.230372
0.228549
0.226769
0.225186
0.223826
0.222714
0.221873
0.221323
0.221089
0.221197
0.221668
0.222527
0.223795
0.225488
0.227609
0.230141
0.233031
0.236169
0.239285
0.241898
0.243974
0.244575
0.239652
0.237288
0.236586
0.235395
0.234079
0.232615
0.23097
0.229121
0.227088
0.225078
0.22326
0.221654
0.22028
0.219155
0.218292
0.217703
0.2174
0.217386
0.217664
0.218224
0.219047
0.220094
0.221297
0.222554
0.223729
0.224595
0.22473
0.223991
0.221793
0.215471
0.211304
0.235832
0.23453
0.233085
0.231467
0.22964
0.227576
0.225287
0.223002
0.220905
0.219015
0.217344
0.215905
0.214702
0.213739
0.213014
0.212518
0.212237
0.212146
0.212205
0.21236
0.212532
0.212609
0.212458
0.211889
0.210512
0.207986
0.203645
0.195898
0.190489
0.23493
0.233494
0.231892
0.230091
0.228047
0.225726
0.223139
0.220537
0.218126
0.215922
0.213932
0.212163
0.210614
0.209279
0.208148
0.207204
0.206423
0.205769
0.205195
0.20464
0.204022
0.203225
0.202111
0.200494
0.198019
0.19431
0.188925
0.181482
0.176349
0.23387
0.232274
0.230488
0.22847
0.226172
0.223554
0.220626
0.217669
0.214914
0.212374
0.210053
0.20795
0.20606
0.204372
0.202868
0.201524
0.200309
0.199184
0.198096
0.196982
0.19576
0.194322
0.192539
0.190252
0.187186
0.183043
0.177706
0.171677
0.167507
0.232632
0.23085
0.228847
0.226578
0.223986
0.221028
0.217717
0.21437
0.211248
0.208358
0.205702
0.203274
0.201062
0.19905
0.197215
0.195528
0.193954
0.192451
0.190966
0.189439
0.187795
0.185945
0.183785
0.181199
0.177986
0.173919
0.169105
0.164517
0.161281
0.231178
0.229179
0.226926
0.224365
0.221437
0.218095
0.214358
0.21059
0.207083
0.203839
0.200855
0.19812
0.195615
0.19332
0.191206
0.189241
0.187388
0.185603
0.183838
0.182038
0.180138
0.17807
0.175753
0.1731
0.169962
0.166171
0.161967
0.158488
0.15603
0.229447
0.227194
0.22465
0.221753
0.218441
0.214668
0.210464
0.206249
0.202346
0.198753
0.19546
0.192447
0.18969
0.187162
0.18483
0.182658
0.180607
0.178634
0.176694
0.174737
0.172711
0.170557
0.168213
0.165608
0.162632
0.15918
0.155573
0.152909
0.151075
0.227336
0.224787
0.221903
0.218617
0.214868
0.210614
0.205906
0.201225
0.196929
0.193007
0.189436
0.186189
0.183233
0.180533
0.17805
0.175745
0.173576
0.171502
0.169478
0.16746
0.1654
0.163252
0.160963
0.158474
0.155706
0.152618
0.14957
0.147498
0.14613
0.224688
0.221787
0.218505
0.21477
0.210526
0.205744
0.200501
0.195353
0.190686
0.186473
0.182678
0.179258
0.176171
0.173372
0.170815
0.168456
0.166251
0.164157
0.162132
0.160132
0.158117
0.156046
0.153874
0.151552
0.149025
0.146301
0.143752
0.142107
0.141067
0.221226
0.217907
0.214158
0.209909
0.205115
0.19977
0.19399
0.188406
0.183424
0.178991
0.175052
0.171546
0.168416
0.165607
0.163065
0.160739
0.158583
0.156551
0.154602
0.152695
0.150793
0.14886
0.146857
0.144741
0.142475
0.140105
0.137988
0.13666
0.135849
0.216523
0.212702
0.208415
0.203594
0.198217
0.192315
0.186046
0.180112
0.174919
0.170382
0.166416
0.16294
0.159881
0.15717
0.154745
0.15255
0.150532
0.148648
0.146853
0.14511
0.143382
0.141639
0.139845
0.137963
0.135976
0.133957
0.132228
0.131148
0.130491
0.210159
0.205805
0.20098
0.195632
0.189772
0.183461
0.176893
0.170812
0.165602
0.161139
0.157311
0.154014
0.151159
0.148666
0.146464
0.144494
0.1427
0.141035
0.139458
0.137931
0.13642
0.134897
0.133331
0.131695
0.129982
0.128274
0.126858
0.125977
0.125427
0.202279
0.19741
0.192179
0.186525
0.18045
0.174019
0.167437
0.161458
0.156437
0.15222
0.148671
0.14567
0.143114
0.140916
0.139002
0.137307
0.135777
0.134364
0.133027
0.131729
0.13044
0.129131
0.127781
0.126374
0.124914
0.123472
0.122294
0.121561
0.121088
0.192271
0.187176
0.182037
0.176558
0.170666
0.164433
0.158093
0.152417
0.147738
0.143886
0.140709
0.138073
0.135869
0.134006
0.132406
0.131005
0.12975
0.128595
0.127498
0.126427
0.125349
0.124236
0.123071
0.121853
0.120607
0.119396
0.118422
0.11782
0.117411
0.178798
0.17491
0.170951
0.166229
0.160874
0.155074
0.149154
0.143917
0.139677
0.13626
0.133502
0.131264
0.129431
0.12791
0.126626
0.125516
0.124527
0.123617
0.122747
0.121884
0.120995
0.12005
0.119037
0.117995
0.116998
0.116081
0.115313
0.114764
0.114336
0.238741
0.239093
0.239839
0.24127
0.243239
0.245461
0.247798
0.250191
0.252645
0.255203
0.257911
0.260804
0.26392
0.267296
0.270969
0.274976
0.279349
0.284113
0.289272
0.294806
0.300655
0.306663
0.312528
0.317085
0.318908
0.316796
0.309199
0.293766
0.262076
0.236948
0.237424
0.238287
0.239712
0.241602
0.243754
0.246059
0.248464
0.250972
0.253618
0.256438
0.259469
0.26275
0.266321
0.270225
0.274506
0.279204
0.284352
0.289972
0.296066
0.302616
0.309532
0.316598
0.322752
0.326626
0.327506
0.324791
0.320282
0.324389
0.235111
0.235669
0.23662
0.238044
0.239871
0.241951
0.244206
0.246599
0.249136
0.251844
0.254752
0.257895
0.261314
0.265053
0.269163
0.273696
0.278706
0.284246
0.290366
0.297121
0.304588
0.312854
0.322015
0.331548
0.340482
0.349067
0.357622
0.364724
0.381276
0.233203
0.233741
0.234667
0.236081
0.237916
0.240007
0.242261
0.244656
0.247213
0.24996
0.25293
0.256159
0.259688
0.263568
0.267855
0.272613
0.277912
0.283829
0.290451
0.297899
0.306374
0.316191
0.327819
0.341394
0.355995
0.372079
0.390274
0.407083
0.428771
0.231227
0.231731
0.232608
0.233993
0.235833
0.237941
0.240207
0.24261
0.24518
0.247954
0.250968
0.25426
0.257875
0.261868
0.266302
0.27125
0.276798
0.283047
0.29012
0.298199
0.307602
0.318869
0.332641
0.349721
0.368738
0.390566
0.414707
0.439235
0.466562
0.229184
0.229671
0.230517
0.231867
0.233678
0.235771
0.238026
0.240424
0.242996
0.245782
0.24882
0.25215
0.255822
0.259892
0.264431
0.269519
0.275255
0.281758
0.289181
0.297745
0.307852
0.320257
0.335385
0.354805
0.375924
0.400742
0.428976
0.459255
0.489445
0.227069
0.227547
0.22837
0.229681
0.231445
0.233495
0.235718
0.238091
0.240645
0.24342
0.246456
0.249794
0.253484
0.257588
0.262177
0.26734
0.273183
0.279837
0.287472
0.296312
0.306788
0.31992
0.335274
0.355866
0.379273
0.404804
0.432131
0.460467
0.488904
0.224878
0.225343
0.226142
0.227408
0.229114
0.231108
0.23328
0.235609
0.238122
0.24086
0.243863
0.247173
0.25084
0.254926
0.259504
0.264666
0.270518
0.277198
0.284885
0.293742
0.3042
0.317078
0.333568
0.353885
0.376734
0.400768
0.425218
0.449732
0.474083
0.222606
0.22306
0.223831
0.225045
0.226681
0.228605
0.23071
0.232974
0.235423
0.238097
0.241034
0.244277
0.247874
0.251886
0.256387
0.261463
0.267218
0.273783
0.281368
0.2899
0.300225
0.312936
0.32896
0.347932
0.368524
0.389762
0.410892
0.431671
0.451401
0.220254
0.220696
0.221437
0.222593
0.224149
0.225986
0.228006
0.230184
0.232545
0.235126
0.237963
0.241098
0.244577
0.248458
0.252809
0.257712
0.263258
0.269553
0.276767
0.285118
0.294947
0.306886
0.32142
0.338282
0.355996
0.373812
0.39116
0.408055
0.423515
0.217819
0.218247
0.218954
0.220047
0.221514
0.223252
0.225169
0.227241
0.22949
0.231949
0.234653
0.23764
0.240953
0.244644
0.248775
0.253421
0.258648
0.264585
0.27137
0.279177
0.288198
0.298903
0.311571
0.325889
0.340442
0.354561
0.367847
0.380613
0.392006
0.215302
0.215717
0.216389
0.217413
0.218782
0.220407
0.222204
0.22415
0.226262
0.228571
0.23111
0.233911
0.237011
0.240457
0.244302
0.248611
0.253455
0.258922
0.265123
0.272142
0.280126
0.28937
0.300005
0.311577
0.322876
0.333355
0.342775
0.35161
0.359279
0.212709
0.213113
0.213752
0.214704
0.215963
0.217459
0.219116
0.220913
0.222865
0.224998
0.227339
0.229916
0.23276
0.235909
0.23941
0.243319
0.247689
0.252577
0.258053
0.264152
0.27096
0.278629
0.287141
0.295961
0.30415
0.311334
0.317426
0.322941
0.327527
0.210038
0.210428
0.211027
0.2119
0.213047
0.214406
0.215912
0.217545
0.219316
0.221248
0.223364
0.225683
0.228232
0.231041
0.234146
0.23759
0.241407
0.245629
0.250288
0.255385
0.260938
0.266987
0.273397
0.279641
0.285072
0.289492
0.29294
0.295912
0.298246
0.207296
0.207673
0.208232
0.209024
0.210051
0.211263
0.212605
0.214058
0.215631
0.217341
0.219206
0.22124
0.223463
0.225894
0.22856
0.231486
0.23469
0.238184
0.241968
0.24601
0.250276
0.254725
0.259151
0.263107
0.266224
0.268455
0.269926
0.27111
0.272012
0.20449
0.204856
0.205375
0.206084
0.206985
0.208042
0.209207
0.210466
0.211825
0.213295
0.21489
0.216618
0.218486
0.220507
0.222695
0.225061
0.227608
0.230328
0.233195
0.236153
0.23913
0.24204
0.244647
0.246621
0.247854
0.248425
0.248505
0.248541
0.248697
0.201626
0.201978
0.202453
0.203076
0.203851
0.20475
0.205733
0.20679
0.207922
0.209141
0.210453
0.211854
0.213346
0.214933
0.216615
0.218392
0.22025
0.222165
0.224092
0.225957
0.227669
0.229121
0.230075
0.230349
0.230075
0.229427
0.228576
0.227941
0.227839
0.198713
0.199052
0.199482
0.20002
0.200667
0.201407
0.2022
0.203047
0.203947
0.204909
0.205925
0.206988
0.208091
0.209227
0.210387
0.211555
0.212706
0.213801
0.21478
0.215557
0.216037
0.216108
0.215554
0.214357
0.212862
0.211312
0.209834
0.208811
0.208714
0.195761
0.196089
0.196478
0.19693
0.197449
0.19803
0.198622
0.199255
0.199925
0.200623
0.201337
0.202055
0.202762
0.20344
0.204068
0.20462
0.205056
0.205326
0.205356
0.205057
0.204331
0.203077
0.201112
0.198588
0.19605
0.193782
0.191833
0.190549
0.190558
0.192777
0.193094
0.193437
0.193804
0.194198
0.194631
0.195006
0.195451
0.195885
0.196316
0.196729
0.197103
0.197413
0.197632
0.19773
0.197667
0.197393
0.196842
0.195934
0.194571
0.192658
0.190106
0.186771
0.182983
0.179478
0.176569
0.174208
0.172696
0.172816
0.189775
0.19008
0.190378
0.190662
0.190932
0.191186
0.191427
0.191651
0.19185
0.192022
0.19214
0.192175
0.192096
0.191867
0.191445
0.190782
0.189813
0.188462
0.186635
0.184229
0.181143
0.177299
0.172588
0.167514
0.163018
0.159448
0.156641
0.154862
0.155047
0.186763
0.18706
0.187313
0.187518
0.187668
0.187776
0.187848
0.187868
0.187845
0.187768
0.187602
0.187312
0.186858
0.186197
0.185277
0.184037
0.182401
0.180279
0.177564
0.17414
0.169896
0.164747
0.158603
0.152135
0.146519
0.142165
0.138796
0.136658
0.136855
0.183754
0.184048
0.18426
0.184385
0.184436
0.1844
0.184293
0.184123
0.183894
0.183581
0.183146
0.182548
0.18174
0.180672
0.179281
0.177497
0.175231
0.172381
0.168822
0.164419
0.159038
0.152568
0.144906
0.136857
0.129871
0.124478
0.120319
0.117669
0.117838
0.180758
0.181048
0.181203
0.181288
0.181228
0.181049
0.180782
0.180442
0.180023
0.179493
0.178809
0.177925
0.176789
0.175342
0.173516
0.17123
0.168384
0.16486
0.160516
0.155192
0.14872
0.140936
0.131679
0.121832
0.113131
0.106301
0.100958
0.0975307
0.0976202
0.177785
0.178063
0.178209
0.178229
0.178059
0.177747
0.177335
0.176841
0.17625
0.175525
0.174617
0.173475
0.172042
0.170255
0.168038
0.1653
0.161934
0.157806
0.152757
0.1466
0.139123
0.13009
0.119234
0.107419
0.0966204
0.0877966
0.0806093
0.0759199
0.0758854
0.174845
0.17511
0.17523
0.175177
0.174911
0.174489
0.173959
0.173338
0.172604
0.171711
0.170606
0.169237
0.167542
0.165456
0.162896
0.159767
0.15595
0.151301
0.145643
0.138765
0.130412
0.12027
0.107943
0.0941817
0.0810641
0.0697034
0.0597433
0.0528503
0.0525617
0.171967
0.172273
0.172417
0.172321
0.171944
0.171368
0.170688
0.169939
0.169081
0.168049
0.166782
0.165222
0.16331
0.160974
0.158132
0.15468
0.150495
0.145424
0.139278
0.131827
0.122786
0.111767
0.098225
0.0827438
0.0673681
0.053224
0.0396625
0.0285828
0.0262565
0.145817
0.127907
0.103298
0.0721181
0.037446
0.00368151
-0.0262738
-0.0541182
-0.0794585
-0.107104
-0.135187
-0.168361
-0.202581
-0.234732
-0.260773
-0.278071
-0.286659
-0.288781
-0.288202
0.152058
0.13792
0.114231
0.0820545
0.0437196
0.00320556
-0.0358595
-0.0756327
-0.112646
-0.153772
-0.195557
-0.238196
-0.279285
-0.315463
-0.34336
-0.361702
-0.371713
-0.37603
-0.377526
0.145907
0.13275
0.110444
0.0781143
0.0373497
-0.00824774
-0.0544766
-0.105034
-0.155564
-0.206836
-0.258318
-0.308849
-0.355628
-0.395284
-0.425224
-0.445061
-0.456558
-0.462415
-0.465252
0.134076
0.121356
0.10088
0.0691118
0.0260858
-0.0247113
-0.079745
-0.137678
-0.197325
-0.257904
-0.318385
-0.37677
-0.429397
-0.47261
-0.504349
-0.525093
-0.53737
-0.544168
-0.547946
0.119915
0.107883
0.0882424
0.0563735
0.0115517
-0.0427824
-0.103492
-0.168278
-0.236057
-0.305574
-0.374459
-0.439446
-0.49622
-0.541312
-0.573617
-0.594633
-0.607506
-0.615202
-0.619786
0.101028
0.0892
0.0704787
0.0392361
-0.00620351
-0.0627048
-0.127324
-0.198185
-0.273277
-0.350293
-0.425743
-0.495322
-0.554517
-0.600528
-0.633312
-0.655111
-0.669343
-0.678733
-0.684913
0.0777259
0.0648331
0.0462964
0.0157409
-0.0296037
-0.0873272
-0.15471
-0.229835
-0.309951
-0.391659
-0.470465
-0.541304
-0.599823
-0.644163
-0.675324
-0.696126
-0.710121
-0.719662
-0.726035
0.0513532
0.036363
0.0167345
-0.014091
-0.0594869
-0.117765
-0.186497
-0.263568
-0.345789
-0.42897
-0.507826
-0.576966
-0.632655
-0.674141
-0.703267
-0.723087
-0.736949
-0.746688
-0.753351
0.0229168
0.00538928
-0.0163224
-0.0485424
-0.0945357
-0.152972
-0.221733
-0.298668
-0.380311
-0.461878
-0.537596
-0.602255
-0.653077
-0.690368
-0.716533
-0.734615
-0.747662
-0.757055
-0.763534
-0.00672501
-0.0267588
-0.0509802
-0.0852733
-0.132326
-0.190754
-0.258665
-0.333993
-0.413105
-0.490845
-0.561355
-0.620054
-0.665274
-0.698208
-0.721561
-0.738198
-0.750789
-0.760367
-0.767324
-0.0365729
-0.0588485
-0.085593
-0.122165
-0.170545
-0.228988
-0.295615
-0.368311
-0.443196
-0.514875
-0.577823
-0.628511
-0.666472
-0.693596
-0.71267
-0.726284
-0.736675
-0.74465
-0.750404
-0.065414
-0.0895164
-0.118485
-0.157088
-0.206679
-0.264993
-0.329951
-0.399219
-0.468678
-0.533031
-0.587584
-0.630115
-0.661203
-0.68311
-0.698443
-0.709388
-0.717697
-0.724062
-0.728568
-0.0920986
-0.117548
-0.148262
-0.188341
-0.238659
-0.296435
-0.359316
-0.424717
-0.488405
-0.545493
-0.592348
-0.627944
-0.653572
-0.671575
-0.684267
-0.693461
-0.700544
-0.706181
-0.710286
-0.115774
-0.14215
-0.174137
-0.2151
-0.265572
-0.322304
-0.382621
-0.443631
-0.50109
-0.550765
-0.590209
-0.619447
-0.640213
-0.654747
-0.665021
-0.672505
-0.678269
-0.682921
-0.68628
-0.135842
-0.162824
-0.19568
-0.237004
-0.287078
-0.342229
-0.399483
-0.45571
-0.506887
-0.54967
-0.582771
-0.606997
-0.624243
-0.636497
-0.645356
-0.651959
-0.657121
-0.661365
-0.664447
-0.152056
-0.179459
-0.212904
-0.254235
-0.303526
-0.356731
-0.410668
-0.462128
-0.507522
-0.544452
-0.572583
-0.593189
-0.608133
-0.61911
-0.627386
-0.633843
-0.639119
-0.643626
-0.647022
-0.164515
-0.192319
-0.226252
-0.267485
-0.315855
-0.366911
-0.417281
-0.463817
-0.503581
-0.535187
-0.559084
-0.576787
-0.589979
-0.600029
-0.607899
-0.614245
-0.619563
-0.624135
-0.627587
-0.173398
-0.201719
-0.236196
-0.277446
-0.324999
-0.37394
-0.42076
-0.46256
-0.497231
-0.524354
-0.544941
-0.560559
-0.572637
-0.582219
-0.589994
-0.596418
-0.601876
-0.606539
-0.610049
-0.178965
-0.208036
-0.243268
-0.284881
-0.332015
-0.379226
-0.422906
-0.460538
-0.490891
-0.514375
-0.532383
-0.546433
-0.557699
-0.566951
-0.574661
-0.581138
-0.586682
-0.5914
-0.594952
-0.181522
-0.211673
-0.248031
-0.290569
-0.337863
-0.383756
-0.42453
-0.458218
-0.484582
-0.504808
-0.520549
-0.533184
-0.543617
-0.552372
-0.559747
-0.565943
-0.571205
-0.57561
-0.57888
-0.181185
-0.21282
-0.2508
-0.295012
-0.343238
-0.388425
-0.426741
-0.456908
-0.479728
-0.497089
-0.510813
-0.522128
-0.531699
-0.539846
-0.546732
-0.552477
-0.557281
-0.561221
-0.564101
-0.178018
-0.211606
-0.251822
-0.298573
-0.348575
-0.393701
-0.429993
-0.456992