/*--------------------------------*- C++ -*----------------------------------*\
| =========                 |                                                 |
| \\      /  F ield         | OpenFOAM: The Open Source CFD Toolbox           |
|  \\    /   O peration     | Version:  2312                                  |
|   \\  /    A nd           | Website:  www.openfoam.com                      |
|    \\/     M anipulation  |                                                 |
\*---------------------------------------------------------------------------*/
FoamFile
{
    version     2.0;
    format      ascii;
    arch        "LSB;label=32;scalar=64";
    class       volScalarField;
    location    "89.280606151426298";
    object      p;
}
// * * * * * * * * * * * * * * * * * * * * * * * * * * * * * * * * * * * * * //

dimensions      [0 2 -2 0 0 0 0];

internalField   nonuniform List<scalar> 
21039
(
0.592338
0.458454
0.416341
0.388105
0.36681
0.350764
0.338369
0.328523
0.320542
0.313979
0.308516
0.303926
0.300036
0.296717
0.293867
0.291404
0.289262
0.287385
0.285726
0.284246
0.282909
0.281687
0.280549
0.279529
0.278648
0.277863
0.277138
0.276441
0.275761
0.445173
0.407326
0.393529
0.37517
0.358431
0.345178
0.334469
0.32567
0.318389
0.312316
0.307209
0.302883
0.299196
0.296036
0.293313
0.290954
0.288899
0.287095
0.285499
0.284073
0.282782
0.281598
0.280493
0.279494
0.278622
0.27784
0.277115
0.27642
0.27574
0.355705
0.353332
0.355514
0.348783
0.340366
0.332601
0.325384
0.3189
0.313221
0.308289
0.304017
0.300318
0.297115
0.294336
0.29192
0.289814
0.287969
0.286346
0.284905
0.283616
0.282446
0.281368
0.280356
0.279432
0.278613
0.27787
0.277176
0.276505
0.275847
0.317546
0.319669
0.324157
0.323094
0.3205
0.317307
0.313538
0.30966
0.305942
0.302486
0.299339
0.296513
0.293997
0.29177
0.289806
0.288076
0.28655
0.285202
0.284004
0.28293
0.281954
0.281053
0.280202
0.279415
0.278704
0.278047
0.277419
0.276801
0.276183
0.292434
0.296407
0.302311
0.304041
0.304266
0.303565
0.302063
0.300173
0.298116
0.29602
0.293982
0.292061
0.29029
0.288682
0.287238
0.285952
0.284813
0.283804
0.28291
0.282111
0.281388
0.280721
0.28009
0.279495
0.278937
0.2784
0.277868
0.277324
0.276761
0.272681
0.27794
0.285299
0.289181
0.29121
0.292044
0.292006
0.291475
0.290637
0.289615
0.288513
0.287403
0.286332
0.285332
0.284418
0.2836
0.282877
0.282245
0.281695
0.281215
0.280791
0.280407
0.280045
0.279687
0.279321
0.278937
0.278526
0.278076
0.277584
0.259779
0.264805
0.2719
0.276851
0.28009
0.282056
0.283106
0.283585
0.283671
0.283495
0.283162
0.282746
0.282301
0.281864
0.28146
0.281107
0.280812
0.280577
0.280399
0.280271
0.280185
0.280125
0.280078
0.280004
0.279869
0.279672
0.27941
0.279077
0.278673
0.25233
0.256433
0.262167
0.26711
0.270826
0.27343
0.275203
0.276411
0.277203
0.277701
0.278002
0.278177
0.278283
0.27836
0.278436
0.278534
0.278664
0.278835
0.279048
0.279299
0.279582
0.279886
0.280199
0.280454
0.280592
0.280617
0.280536
0.280347
0.280054
0.247637
0.25084
0.255195
0.259671
0.263368
0.266182
0.268323
0.269983
0.271269
0.272276
0.273083
0.273752
0.274335
0.274872
0.275392
0.275918
0.276465
0.277044
0.277658
0.278307
0.278988
0.27969
0.280409
0.281037
0.28149
0.281774
0.281901
0.28188
0.281726
0.244045
0.246498
0.249808
0.253744
0.257239
0.260056
0.262348
0.264258
0.265863
0.267232
0.268425
0.269494
0.270481
0.271422
0.272346
0.273273
0.274222
0.275203
0.276223
0.277284
0.278385
0.27952
0.280679
0.28173
0.282545
0.283128
0.283496
0.28366
0.283647
0.240859
0.242709
0.245268
0.248687
0.251931
0.25468
0.257027
0.259075
0.260885
0.26251
0.263996
0.265384
0.266708
0.268001
0.269286
0.270586
0.271917
0.27329
0.274715
0.276196
0.277734
0.279326
0.280967
0.282488
0.283714
0.284646
0.285304
0.285699
0.285852
0.237771
0.239172
0.2412
0.244147
0.24713
0.249781
0.252131
0.254254
0.256199
0.258009
0.25972
0.261363
0.26297
0.264567
0.266177
0.267819
0.269509
0.271261
0.273085
0.274986
0.276971
0.279039
0.281192
0.283226
0.284909
0.286235
0.287225
0.287888
0.288244
0.234631
0.235716
0.237375
0.239916
0.242647
0.245181
0.247501
0.249656
0.251687
0.253629
0.255511
0.25736
0.259203
0.261062
0.262959
0.264913
0.266939
0.269053
0.271264
0.273581
0.27601
0.278559
0.281238
0.283809
0.285985
0.287747
0.289112
0.290084
0.290679
0.231381
0.232247
0.23364
0.235841
0.238337
0.24075
0.243017
0.245172
0.247251
0.249283
0.251293
0.253304
0.255339
0.257422
0.259571
0.261807
0.264145
0.266601
0.269185
0.271903
0.274763
0.277775
0.28096
0.284053
0.286721
0.288934
0.2907
0.292011
0.292878
0.228014
0.228726
0.229907
0.231808
0.234079
0.236363
0.238566
0.2407
0.242797
0.244884
0.246982
0.249114
0.251302
0.253568
0.255934
0.258421
0.261046
0.263824
0.266761
0.269863
0.27313
0.276568
0.280198
0.283728
0.286804
0.289407
0.291549
0.293204
0.294367
0.224827
0.225425
0.22644
0.228115
0.230202
0.232366
0.234499
0.236601
0.238697
0.24081
0.242962
0.245175
0.247472
0.249878
0.252419
0.255117
0.257993
0.261059
0.26432
0.267772
0.271402
0.275189
0.279121
0.282848
0.286016
0.288677
0.290909
0.292721
0.294099
0.222146
0.222671
0.223581
0.225112
0.227062
0.229122
0.231194
0.23327
0.235364
0.237494
0.239682
0.241953
0.244333
0.246849
0.249533
0.252412
0.255507
0.258833
0.262392
0.266174
0.270144
0.274238
0.278369
0.282042
0.284851
0.286918
0.288478
0.289768
0.291002
0.219942
0.220419
0.221257
0.222683
0.224526
0.226515
0.22856
0.230634
0.232738
0.234888
0.237111
0.239434
0.241889
0.244508
0.247326
0.250375
0.25368
0.257262
0.261125
0.265255
0.269604
0.274063
0.278453
0.282043
0.284191
0.284882
0.284345
0.283066
0.282146
0.218179
0.218705
0.219561
0.220886
0.222558
0.224431
0.226452
0.228549
0.230684
0.232868
0.235135
0.23752
0.240056
0.242785
0.245742
0.248965
0.252488
0.256338
0.260528
0.265049
0.269854
0.274822
0.279714
0.283569
0.285336
0.284466
0.280578
0.273047
0.261502
0.275093
0.274422
0.273758
0.2731
0.272447
0.271797
0.27115
0.270505
0.269861
0.269218
0.268573
0.267926
0.267277
0.266625
0.265969
0.265308
0.264642
0.26397
0.263292
0.262607
0.261916
0.261217
0.260512
0.259799
0.259079
0.258352
0.257619
0.256879
0.256132
0.25538
0.254622
0.25386
0.253093
0.252322
0.251548
0.250772
0.249995
0.249217
0.248439
0.247663
0.246889
0.246118
0.245351
0.244589
0.243832
0.243083
0.24234
0.241606
0.240881
0.275076
0.274414
0.273761
0.273114
0.272471
0.271832
0.271195
0.270561
0.269927
0.269292
0.268657
0.26802
0.267379
0.266735
0.266086
0.265432
0.264771
0.264104
0.263431
0.26275
0.262061
0.261364
0.260659
0.259946
0.259226
0.258497
0.25776
0.257017
0.256266
0.255509
0.254745
0.253976
0.253202
0.252424
0.251643
0.250858
0.250071
0.249284
0.248496
0.247709
0.246924
0.246142
0.245363
0.244589
0.243821
0.24306
0.242306
0.24156
0.240823
0.275206
0.27457
0.273942
0.273319
0.272701
0.272085
0.27147
0.270857
0.270243
0.269627
0.269008
0.268386
0.26776
0.267127
0.266489
0.265843
0.265189
0.264527
0.263856
0.263175
0.262485
0.261786
0.261076
0.260357
0.259627
0.258888
0.25814
0.257383
0.256617
0.255843
0.255062
0.254274
0.253479
0.25268
0.251875
0.251067
0.250256
0.249443
0.24863
0.247816
0.247003
0.246193
0.245385
0.244582
0.243784
0.242992
0.242207
0.241431
0.240663
0.275581
0.274985
0.274394
0.273807
0.273222
0.272637
0.272053
0.271467
0.270878
0.270285
0.269687
0.269083
0.268472
0.267852
0.267223
0.266584
0.265935
0.265274
0.264602
0.263918
0.263221
0.262512
0.26179
0.261056
0.26031
0.259551
0.258781
0.258
0.257208
0.256405
0.255594
0.254773
0.253945
0.25311
0.252268
0.251422
0.250571
0.249717
0.24886
0.248003
0.247146
0.246289
0.245435
0.244584
0.243738
0.242896
0.242062
0.241234
0.240415
0.27621
0.275668
0.275125
0.274583
0.274041
0.273496
0.272948
0.272396
0.271837
0.271271
0.270697
0.270112
0.269517
0.26891
0.268291
0.267657
0.26701
0.266347
0.265669
0.264976
0.264267
0.263542
0.262801
0.262044
0.261272
0.260485
0.259683
0.258867
0.258037
0.257195
0.256341
0.255476
0.254601
0.253717
0.252824
0.251925
0.251019
0.250109
0.249195
0.248278
0.24736
0.246442
0.245524
0.244609
0.243697
0.242789
0.241886
0.24099
0.240102
0.277099
0.276621
0.276139
0.275654
0.275164
0.274668
0.274165
0.273652
0.273129
0.272595
0.272047
0.271486
0.270909
0.270315
0.269704
0.269074
0.268426
0.267758
0.267071
0.266363
0.265636
0.264888
0.26412
0.263332
0.262525
0.2617
0.260856
0.259994
0.259116
0.258222
0.257313
0.25639
0.255454
0.254507
0.253549
0.252582
0.251607
0.250625
0.249637
0.248645
0.247651
0.246654
0.245657
0.24466
0.243666
0.242674
0.241687
0.240705
0.239731
0.278266
0.277867
0.277457
0.277039
0.276613
0.276175
0.275724
0.275259
0.274779
0.274281
0.273764
0.273227
0.272669
0.272089
0.271486
0.270859
0.270208
0.269532
0.26883
0.268103
0.26735
0.266572
0.26577
0.264942
0.264091
0.263217
0.26232
0.261401
0.260462
0.259503
0.258525
0.257531
0.25652
0.255495
0.254457
0.253406
0.252345
0.251276
0.250198
0.249114
0.248026
0.246933
0.24584
0.244745
0.243651
0.242558
0.241468
0.240384
0.239307
0.279738
0.279428
0.279104
0.278765
0.278413
0.278042
0.277653
0.277243
0.27681
0.276354
0.275871
0.275363
0.274826
0.27426
0.273664
0.273038
0.272381
0.271692
0.270971
0.270219
0.269435
0.26862
0.267774
0.266899
0.265993
0.265059
0.264098
0.26311
0.262097
0.26106
0.26
0.258919
0.257819
0.2567
0.255564
0.254414
0.25325
0.252075
0.250889
0.249696
0.248495
0.247289
0.24608
0.244868
0.243655
0.242444
0.241233
0.240028
0.238831
0.281544
0.281323
0.281094
0.280848
0.28058
0.280287
0.279968
0.27962
0.279242
0.278833
0.278389
0.277912
0.277398
0.276847
0.276259
0.275632
0.274967
0.274263
0.27352
0.272738
0.271917
0.271058
0.270162
0.269229
0.26826
0.267257
0.26622
0.265151
0.26405
0.262921
0.261764
0.260581
0.259374
0.258144
0.256894
0.255626
0.25434
0.25304
0.251727
0.250403
0.24907
0.247729
0.246384
0.245034
0.243683
0.242331
0.240979
0.239633
0.238297
0.283613
0.283573
0.283466
0.283309
0.283129
0.282915
0.282673
0.282395
0.282079
0.281723
0.281325
0.280883
0.280397
0.279865
0.279286
0.278661
0.277989
0.277269
0.276502
0.275687
0.274826
0.273919
0.272967
0.27197
0.27093
0.269847
0.268724
0.267562
0.266362
0.265126
0.263856
0.262554
0.261223
0.259863
0.258478
0.25707
0.25564
0.254193
0.252728
0.25125
0.249761
0.248261
0.246755
0.245243
0.243728
0.242212
0.240696
0.239185
0.237688
0.285956
0.286049
0.286104
0.286121
0.28609
0.28585
0.285716
0.285531
0.285294
0.285005
0.284664
0.28427
0.283821
0.283316
0.282756
0.282139
0.281465
0.280734
0.279948
0.279104
0.278204
0.277249
0.276238
0.275175
0.274059
0.27289
0.271673
0.270407
0.269094
0.267737
0.266338
0.264898
0.263422
0.261909
0.260365
0.258792
0.257191
0.255568
0.253923
0.252261
0.250584
0.248894
0.247196
0.245491
0.243781
0.242071
0.240359
0.238655
0.236968
0.288519
0.28875
0.288921
0.289049
0.289135
0.289168
0.28914
0.289045
0.288874
0.288664
0.288394
0.288061
0.287664
0.287204
0.286678
0.286087
0.285427
0.284701
0.283909
0.283047
0.282119
0.281125
0.280062
0.278935
0.277744
0.276487
0.275169
0.273791
0.272353
0.27086
0.269313
0.267713
0.266067
0.264373
0.262638
0.260867
0.259058
0.257221
0.255355
0.253467
0.251561
0.249638
0.247705
0.245763
0.243817
0.24187
0.239923
0.237987
0.236074
0.29116
0.291567
0.291902
0.29218
0.292401
0.292564
0.292668
0.292711
0.292686
0.292589
0.292425
0.292192
0.291889
0.291516
0.291063
0.290534
0.289925
0.289236
0.288469
0.287618
0.286687
0.285675
0.284578
0.283402
0.282144
0.280803
0.279385
0.277889
0.276315
0.274668
0.27295
0.271162
0.269312
0.267398
0.26543
0.263411
0.261343
0.259236
0.257092
0.254918
0.252721
0.250502
0.248272
0.246032
0.24379
0.241548
0.239309
0.237087
0.234897
0.293594
0.2942
0.294729
0.295198
0.295605
0.295951
0.296233
0.296448
0.296598
0.296674
0.296677
0.296598
0.296441
0.296282
0.295965
0.295568
0.295071
0.294478
0.293791
0.293001
0.292113
0.291124
0.290028
0.288831
0.287529
0.286118
0.284605
0.282988
0.281264
0.279443
0.277523
0.275506
0.273403
0.271211
0.268942
0.266603
0.264194
0.261732
0.259218
0.256665
0.25408
0.251469
0.248846
0.246213
0.243583
0.240959
0.238346
0.235762
0.233226
0.295346
0.296165
0.296921
0.297637
0.298308
0.298936
0.29951
0.300025
0.300475
0.300848
0.30114
0.301338
0.301436
0.301428
0.30131
0.301358
0.301038
0.300621
0.3001
0.299451
0.298681
0.297784
0.296749
0.295582
0.294275
0.292822
0.29123
0.289494
0.287608
0.285584
0.283419
0.281117
0.278688
0.276133
0.273465
0.270695
0.267825
0.264876
0.261854
0.258776
0.255654
0.252498
0.249331
0.246158
0.242998
0.23986
0.236751
0.233696
0.230717
0.295306
0.296294
0.297318
0.298414
0.299549
0.300696
0.301811
0.302865
0.303835
0.304698
0.305452
0.306082
0.306595
0.306985
0.307232
0.307354
0.307371
0.30734
0.307115
0.306719
0.306173
0.305466
0.304582
0.303524
0.30228
0.300836
0.299198
0.297357
0.295304
0.293053
0.290598
0.287944
0.285106
0.282084
0.278898
0.275563
0.272083
0.268489
0.264787
0.261003
0.257157
0.253262
0.249353
0.245444
0.241567
0.237743
0.23399
0.230346
0.226843
0.292363
0.293417
0.294884
0.296752
0.298815
0.300919
0.302932
0.30479
0.306463
0.307931
0.309216
0.310316
0.311257
0.31205
0.312693
0.313197
0.313531
0.313707
0.314032
0.313938
0.313689
0.313262
0.312621
0.311763
0.310666
0.309304
0.307681
0.30578
0.303585
0.301111
0.298352
0.295314
0.292019
0.288467
0.284691
0.280708
0.276529
0.272194
0.267712
0.263115
0.258427
0.253665
0.24887
0.24406
0.239284
0.234584
0.230006
0.22563
0.221521
0.282043
0.283525
0.287178
0.291698
0.296119
0.300083
0.303474
0.30633
0.308734
0.310754
0.312485
0.313965
0.315256
0.316393
0.317387
0.318271
0.319018
0.319606
0.320032
0.320574
0.320721
0.320678
0.320394
0.319851
0.319007
0.317819
0.316283
0.314368
0.31205
0.309349
0.306255
0.302781
0.298958
0.294794
0.290335
0.28561
0.28064
0.275478
0.270139
0.264662
0.259071
0.253376
0.247612
0.241779
0.235917
0.230062
0.224299
0.218827
0.213928
0.252711
0.263924
0.276693
0.287208
0.295129
0.300982
0.305337
0.308684
0.311357
0.313557
0.315439
0.317073
0.318542
0.319887
0.321132
0.322316
0.323423
0.324458
0.32537
0.326118
0.326926
0.32735
0.327515
0.327391
0.326918
0.326021
0.324673
0.322825
0.320443
0.317547
0.314135
0.310222
0.30586
0.301065
0.295905
0.290425
0.28466
0.278684
0.272522
0.266225
0.259821
0.253313
0.246719
0.23999
0.233094
0.225944
0.21846
0.210715
0.20333
0.240173
0.239451
0.238689
0.23788
0.237012
0.236081
0.235115
0.23424
0.233543
0.233056
0.232811
0.232843
0.233198
0.233918
0.235057
0.236679
0.238865
0.241711
0.245347
0.249938
0.255711
0.262978
0.272187
0.284015
0.299562
0.320432
0.348318
0.390095
0.523701
0.240102
0.239364
0.238583
0.237751
0.236851
0.235883
0.234874
0.233949
0.233202
0.232662
0.232358
0.232331
0.232615
0.233251
0.23429
0.23579
0.237822
0.240473
0.243849
0.248092
0.25338
0.259952
0.268116
0.278262
0.291016
0.307319
0.325317
0.338766
0.376357
0.23991
0.239137
0.238312
0.237425
0.236459
0.235409
0.234299
0.233261
0.232395
0.231729
0.231289
0.23111
0.231219
0.231652
0.23245
0.233655
0.235319
0.237498
0.24026
0.24368
0.247839
0.25282
0.258677
0.265334
0.2726
0.280572
0.286913
0.284341
0.286461
0.239608
0.238774
0.237878
0.236906
0.235836
0.234659
0.233394
0.232183
0.231134
0.230272
0.229623
0.22921
0.229056
0.229186
0.229625
0.230399
0.231531
0.233043
0.234954
0.237268
0.239968
0.243003
0.246264
0.249481
0.252176
0.254317
0.254959
0.250057
0.247707
0.239221
0.238305
0.237312
0.236224
0.235015
0.233669
0.232201
0.230764
0.229481
0.228373
0.22746
0.22676
0.226287
0.226055
0.226076
0.226357
0.226899
0.227696
0.228728
0.22996
0.231324
0.232718
0.23401
0.234971
0.235182
0.2345
0.232336
0.226028
0.221872
0.238758
0.237739
0.236626
0.235393
0.234013
0.232459
0.230744
0.229036
0.227476
0.226081
0.224868
0.223848
0.223028
0.222412
0.222002
0.221789
0.221762
0.221896
0.222155
0.222485
0.222807
0.223013
0.222969
0.222487
0.221178
0.2187
0.214385
0.206647
0.201251
0.238224
0.23708
0.23582
0.234415
0.232828
0.231029
0.229023
0.227002
0.225128
0.223416
0.221878
0.220519
0.219341
0.218342
0.217512
0.216838
0.216296
0.215853
0.215465
0.215071
0.21459
0.21391
0.212892
0.211352
0.208935
0.205265
0.199896
0.192459
0.187341
0.237617
0.236325
0.234892
0.233283
0.231454
0.229368
0.227029
0.224657
0.222437
0.220383
0.218502
0.216797
0.215263
0.213894
0.212673
0.21158
0.210586
0.209654
0.208734
0.207764
0.206663
0.205327
0.203626
0.201405
0.198386
0.19427
0.188941
0.182915
0.178761
0.236929
0.235464
0.233828
0.231981
0.229871
0.227457
0.224742
0.22198
0.219386
0.216972
0.214742
0.212692
0.210816
0.2091
0.207525
0.206065
0.204689
0.203355
0.202015
0.20061
0.199069
0.197302
0.195208
0.192673
0.189494
0.185444
0.180633
0.176046
0.172825
0.236141
0.234473
0.232601
0.230476
0.228043
0.225255
0.222119
0.218932
0.215942
0.213157
0.210576
0.208194
0.205996
0.203966
0.202081
0.200317
0.19863
0.196985
0.195337
0.193632
0.191812
0.189805
0.187536
0.184917
0.1818
0.178018
0.173812
0.170334
0.167887
0.235212
0.233306
0.231157
0.228711
0.225906
0.222694
0.21909
0.215445
0.212041
0.208881
0.205959
0.203264
0.200776
0.198472
0.196323
0.194332
0.192403
0.190532
0.188674
0.186783
0.184806
0.18269
0.180372
0.177783
0.174814
0.171362
0.167752
0.165086
0.163259
0.234068
0.231881
0.229407
0.226586
0.223353
0.219663
0.215546
0.211414
0.207586
0.204058
0.200817
0.19784
0.195105
0.192582
0.190239
0.188045
0.185959
0.183946
0.181965
0.179975
0.177933
0.175793
0.173506
0.171013
0.168238
0.165141
0.162087
0.160011
0.158644
0.232588
0.230064
0.227206
0.223946
0.220221
0.215997
0.211325
0.206691
0.202446
0.198574
0.195048
0.191837
0.188907
0.186222
0.183743
0.181434
0.179256
0.177171
0.175141
0.173127
0.171092
0.168997
0.1668
0.164452
0.161902
0.159161
0.1566
0.154947
0.153901
0.230544
0.227614
0.224299
0.220529
0.21625
0.211444
0.206197
0.20107
0.196442
0.192275
0.188525
0.185146
0.182092
0.179317
0.176777
0.17443
0.172233
0.17015
0.168141
0.166171
0.164206
0.162212
0.160153
0.157987
0.155681
0.153285
0.15115
0.149806
0.148982
0.227569
0.224146
0.220295
0.215947
0.211067
0.205664
0.199864
0.194301
0.189365
0.18499
0.181108
0.177654
0.174568
0.171793
0.169279
0.166976
0.164841
0.162834
0.160916
0.159054
0.157216
0.155371
0.153487
0.151531
0.149485
0.147427
0.14567
0.144565
0.143889
0.223159
0.219203
0.214806
0.209911
0.204507
0.198632
0.192437
0.186609
0.181531
0.177102
0.17323
0.169832
0.166833
0.164167
0.161775
0.159605
0.15761
0.155749
0.153985
0.152282
0.150612
0.148946
0.147259
0.145522
0.143732
0.141972
0.140517
0.139602
0.139026
0.217249
0.212766
0.207942
0.202706
0.197031
0.19095
0.184626
0.178764
0.173735
0.169414
0.16569
0.162462
0.159646
0.157169
0.154967
0.152985
0.151177
0.1495
0.147916
0.146393
0.144902
0.143415
0.141914
0.140385
0.138833
0.137328
0.136102
0.135326
0.134821
0.209139
0.204425
0.199669
0.194562
0.188998
0.183014
0.176801
0.171097
0.166266
0.162171
0.158686
0.155703
0.153129
0.150886
0.148909
0.147144
0.145542
0.144062
0.142668
0.141327
0.140009
0.138689
0.137349
0.13599
0.13464
0.133356
0.132325
0.131671
0.131226
0.19749
0.193956
0.190346
0.185936
0.180823
0.175162
0.169232
0.163819
0.159284
0.15549
0.152302
0.149603
0.147299
0.145309
0.143569
0.142024
0.140628
0.139342
0.13813
0.13696
0.135802
0.134624
0.133415
0.132217
0.131105
0.130107
0.129275
0.128666
0.128199
0.216392
0.216699
0.217372
0.218715
0.220573
0.222644
0.224783
0.226928
0.229089
0.231307
0.233626
0.236083
0.238717
0.241567
0.244674
0.248082
0.251829
0.25595
0.260464
0.265371
0.270633
0.276125
0.281579
0.285885
0.287633
0.28557
0.278094
0.262768
0.230942
0.214627
0.215055
0.215841
0.21717
0.218939
0.22093
0.223024
0.225165
0.227358
0.229635
0.232034
0.23459
0.237341
0.240332
0.243606
0.247212
0.251197
0.255605
0.260468
0.265807
0.271627
0.277873
0.284363
0.290094
0.293749
0.29456
0.291899
0.287729
0.29212
0.212839
0.213348
0.214216
0.215538
0.217235
0.219145
0.221176
0.22329
0.225492
0.227806
0.230261
0.232891
0.235736
0.238841
0.242257
0.24604
0.25025
0.254947
0.260194
0.266061
0.272645
0.280069
0.28848
0.297386
0.305933
0.314303
0.322797
0.330208
0.347474
0.211004
0.211491
0.21233
0.213634
0.215332
0.217244
0.219265
0.221366
0.223567
0.225897
0.228384
0.231063
0.233974
0.237165
0.240694
0.244626
0.249035
0.254003
0.25963
0.26605
0.273478
0.282265
0.292982
0.305693
0.319754
0.335345
0.35351
0.370207
0.392676
0.209124
0.209575
0.210362
0.211632
0.213327
0.215249
0.217271
0.219367
0.221564
0.223898
0.226401
0.229108
0.232061
0.235313
0.238924
0.24297
0.247536
0.252728
0.258679
0.265586
0.273772
0.283787
0.296555
0.31246
0.330939
0.35154
0.37649
0.400236
0.426422
0.207201
0.207634
0.208386
0.209616
0.211278
0.213177
0.215181
0.217261
0.219445
0.22177
0.22427
0.226982
0.22995
0.233228
0.236882
0.240992
0.245655
0.250992
0.257165
0.264414
0.273137
0.283999
0.29817
0.316005
0.337045
0.359974
0.387525
0.417264
0.44742
0.205232
0.205653
0.206381
0.207569
0.209178
0.21103
0.212994
0.21504
0.217194
0.21949
0.221964
0.224654
0.227604
0.230867
0.234513
0.238623
0.243303
0.248682
0.254933
0.262321
0.271271
0.282446
0.297193
0.315169
0.337552
0.362182
0.388769
0.416691
0.44495
0.203212
0.20362
0.204322
0.205461
0.207009
0.208802
0.210712
0.212706
0.214809
0.217054
0.219476
0.222111
0.225003
0.228205
0.231784
0.235823
0.240426
0.245726
0.251883
0.259174
0.267988
0.278846
0.293293
0.31163
0.332912
0.355871
0.379449
0.40328
0.427169
0.201138
0.201532
0.202206
0.203292
0.20477
0.20649
0.208331
0.210257
0.212289
0.214459
0.2168
0.219346
0.222139
0.225229
0.228679
0.232567
0.23699
0.242079
0.247957
0.254916
0.263102
0.273619
0.287206
0.304071
0.322754
0.342407
0.362253
0.382006
0.401023
0.199011
0.199392
0.200035
0.201063
0.202461
0.204096
0.205851
0.207691
0.209631
0.211701
0.213932
0.216355
0.219006
0.221932
0.225189
0.228846
0.232982
0.237724
0.243135
0.249509
0.257122
0.266606
0.278503
0.292773
0.308175
0.323977
0.339637
0.355147
0.369564
0.196828
0.197195
0.197804
0.19877
0.20008
0.201618
0.203275
0.205011
0.20684
0.208787
0.210879
0.213144
0.215613
0.218325
0.221327
0.224677
0.228427
0.232684
0.237586
0.243213
0.249833
0.257822
0.267536
0.278797
0.290604
0.302303
0.3135
0.324486
0.334438
0.19459
0.194944
0.195519
0.196418
0.197634
0.199065
0.200608
0.202223
0.20392
0.205721
0.207648
0.209723
0.211972
0.214425
0.217116
0.220092
0.223398
0.227101
0.231304
0.236019
0.241387
0.247652
0.254975
0.263076
0.271185
0.278803
0.285695
0.292328
0.298136
0.192303
0.192647
0.193191
0.194021
0.195132
0.196441
0.197853
0.19933
0.200877
0.202511
0.204247
0.206104
0.208097
0.210249
0.212584
0.215133
0.217929
0.220995
0.22436
0.228035
0.232042
0.236487
0.241348
0.246296
0.250847
0.254708
0.257818
0.260692
0.262993
0.189965
0.190296
0.190802
0.191558
0.192564
0.193746
0.19502
0.196346
0.197727
0.199175
0.200698
0.202312
0.204021
0.20584
0.207782
0.209858
0.21208
0.214439
0.216912
0.219478
0.222076
0.224688
0.227139
0.229122
0.230476
0.231114
0.231125
0.231016
0.230638
0.187583
0.187901
0.188371
0.189052
0.189946
0.190994
0.192119
0.193283
0.194484
0.195733
0.197025
0.198378
0.199785
0.201247
0.202765
0.204335
0.205942
0.207556
0.209118
0.210555
0.21175
0.212585
0.212787
0.212126
0.210754
0.208766
0.206359
0.204032
0.201805
0.185161
0.18547
0.185904
0.186509
0.187288
0.188195
0.189162
0.190152
0.191163
0.192198
0.193256
0.194333
0.195419
0.196506
0.197581
0.198623
0.199598
0.200452
0.201096
0.201418
0.201255
0.200426
0.198597
0.195655
0.192034
0.187982
0.183767
0.179883
0.176515
0.182706
0.183003
0.183397
0.183925
0.184589
0.185355
0.186162
0.186972
0.187786
0.188606
0.189419
0.190212
0.19097
0.191673
0.192296
0.192804
0.193144
0.193243
0.192987
0.192235
0.190795
0.188448
0.18483
0.179963
0.174534
0.168909
0.163382
0.158453
0.154461
0.180223
0.18051
0.180866
0.181316
0.181865
0.18249
0.183138
0.183753
0.184379
0.18498
0.185544
0.186052
0.18648
0.1868
0.186975
0.186956
0.186676
0.186042
0.184926
0.183164
0.18055
0.176843
0.171677
0.165213
0.158351
0.151542
0.145061
0.139418
0.13511
0.177723
0.178002
0.178323
0.178698
0.17913
0.17961
0.180082
0.180537
0.18096
0.181341
0.181658
0.181885
0.18199
0.181936
0.181675
0.181147
0.180272
0.178944
0.177019
0.174325
0.170644
0.165731
0.159231
0.151442
0.143441
0.135728
0.128526
0.122362
0.1179
0.17521
0.175481
0.175764
0.176063
0.176385
0.176717
0.177042
0.17732
0.17755
0.177718
0.177796
0.177752
0.177547
0.177135
0.176461
0.175455
0.174024
0.172052
0.169386
0.165844
0.161207
0.155229
0.14758
0.138685
0.12977
0.12136
0.113593
0.107032
0.102499
0.172693
0.172958
0.173206
0.173428
0.173644
0.173846
0.174015
0.174123
0.174171
0.174138
0.173991
0.173692
0.173197
0.172454
0.1714
0.169956
0.168022
0.165471
0.162145
0.157853
0.152377
0.145472
0.136833
0.127007
0.117349
0.108394
0.100175
0.0933046
0.0887769
0.17018
0.17044
0.170666
0.170799
0.170932
0.171003
0.171014
0.170964
0.170844
0.170624
0.170268
0.169735
0.168977
0.167935
0.166541
0.164711
0.162336
0.159285
0.15539
0.150458
0.144264
0.136564
0.127074
0.116446
0.106159
0.096764
0.0881773
0.0810864
0.0766805
0.16768
0.167934
0.168125
0.168233
0.168254
0.16819
0.168057
0.167861
0.167584
0.167193
0.16665
0.165909
0.164917
0.163615
0.161929
0.159769
0.157025
0.153559
0.1492
0.143748
0.136971
0.128614
0.118398
0.107054
0.0961832
0.08639
0.0774769
0.070254
0.0661578
0.165198
0.165445
0.165613
0.165668
0.16559
0.16541
0.165152
0.164826
0.16441
0.16387
0.163164
0.162242
0.161052
0.159532
0.157605
0.155182
0.152148
0.148364
0.143658
0.137822
0.130617
0.121766
0.110971
0.0989923
0.087538
0.077309
0.0680311
0.0607156
0.0571391
0.162744
0.162991
0.16314
0.163139
0.162972
0.162683
0.162311
0.16187
0.161336
0.16067
0.159827
0.158758
0.157408
0.155715
0.153605
0.150988
0.147751
0.143757
0.138833
0.132774
0.125328
0.116191
0.105026
0.0925403
0.0804897
0.0696958
0.0598645
0.0523809
0.0496002
0.160322
0.160564
0.160685
0.160627
0.16038
0.159998
0.159534
0.159005
0.158381
0.157616
0.156666
0.155481
0.154011
0.152195
0.149963
0.147226
0.143879
0.139788
0.134789
0.128683
0.121219
0.112073
0.100857
0.0881623
0.0756498
0.0641796
0.0533981
0.0452865
0.0434695
0.157957
0.158246
0.158398
0.158311
0.15796
0.157436
0.156848
0.156228
0.155531
0.154696
0.15367
0.152407
0.150859
0.148972
0.146678
0.143897
0.14053
0.136456
0.131525
0.125556
0.118316
0.109465
0.0985564
0.0860238
0.0733378
0.0612819
0.0492624
0.0394171
0.0376923
0.166681
0.150261
0.127318
0.0978657
0.0650292
0.0328392
0.00406337
-0.0224271
-0.0465686
-0.0729443
-0.0996606
-0.131479
-0.164325
-0.195184
-0.220131
-0.236647
-0.244818
-0.246835
-0.246298
0.175146
0.163169
0.141241
0.111029
0.0749057
0.0362676
-0.00140583
-0.0393644
-0.0749821
-0.114695
-0.154923
-0.195988
-0.235524
-0.270272
-0.296994
-0.314525
-0.324114
-0.328311
-0.329825
0.171623
0.160911
0.140284
0.110168
0.0720589
0.0286558
-0.0159108
-0.0644734
-0.113135
-0.16254
-0.212177
-0.260884
-0.305907
-0.343992
-0.37268
-0.391678
-0.402746
-0.408477
-0.411318
0.162732
0.152241
0.133406
0.104075
0.0637146
0.0156846
-0.0366397
-0.0921811
-0.149592
-0.207951
-0.266279
-0.322566
-0.373209
-0.414688
-0.44509
-0.464974
-0.476831
-0.483513
-0.487295
0.15085
0.141286
0.124026
0.0951609
0.0533768
0.00220782
-0.055344
-0.117313
-0.182465
-0.249426
-0.315838
-0.378436
-0.432999
-0.476224
-0.507155
-0.52733
-0.53982
-0.547425
-0.552023
0.134667
0.125675
0.109869
0.0820967
0.040253
-0.0126354
-0.0737813
-0.141398
-0.213418
-0.287475
-0.360075
-0.426939
-0.483689
-0.527712
-0.559093
-0.580067
-0.59394
-0.603237
-0.609415
0.114547
0.104795
0.0894974
0.0627652
0.0215174
-0.0320973
-0.0955499
-0.166933
-0.243472
-0.321738
-0.39725
-0.46502
-0.520885
-0.563187
-0.593006
-0.613091
-0.62683
-0.636352
-0.642771
0.0915274
0.0799568
0.0638807
0.0372503
-0.00357777
-0.0572403
-0.121511
-0.194294
-0.272393
-0.351604
-0.426691
-0.492412
-0.54527
-0.584693
-0.612544
-0.631733
-0.645414
-0.655183
-0.661921
0.0665004
0.05269
0.0348927
0.00729749
-0.033632
-0.0869423
-0.150709
-0.222806
-0.299765
-0.376816
-0.448295
-0.509221
-0.557083
-0.592324
-0.61729
-0.634828
-0.647758
-0.657222
-0.663802
0.0403044
0.0243113
0.00440708
-0.0247961
-0.0662664
-0.119052
-0.181448
-0.251396
-0.325267
-0.397956
-0.463789
-0.518484
-0.560639
-0.591523
-0.613705
-0.629807
-0.642261
-0.651867
-0.658882
0.0138679
-0.00400804
-0.0259921
-0.0569801
-0.0992423
-0.151516
-0.212099
-0.278867
-0.347954
-0.414084
-0.472017
-0.51858
-0.553531
-0.578741
-0.596781
-0.609957
-0.620259
-0.628282
-0.634105
-0.0117306
-0.0310308
-0.0547454
-0.0872327
-0.130146
-0.181749
-0.240125
-0.302922
-0.366066
-0.424475
-0.473833
-0.512276
-0.540518
-0.56069
-0.57512
-0.585696
-0.593931
-0.600338
-0.604906
-0.0354885
-0.0556788
-0.0805827
-0.11396
-0.157006
-0.207515
-0.263283
-0.3217
-0.378634
-0.429507
-0.471115
-0.502741
-0.5257
-0.542111
-0.553972
-0.5628
-0.569763
-0.575375
-0.579478
-0.0566937
-0.0772789
-0.102821
-0.136427
-0.178989
-0.227876
-0.280552
-0.334106
-0.384473
-0.427824
-0.462155
-0.487701
-0.506092
-0.519265
-0.528852
-0.536039
-0.541698
-0.546319
-0.549666
-0.074914
-0.0954728
-0.121151
-0.154379
-0.195848
-0.242562
-0.291675
-0.340064
-0.383969
-0.420509
-0.448783
-0.469668
-0.484839
-0.49593
-0.5042
-0.510536
-0.515581
-0.519768
-0.522818
-0.0900753
-0.110288
-0.135693
-0.168075
-0.207991
-0.252161
-0.297521
-0.340894
-0.379008
-0.409922
-0.433574
-0.451176
-0.46428
-0.474208
-0.481914
-0.488056
-0.49313
-0.497485
-0.500764
-0.102443
-0.122108
-0.146971
-0.178233
-0.216338
-0.257722
-0.299145
-0.337505
-0.370193
-0.396198
-0.416083
-0.431167
-0.442769
-0.451893
-0.459223
-0.465228
-0.470293
-0.474655
-0.477946
-0.112405
-0.131408
-0.155569
-0.185588
-0.2218
-0.260373
-0.297962
-0.331698
-0.359718
-0.381797
-0.398878
-0.412227
-0.422897
-0.431605
-0.438812
-0.44483
-0.449957
-0.454341
-0.457639
-0.120451
-0.138743
-0.162141
-0.19094
-0.225383
-0.261417
-0.295654
-0.325524
-0.349831
-0.36892
-0.38393
-0.396013
-0.40599
-0.414362
-0.421426
-0.427387
-0.432482
-0.436808
-0.440057
-0.127118
-0.144701
-0.167383
-0.195083
-0.227912
-0.261585
-0.29273
-0.319172
-0.340352
-0.357023
-0.370376
-0.381395
-0.390693
-0.398601
-0.405305
-0.410942
-0.415712
-0.41969
-0.422635
-0.132829
-0.14976
-0.171868
-0.198658
-0.230069
-0.261629
-0.290087
-0.313707
-0.332437
-0.347254
-0.359298
-0.369393
-0.377997
-0.385336
-0.391533
-0.396686
-0.400969
-0.404464
-0.407011
-0.137958
-0.15438
-0.176159
-0.202226
-0.232303
-0.26187
-0.287937