/*--------------------------------*- C++ -*----------------------------------*\
| =========                 |                                                 |
| \\      /  F ield         | OpenFOAM: The Open Source CFD Toolbox           |
|  \\    /   O peration     | Version:  2312                                  |
|   \\  /    A nd           | Website:  www.openfoam.com                      |
|    \\/     M anipulation  |                                                 |
\*---------------------------------------------------------------------------*/
FoamFile
{
    version     2.0;
    format      ascii;
    arch        "LSB;label=32;scalar=64";
    class       volVectorField;
    location    "54.500657936297337";
    object      U;
}
// * * * * * * * * * * * * * * * * * * * * * * * * * * * * * * * * * * * * * //

dimensions      [0 1 -1 0 0 0 0];

internalField   nonuniform List<vector> 
21039
(
(0.91373 0.0474044 0)
(1.02608 0.0665013 0)
(1.00449 0.0295574 0)
(1.00176 0.0189447 0)
(1.0012 0.0139484 0)
(1.00079 0.0105807 0)
(1.00055 0.00826617 0)
(1.0004 0.0066359 0)
(1.0003 0.00543903 0)
(1.00023 0.00453168 0)
(1.00018 0.0038284 0)
(1.00014 0.00327419 0)
(1.00011 0.00283203 0)
(1.00009 0.00247632 0)
(1.00007 0.00218893 0)
(1.00006 0.00195667 0)
(1.00005 0.0017698 0)
(1.00003 0.00162092 0)
(1.00003 0.00150431 0)
(1.00002 0.00141526 0)
(1.00001 0.0013498 0)
(1.00001 0.00130578 0)
(1 0.00128447 0)
(1 0.00126606 0)
(1 0.00125353 0)
(1 0.00124405 0)
(1.00001 0.00123365 0)
(1.00001 0.00121304 0)
(1.00001 0.00116206 0)
(0.794445 0.0730517 0)
(1.0745 0.121758 0)
(1.03986 0.0709948 0)
(1.01807 0.0498495 0)
(1.01125 0.0384677 0)
(1.00761 0.0297203 0)
(1.00535 0.0234573 0)
(1.00392 0.018918 0)
(1.00296 0.0155015 0)
(1.00229 0.0128664 0)
(1.0018 0.0107961 0)
(1.00144 0.00914396 0)
(1.00116 0.00780917 0)
(1.00094 0.00672122 0)
(1.00076 0.00582974 0)
(1.00062 0.00509801 0)
(1.0005 0.00449887 0)
(1.0004 0.00401184 0)
(1.00031 0.00362126 0)
(1.00023 0.00331478 0)
(1.00017 0.00308206 0)
(1.00011 0.00291634 0)
(1.00006 0.00282073 0)
(1.00003 0.00276013 0)
(1.00002 0.0027348 0)
(1.00003 0.00272822 0)
(1.00003 0.00272753 0)
(1.00004 0.00271518 0)
(1.00005 0.00266453 0)
(0.667138 0.0573007 0)
(1.08293 0.124933 0)
(1.08428 0.090518 0)
(1.0462 0.0679131 0)
(1.02897 0.0544499 0)
(1.02015 0.0435454 0)
(1.01458 0.0352981 0)
(1.01088 0.0289799 0)
(1.00832 0.024017 0)
(1.00649 0.0200779 0)
(1.00516 0.016917 0)
(1.00415 0.0143518 0)
(1.00337 0.0122509 0)
(1.00276 0.0105189 0)
(1.00226 0.0090855 0)
(1.00185 0.00789854 0)
(1.00151 0.00691877 0)
(1.00122 0.00611641 0)
(1.00096 0.00546859 0)
(1.00074 0.00495748 0)
(1.00054 0.00456831 0)
(1.00037 0.00429013 0)
(1.00022 0.00412734 0)
(1.00012 0.00403636 0)
(1.00006 0.00400866 0)
(1.00004 0.0040121 0)
(1.00004 0.00402536 0)
(1.00006 0.00402635 0)
(1.00007 0.00398628 0)
(0.540724 0.0352925 0)
(1.05049 0.110981 0)
(1.11573 0.0973002 0)
(1.07594 0.0766126 0)
(1.04904 0.0625178 0)
(1.03506 0.0514849 0)
(1.0262 0.0428928 0)
(1.02002 0.0359529 0)
(1.01559 0.0302612 0)
(1.01234 0.0255926 0)
(1.00991 0.0217427 0)
(1.00805 0.0185474 0)
(1.00659 0.0158824 0)
(1.00543 0.0136521 0)
(1.00448 0.0117832 0)
(1.0037 0.0102194 0)
(1.00303 0.00891722 0)
(1.00246 0.00784321 0)
(1.00196 0.00697131 0)
(1.00152 0.00628118 0)
(1.00112 0.00575613 0)
(1.00076 0.00538256 0)
(1.00045 0.00516592 0)
(1.00022 0.00505662 0)
(1.00009 0.00503459 0)
(1.00002 0.00505348 0)
(0.999998 0.00508488 0)
(1.00001 0.00510297 0)
(1.00002 0.00507503 0)
(0.443766 0.0186913 0)
(0.997241 0.0920312 0)
(1.12866 0.0959739 0)
(1.10114 0.0798787 0)
(1.06791 0.0659112 0)
(1.04941 0.0553237 0)
(1.03789 0.0470383 0)
(1.02966 0.0401098 0)
(1.02355 0.0342479 0)
(1.01895 0.0293036 0)
(1.01542 0.0251185 0)
(1.01267 0.0215645 0)
(1.01048 0.0185415 0)
(1.0087 0.0159689 0)
(1.00724 0.0137822 0)
(1.006 0.0119304 0)
(1.00495 0.0103731 0)
(1.00404 0.00907832 0)
(1.00323 0.00802105 0)
(1.0025 0.00718155 0)
(1.00185 0.00654376 0)
(1.00125 0.0060935 0)
(1.00072 0.00583784 0)
(1.00032 0.00572286 0)
(1.00007 0.00571605 0)
(0.999937 0.00575848 0)
(0.999887 0.00581563 0)
(0.999889 0.0058579 0)
(0.999893 0.005846 0)
(0.378106 0.00812422 0)
(0.938971 0.0719918 0)
(1.12642 0.0886193 0)
(1.12038 0.0790667 0)
(1.08503 0.0664072 0)
(1.06254 0.0565202 0)
(1.04874 0.0487641 0)
(1.03891 0.0421328 0)
(1.03146 0.0363914 0)
(1.02572 0.0314358 0)
(1.02122 0.027146 0)
(1.01763 0.0234279 0)
(1.01473 0.0202066 0)
(1.01234 0.0174198 0)
(1.01034 0.0150166 0)
(1.00864 0.0129558 0)
(1.00717 0.0112043 0)
(1.00587 0.00973553 0)
(1.00471 0.00852857 0)
(1.00366 0.00756689 0)
(1.00269 0.00683731 0)
(1.00181 0.00632724 0)
(1.00101 0.00604648 0)
(1.0004 0.00593818 0)
(1.00001 0.00595698 0)
(0.999787 0.00603232 0)
(0.999693 0.00612413 0)
(0.999675 0.00619884 0)
(0.999662 0.00620857 0)
(0.332797 0.00235415 0)
(0.882472 0.053961 0)
(1.11325 0.0781349 0)
(1.13324 0.0752297 0)
(1.10025 0.0647842 0)
(1.07463 0.0558123 0)
(1.05874 0.0487072 0)
(1.04758 0.042538 0)
(1.03906 0.0370804 0)
(1.03238 0.0322631 0)
(1.02705 0.0280058 0)
(1.02273 0.0242462 0)
(1.01918 0.0209328 0)
(1.01622 0.0180213 0)
(1.0137 0.0154751 0)
(1.01152 0.0132643 0)
(1.00961 0.0113649 0)
(1.0079 0.00975781 0)
(1.00636 0.00842808 0)
(1.00495 0.00736437 0)
(1.00364 0.00655816 0)
(1.00242 0.00600029 0)
(1.0013 0.00570459 0)
(1.00045 0.00561254 0)
(0.999879 0.00566574 0)
(0.999547 0.00578257 0)
(0.999392 0.00591768 0)
(0.999341 0.00603338 0)
(0.999299 0.00607131 0)
(0.300427 -0.000174607 0)
(0.830585 0.0396599 0)
(1.09284 0.067163 0)
(1.13974 0.0697253 0)
(1.11307 0.0618094 0)
(1.08566 0.0538263 0)
(1.06794 0.0473683 0)
(1.05567 0.041714 0)
(1.04628 0.0366166 0)
(1.03883 0.0320176 0)
(1.03281 0.027871 0)
(1.02786 0.0241425 0)
(1.02373 0.0208015 0)
(1.02023 0.0178207 0)
(1.01722 0.0151777 0)
(1.01458 0.0128542 0)
(1.01223 0.0108358 0)
(1.01011 0.00911167 0)
(1.00817 0.00767413 0)
(1.00636 0.00651829 0)
(1.00466 0.00564162 0)
(1.00307 0.00503997 0)
(1.00159 0.00473254 0)
(1.00044 0.00466077 0)
(0.999664 0.0047536 0)
(0.999196 0.00491843 0)
(0.998959 0.00510475 0)
(0.998854 0.00527026 0)
(0.998766 0.0053443 0)
(0.277408 -0.000971855 0)
(0.784827 0.0291289 0)
(1.0685 0.0570744 0)
(1.14074 0.0636035 0)
(1.12321 0.0581587 0)
(1.09555 0.051144 0)
(1.07635 0.0452295 0)
(1.06314 0.0400321 0)
(1.05308 0.0352847 0)
(1.04502 0.0309196 0)
(1.03843 0.0269109 0)
(1.03295 0.0232442 0)
(1.02832 0.0199055 0)
(1.02435 0.0168821 0)
(1.02088 0.0141643 0)
(1.0178 0.0117446 0)
(1.01502 0.00961822 0)
(1.01248 0.00778282 0)
(1.01011 0.00623862 0)
(1.00789 0.00498808 0)
(1.00578 0.00403584 0)
(1.00376 0.00338409 0)
(1.00188 0.00305861 0)
(1.00038 0.00300334 0)
(0.999357 0.00313547 0)
(0.99872 0.00335084 0)
(0.998371 0.00359358 0)
(0.998185 0.00381617 0)
(0.998027 0.00393456 0)
(0.260952 -0.00102134 0)
(0.745589 0.0216633 0)
(1.04278 0.0482961 0)
(1.13757 0.0574389 0)
(1.13083 0.0542262 0)
(1.10436 0.0481399 0)
(1.08407 0.0426538 0)
(1.07006 0.037807 0)
(1.05947 0.0333445 0)
(1.05095 0.0291796 0)
(1.04391 0.0252936 0)
(1.03799 0.0216836 0)
(1.03293 0.0183469 0)
(1.02853 0.015282 0)
(1.02465 0.0124891 0)
(1.02115 0.00997031 0)
(1.01796 0.00772954 0)
(1.015 0.00577288 0)
(1.01221 0.00410877 0)
(1.00955 0.00274771 0)
(1.00699 0.00170235 0)
(1.00451 0.000980501 0)
(1.00217 0.000616525 0)
(1.00028 0.000562597 0)
(0.998959 0.000726146 0)
(0.998111 0.000987814 0)
(0.997612 0.00128542 0)
(0.99731 0.00157034 0)
(0.997045 0.00174596 0)
(0.248742 -0.000809516 0)
(0.712371 0.0164755 0)
(1.01731 0.0408589 0)
(1.1315 0.0515276 0)
(1.13628 0.0502093 0)
(1.11222 0.0449985 0)
(1.09128 0.0398541 0)
(1.07658 0.0352535 0)
(1.06554 0.0309945 0)
(1.05666 0.0269729 0)
(1.04926 0.0231694 0)
(1.04299 0.0195867 0)
(1.03757 0.0162292 0)
(1.03281 0.0131029 0)
(1.02855 0.0102158 0)
(1.02467 0.00757759 0)
(1.02109 0.00519994 0)
(1.01771 0.00309682 0)
(1.01449 0.001284 0)
(1.01137 -0.000221525 0)
(1.00833 -0.00139813 0)
(1.00536 -0.00222761 0)
(1.00251 -0.00266466 0)
(1.00017 -0.00274931 0)
(0.9985 -0.00258041 0)
(0.997391 -0.00228729 0)
(0.996693 -0.00194261 0)
(0.99623 -0.00160731 0)
(0.995821 -0.00138527 0)
(0.239257 -0.000558957 0)
(0.684327 0.0128807 0)
(0.993016 0.0346468 0)
(1.12352 0.046027 0)
(1.13991 0.0462263 0)
(1.11925 0.0418171 0)
(1.09813 0.0369527 0)
(1.08283 0.0325101 0)
(1.07141 0.0283748 0)
(1.06224 0.0244337 0)
(1.05457 0.0206624 0)
(1.04801 0.017065 0)
(1.04229 0.0136498 0)
(1.03722 0.010428 0)
(1.03263 0.00741313 0)
(1.0284 0.00462078 0)
(1.02444 0.00206911 0)
(1.02066 -0.000222799 0)
(1.01701 -0.00223274 0)
(1.01343 -0.00393448 0)
(1.00989 -0.00529678 0)
(1.00638 -0.00629012 0)
(1.00297 -0.0068577 0)
(1.00011 -0.0070267 0)
(0.998028 -0.00689359 0)
(0.996592 -0.00659551 0)
(0.99563 -0.00621364 0)
(0.99494 -0.00582379 0)
(0.994326 -0.00556383 0)
(0.231622 -0.000359072 0)
(0.660616 0.0103419 0)
(0.970357 0.0294842 0)
(1.1144 0.0410052 0)
(1.14205 0.0423595 0)
(1.12555 0.0386615 0)
(1.10471 0.0340308 0)
(1.08894 0.0296744 0)
(1.07719 0.0255904 0)
(1.06778 0.0216681 0)
(1.05989 0.017876 0)
(1.05311 0.0142165 0)
(1.04715 0.0106996 0)
(1.04181 0.00733936 0)
(1.03693 0.00415291 0)
(1.03239 0.00115974 0)
(1.02808 -0.0016189 0)
(1.02392 -0.00415795 0)
(1.01984 -0.0064269 0)
(1.01579 -0.00839116 0)
(1.01173 -0.0100114 0)
(1.00765 -0.0112481 0)
(1.00363 -0.0120322 0)
(1.0002 -0.012371 0)
(0.997634 -0.012347 0)
(0.995792 -0.0121041 0)
(0.994476 -0.0117307 0)
(0.993463 -0.0113155 0)
(0.992553 -0.0110217 0)
(0.225328 -0.000227359 0)
(0.640498 0.0084848 0)
(0.949542 0.0251886 0)
(1.10469 0.0364704 0)
(1.14303 0.0386624 0)
(1.13121 0.0355801 0)
(1.11109 0.0311477 0)
(1.09501 0.0268224 0)
(1.08296 0.0227274 0)
(1.07337 0.0187671 0)
(1.06532 0.014903 0)
(1.05837 0.0111332 0)
(1.05222 0.00746739 0)
(1.04667 0.00392036 0)
(1.04155 0.000510171 0)
(1.03674 -0.00274247 0)
(1.03212 -0.00581228 0)
(1.0276 -0.00866786 0)
(1.02312 -0.011272 0)
(1.0186 -0.0135827 0)
(1.01401 -0.0155534 0)
(1.00933 -0.0171363 0)
(1.00466 -0.0182529 0)
(1.00061 -0.0188864 0)
(0.997496 -0.0190908 0)
(0.995159 -0.0190079 0)
(0.993378 -0.0187286 0)
(0.99192 -0.0183529 0)
(0.990593 -0.0180653 0)
(0.220047 -0.000153944 0)
(0.623352 0.0070776 0)
(0.930607 0.0216244 0)
(1.09481 0.0324282 0)
(1.14307 0.0351822 0)
(1.13628 0.03261 0)
(1.1173 0.0283432 0)
(1.10106 0.0240081 0)
(1.08877 0.0198526 0)
(1.07902 0.0158055 0)
(1.07086 0.0118229 0)
(1.06379 0.00789734 0)
(1.05751 0.00403594 0)
(1.0518 0.000251749 0)
(1.04649 -0.00343839 0)
(1.04146 -0.00701255 0)
(1.03657 -0.0104418 0)
(1.03173 -0.0136901 0)
(1.02686 -0.0167147 0)
(1.02189 -0.0194664 0)
(1.01677 -0.0218917 0)
(1.01148 -0.0239371 0)
(1.00617 -0.0255208 0)
(1.00151 -0.0266113 0)
(0.997849 -0.0272255 0)
(0.994983 -0.0274899 0)
(0.99265 -0.0274789 0)
(0.990616 -0.0272854 0)
(0.988727 -0.0270941 0)
(0.215924 -0.000107694 0)
(0.609729 0.00606421 0)
(0.914767 0.018867 0)
(1.08584 0.0291061 0)
(1.14259 0.0321969 0)
(1.1406 0.0300186 0)
(1.12297 0.0258849 0)
(1.10674 0.0215198 0)
(1.09429 0.0172797 0)
(1.08445 0.0131214 0)
(1.07623 0.00899662 0)
(1.0691 0.00489152 0)
(1.06275 0.0008082 0)
(1.05696 -0.00324418 0)
(1.05155 -0.00725113 0)
(1.04636 -0.0111912 0)
(1.04128 -0.0150345 0)
(1.0362 -0.0187431 0)
(1.03102 -0.0222703 0)
(1.02566 -0.0255592 0)
(1.02006 -0.0285466 0)
(1.01423 -0.0311692 0)
(1.00831 -0.0333371 0)
(1.00313 -0.0350091 0)
(0.999029 -0.0361872 0)
(0.99572 -0.0370037 0)
(0.992853 -0.0375059 0)
(0.990142 -0.0377321 0)
(0.987475 -0.0378051 0)
(0.212904 -8.20203e-05 0)
(0.599722 0.00537288 0)
(0.902661 0.0168901 0)
(1.07856 0.0266154 0)
(1.1419 0.0298962 0)
(1.14398 0.0280026 0)
(1.12768 0.0239664 0)
(1.11157 0.0195663 0)
(1.09903 0.0152441 0)
(1.08914 0.0109804 0)
(1.08091 0.00672182 0)
(1.07378 0.0024472 0)
(1.06743 -0.00184666 0)
(1.06163 -0.00615564 0)
(1.05618 -0.0104692 0)
(1.05093 -0.0147687 0)
(1.04576 -0.0190274 0)
(1.04053 -0.0232093 0)
(1.03514 -0.027267 0)
(1.0295 -0.0311395 0)
(1.02354 -0.0347534 0)
(1.01726 -0.0380305 0)
(1.01086 -0.0408522 0)
(1.00528 -0.0431373 0)
(1.00092 -0.044889 0)
(0.997432 -0.0463242 0)
(0.994359 -0.0475725 0)
(0.991298 -0.0486588 0)
(0.988117 -0.0494367 0)
(0.210576 -4.05785e-05 0)
(0.592046 0.00490154 0)
(0.893103 0.0154567 0)
(1.0725 0.0247353 0)
(1.14108 0.0281234 0)
(1.14664 0.0264457 0)
(1.1316 0.0224933 0)
(1.11567 0.0180712 0)
(1.10307 0.0136858 0)
(1.09316 0.0093362 0)
(1.08495 0.00496488 0)
(1.07785 0.00054424 0)
(1.07154 -0.00393433 0)
(1.06576 -0.00847173 0)
(1.06034 -0.0130624 0)
(1.05509 -0.0176932 0)
(1.04989 -0.0223435 0)
(1.0446 -0.0269828 0)
(1.0391 -0.0315681 0)
(1.03328 -0.0360396 0)
(1.02707 -0.0403194 0)
(1.02045 -0.0443173 0)
(1.01364 -0.0478716 0)
(1.00768 -0.0507822 0)
(1.00309 -0.0529699 0)
(0.99959 -0.0547213 0)
(0.996792 -0.0564073 0)
(0.994362 -0.0583963 0)
(0.991702 -0.0601535 0)
(0.209102 -5.2353e-05 0)
(0.586761 0.00453482 0)
(0.8863 0.0144364 0)
(1.06811 0.0234096 0)
(1.14054 0.0268592 0)
(1.14876 0.0252964 0)
(1.13474 0.0213706 0)
(1.119 0.0169219 0)
(1.10641 0.0124919 0)
(1.09652 0.00807876 0)
(1.08835 0.00361676 0)
(1.08132 -0.000926105 0)
(1.07507 -0.00556223 0)
(1.06936 -0.0102976 0)
(1.064 -0.0151322 0)
(1.05881 -0.0200605 0)
(1.05365 -0.0250699 0)
(1.04837 -0.0301385 0)
(1.04286 -0.0352324 0)
(1.037 -0.0403002 0)
(1.03068 -0.0452707 0)
(1.02392 -0.0500633 0)
(1.01692 -0.0545055 0)
(1.01078 -0.0582484 0)
(1.00603 -0.0609963 0)
(1.00249 -0.062823 0)
(0.999849 -0.0637778 0)
(0.998103 -0.0645625 0)
(0.99814 -0.0689834 0)
(1.00001 0.00117475 0)
(1.00001 0.00117977 0)
(1.00001 0.00117988 0)
(1.00001 0.00118077 1.03344e-21)
(1.00001 0.00118352 5.14908e-21)
(1.00001 0.00118796 -9.2614e-21)
(1 0.00119389 5.14142e-21)
(1 0.00120124 -4.09102e-21)
(1 0.00120983 5.254e-22)
(1 0.00121968 4.08627e-21)
(1 0.00123061 0)
(0.999999 0.0012426 -4.55936e-21)
(0.999997 0.00125556 5.20689e-22)
(0.999996 0.00126934 4.04486e-21)
(0.999995 0.00128391 0)
(0.999994 0.00129912 0)
(0.999993 0.00131491 -3.99516e-21)
(0.999992 0.00133116 3.99767e-21)
(0.999991 0.00134772 0)
(0.99999 0.00136455 -1.97822e-21)
(0.999989 0.0013815 2.10256e-21)
(0.999989 0.00139844 1.84122e-21)
(0.999988 0.00141532 -2.94336e-21)
(0.999987 0.00143198 9.4818e-22)
(0.999987 0.00144831 3.03406e-23)
(0.999986 0.00146424 -6.06319e-23)
(0.999986 0.00147962 8.4225e-22)
(0.999986 0.00149436 -9.62802e-22)
(0.999985 0.00150838 0)
(0.999985 0.00152154 0)
(0.999985 0.00153385 -2.36995e-22)
(0.999986 0.00154506 -2.35844e-22)
(0.999986 0.00155506 -3.98008e-21)
(0.999986 0.001564 3.27581e-21)
(0.999987 0.00157169 -4.17114e-21)
(0.999987 0.00157811 4.16545e-21)
(0.999988 0.0015832 -3.20758e-21)
(0.999989 0.00158688 3.20661e-21)
(0.99999 0.00158915 4.54401e-22)
(0.999991 0.0015899 4.51861e-22)
(0.999992 0.00158914 -4.49292e-22)
(0.999994 0.00158682 0)
(0.999995 0.00158285 0)
(0.999997 0.00157732 0)
(0.999998 0.0015702 0)
(1 0.0015614 0)
(1 0.00155082 1.73134e-21)
(1 0.00153803 -1.72835e-21)
(1.00001 0.00151898 0)
(1.00005 0.00268463 0)
(1.00004 0.00269669 2.08749e-21)
(1.00002 0.0027058 -2.07816e-21)
(1.00001 0.00271841 -1.03641e-21)
(0.999995 0.00273565 -1.03635e-21)
(0.999982 0.00275694 -3.09577e-21)
(0.99997 0.00278193 5.16843e-21)
(0.999959 0.00281065 0)
(0.999948 0.00284251 -5.1346e-22)
(0.999937 0.00287765 -1.02536e-21)
(0.999928 0.0029156 0)
(0.999918 0.00295617 5.09571e-22)
(0.99991 0.00299927 -4.56723e-21)
(0.999902 0.00304438 4.06263e-21)
(0.999895 0.00309149 0)
(0.999888 0.0031402 1.00883e-21)
(0.999882 0.00319023 0)
(0.999877 0.0032415 0)
(0.999873 0.00329348 0)
(0.999869 0.00334603 -1.98625e-21)
(0.999866 0.00339894 1.86308e-21)
(0.999864 0.00345178 -1.23753e-22)
(0.999863 0.00350437 0)
(0.999862 0.00355646 -4.58638e-22)
(0.999863 0.00360769 4.81694e-22)
(0.999864 0.00365786 9.12279e-23)
(0.999866 0.00370671 1.21042e-22)
(0.999868 0.00375394 0)
(0.999872 0.00379931 -1.91617e-21)
(0.999876 0.00384261 1.91574e-21)
(0.999882 0.00388358 -3.55918e-21)
(0.999888 0.00392196 7.81102e-21)
(0.999894 0.00395757 -3.54161e-21)
(0.999902 0.00399018 4.68644e-22)
(0.99991 0.00401953 4.66293e-22)
(0.999919 0.00404552 4.64272e-22)
(0.999929 0.00406786 -4.61409e-22)
(0.999939 0.00408639 4.12261e-21)
(0.99995 0.00410101 -3.20337e-21)
(0.999962 0.00411139 -1.36187e-21)
(0.999974 0.00411755 4.95679e-21)
(0.999987 0.00411922 -3.59841e-21)
(1 0.00411621 -1.78459e-21)
(1.00001 0.00410858 3.54037e-21)
(1.00003 0.00409594 -7.05585e-21)
(1.00004 0.00407846 3.51452e-21)
(1.00006 0.00405589 1.73886e-21)
(1.00008 0.00402763 -4.79797e-24)
(1.00009 0.0039891 0)
(1.00005 0.004008 3.14234e-21)
(1.00002 0.00402863 -1.04913e-21)
(0.999978 0.00405176 -4.17576e-21)
(0.99994 0.00408088 2.07964e-21)
(0.999904 0.00411718 -2.07872e-21)
(0.999869 0.00415988 0)
(0.999836 0.00420853 -2.06532e-21)
(0.999805 0.00426336 -6.18034e-21)
(0.999776 0.00432316 6.18028e-21)
(0.999748 0.00438834 1.02487e-21)
(0.999723 0.00445802 0)
(0.999699 0.00453188 -6.11856e-21)
(0.999678 0.00460993 1.43464e-23)
(0.999658 0.00469107 4.06608e-21)
(0.999641 0.00477547 0)
(0.999626 0.00486243 -1.00772e-21)
(0.999613 0.00495138 -1.00715e-21)
(0.999602 0.00504244 0)
(0.999593 0.00513452 -1.00046e-21)
(0.999587 0.00522742 -1.98707e-21)
(0.999583 0.00532095 1.98767e-21)
(0.999581 0.00541426 -2.48018e-22)
(0.999581 0.0055071 -2.46488e-22)
(0.999584 0.00559915 0)
(0.999589 0.00568973 3.80827e-23)
(0.999596 0.00577849 -2.12947e-22)
(0.999605 0.00586518 0)
(0.999616 0.00594914 0)
(0.99963 0.00603003 -1.91565e-21)
(0.999646 0.00610757 1.91528e-21)
(0.999664 0.00618123 -3.7954e-21)
(0.999684 0.00625065 3.79414e-21)
(0.999706 0.00631556 0)
(0.99973 0.00637548 0)
(0.999756 0.00643008 0)
(0.999784 0.00647915 -9.26964e-22)
(0.999813 0.00652216 -1.84537e-21)
(0.999845 0.0065589 0)
(0.999878 0.00658917 -9.12071e-22)
(0.999913 0.00661239 -8.98462e-22)
(0.99995 0.00662862 2.71451e-21)
(0.999988 0.00663733 0)
(1.00003 0.00663825 3.55905e-21)
(1.00007 0.00663142 -5.3255e-21)
(1.00011 0.00661607 0)
(1.00016 0.00659256 0)
(1.0002 0.00656019 0)
(1.00025 0.00651831 -1.73175e-21)
(1.0003 0.00646353 -1.71863e-21)
(0.999982 0.00509949 -2.09892e-21)
(0.999918 0.00513428 4.20055e-21)
(0.999847 0.00517802 4.19045e-21)
(0.999775 0.00522995 6.25786e-21)
(0.999705 0.00529163 -2.09132e-21)
(0.999638 0.00536219 -4.14767e-21)
(0.999575 0.00544113 8.29042e-21)
(0.999515 0.00552891 -5.30815e-24)
(0.99946 0.00562355 -2.05933e-21)
(0.999408 0.00572591 2.0612e-21)
(0.99936 0.00583451 0)
(0.999316 0.00594896 2.04278e-21)
(0.999277 0.00606943 -2.02801e-21)
(0.999241 0.00619407 8.13665e-21)
(0.99921 0.00632338 -8.11148e-21)
(0.999183 0.0064562 6.07673e-21)
(0.99916 0.00659171 -1.01382e-21)
(0.999142 0.00673032 1.00642e-21)
(0.999128 0.00687014 9.99212e-22)
(0.999119 0.00701108 -9.99431e-22)
(0.999114 0.00715294 0)
(0.999113 0.0072943 -1.4814e-21)
(0.999117 0.00743498 1.23817e-21)
(0.999126 0.00757452 9.84013e-22)
(0.999139 0.00771184 4.58027e-23)
(0.999156 0.00784656 9.10619e-23)
(0.999177 0.00797834 1.45292e-21)
(0.999203 0.00810614 -9.67223e-22)
(0.999233 0.00822955 1.91689e-21)
(0.999267 0.00834824 -1.91658e-21)
(0.999305 0.00846133 0)
(0.999348 0.00856841 4.72598e-21)
(0.999394 0.00866909 -3.77671e-21)
(0.999444 0.00876262 3.73903e-21)
(0.999498 0.00884865 -3.73767e-21)
(0.999556 0.00892683 0)
(0.999617 0.00899638 3.67696e-21)
(0.999681 0.00905707 -1.84207e-21)
(0.999749 0.00910857 0)
(0.999821 0.00915009 3.6182e-21)
(0.999896 0.00918172 -3.61416e-21)
(0.999974 0.00920269 1.79176e-21)
(1.00005 0.00921265 1.78206e-21)
(1.00014 0.00921165 5.31082e-21)
(1.00023 0.00919859 6.66988e-24)
(1.00032 0.00917399 3.50742e-21)
(1.00041 0.00913668 1.73445e-21)
(1.00051 0.00908595 1.72035e-21)
(1.00061 0.00901985 1.71919e-21)
(0.999827 0.00587666 0)
(0.999725 0.00593343 -4.20474e-21)
(0.99961 0.00600645 -4.19249e-21)
(0.999494 0.00608979 0)
(0.99938 0.00618563 -4.17561e-21)
(0.999271 0.00629294 1.29135e-23)
(0.999168 0.00641121 8.34418e-21)
(0.999071 0.00654127 -2.08964e-21)
(0.99898 0.00668012 -1.33664e-23)
(0.998896 0.0068293 -6.19758e-21)
(0.998818 0.00698659 0)
(0.998747 0.00715157 -6.16153e-21)
(0.998683 0.00732459 2.05939e-21)
(0.998627 0.00750291 0)
(0.998577 0.00768748 -2.04154e-21)
(0.998535 0.00787656 1.06749e-23)
(0.998499 0.0080691 -2.01933e-21)
(0.998472 0.00826588 7.05498e-21)
(0.998451 0.008464 -1.5733e-23)
(0.998438 0.00866359 -1.01453e-21)
(0.998432 0.00886442 -9.97748e-22)
(0.998434 0.00906441 1.9811e-21)
(0.998443 0.00926348 -1.98138e-21)
(0.99846 0.00946105 -2.44406e-22)
(0.998483 0.00965552 5.0646e-22)
(0.998515 0.00984654 -2.72848e-22)
(0.998553 0.0100337 9.71174e-22)
(0.998598 0.0102154 -9.69101e-22)
(0.998651 0.0103913 9.64205e-22)
(0.99871 0.010561 1.91049e-21)
(0.998776 0.0107232 -5.71124e-21)
(0.998849 0.0108775 -9.27995e-22)
(0.998928 0.0110232 5.66912e-21)
(0.999014 0.0111595 1.87783e-21)
(0.999106 0.011286 -3.72128e-21)
(0.999204 0.011402 3.71906e-21)
(0.999308 0.0115067 9.86906e-24)
(0.999418 0.0115997 5.50276e-21)
(0.999534 0.0116807 -3.66639e-21)
(0.999655 0.0117485 -9.07226e-21)
(0.999782 0.0118035 3.60325e-21)
(0.999914 0.0118444 1.78988e-21)
(1.00005 0.011871 7.10909e-21)
(1.00019 0.0118833 -3.54887e-21)
(1.00034 0.0118799 -1.11847e-23)
(1.00049 0.0118615 -1.23186e-23)
(1.00065 0.0118266 0)
(1.00082 0.0117743 -3.45327e-21)
(1.00099 0.0117048 -3.42221e-21)
(0.999562 0.00625019 0)
(0.999413 0.00633887 -6.365e-21)
(0.999245 0.00645193 6.35262e-21)
(0.999073 0.00657744 0)
(0.998903 0.00671848 0)
(0.99874 0.00687382 -4.1903e-21)
(0.998585 0.00704297 -3.31832e-24)
(0.998439 0.0072272 -4.18681e-21)
(0.998303 0.00742236 -8.72356e-24)
(0.998176 0.00763082 0)
(0.99806 0.00784945 0)
(0.997954 0.00807786 2.05953e-21)
(0.997859 0.00831663 0)
(0.997775 0.00856191 0)
(0.997701 0.0088153 -2.0448e-21)
(0.997638 0.00907433 4.09992e-21)
(0.997586 0.00933768 2.0402e-21)
(0.997546 0.0096066 0)
(0.997517 0.00987697 2.00213e-21)
(0.997498 0.0101493 -5.03652e-21)
(0.997492 0.0104232 -2.00245e-21)
(0.997496 0.0106958 -1.98928e-21)
(0.997512 0.0109673 1.98947e-21)
(0.997538 0.0112369 1.4287e-24)
(0.997576 0.0115025 1.54185e-23)
(0.997625 0.0117636 2.44218e-22)
(0.997685 0.0120197 -4.88404e-22)
(0.997756 0.012269 0)
(0.997837 0.0125107 -9.62802e-22)
(0.997929 0.0127446 0)
(0.998031 0.0129688 0)
(0.998143 0.013183 -1.90303e-21)
(0.998265 0.0133864 -7.54566e-21)
(0.998397 0.0135777 2.56738e-23)
(0.998538 0.0137565 1.87468e-21)
(0.998689 0.0139221 0)
(0.998848 0.0140733 -1.84354e-21)
(0.999017 0.0142098 -3.67199e-21)
(0.999194 0.0143311 3.64356e-21)
(0.999379 0.0144358 7.24776e-21)
(0.999572 0.0145243 -7.20141e-21)
(0.999774 0.0145953 -5.26125e-25)
(0.999982 0.0146483 -3.55659e-21)
(1.0002 0.0146835 -3.67071e-24)
(1.00042 0.014699 0)
(1.00065 0.014696 -3.48886e-21)
(1.00089 0.0146723 -1.72646e-21)
(1.00114 0.0146273 1.72519e-21)
(1.00141 0.0145638 3.4229e-21)
(0.999153 0.00613028 0)
(0.998946 0.00626325 4.25545e-21)
(0.998712 0.00642926 -1.27859e-20)
(0.998471 0.00660998 0)
(0.998232 0.00680974 0)
(0.998001 0.00702703 -8.46808e-21)
(0.997781 0.00726139 8.42958e-21)
(0.997574 0.00751465 -4.22488e-21)
(0.99738 0.00778127 -8.75606e-24)
(0.9972 0.00806469 4.19101e-21)
(0.997034 0.00836064 0)
(0.996884 0.00866884 0)
(0.996748 0.00899012 4.16639e-21)
(0.996628 0.00931932 0)
(0.996523 0.00965885 0)
(0.996434 0.0100053 -4.10819e-21)
(0.99636 0.0103572 1.67867e-23)
(0.996303 0.0107162 0)
(0.996262 0.0110768 2.023e-21)
(0.996236 0.0114399 5.05624e-21)
(0.996227 0.0118051 -2.02557e-21)
(0.996234 0.0121686 0)
(0.996257 0.0125308 -9.95616e-22)
(0.996297 0.0128906 1.24353e-21)
(0.996352 0.0132452 -5.41854e-22)
(0.996423 0.0135944 -2.46798e-22)
(0.99651 0.0139374 4.85175e-22)
(0.996612 0.0142717 -9.76045e-22)
(0.996729 0.0145967 0)
(0.996862 0.0149119 -3.85275e-21)
(0.997009 0.015215 5.74023e-21)
(0.997171 0.0155055 1.87927e-21)
(0.997347 0.0157827 -9.86455e-24)
(0.997537 0.0160447 1.8739e-21)
(0.99774 0.0162912 -1.88409e-21)
(0.997957 0.0165213 -3.70649e-21)
(0.998186 0.0167336 7.38715e-21)
(0.998428 0.0169276 -3.67411e-21)
(0.998682 0.0171028 7.30567e-21)
(0.998947 0.0172575 3.20921e-24)
(0.999224 0.0173923 7.19735e-21)
(0.999511 0.0175055 -3.57406e-21)
(0.99981 0.0175966 0)
(1.00012 0.017666 -4.33304e-24)
(1.00044 0.0177113 6.99818e-21)
(1.00077 0.0177341 0)
(1.00111 0.0177315 0)
(1.00146 0.0177035 5.99133e-21)
(1.00184 0.0176565 8.53951e-22)
(0.998561 0.0054293 1.0777e-21)
(0.998282 0.0056213 7.57582e-21)
(0.997967 0.00585488 8.55508e-21)
(0.997642 0.00610573 -8.61769e-21)
(0.997317 0.00638006 0)
(0.997003 0.00667582 -1.22825e-23)
(0.996702 0.00699262 -4.29719e-21)
(0.996417 0.00733287 -4.2803e-21)
(0.996151 0.00768941 1.27322e-20)
(0.995903 0.00806699 -4.22964e-21)
(0.995675 0.00845997 0)
(0.995468 0.00886823 8.41514e-21)
(0.99528 0.00929284 -8.35732e-21)
(0.995114 0.00972717 3.02427e-23)
(0.994969 0.0101746 8.31341e-21)
(0.994845 0.0106305 -2.08799e-21)
(0.994743 0.0110933 -2.02386e-21)
(0.994663 0.011565 4.11764e-21)
(0.994605 0.0120388 0)
(0.99457 0.0125157 -2.02907e-21)
(0.994557 0.0129954 2.02931e-21)
(0.994566 0.0134731 2.01446e-21)
(0.994597 0.0139492 -2.0144e-21)
(0.994651 0.0144224 2.51098e-22)
(0.994727 0.0148893 3.0969e-23)
(0.994825 0.0153496 7.399e-22)
(0.994944 0.0158022 -2.98898e-24)
(0.995085 0.0162441 0)
(0.995247 0.0166747 0)
(0.99543 0.017093 5.08411e-26)
(0.995634 0.0174964 -1.90584e-21)
(0.995857 0.0178844 3.83349e-21)
(0.9961 0.0182557 -3.79916e-21)
(0.996362 0.0186084 3.76148e-21)
(0.996643 0.0189419 -7.51886e-21)
(0.996941 0.0192553 1.86708e-23)
(0.997257 0.0195466 3.71036e-21)
(0.99759 0.0198155 3.66241e-21)
(0.997939 0.0200612 -7.31918e-21)
(0.998304 0.0202819 -7.25611e-21)
(0.998683 0.0204781 -3.60877e-21)
(0.999078 0.0206481 -3.58201e-21)
(0.999486 0.020791 0)
(0.999907 0.0209076 -3.52002e-21)
(1.00034 0.020995 -1.47667e-23)
(1.00079 0.0210553 6.92284e-21)
(1.00126 0.0210848 -8.58288e-21)
(1.00174 0.0210839 1.68555e-21)
(1.00225 0.0210648 0)
(0.997743 0.00405733 0)
(0.997375 0.00432612 -8.67057e-21)
(0.996962 0.00464341 0)
(0.996532 0.00498103 8.63081e-21)
(0.996102 0.00534791 4.32035e-21)
(0.995683 0.00574127 -8.63103e-21)
(0.995282 0.00616073 1.28828e-20)
(0.994901 0.00660934 4.27112e-21)
(0.994543 0.00707805 -4.26206e-21)
(0.99421 0.00757308 0)
(0.993903 0.00808719 4.25192e-21)
(0.993622 0.00862041 -8.47649e-21)
(0.993368 0.00917406 4.25723e-21)
(0.993142 0.00973979 -4.19462e-21)
(0.992945 0.010322 3.44908e-23)
(0.992776 0.010915 4.193e-21)
(0.992637 0.0115167 -8.34226e-21)
(0.992527 0.0121297 0)
(0.992446 0.0127453 4.12349e-21)
(0.992396 0.0133654 -4.12341e-21)
(0.992375 0.013989 -1.01844e-21)
(0.992385 0.0146103 0)
(0.992425 0.0152301 1.01889e-21)
(0.992495 0.0158464 2.51768e-22)
(0.992595 0.0164552 -5.34012e-22)
(0.992725 0.017056 7.47321e-22)
(0.992884 0.0176474 4.91133e-22)
(0.993072 0.0182258 -9.87746e-22)
(0.993289 0.0187903 0)
(0.993534 0.0193396 -1.93919e-21)
(0.993807 0.0198707 3.87804e-21)
(0.994107 0.0203827 0)
(0.994433 0.0208741 1.90164e-21)
(0.994784 0.0213426 0)
(0.995161 0.0217872 3.75255e-21)
(0.995561 0.022207 -7.46674e-21)
(0.995985 0.0225997 3.69188e-21)
(0.996431 0.0229645 -2.61891e-23)
(0.996898 0.0233008 3.61991e-21)
(0.997385 0.0236064 -3.63625e-21)
(0.997892 0.0238819 3.59371e-21)
(0.998417 0.0241252 7.13056e-21)
(0.99896 0.0243355 0)
(0.99952 0.0245138 0)
(1.0001 0.0246566 -6.97513e-21)
(1.00069 0.0247665 -1.38145e-20)
(1.00131 0.0248391 1.3702e-20)
(1.00194 0.0248755 -7.66137e-21)
(1.00261 0.0248955 7.56903e-21)
(0.996652 0.00192451 0)
(0.996176 0.00228604 8.87481e-21)
(0.995645 0.00269855 8.84918e-21)
(0.995086 0.00314009 1.32315e-20)
(0.994524 0.00362017 -1.32094e-20)
(0.993975 0.00413387 -4.3681e-21)
(0.993446 0.00468006 1.3159e-20)
(0.992943 0.00526228 -4.345e-21)
(0.992469 0.0058696 4.34746e-21)
(0.992027 0.00651 0)
(0.991617 0.00717436 8.69174e-21)
(0.991243 0.00786292 0)
(0.990903 0.00857711 -4.25846e-21)
(0.9906 0.00930675 -4.30233e-21)
(0.990334 0.0100574 5.71145e-23)
(0.990105 0.0108218 0)
(0.989915 0.0115975 4.23323e-21)
(0.989764 0.0123878 8.43783e-21)
(0.989651 0.0131819 0)
(0.989579 0.0139821 2.07513e-21)
(0.989547 0.0147871 -2.07445e-21)
(0.989554 0.01559 -2.05304e-21)
(0.989602 0.0163914 2.06475e-21)
(0.98969 0.0171889 -4.61064e-24)
(0.989818 0.0179777 -5.0734e-22)
(0.989986 0.0187569 -2.23041e-22)
(0.990193 0.0195247 -5.01074e-22)
(0.990439 0.0202768 9.97727e-22)
(0.990724 0.0210118 0)
(0.991046 0.0217279 1.95156e-21)
(0.991405 0.0224217 -3.88762e-21)
(0.991801 0.0230917 0)
(0.99223 0.0237361 0)
(0.992695 0.0243519 3.78775e-21)
(0.993191 0.024938 -7.54755e-21)
(0.993719 0.0254931 3.76405e-21)
(0.994278 0.0260143 3.7273e-21)
(0.994864 0.0265008 0)
(0.995479 0.0269518 1.09508e-20)
(0.996119 0.0273644 -7.24665e-21)
(0.996784 0.02774 -3.57956e-21)
(0.997472 0.0280755 -2.41352e-24)
(0.998181 0.0283703 -7.05941e-21)
(0.998912 0.0286257 -6.98936e-21)
(0.999664 0.0288375 -6.93026e-21)
(1.00044 0.0290092 2.76012e-23)
(1.00123 0.0291353 -3.38236e-23)
(1.00206 0.0292179 0)
(1.00292 0.0292868 -1.33945e-20)
(0.99528 -0.00109843 0)
(0.99464 -0.000573008 2.34989e-21)
(0.99394 -6.65046e-05 -1.11026e-20)
(0.993214 0.000467626 -8.86258e-21)
(0.992488 0.00108025 8.84057e-21)
(0.991788 0.0017395 4.50959e-21)
(0.991102 0.002439 -4.36785e-21)
(0.990444 0.00318523 0)
(0.989822 0.00396374 0)
(0.989239 0.00478423 8.85754e-21)
(0.988697 0.00563519 -8.69997e-21)
(0.9882 0.006517 4.36048e-21)
(0.987748 0.00743108 -4.35683e-21)
(0.987342 0.0083653 4.34767e-21)
(0.986985 0.00932643 4.34679e-21)
(0.986676 0.0103057 -4.30677e-21)
(0.986417 0.0113001 -4.2501e-21)
(0.986209 0.0123132 -4.22843e-21)
(0.986052 0.0133325 4.22713e-21)
(0.985948 0.0143606 -4.22605e-21)
(0.985895 0.0153953 0)
(0.985896 0.0164286 2.09987e-21)
(0.985951 0.017461 -2.06209e-21)
(0.986058 0.0184893 1.54395e-21)
(0.986219 0.0195078 0)
(0.986433 0.0205147 1.01644e-21)
(0.986699 0.0215079 0)
(0.987016 0.0224821 -9.96483e-22)
(0.987386 0.0234352 1.88632e-23)
(0.987805 0.0243648 1.45305e-23)
(0.988273 0.0252665 3.93393e-21)
(0.988789 0.0261383 0)
(0.989351 0.0269779 0)
(0.989958 0.0277814 0)
(0.990607 0.0285469 0)
(0.991297 0.0292734 -7.50797e-21)
(0.992027 0.0299568 3.73856e-21)
(0.992792 0.0305962 0)
(0.993593 0.0311906 -3.66285e-21)
(0.994427 0.0317364 -3.63971e-21)