/*--------------------------------*- C++ -*----------------------------------*\
| =========                 |                                                 |
| \\      /  F ield         | OpenFOAM: The Open Source CFD Toolbox           |
|  \\    /   O peration     | Version:  2312                                  |
|   \\  /    A nd           | Website:  www.openfoam.com                      |
|    \\/     M anipulation  |                                                 |
\*---------------------------------------------------------------------------*/
FoamFile
{
    version     2.0;
    format      ascii;
    arch        "LSB;label=32;scalar=64";
    class       volScalarField;
    location    "82.615278400045312";
    object      p;
}
// * * * * * * * * * * * * * * * * * * * * * * * * * * * * * * * * * * * * * //

dimensions      [0 2 -2 0 0 0 0];

internalField   nonuniform List<scalar> 
21039
(
0.608374
0.474663
0.43236
0.404069
0.382689
0.366534
0.354007
0.344005
0.335845
0.329076
0.323379
0.318525
0.31434
0.310695
0.307484
0.304625
0.30205
0.299703
0.297535
0.295506
0.293581
0.291729
0.289923
0.288246
0.286786
0.285505
0.284355
0.2833
0.28232
0.461377
0.423482
0.409585
0.391176
0.374346
0.360983
0.350143
0.341191
0.333733
0.327456
0.322116
0.317529
0.31355
0.310066
0.306984
0.304232
0.301745
0.299473
0.297369
0.295395
0.293516
0.291703
0.289928
0.288272
0.28682
0.285539
0.284389
0.283333
0.282352
0.371967
0.369543
0.371658
0.36487
0.356364
0.348493
0.341152
0.334519
0.328668
0.323537
0.319039
0.315085
0.311596
0.308498
0.305729
0.303233
0.300962
0.298873
0.296929
0.295093
0.293336
0.291629
0.289947
0.288363
0.286961
0.285716
0.284593
0.283559
0.282597
0.333902
0.336004
0.340438
0.339312
0.336635
0.333345
0.329458
0.32544
0.321558
0.317912
0.314548
0.311475
0.308682
0.306145
0.303836
0.301725
0.29978
0.297974
0.296276
0.29466
0.293099
0.291568
0.290045
0.288594
0.287295
0.286129
0.285067
0.28408
0.283153
0.308947
0.312906
0.318767
0.32044
0.320592
0.319803
0.318192
0.316172
0.313962
0.311687
0.309444
0.307289
0.305252
0.303346
0.301569
0.299913
0.298365
0.296906
0.29552
0.294184
0.292879
0.291583
0.290277
0.289011
0.287857
0.286805
0.28583
0.28491
0.284031
0.289388
0.294634
0.301964
0.305804
0.307774
0.308531
0.308397
0.307749
0.306771
0.305586
0.304293
0.302965
0.301644
0.300361
0.299129
0.297955
0.296836
0.295767
0.294734
0.293725
0.292724
0.291712
0.290671
0.289637
0.288666
0.287757
0.286893
0.286058
0.285242
0.276716
0.281729
0.28881
0.293737
0.296934
0.298839
0.299809
0.300188
0.300151
0.299829
0.299325
0.298709
0.298034
0.297334
0.296633
0.295943
0.295269
0.294612
0.293966
0.29332
0.292663
0.291979
0.291252
0.290494
0.289745
0.289011
0.288285
0.287556
0.286818
0.269533
0.273624
0.279356
0.284296
0.287989
0.290551
0.292263
0.293391
0.294083
0.294457
0.29461
0.29461
0.294511
0.29435
0.294153
0.293938
0.293714
0.293484
0.293247
0.292996
0.29272
0.292406
0.292039
0.291605
0.29112
0.290596
0.290037
0.289437
0.288795
0.265142
0.268332
0.272696
0.277188
0.280884
0.283678
0.285781
0.287385
0.288597
0.289507
0.290194
0.290718
0.291127
0.291457
0.291735
0.29198
0.292202
0.292408
0.292598
0.292767
0.292906
0.293003
0.293043
0.292982
0.292806
0.292532
0.292172
0.291728
0.291202
0.261882
0.264324
0.267651
0.271618
0.275135
0.277955
0.280237
0.282119
0.283679
0.284984
0.286092
0.287052
0.287903
0.288676
0.289397
0.290082
0.290745
0.29139
0.29202
0.29263
0.293215
0.293761
0.294256
0.294619
0.294799
0.294818
0.294696
0.294438
0.294054
0.259049
0.260892
0.263474
0.266937
0.270225
0.273005
0.275369
0.277422
0.279222
0.280821
0.282263
0.283585
0.284819
0.285991
0.287123
0.28823
0.289323
0.290409
0.291488
0.292559
0.293617
0.29465
0.295646
0.296485
0.297076
0.297437
0.297596
0.297564
0.297367
0.256326
0.257725
0.259783
0.262786
0.265833
0.268542
0.270942
0.273106
0.275081
0.276909
0.278623
0.280252
0.281823
0.283357
0.284873
0.286383
0.287898
0.289423
0.290961
0.29251
0.294064
0.295617
0.297157
0.298526
0.299576
0.300322
0.300794
0.301003
0.300969
0.253549
0.25464
0.256334
0.258943
0.261758
0.26438
0.266784
0.269018
0.271125
0.273135
0.275076
0.276972
0.278843
0.280708
0.282583
0.28448
0.286409
0.288374
0.290378
0.292417
0.294487
0.296583
0.298702
0.300643
0.302203
0.30339
0.304235
0.304748
0.304943
0.250645
0.251523
0.25296
0.255241
0.257843
0.260372
0.262761
0.26504
0.267244
0.269402
0.271533
0.27366
0.275799
0.277969
0.280183
0.282454
0.284791
0.287198
0.289674
0.292213
0.29481
0.29746
0.300166
0.302692
0.304784
0.306445
0.307702
0.308558
0.309023
0.247589
0.24832
0.249557
0.251552
0.25395
0.256382
0.258746
0.261052
0.26333
0.265605
0.267896
0.270222
0.272601
0.27505
0.277584
0.280217
0.282958
0.285809
0.288764
0.291814
0.294946
0.298146
0.301415
0.304479
0.307052
0.309154
0.310818
0.312037
0.312808
0.244638
0.245264
0.246344
0.248128
0.250362
0.252703
0.255036
0.257356
0.259688
0.262053
0.264471
0.26696
0.269539
0.27223
0.27505
0.278016
0.281136
0.28441
0.287831
0.29138
0.295027
0.29873
0.302458
0.305861
0.308644
0.310895
0.312718
0.314144
0.315161
0.242104
0.242663
0.243648
0.245299
0.247411
0.249673
0.251977
0.254312
0.25669
0.259129
0.261649
0.26427
0.267017
0.269914
0.272984
0.276244
0.279705
0.283371
0.287231
0.291258
0.2954
0.299572
0.303669
0.307186
0.309761
0.311555
0.312824
0.313825
0.314769
0.23998
0.240495
0.241415
0.24297
0.244989
0.247199
0.249503
0.25187
0.254299
0.256807
0.259418
0.262158
0.265056
0.268141
0.271439
0.274972
0.278757
0.282801
0.287097
0.291613
0.296282
0.300977
0.305499
0.309104
0.311186
0.311773
0.311123
0.309741
0.308697
0.238249
0.238816
0.239759
0.24122
0.243077
0.245187
0.24749
0.249909
0.252404
0.254987
0.25769
0.260548
0.263595
0.266862
0.27038
0.274179
0.278282
0.282705
0.287446
0.292479
0.297739
0.303084
0.308259
0.312285
0.314141
0.313342
0.309556
0.302227
0.291071
0.281377
0.280427
0.27948
0.278535
0.277592
0.276649
0.275706
0.274761
0.273814
0.272865
0.271911
0.270953
0.269991
0.269022
0.268047
0.267066
0.266078
0.265082
0.264078
0.263066
0.262047
0.261019
0.259983
0.258939
0.257888
0.256829
0.255764
0.254692
0.253614
0.252531
0.251443
0.250351
0.249256
0.248158
0.247059
0.245959
0.244859
0.243761
0.242664
0.241572
0.240483
0.239401
0.238324
0.237256
0.236196
0.235146
0.234107
0.233078
0.232062
0.281411
0.28047
0.279533
0.278598
0.277665
0.276731
0.275797
0.274861
0.273923
0.272981
0.272035
0.271085
0.270128
0.269166
0.268196
0.267219
0.266234
0.265241
0.264239
0.263229
0.262209
0.26118
0.260143
0.259096
0.258041
0.256978
0.255907
0.254829
0.253744
0.252654
0.251557
0.250456
0.249351
0.248243
0.247133
0.246022
0.244911
0.2438
0.242692
0.241586
0.240485
0.239389
0.2383
0.237218
0.236145
0.235081
0.234029
0.232988
0.231959
0.281677
0.280759
0.279844
0.27893
0.278017
0.277103
0.276187
0.275267
0.274344
0.273417
0.272483
0.271543
0.270595
0.269639
0.268675
0.2677
0.266716
0.265722
0.264717
0.263701
0.262674
0.261636
0.260587
0.259528
0.258458
0.257378
0.256289
0.255191
0.254085
0.252971
0.25185
0.250723
0.249592
0.248456
0.247317
0.246176
0.245034
0.243892
0.242752
0.241614
0.24048
0.23935
0.238227
0.23711
0.236003
0.234904
0.233817
0.232741
0.231679
0.282267
0.281384
0.280501
0.279617
0.278731
0.277842
0.276949
0.276051
0.275146
0.274234
0.273313
0.272383
0.271442
0.270491
0.269527
0.268551
0.267563
0.266561
0.265545
0.264515
0.263472
0.262415
0.261344
0.26026
0.259164
0.258054
0.256933
0.255801
0.254658
0.253506
0.252345
0.251176
0.250001
0.248819
0.247634
0.246444
0.245253
0.244061
0.242869
0.241678
0.24049
0.239307
0.238128
0.236956
0.235792
0.234637
0.233493
0.232359
0.231239
0.28319
0.282354
0.281512
0.280666
0.279815
0.278957
0.278091
0.277217
0.276333
0.275437
0.274529
0.273608
0.272673
0.271723
0.270757
0.269774
0.268775
0.267759
0.266725
0.265673
0.264604
0.263518
0.262415
0.261295
0.260159
0.259007
0.25784
0.25666
0.255466
0.25426
0.253043
0.251816
0.25058
0.249336
0.248086
0.246831
0.245572
0.244311
0.243049
0.241787
0.240527
0.239269
0.238016
0.236769
0.235529
0.234297
0.233075
0.231863
0.230664
0.284459
0.28368
0.282889
0.28209
0.281281
0.280461
0.279628
0.278782
0.277921
0.277044
0.27615
0.275237
0.274305
0.273353
0.272381
0.271387
0.270371
0.269333
0.268273
0.267191
0.266086
0.26496
0.263812
0.262644
0.261455
0.260247
0.25902
0.257776
0.256515
0.25524
0.25395
0.252647
0.251333
0.250009
0.248676
0.247337
0.245991
0.244642
0.24329
0.241937
0.240585
0.239234
0.237887
0.236545
0.235209
0.23388
0.23256
0.23125
0.229953
0.286106
0.285396
0.284667
0.283923
0.283164
0.282388
0.281594
0.28078
0.279945
0.279088
0.278207
0.277302
0.276372
0.275415
0.274431
0.273419
0.27238
0.271313
0.270217
0.269094
0.267943
0.266765
0.26556
0.26433
0.263074
0.261794
0.260492
0.259168
0.257823
0.25646
0.255079
0.253682
0.252271
0.250847
0.249412
0.247968
0.246515
0.245058
0.243595
0.24213
0.240665
0.2392
0.237738
0.236279
0.234826
0.23338
0.231942
0.230514
0.229099
0.288169
0.287539
0.286881
0.286202
0.285501
0.284776
0.284026
0.283248
0.282442
0.281606
0.280738
0.279839
0.278907
0.277941
0.276941
0.275905
0.274835
0.27373
0.272589
0.271414
0.270205
0.268962
0.267686
0.266379
0.265041
0.263674
0.262278
0.260856
0.25941
0.25794
0.256448
0.254936
0.253407
0.251862
0.250303
0.248732
0.247151
0.245562
0.243966
0.242367
0.240766
0.239164
0.237563
0.235966
0.234374
0.232788
0.23121
0.229642
0.22809
0.290676
0.290137
0.289562
0.288957
0.288323
0.287655
0.286954
0.286217
0.285442
0.284629
0.283775
0.282881
0.281944
0.280965
0.279943
0.278877
0.277768
0.276616
0.27542
0.274182
0.272903
0.271582
0.270221
0.268822
0.267386
0.265913
0.264407
0.262869
0.261299
0.259702
0.258078
0.25643
0.25476
0.25307
0.251363
0.249641
0.247906
0.24616
0.244407
0.242647
0.240884
0.23912
0.237356
0.235595
0.233838
0.232089
0.230346
0.228615
0.226902
0.293648
0.293206
0.292724
0.292206
0.291648
0.291047
0.290402
0.28971
0.288971
0.288182
0.287344
0.286454
0.285511
0.284516
0.283468
0.282367
0.281213
0.280006
0.278747
0.277436
0.276075
0.274664
0.273204
0.271698
0.270147
0.268552
0.266917
0.265241
0.263529
0.261782
0.260002
0.258192
0.256356
0.254494
0.252612
0.25071
0.248792
0.246861
0.244919
0.242969
0.241015
0.239057
0.2371
0.235145
0.233196
0.231253
0.229318
0.227397
0.225497
0.297143
0.296666
0.296327
0.295933
0.295471
0.294945
0.294366
0.29373
0.293035
0.292278
0.291459
0.290577
0.289631
0.288621
0.287547
0.286409
0.285207
0.283942
0.282614
0.281223
0.279772
0.278261
0.276692
0.275066
0.273385
0.271651
0.269866
0.268034
0.266154
0.264233
0.262271
0.260271
0.258238
0.256173
0.254082
0.251967
0.249829
0.247676
0.245509
0.243332
0.241148
0.23896
0.236773
0.234587
0.232408
0.230237
0.228076
0.225932
0.223814
0.300879
0.300725
0.300497
0.300204
0.299847
0.299308
0.298833
0.298274
0.297635
0.296919
0.29613
0.295266
0.294326
0.29331
0.292218
0.29105
0.289806
0.288486
0.287092
0.285622
0.284079
0.282464
0.280777
0.279022
0.277199
0.275309
0.273358
0.271347
0.269276
0.267152
0.264977
0.262752
0.260486
0.258178
0.255835
0.253461
0.251059
0.248636
0.246194
0.243739
0.241276
0.238807
0.236339
0.233874
0.231417
0.228971
0.226538
0.224128
0.221752
0.305034
0.305017
0.304912
0.304737
0.304496
0.304185
0.30379
0.303303
0.302733
0.302082
0.301347
0.300526
0.299617
0.298621
0.297534
0.296359
0.295092
0.293735
0.29229
0.290753
0.289127
0.287414
0.285611
0.283724
0.281752
0.279695
0.277559
0.275346
0.273056
0.270697
0.268269
0.265777
0.263228
0.260623
0.257972
0.255279
0.252547
0.249786
0.247001
0.244198
0.241384
0.238563
0.235745
0.232931
0.230131
0.227346
0.22458
0.221845
0.219157
0.309339
0.309499
0.309564
0.309552
0.309458
0.309281
0.30902
0.30867
0.308233
0.307702
0.307078
0.306364
0.305545
0.304619
0.303592
0.302459
0.301213
0.29986
0.298401
0.296827
0.295146
0.293355
0.29145
0.289437
0.287316
0.285083
0.282747
0.280308
0.277764
0.275126
0.272395
0.269574
0.266675
0.263697
0.260653
0.25755
0.254392
0.251194
0.247961
0.244703
0.241432
0.238152
0.234878
0.231614
0.228371
0.225155
0.221969
0.218831
0.215759
0.313383
0.313744
0.314016
0.314224
0.314358
0.314419
0.314398
0.314291
0.314092
0.313788
0.313378
0.312847
0.312194
0.311417
0.310555
0.309526
0.308376
0.307101
0.305692
0.304139
0.30245
0.300622
0.298646
0.29653
0.294269
0.291859
0.289308
0.286615
0.283776
0.280804
0.2777
0.274468
0.271121
0.267661
0.264105
0.260462
0.256738
0.252954
0.249118
0.245247
0.241356
0.237454
0.233564
0.229693
0.22586
0.222075
0.218344
0.21469
0.211137
0.315978
0.316508
0.317037
0.317601
0.318164
0.318699
0.319162
0.319527
0.31977
0.31987
0.319826
0.319625
0.319272
0.31875
0.318056
0.317242
0.316308
0.315185
0.313902
0.312444
0.31082
0.309022
0.307034
0.304864
0.302501
0.299935
0.297175
0.294215
0.291049
0.287693
0.284145
0.280412
0.276513
0.272449
0.268243
0.26391
0.259459
0.254919
0.2503
0.245627
0.240922
0.236199
0.231493
0.226818
0.222207
0.217682
0.21326
0.208976
0.204863
0.315779
0.316396
0.317368
0.318683
0.320135
0.321573
0.32287
0.323965
0.324831
0.32545
0.325844
0.32601
0.325979
0.325762
0.325354
0.324757
0.323949
0.323138
0.322026
0.320728
0.31925
0.317565
0.315648
0.313503
0.311109
0.308447
0.305525
0.302328
0.298846
0.295099
0.291083
0.286809
0.282302
0.277564
0.272633
0.267526
0.262257
0.256868
0.251368
0.245792
0.240163
0.234497
0.228838
0.223202
0.217639
0.21219
0.206903
0.201856
0.197111
0.308372
0.30944
0.312551
0.316438
0.320159
0.32337
0.325963
0.327978
0.329499
0.330592
0.331349
0.331808
0.332029
0.33205
0.331883
0.331555
0.331011
0.330281
0.329498
0.328445
0.327204
0.325739
0.324002
0.321988
0.319664
0.316991
0.31397
0.310577
0.306794
0.302645
0.298127
0.293256
0.288069
0.282577
0.276831
0.27086
0.264688
0.258373
0.251926
0.245392
0.238791
0.232135
0.225456
0.218752
0.212062
0.205419
0.198908
0.192727
0.187162
0.282635
0.293119
0.305079
0.314754
0.321818
0.326805
0.330278
0.332719
0.334447
0.33566
0.336503
0.337042
0.337357
0.337486
0.337455
0.337307
0.337014
0.336566
0.335987
0.335268
0.334335
0.333168
0.331703
0.329926
0.327784
0.325211
0.322185
0.318669
0.314636
0.310114
0.305105
0.299635
0.293756
0.287492
0.280914
0.27407
0.266998
0.259774
0.252424
0.245001
0.23753
0.230016
0.222473
0.214847
0.207098
0.199129
0.19085
0.182321
0.174181
0.231067
0.230031
0.228897
0.227648
0.226264
0.224734
0.223085
0.22151
0.220152
0.219043
0.218217
0.217708
0.217556
0.217808
0.218518
0.219748
0.221575
0.224097
0.22744
0.231771
0.237312
0.244376
0.253409
0.265086
0.280507
0.301269
0.329061
0.370893
0.504231
0.230949
0.229896
0.228742
0.227467
0.226051
0.22448
0.222786
0.22116
0.219751
0.218589
0.217705
0.217135
0.216913
0.217085
0.217696
0.218805
0.22048
0.222808
0.225894
0.229878
0.234937
0.241309
0.249299
0.259296
0.271928
0.28813
0.306029
0.319445
0.357
0.230633
0.229541
0.228339
0.227007
0.22552
0.223863
0.222065
0.220323
0.218793
0.217504
0.216484
0.215762
0.21537
0.215343
0.215716
0.216534
0.217845
0.219707
0.222184
0.22535
0.229284
0.234069
0.239758
0.246271
0.253418
0.261292
0.267541
0.264902
0.267001
0.230133
0.228975
0.227695
0.22627
0.224672
0.222881
0.220921
0.219001
0.217286
0.215802
0.214572
0.21362
0.21297
0.212644
0.212665
0.213058
0.213845
0.215047
0.21668
0.218748
0.221231
0.224077
0.227177
0.230256
0.232836
0.234883
0.235445
0.23048
0.228098
0.229476
0.228228
0.226842
0.225291
0.223544
0.221574
0.219403
0.217251
0.215298
0.213567
0.212074
0.21084
0.209877
0.209197
0.208808
0.208717
0.208924
0.209421
0.210186
0.211181
0.212338
0.213553
0.214691
0.215523
0.215627
0.214859
0.212628
0.206274
0.202096
0.228663
0.227302
0.225784
0.224078
0.222145
0.219956
0.217526
0.215096
0.212864
0.210846
0.209058
0.207509
0.206206
0.205153
0.204344
0.203773
0.203423
0.20327
0.203274
0.20338
0.203508
0.203546
0.20336
0.20276
0.201356
0.198803
0.194434
0.186664
0.181252
0.227686
0.226188
0.22451
0.222616
0.220463
0.218014
0.215282
0.212532
0.209984
0.207651
0.205543
0.203664
0.202012
0.200596
0.199381
0.198363
0.197514
0.1968
0.196174
0.195573
0.194914
0.194082
0.192936
0.191292
0.188794
0.185063
0.179658
0.172198
0.167065
0.22653
0.224869
0.223003
0.220888
0.218476
0.215726
0.212648
0.209541
0.206647
0.203977
0.201537
0.199326
0.197338
0.195562
0.193978
0.192562
0.191283
0.190102
0.188965
0.187808
0.186548
0.185079
0.183269
0.180961
0.177877
0.173718
0.16837
0.162332
0.158163
0.225171
0.22332
0.221233
0.218862
0.216151
0.213056
0.209591
0.206091
0.202827
0.199808
0.197033
0.194498
0.192189
0.190089
0.188178
0.186422
0.184788
0.183232
0.181702
0.180136
0.17846
0.176583
0.174402
0.1718
0.168576
0.164504
0.15969
0.1551
0.151865
0.223568
0.221495
0.219152
0.216484
0.213432
0.209948
0.206054
0.202129
0.198478
0.195105
0.192004
0.189162
0.186563
0.184184
0.181996
0.179967
0.178057
0.176225
0.174419
0.172585
0.17066
0.168571
0.16624
0.163579
0.160439
0.156655
0.152461
0.148988
0.146527
0.221651
0.21932
0.216681
0.213672
0.21023
0.20631
0.201945
0.197571
0.193524
0.189803
0.186394
0.183278
0.180431
0.177823
0.175421
0.173189
0.171087
0.169073
0.167099
0.165116
0.16307
0.160904
0.158553
0.155949
0.152982
0.149548
0.145963
0.143308
0.14147
0.219314
0.216681
0.213697
0.210294
0.20641
0.202006
0.197133
0.192292
0.187854
0.183805
0.180123
0.176777
0.173736
0.170962
0.168416
0.166057
0.163845
0.161737
0.159687
0.15765
0.15558
0.153428
0.151143
0.148665
0.145917
0.142858
0.139839
0.13778
0.136407
0.216389
0.213401
0.210014
0.206157
0.201774
0.196839
0.191431
0.186125
0.181319
0.176984
0.173083
0.169571
0.166406
0.163541
0.160929
0.158525
0.156287
0.154168
0.152125
0.150117
0.148101
0.146036
0.143879
0.141579
0.139084
0.136401
0.133887
0.132256
0.13121
0.212591
0.20918
0.205323
0.20095
0.196015
0.190518
0.184575
0.178838
0.173723
0.169176
0.165139
0.16155
0.158352
0.155487
0.152901
0.150543
0.148364
0.146319
0.144365
0.142461
0.140569
0.138653
0.136676
0.134594
0.132371
0.130052
0.127976
0.126662
0.125845
0.207479
0.203565
0.199169
0.194224
0.18871
0.182659
0.176235
0.170157
0.164842
0.160201
0.156149
0.152603
0.149489
0.146735
0.144281
0.142066
0.14004
0.138156
0.13637
0.134643
0.132939
0.131226
0.12947
0.127634
0.125702
0.123742
0.122058
0.120993
0.12033
0.200655
0.19621
0.191281
0.185815
0.179827
0.173379
0.166668
0.160457
0.155138
0.150586
0.146687
0.143335
0.14044
0.13792
0.135705
0.133732
0.131945
0.130296
0.128742
0.127245
0.125772
0.124291
0.122776
0.121198
0.11955
0.117907
0.116538
0.115673
0.115117
0.192311
0.18736
0.182037
0.17628
0.170095
0.163544
0.156836
0.150742
0.145627
0.141335
0.13773
0.13469
0.13211
0.129902
0.127989
0.126307
0.124799
0.123416
0.122117
0.120863
0.119623
0.118369
0.117079
0.11574
0.114354
0.112982
0.111852
0.111135
0.110655
0.181843
0.176685
0.171481
0.165927
0.159948
0.153613
0.147164
0.141388
0.136628
0.132715
0.129496
0.126836
0.124623
0.122765
0.121181
0.119808
0.118589
0.117477
0.116431
0.115415
0.114396
0.113348
0.112253
0.111111
0.109945
0.108807
0.107882
0.107294
0.106878
0.16783
0.163981
0.160031
0.155276
0.149859
0.143973
0.137955
0.132627
0.128317
0.124851
0.122063
0.119814
0.117985
0.116483
0.115229
0.114158
0.113218
0.112363
0.111553
0.110755
0.109936
0.109063
0.108127
0.107168
0.106257
0.105414
0.104694
0.104158
0.103724
0.236464
0.236812
0.237577
0.239064
0.241116
0.243437
0.245875
0.248366
0.250916
0.25357
0.25637
0.259353
0.262555
0.26601
0.269755
0.273822
0.278245
0.283044
0.288226
0.293769
0.299619
0.305631
0.311518
0.316146
0.318135
0.316309
0.309159
0.294347
0.26357
0.234675
0.235145
0.236026
0.237505
0.239477
0.241727
0.244136
0.246643
0.249252
0.251997
0.254914
0.258041
0.261413
0.265069
0.269049
0.273395
0.278146
0.283332
0.288972
0.29507
0.30161
0.308516
0.315588
0.321772
0.32578
0.32688
0.324506
0.320499
0.324733
0.232836
0.233389
0.234356
0.235832
0.237739
0.239918
0.242278
0.244777
0.247419
0.250231
0.253242
0.256486
0.260001
0.263832
0.268023
0.272626
0.277691
0.283268
0.289404
0.296152
0.303585
0.311804
0.320925
0.330357
0.33929
0.347853
0.356377
0.363628
0.380119
0.230921
0.231454
0.232396
0.23386
0.235774
0.237965
0.240326
0.24283
0.245496
0.248353
0.251432
0.254768
0.258401
0.262379
0.266755
0.271589
0.276947
0.2829
0.289534
0.296964
0.305371
0.315085
0.32664
0.339895
0.354369
0.370156
0.38797
0.404517
0.425808
0.228932
0.229431
0.230324
0.231759
0.233676
0.235884
0.238258
0.240773
0.243458
0.246348
0.249478
0.252885
0.256612
0.260712
0.265242
0.270274
0.275888
0.282175
0.289255
0.29731
0.30661
0.317684
0.331439
0.347876
0.366775
0.388024
0.411599
0.435694
0.462355
0.226869
0.227351
0.228213
0.229612
0.2315
0.233692
0.236058
0.238572
0.241263
0.24417
0.247331
0.250785
0.254579
0.258766
0.263411
0.268593
0.274403
0.28095
0.288375
0.296924
0.306895
0.318956
0.334283
0.352568
0.373779
0.397956
0.425547
0.454983
0.484343
0.224728
0.2252
0.22604
0.227399
0.229239
0.231388
0.233722
0.236215
0.238893
0.241796
0.244962
0.248433
0.252256
0.256488
0.261198
0.266467
0.272395
0.279105
0.286727
0.29559
0.305911
0.318445
0.334171
0.354191
0.376876
0.401716
0.428385
0.455885
0.483484
0.222502
0.222963
0.223779
0.225092
0.226872
0.228964
0.23125
0.233701
0.236343
0.239216
0.242358
0.245811
0.249623
0.253851
0.258565
0.263848
0.269802
0.276565
0.284195
0.293169
0.303371
0.316205
0.332332
0.352298
0.374372
0.397706
0.421507
0.445309
0.468915
0.220189
0.220637
0.221425
0.222686
0.224396
0.226417
0.228636
0.231025
0.233609
0.236424
0.239511
0.242908
0.246664
0.250834
0.255488
0.260705
0.266579
0.273287
0.280687
0.289482
0.299814
0.312328
0.327879
0.34644
0.366426
0.387046
0.407572
0.427737
0.446841
0.217786
0.218223
0.218981
0.220183
0.221811
0.223744
0.225879
0.228185
0.230685
0.233416
0.236412
0.239715
0.243368
0.247425
0.251951
0.25702
0.262694
0.269143
0.276446
0.284869
0.294773
0.30648
0.320691
0.337134
0.354342
0.37162
0.388425
0.404778
0.419708
0.215292
0.215716
0.21644
0.217577
0.219114
0.220947
0.222979
0.225182
0.227574
0.230191
0.233065
0.236234
0.239738
0.243625
0.247956
0.252795
0.25822
0.264352
0.271297
0.279178
0.288269
0.298829
0.311301
0.325262
0.339375
0.353021
0.365834
0.378128
0.389068
0.212706
0.213117
0.213806
0.214874
0.21631
0.218028
0.21994
0.222018
0.224279
0.226753
0.229473
0.23247
0.235781
0.239447
0.243524
0.248077
0.253164
0.258874
0.265268
0.272441
0.280543
0.289755
0.300285
0.311589
0.322532
0.332615
0.341634
0.350069
0.357347
0.210033
0.210434
0.211091
0.212084
0.213409
0.214994
0.216764
0.218695
0.220801
0.223107
0.22564
0.228429
0.231505
0.234905
0.238675
0.242871
0.24753
0.252714
0.258448
0.264792
0.271803
0.279557
0.288067
0.296735
0.304678
0.31156
0.317326
0.322501
0.326745
0.207271
0.207659
0.208276
0.20919
0.210398
0.211843
0.213461
0.215228
0.217156
0.219268
0.221587
0.224135
0.22694
0.230031
0.233443
0.237217
0.241376
0.245959
0.250962
0.256401
0.262262
0.26853
0.275075
0.281318
0.286639
0.290865
0.294067
0.296756
0.298784
0.204427
0.204803
0.205379
0.206211
0.207294
0.208589
0.210039
0.211625
0.213357
0.215254
0.217335
0.219616
0.222117
0.224861
0.227872
0.231174
0.234782
0.23871
0.242932
0.247425
0.252124
0.256952
0.261693
0.265836
0.26901
0.271182
0.272504
0.273469
0.274102
0.201506
0.201872
0.202408
0.203154
0.204108
0.205241
0.206511
0.2079
0.20942
0.211084
0.212906
0.214896
0.217065
0.219428
0.222
0.224793
0.227809
0.231042
0.23445
0.237982
0.241543
0.245021
0.24816
0.250559
0.252067
0.252756
0.25282
0.252731
0.252678
0.198513
0.198867
0.199359
0.200017
0.200838
0.201806
0.202891
0.204072
0.205367
0.206785
0.208331
0.210008
0.211823
0.213781
0.215887
0.218142
0.220537
0.223051
0.22563
0.228207
0.230677
0.232915
0.234666
0.235661
0.235944
0.235659
0.234986
0.234378
0.234177
0.195457
0.195799
0.196248
0.196817
0.197504
0.198301
0.199193
0.200158
0.201224
0.202383
0.203639
0.204991
0.206435
0.20797
0.209592
0.21129
0.213047
0.21483
0.216578
0.21822
0.219653
0.22076
0.221315
0.221204
0.220632
0.219779
0.218757
0.218001
0.218
0.192347
0.192682
0.193088
0.193568
0.19412
0.194743
0.195424
0.196185
0.197008
0.197899
0.198858
0.199875
0.200939
0.202041
0.203166
0.204298
0.205408
0.206455
0.207378
0.208105
0.208544
0.208605
0.208112
0.207117
0.205961
0.20483
0.203729
0.203067
0.203484
0.189191
0.189516
0.189874
0.190268
0.190685
0.191136
0.191623
0.192161
0.192742
0.193366
0.194026
0.194704
0.195385
0.196049
0.196675
0.197238
0.197702
0.198018
0.198125
0.197954
0.197433
0.196501
0.19505
0.193308
0.19175
0.190542
0.189549
0.189148
0.190126
0.185999
0.186317
0.186626
0.186936
0.187222
0.187505
0.187802
0.188114
0.188456
0.188816
0.189178
0.18952
0.189819
0.19005
0.190184
0.190186
0.190014
0.189613
0.188919
0.18787
0.186408
0.184506
0.182127
0.179687
0.177803
0.176622
0.175842
0.175801
0.177445
0.182781
0.183097
0.183351
0.183585
0.183738
0.183875
0.183971
0.184066
0.184174
0.184274
0.184345
0.184359
0.184286
0.184094
0.183748
0.183204
0.182413
0.181315
0.179843
0.177933
0.175539
0.172657
0.169315
0.166118
0.163863
0.162703
0.162151
0.162509
0.164903
0.179548
0.179872
0.180069
0.180225
0.180279
0.180244
0.180146
0.180035
0.179917
0.179767
0.179558
0.179255
0.178824
0.178225
0.177417
0.17635
0.174966
0.173198
0.170974
0.168224
0.164903
0.161012
0.156613
0.152487
0.149664
0.148361
0.147921
0.148625
0.151835
0.176314
0.176614
0.176801
0.176881
0.17681
0.176614
0.176341
0.17604
0.175711
0.175325
0.17485
0.174246
0.173475
0.17249
0.171245
0.169683
0.167738
0.165337
0.162398
0.158841
0.154607
0.149679
0.144112
0.138811
0.135078
0.133277
0.132633
0.133487
0.137506
0.173085
0.173374
0.173545
0.173557
0.17336
0.173012
0.172577
0.172099
0.171574
0.170971
0.170249
0.169365
0.168276
0.166933
0.165281
0.163259
0.160796
0.157807
0.154203
0.149891
0.144786
0.138828
0.132009
0.125267
0.120162
0.117265
0.115767
0.116327
0.121096
0.169871
0.17015
0.170286
0.170223
0.169916
0.169438
0.168861
0.16823
0.167534
0.166735
0.165788
0.164648
0.163267
0.161595
0.159572
0.157131
0.154194
0.150672
0.146463
0.141462
0.135557
0.128635
0.120586
0.112274
0.105401
0.100689
0.0972747
0.0966454
0.10207
0.166702
0.167022
0.167181
0.16707
0.166637
0.165982
0.16523
0.164441
0.163591
0.162622
0.161479
0.160112
0.158474
0.15651
0.15416
0.15135
0.147999
0.144009
0.139273
0.133676
0.127086
0.119322
0.110128
0.100217
0.0913343
0.0842526
0.0778099
0.0739174
0.0782119
0.133035
0.112737
0.084861
0.048754
0.00783848
-0.0331313
-0.0704123
-0.104832
-0.136407
-0.169194
-0.20286
-0.240361
-0.278791
-0.314687
-0.343679
-0.362962
-0.372655
-0.375264
-0.374861
0.14023
0.124273
0.0977946
0.0610954
0.0169828
-0.0307425
-0.077414
-0.124047
-0.168241
-0.216003
-0.263699
-0.31168
-0.357613
-0.397808
-0.428705
-0.449015
-0.460156
-0.465043
-0.466804
0.134685
0.119942
0.0950685
0.0584884
0.0124092
-0.0404421
-0.0944041
-0.152925
-0.211116
-0.269448
-0.327358
-0.383766
-0.435682
-0.479476
-0.512444
-0.534263
-0.54693
-0.553416
-0.556573
0.12328
0.109116
0.0863384
0.0507477
0.00216026
-0.055504
-0.118138
-0.184172
-0.251775
-0.31988
-0.38743
-0.452225
-0.510364
-0.557944
-0.592817
-0.615584
-0.629065
-0.636531
-0.640672
0.109075
0.0958963
0.0744057
0.0392473
-0.010718
-0.0714958
-0.139622
-0.212447
-0.288454
-0.366034
-0.442578
-0.51448
-0.577107
-0.626744
-0.662251
-0.685324
-0.699454
-0.70788
-0.712877
0.0897446
0.0771243
0.0570261
0.023068
-0.0267812
-0.0892039
-0.160947
-0.239777
-0.323279
-0.408722
-0.492218
-0.569036
-0.634278
-0.684916
-0.720946
-0.744865
-0.760459
-0.77069
-0.777384
0.0657105
0.0522584
0.0327282
-5.81912e-06
-0.0490857
-0.112142
-0.186205
-0.269056
-0.357511
-0.447696
-0.534625
-0.612719
-0.677206
-0.726049
-0.760359
-0.783249
-0.798644
-0.809081
-0.816018
0.0384259
0.0229478
0.00254959
-0.0300441
-0.0786254
-0.141636
-0.21648
-0.300804
-0.391006
-0.482399
-0.569134
-0.645247
-0.706589
-0.752299
-0.784394
-0.806229
-0.821504
-0.832177
-0.839449
0.00896833
-0.0090844
-0.0314939
-0.065234
-0.113984
-0.176592
-0.250846
-0.334416
-0.423468
-0.512713
-0.595768
-0.66683
-0.722757
-0.763827
-0.792661
-0.812594
-0.826986
-0.837289
-0.84437
-0.0217705
-0.0423993
-0.0673375
-0.103036
-0.152541
-0.214665
-0.287473
-0.368771
-0.454603
-0.539308
-0.616401
-0.680735
-0.730359
-0.766516
-0.792151
-0.810401
-0.824211
-0.834647
-0.842206
-0.0527761
-0.0756997
-0.103206
-0.141144
-0.19178
-0.253552
-0.324561
-0.402593
-0.483461
-0.561264
-0.62986
-0.685231
-0.726739
-0.756398
-0.777244
-0.792107
-0.803446
-0.812089
-0.818311
-0.0828223
-0.107584
-0.137332
-0.177259
-0.22895
-0.290297
-0.359198
-0.433222
-0.507938
-0.577539
-0.636768
-0.683029
-0.716846
-0.740647
-0.757276
-0.769117
-0.778087
-0.784907
-0.78972
-0.110769
-0.136833
-0.168279
-0.209574
-0.261793
-0.3223
-0.388714
-0.458335
-0.526603
-0.588129
-0.638788
-0.677299
-0.704983
-0.724372
-0.737988
-0.747807
-0.755341
-0.761292
-0.765613
-0.135811
-0.162695
-0.19529
-0.237256
-0.289336
-0.348437
-0.411861
-0.476571
-0.537965
-0.591317
-0.633779
-0.665234
-0.687513
-0.703042
-0.713969
-0.721888
-0.727957
-0.732825
-0.736331
-0.157426
-0.184747
-0.218001
-0.259998
-0.311256
-0.368314
-0.428188
-0.487577
-0.542062
-0.587833
-0.623296
-0.64921
-0.667595
-0.68061
-0.689985
-0.696951
-0.70238
-0.706831
-0.710063
-0.175472
-0.20299
-0.236543
-0.278088
-0.327989
-0.382509
-0.438492
-0.49254
-0.540644
-0.579971
-0.609954
-0.631879
-0.647738
-0.659365
-0.668125
-0.674959
-0.680545
-0.685319
-0.68892
-0.190182
-0.217834
-0.251521
-0.292382
-0.340631
-0.392259
-0.443989
-0.492471
-0.534334
-0.567794
-0.593128
-0.611889
-0.625873
-0.636547
-0.644933
-0.651718
-0.657423
-0.662335
-0.666053
-0.201868
-0.229759
-0.263593
-0.303765
-0.350294
-0.398886
-0.446238
-0.489267
-0.525431
-0.553938
-0.575655
-0.592175
-0.605001
-0.615232
-0.623584
-0.630521
-0.636438
-0.641503
-0.645326
-0.210906
-0.239301
-0.273494
-0.313222
-0.358244
-0.403972
-0.447189
-0.485255
-0.516517
-0.541004
-0.559934
-0.574801
-0.586803
-0.596728
-0.605049
-0.612069
-0.618095
-0.623224
-0.627091
-0.217687
-0.247012
-0.282
-0.321792
-0.365705
-0.408722
-0.447792
-0.480959
-0.507605
-0.528497
-0.54502
-0.55844
-0.569619
-0.579063
-0.587056
-0.59379
-0.599517
-0.60431
-0.607871
-0.222337
-0.25319
-0.289636
-0.330261
-0.373678
-0.414289
-0.449335
-0.477805
-0.500207
-0.517921
-0.532347
-0.544458
-0.554795
-0.563628
-0.571102
-0.577336
-0.582543
-0.586811
-0.589932
-0.224845
-0.258016
-0.296827
-0.33929
-0.382931
-0.42142
-0.452451