/*--------------------------------*- C++ -*----------------------------------*\
| =========                 |                                                 |
| \\      /  F ield         | OpenFOAM: The Open Source CFD Toolbox           |
|  \\    /   O peration     | Version:  2312                                  |
|   \\  /    A nd           | Website:  www.openfoam.com                      |
|    \\/     M anipulation  |                                                 |
\*---------------------------------------------------------------------------*/
FoamFile
{
    version     2.0;
    format      ascii;
    arch        "LSB;label=32;scalar=64";
    class       volScalarField;
    location    "87.781066813784705";
    object      p;
}
// * * * * * * * * * * * * * * * * * * * * * * * * * * * * * * * * * * * * * //

dimensions      [0 2 -2 0 0 0 0];

internalField   nonuniform List<scalar> 
21039
(
0.604969
0.471272
0.428965
0.400689
0.379326
0.363193
0.350693
0.340724
0.332603
0.325879
0.320234
0.315438
0.31132
0.307748
0.304618
0.301848
0.299371
0.29713
0.295078
0.293173
0.291381
0.289672
0.288016
0.286488
0.28516
0.283993
0.282942
0.281971
0.281064
0.457978
0.420075
0.406183
0.387789
0.370975
0.357632
0.34682
0.3379
0.33048
0.324248
0.31896
0.314431
0.310517
0.307106
0.304105
0.301441
0.299052
0.296886
0.294897
0.293047
0.291301
0.289631
0.288007
0.2865
0.28518
0.284014
0.282963
0.281992
0.281084
0.368544
0.366114
0.368236
0.361463
0.352971
0.34512
0.337805
0.331204
0.32539
0.320303
0.315855
0.311958
0.308533
0.305507
0.302817
0.300409
0.298235
0.296251
0.294421
0.292709
0.291085
0.289521
0.28799
0.286556
0.285287
0.284158
0.283135
0.282187
0.281298
0.330446
0.332548
0.336987
0.335872
0.333207
0.329936
0.326074
0.322086
0.31824
0.314636
0.31132
0.308302
0.305572
0.303105
0.300873
0.298848
0.296999
0.295296
0.293711
0.292218
0.29079
0.289402
0.288031
0.286731
0.285566
0.284518
0.283557
0.282657
0.281805
0.305454
0.309415
0.315277
0.316956
0.31712
0.316347
0.314759
0.312767
0.31059
0.308356
0.306158
0.304055
0.302079
0.30024
0.298538
0.296966
0.29551
0.294153
0.292878
0.291664
0.290491
0.289338
0.288185
0.287071
0.286054
0.28512
0.284249
0.283418
0.282616
0.285848
0.291097
0.298426
0.302268
0.304246
0.305019
0.304904
0.304282
0.303335
0.302185
0.300936
0.299656
0.298392
0.297172
0.296012
0.294918
0.293889
0.292918
0.291995
0.291106
0.290236
0.289366
0.28848
0.287599
0.286767
0.285978
0.285221
0.284476
0.283739
0.273117
0.278134
0.285213
0.290141
0.293343
0.295261
0.296248
0.296648
0.296639
0.296349
0.295883
0.295312
0.294688
0.294047
0.293413
0.292798
0.29221
0.291648
0.291107
0.290579
0.290051
0.289509
0.288937
0.288334
0.287726
0.287115
0.286498
0.285862
0.285205
0.265867
0.269962
0.275693
0.280632
0.284329
0.2869
0.288625
0.289771
0.290485
0.290887
0.291072
0.291112
0.291058
0.29095
0.290814
0.290668
0.290523
0.290383
0.290247
0.290109
0.28996
0.289786
0.289573
0.289296
0.288954
0.288557
0.288109
0.287606
0.287047
0.261401
0.264596
0.268959
0.273449
0.277147
0.279947
0.282059
0.283677
0.284906
0.285838
0.286551
0.287107
0.287554
0.287929
0.28826
0.288566
0.288861
0.289149
0.289433
0.289709
0.28997
0.290204
0.290397
0.290494
0.290462
0.290318
0.290073
0.289729
0.28929
0.258063
0.260508
0.263834
0.267801
0.271318
0.274142
0.276428
0.278318
0.279889
0.281209
0.282336
0.283319
0.284198
0.285007
0.28577
0.286508
0.287231
0.287949
0.288664
0.289374
0.290073
0.290751
0.291396
0.291917
0.292244
0.292395
0.292391
0.292237
0.291941
0.25515
0.256994
0.259576
0.263039
0.266327
0.269106
0.271472
0.273526
0.27533
0.276936
0.278387
0.279721
0.280973
0.282169
0.283331
0.284476
0.285618
0.286763
0.287916
0.289075
0.290237
0.291393
0.292533
0.293528
0.294264
0.294756
0.295032
0.295106
0.294984
0.25235
0.253748
0.255804
0.258808
0.261854
0.26456
0.266956
0.269115
0.271086
0.27291
0.274623
0.276253
0.277827
0.27937
0.2809
0.282433
0.28398
0.285549
0.287143
0.288764
0.290408
0.292072
0.293747
0.295265
0.296461
0.297344
0.297938
0.298261
0.298337
0.249502
0.250589
0.25228
0.254889
0.257702
0.260318
0.262713
0.264935
0.267028
0.269024
0.27095
0.272831
0.27469
0.276547
0.278418
0.280318
0.282257
0.284244
0.286282
0.288373
0.290514
0.292704
0.294942
0.297022
0.298722
0.300042
0.301009
0.301631
0.301928
0.246537
0.247409
0.248841
0.251121
0.253718
0.256237
0.258611
0.260869
0.263049
0.26518
0.267282
0.269378
0.271486
0.273627
0.275814
0.278063
0.280384
0.282785
0.285269
0.287832
0.290474
0.293194
0.295998
0.298647
0.300868
0.302657
0.304036
0.305005
0.305575
0.243435
0.244157
0.245386
0.247377
0.249768
0.252185
0.254527
0.256803
0.259045
0.261279
0.263525
0.265801
0.268128
0.270522
0.273002
0.275584
0.278278
0.281089
0.284017
0.287057
0.290199
0.293435
0.296773
0.299937
0.302624
0.304845
0.306627
0.307958
0.308834
0.240456
0.241071
0.242141
0.243917
0.246141
0.248463
0.250766
0.253048
0.255332
0.257642
0.259997
0.262416
0.264921
0.267531
0.270268
0.27315
0.276188
0.279385
0.28274
0.286236
0.289851
0.29355
0.297307
0.300778
0.303654
0.30601
0.307942
0.309475
0.310596
0.237913
0.238459
0.23943
0.24107
0.243168
0.245406
0.247675
0.249963
0.252284
0.254655
0.257096
0.259631
0.262281
0.265073
0.268033
0.271178
0.274524
0.278076
0.281829
0.28576
0.289825
0.293948
0.29803
0.301578
0.30422
0.306102
0.30747
0.308573
0.309616
0.23579
0.236291
0.237194
0.238734
0.240736
0.242919
0.245183
0.247497
0.249859
0.252288
0.254808
0.257445
0.260228
0.263186
0.266349
0.269739
0.273377
0.277272
0.28142
0.285798
0.290344
0.294942
0.299404
0.303
0.30512
0.305778
0.305218
0.303934
0.302989
0.234067
0.234618
0.235542
0.236986
0.238823
0.240903
0.243162
0.245521
0.247941
0.250436
0.253037
0.255778
0.258693
0.261815
0.265176
0.268807
0.272733
0.276974
0.281531
0.286384
0.291477
0.296677
0.301743
0.305716
0.307579
0.306833
0.303135
0.295914
0.284865
0.280188
0.279307
0.278429
0.277555
0.276683
0.275811
0.27494
0.274069
0.273196
0.27232
0.271442
0.27056
0.269673
0.268781
0.267884
0.26698
0.26607
0.265152
0.264227
0.263295
0.262354
0.261406
0.26045
0.259486
0.258515
0.257536
0.256551
0.255559
0.254561
0.253557
0.252549
0.251537
0.25052
0.249501
0.24848
0.247458
0.246436
0.245415
0.244396
0.243379
0.242366
0.241359
0.240357
0.239362
0.238376
0.237398
0.23643
0.235473
0.234527
0.280211
0.279339
0.278471
0.277607
0.276745
0.275883
0.275022
0.274159
0.273295
0.272428
0.271558
0.270683
0.269804
0.268918
0.268027
0.267128
0.266221
0.265307
0.264385
0.263453
0.262514
0.261565
0.260608
0.259642
0.258667
0.257685
0.256695
0.255697
0.254693
0.253682
0.252666
0.251644
0.250619
0.24959
0.248559
0.247527
0.246494
0.245461
0.24443
0.243401
0.242376
0.241355
0.240341
0.239333
0.238333
0.237343
0.236362
0.235393
0.234435
0.280447
0.279598
0.278754
0.277911
0.27707
0.276229
0.275386
0.274542
0.273694
0.272842
0.271985
0.271122
0.270252
0.269375
0.268489
0.267594
0.26669
0.265776
0.264851
0.263916
0.26297
0.262014
0.261047
0.260069
0.259082
0.258084
0.257077
0.256061
0.255036
0.254004
0.252965
0.25192
0.250869
0.249814
0.248755
0.247694
0.246632
0.245569
0.244507
0.243447
0.24239
0.241337
0.24029
0.239249
0.238215
0.237191
0.236176
0.235173
0.234181
0.280989
0.280176
0.279365
0.278554
0.277741
0.276927
0.276109
0.275287
0.274459
0.273624
0.272782
0.271931
0.27107
0.270199
0.269316
0.268422
0.267515
0.266595
0.265662
0.264716
0.263756
0.262783
0.261796
0.260797
0.259784
0.258759
0.257722
0.256674
0.255616
0.254547
0.25347
0.252385
0.251292
0.250194
0.249091
0.247984
0.246874
0.245763
0.244651
0.24354
0.242432
0.241326
0.240226
0.239131
0.238043
0.236964
0.235893
0.234833
0.233785
0.281846
0.281081
0.280313
0.279542
0.278766
0.277985
0.277197
0.276401
0.275596
0.27478
0.273953
0.273114
0.272261
0.271394
0.270511
0.269613
0.268699
0.267768
0.266819
0.265854
0.264872
0.263872
0.262856
0.261823
0.260774
0.25971
0.258631
0.257538
0.256431
0.255312
0.254182
0.253041
0.251892
0.250734
0.249569
0.248399
0.247225
0.246047
0.244868
0.243689
0.24251
0.241334
0.240161
0.238993
0.237832
0.236677
0.235531
0.234395
0.233271
0.283029
0.282324
0.28161
0.280887
0.280156
0.279415
0.278663
0.277898
0.277119
0.276326
0.275515
0.274688
0.273842
0.272976
0.272091
0.271185
0.270258
0.269309
0.268338
0.267346
0.266332
0.265296
0.26424
0.263162
0.262065
0.260948
0.259813
0.25866
0.257491
0.256306
0.255107
0.253895
0.252671
0.251437
0.250193
0.248942
0.247685
0.246423
0.245158
0.243891
0.242624
0.241357
0.240094
0.238834
0.237579
0.236331
0.23509
0.233858
0.232639
0.284569
0.283936
0.283286
0.282622
0.281944
0.281251
0.280541
0.279812
0.279063
0.278293
0.2775
0.276684
0.275844
0.274978
0.274086
0.273167
0.272221
0.271247
0.270246
0.269218
0.268162
0.26708
0.265971
0.264837
0.263677
0.262494
0.261288
0.260061
0.258812
0.257545
0.25626
0.254958
0.253642
0.252313
0.250972
0.249621
0.248261
0.246895
0.245524
0.24415
0.242773
0.241397
0.240022
0.238649
0.237281
0.235919
0.234563
0.233217
0.231883
0.2865
0.285951
0.285376
0.284781
0.284165
0.283526
0.282864
0.282176
0.28146
0.280716
0.279942
0.279137
0.2783
0.27743
0.276527
0.27559
0.274619
0.273613
0.272573
0.271499
0.270391
0.26925
0.268076
0.266871
0.265636
0.264372
0.263079
0.26176
0.260415
0.259048
0.257658
0.256248
0.25482
0.253375
0.251916
0.250444
0.248961
0.24747
0.245971
0.244467
0.24296
0.241451
0.239943
0.238436
0.236934
0.235436
0.233944
0.232462
0.230994
0.288847
0.288395
0.287907
0.287391
0.286846
0.286271
0.285663
0.28502
0.284341
0.283625
0.28287
0.282076
0.281241
0.280364
0.279446
0.278485
0.277482
0.276437
0.275349
0.274219
0.273048
0.271837
0.270586
0.269297
0.267971
0.266609
0.265213
0.263785
0.262326
0.260839
0.259324
0.257785
0.256224
0.254641
0.253041
0.251425
0.249795
0.248154
0.246503
0.244846
0.243183
0.241518
0.239852
0.238187
0.236525
0.234869
0.233218
0.231577
0.229952
0.291622
0.291279
0.29089
0.290465
0.290002
0.289498
0.288952
0.288361
0.287724
0.28704
0.286307
0.285524
0.284691
0.283806
0.28287
0.281882
0.280842
0.27975
0.278608
0.277414
0.27617
0.274878
0.273538
0.272151
0.27072
0.269245
0.267729
0.266173
0.26458
0.262952
0.261291
0.2596
0.257881
0.256136
0.254369
0.252582
0.250777
0.248958
0.247127
0.245287
0.24344
0.241589
0.239737
0.237885
0.236036
0.234193
0.232356
0.230531
0.228724
0.294809
0.294588
0.294316
0.293993
0.293625
0.293205
0.292732
0.292201
0.291614
0.290968
0.290262
0.289496
0.288667
0.287777
0.286825
0.28581
0.284732
0.283592
0.282391
0.281129
0.279807
0.278426
0.276986
0.275491
0.273942
0.272338
0.270685
0.268984
0.267236
0.265445
0.263613
0.261742
0.259838
0.2579
0.255935
0.253944
0.251931
0.2499
0.247853
0.245794
0.243728
0.241654
0.23958
0.237506
0.235435
0.233371
0.231313
0.229271
0.227252
0.29835
0.298284
0.298144
0.297916
0.297676
0.29736
0.296972
0.296515
0.295991
0.295397
0.294732
0.293994
0.293183
0.292299
0.29134
0.290308
0.2892
0.288019
0.286765
0.285437
0.284037
0.282566
0.281023
0.279413
0.277735
0.275991
0.274185
0.272319
0.270393
0.268414
0.266382
0.264301
0.262176
0.260008
0.257804
0.255568
0.253302
0.251012
0.248703
0.246377
0.244042
0.241698
0.239353
0.237008
0.234669
0.232338
0.230017
0.227716
0.225446
0.30212
0.302215
0.302239
0.302203
0.302085
0.301882
0.301593
0.301237
0.300806
0.300292
0.299696
0.299016
0.29825
0.2974
0.296462
0.295438
0.294324
0.293123
0.291835
0.290456
0.28899
0.287438
0.285797
0.284072
0.282263
0.280369
0.278396
0.276346
0.274218
0.27202
0.269753
0.267421
0.26503
0.262582
0.260085
0.257545
0.254964
0.252352
0.249712
0.247052
0.244379
0.241696
0.239012
0.23633
0.233657
0.230997
0.228351
0.225734
0.22316
0.305996
0.306272
0.306458
0.306573
0.30661
0.306571
0.306453
0.306251
0.305961
0.305578
0.305125
0.304557
0.303897
0.303143
0.302282
0.301318
0.300246
0.299069
0.297788
0.296393
0.294892
0.293283
0.291562
0.289733
0.287796
0.285748
0.283597
0.281342
0.278982
0.276527
0.273978
0.271337
0.268616
0.265815
0.262945
0.260015
0.257025
0.253994
0.250923
0.247825
0.24471
0.241582
0.238456
0.235336
0.232233
0.229153
0.226099
0.223087
0.220137
0.309518
0.31
0.310398
0.310738
0.311012
0.31122
0.311354
0.311407
0.311372
0.311232
0.310986
0.310631
0.310187
0.309644
0.30894
0.308122
0.307171
0.306091
0.304883
0.303534
0.302051
0.300432
0.298666
0.296761
0.294713
0.292515
0.290177
0.287695
0.285067
0.282306
0.279409
0.276384
0.273241
0.269982
0.266624
0.263177
0.259644
0.256048
0.252396
0.248704
0.244987
0.241254
0.237529
0.233817
0.230139
0.226502
0.222915
0.219398
0.215977
0.311524
0.312181
0.312845
0.313552
0.314266
0.314959
0.315588
0.316125
0.316549
0.316837
0.316988
0.316983
0.316824
0.316511
0.31607
0.315547
0.314802
0.313906
0.312858
0.311637
0.310252
0.308695
0.306949
0.305023
0.302905
0.300584
0.298069
0.295353
0.29243
0.289315
0.286007
0.282511
0.278846
0.275012
0.271032
0.266922
0.262687
0.258359
0.253947
0.249475
0.244964
0.24043
0.235906
0.231406
0.226964
0.222601
0.218334
0.214198
0.210227
0.310737
0.311486
0.3126
0.314065
0.315675
0.317281
0.318756
0.320038
0.321101
0.321926
0.322534
0.322925
0.323124
0.323137
0.322949
0.322586
0.322213
0.321559
0.320733
0.319714
0.318507
0.317096
0.315455
0.313588
0.311474
0.309093
0.30645
0.303532
0.300328
0.296856
0.293113
0.289108
0.284865
0.280388
0.275712
0.270854
0.265829
0.260676
0.255407
0.250053
0.244639
0.23918
0.233719
0.228272
0.22289
0.217614
0.212492
0.207601
0.203005
0.30278
0.30399
0.307245
0.311282
0.315163
0.318547
0.321326
0.32354
0.325271
0.326587
0.327578
0.328281
0.328758
0.329043
0.329138
0.329054
0.328787
0.328492
0.327969
0.327227
0.326291
0.325131
0.323704
0.322004
0.319994
0.317636
0.31493
0.31185
0.308379
0.304538
0.300324
0.295754
0.290862
0.28566
0.280197
0.274502
0.2686
0.262545
0.256351
0.25006
0.243693
0.23726
0.230794
0.224292
0.217792
0.211329
0.204987
0.198968
0.193559
0.276532
0.287167
0.299244
0.309051
0.316273
0.321437
0.325104
0.327756
0.32971
0.331162
0.332258
0.333062
0.333655
0.334075
0.334347
0.334501
0.334496
0.334359
0.334251
0.333831
0.333235
0.332412
0.331296
0.329871
0.328084
0.325863
0.323189
0.320023
0.316336
0.312157
0.307487
0.30235
0.296799
0.290855
0.284589
0.27805
0.271274
0.264336
0.257261
0.250102
0.242885
0.235611
0.228296
0.220884
0.213334
0.205546
0.197428
0.189043
0.181037
0.233601
0.23264
0.231593
0.230446
0.22918
0.227786
0.226292
0.224874
0.223666
0.222698
0.222003
0.221618
0.221575
0.221935
0.222741
0.224059
0.225967
0.228561
0.23197
0.236358
0.24195
0.249057
0.258127
0.269835
0.28528
0.30606
0.333863
0.375715
0.509047
0.233494
0.232516
0.231449
0.230277
0.228979
0.227545
0.226006
0.224539
0.223279
0.222258
0.221505
0.221057
0.220949
0.221226
0.221933
0.22313
0.224885
0.227285
0.230436
0.234476
0.239585
0.246
0.254027
0.264055
0.276711
0.292932
0.31084
0.324267
0.361833
0.233206
0.23219
0.231077
0.229848
0.22848
0.226961
0.225319
0.223737
0.222357
0.221208
0.220319
0.21972
0.219441
0.219517
0.219986
0.220891
0.222282
0.224214
0.226755
0.229977
0.23396
0.238788
0.244512
0.251054
0.258225
0.266118
0.272374
0.269739
0.271846
0.232751
0.231671
0.230481
0.229161
0.227683
0.226033
0.224231
0.222471
0.220906
0.219563
0.218463
0.217633
0.217095
0.216872
0.216987
0.217465
0.21833
0.219602
0.221297
0.223419
0.22595
0.228837
0.231971
0.235078
0.23768
0.239744
0.240314
0.235348
0.232969
0.232156
0.230987
0.229693
0.22825
0.226625
0.224798
0.222786
0.220796
0.218994
0.217404
0.216042
0.214928
0.214075
0.213496
0.2132
0.213192
0.213475
0.214039
0.214864
0.215912
0.217115
0.218369
0.219539
0.220398
0.220522
0.219768
0.217543
0.211189
0.207014
0.231424
0.230144
0.228721
0.227124
0.225317
0.223273
0.221004
0.218738
0.216657
0.21478
0.213121
0.211691
0.210498
0.209542
0.208822
0.208332
0.208055
0.207966
0.208028
0.208184
0.208355
0.208429
0.208274
0.207698
0.206312
0.203772
0.199408
0.191637
0.186229
0.230547
0.229133
0.227553
0.225772
0.223748
0.221446
0.218878
0.216293
0.213897
0.211704
0.209724
0.207962
0.206419
0.205089
0.203963
0.203022
0.202242
0.20159
0.201017
0.200462
0.199843
0.199044
0.197927
0.196304
0.193822
0.190101
0.184698
0.177238
0.17211
0.229515
0.227942
0.226176
0.224178
0.221898
0.219299
0.216388
0.213446
0.210703
0.208172
0.205857
0.203759
0.201872
0.200186
0.198682
0.197339
0.196124
0.194997
0.193909
0.192794
0.19157
0.190131
0.188345
0.186055
0.182985
0.178834
0.173487
0.167449
0.163285
0.228306
0.226546
0.224564
0.222313
0.219739
0.216798
0.213501
0.210166
0.207053
0.204169
0.201515
0.199087
0.196874
0.194859
0.193021
0.191331
0.189753
0.188247
0.186759
0.185229
0.183583
0.181731
0.17957
0.176984
0.173771
0.169704
0.164892
0.160303
0.157073
0.226884
0.224906
0.222672
0.220128
0.217216
0.213889
0.210165
0.206405
0.202901
0.199659
0.196672
0.193932
0.19142
0.189117
0.186994
0.185022
0.18316
0.181369
0.179598
0.177793
0.175891
0.173822
0.171506
0.168857
0.165725
0.161945
0.157755
0.154283
0.151826
0.225184
0.222953
0.220426
0.217546
0.214248
0.210487
0.206292
0.20208
0.198176
0.194578
0.191275
0.18825
0.18548
0.182937
0.18059
0.178403
0.17634
0.174356
0.172407
0.170444
0.168415
0.166261
0.163921
0.161325
0.158363
0.154933
0.151351
0.148698
0.146862
0.223108
0.220579
0.217713
0.214442
0.210705
0.206461
0.201756
0.197073
0.192768
0.188832
0.185243
0.181976
0.178998
0.176274
0.173769
0.171443
0.169256
0.167166
0.165131
0.163104
0.161041
0.158895
0.156613
0.154138
0.151393
0.148337
0.145322
0.143264
0.141891
0.220498
0.217618
0.214353
0.210632
0.206398
0.201622
0.196378
0.191219
0.186534
0.182297
0.178473
0.175021
0.171901
0.169069
0.166481
0.164093
0.161863
0.159749
0.157707
0.155697
0.153679
0.151611
0.149451
0.147149
0.144653
0.141972
0.139461
0.13783
0.136782
0.217082
0.213784
0.210053
0.205817
0.201031
0.195689
0.1899
0.184294
0.179282
0.174811
0.170829
0.167278
0.164102
0.161248
0.158663
0.1563
0.154111
0.152054
0.150085
0.148167
0.146261
0.144332
0.142344
0.140254
0.138028
0.135709
0.133634
0.132319
0.131497
0.212438
0.20864
0.204372
0.199564
0.194194
0.188289
0.182001
0.176032
0.170792
0.166198
0.162171
0.158633
0.155511
0.152741
0.150262
0.148019
0.145961
0.144045
0.142227
0.14047
0.138739
0.137002
0.135227
0.133377
0.131437
0.129475
0.12779
0.126721
0.126051
0.206143
0.201815
0.197013
0.191682
0.185829
0.17951
0.172911
0.166776
0.161497
0.156956
0.153045
0.149665
0.14673
0.144162
0.141894
0.139865
0.138023
0.136321
0.134718
0.133176
0.131662
0.130148
0.128604
0.127006
0.125346
0.123698
0.122326
0.121453
0.120888
0.198332
0.193498
0.1883
0.182671
0.176607
0.170164
0.163536
0.157481
0.152365
0.148046
0.144391
0.141287
0.138634
0.136347
0.134353
0.132592
0.131007
0.129552
0.128187
0.126874
0.125582
0.124284
0.122959
0.121595
0.120193
0.118813
0.117676
0.116949
0.116459
0.188375
0.183338
0.178258
0.172825
0.166951
0.160698
0.154292
0.148512
0.143711
0.139729
0.136423
0.133664
0.131346
0.12938
0.127691
0.126215
0.124901
0.1237
0.122573
0.121486
0.120406
0.119306
0.118169
0.116997
0.115812
0.114664
0.113729
0.113128
0.112701
0.174832
0.17112
0.167299
0.162655
0.157324
0.151489
0.145475
0.1401
0.135707
0.132132
0.129221
0.12684
0.124876
0.123241
0.121858
0.120665
0.119612
0.118653
0.117751
0.116872
0.115982
0.115051
0.114068
0.113075
0.112142
0.111287
0.110556
0.110004
0.109557
0.232295
0.232628
0.233371
0.234838
0.236868
0.239155
0.241544
0.24397
0.24644
0.248997
0.251684
0.254538
0.257595
0.260888
0.264455
0.268331
0.272549
0.277134
0.282095
0.287419
0.293056
0.298874
0.304602
0.309131
0.311093
0.309302
0.302236
0.287533
0.256834
0.230524
0.230979
0.231837
0.233293
0.235239
0.237453
0.23981
0.242248
0.24477
0.247411
0.250207
0.253193
0.256406
0.259884
0.263668
0.267799
0.272318
0.277259
0.282643
0.288478
0.294758
0.301416
0.308267
0.314297
0.318219
0.319308
0.316979
0.313132
0.317452
0.228711
0.229247
0.23019
0.231641
0.233519
0.23566
0.237964
0.24039
0.24294
0.245641
0.248522
0.251615
0.254959
0.258595
0.262571
0.266937
0.271744
0.277044
0.282887
0.289327
0.296447
0.304356
0.313181
0.32239
0.33114
0.339623
0.348098
0.355439
0.372122
0.226828
0.227343
0.22826
0.229697
0.23158
0.233729
0.236033
0.23846
0.241029
0.243769
0.24671
0.249885
0.253334
0.257103
0.261245
0.26582
0.270893
0.276537
0.282838
0.289913
0.29795
0.30729
0.318454
0.331438
0.345587
0.361209
0.378938
0.395348
0.41688
0.224877
0.225358
0.226225
0.227631
0.229515
0.231679
0.233993
0.236428
0.239012
0.241779
0.244764
0.248001
0.251533
0.255409
0.259688
0.264438
0.269739
0.275685
0.282394
0.290045
0.298912
0.309558
0.322795
0.338983
0.357355
0.378276
0.402064
0.425557
0.451886
0.222859
0.223323
0.224158
0.225526
0.22738
0.229526
0.23183
0.234261
0.236848
0.239628
0.242638
0.245914
0.249501
0.253451
0.257828
0.262706
0.268177
0.274351
0.281368
0.289468
0.298929
0.31054
0.325153
0.343387
0.363821
0.387567
0.414816
0.443983
0.473134
0.22077
0.221223
0.222036
0.223363
0.225166
0.227269
0.22954
0.231948
0.234519
0.237292
0.240301
0.243587
0.247195
0.251178
0.255603
0.260548
0.266112
0.272418
0.279598
0.287981
0.297679
0.309811
0.324702
0.344167
0.366354
0.390726
0.416995
0.444268
0.471691
0.218603
0.219044
0.219832
0.221113
0.222856
0.224901
0.227123
0.229488
0.232022
0.234762
0.237743
0.241006
0.244595
0.248563
0.252979
0.257921
0.263484
0.269814
0.276969
0.285473
0.294897
0.307156
0.322527
0.341733
0.36323
0.386047
0.409404
0.43286
0.456201
0.216355
0.216784
0.217544
0.218772
0.220445
0.222418
0.224574
0.226878
0.229352
0.232033
0.234956
0.23816
0.241687
0.24559
0.249934
0.254796
0.260251
0.266492
0.273396
0.281602
0.291216
0.302993
0.317716
0.335445
0.354693
0.374676
0.394651
0.414357
0.433104
0.214025
0.214442
0.215172
0.216342
0.217932
0.219819
0.22189
0.224112
0.226504
0.2291
0.231933
0.23504
0.238462
0.242246
0.246453
0.251158
0.256392
0.262354
0.269118
0.276898
0.286046
0.296939
0.31021
0.325718
0.342054
0.358569
0.374712
0.390506
0.404987
0.21161
0.212014
0.212711
0.213816
0.215316
0.217103
0.219074
0.221194
0.223481
0.225964
0.228677
0.23165
0.234922
0.238536
0.242541
0.247007
0.251989
0.257606
0.263983
0.271181
0.27946
0.289135
0.300568
0.313468
0.326586
0.339347
0.35138
0.363002
0.373383
0.20911
0.209501
0.210164
0.2112
0.212601
0.214275
0.216127
0.218126
0.220284
0.22263
0.225191
0.227996
0.231077
0.234472
0.238225
0.242399
0.247042
0.252222
0.258017
0.264472
0.271724
0.279979
0.28938
0.299503
0.309324
0.318392
0.326502
0.334137
0.340732
0.206529
0.206912
0.207542
0.208506
0.209796
0.211339
0.213054
0.21491
0.216917
0.219099
0.221479
0.224083
0.226935
0.23007
0.233523
0.237341
0.241555
0.246205
0.251319
0.25692
0.263053
0.269786
0.277088
0.284464
0.291159
0.296891
0.301614
0.305857
0.309288
0.203866
0.204236
0.204827
0.205713
0.206889
0.208295
0.209861
0.211558
0.213394
0.215389
0.217563
0.219935
0.222527
0.225362
0.228467
0.231872
0.235592
0.239645
0.244024
0.248708
0.253669
0.25887
0.264141
0.268993
0.272949
0.275895
0.277919
0.279543
0.280624
0.201127
0.201485
0.202038
0.202842
0.203896
0.205155
0.206558
0.208081
0.209728
0.211517
0.213464
0.215581
0.217882
0.220384
0.223102
0.226053
0.229236
0.232649
0.236255
0.239997
0.24379
0.247525
0.250945
0.253619
0.255328
0.2561
0.256118
0.255889
0.255445
0.198316
0.198665
0.199179
0.1999
0.200827
0.201928
0.203156
0.20449
0.205932
0.2075
0.209201
0.211041
0.213028
0.215169
0.217469
0.219934
0.222549
0.225294
0.228109
0.23091
0.23358
0.235964
0.237765
0.238644
0.23861
0.237802
0.236448
0.235047
0.233796
0.195438
0.195776
0.196248
0.196883
0.197681
0.198622
0.199668
0.200802
0.20203
0.203364
0.204804
0.206351
0.208004
0.209764
0.211626
0.213584
0.215614
0.217677
0.219702
0.221591
0.223208
0.224382
0.22481
0.224275
0.222976
0.221124
0.218941
0.216924
0.215423
0.192501
0.192829
0.193259
0.193807
0.194474
0.195252
0.196107
0.197034
0.198042
0.199133
0.200302
0.201543
0.202851
0.204217
0.205629
0.207071
0.208508
0.209892
0.211145
0.212162
0.212808
0.212917
0.212209
0.210607
0.208459
0.20601
0.203423
0.201192
0.199818
0.189513
0.189835
0.190224
0.190687
0.191221
0.191831
0.192486
0.193208
0.193988
0.194828
0.19572
0.19665
0.197605
0.198572
0.199529
0.200452
0.201298
0.202014
0.202518
0.202708
0.20246
0.201629
0.199986
0.197599
0.194935
0.192236
0.189559
0.187402
0.186414
0.186482
0.186796
0.18714
0.187518
0.187921
0.188356
0.188833
0.189342
0.189892
0.190481
0.191093
0.19171
0.192313
0.192881
0.193386
0.193796
0.194064
0.19413
0.193914
0.193322
0.192247
0.190577
0.188148
0.18519
0.182267
0.179588
0.17707
0.175212
0.174807
0.183416
0.183724
0.184024
0.184319
0.18459
0.184866
0.185154
0.185453
0.185778
0.186119
0.186455
0.186764
0.18702
0.187197
0.187261
0.187173
0.186883
0.186328
0.185428
0.184098
0.182253
0.179818
0.176704
0.173308
0.170296
0.167832
0.165658
0.164277
0.164634
0.180324
0.180629
0.180888
0.181099
0.181252
0.18137
0.181465
0.181561
0.181667
0.181766
0.181834
0.181843
0.181764
0.181563
0.181203
0.180641
0.179819
0.178675
0.177131
0.175108
0.172539
0.169383
0.165624
0.161832
0.158796
0.156649
0.154938
0.154171
0.155472
0.17722
0.177514
0.177744
0.177887
0.177921
0.177875
0.177784
0.177685
0.177578
0.177445
0.177256
0.176979
0.176579
0.176019
0.175258
0.174247
0.172927
0.171233
0.169088
0.166418
0.163165
0.15931
0.154891
0.150638
0.147505
0.145642
0.144404
0.144323
0.146749
0.174108
0.174393
0.174595
0.174666
0.174582
0.174383
0.174122
0.173841
0.173536
0.173184
0.172753
0.172205
0.171503
0.170607
0.169471
0.168044
0.166264
0.164064
0.161369
0.158104
0.154214
0.14968
0.144565
0.139715
0.136279
0.134495
0.133566
0.134115
0.137792
0.171
0.171283
0.17146
0.171462
0.171262
0.170917
0.170496
0.170045
0.169557
0.169004
0.168348
0.16755
0.16657
0.165364
0.163884
0.162078
0.159883
0.157229
0.154042
0.150249
0.145788
0.140621
0.134789
0.129174
0.125107
0.122968
0.12188
0.122784
0.127792
0.167903
0.168179
0.168321
0.168252
0.167946
0.167471
0.166911
0.166313
0.165665
0.164932
0.164073
0.163047
0.161812
0.160325
0.158536
0.156391
0.153827
0.150776
0.147162
0.142915
0.137971
0.132266
0.125785
0.119356
0.114377
0.111308
0.109179
0.109734
0.116108
0.164847
0.165166
0.165332
0.165219
0.164786
0.164136
0.163402
0.162652
0.161859
0.16097
0.159933
0.158706
0.157249
0.155516
0.153459
0.151021
0.148142
0.144753
0.140786
0.136176
0.13086
0.124739
0.117689
0.110428
0.10436
0.0999313
0.0958096
0.0942613
0.100496
0.140311
0.119966
0.0918592
0.0553217
0.013442
-0.0285126
-0.0670868
-0.102385
-0.135016
-0.16838
-0.202719
-0.240583
-0.279345
-0.315506
-0.344678
-0.364067
-0.373826
-0.37649
-0.376136
0.148452
0.132809
0.106217
0.0693215
0.0243577
-0.0241346
-0.072142
-0.119429
-0.164973
-0.213492
-0.26186
-0.31037
-0.356724
-0.397207
-0.428278
-0.448687
-0.459902
-0.464861
-0.46668
0.143899
0.129611
0.104644
0.0680889
0.0212336
-0.032107
-0.0874082
-0.14683
-0.20604
-0.26519
-0.323811
-0.380784
-0.433123
-0.477192
-0.510324
-0.532243
-0.544995
-0.551566
-0.554792
0.133532
0.119772
0.0969652
0.0613656
0.0124087
-0.0457397
-0.10915
-0.176106
-0.244629
-0.313549
-0.381842
-0.447226
-0.505794
-0.55365
-0.588689
-0.611566
-0.625149
-0.632716
-0.636936
0.120051
0.107425
0.0862737
0.0513626
0.00132425
-0.0597792
-0.128432
-0.202018
-0.278888
-0.357279
-0.434572
-0.507072
-0.570131
-0.620046
-0.65573
-0.678936
-0.693198
-0.701749
-0.706842
0.101513
0.0896356
0.0701682
0.0367595
-0.012864
-0.0753339
-0.147431
-0.22684
-0.31108
-0.397272
-0.481467
-0.558846
-0.624487
-0.675389
-0.711605
-0.735682
-0.751444
-0.761826
-0.768634
0.0783715
0.065803
0.0470906
0.0151427
-0.0334075
-0.0962095
-0.170372
-0.253575
-0.342566
-0.433344
-0.520836
-0.599377
-0.664182
-0.713253
-0.747757
-0.770844
-0.786455
-0.797083
-0.804162
0.0519942
0.0375007
0.0180654
-0.0135409
-0.0613093
-0.12377
-0.198407
-0.282797
-0.373269
-0.465017
-0.552099
-0.62848
-0.690014
-0.735889
-0.768168
-0.790216
-0.805738
-0.816628
-0.824062
0.0234405
0.00645673
-0.0148616
-0.0474304
-0.0951123
-0.156891
-0.230627
-0.313949
-0.402958
-0.49226
-0.575382
-0.646481
-0.70244
-0.743586
-0.772567
-0.792707
-0.807352
-0.817879
-0.825129
-0.00639122
-0.0258682
-0.0495957
-0.0839583
-0.13217
-0.193207
-0.265205
-0.34594
-0.431396
-0.515825
-0.592673
-0.656784
-0.706254
-0.742366
-0.768072
-0.786479
-0.800504
-0.811136
-0.818845
-0.036504
-0.0581808
-0.0843537
-0.120801
-0.169944
-0.230397
-0.300327
-0.377492
-0.457649
-0.53483
-0.602866
-0.657769
-0.698958
-0.728471
-0.749323
-0.764295
-0.775803
-0.784604
-0.790948
-0.0657098
-0.0891095
-0.117382
-0.155659
-0.205664
-0.265476
-0.33305
-0.405922
-0.479611
-0.548277
-0.60668
-0.652286
-0.685665
-0.709244
-0.72582
-0.737714
-0.746792
-0.753715
-0.758611
-0.0929127
-0.117474
-0.147275
-0.186731
-0.23706
-0.295819
-0.360673
-0.428882
-0.495849
-0.556183
-0.605817
-0.643542
-0.670708
-0.689816
-0.703324
-0.713137
-0.720715
-0.726715
-0.731074
-0.117355
-0.142563
-0.173306
-0.213211
-0.263168
-0.320299
-0.381934
-0.444995
-0.504854
-0.556826
-0.598148
-0.628771
-0.650521
-0.66577
-0.676581
-0.684477
-0.690565
-0.695458
-0.698983
-0.138573
-0.164005
-0.195159
-0.234827
-0.283699
-0.338546
-0.39641
-0.453939
-0.506717
-0.551001
-0.585292
-0.610389
-0.628277
-0.641034
-0.650302
-0.657242
-0.662678
-0.667146
-0.670392
-0.156491
-0.181858
-0.213011
-0.251908
-0.299118
-0.351171
-0.404933
-0.456955
-0.503243
-0.541047
-0.56988
-0.591034
-0.606437
-0.617828
-0.626486
-0.633286
-0.638865
-0.643638
-0.647239
-0.171409
-0.196589
-0.227515
-0.265342
-0.310539
-0.359418
-0.408727
-0.455062
-0.495072
-0.527048
-0.551313
-0.569389
-0.582985
-0.593467
-0.601773
-0.608532
-0.614231
-0.619141
-0.622856
-0.183723
-0.208748
-0.239388
-0.276053
-0.319095
-0.364621
-0.409366
-0.450185
-0.484537
-0.511663
-0.532428
-0.548357
-0.560853
-0.57092
-0.579198
-0.586104
-0.592006
-0.597058
-0.600872
-0.193891
-0.218946
-0.249432
-0.285071
-0.326069
-0.368356
-0.408786
-0.444637
-0.474197
-0.497454
-0.515563
-0.529924
-0.541635
-0.551399
-0.559629
-0.566588
-0.572563
-0.577644
-0.58147
-0.202385
-0.227811
-0.258495
-0.293481
-0.332684
-0.371781
-0.407861
-0.438856
-0.463991
-0.483873
-0.499747
-0.512765
-0.523701
-0.532993
-0.540884
-0.547539
-0.553195
-0.557923
-0.561431
-0.209419
-0.235741
-0.267211
-0.302157
-0.339983
-0.376035
-0.407824
-0.434197
-0.455349
-0.472335
-0.486321
-0.498146
-0.508284
-0.516967
-0.524321
-0.530453
-0.535567
-0.539752
-0.542809
-0.215059
-0.243025
-0.276136
-0.311874
-0.34879
-0.381845
-0.409231