/*--------------------------------*- C++ -*----------------------------------*\
| =========                 |                                                 |
| \\      /  F ield         | OpenFOAM: The Open Source CFD Toolbox           |
|  \\    /   O peration     | Version:  2312                                  |
|   \\  /    A nd           | Website:  www.openfoam.com                      |
|    \\/     M anipulation  |                                                 |
\*---------------------------------------------------------------------------*/
FoamFile
{
    version     2.0;
    format      ascii;
    arch        "LSB;label=32;scalar=64";
    class       volScalarField;
    location    "0.670632";
    object      p;
}
// * * * * * * * * * * * * * * * * * * * * * * * * * * * * * * * * * * * * * //

dimensions      [0 2 -2 0 0 0 0];

internalField   nonuniform List<scalar> 
21039
(
0.905089
0.783656
0.746213
0.721467
0.703391
0.690202
0.680301
0.672724
0.666893
0.662433
0.659086
0.656669
0.655043
0.654104
0.653766
0.653957
0.654619
0.655693
0.65712
0.658851
0.660828
0.66299
0.665277
0.667468
0.669333
0.670884
0.672172
0.673247
0.674145
0.759916
0.733086
0.724636
0.709229
0.695708
0.685141
0.676727
0.670049
0.664804
0.660745
0.657684
0.65548
0.65402
0.653214
0.652987
0.653277
0.654025
0.655179
0.656689
0.658505
0.66057
0.662827
0.665182
0.667353
0.669134
0.670583
0.671787
0.672815
0.67371
0.673961
0.679129
0.685018
0.680076
0.674223
0.668469
0.663049
0.658323
0.654397
0.65126
0.64887
0.647171
0.646106
0.645621
0.645667
0.646195
0.647161
0.648521
0.650237
0.652259
0.654547
0.657061
0.659754
0.662347
0.664613
0.666577
0.668273
0.669722
0.670943
0.64448
0.649979
0.654547
0.653462
0.651774
0.649323
0.646492
0.643746
0.641306
0.639292
0.637763
0.63674
0.636222
0.636194
0.636633
0.637513
0.638805
0.640481
0.642512
0.644872
0.647539
0.650509
0.653835
0.657308
0.660536
0.6634
0.665852
0.667881
0.669516
0.634868
0.639132
0.642019
0.642015
0.641507
0.640375
0.638965
0.637539
0.636247
0.635204
0.634491
0.634154
0.634221
0.6347
0.635593
0.63689
0.63858
0.640646
0.643069
0.645835
0.64893
0.652342
0.656082
0.65986
0.663206
0.666022
0.668346
0.670249
0.671802
0.627762
0.631702
0.634233
0.635055
0.635187
0.634811
0.634247
0.633663
0.633177
0.632884
0.632853
0.633132
0.633755
0.634743
0.636106
0.637845
0.639956
0.642429
0.645247
0.64839
0.651824
0.655494
0.659309
0.66287
0.665819
0.66822
0.670199
0.671862
0.673275
0.61779
0.620124
0.621651
0.622614
0.623128
0.623322
0.62338
0.623422
0.623554
0.623857
0.624392
0.625208
0.626338
0.627807
0.629629
0.631811
0.634355
0.637253
0.64049
0.644038
0.64786
0.651904
0.656098
0.660046
0.663412
0.666264
0.668687
0.670737
0.672461
0.60689
0.607565
0.608219
0.608915
0.609486
0.609975
0.610439
0.610943
0.611558
0.612346
0.61336
0.614643
0.61623
0.618149
0.62042
0.623054
0.626059
0.629434
0.633171
0.637255
0.641668
0.64639
0.65141
0.656317
0.660627
0.66432
0.667446
0.670056
0.672216
0.596786
0.597122
0.597631
0.59822
0.598816
0.59946
0.600174
0.600996
0.601968
0.603135
0.60454
0.606221
0.608214
0.610546
0.613242
0.616321
0.619795
0.623675
0.627963
0.632657
0.63775
0.643229
0.649075
0.654795
0.659788
0.664028
0.667592
0.670565
0.673034
0.586634
0.587069
0.587644
0.588266
0.588946
0.589722
0.590616
0.591662
0.592893
0.594346
0.596059
0.598065
0.600398
0.603089
0.606166
0.609655
0.613576
0.617946
0.622776
0.628071
0.633825
0.640017
0.646615
0.653048
0.658656
0.66343
0.667464
0.67085
0.673682
0.575706
0.576078
0.576562
0.577167
0.577896
0.578763
0.579785
0.58099
0.582409
0.584073
0.586018
0.588277
0.590884
0.593874
0.59728
0.601133
0.605462
0.610293
0.615648
0.62154
0.627973
0.634941
0.642426
0.649798
0.656293
0.661875
0.666627
0.670635
0.673995
0.56436
0.564569
0.564966
0.565533
0.566264
0.567169
0.568263
0.569567
0.571107
0.572914
0.575021
0.577462
0.580274
0.583495
0.587165
0.591323
0.596008
0.60126
0.607115
0.613605
0.620756
0.628585
0.637102
0.645606
0.653187
0.659759
0.665388
0.670157
0.674173
0.552756
0.552923
0.553278
0.553814
0.554531
0.555441
0.556558
0.557903
0.559501
0.561382
0.563576
0.566122
0.569058
0.572428
0.576278
0.580656
0.585617
0.591215
0.597507
0.604548
0.612392
0.621087
0.630673
0.640384
0.649148
0.656825
0.663457
0.669116
0.673912
0.540838
0.540976
0.54129
0.541785
0.542468
0.543351
0.544449
0.545784
0.547378
0.549262
0.551467
0.554032
0.556999
0.560418
0.564341
0.568829
0.573949
0.579773
0.586382
0.593861
0.602297
0.611782
0.622407
0.633359
0.643404
0.65233
0.660132
0.666855
0.672601
0.528555
0.528637
0.52888
0.529308
0.529926
0.530748
0.531785
0.533058
0.534587
0.536403
0.538537
0.54103
0.543926
0.547278
0.551146
0.555601
0.560723
0.566604
0.57335
0.581079
0.589926
0.600038
0.611584
0.623745
0.63513
0.645434
0.654582
0.662566
0.669467
0.516949
0.516938
0.517087
0.517428
0.517964
0.5187
0.519644
0.520813
0.522227
0.523913
0.525903
0.528238
0.530963
0.534132
0.53781
0.542074
0.547014
0.552737
0.559373
0.567073
0.576014
0.58641
0.598525
0.611579
0.624077
0.635632
0.646095
0.655377
0.663518
0.507129
0.506959
0.507002
0.507258
0.507717
0.508367
0.509211
0.510262
0.51154
0.51307
0.514883
0.517017
0.519518
0.522439
0.525846
0.529817
0.534447
0.539851
0.546172
0.553585
0.5623
0.572581
0.584779
0.598195
0.611302
0.623673
0.635104
0.645434
0.654669
0.498969
0.498554
0.498498
0.498696
0.499101
0.499676
0.500422
0.501355
0.502494
0.503862
0.505488
0.507409
0.509667
0.512314
0.515414
0.519042
0.523293
0.528284
0.534161
0.541108
0.549356
0.559195
0.571041
0.584287
0.597431
0.610037
0.621917
0.632893
0.642964
0.492308
0.491559
0.491342
0.491529
0.491908
0.492418
0.493075
0.493898
0.494904
0.496117
0.497563
0.499275
0.501294
0.503668
0.506457
0.509731
0.513583
0.518123
0.523496
0.529886
0.537531
0.546731
0.557949
0.570677
0.583437
0.595674
0.607149
0.617725
0.627501
0.674971
0.675814
0.676675
0.67755
0.678436
0.679328
0.680223
0.68112
0.682014
0.682903
0.683786
0.68466
0.685523
0.686374
0.687211
0.688032
0.688836
0.689621
0.690387
0.691133
0.691857
0.692559
0.693238
0.693894
0.694527
0.695135
0.695718
0.696277
0.696812
0.697322
0.697808
0.69827
0.698708
0.699123
0.699516
0.699888
0.700239
0.70057
0.700882
0.701178
0.701458
0.701725
0.701979
0.702223
0.70246
0.702692
0.702921
0.703152
0.703389
0.674557
0.675434
0.676332
0.677244
0.678165
0.679091
0.680019
0.680947
0.68187
0.682787
0.683696
0.684594
0.68548
0.686352
0.687208
0.688047
0.688867
0.689668
0.690448
0.691206
0.691941
0.692653
0.693341
0.694004
0.694642
0.695254
0.69584
0.696401
0.696936
0.697445
0.697928
0.698386
0.698819
0.699227
0.699611
0.699973
0.700312
0.70063
0.700928
0.701207
0.701469
0.701715
0.701947
0.702167
0.702379
0.702583
0.702783
0.702982
0.703189
0.672061
0.673165
0.674254
0.675329
0.676392
0.677443
0.678483
0.679511
0.680525
0.681525
0.68251
0.683478
0.684428
0.685359
0.68627
0.687159
0.688025
0.688867
0.689684
0.690476
0.691241
0.69198
0.69269
0.693371
0.694024
0.694648
0.695241
0.695806
0.69634
0.696844
0.697319
0.697763
0.698179
0.698566
0.698924
0.699254
0.699557
0.699833
0.700083
0.700308
0.700507
0.700683
0.700835
0.700964
0.70107
0.701152
0.701209
0.701235
0.701229
0.670945
0.67231
0.673631
0.674916
0.676167
0.677386
0.678576
0.679739
0.680875
0.681985
0.683069
0.684129
0.685162
0.686169
0.687149
0.688102
0.689026
0.689921
0.690787
0.691622
0.692426
0.693198
0.693937
0.694643
0.695315
0.695954
0.696557
0.697127
0.697661
0.698161
0.698626
0.699056
0.699451
0.699812
0.700138
0.70043
0.700688
0.700911
0.7011
0.701254
0.701374
0.701458
0.701505
0.701515
0.701484
0.701412
0.701294
0.701126
0.700898
0.673181
0.674528
0.675869
0.6772
0.678512
0.679805
0.681076
0.682325
0.683549
0.684747
0.68592
0.687064
0.688179
0.689265
0.69032
0.691342
0.692332
0.693287
0.694208
0.695093
0.695941
0.696752
0.697524
0.698257
0.698951
0.699606
0.700219
0.700793
0.701327
0.701819
0.702272
0.702683
0.703055
0.703387
0.703679
0.703932
0.704147
0.704323
0.704462
0.704564
0.70463
0.704661
0.704657
0.704621
0.704552
0.704453
0.704325
0.704173
0.704
0.674583
0.6759
0.677237
0.678583
0.67993
0.681273
0.682608
0.683931
0.685238
0.686525
0.68779
0.689028
0.690238
0.691417
0.692563
0.693674
0.694747
0.695781
0.696775
0.697727
0.698635
0.6995
0.700318
0.70109
0.701816
0.702494
0.703124
0.703706
0.70424
0.704727
0.705166
0.705558
0.705904
0.706204
0.70646
0.706672
0.706843
0.706972
0.707064
0.707118
0.707139
0.707127
0.707087
0.707021
0.706933
0.706827
0.706705
0.706576
0.706448
0.674039
0.675602
0.677163
0.678716
0.680259
0.681788
0.6833
0.684794
0.686265
0.68771
0.689127
0.690513
0.691865
0.69318
0.694455
0.695689
0.696877
0.69802
0.699114
0.700158
0.701149
0.702088
0.702971
0.703799
0.70457
0.705284
0.70594
0.706538
0.707079
0.707562
0.707988
0.708357
0.708672
0.708931
0.709138
0.709292
0.709396
0.709452
0.709461
0.709424
0.709345
0.709225
0.709067
0.708872
0.708643
0.708382
0.708089
0.70777
0.707427
0.674157
0.676051
0.677928
0.679785
0.681617
0.683423
0.6852
0.686945
0.688658
0.690333
0.69197
0.693564
0.695114
0.696617
0.698068
0.699468
0.700811
0.702097
0.703323
0.704486
0.705585
0.706618
0.707583
0.708479
0.709306
0.710061
0.710746
0.71136
0.711902
0.712374
0.712775
0.713106
0.71337
0.713565
0.713694
0.713759
0.71376
0.713701
0.713581
0.713404
0.713171
0.712883
0.712544
0.712154
0.711716
0.71123
0.710699
0.710127
0.709516
0.675254
0.677424
0.679586
0.681732
0.683854
0.685951
0.688015
0.690046
0.692038
0.693986
0.695888
0.697739
0.699535
0.701273
0.702949
0.704559
0.7061
0.707568
0.708962
0.710277
0.711511
0.712663
0.71373
0.71471
0.715603
0.716407
0.717122
0.717748
0.718284
0.718732
0.719093
0.719366
0.719555
0.71966
0.719683
0.719628
0.719494
0.719287
0.719007
0.718658
0.718244
0.717765
0.717227
0.716632
0.715984
0.715286
0.714541
0.713756
0.712937
0.676241
0.678748
0.681254
0.683748
0.68622
0.688667
0.691081
0.693458
0.695793
0.698078
0.70031
0.702481
0.704587
0.706623
0.708582
0.710461
0.712253
0.713955
0.715565
0.717074
0.718483
0.719788
0.720984
0.722071
0.723047
0.72391
0.724661
0.725299
0.725823
0.726237
0.726541
0.726736
0.726826
0.72681
0.726695
0.726483
0.726175
0.725779
0.725295
0.72473
0.724088
0.723371
0.722587
0.721739
0.720832
0.719871
0.718859
0.717809
0.716723
0.677037
0.680015
0.682993
0.685961
0.688904
0.691821
0.6947
0.697538
0.700326
0.703056
0.705722
0.708314
0.710827
0.713254
0.715586
0.717818
0.719941
0.72195
0.723842
0.725606
0.727242
0.728745
0.730108
0.731332
0.732413
0.733348
0.73414
0.734787
0.735288
0.735648
0.735868
0.735949
0.735898
0.735715
0.735406
0.734977
0.734429
0.733772
0.733009
0.732146
0.731191
0.730147
0.729023
0.727824
0.726557
0.725227
0.72384
0.722409
0.720938
0.677815
0.681385
0.684963
0.688536
0.692087
0.695612
0.699099
0.70254
0.705926
0.709243
0.712485
0.715638
0.718694
0.721643
0.724472
0.727176
0.729741
0.73216
0.734429
0.736532
0.738468
0.740232
0.741813
0.743212
0.744425
0.745446
0.74628
0.746925
0.747381
0.747653
0.747744
0.747656
0.747398
0.746971
0.746385
0.745647
0.744761
0.743738
0.742586
0.741313
0.739929
0.738439
0.736856
0.735186
0.73344
0.731624
0.729747
0.727824
0.725862
0.678287
0.682589
0.686919
0.691258
0.695587
0.699898
0.704174
0.708406
0.71258
0.716678
0.720689
0.724593
0.72838
0.732035
0.735539
0.738883
0.742047
0.745024
0.747803
0.750365
0.752707
0.75482
0.75669
0.758319
0.759699
0.760824
0.761699
0.762324
0.762697
0.762828
0.76272
0.762377
0.761812
0.761029
0.760041
0.758861
0.757493
0.755956
0.754259
0.752416
0.750442
0.748344
0.746141
0.743843
0.741462
0.73901
0.736497
0.733945
0.731361
0.677886
0.683116
0.688407
0.693737
0.69908
0.704426
0.709752
0.715043
0.72028
0.725436
0.730496
0.73543
0.740223
0.744851
0.749289
0.753521
0.757518
0.761269
0.764757
0.767954
0.770856
0.773448
0.775712
0.777648
0.779245
0.780495
0.781406
0.781976
0.782206
0.782109
0.78169
0.780959
0.779932
0.778619
0.777038
0.775209
0.773142
0.770864
0.768389
0.765738
0.762933
0.759988
0.756929
0.753769
0.750529
0.747226
0.743871
0.740493
0.737103
0.675883
0.682291
0.688818
0.695437
0.702114
0.708837
0.715575
0.722303
0.728995
0.735611
0.742126
0.748498
0.754701
0.7607
0.766456
0.771945
0.777124
0.781972
0.786466
0.790564
0.794256
0.797521
0.800332
0.802686
0.804571
0.805972
0.806902
0.807359
0.807344
0.806878
0.805971
0.804636
0.802903
0.800784
0.798312
0.795515
0.792411
0.789043
0.785433
0.781615
0.777622
0.773476
0.769216
0.764864
0.760451
0.755998
0.751522
0.747058
0.742623
0.671209
0.678983
0.686982
0.695173
0.703513
0.711982
0.720527
0.729114
0.737697
0.746222
0.754651
0.762922
0.770996
0.778823
0.786344
0.793522
0.800294
0.806627
0.812483
0.8178
0.82256
0.82673
0.83027
0.833175
0.835423
0.836996
0.837911
0.838166
0.837764
0.836739
0.835105
0.832888
0.830131
0.826856
0.823116
0.818953
0.814398
0.809514
0.804337
0.798919
0.793309
0.787543
0.78168
0.775753
0.769812
0.763892
0.758018
0.752233
0.746561
0.663583
0.672739
0.682279
0.692159
0.702317
0.712714
0.72328
0.733961
0.744698
0.755415
0.766062
0.776554
0.786833
0.796832
0.806464
0.815675
0.824374
0.832507
0.840018
0.846817
0.852874
0.858137
0.86255
0.866102
0.868762
0.870504
0.871353
0.871306
0.87037
0.868594
0.866003
0.862635
0.858558
0.853807
0.848461
0.842584
0.836226
0.829478
0.822395
0.81505
0.807514
0.799839
0.792105
0.784362
0.776684
0.769131
0.761743
0.754576
0.747667
0.65296
0.663537
0.674815
0.686635
0.698856
0.7114
0.724173
0.73711
0.750154
0.763217
0.776246
0.78914
0.801825
0.814213
0.826189
0.837674
0.848545
0.858721
0.868122
0.876617
0.884162
0.890681
0.896091
0.900376
0.903491
0.905403
0.906141
0.905709
0.904114
0.901428
0.897688
0.892952
0.887318
0.880841
0.873634
0.865789
0.857378
0.848526
0.839306
0.829816
0.820142
0.810344
0.800512
0.790682
0.780988
0.771514
0.762352
0.75364
0.745528
0.63835
0.650999
0.66456
0.678561
0.692882
0.707511
0.722415
0.737572
0.752946
0.768448
0.784012
0.799511
0.814843
0.829887
0.844489
0.858538
0.871866
0.884361
0.895907
0.90633
0.915563
0.923499
0.930026
0.935119
0.938714
0.94077
0.941334
0.940408
0.937999
0.934208
0.929088
0.922722
0.915244
0.906737
0.897354
0.88723
0.876467
0.865237
0.853648
0.841831
0.829908
0.817959
0.806059
0.793901
0.782276
0.770843
0.759643
0.748833
0.73873
0.703628
0.703867
0.704103
0.704325
0.704513
0.704643
0.704698
0.704703
0.7047
0.704745
0.704903
0.705251
0.70583
0.706696
0.70791
0.709539
0.711657
0.714357
0.717747
0.721972
0.727221
0.733758
0.741965
0.752425
0.766112
0.784623
0.809747
0.847577
0.969464
0.703414
0.703662
0.703946
0.70425
0.704537
0.70475
0.704823
0.704754
0.704654
0.704616
0.7047
0.704962
0.705453
0.706226
0.707337
0.708847
0.710825
0.713352
0.716521
0.720451
0.72529
0.731233
0.738531
0.747497
0.758556
0.772518
0.788295
0.797156
0.824413
0.701203
0.701132
0.701004
0.700823
0.7006
0.700332
0.699982
0.699569
0.699207
0.698944
0.698814
0.698862
0.699132
0.699672
0.700527
0.701747
0.703384
0.705493
0.708134
0.71137
0.715262
0.71986
0.725182
0.731127
0.737348
0.743637
0.74895
0.743492
0.738731
0.700606
0.700162
0.699497
0.698596
0.697501
0.696291
0.695077
0.694038
0.693224
0.692579
0.6921
0.691812
0.691745
0.691932
0.692407
0.693203
0.694351
0.695879
0.697809
0.700148
0.702883
0.70596
0.709269
0.712596
0.715485
0.717587
0.719031
0.714791
0.709556
0.703794
0.703476
0.702984
0.702262
0.701263
0.699979
0.698498
0.697081
0.695844
0.694773
0.693882
0.693189
0.692715
0.69248
0.692507
0.692815
0.693419
0.694328
0.695538
0.69703
0.698764
0.700669
0.702636
0.704524
0.70607
0.706952
0.707253
0.704526
0.700322
0.706315
0.706144
0.705901
0.705542
0.704991
0.704144
0.702919
0.701457
0.699976
0.698565
0.697286
0.696179
0.69527
0.694583
0.694137
0.693943
0.694007
0.694329
0.694895
0.69568
0.696644
0.697725
0.698833
0.699857
0.700623
0.70082
0.700235
0.697759
0.693794
0.707046
0.706587
0.705981
0.705208
0.704237
0.703001
0.701414
0.699582
0.697723
0.695908
0.694195
0.692631
0.691251
0.690081
0.689139
0.688433
0.687965
0.687731
0.687714
0.687887
0.688213
0.688634
0.689073
0.68943
0.689579
0.689335
0.68855
0.687015
0.684664
0.708829
0.707993
0.706892
0.705483
0.703733
0.701605
0.699095
0.696449
0.693901
0.691469
0.68918
0.687064
0.685147
0.683448
0.681981
0.68075
0.679754
0.678984
0.678422
0.678042
0.677808
0.677672
0.677575
0.677451
0.677232
0.676851
0.676263
0.67557
0.674767
0.712033
0.710948
0.709547
0.707765
0.705532
0.702777
0.699492
0.696028
0.692707
0.689554
0.686597
0.683858
0.681355
0.679098
0.677093
0.675341
0.673835
0.672564
0.671509
0.670646
0.669943
0.669364
0.668868
0.668412
0.667959
0.667477
0.666924
0.666334
0.665845
0.715542
0.714148
0.712386
0.710187
0.707467
0.704133
0.700148
0.695915
0.691834
0.68795
0.684304
0.680918
0.67781
0.674986
0.672448
0.67019
0.668204
0.666475
0.664983
0.663707
0.662617
0.661685
0.660877
0.66016
0.659502
0.658875
0.658239
0.657556
0.656981
0.719348
0.717487
0.715165
0.712305
0.708823
0.704625
0.699694
0.694525
0.689584
0.684911
0.680537
0.676482
0.672757
0.669366
0.666303
0.663559
0.661121
0.65897
0.657088
0.655449
0.654028
0.652799
0.651732
0.6508
0.649975
0.649236
0.648569
0.64794
0.64744
0.723755
0.72131
0.718294
0.714617
0.710188
0.704918
0.698819
0.69253
0.6866
0.681049
0.675895
0.671144
0.666796
0.662843
0.659272
0.656068
0.65321
0.650677
0.648446
0.646491
0.644787
0.643308
0.642029
0.640926
0.639978
0.63917
0.638492
0.637922
0.637518
0.728612
0.725456
0.721613
0.716984
0.711474
0.705
0.697613
0.690105
0.683114
0.676641
0.670684
0.665235
0.660275
0.655785
0.651739
0.648113
0.644879
0.642011
0.639479
0.637258
0.63532
0.63364
0.632193
0.630957
0.629914
0.629047
0.628345
0.627778
0.627398
0.733538
0.729496
0.72464
0.718869
0.712099
0.704269
0.695482
0.686692
0.678617
0.671226
0.664489
0.658376
0.652848
0.647869
0.643401
0.639407
0.635853
0.632704
0.629927
0.627492
0.625371
0.623535
0.62196
0.620626
0.619511
0.618602
0.617885
0.617327
0.616965
0.738024
0.732886
0.726801
0.719681
0.711469
0.702143
0.691873
0.681785
0.672657
0.664403
0.656957
0.650255
0.644237
0.638846
0.63403
0.629741
0.625935
0.622569
0.619608
0.617015
0.61476
0.612815
0.611153
0.609753
0.608597
0.60767
0.606964
0.606442
0.606123
0.740774
0.734429
0.727044
0.718553
0.708941
0.69823
0.686646
0.675462
0.665484
0.656561
0.648583
0.641456
0.635095
0.629426
0.624383
0.619907
0.615945
0.612451
0.609383
0.606703
0.604377
0.602375
0.600671
0.599242
0.598072
0.59715
0.596475
0.596013
0.595768
0.740747
0.733345
0.724887
0.715323
0.704668
0.692969
0.680491
0.668594
0.658086
0.64876
0.640475
0.633112
0.62657
0.620759
0.615607
0.611045
0.607018
0.603473
0.600367
0.597658
0.59531
0.593294
0.591581
0.59015
0.588982
0.588071
0.587432
0.587048
0.586928
0.737762
0.729653
0.720527
0.710343
0.69911
0.686874
0.673925
0.66167
0.650912
0.641403
0.632988
0.625532
0.618924
0.613069
0.607887
0.603309
0.599273
0.595727
0.592623
0.589921
0.587582
0.585576
0.583874
0.582452
0.581292
0.580382
0.579762
0.579462
0.579528
0.731261
0.723532
0.714547
0.704382
0.693017
0.680578
0.667448
0.655083
0.644266
0.634722
0.626293
0.618837
0.612237
0.606396
0.601233
0.596677
0.592664
0.589143
0.586064
0.583385
0.581069
0.579084
0.5774
0.575992
0.574838
0.573913
0.573277
0.573116
0.573461
0.485926
0.4849
0.484778
0.485036
0.485392
0.485837
0.486406
0.487118
0.487991
0.489045
0.490305
0.4918
0.493568
0.495651
0.498104
0.500992
0.504398
0.508425
0.513205
0.518911
0.52577
0.534058
0.544222
0.555865
0.567641
0.578876
0.589062
0.597765
0.603751
0.479364
0.47857
0.478514
0.478646
0.478907
0.479269
0.479742
0.480337
0.481067
0.48195
0.483008
0.484267
0.485756
0.487515
0.489589
0.492035
0.494923
0.498344
0.502413
0.50728
0.513155
0.520282
0.529061
0.539209
0.549624
0.559727
0.569002
0.577785
0.58685
0.472558
0.472109
0.472166
0.472194
0.472376
0.472652
0.473025
0.473499
0.474085
0.474795
0.475648
0.476664
0.47787
0.479296
0.48098
0.482969
0.485321
0.48811
0.491433
0.495415
0.500238
0.506124
0.513416
0.52195
0.530892
0.539929
0.54857
0.556973
0.566241
0.465699
0.465468
0.465611
0.465614
0.465755
0.465953
0.466226
0.466577
0.467014
0.467547
0.46819
0.468959
0.469874
0.470959
0.472245
0.473766
0.475568
0.477707
0.48026
0.48332
0.487037
0.491593
0.497269
0.504002
0.511188
0.518704
0.52628
0.53365
0.541266
0.458923
0.458809
0.458971
0.458968
0.459072
0.459191
0.459361
0.459583
0.459862
0.460207
0.460627
0.461135
0.461743
0.462469
0.463333
0.46436
0.465579
0.467026
0.468752
0.470814
0.473309
0.476361
0.480146
0.484664
0.489569
0.494795
0.500517
0.506529
0.51291
0.45223
0.452191
0.452333
0.452314
0.452363
0.452398
0.452461
0.452547
0.452663
0.452812
0.453001
0.453236
0.453525
0.453877
0.454302
0.454813
0.455422
0.456143
0.456998
0.458002
0.459184
0.460588
0.462246
0.464154
0.466282
0.468543
0.471408
0.474955
0.479941
0.445585
0.445598
0.445704
0.445658
0.445638
0.445588
0.44554
0.445489
0.445438
0.445389
0.445344
0.445304
0.445271
0.445245
0.445227
0.445218
0.445213
0.445205
0.445185
0.445129
0.445
0.444746
0.44426
0.443464
0.442584
0.441461
0.440641
0.440066
0.441822
0.438972
0.439017
0.439081
0.439
0.438907
0.438769
0.438608
0.438418
0.438201
0.437954
0.437675
0.437361
0.437006
0.436604
0.436148
0.435624
0.435015
0.434295
0.433423
0.432351
0.430982
0.429189
0.426764
0.423476
0.419628
0.415137
0.410336
0.405321
0.402554
0.432388
0.432452
0.43247
0.43235
0.43218
0.431953
0.431679
0.43135
0.430967
0.430522
0.430011
0.429424
0.428751
0.427979
0.427091
0.426064
0.424868
0.42346
0.421775
0.419752
0.417261
0.414126
0.410044
0.404636
0.398278
0.391051
0.383042
0.374747
0.367833
0.425834
0.425908
0.425876
0.425713
0.425467
0.425151
0.424762
0.424297
0.423748
0.423109
0.422369
0.421515
0.420531
0.419397
0.418089
0.416576
0.414816
0.41276
0.410299
0.407414
0.403939
0.399662
0.394139
0.387103
0.379073
0.37016
0.360326
0.350183
0.340548
0.419308
0.419385
0.419308
0.419099
0.418777
0.418373
0.417872
0.417272
0.416563
0.415734
0.414771
0.413657
0.412371
0.410888
0.409176
0.407198
0.404903
0.402258
0.399044
0.395405
0.391048
0.385729
0.379032
0.370932
0.362054
0.352385
0.341821
0.330927
0.320075
0.412816
0.412897
0.412774
0.412518
0.412123
0.411633
0.411023
0.410292
0.409427
0.408415
0.407238
0.405874
0.404299
0.402481
0.400385
0.397967
0.395161
0.391922
0.388134
0.383738
0.378526
0.372279
0.364693
0.355905
0.346635
0.336798
0.326265
0.315524
0.304869
0.406371
0.40645
0.406281
0.405978
0.405515
0.404942
0.404228
0.403371
0.402356
0.401168
0.399787
0.398187
0.396339
0.394204
0.391747
0.388917
0.385644
0.381868
0.377483
0.372366
0.366357
0.359304
0.35096
0.341573
0.332009
0.322225
0.312111
0.302039
0.29227
0.399974
0.400036
0.399826
0.399485
0.39896
0.398309
0.397496
0.396519
0.395363
0.394008
0.392434
0.390612
0.388507
0.386078
0.383283
0.38007
0.376359
0.372067
0.367089
0.361295
0.354554
0.346725
0.337573
0.327461
0.317415
0.307458
0.297511
0.287843
0.278659
0.393625
0.393668
0.393431
0.393052
0.392471
0.391746
0.39084
0.389751
0.388461
0.386951
0.385195
0.383166
0.380822
0.378121
0.375013
0.371438
0.36731
0.362532
0.357002
0.350579
0.343127
0.33447
0.324377
0.313295
0.302362
0.291658
0.281122
0.27097
0.261423
0.387316
0.387366
0.387109
0.386693
0.386059
0.385265
0.384271
0.383078
0.381663
0.380007
0.378083
0.37586
0.373296
0.370344
0.366947
0.363036
0.358524
0.353306
0.347266
0.340245
0.332069
0.322525
0.311347
0.298997
0.286691
0.274569
0.262602
0.25098
0.240048
0.381061
0.38113
0.380865
0.380415
0.379732
0.378873
0.377798
0.376507
0.374977
0.373187
0.371109
0.368707
0.365941
0.362758
0.359099
0.354887
0.350029
0.344412
0.337895
0.330297
0.3214
0.310934
0.298548
0.284661
0.270562
0.256459
0.242403
0.228577
0.2155
0.374882
0.374975
0.374706
0.374224
0.373498
0.372578
0.371429
0.370048
0.368413
0.366501
0.364281
0.361719
0.35877
0.355381
0.351487
0.347008
0.341842
0.335865
0.328913
0.320779
0.311198
0.299819
0.286175
0.270605
0.254479
0.238084
0.221574
0.205176
0.189591
0.36879
0.368911
0.368642
0.368127
0.367363
0.366388
0.365171
0.363709
0.361978
0.359956
0.35761
0.354905
0.351794
0.348222
0.344122
0.339409
0.333974
0.327682
0.320352
0.311749
0.301554
0.289336
0.274494
0.257255
0.239092
0.220361
0.20137
0.182506
0.164919
0.362796
0.362943
0.362675
0.362133
0.361334
0.360308
0.359031
0.357496
0.355679
0.353558
0.3511
0.348268
0.345015
0.341284
0.337006
0.332092
0.326429
0.319874
0.312231
0.303241
0.292538
0.279611
0.26374
0.245009
0.224974
0.203974
0.182583
0.160865
0.140257
0.356912
0.357086
0.356816
0.356246
0.355417
0.354345
0.353014
0.351413
0.349522
0.347314
0.344758
0.341816
0.33844
0.334574
0.330145
0.325065
0.319219
0.312456
0.304573
0.295295
0.284224
0.270781
0.254169
0.2343
0.212829
0.190116
0.166716
0.143138
0.120778
0.351147
0.351348
0.35107
0.350474
0.349615
0.348503
0.347124
0.345467
0.34351
0.341228
0.338588
0.335553
0.332074
0.328096
0.323545
0.318334
0.312347
0.305434
0.297389
0.287933
0.276657
0.262938
0.245956
0.225429
0.203308
0.179516
0.155031
0.130285
0.106907
0.345513
0.345735
0.345443
0.344819
0.343934
0.342786
0.341367
0.339662
0.337649
0.335304
0.332595
0.329483
0.325921
0.321853
0.317208
0.311899
0.305815
0.298807
0.290676
0.281152
0.26984
0.256108
0.239194
0.21883
0.196482
0.172738
0.148132
0.123083
0.0995285
0.340017
0.340247
0.339932
0.339283
0.338376
0.337197
0.335745
0.334
0.331942
0.329546
0.32678
0.323607
0.31998
0.315845
0.311132
0.305757
0.299613
0.29256
0.284412
0.274916
0.263716
0.250213
0.233753
0.214175
0.192679
0.169972
0.146273
0.121902
0.0989225
0.334678
0.334892
0.334538
0.333865
0.33294
0.331738
0.330259
0.328483
0.32639
0.323955
0.321147
0.317929
0.314255
0.310073
0.305317
0.299906
0.293739
0.286686
0.278578
0.269188
0.258215
0.24513
0.229436
0.211141
0.191562
0.170883
0.149249
0.126669
0.104953
0.329509
0.329656
0.329251
0.328564
0.327629
0.32641
0.324913
0.323115
0.320997
0.318535
0.315699
0.312451
0.30875
0.304543
0.299769
0.294351
0.288196
0.281186
0.273169
0.263951
0.253287
0.240747
0.225987
0.209128
0.192746
0.174825
0.156679
0.137405
0.117616
0.324581
0.324576
0.324078
0.323381
0.322443
0.321216
0.319708
0.317897
0.315765
0.313288
0.310437
0.307176
0.303465
0.299255
0.294486
0.289088
0.282976
0.276042
0.268152
0.25914
0.248813
0.23685
0.223068
0.208199
0.19359
0.17934
0.165891
0.152338
0.136597
0.713366
0.711295
0.709941
0.71309
0.733423
0.776387
0.840716
0.917842
0.99259
1.0495
1.07849
1.07561
1.04182
0.983891
0.916423
0.8581
0.823564
0.814699
0.819091
0.713564
0.708721
0.699191
0.690351
0.69234
0.714
0.759011
0.820749
0.882304
0.925505
0.939156
0.919808
0.87041
0.800483
0.725741
0.664069
0.626648
0.613249
0.613012
0.708729
0.699585
0.680985
0.656148
0.633388
0.627724
0.650364
0.696866
0.746418
0.776368
0.774657
0.73895
0.675572
0.596148
0.516241
0.451873
0.411905
0.39443
0.389908
0.698428
0.684279
0.654964
0.609607
0.554676
0.514004
0.510371
0.542778
0.584165
0.604743
0.59105
0.541276
0.46765
0.379954
0.295298
0.229415
0.188237
0.167625
0.159305
0.683146
0.662881
0.620135
0.550147
0.456254
0.373042
0.339031
0.357607
0.393106
0.406069
0.383593
0.328864
0.250437
0.161437
0.0795983
0.0178255
-0.0217422
-0.0444934
-0.0561573
0.660208
0.631411
0.57446
0.479477
0.345346
0.217826
0.153298
0.158042
0.185698
0.192281
0.166084
0.110567
0.033775
-0.0497293
-0.123624
-0.17907
-0.216761
-0.242077
-0.257903
0.630287
0.59345
0.52537
0.409019
0.240003
0.0741301
-0.0164159
-0.026449
-0.0101186
-0.0100538
-0.0370942
-0.0890942
-0.157031
-0.226444
-0.285162
-0.32887
-0.359938
-0.382917
-0.398387
0.599622
0.559539
0.484997
0.355527
0.163012
-0.0264151
-0.134766
-0.159363
-0.157367
-0.167695
-0.199305
-0.2492
-0.307671
-0.363284
-0.408998
-0.443646
-0.469751
-0.490605
-0.505428
0.576666
0.536596
0.462752
0.33227
0.135818
-0.0559558
-0.169886
-0.21199
-0.235158
-0.267997
-0.313115
-0.364945
-0.415907
-0.460229
-0.495743
-0.523228
-0.544905
-0.563097
-0.576305
0.563583
0.528288
0.463161
0.346373
0.169031
-0.00460595
-0.120001
-0.191803
-0.258136
-0.328418
-0.395066
-0.452007
-0.497855
-0.533986
-0.562488
-0.585349
-0.604333
-0.620972
-0.633398
0.558862
0.532662
0.483449
0.391921
0.249086
0.0999372
-0.0264724
-0.144234
-0.264774
-0.373984
-0.457313
-0.514286
-0.552728
-0.58047
-0.602235
-0.620302
-0.635846
-0.649685
-0.659943
0.557668
0.542771
0.511976
0.448685
0.341044
0.208373
0.0585593
-0.110871
-0.280912
-0.419058
-0.510993
-0.565053
-0.596981
-0.618646
-0.635958
-0.651048
-0.664571
-0.676783
-0.685943
0.553204
0.548266
0.532592
0.491476
0.408776
0.281489
0.105941
-0.104876
-0.308466
-0.463178
-0.55883
-0.610767
-0.639214
-0.657892
-0.673174
-0.687071
-0.700003
-0.71183
-0.72098
0.539538
0.540913
0.534028
0.505347
0.43591
0.30992
0.120379
-0.109021
-0.325463
-0.48652
-0.585602
-0.640314
-0.671373
-0.69251
-0.710137
-0.726257
-0.741394
-0.754909
-0.76561
0.514215
0.518526
0.515213
0.492498
0.431844
0.313641
0.129812
-0.0954516
-0.311271
-0.47773
-0.587546
-0.655302
-0.699248
-0.732116
-0.760251
-0.785727
-0.809514
-0.829853
-0.846205
0.478065
0.483528
0.481536
0.46365
0.414882
0.316682
0.15732
-0.0487068
-0.260102
-0.438536
-0.57112
-0.665537
-0.73575
-0.793339
-0.844365
-0.890374
-0.933025
-0.967971
-0.996163
0.433017
0.438768
0.437785
0.426712
0.396481
0.331308
0.211115
0.0321058
-0.178467
-0.381239
-0.552225
-0.690245
-0.803151
-0.903496
-0.995812
-1.08036
-1.1591
-1.22302
-1.27381
0.381786
0.386318
0.385694
0.383102
0.377362
0.356044
0.284652
0.132383
-0.0907047
-0.33937
-0.56233
-0.766635
-0.953104
-1.12262
-1.27799
-1.41763
-1.54722
-1.65099
-1.73234
0.328107
0.328509
0.325348
0.329456
0.349482
0.378251
0.361095
0.228279
-0.0300059
-0.349028
-0.657233
-0.959122
-1.2397
-1.49679
-1.73107
-1.93769
-2.12429
-2.26852
-2.37783
0.276248
0.268805
0.257684
0.261909
0.301356
0.378134
0.415356
0.28827
-0.0402721
-0.464214
-0.89119
-1.30903
-1.70201
-2.05851
-2.37613
-2.65161
-2.89218
-3.07301
-3.20658
0.232296
0.213028
0.187279
0.180374
0.221945
0.326518
0.403147
0.261327
-0.177403
-0.743314
-1.30685
-1.85873
-2.36275
-2.8101
-3.19691
-3.52
-3.78904
-3.98306
-4.12073
0.198478
0.167989
0.122626
0.0900002
0.103239
0.183581
0.249661
0.0654772
-0.505985
-1.21845
-1.92169
-2.59588
-3.19179
-3.69818
-4.11275
-4.44057
-4.69794
-4.87338
-4.99098
0.176506
0.137643
0.0753704
-0.000671258
-0.062201
-0.106099
-0.177439
-0.452211
-1.04853
-1.82887
-2.72284
-3.50432
-4.11629
-4.60674
-4.994
-5.28426
-5.49616