/*--------------------------------*- C++ -*----------------------------------*\
| =========                 |                                                 |
| \\      /  F ield         | OpenFOAM: The Open Source CFD Toolbox           |
|  \\    /   O peration     | Version:  2312                                  |
|   \\  /    A nd           | Website:  www.openfoam.com                      |
|    \\/     M anipulation  |                                                 |
\*---------------------------------------------------------------------------*/
FoamFile
{
    version     2.0;
    format      ascii;
    arch        "LSB;label=32;scalar=64";
    class       volScalarField;
    location    "12.951003104777081";
    object      p;
}
// * * * * * * * * * * * * * * * * * * * * * * * * * * * * * * * * * * * * * //

dimensions      [0 2 -2 0 0 0 0];

internalField   nonuniform List<scalar> 
21039
(
0.578743
0.444939
0.402874
0.374701
0.353473
0.337502
0.325183
0.315415
0.307515
0.301031
0.295647
0.291132
0.287315
0.284063
0.281273
0.278862
0.276764
0.27492
0.273283
0.271812
0.270471
0.26923
0.268058
0.266992
0.266061
0.265227
0.264455
0.263714
0.262995
0.431575
0.393782
0.380048
0.361755
0.345088
0.33191
0.321279
0.312561
0.305363
0.299371
0.294344
0.290096
0.286483
0.283392
0.280732
0.278428
0.276417
0.274649
0.273076
0.271661
0.270367
0.269165
0.268027
0.266982
0.26606
0.265229
0.264457
0.263718
0.262999
0.342051
0.339734
0.341998
0.335341
0.327003
0.319319
0.312186
0.305787
0.300195
0.29535
0.291163
0.287548
0.284424
0.281719
0.279371
0.277323
0.275529
0.273945
0.272533
0.271258
0.270088
0.268995
0.267953
0.266985
0.266117
0.265325
0.264584
0.263869
0.263172
0.303822
0.305996
0.310579
0.309606
0.307103
0.304001
0.300324
0.29654
0.292917
0.289556
0.286502
0.283767
0.281339
0.279194
0.277306
0.275643
0.274176
0.272876
0.271712
0.270659
0.26969
0.268778
0.267901
0.267072
0.266314
0.265608
0.264934
0.264272
0.263614
0.27863
0.282642
0.288651
0.29049
0.290821
0.290223
0.288824
0.287039
0.285089
0.283099
0.281165
0.279347
0.277675
0.276161
0.274804
0.273598
0.272527
0.271577
0.270727
0.269958
0.269249
0.268579
0.267927
0.267294
0.266691
0.266107
0.265529
0.26494
0.264338
0.258776
0.264063
0.271536
0.275548
0.2777
0.278651
0.278732
0.278321
0.277603
0.276702
0.275719
0.274727
0.27377
0.272878
0.272067
0.271343
0.270704
0.270143
0.269651
0.269213
0.268814
0.268434
0.268058
0.26767
0.267261
0.266831
0.266374
0.265882
0.26535
0.245754
0.250798
0.258013
0.263114
0.266495
0.268598
0.269784
0.2704
0.270624
0.270586
0.27039
0.270111
0.269798
0.269489
0.269208
0.268967
0.268774
0.268629
0.268526
0.268456
0.268407
0.268363
0.268307
0.268221
0.268042
0.267796
0.267488
0.267115
0.266681
0.238167
0.242278
0.248133
0.253245
0.257125
0.259886
0.261815
0.26318
0.264132
0.264789
0.26525
0.265584
0.265846
0.266074
0.266296
0.26653
0.266786
0.26707
0.267379
0.267708
0.268048
0.268386
0.268706
0.268941
0.269043
0.269023
0.268891
0.26865
0.268318
0.233314
0.236519
0.240992
0.245652
0.249536
0.252529
0.254848
0.256689
0.258158
0.25935
0.260342
0.261198
0.261965
0.262681
0.263376
0.264068
0.26477
0.265489
0.266227
0.26698
0.267741
0.268499
0.269239
0.269861
0.270286
0.270529
0.270608
0.270532
0.270313
0.229538
0.231988
0.235411
0.239543
0.243245
0.246264
0.24876
0.250877
0.252692
0.254274
0.255684
0.256971
0.258175
0.25933
0.260463
0.261592
0.262732
0.263889
0.265067
0.266264
0.267476
0.268691
0.269899
0.270962
0.27176
0.27231
0.27264
0.272761
0.27269
0.226136
0.227979
0.230647
0.23427
0.237741
0.240717
0.243294
0.245576
0.247627
0.249498
0.251235
0.252877
0.254458
0.256005
0.257543
0.259087
0.260652
0.262245
0.263872
0.265531
0.267219
0.268928
0.270649
0.272205
0.273429
0.274335
0.274957
0.27531
0.275414
0.222791
0.224185
0.226316
0.229475
0.232703
0.235606
0.238213
0.240601
0.24282
0.244912
0.246913
0.248854
0.250762
0.252661
0.254572
0.25651
0.258489
0.260516
0.262596
0.264729
0.266913
0.269144
0.271416
0.273515
0.275216
0.276529
0.27749
0.278114
0.278424
0.219346
0.220424
0.222182
0.22494
0.227933
0.230744
0.23335
0.235802
0.238143
0.240407
0.242624
0.244818
0.247013
0.24923
0.251487
0.2538
0.256181
0.258637
0.261172
0.263785
0.266477
0.269245
0.272094
0.274769
0.27699
0.278757
0.280101
0.281038
0.281588
0.215732
0.216591
0.21808
0.220502
0.223277
0.225991
0.228574
0.23106
0.233488
0.235887
0.238279
0.240689
0.243136
0.24564
0.24822
0.250891
0.253663
0.256542
0.25953
0.262625
0.265825
0.26913
0.272551
0.2758
0.278547
0.280787
0.282547
0.28383
0.284654
0.211928
0.212633
0.213912
0.216038
0.218603
0.221213
0.223761
0.226262
0.228749
0.23125
0.233784
0.236373
0.239038
0.241801
0.244681
0.247692
0.250844
0.254141
0.257582
0.261162
0.264868
0.268692
0.272643
0.276397
0.279598
0.282259
0.284414
0.286053
0.287177
0.208262
0.208854
0.209964
0.211869
0.214264
0.216775
0.219281
0.221784
0.22431
0.226882
0.229523
0.232253
0.235097
0.23808
0.241222
0.244538
0.24804
0.251733
0.255611
0.259658
0.263844
0.268129
0.272486
0.276517
0.279865
0.282619
0.284886
0.286696
0.288044
0.205117
0.205634
0.206638
0.2084
0.210665
0.21309
0.21556
0.218066
0.220624
0.223253
0.225977
0.22882
0.231812
0.234979
0.238345
0.24193
0.245748
0.249806
0.254096
0.258593
0.263242
0.267956
0.272625
0.27669
0.279731
0.281918
0.283527
0.284825
0.286044
0.202478
0.202946
0.203876
0.205531
0.207697
0.210066
0.212529
0.215057
0.217652
0.220336
0.223134
0.22608
0.229205
0.232538
0.236109
0.239943
0.244062
0.248477
0.253181
0.258143
0.263296
0.268504
0.273554
0.27763
0.280057
0.28087
0.28036
0.279073
0.278142
0.200319
0.200834
0.201779
0.203329
0.205326
0.207592
0.210051
0.212622
0.215272
0.218018
0.220896
0.223946
0.227202
0.230699
0.234471
0.238552
0.24297
0.247746
0.252879
0.258346
0.264079
0.269926
0.275611
0.280069
0.282175
0.281413
0.27745
0.269732
0.258088
0.26229
0.261579
0.260873
0.260171
0.259473
0.258776
0.258081
0.257385
0.256689
0.25599
0.25529
0.254586
0.253878
0.253165
0.252446
0.251721
0.25099
0.250251
0.249504
0.24875
0.247987
0.247217
0.246437
0.24565
0.244854
0.24405
0.243238
0.242419
0.241593
0.24076
0.239921
0.239076
0.238226
0.237372
0.236515
0.235655
0.234793
0.23393
0.233067
0.232205
0.231346
0.230489
0.229636
0.228788
0.227946
0.227111
0.226283
0.225464
0.224654
0.262296
0.261595
0.260899
0.260209
0.259521
0.258834
0.258149
0.257463
0.256776
0.256088
0.255396
0.254701
0.254
0.253295
0.252583
0.251864
0.251138
0.250404
0.249661
0.248909
0.248149
0.247379
0.2466
0.245811
0.245014
0.244208
0.243392
0.242569
0.241737
0.240899
0.240053
0.239201
0.238343
0.237481
0.236615
0.235745
0.234873
0.234
0.233126
0.232253
0.231382
0.230513
0.229648
0.228788
0.227933
0.227086
0.226246
0.225415
0.224592
0.262493
0.261817
0.261146
0.260479
0.259814
0.25915
0.258486
0.257821
0.257153
0.256481
0.255806
0.255125
0.254437
0.253742
0.253039
0.252327
0.251606
0.250875
0.250133
0.249381
0.248617
0.247843
0.247057
0.24626
0.245452
0.244634
0.243804
0.242965
0.242117
0.24126
0.240394
0.239521
0.238641
0.237755
0.236864
0.235968
0.23507
0.234169
0.233267
0.232365
0.231464
0.230565
0.229669
0.228778
0.227892
0.227012
0.226139
0.225276
0.224421
0.262973
0.262337
0.261702
0.26107
0.260437
0.259804
0.259168
0.258529
0.257885
0.257235
0.256578
0.255913
0.255238
0.254554
0.253859
0.253152
0.252432
0.2517
0.250954
0.250195
0.249422
0.248635
0.247835
0.24702
0.246192
0.245351
0.244497
0.24363
0.242752
0.241863
0.240964
0.240056
0.239138
0.238213
0.237282
0.236345
0.235403
0.234458
0.23351
0.232561
0.231612
0.230665
0.229719
0.228777
0.227839
0.226907
0.225981
0.225064
0.224155
0.263747
0.263162
0.262575
0.261986
0.261395
0.2608
0.260199
0.259591
0.258975
0.25835
0.257713
0.257066
0.256405
0.25573
0.255041
0.254336
0.253615
0.252877
0.252123
0.251351
0.250561
0.249755
0.248931
0.248089
0.247231
0.246357
0.245467
0.244561
0.243642
0.242708
0.241762
0.240804
0.239836
0.238857
0.23787
0.236876
0.235875
0.234869
0.233859
0.232847
0.231833
0.230819
0.229806
0.228795
0.227788
0.226785
0.225788
0.224798
0.223816
0.264821
0.264299
0.263771
0.263237
0.262696
0.262147
0.261589
0.261018
0.260436
0.259839
0.259226
0.258597
0.257951
0.257285
0.256601
0.255895
0.255169
0.254422
0.253653
0.252862
0.252049
0.251214
0.250358
0.24948
0.248582
0.247663
0.246725
0.245769
0.244795
0.243804
0.242797
0.241775
0.24074
0.239693
0.238635
0.237567
0.236491
0.235408
0.234319
0.233226
0.23213
0.231032
0.229934
0.228837
0.227742
0.226651
0.225564
0.224483
0.223411
0.266215
0.265774
0.265315
0.264846
0.264367
0.263873
0.263364
0.262838
0.262294
0.261729
0.261143
0.260535
0.259903
0.259247
0.258565
0.257856
0.257121
0.256359
0.25557
0.254753
0.253909
0.253037
0.252139
0.251215
0.250266
0.249292
0.248293
0.247273
0.24623
0.245167
0.244085
0.242984
0.241867
0.240735
0.239589
0.238431
0.237262
0.236084
0.234898
0.233706
0.23251
0.23131
0.230108
0.228906
0.227706
0.226507
0.225312
0.224122
0.222941
0.26799
0.267661
0.267221
0.266845
0.266439
0.266008
0.265556
0.26508
0.264579
0.264051
0.263495
0.262909
0.262292
0.261643
0.260962
0.260247
0.259499
0.258717
0.257901
0.257051
0.256167
0.255251
0.254301
0.25332
0.252308
0.251266
0.250195
0.249096
0.247971
0.24682
0.245647
0.244451
0.243235
0.242001
0.240749
0.239483
0.238202
0.23691
0.235608
0.234298
0.232981
0.231659
0.230335
0.229008
0.227681
0.226356
0.225032
0.223715
0.222406
0.270079
0.269845
0.269587
0.2693
0.268956
0.268575
0.268192
0.267772
0.267318
0.26683
0.266305
0.265743
0.265141
0.2645
0.263817
0.263094
0.262329
0.261522
0.260673
0.259784
0.258853
0.257883
0.256872
0.255824
0.254738
0.253615
0.252458
0.251267
0.250044
0.248791
0.24751
0.246201
0.244869
0.243513
0.242136
0.240741
0.239328
0.237901
0.236462
0.235011
0.233553
0.232087
0.230617
0.229143
0.227669
0.226194
0.224722
0.223255
0.221799
0.272584
0.272459
0.272293
0.272097
0.271872
0.271609
0.271303
0.27093
0.270518
0.270078
0.269589
0.269053
0.268468
0.267835
0.267152
0.266418
0.265634
0.2648
0.263916
0.262982
0.261999
0.260968
0.259888
0.258763
0.257593
0.256379
0.255122
0.253826
0.25249
0.251118
0.249711
0.248271
0.246802
0.245303
0.243779
0.242233
0.240664
0.239078
0.237476
0.23586
0.234234
0.232598
0.230956
0.22931
0.227661
0.226013
0.224365
0.222725
0.221097
0.27546
0.275471
0.275424
0.275334
0.2752
0.275019
0.274792
0.274518
0.27419
0.273803
0.273344
0.272839
0.272279
0.27166
0.27098
0.27024
0.269441
0.268581
0.267663
0.266684
0.265647
0.264553
0.263401
0.262193
0.260932
0.259616
0.25825
0.256835
0.255371
0.253863
0.252312
0.250719
0.24909
0.247425
0.245728
0.244002
0.242249
0.240473
0.238677
0.236864
0.235038
0.233198
0.231353
0.2295
0.227646
0.225791
0.223937
0.222092
0.220265
0.278646
0.278811
0.278905
0.278944
0.278925
0.278848
0.278711
0.278512
0.278252
0.277929
0.277544
0.27709
0.276566
0.275973
0.275313
0.274583
0.273782
0.272909
0.271967
0.270953
0.26987
0.268717
0.267495
0.266206
0.26485
0.263428
0.261944
0.260399
0.258792
0.25713
0.255413
0.253644
0.251827
0.249964
0.24806
0.24612
0.244143
0.242137
0.240106
0.238052
0.235981
0.233895
0.2318
0.229698
0.227593
0.225489
0.223387
0.221297
0.219232
0.282015
0.28235
0.282604
0.282793
0.282914
0.282967
0.282949
0.28286
0.282699
0.282465
0.282157
0.281774
0.281314
0.280777
0.280159
0.279489
0.278713
0.277856
0.276918
0.275892
0.274783
0.273591
0.272312
0.270951
0.269508
0.26798
0.266374
0.264689
0.262925
0.261089
0.259181
0.257204
0.255164
0.253062
0.250905
0.248699
0.246444
0.244152
0.241824
0.239468
0.23709
0.234692
0.232284
0.229868
0.227452
0.225039
0.22263
0.220241
0.217885
0.285315
0.285841
0.286279
0.286649
0.286946
0.287172
0.287322
0.287397
0.287395
0.287312
0.287149
0.2869
0.286566
0.286146
0.285631
0.285023
0.284321
0.283568
0.28268
0.281685
0.280592
0.279397
0.278092
0.276684
0.27517
0.273546
0.271819
0.269989
0.268051
0.266016
0.263883
0.261654
0.259339
0.256937
0.254459
0.251911
0.249297
0.246629
0.243913
0.241158
0.238374
0.235566
0.232748
0.229922
0.227101
0.22429
0.221492
0.218725
0.216008
0.2881
0.288831
0.289485
0.290088
0.290633
0.291121
0.291543
0.291894
0.292168
0.292353
0.292448
0.292442
0.292337
0.29213
0.291815
0.291394
0.290851
0.290194
0.289469
0.288589
0.28758
0.286442
0.285165
0.283755
0.282205
0.280508
0.278672
0.276692
0.274564
0.272299
0.269895
0.267355
0.264691
0.261901
0.259001
0.256001
0.252902
0.249728
0.246482
0.243182
0.239842
0.23647
0.233089
0.229704
0.226336
0.222993
0.219681
0.216426
0.21325
0.289197
0.290088
0.290999
0.291967
0.292956
0.293943
0.29488
0.295741
0.296503
0.29714
0.297655
0.298031
0.298278
0.298395
0.298378
0.298238
0.297959
0.297543
0.296996
0.296325
0.295505
0.294511
0.293342
0.292001
0.290475
0.288751
0.286836
0.284721
0.282396
0.279876
0.277155
0.274238
0.27114
0.267861
0.264422
0.260835
0.257107
0.253267
0.249322
0.245298
0.241214
0.237085
0.232944
0.228806
0.224703
0.220657
0.216683
0.212821
0.209104
0.287357
0.288307
0.289654
0.29139
0.293303
0.295236
0.297055
0.298694
0.300124
0.301328
0.302329
0.303127
0.30375
0.304215
0.304522
0.304695
0.30472
0.304608
0.304354
0.303928
0.303375
0.302629
0.301658
0.300476
0.299059
0.297383
0.29545
0.293245
0.290752
0.287985
0.284938
0.281616
0.278042
0.274215
0.270167
0.265916
0.261472
0.256875
0.252134
0.247282
0.242341
0.237329
0.232287
0.227233
0.222218
0.21728
0.212468
0.207859
0.203519
0.278009
0.279388
0.282951
0.287377
0.291674
0.295473
0.298656
0.301264
0.303386
0.305094
0.306485
0.307605
0.308517
0.30926
0.309848
0.310317
0.310653
0.310874
0.310975
0.310901
0.310653
0.310315
0.30964
0.308724
0.307524
0.30599
0.304117
0.301875
0.299239
0.296227
0.29283
0.289058
0.284944
0.280493
0.275752
0.270748
0.265501
0.260066
0.254456
0.248712
0.242855
0.236897
0.230875
0.224786
0.218673
0.212572
0.206565
0.20085
0.1957
0.249474
0.260567
0.273429
0.28398
0.291825
0.29751
0.301625
0.304678
0.307012
0.308837
0.310315
0.311519
0.312539
0.313419
0.314187
0.314887
0.315504
0.316061
0.316549
0.316903
0.317105
0.317115
0.316878
0.31635
0.315483
0.31421
0.312502
0.310308
0.307592
0.304374
0.300648
0.29643
0.291768
0.286679
0.281229
0.275462
0.269412
0.263153
0.25671
0.250133
0.243451
0.236667
0.229801
0.222805
0.215648
0.208247
0.200526
0.19256
0.184946
0.223862
0.223048
0.222177
0.221241
0.220223
0.219117
0.217949
0.216862
0.215962
0.21528
0.214851
0.214709
0.214898
0.215464
0.21646
0.217951
0.220016
0.222755
0.226293
0.230799
0.236497
0.243701
0.252856
0.264641
0.280156
0.301001
0.328869
0.370653
0.504237
0.223786
0.222955
0.222066
0.221105
0.220055
0.218909
0.217696
0.216558
0.215607
0.214871
0.214384
0.21418
0.214298
0.21478
0.215676
0.217044
0.218956
0.221497
0.224777
0.228934
0.234148
0.240658
0.248769
0.258873
0.271595
0.287875
0.305857
0.319308
0.356899
0.223581
0.222713
0.221778
0.22076
0.219641
0.21841
0.217093
0.215839
0.214766
0.213901
0.213275
0.212917
0.212859
0.213138
0.213791
0.214864
0.216407
0.218478
0.221143
0.224478
0.228563
0.233482
0.239289
0.245906
0.253142
0.261093
0.267426
0.264858
0.26698
0.223259
0.222328
0.221317
0.22021
0.218982
0.21762
0.216143
0.21471
0.213449
0.212386
0.211545
0.210951
0.210629
0.210601
0.210895
0.211535
0.212546
0.21395
0.215764
0.217993
0.220621
0.223596
0.226809
0.229988
0.232657
0.23478
0.235421
0.230532
0.228185
0.222842
0.221825
0.220713
0.219485
0.218112
0.216575
0.214887
0.213222
0.211721
0.210405
0.209296
0.208411
0.207767
0.207375
0.207249
0.207395
0.207815
0.208503
0.209439
0.210587
0.21188
0.213216
0.214461
0.215388
0.215576
0.214883
0.212725
0.206437
0.202284
0.222341
0.221215
0.219976
0.218598
0.217046
0.215292
0.213348
0.211404
0.209618
0.20801
0.206595
0.205385
0.204389
0.203611
0.203051
0.202702
0.202552
0.202577
0.20274
0.202986
0.203239
0.203388
0.203301
0.202788
0.201461
0.19898
0.19468
0.186967
0.181569
0.221755
0.220499
0.219107
0.217547
0.21578
0.21377
0.211525
0.209258
0.207149
0.205216
0.203469
0.201915
0.200557
0.199391
0.19841
0.197597
0.196931
0.196379
0.195895
0.19542
0.194871
0.194137
0.193079
0.191512
0.189083
0.185419
0.180076
0.172667
0.167541
0.221083
0.219671
0.218098
0.216325
0.214305
0.211997
0.209406
0.206775
0.20431
0.202026
0.19993
0.198024
0.196306
0.194766
0.19339
0.192157
0.191039
0.189997
0.188982
0.187932
0.186766
0.185379
0.183642
0.181399
0.178375
0.174274
0.168982
0.162986
0.158818
0.220314
0.21872
0.216935
0.214912
0.212599
0.20995
0.206968
0.203934
0.201085
0.198431
0.195977
0.193721
0.191654
0.189765
0.188032
0.186431
0.184929
0.183486
0.182053
0.18057
0.178966
0.177153
0.175028
0.172477
0.1693
0.165276
0.16051
0.155952
0.152711
0.219426
0.217619
0.215586
0.213275
0.210624
0.207586
0.204167
0.200694
0.197435
0.1944
0.191588
0.188992
0.1866
0.184393
0.18235
0.180439
0.178627
0.176875
0.175136
0.173357
0.171478
0.169429
0.167134
0.164506
0.1614
0.157651
0.153497
0.150045
0.147573
0.218373
0.216318
0.213996
0.211349
0.208311
0.204833
0.20093
0.196982
0.193295
0.189875
0.186713
0.183799
0.181113
0.178632
0.176328
0.174172
0.172126
0.170152
0.168208
0.166246
0.164215
0.162062
0.159724
0.157133
0.154182
0.150771
0.147215
0.144572
0.142715
0.217079
0.21473
0.21207
0.209033
0.205551
0.201576
0.197141
0.19269
0.188566
0.184767
0.181277
0.178076
0.175137
0.172432
0.169928
0.167591
0.165385
0.16327
0.161206
0.15915
0.157059
0.154889
0.152588
0.150099
0.147349
0.1443
0.141301
0.139241
0.137843
0.215417
0.212718
0.209658
0.206166
0.202174
0.197646
0.192637
0.187666
0.183112
0.178958
0.175176
0.171734
0.168599
0.165731
0.163092
0.160645
0.158351
0.15617
0.154062
0.151988
0.149911
0.147791
0.145588
0.143252
0.140734
0.138046
0.135539
0.133896
0.132818
0.213153
0.210034
0.206501
0.202481
0.197916
0.192785
0.18718
0.181699
0.176748
0.172289
0.168277
0.164665
0.161404
0.158448
0.155752
0.153271
0.150964
0.148795
0.146716
0.144694
0.142694
0.140683
0.138625
0.136478
0.134212
0.131873
0.12979
0.128451
0.127593
0.209914
0.206287
0.202201
0.197583
0.192395
0.186646
0.180467
0.174533
0.169262
0.164587
0.160438
0.15675
0.153459
0.150508
0.147842
0.145411
0.143167
0.141105
0.13912
0.137213
0.135349
0.133496
0.131622
0.129692
0.127693
0.125696
0.123991
0.122888
0.122176
0.205217
0.201039
0.196388
0.191203
0.185471
0.179228
0.172635
0.166421
0.160997
0.156263
0.152124
0.148494
0.145295
0.14246
0.139926
0.137641
0.135555
0.133628
0.131814
0.130081
0.128397
0.126734
0.125066
0.123365
0.121629
0.119935
0.11853
0.117613
0.116999
0.199029
0.194309
0.189212
0.183664
0.177642
0.171175
0.164435
0.158176
0.152796
0.148168
0.144178
0.140723
0.137715
0.135077
0.132745
0.13066
0.128773
0.127038
0.125417
0.123875
0.122381
0.120907
0.119436
0.117953
0.116463
0.115027
0.113848
0.113066
0.112522
0.19067
0.185692
0.180639
0.175201
0.169271
0.162886
0.156246
0.150137
0.144951
0.14055
0.136804
0.1336
0.130843
0.128451
0.126355
0.124498
0.122828
0.121303
0.119882
0.118533
0.117223
0.115925
0.114624
0.113321
0.11204
0.110829
0.109843
0.10918
0.108694
0.178816
0.174971
0.171032
0.166272
0.160778
0.154704
0.148339
0.142515
0.137626
0.133529
0.130085
0.127174
0.124696
0.122568
0.12072
0.119095
0.117644
0.116323
0.115096
0.113927
0.112786
0.111639
0.110477
0.109345
0.108314
0.10739
0.106598
0.105977
0.10547
0.198137
0.19843
0.199197
0.200774
0.202964
0.205433
0.208016
0.210649
0.213345
0.21615
0.219113
0.222274
0.225669
0.229336
0.233314
0.237645
0.242362
0.247495
0.25305
0.259012
0.265321
0.271823
0.278201
0.283231
0.285385
0.28341
0.275699
0.259828
0.227436
0.195948
0.196367
0.197247
0.198807
0.200909
0.203303
0.205851
0.208494
0.211239
0.214126
0.217194
0.220481
0.224028
0.227876
0.23207
0.236656
0.241679
0.247175
0.253169
0.259666
0.266652
0.274046
0.281606
0.288238
0.292453
0.293492
0.290762
0.285635
0.289246
0.193705
0.194209
0.195173
0.196722
0.198751
0.201068
0.203561
0.206188
0.208957
0.211899
0.215045
0.218432
0.222103
0.226103
0.230485
0.235303
0.240617
0.24648
0.252949
0.260082
0.267957
0.276691
0.286338
0.296404
0.305813
0.314658
0.323814
0.330752
0.346635
0.191384
0.191867
0.192803
0.194335
0.196366
0.198686
0.201173
0.203796
0.206578
0.209552
0.212751
0.216211
0.219979
0.224104
0.228645
0.233669
0.239249
0.245464
0.252409
0.26021
0.269055
0.279339
0.291425
0.305584
0.32092
0.337115
0.356832
0.374546
0.396732
0.188988
0.189435
0.190318
0.191816
0.193844
0.196175
0.198667
0.201291
0.204081
0.207073
0.210306
0.213819
0.217658
0.22188
0.22655
0.231743
0.237548
0.244068
0.251434
0.259843
0.269552
0.281283
0.295446
0.313042
0.333125
0.354007
0.380239
0.407802
0.437881
0.186516
0.186945
0.187793
0.189249
0.191241
0.193549
0.196024
0.198638
0.201422
0.204417
0.207663
0.211202
0.215084
0.219366
0.224121
0.229432
0.235399
0.242145
0.24982
0.258698
0.269
0.28184
0.297177
0.316665
0.339815
0.3657
0.394447
0.425059
0.456787
0.183966
0.184383
0.185206
0.186614
0.18855
0.190808
0.193244
0.195826
0.198584
0.201559
0.204792
0.208326
0.212211
0.216509
0.221295
0.226657
0.232702
0.239565
0.247394
0.256542
0.267048
0.280137
0.297068
0.317909
0.342031
0.368697
0.39661
0.425245
0.454662
0.181332
0.181735
0.182529
0.183884
0.185752
0.187946
0.190325
0.192854
0.195563
0.198492
0.201681
0.205173
0.20902
0.213281
0.218034
0.22337
0.229393
0.236246
0.24404
0.253087
0.263926
0.277234
0.294399
0.315221
0.338453
0.363297
0.388633
0.41396
0.439122
0.17861
0.178999
0.17976
0.181056
0.182846
0.18496
0.187264
0.189721
0.192356
0.19521
0.198322
0.201735
0.205496
0.209662
0.214316
0.21954
0.225431
0.232099
0.239788
0.248754
0.259433
0.272397
0.288705
0.30817
0.329274
0.351195
0.373099
0.394675
0.415096
0.175801
0.176176
0.176903
0.178131
0.179831
0.18185
0.184059
0.186421
0.18896
0.19171
0.194711
0.198003
0.201633
0.205641
0.210125
0.215141
0.220816
0.227271
0.234665
0.243242
0.253318
0.265381
0.28019
0.297446
0.315652
0.334002
0.351874
0.369337
0.385316
0.172902
0.173261
0.173949
0.175105
0.176706
0.178615
0.180713
0.18296
0.185376
0.187994
0.190849
0.19398
0.197437
0.201216
0.205474
0.210233
0.215596
0.221679
0.228588
0.236508
0.245683
0.256479
0.269388
0.283963
0.298842
0.313305
0.326914
0.340049
0.351788
0.169915
0.170258
0.170906
0.171984
0.173476
0.175262
0.17723
0.179341
0.18161
0.184067
0.186744
0.189672
0.192893
0.196445
0.200398
0.204814
0.209763
0.215333
0.221601
0.228691
0.236769
0.246062
0.256822
0.268499
0.279947
0.290596
0.300182
0.309233
0.317096
0.166843
0.167175
0.167785
0.168782
0.170153
0.171798
0.173615
0.175567
0.177665
0.179935
0.182402
0.185096
0.188048
0.1913
0.194896
0.19889
0.203333
0.208287
0.213797
0.219931
0.226769
0.234415
0.242917
0.251702
0.259893
0.267099
0.273223
0.278816
0.283472
0.163689
0.164004
0.164569
0.165479
0.166725
0.168222
0.169877
0.171653
0.173559
0.175617
0.17785
0.180277
0.182925
0.185823
0.189007
0.192515
0.196381
0.200639
0.205303
0.210389
0.215904
0.221852
0.228135
0.234224
0.239532
0.243849
0.247213
0.250146
0.25245
0.160457
0.160759
0.161278
0.162098
0.163212
0.16455
0.166028
0.167612
0.169308
0.171136
0.173109
0.175242
0.177551
0.180058
0.182785
0.185757
0.188989
0.192492
0.19625
0.200236
0.204403
0.208685
0.212892
0.216589
0.219476
0.221499
0.22279
0.223834
0.224626
0.157156
0.157445
0.157919
0.158646
0.159624
0.160793
0.162081
0.163457
0.16493
0.16651
0.168204
0.170017
0.17196
0.174043
0.176278
0.178673
0.181228
0.183932
0.186744
0.189609
0.192441
0.195133
0.197448
0.199083
0.200001
0.200281
0.2001
0.199909
0.199886
0.153789
0.154065
0.154489
0.155123
0.155963
0.156961
0.158048
0.159211
0.16045
0.161769
0.163166
0.164642
0.166198
0.167834
0.169549
0.171341
0.17319
0.175069
0.17692
0.178666
0.180202
0.1814
0.182013
0.181897
0.181251
0.180254
0.179076
0.178135
0.177789
0.15037
0.15063
0.151008
0.151547
0.15225
0.153062
0.153953
0.154895
0.155892
0.15694
0.15803
0.159157
0.160312
0.161487
0.162668
0.163839
0.164969
0.166014
0.166904
0.167549
0.167838
0.16764
0.166725
0.16512
0.163234
0.161307
0.15945
0.158053
0.157654
0.146906
0.147155
0.147491
0.147933
0.14849
0.149128
0.14981
0.150528
0.151278
0.152049
0.152828
0.153599
0.154347
0.155053
0.155694
0.156239
0.156647
0.15686
0.156798
0.156366
0.155452
0.153937
0.151626
0.148721
0.145815
0.14318
0.14083
0.13913
0.138796
0.143405
0.143639
0.143929
0.144283
0.144697
0.145157
0.145637
0.146134
0.146638
0.147132
0.147599
0.148015
0.148357
0.148597
0.1487
0.148626
0.14832
0.147715
0.146721
0.145239
0.143162
0.140385
0.136759
0.132668
0.128878
0.125671
0.122933
0.121002
0.120774
0.13988
0.140101
0.140345
0.140609
0.140886
0.141172
0.141456
0.141735
0.141997
0.142221
0.142382
0.142451
0.142395
0.142179
0.14176
0.141084
0.140088
0.138692
0.136798
0.134301
0.131098
0.127095
0.122191
0.116952
0.112328
0.108605
0.105515
0.103379
0.103279
0.136342
0.136551
0.136751
0.136925
0.13707
0.13719
0.137284
0.137353
0.137382
0.137344
0.137211
0.136945
0.136508
0.135856
0.134937
0.133688
0.132034
0.129885
0.127134
0.123666
0.119372
0.114162
0.10797
0.101543
0.096042
0.0917736
0.0883086
0.085965
0.0860367
0.132802
0.133004
0.133164
0.133253
0.133269
0.133227
0.133139
0.133007
0.132814
0.132529
0.132116
0.131535
0.130738
0.129675
0.128287
0.126502
0.124235
0.121384
0.11783
0.113446
0.108106
0.101704
0.0941836
0.0864468
0.079908
0.0749517
0.0709945
0.0683988
0.068717
0.12927
0.129463
0.129582
0.129588
0.129483
0.129292
0.129035
0.128718
0.128321
0.127807
0.127135
0.12626
0.12513
0.123689
0.12187
0.119595
0.116768
0.113278
0.108994
0.103768
0.0974513
0.0898973
0.0810177
0.0718167
0.0639845
0.0580523
0.0533297
0.0503354
0.0509504
0.125759
0.125946
0.126031
0.12596
0.125738
0.125403
0.124989
0.124504
0.123922
0.123201
0.122295
0.121154
0.119723
0.117942
0.115738
0.113027
0.109706
0.105656
0.100731
0.0947685
0.0875835
0.0789705
0.068761
0.057968
0.0485255
0.0411585
0.0351314
0.0313954
0.0323375
0.122276
0.12245
0.122493
0.122344
0.122015
0.121555
0.12101
0.120385
0.119645
0.118744
0.11763
0.116254
0.114559
0.11248
0.109942
0.106857
0.103116
0.0985931
0.0931351
0.0865647
0.0786683
0.0691762
0.0578111
0.0454908
0.034253
0.0249477
0.0167292
0.0115179
0.0128325
0.118853
0.11907
0.119127
0.11892
0.118456
0.117828
0.117127
0.116365
0.115488
0.114434
0.113146
0.111572
0.109654
0.107327
0.104514
0.101124
0.0970461
0.0921499
0.0862816
0.0792602
0.0708511
0.0607093
0.0484122
0.0347432
0.0217458
0.0103647
-0.000788043
-0.00917141
-0.00909874
0.1483
0.132581
0.110825
0.0833016
0.0526992
0.0233022
-0.00256388
-0.0265764
-0.0482452
-0.0723863
-0.0972885
-0.127192
-0.158387
-0.187835
-0.2117
-0.227494
-0.235235
-0.237004
-0.236326
0.155899
0.144213
0.123496
0.0951482
0.0610332
0.0252757
-0.009355
-0.0448868
-0.0776772
-0.114682
-0.152716
-0.191765
-0.229555
-0.262886
-0.288578
-0.305432
-0.314596
-0.318516
-0.319857
0.151551
0.141236
0.122053
0.0937505
0.057334
0.0168978
-0.0246521
-0.0700983
-0.116089
-0.163018
-0.210326
-0.256945
-0.300221
-0.336946
-0.364669
-0.383027
-0.393673
-0.399112
-0.401765
0.14173
0.132129
0.114923
0.0873482
0.0492375
0.00364535
-0.0462156
-0.0989384
-0.153623
-0.209408
-0.265297
-0.319417
-0.368286
-0.408427
-0.437903
-0.457174
-0.468613
-0.474995
-0.478575
0.130031
0.12116
0.104807
0.0772011
0.0375597
-0.011339
-0.0664931
-0.12576
-0.188106
-0.252331
-0.316197
-0.376586
-0.429388
-0.471322
-0.501368
-0.520947
-0.533007
-0.540292
-0.544672
0.113666
0.105074
0.0898163
0.0630145
0.0228933
-0.0279094
-0.0866601
-0.151591
-0.220805
-0.2921
-0.362157
-0.426862
-0.481934
-0.524748
-0.555291
-0.575673
-0.589089
-0.598037
-0.603971
0.0929506
0.0834949
0.0687182
0.0428689
0.00305237
-0.0487158
-0.109938
-0.178782
-0.252651
-0.328291
-0.401416
-0.467209
-0.521575
-0.562798
-0.591841
-0.61134
-0.624595
-0.63374
-0.639893
0.0692806
0.0580213
0.0424939
0.0166909
-0.0228821
-0.0749268
-0.137218
-0.207719
-0.283396
-0.360238
-0.433218
-0.497248
-0.548847
-0.587352
-0.614504
-0.633129
-0.646316
-0.655694
-0.662153
0.0436147
0.03016
0.0129264
-0.013895
-0.0536992
-0.105578
-0.167604
-0.237699
-0.312545
-0.387575
-0.457326
-0.516922
-0.563811
-0.598321
-0.622691
-0.639712
-0.652169
-0.661253
-0.66756
0.0167022
0.00111348
-0.0181966
-0.046636
-0.0870534
-0.138535
-0.199382
-0.267589
-0.339679
-0.410746
-0.475282
-0.529043
-0.570536
-0.600902
-0.622629
-0.638308
-0.650355
-0.65963
-0.666401
-0.0105779
-0.0279943
-0.0493255
-0.0795007
-0.120704
-0.171729
-0.2309
-0.296164
-0.363815
-0.428755
-0.485841
-0.531855
-0.566428
-0.591314
-0.609034
-0.621892
-0.631881
-0.639651
-0.645288
-0.0371538
-0.0559293
-0.0789129
-0.110496
-0.152279
-0.202621
-0.259667
-0.321163
-0.383196
-0.440813
-0.489711
-0.527912
-0.555991
-0.575995
-0.59023
-0.600599
-0.608633
-0.614882
-0.619339
-0.0620321
-0.0816197
-0.1057
-0.138052
-0.179848
-0.229028
-0.283491
-0.340757
-0.396845
-0.447245
-0.488682
-0.520285
-0.543238
-0.559605
-0.571381
-0.580109
-0.586977
-0.592522
-0.596583
-0.0845246
-0.104412
-0.129017
-0.161441
-0.202581
-0.250015
-0.301361
-0.353865
-0.403589
-0.446694
-0.481031
-0.506665
-0.52512
-0.538305
-0.547867
-0.555018
-0.560649
-0.565263
-0.568614
-0.104232
-0.123979
-0.148578
-0.180421
-0.220235
-0.265306
-0.313002
-0.360377
-0.403753
-0.440161
-0.468509
-0.489512
-0.504765
-0.515894
-0.524175
-0.530518
-0.535579
-0.539797
-0.542878
-0.121114
-0.140385
-0.164542
-0.195279
-0.233227
-0.275477
-0.319246
-0.36155
-0.399149
-0.429951
-0.453678
-0.471391
-0.484578
-0.494562
-0.502309
-0.508494
-0.51362
-0.518038
-0.521371
-0.135473
-0.154059
-0.177479
-0.206775
-0.242509
-0.281594
-0.321152
-0.35829
-0.390381
-0.416206
-0.436104
-0.451251
-0.462914
-0.472093
-0.479476
-0.485541
-0.490674
-0.495114
-0.49847
-0.147734
-0.16553
-0.188044
-0.215722
-0.249059
-0.284828
-0.320148
-0.352386
-0.379621
-0.401387
-0.418392
-0.431757
-0.442474
-0.451245
-0.458524
-0.464625
-0.469839
-0.474318
-0.477696
-0.158407
-0.175401
-0.196967
-0.223011
-0.253975
-0.28655
-0.317957
-0.345914
-0.369159
-0.387768
-0.402614
-0.414683
-0.424713
-0.433172
-0.44034
-0.446413
-0.451626
-0.456074
-0.459424
-0.16802
-0.184289
-0.205004
-0.229533
-0.258204
-0.287625
-0.315215
-0.33918
-0.358914
-0.374882
-0.387968
-0.398946
-0.408309
-0.41633
-0.423167
-0.428941
-0.433848
-0.437965
-0.44102
-0.176948
-0.192668
-0.212773
-0.236026
-0.262565
-0.288955
-0.312958
-0.333371
-0.350161
-0.363999
-0.375662
-0.385696
-0.394392
-0.401884
-0.408248
-0.413566
-0.418005
-0.421649
-0.424314
-0.185468
-0.200949
-0.220843
-0.243133