/*--------------------------------*- C++ -*----------------------------------*\
| =========                 |                                                 |
| \\      /  F ield         | OpenFOAM: The Open Source CFD Toolbox           |
|  \\    /   O peration     | Version:  2312                                  |
|   \\  /    A nd           | Website:  www.openfoam.com                      |
|    \\/     M anipulation  |                                                 |
\*---------------------------------------------------------------------------*/
FoamFile
{
    version     2.0;
    format      ascii;
    arch        "LSB;label=32;scalar=64";
    class       volVectorField;
    location    "53.411447616493398";
    object      U;
}
// * * * * * * * * * * * * * * * * * * * * * * * * * * * * * * * * * * * * * //

dimensions      [0 1 -1 0 0 0 0];

internalField   nonuniform List<vector> 
21039
(
(0.913777 0.0474672 0)
(1.02606 0.066517 0)
(1.00449 0.029502 0)
(1.00177 0.0189294 0)
(1.0012 0.0139277 0)
(1.00079 0.0105544 0)
(1.00055 0.00823621 0)
(1.0004 0.00660208 0)
(1.0003 0.00540093 0)
(1.00023 0.00448891 0)
(1.00018 0.00378056 0)
(1.00014 0.00322087 0)
(1.00011 0.00277284 0)
(1.00009 0.00241087 0)
(1.00007 0.00211684 0)
(1.00006 0.0018776 0)
(1.00005 0.00168341 0)
(1.00004 0.00152692 0)
(1.00003 0.00140242 0)
(1.00002 0.00130525 0)
(1.00001 0.00123147 0)
(1.00001 0.00117899 0)
(1 0.00114936 0)
(1 0.00112288 0)
(1 0.00110346 0)
(1.00001 0.00108823 0)
(1.00001 0.00107307 0)
(1.00001 0.00104809 0)
(1.00001 0.000992035 0)
(0.794578 0.0730944 0)
(1.07447 0.121723 0)
(1.03986 0.070871 0)
(1.01809 0.0497752 0)
(1.01127 0.0383718 0)
(1.00762 0.0296058 0)
(1.00536 0.0233266 0)
(1.00393 0.0187691 0)
(1.00298 0.0153326 0)
(1.00231 0.0126761 0)
(1.00182 0.010583 0)
(1.00146 0.00890653 0)
(1.00118 0.00754602 0)
(1.00096 0.00643099 0)
(1.00079 0.00551113 0)
(1.00064 0.00474983 0)
(1.00052 0.00412002 0)
(1.00042 0.00360135 0)
(1.00033 0.00317832 0)
(1.00026 0.00283875 0)
(1.00019 0.00257249 0)
(1.00014 0.00237298 0)
(1.00009 0.00224403 0)
(1.00006 0.00215227 0)
(1.00005 0.00210103 0)
(1.00005 0.00207323 0)
(1.00006 0.00205533 0)
(1.00007 0.00202848 0)
(1.00008 0.00196393 0)
(0.667312 0.0572968 0)
(1.08296 0.124842 0)
(1.0843 0.0903421 0)
(1.04624 0.0677612 0)
(1.02901 0.0542616 0)
(1.02019 0.0433231 0)
(1.01463 0.0350423 0)
(1.01093 0.0286862 0)
(1.00838 0.0236827 0)
(1.00656 0.0197001 0)
(1.00522 0.016493 0)
(1.00422 0.0138788 0)
(1.00344 0.0117263 0)
(1.00283 0.00994004 0)
(1.00234 0.00845002 0)
(1.00194 0.00720418 0)
(1.0016 0.00616349 0)
(1.00131 0.00529844 0)
(1.00105 0.00458646 0)
(1.00083 0.00401008 0)
(1.00064 0.00355493 0)
(1.00047 0.00321047 0)
(1.00032 0.00298217 0)
(1.00021 0.00283075 0)
(1.00016 0.00275312 0)
(1.00013 0.00271586 0)
(1.00013 0.00269618 0)
(1.00015 0.00266985 0)
(1.00016 0.00260509 0)
(0.540973 0.0352751 0)
(1.05065 0.110862 0)
(1.1158 0.0970739 0)
(1.07602 0.0763732 0)
(1.04914 0.0622319 0)
(1.03517 0.0511479 0)
(1.02632 0.0425007 0)
(1.02015 0.0354998 0)
(1.01572 0.0297431 0)
(1.01248 0.0250052 0)
(1.01006 0.0210818 0)
(1.00821 0.0178088 0)
(1.00676 0.0150619 0)
(1.00561 0.0127459 0)
(1.00467 0.0107876 0)
(1.00389 0.00913086 0)
(1.00323 0.00773265 0)
(1.00267 0.00655985 0)
(1.00217 0.00558691 0)
(1.00173 0.00479404 0)
(1.00134 0.00416524 0)
(1.00098 0.00368755 0)
(1.00067 0.00336786 0)
(1.00044 0.00316395 0)
(1.0003 0.00306389 0)
(1.00022 0.00301922 0)
(1.0002 0.00299912 0)
(1.00021 0.00297475 0)
(1.00022 0.00290941 0)
(0.444123 0.018675 0)
(0.997587 0.0919018 0)
(1.12884 0.0957055 0)
(1.10128 0.0795565 0)
(1.06808 0.0655314 0)
(1.04961 0.0548757 0)
(1.03811 0.0465123 0)
(1.02989 0.0394982 0)
(1.02381 0.0335453 0)
(1.01922 0.0285043 0)
(1.01571 0.0242165 0)
(1.01297 0.0205541 0)
(1.01079 0.0174171 0)
(1.00903 0.0147252 0)
(1.00758 0.012414 0)
(1.00636 0.0104329 0)
(1.00532 0.00874181 0)
(1.00442 0.00730948 0)
(1.00361 0.00611145 0)
(1.0029 0.00512876 0)
(1.00224 0.00434628 0)
(1.00165 0.00375078 0)
(1.00111 0.00335106 0)
(1.00071 0.003104 0)
(1.00045 0.00298818 0)
(1.00031 0.00294177 0)
(1.00025 0.00292693 0)
(1.00025 0.00291016 0)
(1.00024 0.00284716 0)
(0.378564 0.00810974 0)
(0.939527 0.0718649 0)
(1.12676 0.0883289 0)
(1.12061 0.0786823 0)
(1.0853 0.0659477 0)
(1.06286 0.0559756 0)
(1.0491 0.0481198 0)
(1.03929 0.0413792 0)
(1.03187 0.0355213 0)
(1.02615 0.0304419 0)
(1.02168 0.0260208 0)
(1.01812 0.0221641 0)
(1.01524 0.0187971 0)
(1.01288 0.0158576 0)
(1.0109 0.0132951 0)
(1.00922 0.0110687 0)
(1.00776 0.00914578 0)
(1.00648 0.00750047 0)
(1.00533 0.0061126 0)
(1.00429 0.00496666 0)
(1.00333 0.00405061 0)
(1.00245 0.00335298 0)
(1.00164 0.00288559 0)
(1.00102 0.0026062 0)
(1.00062 0.00248358 0)
(1.00038 0.00244344 0)
(1.00028 0.00244165 0)
(1.00025 0.00244015 0)
(1.00022 0.00238524 0)
(0.333342 0.00234037 0)
(0.883242 0.0538485 0)
(1.11379 0.0778497 0)
(1.13362 0.074815 0)
(1.10065 0.064271 0)
(1.0751 0.0551971 0)
(1.05926 0.0479734 0)
(1.04814 0.0416735 0)
(1.03966 0.0360764 0)
(1.03301 0.0311108 0)
(1.02772 0.0266964 0)
(1.02344 0.022771 0)
(1.01993 0.019283 0)
(1.017 0.0161883 0)
(1.01451 0.0134507 0)
(1.01236 0.0110406 0)
(1.01048 0.00893443 0)
(1.0088 0.00711393 0)
(1.00728 0.00556508 0)
(1.00587 0.00427769 0)
(1.00457 0.00324457 0)
(1.00335 0.00245792 0)
(1.00223 0.00193354 0)
(1.00136 0.00163158 0)
(1.00078 0.00151101 0)
(1.00042 0.00148483 0)
(1.00025 0.00150345 0)
(1.00018 0.00152636 0)
(1.00012 0.00148925 0)
(0.301049 -0.000187775 0)
(0.83155 0.0395705 0)
(1.09361 0.0669106 0)
(1.14031 0.0693191 0)
(1.11363 0.0612791 0)
(1.0863 0.0531766 0)
(1.06865 0.0465846 0)
(1.05644 0.0407826 0)
(1.0471 0.0355271 0)
(1.0397 0.0307601 0)
(1.03373 0.0264355 0)
(1.02883 0.0225188 0)
(1.02476 0.0189794 0)
(1.02131 0.0157901 0)
(1.01834 0.0129286 0)
(1.01574 0.0103768 0)
(1.01343 0.00812092 0)
(1.01134 0.00615088 0)
(1.00943 0.00446003 0)
(1.00764 0.00304487 0)
(1.00596 0.00190488 0)
(1.00436 0.00103638 0)
(1.00288 0.000458502 0)
(1.00171 0.000139049 0)
(1.00091 2.71124e-05 0)
(1.00042 1.9302e-05 0)
(1.00016 5.94122e-05 0)
(1.00003 0.000114927 0)
(0.99991 0.000131104 0)
(0.27809 -0.000983908 0)
(0.785951 0.0290685 0)
(1.06949 0.0568785 0)
(1.14152 0.0632456 0)
(1.12396 0.0576548 0)
(1.09639 0.0505042 0)
(1.07727 0.0444442 0)
(1.06414 0.0390876 0)
(1.05415 0.0341697 0)
(1.04616 0.0296235 0)
(1.03963 0.0254226 0)
(1.03422 0.0215524 0)
(1.02966 0.0179985 0)
(1.02574 0.0147482 0)
(1.02233 0.0117915 0)
(1.01931 0.00912138 0)
(1.01659 0.00673324 0)
(1.01409 0.00462558 0)
(1.01177 0.00279968 0)
(1.00957 0.00125921 0)
(1.00748 1.00964e-05 0)
(1.00547 -0.000944874 0)
(1.00358 -0.001577 0)
(1.00206 -0.00191566 0)
(1.00101 -0.00202105 0)
(1.00035 -0.00200285 0)
(0.999973 -0.00192412 0)
(0.999761 -0.0018402 0)
(0.99957 -0.00183298 0)
(0.261675 -0.00103098 0)
(0.746819 0.0216352 0)
(1.04397 0.0481747 0)
(1.13859 0.0571658 0)
(1.1318 0.0537947 0)
(1.10541 0.0475592 0)
(1.08522 0.0419204 0)
(1.0713 0.0369097 0)
(1.0608 0.032272 0)
(1.05236 0.0279207 0)
(1.0454 0.0238366 0)
(1.03957 0.0200162 0)
(1.03459 0.0164561 0)
(1.03028 0.0131543 0)
(1.02647 0.0101107 0)
(1.02305 0.00732743 0)
(1.01993 0.00480851 0)
(1.01703 0.00256066 0)
(1.01429 0.000592548 0)
(1.01168 -0.00108593 0)
(1.00914 -0.00246037 0)
(1.00669 -0.00351753 0)
(1.00434 -0.00421959 0)
(1.00243 -0.0045908 0)
(1.00108 -0.00469642 0)
(1.00021 -0.00465526 0)
(0.999674 -0.00453734 0)
(0.99934 -0.0044077 0)
(0.999042 -0.0043744 0)
(0.249482 -0.000814899 0)
(0.713645 0.0164821 0)
(1.01866 0.0408234 0)
(1.13274 0.0513688 0)
(1.13748 0.0498933 0)
(1.11349 0.0445269 0)
(1.09267 0.0392285 0)
(1.07806 0.0344666 0)
(1.06713 0.0300362 0)
(1.05834 0.025832 0)
(1.05105 0.0218339 0)
(1.04488 0.0180434 0)
(1.03957 0.0144637 0)
(1.03491 0.0111002 0)
(1.03075 0.00795998 0)
(1.02697 0.00505228 0)
(1.02347 0.00238866 0)
(1.02018 -1.80695e-05 0)
(1.01704 -0.00215292 0)
(1.01398 -0.00399685 0)
(1.01099 -0.00552627 0)
(1.00805 -0.00671821 0)
(1.0052 -0.00752426 0)
(1.00284 -0.00795793 0)
(1.00114 -0.00808509 0)
(0.999995 -0.00803532 0)
(0.999258 -0.0078866 0)
(0.998751 -0.00771324 0)
(0.998296 -0.00764512 0)
(0.239988 -0.000558301 0)
(0.685583 0.0129233 0)
(0.994442 0.0347018 0)
(1.12495 0.0460028 0)
(1.14134 0.0460628 0)
(1.12075 0.0415018 0)
(1.09974 0.0364892 0)
(1.08455 0.0318961 0)
(1.07325 0.0276023 0)
(1.06419 0.0234922 0)
(1.05664 0.0195396 0)
(1.05021 0.015747 0)
(1.04462 0.0121212 0)
(1.03967 0.00867181 0)
(1.03521 0.0054111 0)
(1.0311 0.00235371 0)
(1.02725 -0.000484525 0)
(1.02359 -0.00308538 0)
(1.02004 -0.00542567 0)
(1.01655 -0.00747773 0)
(1.01308 -0.00920983 0)
(1.00961 -0.0105894 0)
(1.00622 -0.011556 0)
(1.00335 -0.0121064 0)
(1.00124 -0.0122993 0)
(0.999761 -0.0122737 0)
(0.99875 -0.012116 0)
(0.998004 -0.0119123 0)
(0.997331 -0.0118143 0)
(0.232316 -0.000351035 0)
(0.661792 0.0104207 0)
(0.971787 0.0296291 0)
(1.11595 0.0411264 0)
(1.14368 0.0423761 0)
(1.12725 0.0385434 0)
(1.10652 0.0337793 0)
(1.09088 0.0292917 0)
(1.07925 0.0250714 0)
(1.06997 0.0210035 0)
(1.06222 0.0170538 0)
(1.05558 0.013222 0)
(1.04978 0.00951616 0)
(1.04459 0.00594806 0)
(1.03987 0.00253285 0)
(1.03548 -0.000712646 0)
(1.03132 -0.003769 0)
(1.02731 -0.00661156 0)
(1.02337 -0.00921016 0)
(1.01944 -0.0115301 0)
(1.01548 -0.0135321 0)
(1.01147 -0.0151751 0)
(1.00749 -0.0163867 0)
(1.00407 -0.017141 0)
(1.00148 -0.0174773 0)
(0.999597 -0.0175388 0)
(0.998229 -0.0174193 0)
(0.997156 -0.0172179 0)
(0.996181 -0.0171083 0)
(0.225953 -0.000211225 0)
(0.641536 0.00859918 0)
(0.950893 0.0254184 0)
(1.10631 0.036739 0)
(1.14481 0.038876 0)
(1.13309 0.035691 0)
(1.11308 0.0311509 0)
(1.09712 0.0267225 0)
(1.08521 0.0225229 0)
(1.07576 0.0184503 0)
(1.06787 0.0144619 0)
(1.06108 0.0105529 0)
(1.05512 0.00672967 0)
(1.04975 0.00300427 0)
(1.04482 -0.00060839 0)
(1.0402 -0.00409044 0)
(1.03577 -0.0074186 0)
(1.03145 -0.0105631 0)
(1.02714 -0.0134885 0)
(1.02279 -0.0161538 0)
(1.01834 -0.0185136 0)
(1.01377 -0.02052 0)
(1.00917 -0.0220918 0)
(1.00516 -0.0231771 0)
(1.00205 -0.0237801 0)
(0.99968 -0.0240384 0)
(0.997851 -0.0240473 0)
(0.996333 -0.0239174 0)
(0.99494 -0.0238416 0)
(0.220571 -0.000128778 0)
(0.624198 0.00722734 0)
(0.931795 0.0219326 0)
(1.09639 0.0328394 0)
(1.14493 0.0355997 0)
(1.13829 0.0329714 0)
(1.11941 0.0286345 0)
(1.10329 0.0242344 0)
(1.09114 0.0200152 0)
(1.08156 0.0158985 0)
(1.07357 0.0118348 0)
(1.06669 0.00781259 0)
(1.06062 0.00383521 0)
(1.05513 -8.80281e-05 0)
(1.05005 -0.00394408 0)
(1.04525 -0.00771444 0)
(1.0406 -0.0113733 0)
(1.036 -0.0148876 0)
(1.03136 -0.0182175 0)
(1.02661 -0.0213164 0)
(1.02168 -0.0241332 0)
(1.01657 -0.0266161 0)
(1.01138 -0.0286823 0)
(1.00681 -0.0302638 0)
(1.00319 -0.0313217 0)
(1.00032 -0.0319735 0)
(0.997952 -0.0322949 0)
(0.995866 -0.032389 0)
(0.993914 -0.0324447 0)
(0.216329 -7.40241e-05 0)
(0.61036 0.0062453 0)
(0.915741 0.01924 0)
(1.08731 0.0296394 0)
(1.14445 0.0327995 0)
(1.14266 0.0306191 0)
(1.12515 0.0264603 0)
(1.10903 0.0220733 0)
(1.09672 0.0178147 0)
(1.08705 0.0136337 0)
(1.07902 0.00947514 0)
(1.07211 0.0053202 0)
(1.066 0.00116664 0)
(1.06046 -0.00298067 0)
(1.05532 -0.00711199 0)
(1.05042 -0.0112103 0)
(1.04563 -0.0152502 0)
(1.04084 -0.0191979 0)
(1.03595 -0.0230107 0)
(1.03086 -0.0266358 0)
(1.02553 -0.0300137 0)
(1.01993 -0.0330845 0)
(1.01422 -0.0357592 0)
(1.0092 -0.03796 0)
(1.00518 -0.0396282 0)
(1.00191 -0.0408831 0)
(0.999042 -0.0417701 0)
(0.996299 -0.0423344 0)
(0.993579 -0.042698 0)
(0.21319 -4.2073e-05 0)
(0.600146 0.00557777 0)
(0.903412 0.0173103 0)
(1.07986 0.0272412 0)
(1.14369 0.0306476 0)
(1.14603 0.0288047 0)
(1.12986 0.0247885 0)
(1.11386 0.0204087 0)
(1.10146 0.0161113 0)
(1.09175 0.0118694 0)
(1.08373 0.00762217 0)
(1.07684 0.00334263 0)
(1.07075 -0.000977448 0)
(1.06523 -0.005339 0)
(1.06009 -0.00973685 0)
(1.05517 -0.014158 0)
(1.05033 -0.018581 0)
(1.04545 -0.0229754 0)
(1.04041 -0.0272991 0)
(1.03511 -0.031496 0)
(1.02948 -0.035498 0)
(1.02351 -0.0392313 0)
(1.01739 -0.0425791 0)
(1.01204 -0.0454232 0)
(1.00783 -0.0477036 0)
(1.00444 -0.0496226 0)
(1.00141 -0.0513078 0)
(0.998357 -0.0527907 0)
(0.995152 -0.0539118 0)
(0.210748 3.83137e-06 0)
(0.592283 0.00512388 0)
(0.89364 0.0159106 0)
(1.07363 0.0254296 0)
(1.14277 0.0289915 0)
(1.14864 0.027413 0)
(1.13374 0.0235233 0)
(1.11791 0.0191609 0)
(1.10546 0.01484 0)
(1.09573 0.010553 0)
(1.08774 0.00623434 0)
(1.08091 0.00184993 0)
(1.07487 -0.00261421 0)
(1.06941 -0.00716481 0)
(1.06432 -0.0118026 0)
(1.05944 -0.0165207 0)
(1.05462 -0.0213051 0)
(1.04973 -0.0261318 0)
(1.04463 -0.0309641 0)
(1.03922 -0.0357487 0)
(1.0334 -0.0404135 0)
(1.02716 -0.044874 0)
(1.0207 -0.04897 0)
(1.01504 -0.052462 0)
(1.01067 -0.0552046 0)
(1.00734 -0.0574705 0)
(1.00466 -0.0596327 0)
(1.00231 -0.0620709 0)
(0.999685 -0.064231 0)
(0.209174 -5.38014e-06 0)
(0.586835 0.00476953 0)
(0.886647 0.0149142 0)
(1.06907 0.0241549 0)
(1.14211 0.0278192 0)
(1.15068 0.0263991 0)
(1.13683 0.0225747 0)
(1.12119 0.0182213 0)
(1.10874 0.0138914 0)
(1.09903 0.00957751 0)
(1.0911 0.00520536 0)
(1.08434 0.000735551 0)
(1.07839 -0.0038501 0)
(1.07302 -0.00856356 0)
(1.06803 -0.0134121 0)
(1.06324 -0.0183971 0)
(1.0585 -0.0235137 0)
(1.05367 -0.0287478 0)
(1.04862 -0.0340728 0)
(1.04321 -0.0394448 0)
(1.03736 -0.0447999 0)
(1.03104 -0.0500642 0)
(1.02447 -0.0550675 0)
(1.0187 -0.0594167 0)
(1.01425 -0.0627442 0)
(1.01094 -0.0651039 0)
(1.00848 -0.0665314 0)
(1.00686 -0.0677444 0)
(1.00701 -0.0725818 0)
(1.00001 0.00100283 0)
(1.00001 0.00100601 0)
(1.00001 0.00100409 0)
(1.00001 0.00100297 1.04142e-21)
(1.00001 0.00100379 5.19076e-21)
(1.00001 0.00100637 -9.33786e-21)
(1.00001 0.00101052 5.18467e-21)
(1 0.00101615 -4.12755e-21)
(1 0.00102309 5.29026e-22)
(1 0.00103136 4.12391e-21)
(1 0.0010408 0)
(1 0.00105137 -4.6052e-21)
(0.999998 0.00106298 5.24799e-22)
(0.999997 0.00107548 4.0868e-21)
(0.999996 0.00108886 0)
(0.999995 0.00110296 0)
(0.999994 0.00111772 -4.04153e-21)
(0.999993 0.00113303 4.04408e-21)
(0.999992 0.00114871 0)
(0.999991 0.00116476 -2.00312e-21)
(0.99999 0.00118102 2.12905e-21)
(0.999989 0.00119735 1.86567e-21)
(0.999988 0.0012137 -2.98274e-21)
(0.999988 0.00122991 9.61079e-22)
(0.999987 0.00124588 3.07749e-23)
(0.999986 0.00126154 -6.15048e-23)
(0.999986 0.00127672 8.54938e-22)
(0.999986 0.00129134 -9.77278e-22)
(0.999985 0.00130533 0)
(0.999985 0.00131858 0)
(0.999985 0.00133091 -2.40844e-22)
(0.999985 0.00134225 -2.39744e-22)
(0.999986 0.00135264 -4.04817e-21)
(0.999986 0.00136199 3.3318e-21)
(0.999986 0.00137019 -4.24572e-21)
(0.999987 0.00137721 4.24011e-21)
(0.999988 0.00138302 -3.26762e-21)
(0.999988 0.0013875 3.26645e-21)
(0.999989 0.00139067 4.63171e-22)
(0.99999 0.00139242 4.60764e-22)
(0.999991 0.00139275 -4.58328e-22)
(0.999993 0.00139161 0)
(0.999994 0.00138893 0)
(0.999996 0.00138476 0)
(0.999997 0.00137899 0)
(0.999999 0.00137182 0)
(1 0.00136302 1.77098e-21)
(1 0.00135186 -1.76791e-21)
(1 0.00133433 0)
(1.00007 0.00197583 0)
(1.00006 0.00198066 2.10276e-21)
(1.00005 0.00198226 -2.09428e-21)
(1.00003 0.00198756 -1.04472e-21)
(1.00002 0.00199776 -1.04481e-21)
(1 0.00201224 -3.1223e-21)
(0.999992 0.00203071 5.21253e-21)
(0.99998 0.00205315 0)
(0.999968 0.00207901 -5.18207e-22)
(0.999956 0.00210843 -1.03504e-21)
(0.999946 0.00214093 0)
(0.999935 0.00217637 5.14721e-22)
(0.999926 0.00221462 -4.61524e-21)
(0.999917 0.00225518 4.1054e-21)
(0.999908 0.00229807 0)
(0.999901 0.00234285 1.02017e-21)
(0.999894 0.0023893 0)
(0.999888 0.00243729 0)
(0.999882 0.0024863 0)
(0.999877 0.00253625 -2.01159e-21)
(0.999873 0.00258687 1.88683e-21)
(0.99987 0.00263775 -1.25382e-22)
(0.999868 0.00268874 0)
(0.999866 0.00273955 -4.6513e-22)
(0.999865 0.00278985 4.88507e-22)
(0.999865 0.00283944 9.25659e-23)
(0.999866 0.00288804 1.22865e-22)
(0.999867 0.00293536 0)
(0.99987 0.00298119 -1.94679e-21)
(0.999873 0.00302528 1.94635e-21)
(0.999877 0.00306737 -3.6188e-21)
(0.999882 0.00310725 7.94326e-21)
(0.999888 0.00314469 -3.6022e-21)
(0.999894 0.0031795 4.76942e-22)
(0.999901 0.0032114 4.74732e-22)
(0.999909 0.00324025 4.72868e-22)
(0.999917 0.00326584 -4.70124e-22)
(0.999926 0.00328792 4.20289e-21)
(0.999936 0.00330645 -3.2657e-21)
(0.999947 0.00332106 -1.38927e-21)
(0.999958 0.00333177 5.0592e-21)
(0.99997 0.00333833 -3.67293e-21)
(0.999983 0.00334052 -1.82272e-21)
(0.999996 0.0033384 3.61803e-21)
(1.00001 0.00333152 -7.21204e-21)
(1.00002 0.00332015 3.59303e-21)
(1.00004 0.00330403 1.77913e-21)
(1.00005 0.00328239 -4.43357e-24)
(1.00007 0.00325031 0)
(1.00014 0.00261032 3.16514e-21)
(1.0001 0.00261676 -1.05682e-21)
(1.00006 0.00262543 -4.2078e-21)
(1.00002 0.00264052 2.09652e-21)
(0.99998 0.0026633 -2.09574e-21)
(0.999943 0.00269293 0)
(0.999907 0.00272907 -2.08371e-21)
(0.999873 0.00277185 -6.237e-21)
(0.99984 0.00282014 6.23754e-21)
(0.99981 0.00287437 1.03485e-21)
(0.999781 0.00293361 0)
(0.999754 0.00299767 -6.18176e-21)
(0.999729 0.00306646 1.32784e-23)
(0.999706 0.00313894 4.10967e-21)
(0.999685 0.00321531 0)
(0.999666 0.00329481 -1.01937e-21)
(0.99965 0.003377 -1.01896e-21)
(0.999635 0.0034619 0)
(0.999623 0.00354842 -1.01287e-21)
(0.999613 0.0036365 -2.01288e-21)
(0.999605 0.00372581 2.01349e-21)
(0.999599 0.00381556 -2.51321e-22)
(0.999595 0.00390556 -2.49888e-22)
(0.999594 0.0039954 0)
(0.999595 0.00408444 3.86439e-23)
(0.999598 0.00417241 -2.1612e-22)
(0.999604 0.00425892 0)
(0.999611 0.00434339 0)
(0.999621 0.00442552 -1.94681e-21)
(0.999633 0.00450495 1.94644e-21)
(0.999647 0.00458119 -3.86009e-21)
(0.999663 0.00465391 3.85881e-21)
(0.999681 0.00472275 0)
(0.999702 0.00478733 0)
(0.999724 0.00484725 0)
(0.999748 0.00490227 -9.44423e-22)
(0.999774 0.00495195 -1.88092e-21)
(0.999801 0.00499598 0)
(0.999831 0.00503418 -9.30357e-22)
(0.999862 0.00506599 -9.17575e-22)
(0.999896 0.00509138 2.77051e-21)
(0.99993 0.00510993 0)
(0.999967 0.00512126 3.63696e-21)
(1.00001 0.00512542 -5.44285e-21)
(1.00004 0.00512165 0)
(1.00009 0.00511026 0)
(1.00013 0.00509061 0)
(1.00017 0.00506191 -1.77287e-21)
(1.00022 0.00502018 -1.76047e-21)
(1.00017 0.00290766 -2.11469e-21)
(1.0001 0.00291992 4.23202e-21)
(1.00003 0.00294084 4.22287e-21)
(0.999948 0.00297064 6.30918e-21)
(0.999872 0.00301102 -2.10817e-21)
(0.999799 0.003061 -4.18426e-21)
(0.999729 0.00312021 8.36474e-21)
(0.999663 0.00318902 -4.88424e-24)
(0.9996 0.00326554 -2.07917e-21)
(0.999541 0.00335066 2.08113e-21)
(0.999486 0.00344285 0)
(0.999435 0.00354192 2.06427e-21)
(0.999388 0.00364784 -2.05067e-21)
(0.999345 0.00375891 8.22644e-21)
(0.999305 0.00387565 -8.20358e-21)
(0.999271 0.00399681 6.14677e-21)
(0.99924 0.00412179 -1.02564e-21)
(0.999213 0.00425083 1.01872e-21)
(0.999191 0.00438204 1.01197e-21)
(0.999174 0.00451556 -1.01234e-21)
(0.99916 0.00465096 0)
(0.999151 0.00478693 -1.50207e-21)
(0.999147 0.00492337 1.25511e-21)
(0.999146 0.00505968 9.98067e-22)
(0.999151 0.00519486 4.64868e-23)
(0.999159 0.00532862 9.24599e-23)
(0.999172 0.00546044 1.47574e-21)
(0.999189 0.00558939 -9.82499e-22)
(0.999211 0.00571512 1.94867e-21)
(0.999236 0.00583716 -1.94835e-21)
(0.999266 0.00595472 0)
(0.9993 0.00606741 4.80982e-21)
(0.999337 0.00617471 -3.84388e-21)
(0.999379 0.00627601 3.80863e-21)
(0.999424 0.00637087 -3.80723e-21)
(0.999474 0.00645886 0)
(0.999526 0.00653938 3.74997e-21)
(0.999583 0.006612 -1.87822e-21)
(0.999643 0.00667646 0)
(0.999707 0.00673197 3.69492e-21)
(0.999774 0.00677851 -3.69062e-21)
(0.999844 0.00681543 1.83096e-21)
(0.999918 0.00684224 1.82157e-21)
(0.999995 0.00685902 5.43143e-21)
(1.00008 0.00686465 6.44472e-24)
(1.00016 0.00685955 3.58919e-21)
(1.00025 0.00684271 1.77641e-21)
(1.00034 0.00681318 1.76322e-21)
(1.00043 0.00676826 1.76167e-21)
(1.00017 0.0028411 0)
(1.00006 0.00286579 -4.23771e-21)
(0.999933 0.00290625 -4.22642e-21)
(0.999806 0.00295804 0)
(0.999681 0.00302353 -4.21151e-21)
(0.999561 0.00310152 1.19227e-23)
(0.999445 0.0031917 8.41804e-21)
(0.999336 0.00329473 -2.10798e-21)
(0.999233 0.00340779 -1.23197e-23)
(0.999135 0.00353244 -6.25859e-21)
(0.999045 0.00366639 0)
(0.99896 0.00380948 -6.22648e-21)
(0.998883 0.00396185 2.08075e-21)
(0.998812 0.0041209 0)
(0.998748 0.00428766 -2.06459e-21)
(0.998691 0.00446025 1.01856e-23)
(0.998641 0.00463791 -2.04427e-21)
(0.998598 0.00482118 7.14294e-21)
(0.998563 0.00500722 -1.45294e-23)
(0.998535 0.0051964 -1.02674e-21)
(0.998514 0.00538824 -1.01106e-21)
(0.9985 0.00558077 2.00906e-21)
(0.998494 0.00577404 -2.00935e-21)
(0.998494 0.00596727 -2.48118e-22)
(0.998503 0.00615899 5.14003e-22)
(0.998518 0.00634894 -2.77182e-22)
(0.998541 0.00653647 9.86643e-22)
(0.99857 0.0067202 -9.84668e-22)
(0.998607 0.00689981 9.80215e-22)
(0.998651 0.00707466 1.94354e-21)
(0.998701 0.00724362 -5.81163e-21)
(0.998758 0.00740629 -9.46279e-22)
(0.998822 0.00756194 5.77232e-21)
(0.998893 0.00770975 1.91309e-21)
(0.998969 0.0078492 -3.79363e-21)
(0.999053 0.0079797 3.79136e-21)
(0.999142 0.00810045 9.25464e-24)
(0.999237 0.00821095 5.61588e-21)
(0.999339 0.00831082 -3.74192e-21)
(0.999446 0.00839907 -9.26614e-21)
(0.999559 0.00847567 3.68245e-21)
(0.999677 0.00853979 1.83037e-21)
(0.999801 0.00859081 7.27243e-21)
(0.99993 0.00862886 -3.62978e-21)
(1.00006 0.00865246 -1.02504e-23)
(1.0002 0.00866225 -1.12475e-23)
(1.00035 0.00865676 0)
(1.0005 0.00863506 -3.53937e-21)
(1.00067 0.00859624 -3.51027e-21)
(1.00011 0.00237987 0)
(0.999943 0.00242588 -6.4126e-21)
(0.999759 0.00249489 6.40123e-21)
(0.99957 0.00257772 0)
(0.999383 0.00267788 0)
(0.999202 0.00279385 -4.22726e-21)
(0.999028 0.00292533 -3.09789e-24)
(0.998862 0.00307335 -4.22477e-21)
(0.998706 0.00323397 -8.35135e-24)
(0.998559 0.00340961 0)
(0.998422 0.00359703 0)
(0.998294 0.00379618 2.08154e-21)
(0.998177 0.00400736 0)
(0.99807 0.00422692 0)
(0.997973 0.00445655 -2.06862e-21)
(0.997887 0.00469362 4.14696e-21)
(0.997812 0.00493717 2.06464e-21)
(0.997747 0.00518813 0)
(0.997693 0.00544249 2.02912e-21)
(0.997651 0.005701 -5.10252e-21)
(0.997619 0.00596306 -2.02978e-21)
(0.997599 0.00622596 -2.01763e-21)
(0.997589 0.00648994 2.01782e-21)
(0.997591 0.00675399 1.38458e-24)
(0.997604 0.00701612 1.56516e-23)
(0.997627 0.00727611 2.48121e-22)
(0.997662 0.00753314 -4.96157e-22)
(0.997707 0.00778537 0)
(0.997763 0.00803247 -9.79175e-22)
(0.99783 0.00827363 0)
(0.997907 0.00850734 0)
(0.997994 0.00873318 -1.93769e-21)
(0.998091 0.0089502 -7.68769e-21)
(0.998199 0.00915733 2.43877e-23)
(0.998316 0.00935401 1.91059e-21)
(0.998442 0.00953942 0)
(0.998578 0.00971261 -1.88139e-21)
(0.998723 0.00987296 -3.74941e-21)
(0.998877 0.01002 3.72171e-21)
(0.99904 0.0101525 7.40715e-21)
(0.999211 0.0102704 -7.36323e-21)
(0.999391 0.0103728 2.67607e-25)
(0.999578 0.0104589 -3.6395e-21)
(0.999774 0.0105289 -2.72244e-24)
(0.999978 0.0105809 0)
(1.00019 0.0106158 -3.57509e-21)
(1.00041 0.0106317 -1.77067e-21)
(1.00064 0.0106278 1.76935e-21)
(1.00089 0.0106059 3.51228e-21)
(0.999958 0.00149184 0)
(0.99973 0.00156891 4.28804e-21)
(0.999473 0.00167704 -1.28822e-20)
(0.999206 0.00180222 0)
(0.998941 0.0019491 0)
(0.998683 0.00211541 -8.53921e-21)
(0.998435 0.00230099 8.50414e-21)
(0.998199 0.00250747 -4.26193e-21)
(0.997975 0.0027296 -8.41915e-24)
(0.997765 0.0029708 4.23107e-21)
(0.997568 0.00322669 0)
(0.997385 0.00349732 0)
(0.997217 0.00378321 4.20976e-21)
(0.997063 0.00407948 0)
(0.996924 0.00438857 0)
(0.9968 0.00470696 -4.1564e-21)
(0.996692 0.00503348 1.60338e-23)
(0.996598 0.00536955 0)
(0.996521 0.00570975 2.04946e-21)
(0.996459 0.00605531 5.12352e-21)
(0.996413 0.00640546 -2.05249e-21)
(0.996383 0.00675663 0)
(0.996369 0.00710932 -1.01026e-21)
(0.996371 0.00746221 1.26195e-21)
(0.996389 0.00781274 -5.50066e-22)
(0.996422 0.00816072 -2.50659e-22)
(0.996471 0.00850513 4.93337e-22)
(0.996536 0.0088436 -9.92112e-22)
(0.996616 0.00917577 0)
(0.996711 0.00950064 -3.92088e-21)
(0.996821 0.00981628 5.84446e-21)
(0.996946 0.0101222 1.91605e-21)
(0.997085 0.0104173 -9.13368e-24)
(0.997239 0.0107 1.91139e-21)
(0.997406 0.0109699 -1.92087e-21)
(0.997587 0.0112259 -3.78345e-21)
(0.997781 0.0114668 7.54236e-21)
(0.997988 0.0116918 -3.75336e-21)
(0.998208 0.0119004 7.46597e-21)
(0.998441 0.0120912 4.03193e-24)
(0.998685 0.0122641 7.36336e-21)
(0.998941 0.012418 -3.65784e-21)
(0.999208 0.0125518 0)
(0.999486 0.0126661 -3.11942e-24)
(0.999776 0.0127584 7.17565e-21)
(1.00008 0.01283 0)
(1.00039 0.0128783 0)
(1.00072 0.012903 6.15312e-21)
(1.00107 0.0129099 8.76953e-22)
(0.999674 0.000161789 1.08507e-21)
(0.999361 0.000264925 7.62604e-21)
(0.999014 0.000414466 8.6201e-21)
(0.998665 0.000593505 -8.67909e-21)
(0.998306 0.000800945 0)
(0.997954 0.00103347 -1.16282e-23)
(0.997614 0.00128993 -4.33077e-21)
(0.997289 0.0015723 -4.3154e-21)
(0.996981 0.0018736 1.28459e-20)
(0.996691 0.00219859 -4.2687e-21)
(0.996419 0.00254172 0)
(0.996167 0.00290325 8.4991e-21)
(0.995933 0.00328388 -8.44493e-21)
(0.99572 0.00367728 2.84018e-23)
(0.995527 0.00408681 8.4062e-21)
(0.995355 0.0045079 -2.11078e-21)
(0.995204 0.00493912 -2.05061e-21)
(0.995074 0.00538238 4.1676e-21)
(0.994966 0.00583075 0)
(0.994879 0.00628593 -2.05622e-21)
(0.994815 0.00674696 2.05681e-21)
(0.994772 0.00720931 2.04313e-21)
(0.994751 0.00767371 -2.04308e-21)
(0.994752 0.00813848 2.54787e-22)
(0.994775 0.00860044 3.14498e-23)
(0.99482 0.00905937 7.51766e-22)
(0.994887 0.00951399 -2.85558e-24)
(0.994975 0.00996137 0)
(0.995084 0.010401 0)
(0.995215 0.0108318 -2.73811e-25)
(0.995366 0.0112512 -1.94217e-21)
(0.995537 0.0116586 3.90456e-21)
(0.995729 0.0120527 -3.87256e-21)
(0.99594 0.0124316 3.83713e-21)
(0.99617 0.0127946 -7.67113e-21)
(0.996419 0.0131406 1.82167e-23)
(0.996686 0.0134679 3.78894e-21)
(0.996971 0.0137758 3.74401e-21)
(0.997273 0.0140636 -7.48229e-21)
(0.997591 0.0143294 -7.42232e-21)
(0.997926 0.0145735 -3.69329e-21)
(0.998276 0.0147942 -3.66775e-21)
(0.998641 0.0149906 0)
(0.999021 0.0151632 -3.60852e-21)
(0.999416 0.0153092 -1.1466e-23)
(0.999826 0.0154302 7.10844e-21)
(1.00025 0.0155229 -8.81802e-21)
(1.0007 0.0155874 1.73633e-21)
(1.00118 0.0156357 0)
(0.999239 -0.00178295 0)
(0.998818 -0.00157783 -8.72418e-21)
(0.998354 -0.00129489 0)
(0.997877 -0.00103648 8.69412e-21)
(0.9974 -0.000796692 4.3524e-21)
(0.996933 -0.000490613 -8.69651e-21)
(0.99649 -0.000146113 1.29872e-20)
(0.996061 0.000230865 4.30777e-21)
(0.99565 0.000632573 -4.30004e-21)
(0.99526 0.00106388 0)
(0.994895 0.00151772 4.29191e-21)
(0.994555 0.00199431 -8.55863e-21)
(0.99424 0.00249453 4.29792e-21)
(0.993952 0.00301051 -4.23948e-21)
(0.993691 0.00354667 3.24008e-23)
(0.993457 0.0040972 4.23897e-21)
(0.993252 0.00466036 -8.43855e-21)
(0.993075 0.0052386 0)
(0.992927 0.0058233 4.17565e-21)
(0.992808 0.00641666 -4.17562e-21)
(0.992718 0.00701742 -1.03228e-21)
(0.992658 0.00762004 0)
(0.992628 0.0082254 1.03317e-21)
(0.992627 0.00883139 2.55554e-22)
(0.992656 0.00943418 -5.4203e-22)
(0.992715 0.0100333 7.59179e-22)
(0.992803 0.0106273 4.99512e-22)
(0.99292 0.0112125 -1.00409e-21)
(0.993066 0.0117883 0)
(0.99324 0.0123531 -1.97439e-21)
(0.993443 0.0129039 3.94882e-21)
(0.993673 0.0134399 0)
(0.99393 0.0139595 1.93888e-21)
(0.994213 0.0144602 0)
(0.994522 0.0149412 3.83018e-21)
(0.994856 0.0154012 -7.62582e-21)
(0.995215 0.0158381 3.7738e-21)
(0.995596 0.0162508 -2.4534e-23)
(0.996001 0.0166388 3.70528e-21)
(0.996427 0.0169995 -3.72128e-21)
(0.996874 0.0173337 3.68041e-21)
(0.997341 0.017639 7.31012e-21)
(0.997827 0.0179145 0)
(0.998332 0.018161 0)
(0.998856 0.018375 -7.15988e-21)
(0.9994 0.0185588 -1.41936e-20)
(0.999965 0.0187079 1.40866e-20)
(1.00056 0.0188235 -7.87858e-21)
(1.00119 0.018926 7.79379e-21)
(0.998602 -0.0043045 0)
(0.998056 -0.00403264 8.89752e-21)
(0.997452 -0.00369563 8.87948e-21)
(0.996818 -0.00333578 1.32913e-20)
(0.996191 -0.00294214 -1.32794e-20)
(0.995579 -0.00248098 -4.39699e-21)
(0.994988 -0.00200835 1.32468e-20)
(0.994422 -0.00154549 -4.3779e-21)
(0.993882 -0.00103848 4.38053e-21)
(0.993373 -0.000479113 0)
(0.992895 0.000111732 8.76161e-21)
(0.992446 0.000731991 0)
(0.992029 0.00138158 -4.2999e-21)
(0.991646 0.00205127 -4.34223e-21)
(0.991299 0.00274639 5.41191e-23)
(0.990987 0.00345962 0)
(0.990712 0.00418877 4.27875e-21)
(0.990474 0.00493678 8.53216e-21)
(0.990274 0.00569333 0)
(0.990113 0.00646105 2.10146e-21)
(0.989991 0.00723821 -2.1008e-21)
(0.989907 0.00801824 -2.08117e-21)
(0.989864 0.00880202 2.09248e-21)
(0.98986 0.00958687 -4.39894e-24)
(0.989895 0.0103683 -5.14835e-22)
(0.98997 0.0111454 -2.26321e-22)
(0.990085 0.0119162 -5.09026e-22)
(0.990238 0.0126765 1.01424e-21)
(0.99043 0.0134251 0)
(0.99066 0.0141601 1.98709e-21)
(0.990928 0.0148778 -3.95913e-21)
(0.991232 0.015577 0)
(0.991573 0.0162555 0)
(0.991948 0.0169106 3.86614e-21)
(0.992358 0.0175406 -7.70616e-21)
(0.9928 0.0181445 3.84286e-21)
(0.993274 0.0187192 3.80923e-21)
(0.993778 0.0192637 0)
(0.994312 0.019777 1.12125e-20)
(0.994873 0.0202563 -7.42282e-21)
(0.995461 0.0207024 -3.67237e-21)
(0.996074 0.0211126 1.78692e-24)
(0.996712 0.0214856 -7.24811e-21)
(0.997373 0.0218229 -7.18128e-21)
(0.998057 0.02212 -7.12565e-21)
(0.998765 0.0223799 2.21301e-23)
(0.9995 0.0225972 -2.8064e-23)
(1.00027 0.0227741 0)
(1.00108 0.0229422 -1.38038e-20)
(0.997702 -0.00753612 0)
(0.996995 -0.00717023 2.33979e-21)
(0.996222 -0.00673239 -1.11126e-20)
(0.995421 -0.0062597 -8.88001e-21)
(0.994617 -0.00573897 8.86663e-21)
(0.993825 -0.00517256 4.5196e-21)
(0.993049 -0.00456185 -4.39128e-21)
(0.992306 -0.00391159 0)
(0.991601 -0.00322199 0)
(0.990933 -0.00248043 8.9153e-21)
(0.990305 -0.00172675 -8.77066e-21)
(0.989717 -0.000946417 4.39648e-21)
(0.98917 -0.000115116 -4.39293e-21)
(0.988665 0.000745694 4.38508e-21)
(0.988206 0.00163908 4.38563e-21)
(0.987793 0.00255586 -4.34819e-21)
(0.987428 0.00349341 -4.29574e-21)
(0.987111 0.00445496 -4.27586e-21)
(0.986843 0.0054284 4.27606e-21)
(0.986626 0.00641663 -4.27506e-21)
(0.98646 0.0074172 0)
(0.986345 0.00842251 2.12625e-21)
(0.986283 0.00943318 -2.09056e-21)
(0.986273 0.0104457 1.56556e-21)
(0.986315 0.0114549 0)
(0.986411 0.0124591 1.03197e-21)
(0.986559 0.0134556 0)
(0.986758 0.0144397 -1.01315e-21)
(0.98701 0.0154091 1.8234e-23)
(0.987311 0.0163612 1.34847e-23)
(0.987663 0.0172918 4.006e-21)
(0.988064 0.0181987 0)
(0.988512 0.0190795 0)
(0.989007 0.0199301 0)
(0.989546 0.0207487 0)