/*--------------------------------*- C++ -*----------------------------------*\
| =========                 |                                                 |
| \\      /  F ield         | OpenFOAM: The Open Source CFD Toolbox           |
|  \\    /   O peration     | Version:  2312                                  |
|   \\  /    A nd           | Website:  www.openfoam.com                      |
|    \\/     M anipulation  |                                                 |
\*---------------------------------------------------------------------------*/
FoamFile
{
    version     2.0;
    format      ascii;
    arch        "LSB;label=32;scalar=64";
    class       surfaceScalarField;
    location    "7.464373176644446";
    object      phi;
}
// * * * * * * * * * * * * * * * * * * * * * * * * * * * * * * * * * * * * * //

dimensions      [0 3 -1 0 0 0 0];

oriented        oriented;

internalField   nonuniform List<scalar> 
41713
(
0.00735329
0.0568931
0.00362516
0.0679746
0.00211399
0.0657576
0.00147891
0.0648815
0.00109171
0.0646336
0.000836644
0.0645015
0.000660629
0.0644225
0.000532713
0.0643744
0.000436289
0.0643429
0.000361684
0.064321
0.000302762
0.0643054
0.000255461
0.0642937
0.000217006
0.0642849
0.000185452
0.064278
0.000159399
0.0642725
0.000137819
0.064268
0.000119942
0.0642643
0.000105182
0.0642612
9.30748e-05
0.0642585
8.32354e-05
0.0642563
7.52993e-05
0.0642544
6.88982e-05
0.0642528
6.37545e-05
0.0642516
5.9834e-05
0.0548151
5.64794e-05
0.0456793
5.34461e-05
0.0380663
5.07169e-05
0.0317222
4.82923e-05
0.0264353
0.0220296
4.61186e-05
0.00998503
0.0469081
0.00841101
0.0695486
0.00569816
0.0684705
0.00410269
0.066477
0.00309951
0.0656368
0.00240555
0.0651955
0.00190507
0.0649229
0.00153265
0.0647468
0.00124798
0.0646275
0.00102521
0.0645438
0.000847395
0.0644832
0.000703131
0.064438
0.000584554
0.0644035
0.000486107
0.0643764
0.000403786
0.0643548
0.000334656
0.0643371
0.000276533
0.0643224
0.000227767
0.06431
0.000187087
0.0642992
0.000153491
0.0642899
0.000126166
0.0642817
0.000104397
0.0642746
8.74671e-05
0.0642685
7.59466e-05
0.0548266
6.78214e-05
0.0456875
6.16828e-05
0.0380725
5.66917e-05
0.0317271
5.24076e-05
0.0264396
0.0220332
4.87782e-05
0.00858137
0.0383267
0.00968038
0.0684496
0.00743874
0.0707121
0.00566751
0.0682482
0.00447548
0.0668288
0.0035862
0.0660848
0.00289975
0.0656094
0.0023645
0.065282
0.00194173
0.0650503
0.00160285
0.0648827
0.00132738
0.0647586
0.00110067
0.0646647
0.000912155
0.064592
0.000754093
0.0645345
0.000620794
0.0644881
0.000508017
0.0644499
0.000412571
0.0644179
0.000332033
0.0643905
0.000264544
0.0643667
0.000208652
0.0643458
0.000163206
0.0643271
0.000127252
0.0643106
9.98282e-05
0.0642959
8.19157e-05
0.0548445
6.99756e-05
0.0456994
6.14478e-05
0.038081
5.4802e-05
0.0317338
4.9246e-05
0.0264451
0.0220378
4.458e-05
0.00675874
0.031568
0.00943733
0.065771
0.0080748
0.0720746
0.00639211
0.0699309
0.00519678
0.0680242
0.00428633
0.0669952
0.00354997
0.0663457
0.0029483
0.0658837
0.00245408
0.0655445
0.00204523
0.0652915
0.00170444
0.0650994
0.00141828
0.0649509
0.00117639
0.0648339
0.000970847
0.06474
0.000795578
0.0646634
0.000645923
0.0645996
0.000518309
0.0645455
0.000409983
0.0644988
0.000318814
0.0644579
0.000243145
0.0644214
0.000181668
0.0643886
0.000133308
0.0643589
9.6893e-05
0.0643323
7.3661e-05
0.0548678
5.86417e-05
0.0457144
4.82203e-05
0.0380914
4.0293e-05
0.0317417
3.38918e-05
0.0264515
0.0220431
2.86612e-05
0.00504736
0.0265206
0.00852263
0.0622957
0.00811991
0.0724773
0.00667167
0.0713791
0.00551185
0.069184
0.00463011
0.0678769
0.00390603
0.0670698
0.00329599
0.0664937
0.00277895
0.0660616
0.0023389
0.0657316
0.00196284
0.0654755
0.00164018
0.0652735
0.00136241
0.0651116
0.00112269
0.0649798
0.000915595
0.0648705
0.000736836
0.0647783
0.000583034
0.0646993
0.000451548
0.0646303
0.000340317
0.0645691
0.00024773
0.064514
0.000172517
0.0644638
0.000113612
0.0644178
6.9757e-05
0.0643762
4.23881e-05
0.0548951
2.52263e-05
0.0457316
1.36879e-05
0.038103
5.10733e-06
0.0317503
-1.82939e-06
0.0264585
0.0220485
-7.24621e-06
0.00359843
0.0229222
0.00725483
0.0586393
0.00770457
0.0720276
0.00663851
0.0724452
0.00557317
0.0702493
0.00474162
0.0687085
0.0040538
0.0677576
0.00346191
0.0670856
0.00294805
0.0665754
0.00250059
0.066179
0.00210993
0.0658662
0.00176815
0.0656153
0.00146873
0.0654111
0.00120631
0.0652422
0.000976556
0.0651002
0.000775943
0.064979
0.000601666
0.0648736
0.000451511
0.0647805
0.000323751
0.0646969
0.000217048
0.0646207
0.000130363
0.0645505
6.27823e-05
0.0644854
1.32281e-05
0.0644258
-1.70645e-05
0.0549254
-3.55221e-05
0.04575
-4.74471e-05
0.0381149
-5.58663e-05
0.0317587
-6.22022e-05
0.0264648
0.0220534
-6.70606e-05
0.00250063
0.0204216
0.00595332
0.0551866
0.00700225
0.0709787
0.00636177
0.0730857
0.00544544
0.0711657
0.00468424
0.0694697
0.00404765
0.0683942
0.00348943
0.0676438
0.0029938
0.0670711
0.00255303
0.0666198
0.00216073
0.0662585
0.00181138
0.0659647
0.00150035
0.0657221
0.00122376
0.0655188
0.000978434
0.0653456
0.000761762
0.0651956
0.000571678
0.0650637
0.000406565
0.0649456
0.000265202
0.0648382
0.00014669
0.0647392
5.03879e-05
0.0646468
-2.42957e-05
0.0645601
-7.86982e-05
0.0644802
-0.000110938
0.0549577
-0.000129598
0.0457687
-0.000140908
0.0381262
-0.000148363
0.0317662
-0.000153601
0.02647
0.0220569
-0.000157195
0.00173395
0.0186876
0.00481354
0.052107
0.00620727
0.0695849
0.00594395
0.073349
0.0051944
0.0719152
0.00450905
0.070155
0.00392741
0.0689759
0.00341
0.0681612
0.00294108
0.06754
0.00251549
0.0670454
0.00212958
0.0666444
0.00178006
0.0663142
0.00146405
0.0660381
0.00117907
0.0658037
0.000923067
0.0656016
0.000694387
0.0654243
0.000491748
0.0652663
0.000314218
0.0651231
0.000161185
0.0649913
3.22601e-05
0.0648682
-7.27885e-05
0.0647519
-0.000154086
0.0646414
-0.000212271
0.0645383
-0.000245688
0.0549911
-0.000263988
0.045787
-0.000274087
0.0381363
-0.000279866
0.031772
-0.00028318
0.0264733
0.0220585
-0.000284775
0.00122047
0.0174672
0.00388339
0.0494441
0.00543348
0.0680348
0.00546876
0.0733137
0.0048805
0.0725035
0.00426592
0.0707696
0.00373253
0.0695093
0.00325385
0.0686399
0.00281316
0.0679806
0.00240598
0.0674526
0.00203037
0.06702
0.0016847
0.0666598
0.0013675
0.0663553
0.00107751
0.0660937
0.000813704
0.0658654
0.000575323
0.0656627
0.000361866
0.0654798
0.000173118
0.0653119
9.05934e-06
0.0651553
-0.00013013
0.0650073
-0.000244004
0.0648657
-0.000332065
0.0647294
-0.000394582
0.0646009
-0.000429512
0.055026
-0.000447457
0.0458049
-0.000456095
0.0381449
-0.000459755
0.0317756
-0.000460583
0.0264742
0.0220575
-0.000459543
0.000883072
0.0165841
0.00314345
0.0471838
0.00472371
0.0664546
0.00497973
0.0730577
0.00453868
0.0729445
0.00398877
0.0713195
0.00349437
0.0700037
0.00304754
0.0690867
0.00263171
0.0683965
0.00224188
0.0678424
0.00187687
0.067385
0.00153603
0.0670007
0.00121889
0.0666725
0.000925088
0.0663875
0.000654442
0.066136
0.000406958
0.0659102
0.000182861
0.0657039
-1.74705e-05
0.0655122
-0.000193463
0.0653313
-0.000344188
0.0651581
-0.000468453
0.06499
-0.000565109
0.0648261
-0.000633788
0.0646695
-0.000671701
0.0550639
-0.000690306
0.0458235
-0.000698035
0.0381527
-0.000699735
0.0317773
-0.000697935
0.0264724
0.0220535
-0.000693928
0.000661988
0.0159221
0.00256002
0.0452857
0.00408987
0.0649247
0.00449748
0.0726501
0.00418497
0.073257
0.00369471
0.0718098
0.00323176
0.0704666
0.00280946
0.069509
0.00241331
0.0687926
0.00203756
0.0682182
0.00168113
0.0677414
0.00134391
0.0673379
0.00102601
0.0669904
0.000727701
0.0666858
0.000449418
0.0664143
0.000191775
0.0661678
-4.4501e-05
0.0659401
-0.000258492
0.0657262
-0.000448896
0.0655217
-0.00061404
0.0653232
-0.00075202
0.065128
-0.000860933
0.064935
-0.000939681
0.0647483
-0.000983894
0.0551081
-0.00100571
0.0458454
-0.00101433
0.0381613
-0.00101518
0.0317782
-0.00101131
0.0264685
0.0220467
-0.0010045
0.000513619
0.0154085
0.00209862
0.0437007
0.00353085
0.0634925
0.00403298
0.072148
0.00382791
0.0734621
0.00339233
0.0722454
0.00295519
0.0709038
0.00255099
0.0699132
0.0021692
0.0691744
0.0018035
0.0685839
0.00145252
0.0680924
0.00111636
0.0676741
0.000795461
0.0673113
0.000490484
0.0669908
0.000202271
0.0667025
-6.82379e-05
0.0664383
-0.000319902
0.0661918
-0.000551179
0.0659575
-0.000760114
0.0657307
-0.000944413
0.0655075
-0.00110147
0.065285
-0.00122864
0.0650622
-0.00132406
0.0648437
-0.00138049
0.0551646
-0.00141037
0.0458752
-0.00142356
0.0381745
-0.00142617
0.0317808
-0.00142192
0.0264643
0.0220381
-0.00141333
0.000408695
0.0149998
0.00172875
0.0423807
0.00303905
0.0621822
0.0035915
0.0715955
0.00347286
0.0735807
0.00308665
0.0726316
0.00267106
0.0713193
0.00227958
0.0703047
0.00190713
0.0695469
0.00154723
0.0689438
0.00119807
0.0684416
0.000859683
0.0680125
0.000532628
0.0676383
0.000217738
0.0673057
-8.40322e-05
0.0670043
-0.000371513
0.0667258
-0.0006431
0.0664634
-0.000896749
0.0662111
-0.00113003
0.0659639
-0.00134013
0.0657176
-0.00152384
0.0654688
-0.00167791
0.0652163
-0.0017999
0.0649657
-0.00187803
0.0552427
-0.00192426
0.0459215
-0.00194874
0.038199
-0.00195816
0.0317902
-0.00195713
0.0264632
0.0220301
-0.00194919
0.000329569
0.0146702
0.00142643
0.0412838
0.00260465
0.061004
0.00317436
0.0710258
0.00312287
0.0736322
0.00278068
0.0729738
0.00238355
0.0717165
0.00200049
0.0706878
0.00163287
0.0699145
0.00127463
0.069302
0.000923459
0.0687927
0.00057914
0.0683568
0.000242141
0.0679753
-8.68387e-05
0.0676347
-0.000406839
0.0673243
-0.000716423
0.0670354
-0.00101368
0.0667606
-0.00129628
0.0664937
-0.00156142
0.0662291
-0.00180585
0.065962
-0.00202596
0.0656889
-0.00221821
0.0654085
-0.00238018
0.0651277
-0.00249375
0.0553563
-0.00256936
0.0459971
-0.00261651
0.0382461
-0.00264191
0.0318156
-0.00265106
0.0264724
0.022028
-0.00264891
0.00026616
0.0144041
0.00117569
0.0403743
0.00222108
0.0599586
0.00278302
0.0704639
0.00278015
0.0736351
0.00247578
0.0732781
0.00209455
0.0720977
0.00171668
0.0710656
0.00135008
0.0702811
0.000989706
0.0696624
0.00063282
0.0691496
0.000278818
0.0687108
-7.2227e-05
0.0683264
-0.000419835
0.0679823
-0.000763012
0.0676675
-0.00110025
0.0673726
-0.00142957
0.06709
-0.00174844
0.0668126
-0.0020538
0.0665344
-0.00234203
0.0662503
-0.0026093
0.0659561
-0.00285236
0.0656516
-0.00307012
0.0653454
-0.00323748
0.0555236
-0.00336275
0.0461223
-0.00345292
0.0383363
-0.00351233
0.031875
-0.0035456
0.0265056
0.0220413
-0.00355888
0.000184324
0.0142197
0.000825626
0.039733
0.00160651
0.0591777
0.0020616
0.0700088
0.00208565
0.0736111
0.001854
0.0735098
0.00154352
0.0724082
0.00122749
0.0713817
0.00091727
0.0705913
0.00060957
0.0699701
0.000301797
0.0694574
-7.06503e-06
0.0690196
-0.000317298
0.0686366
-0.000628749
0.0682937
-0.000940753
0.0679795
-0.00125225
0.0676841
-0.00156167
0.0673994
-0.0018669
0.0671178
-0.00216517
0.0668327
-0.0024531
0.0665382
-0.00272697
0.06623
-0.0029839
0.0659085
-0.00322416
0.0655857
-0.00342119
0.0557207
-0.00358275
0.0462839
-0.0037136
0.0384671
-0.00381355
0.031975
-0.00388206
0.0265742
0.0220823
-0.00392309
0.000129977
0.0140898
0.000587096
0.0392759
0.00117016
0.0585946
0.00153161
0.0696473
0.00156499
0.0735777
0.00138701
0.0736878
0.00113518
0.07266
0.000873181
0.0716437
0.000613303
0.0708512
0.000353446
0.0702299
9.11838e-05
0.0697196
-0.000174753
0.0692856
-0.000444934
0.0689068
-0.000719457
0.0685683
-0.00099813
0.0682581
-0.0012804
0.0679664
-0.00156529
0.0676843
-0.00185126
0.0674038
-0.00213609
0.0671175
-0.00241681
0.0668189
-0.00268981
0.066503
-0.00295186
0.0661705
-0.00320244
0.0658363
-0.00341315
0.0559314
-0.00359432
0.0464651
-0.00375536
0.0386282
-0.00389945
0.0321191
-0.00402357
0.0266983
0.0221723
-0.00411355
9.48684e-05
0.0139949
0.000427112
0.0389436
0.000867543
0.0581542
0.00115394
0.0693609
0.00118842
0.0735432
0.0010498
0.0738264
0.000845134
0.0728647
0.000628249
0.0718606
0.00041105
0.0710684
0.000192227
0.0704488
-3.04286e-05
0.0699423
-0.000258227
0.0695134
-0.000491887
0.0691404
-0.000731819
0.0688082
-0.00097822
0.0685045
-0.00123103
0.0682192
-0.00148986
0.0679431
-0.00175382
0.0676677
-0.00202143
0.0673852
-0.00229041
0.0670879
-0.00255759
0.0667702
-0.00281944
0.0664324
-0.00307302
0.0660898
-0.00328398
0.0561423
-0.00346089
0.046642
-0.00361937
0.0387867
-0.00377269
0.0322724
-0.00393801
0.0268636
0.0223621
-0.00412779
6.80472e-05
0.0139269
0.000316454
0.0386952
0.000657036
0.0578136
0.000886017
0.0691319
0.000916528
0.0735127
0.000805022
0.0739379
0.000637116
0.0730326
0.000457641
0.07204
0.000276694
0.0712493
9.30953e-05
0.0706324
-9.51404e-05
0.0701305
-0.000289229
0.0697075
-0.000489972
0.0693412
-0.000697998
0.0690162
-0.000913813
0.0687203
-0.00113777
0.0684432
-0.00137001
0.0681753
-0.00161032
0.067908
-0.00185797
0.0676328
-0.00211167
0.0673416
-0.00236947
0.067028
-0.00262899
0.0666919
-0.00288705
0.0663479
-0.00310277
0.0563581
-0.00327269
0.0468119
-0.00340156
0.0389155
-0.0034985
0.0323693
-0.00358024
0.0269453
-0.00378642
0.0225683
9.02745e-05
0.0219832
0.00013191
0.0219857
0.000164595
0.0219947
0.000194937
0.021997
0.000219456
0.0220028
0.00023944
0.0220074
0.000256393
0.0220104
0.00026702
0.0220167
0.00027564
0.0220187
0.000279232
0.0220238
0.000279753
0.0220268
0.000277744
0.0220294
0.000271282
0.0220338
0.000263216
0.0220354
0.000251891
0.0220387
0.000238255
0.022041
0.000223279
0.0220423
0.000205313
0.0220453
0.000186277
0.0220464
0.000165996
0.0220476
0.000144138
0.0220492
0.00012166
0.0220498
9.85031e-05
0.0220505
7.48261e-05
0.022051
5.10325e-05
0.0220511
2.72883e-05
0.0220511
3.97572e-06
0.0220507
-1.89011e-05
0.0220502
-4.10205e-05
0.0220495
-6.17429e-05
0.0220481
-8.15598e-05
0.0220472
-9.96453e-05
0.0220454
-0.000115696
0.0220434
-0.000130475
0.0220421
-0.000141949
0.0220388
-0.000151438
0.0220368
-0.000158633
0.0220346
-0.000161645
0.0220304
-0.000162858
0.0220286
-0.000159388
0.0220239
-0.000152742
0.0220207
-0.000142955
0.0220176
-0.000127352
0.0220118
-0.000109565
0.0220096
-8.5039e-05
0.0220028
-5.70412e-05
0.0219994
-2.42098e-05
0.0219945
1.50035e-05
0.0219881
0.0219856
5.67455e-05
9.17856e-05
0.0219402
0.000132485
0.021945
0.000164444
0.0219627
0.000194294
0.0219672
0.000218559
0.0219786
0.00023853
0.0219874
0.000255699
0.0219932
0.000266765
0.0220057
0.000276034
0.0220095
0.000280475
0.0220193
0.00028203
0.0220253
0.00028123
0.0220302
0.000276138
0.0220389
0.000269591
0.022042
0.00025992
0.0220484
0.00024806
0.0220529
0.000234969
0.0220554
0.000218985
0.0220613
0.000202014
0.0220634
0.000183868
0.0220658
0.000164203
0.0220689
0.000143961
0.0220701
0.000123073
0.0220714
0.000101683
0.0220724
8.01825e-05
0.0220726
5.87246e-05
0.0220726
3.76813e-05
0.0220717
1.70407e-05
0.0220709
-2.89015e-06
0.0220694
-2.1485e-05
0.0220667
-3.92496e-05
0.0220649
-5.53653e-05
0.0220616
-6.95397e-05
0.0220576
-8.25491e-05
0.0220551
-9.23685e-05
0.0220486
-0.000100332
0.0220448
-0.000106145
0.0220404
-0.000107923
0.0220321
-0.00010807
0.0220287
-0.000103706
0.0220195
-9.63566e-05
0.0220134
-8.60658e-05
0.0220073
-7.0168e-05
0.0219959
-5.2317e-05
0.0219917
-2.79663e-05
0.0219785
-4.10274e-07
0.0219718
3.17012e-05
0.0219624
6.9883e-05
0.02195
0.0219452
0.000110269
8.67501e-05
0.021898
0.000126815
0.021905
0.00015838
0.0219311
0.000188087
0.0219375
0.000212454
0.0219542
0.000232764
0.0219671
0.000250501
0.0219755
0.00026235
0.0219938
0.00027261
0.0219992
0.000278234
0.0220137
0.000281155
0.0220224
0.000281891
0.0220294
0.000278493
0.0220423
0.000273785
0.0220467
0.000266086
0.0220561
0.000256318
0.0220626
0.000245425
0.0220663
0.000231735
0.022075
0.000217138
0.022078
0.000201433
0.0220815
0.000184266
0.022086
0.000166562
0.0220878
0.000148241
0.0220897
0.000129435
0.0220912
0.00011052
0.0220916
9.1637e-05
0.0220914
7.31474e-05
0.0220902
5.50244e-05
0.022089
3.75643e-05
0.0220869
2.13822e-05
0.0220829
5.95357e-06
0.0220804
-7.91686e-06
0.0220754
-1.99503e-05
0.0220696
-3.09371e-05
0.0220661
-3.88571e-05
0.0220566
-4.50605e-05
0.022051
-4.92624e-05
0.0220446
-4.95876e-05
0.0220325
-4.84574e-05
0.0220276
-4.2998e-05
0.0220141
-3.47524e-05
0.0220051
-2.378e-05
0.0219963
-7.42273e-06
0.0219795
1.0648e-05
0.0219736
3.49735e-05
0.0219542
6.22403e-05
0.0219445
9.37802e-05
0.0219309
0.0001311
0.0219126
0.021906
0.000170301
7.05857e-05
0.0218561
0.000110605
0.0218649
0.000142332
0.0218994
0.00017244
0.0219073
0.000197452
0.0219292
0.000218649
0.0219459
0.00023751
0.0219566
0.000250705
0.0219806
0.000262528
0.0219874
0.000269914
0.0220063
0.000274788
0.0220175
0.000277654
0.0220266
0.000276546
0.0220434
0.000274281
0.0220489
0.000269159
0.0220612
0.000262092
0.0220697
0.00025401
0.0220744
0.000243224
0.0220858
0.000231613
0.0220896
0.000218962
0.0220941
0.000204901
0.0221001
0.000190343
0.0221023
0.000175192
0.0221049
0.000159568
0.0221069
0.000143833
0.0221073
0.000128113
0.0221072
0.000112758
0.0221056
9.77248e-05
0.022104
8.32975e-05
0.0221013
7.00798e-05
0.0220961
5.75321e-05
0.0220929
4.64493e-05
0.0220865
3.70972e-05
0.022079
2.8667e-05
0.0220746
2.317e-05
0.0220621
1.92381e-05
0.0220549
1.71433e-05
0.0220467
1.8754e-05
0.0220309
2.16295e-05
0.0220247
2.8641e-05
0.022007
3.82303e-05
0.0219955
5.03277e-05
0.0219842
6.75885e-05
0.0219622
8.63153e-05
0.0219549
0.000111055
0.0219294
0.00013847
0.0219171
0.000169885
0.0218995
0.000206792
0.0218757
0.0218676
0.000245253
3.53804e-05
0.0218135
7.6214e-05
0.0218241
0.000108898
0.0218667
0.000140198
0.0218761
0.000166626
0.0219028
0.000189472
0.021923
0.000210228
0.0219359
0.000225552
0.0219653
0.000239733
0.0219732
0.000249687
0.0219964
0.000257331
0.0220098
0.000263158
0.0220207
0.000265182
0.0220414
0.000266212
0.0220479
0.000264531
0.0220629
0.000261037
0.0220732
0.000256648
0.0220788
0.000249654
0.0220928
0.000241925
0.0220973
0.000233227
0.0221028
0.000223175
0.0221102
0.00021267
0.0221128
0.000201597
0.0221159
0.000190062
0.0221184
0.000178412
0.022119
0.000166758
0.0221188
0.000155434
0.0221169
0.000144384
0.0221151
0.000133875
0.0221118
0.000124498
0.0221054
0.000115698
0.0221017
0.000108256
0.022094
0.000102426
0.0220848
9.73812e-05
0.0220796
9.51274e-05
0.0220643
9.42783e-05
0.0220558
9.50936e-05
0.0220458
9.94364e-05
0.0220265
0.000104845
0.0220193
0.000114189
0.0219977
0.000125894
0.0219838
0.000139879
0.0219702
0.000158799
0.0219433
0.000178936
0.0219348
0.000204841
0.0219035
0.000233154
0.0218888
0.000265189
0.0218674
0.00030243
0.0218385
0.0218291
0.000340898
-2.34498e-05
0.0217699
1.88621e-05
0.0217818
5.35465e-05
0.021832
8.71179e-05
0.0218425
0.000115899
0.021874
0.000141414
0.0218975
0.000165088
0.0219122
0.000183545
0.0219468
0.000201092
0.0219557
0.000214644
0.0219828
0.000226114
0.0219984
0.00023598
0.0220109
0.000242233
0.0220351
0.000247676
0.0220425
0.000250569
0.02206
0.000251797
0.022072
0.000252265
0.0220783
0.000250237
0.0220948
0.000247576
0.0221
0.000244027
0.0221064
0.000239187
0.022115
0.00023394
0.0221181
0.000228156
0.0221217
0.000221921
0.0221246
0.000215567
0.0221253
0.000209186
0.0221252
0.000203097
0.022123
0.000197225
0.022121
0.000191821
0.0221172
0.000187464
0.0221098
0.000183576
0.0221056
0.000180927
0.0220966
0.000179756
0.022086
0.000179217
0.0220801
0.000181311
0.0220622
0.000184629
0.0220525
0.00018942
0.0220411
0.000197543
0.0220184
0.000206512
0.0220103
0.000219199
0.021985
0.000234012
0.021969
0.000250858
0.0219534
0.000272399
0.0219218
0.000294886
0.0219123
0.000322884
0.0218755
0.000353008
0.0218587
0.000386565
0.0218339
0.00042503
0.0218
0.0217898
0.000464376
-0.00011103
0.0217237
-6.62847e-05
0.021737
-2.92664e-05
0.021795
7.08827e-06
0.0218061
3.9662e-05
0.0218414
6.92764e-05
0.0218679
9.73661e-05
0.0218841
0.00012022
0.021924
0.000142522
0.0219334
0.000161079
0.0219642
0.000177771
0.0219817
0.000193069
0.0219956
0.000204953
0.0220233
0.000216238
0.0220312
0.000225159
0.022051
0.000232585
0.0220645
0.000239407
0.0220715
0.00024386
0.0220904
0.000247796
0.022096
0.000250941
0.0221032
0.000252866
0.0221131
0.000254441
0.0221165
0.000255514
0.0221207
0.000256149
0.022124
0.000256659
0.0221248
0.000257117
0.0221247
0.000257821
0.0221223
0.000258676
0.0221201
0.000259913
0.022116
0.000262093
0.0221076
0.000264618
0.0221031
0.00026824
0.022093
0.000273182
0.022081
0.000278575
0.0220748
0.000286414
0.0220544
0.000295267
0.0220436
0.000305367
0.022031
0.000318571
0.0220052
0.000332364
0.0219965
0.000349626
0.0219678
0.000368741
0.0219499
0.000389609
0.0219325
0.000414897
0.0218965
0.000440824
0.0218864
0.000471978
0.0218444
0.000504941
0.0218257
0.000541016
0.0217978
0.00058167
0.0217594
0.0217486
0.000622827
-0.000235021
0.0216739
-0.000186213
0.0216882
-0.000144733
0.0217536
-0.000103812
0.0217652
-6.7135e-05
0.0218047
-3.31433e-05
0.0218339
-2.38226e-07
0.0218512
2.88038e-05
0.0218949
5.75847e-05
0.0219046
8.29096e-05
0.0219389
0.000106642
0.0219579
0.000129103
0.0219731
0.000148429
0.0220039
0.000167396
0.0220122
0.000184194
0.0220342
0.000199687
0.022049
0.000214761
0.0220564
0.000227616
0.0220775
0.000240099
0.0220835
0.000251906
0.0220914
0.000262581
0.0221024
0.000272978
0.0221061
0.000282916
0.0221107
0.000292435
0.0221145
0.000301825
0.0221154
0.000311132
0.0221154
0.00032063
0.0221128
0.000330198
0.0221105
0.000340043
0.0221061
0.000350703
0.022097
0.000361552
0.0220922
0.000373324
0.0220812
0.000386219
0.0220681
0.000399339
0.0220616
0.000414676
0.0220391
0.000430765
0.0220275
0.000447822
0.0220139
0.000467704
0.0219853
0.000487858
0.0219764
0.000511176
0.0219444
0.000536017
0.0219251
0.000562267
0.0219063
0.000592608
0.0218661
0.000623217
0.0218558
0.000658716
0.0218089
0.000695644
0.0217888
0.000735307
0.0217581
0.000779166
0.0217155
0.0217047
0.00082308
-0.000404935
0.0216193
-0.000350919
0.0216342
-0.000303881
0.0217065
-0.000256832
0.0217182
-0.000213307
0.0217612
-0.000172011
0.0217926
-0.000131494
0.0218107
-9.55576e-05
0.021859
-5.94693e-05
0.0218685
-2.64003e-05
0.0219059
5.66748e-06
0.0219259
3.74291e-05
0.0219413
6.63447e-05
0.021975
9.52161e-05
0.0219833
0.000122099
0.0220074
0.000147964
0.0220232
0.000173657
0.0220307
0.000197317
0.0220538
0.000220789
0.0220601
0.000243737
0.0220685
0.000265668
0.0220805
0.000287421
0.0220844
0.000308776
0.0220894
0.000329742
0.0220935
0.000350579
0.0220946
0.000371298
0.0220947
0.000392141
0.0220919
0.000412953
0.0220897
0.000433907
0.0220852
0.000455513
0.0220754
0.000477106
0.0220706
0.000499395
0.0220589
0.000522552
0.022045
0.000545638
0.0220385
0.00057064
0.022014
0.000596052
0.0220021
0.000622068
0.0219879
0.000650545
0.0219568
0.000678882
0.021948
0.000709986
0.0219133
0.000742186
0.0218929
0.000775351
0.0218731
0.000812186
0.0218293
0.000848817
0.0218191
0.000889907
0.0217678
0.000931953
0.0217467
0.000976261
0.0217138
0.00102429
0.0216675
0.0216571
0.00107184
-0.000633252
0.0215587
-0.000572618
0.0215736
-0.000518516
0.0216524
-0.000463902
0.0216635
-0.000412359
0.0217097
-0.000362513
0.0217428
-0.000312814
0.021761
-0.000266787
0.021813
-0.000220056
0.0218218
-0.00017594
0.0218617
-0.000132583
0.0218825
-8.96923e-05
0.0218985
-4.92264e-05
0.0219345
-8.31204e-06
0.0219424
3.13374e-05
0.0219677
7.03055e-05
0.0219842
0.000109425
0.0219916
0.000146793
0.0220165
0.000184262
0.0220226
0.000221443
0.0220313
0.00025779
0.0220441
0.000294109
0.022048
0.000330128
0.0220533
0.000365809
0.0220578
0.000401373
0.022059
0.000436781
0.0220593
0.000472229
0.0220565
0.000507516
0.0220544
0.000542766
0.0220499
0.000578451
0.0220397
0.00061385
0.0220352
0.000649636
0.0220231
0.000685943
0.0220087
0.000721777
0.0220027
0.000759113
0.0219767
0.000796393
0.0219648
0.000833779
0.0219505
0.000873125
0.0219175
0.000911773
0.0219094
0.000952647
0.0218725
0.000994035
0.0218515
0.00103579
0.0218313
0.00108065
0.0217845
0.00112467
0.0217751
0.00117258
0.0217199
0.00122082
0.0216985
0.00127071
0.0216639
0.0013237
0.0216145
0.0216053
0.00137552
-0.000936696
0.0214909
-0.000868163
0.0215051
-0.000805536
0.0215898
-0.000741636
0.0215996
-0.000680114
0.0216481
-0.0006196
0.0216823
-0.000558557
0.0217
-0.000500619
0.021755
-0.000441261
0.0217624
-0.000383855
0.0218043
-0.000326447
0.0218251
-0.000268648
0.0218407
-0.000212736
0.0218786
-0.00015586
0.0218856
-0.000100115
0.021912
-4.45677e-05
0.0219287
1.16197e-05
0.0219354
6.64212e-05
0.0219617
0.000121697
0.0219673
0.000177065
0.0219759
0.000231859
0.0219893
0.000286858
0.021993
0.000341716
0.0219985
0.000396325
0.0220032
0.000450851
0.0220045
0.000505183
0.022005
0.000559451
0.0220022
0.000613385
0.0220005
0.000667041
0.0219963
0.000720831
0.0219859
0.000773957
0.0219821
0.000827038
0.02197
0.000880148
0.0219556
0.000932219
0.0219506
0.000985206
0.0219237
0.00103748
0.0219126
0.00108915
0.0218988
0.00114207
0.0218646
0.0011935
0.021858
0.0012464
0.0218196
0.00129899
0.0217989
0.00135112
0.0217792
0.00140555
0.02173
0.00145827
0.0217224
0.00151409
0.021664
0.00156939
0.0216432
0.0016255
0.0216078
0.00168392
0.0215561
0.021549
0.00174026
-0.00133767
0.0214152
-0.0012602
0.0214276
-0.00118778
0.0215174
-0.00111304
0.0215249
-0.00103974
0.0215748
-0.00096648
0.021609
-0.000891688
0.0216252
-0.000819095
0.0216824
-0.00074408
0.0216874
-0.000670158
0.0217304
-0.000595364
0.0217503
-0.000519325
0.0217646
-0.000444389
0.0218037
-0.000367622
0.0218088
-0.000291123
0.0218355
-0.000214131
0.0218517
-0.000135862
0.0218572
-5.84599e-05
0.0218843
1.99042e-05
0.021889
9.86017e-05
0.0218972
0.000177112
0.0219108
0.000256189
0.021914
0.000335368
0.0219193
0.000414453
0.0219241
0.000493525
0.0219254
0.000572371
0.0219261
0.000651024
0.0219236
0.000729117
0.0219224
0.000806601
0.0219188
0.000883797
0.0219087
0.000959796
0.0219061
0.00103513
0.0218947
0.00110979
0.0218809
0.0011826
0.0218778
0.00125546
0.0218509
0.00132665
0.0218414
0.00139622
0.0218293
0.001466
0.0217948
0.00153315
0.0217908
0.00160065
0.0217521
0.00166666
0.0217329
0.00173101
0.0217149
0.00179653
0.0216645
0.0018591
0.0216598
0.00192365
0.0215995
0.00198649
0.0215804
0.00204901
0.0215453
0.00211272
0.0214924
0.0214885
0.00217316
-0.00186559
0.0213316
-0.00177864
0.0213406
-0.00169551
0.0214342
-0.0016086
0.021438
-0.00152183
0.0214881
-0.00143373
0.0215209
-0.00134267
0.0215341
-0.00125253
0.0215923
-0.00115851
0.0215934
-0.00106429
0.0216362
-0.000967863
0.0216539
-0.000868866
0.0216656
-0.000769824
0.0217047
-0.000667757
0.0217067
-0.000564949
0.0217327
-0.000460649
0.0217474
-0.000354122
0.0217506
-0.0002477
0.0217778
-0.000139525
0.0217808
-3.02206e-05
0.0217879
7.92133e-05
0.0218014
0.000189545
0.0218036
0.000300399
0.0218085
0.000411398
0.0218131
0.000522528
0.0218143
0.000633434
0.0218152
0.000744003
0.021813
0.00085372
0.0218127
0.000962381
0.0218101
0.00107016
0.0218009
0.00117599
0.0218003
0.00128026
0.0217904
0.00138282
0.0217783
0.00148233
0.0217783
0.00158064
0.0217525
0.00167585
0.0217462
0.00176793
0.0217372
0.00185867
0.021704
0.00194508
0.0217044
0.00203019
0.021667
0.00211209
0.021651
0.00219056
0.0216364
0.00226852
0.0215866
0.00234176
0.0215866
0.00241538
0.0215259
0.00248563
0.0215101
0.00255395
0.021477
0.00262198
0.0214243
0.0214254
0.00268514
-0.00255906
0.0212417
-0.00246365
0.0212452
-0.00237026
0.0213408
-0.00227084
0.0213386
-0.00216949
0.0213867
-0.00206465
0.0214161
-0.00195456
0.021424
-0.00184335
0.0214811
-0.00172603
0.021476
-0.00160656
0.0215167
-0.00148292
0.0215302
-0.00135485
0.0215376
-0.00122512
0.0215749
-0.0010907
0.0215723
-0.00095408
0.021596
-0.000814564
0.0216078
-0.00067147
0.0216075
-0.000527354
0.0216337
-0.000380365
0.0216338
-0.000231313
0.0216389
-8.11546e-05
0.0216512
7.06176e-05
0.0216519
0.000223157
0.0216559
0.000376313
0.02166
0.000529895
0.0216607
0.000683343
0.0216618
0.00083634
0.02166
0.000988141
0.0216609
0.0011383
0.02166
0.00128677
0.0216524
0.0014322
0.0216549
0.00157477
0.0216479
0.00171411
0.021639
0.00184862
0.0216438
0.00198002
0.0216211
0.00210619
0.02162
0.00222692
0.0216165
0.00234397
0.021587
0.00245413
0.0215942
0.00256047
0.0215606
0.00266096
0.0215505
0.00275536
0.021542
0.00284673
0.0214952
0.00293075
0.0215025
0.00301277
0.0214439
0.00308901
0.0214339
0.00316109
0.0214049
0.00323079
0.0213546
0.0213627
0.00329351
-0.00346713
0.02115
-0.00336635
0.0211444
-0.00326506
0.0212396
-0.0031545
0.021228
-0.00303868
0.0212709
-0.0029156
0.021293
-0.00278337
0.0212918
-0.00264647
0.0213442
-0.00249989
0.0213295
-0.00234812
0.021365
-0.00218937
0.0213715
-0.00202365
0.0213718
-0.00185412
0.0214054
-0.00167774
0.0213959
-0.00149728
0.0214156
-0.00131208
0.0214227
-0.0011215
0.0214169
-0.000928268
0.0214405
-0.00073048
0.021436
-0.000529078
0.0214375
-0.000325235
0.0214474
-0.000118451
0.0214451
9.03074e-05
0.0214472
0.000300169
0.0214501
0.000511026
0.0214498
0.000722097
0.0214507
0.000932752
0.0214493
0.00114186
0.0214518
0.00134858
0.0214532
0.0015525
0.0214485
0.00175178
0.0214556
0.00194628
0.0214534
0.00213522
0.02145
0.00231658
0.0214625
0.00249192
0.0214458
0.0026587
0.0214532
0.00281649
0.0214587
0.00296697
0.0214365
0.0031066
0.0214546
0.00323852
0.0214287
0.00336053
0.0214285
0.00347236
0.0214301
0.00357727
0.0213903
0.00367082
0.021409
0.0037588
0.0213559
0.00383746
0.0213552
0.00390878
0.0213336
0.00397489
0.0212885
0.0213064
0.00403111
-0.00385741
0.0210843
-0.00378124
0.0210683
-0.00369999
0.0211583
-0.00360347
0.0211315
-0.00349477
0.0211622
-0.00337264
0.0211709
-0.00323655
0.0211557
-0.00309174
0.0211994
-0.00293492
0.0211726
-0.00277104
0.0212011
-0.00259918
0.0211996
-0.00241981
0.0211925
-0.00223593
0.0212215
-0.00204492
0.0212049
-0.00184919
0.0212198
-0.00164804
0.0212215
-0.00144072
0.0212096
-0.00122949
0.0212293
-0.00101249
0.021219
-0.000790467
0.0212155
-0.000564412
0.0212213
-0.000333941
0.0212146
-0.000100068
0.0212133
0.000136358
0.0212137
0.000374681
0.0212115
0.000613953
0.0212114
0.000853288
0.02121
0.00109121
0.0212139
0.00132647
0.021218
0.00155819
0.0212168
0.00178418
0.0212296
0.00200382
0.0212337
0.00221596
0.0212379
0.00241834
0.0212601
0.00261207
0.0212521
0.00279454
0.0212708
0.00296513
0.0212881
0.00312525
0.0212764
0.00327154
0.0213083
0.00340679
0.0212935
0.00352894
0.0213063
0.00363771
0.0213214
0.00373599
0.021292
0.00381976
0.0213252
0.00389428
0.0212814
0.00395635
0.0212932
0.00400812
0.0212818
0.00405217
0.0212445
0.0212735
0.00408508
-0.00407051
0.0210413
-0.0040278
0.0210256
-0.00397649
0.021107
-0.00389865
0.0210537