/*--------------------------------*- C++ -*----------------------------------*\
| =========                 |                                                 |
| \\      /  F ield         | OpenFOAM: The Open Source CFD Toolbox           |
|  \\    /   O peration     | Version:  2312                                  |
|   \\  /    A nd           | Website:  www.openfoam.com                      |
|    \\/     M anipulation  |                                                 |
\*---------------------------------------------------------------------------*/
FoamFile
{
    version     2.0;
    format      ascii;
    arch        "LSB;label=32;scalar=64";
    class       volScalarField;
    location    "80.044179528376574";
    object      p;
}
// * * * * * * * * * * * * * * * * * * * * * * * * * * * * * * * * * * * * * //

dimensions      [0 2 -2 0 0 0 0];

internalField   nonuniform List<scalar> 
21039
(
0.592617
0.458718
0.416618
0.388382
0.367086
0.351041
0.338647
0.3288
0.320819
0.314255
0.308792
0.3042
0.300309
0.296989
0.294137
0.291672
0.289528
0.287648
0.285987
0.284504
0.283165
0.281939
0.280798
0.279775
0.278891
0.278104
0.277375
0.276676
0.275993
0.445439
0.407598
0.393806
0.375445
0.358708
0.345456
0.334747
0.325948
0.318667
0.312593
0.307485
0.303158
0.299469
0.296308
0.293584
0.291223
0.289165
0.287359
0.285761
0.284332
0.283038
0.281851
0.280742
0.27974
0.278865
0.27808
0.277353
0.276654
0.275972
0.355975
0.353607
0.355791
0.34906
0.340644
0.33288
0.325664
0.319179
0.313499
0.308567
0.304294
0.300594
0.29739
0.29461
0.292192
0.290083
0.288237
0.286611
0.285168
0.283876
0.282703
0.281621
0.280606
0.279679
0.278857
0.278111
0.277414
0.27674
0.276079
0.31782
0.319944
0.324434
0.323373
0.32078
0.317588
0.313819
0.309941
0.306222
0.302766
0.299617
0.29679
0.294273
0.292045
0.290079
0.288347
0.286819
0.285469
0.284268
0.283191
0.282213
0.281308
0.280454
0.279664
0.278949
0.278289
0.277659
0.277037
0.276416
0.292709
0.296683
0.30259
0.304321
0.304548
0.303848
0.302346
0.300455
0.298398
0.296301
0.294262
0.29234
0.290567
0.288958
0.287512
0.286225
0.285083
0.284072
0.283175
0.282374
0.281648
0.280977
0.280344
0.279745
0.279184
0.278644
0.278109
0.277562
0.276996
0.272958
0.278218
0.285579
0.289463
0.291493
0.292328
0.29229
0.291759
0.29092
0.289897
0.288795
0.287684
0.286612
0.285609
0.284694
0.283874
0.283149
0.282515
0.281962
0.28148
0.281053
0.280665
0.2803
0.279939
0.27957
0.279184
0.27877
0.278317
0.277822
0.26006
0.265086
0.272182
0.277134
0.280374
0.282341
0.283391
0.28387
0.283955
0.283778
0.283444
0.283028
0.282581
0.282143
0.281738
0.281383
0.281086
0.280849
0.280668
0.280538
0.280448
0.280385
0.280335
0.280257
0.28012
0.279921
0.279659
0.279325
0.278917
0.252615
0.256717
0.262452
0.267395
0.271111
0.273716
0.275488
0.276696
0.277488
0.277985
0.278285
0.27846
0.278565
0.27864
0.278716
0.278812
0.278941
0.27911
0.27932
0.279569
0.279849
0.280148
0.280455
0.280704
0.280846
0.280869
0.280791
0.280638
0.280335
0.247925
0.251127
0.255482
0.259958
0.263654
0.266468
0.268608
0.270267
0.271553
0.272559
0.273365
0.274034
0.274617
0.275153
0.275672
0.276197
0.276743
0.27732
0.277933
0.27858
0.279258
0.279958
0.280669
0.281295
0.281746
0.282025
0.282145
0.282113
0.28195
0.244336
0.246789
0.250097
0.254032
0.257525
0.26034
0.262632
0.264541
0.266145
0.267514
0.268707
0.269776
0.270763
0.271704
0.272627
0.273554
0.274502
0.275482
0.276501
0.27756
0.27866
0.279791
0.280946
0.281994
0.282805
0.283384
0.28375
0.283909
0.283884
0.241151
0.243001
0.245559
0.248975
0.252216
0.254963
0.257309
0.259356
0.261165
0.262789
0.264276
0.265663
0.266989
0.268281
0.269568
0.270868
0.272199
0.273572
0.274996
0.276476
0.278013
0.279603
0.28124
0.282759
0.283981
0.284908
0.285562
0.285953
0.286099
0.238063
0.239464
0.241491
0.244435
0.247414
0.250061
0.25241
0.254531
0.256476
0.258285
0.259996
0.261641
0.263249
0.264847
0.266458
0.268101
0.269793
0.271546
0.27337
0.275272
0.277256
0.279323
0.281474
0.283505
0.285185
0.286507
0.287493
0.288152
0.288502
0.234921
0.236008
0.237664
0.240202
0.242927
0.245458
0.247775
0.249928
0.251958
0.2539
0.255783
0.257634
0.259478
0.261339
0.263239
0.265195
0.267225
0.269341
0.271554
0.273872
0.276303
0.278851
0.281529
0.284098
0.286271
0.28803
0.289391
0.290358
0.290948
0.231668
0.232535
0.233926
0.236123
0.238613
0.241021
0.243286
0.245438
0.247516
0.249549
0.25156
0.253573
0.255611
0.257697
0.25985
0.26209
0.264433
0.266893
0.26948
0.272201
0.275064
0.278077
0.281261
0.284353
0.287018
0.289227
0.290989
0.292295
0.293156
0.228295
0.229007
0.230188
0.232084
0.234348
0.236627
0.238827
0.240959
0.243056
0.245143
0.247243
0.249377
0.251569
0.25384
0.256211
0.258704
0.261336
0.26412
0.267064
0.270171
0.273442
0.276882
0.280512
0.284041
0.287113
0.289712
0.291849
0.293498
0.294653
0.2251
0.2257
0.226713
0.228384
0.230465
0.232623
0.234752
0.236853
0.238948
0.241062
0.243216
0.245433
0.247735
0.250147
0.252694
0.255401
0.258286
0.26136
0.26463
0.268091
0.271727
0.275518
0.279452
0.283177
0.28634
0.288994
0.291217
0.293021
0.294389
0.222412
0.222938
0.223849
0.225375
0.227319
0.229373
0.231441
0.233515
0.235608
0.23774
0.239931
0.242206
0.244592
0.247116
0.249809
0.252698
0.255804
0.259141
0.262712
0.266506
0.270486
0.274586
0.27872
0.28239
0.28519
0.287246
0.288793
0.290068
0.291289
0.220202
0.220681
0.221519
0.222941
0.224778
0.226762
0.228802
0.230875
0.232978
0.23513
0.237356
0.239684
0.242146
0.244774
0.247603
0.250663
0.253982
0.257578
0.261457
0.265602
0.269964
0.274434
0.27883
0.282417
0.284552
0.285224
0.284664
0.283358
0.282413
0.218434
0.218962
0.219819
0.221141
0.222807
0.224674
0.226691
0.228786
0.230921
0.233107
0.235378
0.237768
0.240313
0.243051
0.24602
0.249258
0.252797
0.256665
0.260873
0.265413
0.270236
0.275219
0.280121
0.283975
0.285728
0.284831
0.280904
0.273322
0.261715
0.275322
0.274648
0.273981
0.27332
0.272664
0.272011
0.271362
0.270714
0.270067
0.26942
0.268772
0.268123
0.267471
0.266816
0.266157
0.265493
0.264824
0.264149
0.263468
0.262781
0.262086
0.261385
0.260677
0.259961
0.259238
0.258509
0.257772
0.257029
0.25628
0.255525
0.254765
0.254
0.25323
0.252456
0.25168
0.250902
0.250122
0.249341
0.248561
0.247782
0.247006
0.246232
0.245463
0.244698
0.243939
0.243187
0.242443
0.241706
0.240978
0.275305
0.27464
0.273984
0.273334
0.272688
0.272046
0.271406
0.270769
0.270132
0.269495
0.268856
0.268216
0.267572
0.266925
0.266273
0.265616
0.264953
0.264283
0.263607
0.262922
0.262231
0.261531
0.260824
0.260108
0.259384
0.258653
0.257914
0.257167
0.256414
0.255654
0.254888
0.254116
0.25334
0.252559
0.251774
0.250987
0.250198
0.249408
0.248617
0.247828
0.24704
0.246255
0.245475
0.244698
0.243928
0.243164
0.242408
0.24166
0.240921
0.275435
0.274797
0.274165
0.27354
0.272918
0.272299
0.271681
0.271065
0.270448
0.269829
0.269207
0.268582
0.267953
0.267317
0.266676
0.266027
0.26537
0.264705
0.264031
0.263348
0.262655
0.261952
0.26124
0.260518
0.259785
0.259044
0.258293
0.257533
0.256764
0.255988
0.255204
0.254413
0.253616
0.252813
0.252006
0.251196
0.250382
0.249567
0.24875
0.247934
0.247119
0.246306
0.245496
0.24469
0.24389
0.243096
0.242309
0.24153
0.24076
0.275811
0.275212
0.274618
0.274027
0.273439
0.272851
0.272264
0.271675
0.271083
0.270487
0.269886
0.269279
0.268664
0.268041
0.26741
0.266768
0.266116
0.265452
0.264777
0.264089
0.26339
0.262678
0.261953
0.261216
0.260467
0.259706
0.258933
0.258148
0.257354
0.256549
0.255734
0.254911
0.25408
0.253242
0.252398
0.251549
0.250695
0.249839
0.24898
0.24812
0.24726
0.246401
0.245545
0.244692
0.243843
0.242999
0.242162
0.241332
0.240511
0.276441
0.275895
0.275349
0.274804
0.274258
0.27371
0.273159
0.272604
0.272042
0.271473
0.270895
0.270308
0.269709
0.269099
0.268476
0.26784
0.267189
0.266524
0.265843
0.265147
0.264434
0.263706
0.262962
0.262203
0.261428
0.260637
0.259833
0.259014
0.258182
0.257337
0.25648
0.255612
0.254734
0.253847
0.252952
0.25205
0.251142
0.250229
0.249312
0.248393
0.247473
0.246552
0.245632
0.244714
0.2438
0.24289
0.241985
0.241086
0.240196
0.277331
0.276849
0.276363
0.275874
0.275381
0.274881
0.274375
0.273859
0.273333
0.272796
0.272245
0.27168
0.271099
0.270503
0.269888
0.269256
0.268604
0.267934
0.267243
0.266532
0.265802
0.265051
0.26428
0.263489
0.262679
0.26185
0.261003
0.260139
0.259258
0.258361
0.257449
0.256524
0.255585
0.254635
0.253675
0.252705
0.251727
0.250743
0.249753
0.248758
0.247761
0.246762
0.245763
0.244764
0.243767
0.242773
0.241783
0.240799
0.239823
0.278501
0.278094
0.27768
0.277258
0.276828
0.276387
0.275933
0.275465
0.274981
0.27448
0.27396
0.27342
0.272859
0.272276
0.271669
0.271039
0.270384
0.269705
0.269
0.268269
0.267514
0.266733
0.265927
0.265097
0.264242
0.263365
0.262465
0.261543
0.260601
0.259639
0.258659
0.257662
0.256649
0.255621
0.25458
0.253527
0.252463
0.251391
0.250311
0.249225
0.248134
0.247039
0.245943
0.244846
0.243749
0.242655
0.241563
0.240476
0.239397
0.27995
0.279639
0.279316
0.278977
0.278623
0.27825
0.277859
0.277446
0.27701
0.276551
0.276065
0.275553
0.275013
0.274444
0.273845
0.273215
0.272555
0.271862
0.271138
0.270383
0.269596
0.268778
0.267929
0.26705
0.266141
0.265204
0.26424
0.263249
0.262233
0.261193
0.260131
0.259047
0.257944
0.256822
0.255684
0.254531
0.253365
0.252187
0.250999
0.249803
0.2486
0.247392
0.24618
0.244966
0.243751
0.242537
0.241325
0.240117
0.238918
0.281781
0.281582
0.28133
0.281074
0.280798
0.2805
0.280177
0.279825
0.279443
0.279029
0.278582
0.278101
0.277584
0.27703
0.276438
0.275807
0.275139
0.274431
0.273684
0.272899
0.272074
0.271212
0.270313
0.269376
0.268405
0.267398
0.266358
0.265286
0.264183
0.26305
0.261891
0.260705
0.259495
0.258263
0.25701
0.255739
0.254451
0.253148
0.251833
0.250506
0.249171
0.247828
0.246481
0.245129
0.243776
0.242422
0.241068
0.23972
0.238382
0.283835
0.283785
0.2837
0.283564
0.283346
0.283131
0.282882
0.2826
0.28228
0.28192
0.281518
0.281072
0.280581
0.280045
0.279463
0.278834
0.278157
0.277433
0.276662
0.275844
0.27498
0.274069
0.273113
0.272113
0.271069
0.269984
0.268857
0.267692
0.266489
0.265251
0.263978
0.262674
0.26134
0.259977
0.25859
0.257179
0.255747
0.254297
0.252831
0.251351
0.249859
0.248357
0.246849
0.245335
0.243818
0.2423
0.240782
0.23927
0.23777
0.286192
0.286265
0.286298
0.2863
0.286264
0.286186
0.28593
0.285742
0.285501
0.285206
0.284859
0.284459
0.284005
0.283495
0.28293
0.282308
0.281629
0.280894
0.280103
0.279255
0.278352
0.277393
0.276379
0.275312
0.274192
0.273021
0.2718
0.270532
0.269216
0.267856
0.266454
0.265012
0.263534
0.262019
0.260472
0.258897
0.257294
0.255669
0.254022
0.252357
0.250679
0.248987
0.247287
0.245579
0.243868
0.242156
0.240442
0.238737
0.237048
0.288771
0.288996
0.289159
0.289275
0.289344
0.28937
0.289343
0.289252
0.289095
0.288864
0.288588
0.288249
0.287846
0.28738
0.286848
0.28625
0.285586
0.284855
0.284058
0.283192
0.28226
0.281261
0.280195
0.279065
0.27787
0.27661
0.27529
0.273909
0.272469
0.270973
0.269424
0.267822
0.266173
0.264477
0.262741
0.260967
0.259156
0.257317
0.25545
0.25356
0.251652
0.249727
0.247793
0.245849
0.243902
0.241953
0.240004
0.238067
0.236152
0.291423
0.291825
0.292154
0.292426
0.292639
0.292793
0.292886
0.292919
0.29289
0.292789
0.292617
0.292377
0.292065
0.291683
0.291224
0.290688
0.290073
0.289379
0.288607
0.287752
0.286817
0.285801
0.284701
0.283522
0.282261
0.280918
0.279498
0.278
0.276423
0.274774
0.273054
0.271265
0.269412
0.267497
0.265527
0.263507
0.261437
0.259328
0.257183
0.255007
0.252809
0.250588
0.248357
0.246115
0.243871
0.241628
0.239387
0.237164
0.234973
0.293867
0.294467
0.294989
0.295453
0.295854
0.296193
0.296467
0.296677
0.296821
0.296892
0.296891
0.296808
0.296645
0.296414
0.296104
0.295698
0.295197
0.294601
0.293911
0.293118
0.292227
0.291236
0.290138
0.288939
0.287635
0.286222
0.284708
0.283089
0.281364
0.279541
0.27762
0.275602
0.273497
0.271304
0.269034
0.266694
0.264284
0.26182
0.259305
0.25675
0.254165
0.251552
0.248927
0.246293
0.243661
0.241037
0.238422
0.235837
0.2333
0.295626
0.296438
0.297186
0.297895
0.29856
0.299181
0.299749
0.300258
0.300703
0.30107
0.30136
0.301558
0.30166
0.30166
0.301557
0.301387
0.301111
0.300712
0.300194
0.299545
0.298774
0.297877
0.296842
0.295675
0.294368
0.292915
0.291322
0.289586
0.287699
0.285675
0.28351
0.281207
0.278778
0.276221
0.273553
0.270782
0.267911
0.264961
0.261938
0.258858
0.255736
0.252579
0.24941
0.246235
0.243074
0.239935
0.236824
0.233768
0.230789
0.295588
0.296567
0.297581
0.298667
0.299793
0.300932
0.302039
0.303085
0.304048
0.304903
0.305649
0.306272
0.306776
0.30716
0.307407
0.307516
0.307481
0.307482
0.307215
0.306807
0.306258
0.305551
0.304666
0.303608
0.302364
0.30092
0.299283
0.297443
0.29539
0.293139
0.290685
0.28803
0.285193
0.28217
0.278984
0.275648
0.272168
0.268572
0.26487
0.261084
0.257237
0.25334
0.24943
0.24552
0.241641
0.237816
0.234061
0.230415
0.226912
0.292639
0.293679
0.295134
0.296992
0.299046
0.301142
0.303147
0.304998
0.306663
0.308125
0.309403
0.310496
0.311431
0.312222
0.312866
0.313379
0.313722
0.313913
0.314034
0.313981
0.313748
0.313327
0.312689
0.311834
0.310739
0.30938
0.307759
0.305859
0.303666
0.301193
0.298436
0.295399
0.292104
0.288552
0.284776
0.280793
0.276613
0.272276
0.267793
0.263195
0.258505
0.253741
0.248944
0.244133
0.239356
0.234654
0.230075
0.225697
0.221587
0.282288
0.283751
0.287395
0.29191
0.296328
0.300288
0.303674
0.306524
0.308921
0.310935
0.312658
0.314131
0.315414
0.316544
0.31753
0.318407
0.319149
0.319753
0.320223
0.320585
0.320767
0.320735
0.320453
0.319913
0.319072
0.317888
0.316355
0.314443
0.312129
0.30943
0.306339
0.302866
0.299045
0.294881
0.290423
0.285698
0.280726
0.275563
0.270221
0.264742
0.259148
0.25345
0.247684
0.241849
0.235985
0.23013
0.224366
0.218894
0.213994
0.252868
0.264081
0.276866
0.287396
0.295325
0.30118
0.305533
0.308876
0.311541
0.313732
0.315604
0.317228
0.318687
0.320022
0.321257
0.322431
0.32353
0.324563
0.325493
0.326265
0.326953
0.327395
0.327567
0.327448
0.326977
0.326084
0.32474
0.322897
0.320518
0.317626
0.314217
0.310307
0.305946
0.301152
0.295991
0.290511
0.284744
0.278765
0.272599
0.266298
0.259889
0.253376
0.246777
0.240045
0.233147
0.225997
0.218518
0.210783
0.203409
0.240269
0.239545
0.23878
0.237969
0.237098
0.236166
0.235198
0.234319
0.233621
0.233131
0.232881
0.23291
0.233263
0.233981
0.235119
0.236741
0.238925
0.241771
0.245406
0.249996
0.255769
0.263036
0.272244
0.284073
0.299621
0.320493
0.348381
0.390148
0.523775
0.240197
0.239457
0.238674
0.237839
0.236938
0.235968
0.234955
0.234029
0.23328
0.232739
0.232425
0.232397
0.232679
0.233314
0.234352
0.235851
0.237882
0.240531
0.243907
0.248149
0.253437
0.26001
0.268174
0.278319
0.291074
0.307377
0.325379
0.338828
0.376417
0.240005
0.239229
0.238402
0.237513
0.236545
0.235492
0.23438
0.23334
0.232473
0.231808
0.231352
0.231174
0.231282
0.231715
0.232511
0.233715
0.235378
0.237556
0.240318
0.243737
0.247895
0.252876
0.258733
0.26539
0.272657
0.280629
0.286974
0.284405
0.286525
0.239702
0.238866
0.237967
0.236992
0.23592
0.234741
0.233474
0.23226
0.231208
0.230344
0.229692
0.229276
0.22912
0.229248
0.229686
0.230458
0.231589
0.2331
0.23501
0.237323
0.240023
0.243057
0.246319
0.249536
0.252232
0.254374
0.255019
0.250121
0.247773
0.239313
0.238394
0.237399
0.236309
0.235098
0.23375
0.232279
0.23084
0.229554
0.228443
0.227528
0.226825
0.22635
0.226117
0.226136
0.226415
0.226956
0.227752
0.228783
0.230014
0.231378
0.232772
0.234063
0.235025
0.235236
0.234556
0.232394
0.226089
0.221934
0.238848
0.237827
0.236711
0.235477
0.234094
0.232538
0.23082
0.22911
0.227547
0.22615
0.224935
0.223912
0.22309
0.222473
0.222061
0.221847
0.221819
0.221952
0.222209
0.222538
0.22286
0.223065
0.223021
0.222539
0.22123
0.218754
0.214441
0.206705
0.201309
0.238311
0.237166
0.235903
0.234496
0.232907
0.231105
0.229097
0.227074
0.225198
0.223484
0.221943
0.220582
0.219403
0.218402
0.217571
0.216895
0.216352
0.215908
0.215519
0.215124
0.214642
0.213962
0.212944
0.211404
0.208987
0.205318
0.199951
0.192514
0.187396
0.237702
0.236408
0.234973
0.233362
0.231531
0.229443
0.227102
0.224727
0.222505
0.22045
0.218567
0.21686
0.215326
0.213954
0.212732
0.211638
0.210642
0.209709
0.208788
0.207817
0.206716
0.205379
0.203678
0.201456
0.198437
0.194321
0.188993
0.182967
0.178813
0.237013
0.235545
0.233907
0.232058
0.229946
0.22753
0.224813
0.222049
0.219454
0.217039
0.214807
0.212756
0.210879
0.209162
0.207585
0.206124
0.204745
0.203411
0.20207
0.200665
0.199123
0.197355
0.195261
0.192725
0.189545
0.185495
0.180683
0.176096
0.172875
0.236222
0.234552
0.232678
0.230552
0.228117
0.225327
0.222189
0.219
0.216009
0.213223
0.210642
0.208259
0.206061
0.204031
0.202145
0.200376
0.198688
0.197043
0.195394
0.193689
0.191868
0.189861
0.18759
0.184971
0.181853
0.178068
0.173861
0.170382
0.167935
0.235291
0.233383
0.231232
0.228784
0.225978
0.222764
0.219159
0.215513
0.212108
0.208947
0.206026
0.203331
0.200844
0.198543
0.196399
0.194384
0.192461
0.190592
0.188735
0.186843
0.184866
0.182749
0.180429
0.177839
0.174868
0.171413
0.1678
0.165133
0.163306
0.234145
0.231955
0.22948
0.226658
0.223423
0.219732
0.215614
0.211481
0.207653
0.204126
0.200885
0.197909
0.195175
0.192652
0.190309
0.188112
0.186026
0.184012
0.182031
0.180041
0.177998
0.175857
0.173568
0.171073
0.168294
0.165193
0.162136
0.160058
0.158691
0.232663
0.230137
0.227277
0.224016
0.22029
0.216065
0.211393
0.206758
0.202514
0.198643
0.195118
0.191909
0.18898
0.186295
0.183817
0.181508
0.17933
0.177245
0.175214
0.1732
0.171163
0.169066
0.166867
0.164517
0.161962
0.159217
0.156651
0.154996
0.153951
0.230616
0.227684
0.224368
0.220597
0.216317
0.211511
0.206264
0.201137
0.196511
0.192345
0.188597
0.185221
0.182169
0.179396
0.176857
0.17451
0.172314
0.170233
0.168223
0.166252
0.164285
0.162289
0.160227
0.158058
0.155747
0.153344
0.151205
0.149859
0.149036
0.227638
0.224214
0.220361
0.216012
0.211131
0.205728
0.199929
0.194367
0.189435
0.185062
0.181184
0.177733
0.174651
0.171879
0.169367
0.167066
0.164932
0.162925
0.161007
0.159144
0.157304
0.155456
0.15357
0.151608
0.149556
0.147492
0.14573
0.144624
0.143948
0.223226
0.219267
0.214868
0.209972
0.204568
0.198693
0.1925
0.186675
0.181601
0.177176
0.17331
0.169917
0.166922
0.16426
0.161871
0.159703
0.15771
0.15585
0.154085
0.152381
0.150709
0.149041
0.147349
0.145607
0.14381
0.142043
0.140583
0.139667
0.139092
0.217313
0.212827
0.208001
0.202762
0.197086
0.191006
0.184684
0.178827
0.173804
0.16949
0.165772
0.162551
0.15974
0.157268
0.155069
0.153091
0.151285
0.149609
0.148025
0.146501
0.145006
0.143517
0.142011
0.140476
0.138917
0.137405
0.136173
0.135396
0.134893
0.209202
0.204483
0.199722
0.194611
0.189045
0.183062
0.176854
0.171156
0.166333
0.162247
0.15877
0.155795
0.153227
0.15099
0.149018
0.147256
0.145656
0.144177
0.142782
0.14144
0.14012
0.138796
0.137451
0.136086
0.134728
0.133438
0.132402
0.131747
0.131303
0.197564
0.194015
0.190392
0.185975
0.180859
0.1752
0.169276
0.163872
0.159349
0.155565
0.152386
0.149697
0.1474
0.145417
0.143682
0.142141
0.140748
0.139462
0.13825
0.137079
0.135917
0.134736
0.133522
0.132317
0.131197
0.130192
0.129355
0.128746
0.128281
0.216643
0.216952
0.217626
0.218966
0.220818
0.222884
0.225019
0.227163
0.229323
0.231543
0.233867
0.236331
0.238973
0.241834
0.244955
0.248378
0.252143
0.256285
0.260822
0.265751
0.271036
0.276548
0.282017
0.286325
0.288059
0.285962
0.278431
0.263029
0.231102
0.214873
0.215304
0.21609
0.217417
0.219182
0.221167
0.223257
0.225397
0.22759
0.229869
0.232273
0.234836
0.237597
0.2406
0.243889
0.247513
0.251519
0.25595
0.260839
0.266206
0.272055
0.278328
0.28484
0.290582
0.294231
0.295018
0.292316
0.288076
0.292443
0.213081
0.213592
0.214461
0.215781
0.217474
0.219379
0.221406
0.223518
0.225721
0.228037
0.230498
0.233136
0.235991
0.23911
0.242542
0.246345
0.250578
0.255303
0.26058
0.26648
0.273099
0.28056
0.289008
0.297941
0.306507
0.314884
0.323382
0.330761
0.34801
0.21124
0.21173
0.21257
0.213873
0.215567
0.217474
0.219491
0.221591
0.223793
0.226125
0.228618
0.231305
0.234227
0.237433
0.24098
0.244933
0.249368
0.254367
0.260029
0.266488
0.273959
0.282796
0.293566
0.306324
0.320436
0.336066
0.354284
0.370997
0.393462
0.209355
0.209809
0.210597
0.211866
0.213557
0.215474
0.217492
0.219587
0.221785
0.224122
0.226631
0.229346
0.232311
0.235577
0.239208
0.243277
0.247872
0.253098
0.259089
0.266042
0.274278
0.284355
0.297196
0.31316
0.331726
0.352389
0.377447
0.401215
0.427493
0.207427
0.207862
0.208616
0.209845
0.211503
0.213398
0.215398
0.217476
0.219661
0.221989
0.224495
0.227215
0.230196
0.233489
0.237163
0.241298
0.245991
0.251366
0.257583
0.264884
0.273662
0.284599
0.298865
0.316763
0.337914
0.360913
0.388576
0.418424
0.448679
0.205452
0.205875
0.206605
0.207792
0.209398
0.211245
0.213207
0.215251
0.217404
0.219704
0.222184
0.224882
0.227843
0.231123
0.234789
0.238926
0.243638
0.249056
0.255356
0.262805
0.271808
0.283074
0.297937
0.315979
0.338476
0.363217
0.389915
0.417942
0.446301
0.203425
0.203836
0.20454
0.205679
0.207224
0.209012
0.210919
0.212911
0.215014
0.217261
0.219688
0.222332
0.225235
0.228453
0.232054
0.23612
0.240756
0.246095
0.252307
0.259671
0.268524
0.2795
0.29403
0.312505
0.333899
0.35698
0.38067
0.404601
0.428587
0.201346
0.201743
0.202417
0.203503
0.204978
0.206695
0.208532
0.210456
0.212487
0.214659
0.217004
0.219558
0.222362
0.225468
0.228939
0.232854
0.237312
0.242439
0.248372
0.255427
0.263634
0.274253
0.287957
0.304982
0.323787
0.343563
0.363522
0.383377
0.402488
0.199212
0.199597
0.200241
0.201269
0.202663
0.204294
0.206046
0.207884
0.209823
0.211894
0.214128
0.216558
0.219219
0.22216
0.225437
0.22912
0.233293
0.238074
0.243528
0.249963
0.257673
0.267241
0.279266
0.293692
0.309226
0.325157
0.340934
0.356549
0.37106
0.197023
0.197393
0.198004
0.198969
0.200277
0.201812
0.203464
0.205197
0.207024
0.208971
0.211066
0.213336
0.215813
0.218538
0.22156
0.224931
0.228722
0.233018
0.237943
0.243633
0.250363
0.258447
0.268293
0.279706
0.291653
0.303488
0.314808
0.325904
0.335953
0.19478
0.195136
0.195713
0.196611
0.197825
0.199252
0.200791
0.202403
0.204097
0.205897
0.207825
0.209904
0.212159
0.214622
0.217333
0.22032
0.223659
0.2274
0.231637
0.236413
0.241876
0.248245
0.255701
0.263957
0.272213
0.279974
0.286996
0.293745
0.299657
0.192487
0.192834
0.193379
0.194208
0.195317
0.196622
0.19803
0.199503
0.201046
0.202677
0.204414
0.206272
0.208268
0.210426
0.212773
0.215337
0.218154
0.221249
0.224662
0.228391
0.232479
0.237029
0.242022
0.247127
0.251831
0.255841
0.259088
0.262087
0.2645
0.190143
0.190477
0.190984
0.19174
0.192743
0.193922
0.195191
0.196513
0.197889
0.199332
0.200854
0.202466
0.204175
0.205996
0.207943
0.21003
0.212268
0.21465
0.217164
0.219779
0.222451
0.225161
0.227739
0.229877
0.231387
0.232179
0.232334
0.23236
0.232105
0.187756
0.188077
0.188548
0.189228
0.19012
0.191165
0.192285
0.193444
0.194639
0.195879
0.197172
0.198519
0.19992
0.201379
0.202898
0.204471
0.206088
0.207719
0.20931
0.210789
0.212046
0.212969
0.213288
0.212775
0.211557
0.209724
0.207469
0.205285
0.203193
0.185331
0.185642
0.186076
0.18668
0.187457
0.18836
0.189323
0.190309
0.191312
0.192337
0.193391
0.194459
0.195536
0.196615
0.197684
0.198722
0.199697
0.200558
0.20122
0.201571
0.201456
0.200699
0.198972
0.196163
0.192688
0.188788
0.184726
0.180993
0.177768
0.182872
0.18317
0.183565
0.184093
0.184754
0.185515
0.186318
0.187129
0.187927
0.18874
0.189543
0.190323
0.191067
0.191757
0.192367
0.192862
0.193193
0.193287
0.193034
0.192295
0.190883
0.188586
0.185048
0.180291
0.17499
0.169505
0.164128
0.159348
0.155504
0.180386
0.180674
0.181031
0.181482
0.182028
0.182646
0.183285
0.18391
0.184522
0.185109
0.185658
0.18615
0.18656
0.18686
0.187014
0.186973
0.186672
0.186019
0.184888
0.183119
0.180509
0.176824
0.171705
0.165316
0.158553
0.151862
0.145515
0.140011
0.135846
0.177884
0.178164
0.178486
0.178861
0.179294
0.179766
0.180231
0.180687
0.1811
0.181465
0.181765
0.181971
0.182053
0.181973
0.181682
0.181123
0.180213
0.17885
0.17689
0.174164
0.170458
0.165531
0.159035
0.151274
0.143327
0.135695
0.128598
0.122549
0.118209
0.17537
0.175642
0.175925
0.176227
0.17655
0.176878
0.17719
0.177468
0.177687
0.177839
0.177898
0.177829
0.177596
0.177151
0.176439
0.175389
0.17391
0.171884
0.169161
0.165559
0.160861
0.154826
0.147126
0.138197
0.129276
0.120891
0.113183
0.106694
0.102246
0.172854
0.173118
0.173365
0.173597
0.173813
0.174009
0.17417
0.174271
0.174308
0.174258
0.174089
0.173762
0.173234
0.172451
0.17135
0.169851
0.167853
0.16523
0.161821
0.157437
0.151859
0.144845
0.13609
0.126153
0.116407
0.107402
0.0991758
0.0923159
0.0878147
0.170345
0.170602
0.170817
0.17098
0.171102
0.171169
0.171177
0.171118
0.170985
0.170747
0.170367
0.169803
0.169006
0.167918
0.166468
0.16457
0.162116
0.158971
0.154968
0.149908
0.143568
0.1357
0.126017
0.115183
0.104707
0.0951646
0.0864824
0.0793175
0.0748574
0.16785
0.168103
0.168288
0.168407
0.168427
0.168362
0.168227
0.168023
0.167732
0.167323
0.166753
0.165978
0.164944
0.163588
0.161837
0.159598
0.156759
0.153179
0.148683
0.143067
0.136094
0.127504
0.117008
0.105348
0.0941703
0.0841092
0.074989
0.0675835
0.0633301
0.165376
0.165622
0.165786
0.165847
0.165771
0.165591
0.165332
0.164999
0.16457
0.16401
0.163276
0.162318
0.161081
0.159501
0.157501
0.154987
0.151843
0.147924
0.143052
0.137015
0.129562
0.120408
0.109239
0.0968236
0.0849259
0.0742886
0.0646693
0.0570369
0.0531804
0.162931
0.163177
0.163324
0.163325
0.163162
0.162875
0.162503
0.162056
0.16151
0.160825
0.159953
0.158845
0.157445
0.155688
0.153498
0.15078
0.147418
0.143268
0.138151
0.131851
0.124106
0.114594
0.102956
0.0899073
0.0772673
0.0659107
0.0555852
0.0476193
0.0444146
0.160521
0.160761
0.16088
0.160824
0.160581
0.160204
0.159742
0.159209
0.158574
0.15779
0.156811
0.155587
0.154064
0.152181
0.149862
0.147015
0.14353
0.139264
0.134046
0.127662
0.119847
0.110253
0.098465
0.0850794
0.07183
0.0596403
0.0482104
0.039418
0.0369987
0.15817
0.158457
0.158607
0.158521
0.158176
0.157659
0.157075
0.156454
0.155747
0.154894
0.15384
0.152537
0.150936
0.148979
0.146594
0.143697
0.140181
0.135917
0.130743
0.124463
0.116822
0.107458
0.0958866
0.0825497
0.0689956
0.0560775
0.0432772
0.0325448
0.0299848
0.166904
0.150701
0.128087
0.0991068
0.0669678
0.0355121
0.00754024
-0.0182577
-0.0417438
-0.067543
-0.0937561
-0.125089
-0.157493
-0.187963
-0.212606
-0.228918
-0.236976
-0.238941
-0.238384
0.175197
0.16335
0.141699
0.111889
0.0764321
0.0384898
0.00166802
-0.0355877
-0.0704517
-0.109455
-0.149061
-0.189562
-0.228598
-0.262933
-0.289348
-0.306679
-0.316152
-0.320289
-0.321772
0.171533
0.160924
0.140551
0.110784
0.0733212
0.0305605
-0.0131118
-0.0608816
-0.108739
-0.157404
-0.206361
-0.254455
-0.29895
-0.336611
-0.364991
-0.383788
-0.394736
-0.400398
-0.403203
0.162519
0.152132
0.133514
0.104543
0.0647305
0.0173673
-0.0341737
-0.0888871
-0.145464
-0.203039
-0.260633
-0.316253
-0.366328
-0.407361
-0.437445
-0.457123
-0.468856
-0.475465
-0.479205
0.150583
0.141084
0.123973
0.0954028
0.0540841
0.00354162
-0.0532774
-0.114432
-0.178732
-0.24486
-0.310479
-0.372362
-0.426324
-0.469086
-0.499692
-0.519658
-0.532016
-0.53954
-0.54409
0.134379
0.125401
0.109673
0.082107
0.0406469
-0.0116909
-0.0721435
-0.138967
-0.210133
-0.283327
-0.3551
-0.421221
-0.477354
-0.520909
-0.551963
-0.57272
-0.586447
-0.595651
-0.60177
0.114253
0.10448
0.089206
0.0626055
0.0216578
-0.0314876
-0.0943091
-0.164942
-0.240648
-0.318059
-0.392748
-0.459784
-0.51505
-0.556901
-0.586403
-0.606272
-0.619859
-0.629279
-0.635631
0.0912376
0.0796307
0.0635445
0.0369906
-0.00361367
-0.0568875
-0.120606
-0.192706
-0.270028
-0.348428
-0.422734
-0.487766
-0.540068
-0.579075
-0.606628
-0.625608
-0.639133
-0.648793
-0.655459
0.0662239
0.0523726
0.0345468
0.0069893
-0.0337793
-0.0867763
-0.150076
-0.221572
-0.297833
-0.374149
-0.444924
-0.505238
-0.552612
-0.587489
-0.61219
-0.629535
-0.642316
-0.651673
-0.658181
0.0400476
0.024011
0.00406795
-0.0251233
-0.0664812
-0.11902
-0.181028
-0.250463
-0.323729
-0.39578
-0.461008
-0.515188
-0.556941
-0.587525
-0.609485
-0.625421
-0.637741
-0.647248
-0.654192
0.0136379
-0.00428704
-0.0263189
-0.057314
-0.0995008
-0.151582
-0.211849
-0.278188
-0.346768
-0.41237
-0.469817
-0.515979
-0.550624
-0.575609
-0.593481
-0.606529
-0.616726
-0.624671
-0.630439
-0.0119234
-0.031284
-0.0550599
-0.0875752
-0.130447
-0.181905
-0.240028
-0.302476
-0.365211
-0.423204
-0.472193
-0.510342
-0.538366
-0.558379
-0.572691
-0.583176
-0.591338
-0.597691
-0.602222
-0.0356279
-0.0558974
-0.080885
-0.11432
-0.157366
-0.207779
-0.263355
-0.321498
-0.378113
-0.428672
-0.470012
-0.501433
-0.524243
-0.540547
-0.552328
-0.561095
-0.568008
-0.573584
-0.577661
-0.056753
-0.0774451
-0.103104
-0.136812
-0.179425
-0.228275
-0.280823
-0.334176
-0.384309
-0.427438
-0.461587
-0.486997
-0.50529
-0.51839
-0.527921
-0.535064
-0.540689
-0.545283
-0.548611
-0.0748528
-0.0955552
-0.121395
-0.154785
-0.196373
-0.24312
-0.292176
-0.340439
-0.38419
-0.420585
-0.448741
-0.469539
-0.484641
-0.495676
-0.5039
-0.510197
-0.51521
-0.519371
-0.522401
-0.0898358
-0.110238
-0.135862
-0.168481
-0.208605
-0.252892
-0.298274
-0.341597
-0.379628
-0.410459
-0.434041
-0.451583
-0.464633
-0.474512
-0.482171
-0.488272
-0.49331
-0.497634
-0.500889
-0.101947
-0.121855
-0.147005
-0.178599
-0.217019
-0.258624
-0.300159
-0.338549
-0.371223
-0.397195
-0.417041
-0.43208
-0.443631
-0.452702
-0.459979
-0.465934
-0.470954
-0.475278
-0.478539
-0.111553
-0.130859
-0.155383
-0.185848
-0.222505
-0.261423
-0.29923
-0.33308
-0.361146
-0.38323
-0.400291
-0.413601
-0.424217
-0.432865
-0.440012
-0.445974
-0.451049
-0.455389
-0.458654
-0.119124
-0.13778
-0.161622
-0.190996
-0.226042
-0.262572
-0.297151
-0.327223
-0.351631
-0.370754
-0.385754
-0.397798
-0.407719
-0.416028
-0.42303
-0.428935
-0.43398
-0.438266
-0.441485
-0.125185
-0.143185
-0.166388
-0.194807
-0.228426
-0.262784
-0.294424
-0.321171
-0.342507
-0.359233
-0.372578
-0.383554
-0.392791
-0.400635
-0.407278
-0.412861
-0.417586
-0.421529
-0.424447
-0.13015
-0.147531
-0.170222
-0.197881
-0.230303
-0.262785
-0.291932
-0.315983
-0.334928
-0.349816
-0.36185
-0.371894
-0.380435
-0.387711
-0.393851
-0.398958
-0.403205
-0.406672
-0.409201
-0.134398
-0.151266
-0.173654
-0.200737
-0.232084
-0.262872