/*--------------------------------*- C++ -*----------------------------------*\
| =========                 |                                                 |
| \\      /  F ield         | OpenFOAM: The Open Source CFD Toolbox           |
|  \\    /   O peration     | Version:  2312                                  |
|   \\  /    A nd           | Website:  www.openfoam.com                      |
|    \\/     M anipulation  |                                                 |
\*---------------------------------------------------------------------------*/
FoamFile
{
    version     2.0;
    format      ascii;
    arch        "LSB;label=32;scalar=64";
    class       volVectorField;
    location    "60.895553030133001";
    object      U;
}
// * * * * * * * * * * * * * * * * * * * * * * * * * * * * * * * * * * * * * //

dimensions      [0 1 -1 0 0 0 0];

internalField   nonuniform List<vector> 
21039
(
(0.913766 0.0474451 0)
(1.02607 0.0664982 0)
(1.00449 0.0294906 0)
(1.00177 0.0188949 0)
(1.00121 0.0138832 0)
(1.0008 0.0104991 0)
(1.00055 0.00816844 0)
(1.0004 0.00652117 0)
(1.00031 0.00530633 0)
(1.00024 0.00438002 0)
(1.00019 0.00365676 0)
(1.00015 0.00308155 0)
(1.00012 0.00261739 0)
(1.0001 0.0022387 0)
(1.00008 0.00192738 0)
(1.00007 0.00167031 0)
(1.00005 0.00145782 0)
(1.00004 0.00128263 0)
(1.00003 0.00113912 0)
(1.00003 0.00102277 0)
(1.00002 0.000929784 0)
(1.00002 0.000858149 0)
(1.00001 0.000809489 0)
(1.00001 0.000766105 0)
(1.00001 0.000732945 0)
(1.00001 0.000706609 0)
(1.00001 0.000682692 0)
(1.00001 0.000651307 0)
(1.00002 0.000590882 0)
(0.794552 0.0730659 0)
(1.07452 0.121702 0)
(1.03989 0.070853 0)
(1.01812 0.0497033 0)
(1.0113 0.0382773 0)
(1.00765 0.0294849 0)
(1.0054 0.0231752 0)
(1.00397 0.0185862 0)
(1.00302 0.0151172 0)
(1.00235 0.0124268 0)
(1.00186 0.0102984 0)
(1.0015 0.00858534 0)
(1.00123 0.00718681 0)
(1.00101 0.0060324 0)
(1.00084 0.00507182 0)
(1.00069 0.00426855 0)
(1.00058 0.00359563 0)
(1.00047 0.0030329 0)
(1.00039 0.00256507 0)
(1.00031 0.00218023 0)
(1.00025 0.0018686 0)
(1.00019 0.00162387 0)
(1.00014 0.00144988 0)
(1.00011 0.00131802 0)
(1.0001 0.00123408 0)
(1.0001 0.00117986 0)
(1.0001 0.0011409 0)
(1.00011 0.00109798 0)
(1.00012 0.00102162 0)
(0.667299 0.0572852 0)
(1.08304 0.124841 0)
(1.08438 0.0903372 0)
(1.04631 0.0676909 0)
(1.02909 0.0541624 0)
(1.02028 0.043189 0)
(1.01472 0.0348684 0)
(1.01102 0.0284724 0)
(1.00847 0.0234275 0)
(1.00666 0.0194021 0)
(1.00533 0.0161506 0)
(1.00433 0.0134904 0)
(1.00356 0.0112901 0)
(1.00295 0.00945444 0)
(1.00246 0.0079133 0)
(1.00206 0.0066147 0)
(1.00172 0.00551976 0)
(1.00144 0.00459916 0)
(1.00119 0.00383058 0)
(1.00097 0.0031969 0)
(1.00077 0.0026842 0)
(1.0006 0.00228236 0)
(1.00044 0.00199684 0)
(1.00034 0.00179437 0)
(1.00028 0.00167506 0)
(1.00025 0.00160423 0)
(1.00024 0.00155771 0)
(1.00025 0.00151057 0)
(1.00026 0.00143035 0)
(0.540962 0.0352752 0)
(1.05074 0.110888 0)
(1.11594 0.0971081 0)
(1.07615 0.0763464 0)
(1.04927 0.0621722 0)
(1.03531 0.0510525 0)
(1.02646 0.0423667 0)
(1.0203 0.0353276 0)
(1.01588 0.0295318 0)
(1.01265 0.0247535 0)
(1.01023 0.0207884 0)
(1.00839 0.0174724 0)
(1.00695 0.014681 0)
(1.0058 0.0123189 0)
(1.00487 0.0103127 0)
(1.0041 0.00860639 0)
(1.00344 0.00715701 0)
(1.00288 0.00593157 0)
(1.00239 0.00490474 0)
(1.00195 0.00405706 0)
(1.00155 0.00337294 0)
(1.0012 0.00283996 0)
(1.00088 0.00246488 0)
(1.00064 0.00221151 0)
(1.0005 0.00207096 0)
(1.00041 0.00199375 0)
(1.00038 0.00194762 0)
(1.00038 0.001903 0)
(1.00038 0.00182296 0)
(0.444079 0.0186785 0)
(0.997628 0.0919561 0)
(1.129 0.0958019 0)
(1.10147 0.0796111 0)
(1.06827 0.0655521 0)
(1.0498 0.0548664 0)
(1.03831 0.046475 0)
(1.0301 0.0394348 0)
(1.02402 0.0334555 0)
(1.01944 0.0283877 0)
(1.01594 0.0240729 0)
(1.0132 0.0203827 0)
(1.01104 0.017217 0)
(1.00928 0.0144951 0)
(1.00784 0.0121526 0)
(1.00663 0.0101387 0)
(1.0056 0.0084133 0)
(1.0047 0.00694512 0)
(1.0039 0.00570985 0)
(1.00319 0.00468874 0)
(1.00254 0.00386696 0)
(1.00194 0.0032318 0)
(1.0014 0.00279182 0)
(1.00099 0.00250876 0)
(1.00072 0.00236331 0)
(1.00056 0.00229318 0)
(1.0005 0.00225933 0)
(1.00048 0.00222778 0)
(1.00047 0.00215491 0)
(0.378469 0.00811303 0)
(0.939459 0.071946 0)
(1.1269 0.0884984 0)
(1.12085 0.0788442 0)
(1.08553 0.0660829 0)
(1.06308 0.056092 0)
(1.04932 0.0482266 0)
(1.03952 0.0414807 0)
(1.0321 0.0356187 0)
(1.0264 0.0305365 0)
(1.02193 0.0261136 0)
(1.01838 0.0222554 0)
(1.01551 0.0188869 0)
(1.01316 0.0159454 0)
(1.01119 0.0133802 0)
(1.00952 0.0111499 0)
(1.00807 0.00922177 0)
(1.0068 0.00756983 0)
(1.00566 0.0061738 0)
(1.00462 0.00501818 0)
(1.00366 0.00409107 0)
(1.00278 0.00338147 0)
(1.00197 0.00290082 0)
(1.00134 0.00260942 0)
(1.00092 0.00247663 0)
(1.00068 0.0024286 0)
(1.00055 0.00242043 0)
(1.00051 0.00241382 0)
(1.00048 0.00235678 0)
(0.33319 0.00234281 0)
(0.883008 0.0539485 0)
(1.11385 0.0780878 0)
(1.13387 0.0750933 0)
(1.10091 0.0645426 0)
(1.07533 0.0554669 0)
(1.05948 0.0482576 0)
(1.04836 0.0419807 0)
(1.03988 0.0364101 0)
(1.03324 0.0314742 0)
(1.02795 0.027092 0)
(1.02368 0.0232005 0)
(1.02018 0.0197477 0)
(1.01726 0.0166887 0)
(1.01478 0.0139866 0)
(1.01265 0.0116116 0)
(1.01077 0.00953963 0)
(1.0091 0.00775187 0)
(1.00759 0.00623404 0)
(1.0062 0.0049757 0)
(1.0049 0.00396954 0)
(1.00368 0.00320807 0)
(1.00256 0.00270685 0)
(1.00168 0.0024252 0)
(1.00108 0.00232059 0)
(1.00071 0.0023085 0)
(1.00053 0.00233882 0)
(1.00044 0.00236895 0)
(1.00037 0.00233713 0)
(0.300833 -0.000185588 0)
(0.831103 0.0396794 0)
(1.09351 0.0672003 0)
(1.1405 0.069705 0)
(1.11388 0.0616925 0)
(1.08651 0.0536125 0)
(1.06882 0.0470635 0)
(1.05659 0.041318 0)
(1.04726 0.0361258 0)
(1.03986 0.0314274 0)
(1.03389 0.0271756 0)
(1.02899 0.0233351 0)
(1.02492 0.0198743 0)
(1.02148 0.0167654 0)
(1.01853 0.013985 0)
(1.01594 0.0115146 0)
(1.01365 0.00933937 0)
(1.01157 0.00744868 0)
(1.00967 0.00583519 0)
(1.00789 0.00449469 0)
(1.00622 0.00342575 0)
(1.00463 0.00262578 0)
(1.00315 0.00211571 0)
(1.00197 0.0018549 0)
(1.00116 0.00178904 0)
(1.00065 0.00182349 0)
(1.00037 0.00190339 0)
(1.00023 0.00198167 0)
(1.0001 0.00198536 0)
(0.277804 -0.000980508 0)
(0.785263 0.0291768 0)
(1.06916 0.0571951 0)
(1.1416 0.0637143 0)
(1.12415 0.0581975 0)
(1.09652 0.0511021 0)
(1.07735 0.0451173 0)
(1.06418 0.0398544 0)
(1.05418 0.0350404 0)
(1.04618 0.0306054 0)
(1.03965 0.0265219 0)
(1.03423 0.022774 0)
(1.02967 0.0193463 0)
(1.02577 0.016225 0)
(1.02237 0.0133993 0)
(1.01936 0.0108607 0)
(1.01665 0.00860386 0)
(1.01417 0.00662617 0)
(1.01186 0.00492781 0)
(1.00968 0.00351152 0)
(1.0076 0.00238269 0)
(1.00561 0.00154482 0)
(1.00372 0.00102563 0)
(1.0022 0.000786469 0)
(1.00114 0.000762071 0)
(1.00046 0.000847643 0)
(1.00006 0.000983979 0)
(0.999832 0.00111995 0)
(0.999633 0.00117105 0)
(0.261317 -0.00102511 0)
(0.745888 0.0217346 0)
(1.04335 0.0484895 0)
(1.13846 0.0576804 0)
(1.13186 0.054437 0)
(1.10542 0.0482977 0)
(1.08515 0.0427699 0)
(1.07118 0.0378915 0)
(1.06064 0.0333996 0)
(1.05218 0.0292036 0)
(1.04521 0.0252825 0)
(1.03937 0.0216316 0)
(1.03439 0.0182461 0)
(1.03008 0.015123 0)
(1.02628 0.0122608 0)
(1.02288 0.00966027 0)
(1.01977 0.00732409 0)
(1.01689 0.00525747 0)
(1.01417 0.00346809 0)
(1.01157 0.00196615 0)
(1.00906 0.00076481 0)
(1.00662 -0.000126352 0)
(1.00429 -0.000671848 0)
(1.00239 -0.000902497 0)
(1.00103 -0.000894116 0)
(1.00014 -0.000764493 0)
(0.999591 -0.000581323 0)
(0.999242 -0.000380799 0)
(0.998934 -0.00023539 0)
(0.249057 -0.000806367 0)
(0.712492 0.0165649 0)
(1.01772 0.0411079 0)
(1.13234 0.0518856 0)
(1.13734 0.0505918 0)
(1.11332 0.045369 0)
(1.09239 0.0402202 0)
(1.07771 0.035629 0)
(1.06673 0.0313852 0)
(1.05791 0.027379 0)
(1.05059 0.023588 0)
(1.0444 0.0200122 0)
(1.03908 0.0166537 0)
(1.03442 0.0135164 0)
(1.03026 0.0106059 0)
(1.02649 0.00792993 0)
(1.02301 0.00549813 0)
(1.01974 0.00332275 0)
(1.01662 0.00141861 0)
(1.01359 -0.000197475 0)
(1.01063 -0.00150509 0)
(1.00771 -0.00248475 0)
(1.0049 -0.00309115 0)
(1.00255 -0.00334702 0)
(1.00085 -0.00333042 0)
(0.999703 -0.00316705 0)
(0.998958 -0.00293125 0)
(0.99845 -0.00268666 0)
(0.997996 -0.00254118 0)
(0.239504 -0.000547877 0)
(0.684248 0.012983 0)
(0.993195 0.0349307 0)
(1.12423 0.0464767 0)
(1.14093 0.0467651 0)
(1.12034 0.0423975 0)
(1.0992 0.0375749 0)
(1.08391 0.033189 0)
(1.07254 0.0291194 0)
(1.06343 0.0252461 0)
(1.05584 0.0215404 0)
(1.04938 0.0180034 0)
(1.04377 0.0146407 0)
(1.03881 0.0114604 0)
(1.03435 0.00847315 0)
(1.03025 0.00569164 0)
(1.02642 0.00313124 0)
(1.02278 0.000810389 0)
(1.01926 -0.00125172 0)
(1.0158 -0.00303132 0)
(1.01237 -0.00449845 0)
(1.00895 -0.00562426 0)
(1.0056 -0.00635175 0)
(1.00277 -0.00669057 0)
(1.00067 -0.00671329 0)
(0.999198 -0.00655187 0)
(0.99819 -0.00628754 0)
(0.997453 -0.00600018 0)
(0.996795 -0.00582808 0)
(0.231786 -0.000340011 0)
(0.660329 0.010452 0)
(0.97026 0.0297823 0)
(1.11487 0.0415155 0)
(1.14293 0.0430268 0)
(1.12653 0.0394341 0)
(1.10567 0.0348996 0)
(1.0899 0.0306526 0)
(1.07818 0.0266887 0)
(1.06883 0.0228904 0)
(1.06103 0.019221 0)
(1.05435 0.0156792 0)
(1.04852 0.0122717 0)
(1.04332 0.00900886 0)
(1.03859 0.0059042 0)
(1.0342 0.0029741 0)
(1.03006 0.000237458 0)
(1.02607 -0.00228426 0)
(1.02216 -0.00456524 0)
(1.01828 -0.00657412 0)
(1.01437 -0.00827434 0)
(1.01043 -0.0096286 0)
(1.00651 -0.0105684 0)
(1.00314 -0.0110828 0)
(1.00058 -0.0112272 0)
(0.998721 -0.0111362 0)
(0.99737 -0.0108969 0)
(0.996318 -0.0106019 0)
(0.995373 -0.0104159 0)
(0.225395 -0.000200678 0)
(0.640009 0.00859856 0)
(0.949141 0.0254825 0)
(1.10486 0.0370086 0)
(1.14367 0.0394217 0)
(1.13201 0.0365145 0)
(1.11187 0.0322395 0)
(1.09576 0.0280801 0)
(1.08374 0.0241623 0)
(1.0742 0.0203843 0)
(1.06625 0.0167017 0)
(1.05941 0.0131088 0)
(1.0534 0.00961104 0)
(1.048 0.0062193 0)
(1.04306 0.00294811 0)
(1.03843 -0.00018536 0)
(1.03402 -0.00316056 0)
(1.02972 -0.00595189 0)
(1.02545 -0.00852755 0)
(1.02116 -0.0108504 0)
(1.01678 -0.0128784 0)
(1.0123 -0.014568 0)
(1.0078 -0.0158425 0)
(1.00386 -0.0166665 0)
(1.00079 -0.0170623 0)
(0.998463 -0.0171579 0)
(0.996669 -0.0170403 0)
(0.995191 -0.0168128 0)
(0.993844 -0.0166615 0)
(0.220009 -0.000120093 0)
(0.622678 0.00719231 0)
(0.929896 0.0219004 0)
(1.09461 0.0329636 0)
(1.14338 0.0359931 0)
(1.13679 0.0336657 0)
(1.11779 0.0296216 0)
(1.10151 0.0255115 0)
(1.08924 0.021591 0)
(1.07955 0.0177845 0)
(1.07148 0.0140426 0)
(1.06454 0.0103534 0)
(1.05841 0.00671964 0)
(1.05288 0.00315057 0)
(1.04777 -0.000340941 0)
(1.04296 -0.00373854 0)
(1.03831 -0.00702002 0)
(1.03374 -0.0101563 0)
(1.02915 -0.0131114 0)
(1.02447 -0.0158431 0)
(1.01964 -0.0183047 0)
(1.01464 -0.0204494 0)
(1.00958 -0.0221996 0)
(1.00511 -0.0235048 0)
(1.00156 -0.0243455 0)
(0.998747 -0.024829 0)
(0.996441 -0.0250216 0)
(0.994418 -0.0250188 0)
(0.992533 -0.025005 0)
(0.215784 -6.75252e-05 0)
(0.608908 0.00617796 0)
(0.913785 0.0191169 0)
(1.08527 0.0296144 0)
(1.14251 0.0330186 0)
(1.14075 0.0311449 0)
(1.12313 0.0272939 0)
(1.10686 0.0232084 0)
(1.09441 0.0192555 0)
(1.08462 0.0153904 0)
(1.07649 0.0115596 0)
(1.0695 0.00774483 0)
(1.06332 0.00394427 0)
(1.05772 0.000163058 0)
(1.05254 -0.00358981 0)
(1.04761 -0.00729993 0)
(1.04283 -0.0109455 0)
(1.03806 -0.0144966 0)
(1.03323 -0.0179149 0)
(1.02823 -0.0211531 0)
(1.02301 -0.0241572 0)
(1.01755 -0.0268732 0)
(1.012 -0.0292179 0)
(1.0071 -0.0311315 0)
(1.00319 -0.0325757 0)
(1.00001 -0.0336591 0)
(0.997229 -0.0344172 0)
(0.994579 -0.0348887 0)
(0.991955 -0.0351912 0)
(0.212676 -3.66669e-05 0)
(0.598795 0.00548484 0)
(0.901471 0.0171126 0)
(1.07766 0.0270844 0)
(1.14145 0.0307 0)
(1.14377 0.0291554 0)
(1.1275 0.0254505 0)
(1.11134 0.0213746 0)
(1.0988 0.017382 0)
(1.08896 0.0134538 0)
(1.08082 0.00953261 0)
(1.07384 0.00559316 0)
(1.06766 0.00162809 0)
(1.06207 -0.00236257 0)
(1.05687 -0.00637477 0)
(1.05192 -0.0103984 0)
(1.04708 -0.014415 0)
(1.04222 -0.0183983 0)
(1.03724 -0.0223113 0)
(1.03204 -0.0261047 0)
(1.02654 -0.0297166 0)
(1.02074 -0.0330804 0)
(1.0148 -0.0360864 0)
(1.0096 -0.0386346 0)
(1.00552 -0.0406845 0)
(1.00225 -0.0424271 0)
(0.99935 -0.0439793 0)
(0.996418 -0.0453666 0)
(0.993328 -0.0464365 0)
(0.210273 8.77031e-06 0)
(0.591048 0.00501142 0)
(0.891759 0.0156536 0)
(1.07133 0.0251614 0)
(1.14031 0.0288938 0)
(1.1461 0.0275963 0)
(1.13109 0.0240131 0)
(1.11512 0.0199509 0)
(1.10252 0.0159286 0)
(1.09265 0.0119481 0)
(1.08454 0.00794909 0)
(1.07758 0.00390029 0)
(1.07145 -0.000210946 0)
(1.0659 -0.00439036 0)
(1.06074 -0.00863942 0)
(1.05582 -0.0129538 0)
(1.05099 -0.017322 0)
(1.04611 -0.0217248 0)
(1.04108 -0.0261316 0)
(1.03577 -0.0304965 0)
(1.0301 -0.0347554 0)
(1.02405 -0.038832 0)
(1.01779 -0.042575 0)
(1.01232 -0.0457647 0)
(1.00811 -0.0482725 0)
(1.00492 -0.0503557 0)
(1.00237 -0.0523752 0)
(1.00017 -0.0547179 0)
(0.997737 -0.0568263 0)
(0.208736 -2.50089e-07 0)
(0.585712 0.00464236 0)
(0.884844 0.0146106 0)
(1.06673 0.0237944 0)
(1.13948 0.0275907 0)
(1.14792 0.0264301 0)
(1.13394 0.0229026 0)
(1.11816 0.0188419 0)
(1.10556 0.0148016 0)
(1.09571 0.0107847 0)
(1.08764 0.00672354 0)
(1.08074 0.00258254 0)
(1.07468 -0.00165432 0)
(1.06921 -0.00599789 0)
(1.06413 -0.010456 0)
(1.05928 -0.0150316 0)
(1.05452 -0.0197226 0)
(1.04971 -0.0245199 0)
(1.04472 -0.0294036 0)
(1.03943 -0.0343383 0)
(1.03374 -0.0392693 0)
(1.02763 -0.0441324 0)
(1.02128 -0.0487673 0)
(1.01572 -0.0528025 0)
(1.01144 -0.0558835 0)
(1.00828 -0.0580437 0)
(1.006 -0.0593054 0)
(1.00459 -0.0603595 0)
(1.00492 -0.0651557 0)
(1.00002 0.000596528 0)
(1.00002 0.000595061 0)
(1.00002 0.000588935 0)
(1.00001 0.000583861 1.00883e-21)
(1.00001 0.000580868 5.03366e-21)
(1.00001 0.000579782 -9.05927e-21)
(1.00001 0.000580443 5.0322e-21)
(1.00001 0.000582733 -4.01195e-21)
(1.00001 0.00058651 5.11294e-22)
(1 0.000591781 4.0115e-21)
(1 0.000598385 0)
(1 0.000606309 -4.49011e-21)
(1 0.000615436 5.08658e-22)
(0.999999 0.000625646 3.98812e-21)
(0.999998 0.000636916 0)
(0.999996 0.000649084 0)
(0.999995 0.000662116 -3.95716e-21)
(0.999994 0.000675872 3.95965e-21)
(0.999993 0.0006902 0)
(0.999992 0.000705098 -1.9664e-21)
(0.999991 0.000720386 2.09008e-21)
(0.99999 0.000735951 1.83477e-21)
(0.999989 0.000751741 -2.93413e-21)
(0.999988 0.000767581 9.45965e-22)
(0.999987 0.000783376 3.03462e-23)
(0.999986 0.00079906 -6.06618e-23)
(0.999986 0.000814459 8.44625e-22)
(0.999985 0.000829541 -9.65427e-22)
(0.999985 0.000844126 0)
(0.999985 0.000858041 0)
(0.999985 0.000871366 -2.38616e-22)
(0.999985 0.000884004 -2.37749e-22)
(0.999985 0.000895842 -4.01993e-21)
(0.999985 0.000906861 3.30841e-21)
(0.999985 0.000916942 -4.22396e-21)
(0.999985 0.000926041 4.21883e-21)
(0.999986 0.000934129 -3.25738e-21)
(0.999986 0.000941083 3.25578e-21)
(0.999987 0.000946906 4.62369e-22)
(0.999988 0.000951496 4.60404e-22)
(0.999989 0.000954838 -4.58404e-22)
(0.99999 0.000956908 0)
(0.999991 0.000957611 0)
(0.999992 0.000956995 0)
(0.999993 0.000954962 0)
(0.999995 0.000951652 0)
(0.999996 0.000947048 1.78239e-21)
(0.999998 0.000940261 -1.77952e-21)
(0.999999 0.000927276 0)
(1.00011 0.00102176 0)
(1.0001 0.00101573 2.03414e-21)
(1.00008 0.00100712 -2.02836e-21)
(1.00007 0.00100263 -1.0127e-21)
(1.00005 0.00100336 -1.01308e-21)
(1.00004 0.00100873 -3.03097e-21)
(1.00002 0.00101847 5.05963e-21)
(1.00001 0.00103256 0)
(0.999994 0.00105048 -5.0398e-22)
(0.999982 0.00107237 -1.00726e-21)
(0.999969 0.00109776 0)
(0.999958 0.00112654 5.0178e-22)
(0.999946 0.00115855 -4.50437e-21)
(0.999936 0.00119334 4.00695e-21)
(0.999926 0.0012309 0)
(0.999916 0.00127083 9.97725e-22)
(0.999908 0.00131293 0)
(0.9999 0.00135703 0)
(0.999893 0.00140264 0)
(0.999886 0.00144971 -1.97515e-21)
(0.999881 0.00149792 1.85259e-21)
(0.999876 0.00154692 -1.2327e-22)
(0.999871 0.00159655 0)
(0.999868 0.00164649 -4.58361e-22)
(0.999866 0.00169645 4.81379e-22)
(0.999864 0.00174622 9.13417e-23)
(0.999863 0.00179552 1.2135e-22)
(0.999863 0.00184406 0)
(0.999864 0.00189165 -1.92726e-21)
(0.999865 0.00193799 1.92683e-21)
(0.999867 0.00198286 -3.58934e-21)
(0.999871 0.00202603 7.88203e-21)
(0.999874 0.00206723 -3.57601e-21)
(0.999879 0.00210631 4.74145e-22)
(0.999884 0.00214296 4.72385e-22)
(0.99989 0.00217702 4.71073e-22)
(0.999897 0.0022083 -4.68639e-22)
(0.999904 0.00223656 4.19541e-21)
(0.999913 0.00226173 -3.25973e-21)
(0.999922 0.00228348 -1.38899e-21)
(0.999931 0.0023018 5.06479e-21)
(0.999942 0.00231635 -3.67754e-21)
(0.999953 0.00232688 -1.82788e-21)
(0.999964 0.00233353 3.63287e-21)
(0.999977 0.00233584 -7.24501e-21)
(0.999989 0.00233399 3.61115e-21)
(1 0.00232778 1.79145e-21)
(1.00002 0.00231642 -3.30351e-24)
(1.00003 0.00229508 0)
(1.00023 0.00142062 3.05936e-21)
(1.00019 0.00141218 -1.02149e-21)
(1.00015 0.00140678 -4.07189e-21)
(1.00011 0.00140836 2.03113e-21)
(1.00006 0.00141806 -2.03118e-21)
(1.00002 0.00143509 0)
(0.999983 0.00145914 -2.02323e-21)
(0.999945 0.00149032 -6.06115e-21)
(0.999909 0.00152758 6.06329e-21)
(0.999874 0.00157132 1.00717e-21)
(0.999842 0.00162066 0)
(0.999811 0.00167541 -6.02695e-21)
(0.999782 0.00173547 9.61655e-24)
(0.999755 0.00179988 4.01085e-21)
(0.99973 0.0018688 0)
(0.999707 0.00194151 -9.97033e-22)
(0.999686 0.00201759 -9.97362e-22)
(0.999667 0.00209703 0)
(0.99965 0.00217879 -9.93164e-22)
(0.999636 0.00226282 -1.97648e-21)
(0.999623 0.00234878 1.97709e-21)
(0.999613 0.0024359 -2.47096e-22)
(0.999605 0.002524 -2.45925e-22)
(0.999599 0.00261265 0)
(0.999596 0.00270124 3.81158e-23)
(0.999594 0.00278949 -2.13274e-22)
(0.999595 0.00287702 0)
(0.999598 0.00296324 0)
(0.999604 0.00304786 -1.92763e-21)
(0.999611 0.0031305 1.92725e-21)
(0.999621 0.00321066 -3.82933e-21)
(0.999632 0.00328801 3.82806e-21)
(0.999646 0.00336217 0)
(0.999662 0.00343274 0)
(0.999679 0.00349936 0)
(0.999699 0.00356172 -9.40867e-22)
(0.999721 0.00361941 -1.87611e-21)
(0.999744 0.00367208 0)
(0.99977 0.00371953 -9.29516e-22)
(0.999797 0.00376121 -9.19274e-22)
(0.999826 0.00379705 2.772e-21)
(0.999857 0.00382661 0)
(0.99989 0.00384952 3.64916e-21)
(0.999925 0.00386578 -5.46343e-21)
(0.999961 0.00387464 0)
(0.999998 0.00387633 0)
(1.00004 0.00387026 0)
(1.00008 0.00385564 -1.78645e-21)
(1.00012 0.0038287 -1.77648e-21)
(1.00033 0.0018064 -2.0435e-21)
(1.00026 0.0018019 4.09026e-21)
(1.00018 0.00180714 4.08412e-21)
(1.00009 0.00182194 6.10941e-21)
(1.00001 0.00184776 -2.04076e-21)
(0.999933 0.00188369 -4.059e-21)
(0.999858 0.00192939 8.11755e-21)
(0.999785 0.00198522 -3.25791e-24)
(0.999717 0.00204937 -2.02128e-21)
(0.999651 0.00212269 2.0241e-21)
(0.99959 0.00220375 0)
(0.999532 0.0022923 2.01174e-21)
(0.999478 0.00238838 -2.00196e-21)
(0.999428 0.00249032 8.02976e-21)
(0.999382 0.00259862 -8.01442e-21)
(0.999339 0.00271209 6.00831e-21)
(0.999302 0.00283012 -1.00347e-21)
(0.999268 0.00295295 9.97792e-22)
(0.999238 0.00307879 9.92233e-22)
(0.999213 0.00320768 -9.93383e-22)
(0.999192 0.00333928 0)
(0.999175 0.00347228 -1.47767e-21)
(0.999163 0.00360654 1.23374e-21)
(0.999155 0.00374153 9.82639e-22)
(0.999152 0.00387622 4.5848e-23)
(0.999152 0.0040103 9.12591e-23)
(0.999158 0.00414331 1.45827e-21)
(0.999167 0.00427428 -9.7101e-22)
(0.999181 0.00440285 1.92962e-21)
(0.999199 0.00452857 -1.9293e-21)
(0.999221 0.00465061 0)
(0.999247 0.00476857 4.77644e-21)
(0.999277 0.00488194 -3.81748e-21)
(0.999311 0.00499006 3.78993e-21)
(0.999349 0.00509251 -3.78853e-21)
(0.999391 0.00518884 0)
(0.999437 0.00527839 3.74195e-21)
(0.999487 0.00536079 -1.87319e-21)
(0.99954 0.00543567 0)
(0.999597 0.00550229 3.6995e-21)
(0.999657 0.00556058 -3.69433e-21)
(0.999721 0.00560984 1.83607e-21)
(0.999789 0.00564961 1.82749e-21)
(0.99986 0.00567988 5.45642e-21)
(0.999934 0.00569957 5.96914e-24)
(1.00001 0.00570903 3.61048e-21)
(1.00009 0.0057072 1.79042e-21)
(1.00018 0.00569332 1.78026e-21)
(1.00027 0.00566511 1.77759e-21)
(1.00039 0.00213733 0)
(1.00027 0.00214563 -4.095e-21)
(1.00013 0.00217125 -4.08711e-21)
(1 0.00220892 0)
(0.999869 0.00226057 -4.07939e-21)
(0.999741 0.00232521 8.31525e-24)
(0.999618 0.00240247 8.16088e-21)
(0.999501 0.00249305 -2.04358e-21)
(0.999389 0.00259424 -8.58344e-24)
(0.999283 0.00270749 -6.08342e-21)
(0.999184 0.00283069 0)
(0.999091 0.00296357 -6.06525e-21)
(0.999004 0.00310635 2.02611e-21)
(0.998924 0.00325652 0)
(0.998851 0.00341501 -2.01572e-21)
(0.998785 0.00358011 9.40006e-24)
(0.998725 0.00375093 -2.0015e-21)
(0.998672 0.0039281 6.99421e-21)
(0.998627 0.0041089 -1.05002e-23)
(0.998588 0.00429351 -1.00438e-21)
(0.998557 0.00448163 -9.9194e-22)
(0.998533 0.00467127 1.97568e-21)
(0.998516 0.0048624 -1.97597e-21)
(0.998506 0.00505437 -2.44593e-22)
(0.998504 0.00524566 5.06473e-22)
(0.998509 0.00543595 -2.7373e-22)
(0.998521 0.00562471 9.74813e-22)
(0.99854 0.00581052 -9.73083e-22)
(0.998566 0.00599296 9.70237e-22)
(0.998599 0.00617151 1.92646e-21)
(0.998639 0.00634496 -5.76445e-21)
(0.998686 0.00651287 -9.43159e-22)
(0.99874 0.00667458 5.73454e-21)
(0.998801 0.00682913 1.90343e-21)
(0.998868 0.0069761 -3.77947e-21)
(0.998941 0.00711485 3.77719e-21)
(0.999021 0.00724447 7.43706e-24)
(0.999107 0.00736458 5.60965e-21)
(0.999199 0.00747464 -3.73869e-21)
(0.999297 0.00757372 -9.273e-21)
(0.999401 0.00766176 3.69073e-21)
(0.999511 0.00773781 1.83765e-21)
(0.999627 0.00780136 7.30433e-21)
(0.999748 0.00785237 -3.64311e-21)
(0.999875 0.00788946 -7.23261e-24)
(1.00001 0.00791314 -7.7975e-24)
(1.00015 0.0079219 0)
(1.00029 0.00791511 -3.56978e-21)
(1.00045 0.00789276 -3.54725e-21)
(1.00035 0.00234538 0)
(1.00018 0.00237743 -6.18704e-21)
(0.999989 0.00243523 6.17937e-21)
(0.999792 0.00250754 0)
(0.999597 0.00259702 0)
(0.999408 0.00270255 -4.09412e-21)
(0.999226 0.00282376 -2.67084e-24)
(0.999051 0.00296179 -4.09574e-21)
(0.998886 0.00311288 -8.46479e-24)
(0.99873 0.0032792 0)
(0.998583 0.00345785 0)
(0.998445 0.00364855 2.02613e-21)
(0.998318 0.00385178 0)
(0.9982 0.004064 0)
(0.998093 0.00428668 -2.02025e-21)
(0.997996 0.0045175 4.04811e-21)
(0.997909 0.00475527 2.01831e-21)
(0.997833 0.0050011 0)
(0.997768 0.00525111 1.98996e-21)
(0.997713 0.00550575 -5.00138e-21)
(0.99767 0.0057647 -1.99233e-21)
(0.997637 0.00602523 -1.98339e-21)
(0.997615 0.00628743 1.98359e-21)
(0.997605 0.0065505 1.36311e-24)
(0.997605 0.00681239 1.54255e-23)
(0.997616 0.00707274 2.45044e-22)
(0.997638 0.00733096 -4.89734e-22)
(0.997671 0.00758512 0)
(0.997715 0.00783472 -9.68916e-22)
(0.997769 0.0080792 0)
(0.997834 0.00831689 0)
(0.99791 0.00854731 -1.92406e-21)
(0.997995 0.00876967 -7.6422e-21)
(0.998091 0.00898263 2.11133e-23)
(0.998197 0.00918581 1.90022e-21)
(0.998312 0.00937837 0)
(0.998437 0.00955911 -1.8772e-21)
(0.998572 0.00972766 -3.7475e-21)
(0.998715 0.00988331 3.7212e-21)
(0.998868 0.0100249 7.41674e-21)
(0.99903 0.0101525 -7.38065e-21)
(0.9992 0.0102647 3.4704e-24)
(0.999379 0.0103612 -3.65421e-21)
(0.999566 0.0104418 7.89844e-25)
(0.999761 0.0105048 0)
(0.999965 0.0105509 -3.60068e-21)
(1.00018 0.0105782 -1.78698e-21)
(1.0004 0.0105863 1.78565e-21)
(1.00064 0.0105786 3.54826e-21)
(1.0002 0.00234072 0)
(0.99996 0.00240975 4.13446e-21)
(0.999695 0.00251342 -1.24223e-20)
(0.999422 0.0026342 0)
(0.99915 0.00277579 0)
(0.998885 0.00293688 -8.25682e-21)
(0.99863 0.00311709 8.23007e-21)
(0.998386 0.0033181 -4.12656e-21)
(0.998154 0.00353486 -8.64366e-24)
(0.997935 0.00377051 4.10405e-21)
(0.997729 0.00402116 0)
(0.997536 0.00428654 0)
(0.997358 0.00456743 4.09554e-21)
(0.997194 0.00485907 0)
(0.997044 0.00516364 0)
(0.99691 0.00547804 -4.05669e-21)
(0.99679 0.00580076 1.49116e-23)
(0.996685 0.00613344 0)
(0.996596 0.00647091 2.00666e-21)
(0.996522 0.0068139 5.02196e-21)
(0.996464 0.00716208 -2.01234e-21)
(0.996422 0.00751184 0)
(0.996395 0.00786343 -9.93708e-22)
(0.996384 0.00821586 1.24167e-21)
(0.996389 0.00856648 -5.41656e-22)
(0.99641 0.00891487 -2.47229e-22)
(0.996446 0.00926037 4.87571e-22)
(0.996498 0.00960047 -9.80073e-22)
(0.996566 0.00993457 0)
(0.996649 0.010262 -3.8854e-21)
(0.996747 0.0105807 5.79689e-21)
(0.996859 0.01089 1.9061e-21)
(0.996987 0.011189 -6.82031e-24)
(0.997129 0.0114759 1.90447e-21)
(0.997285 0.0117505 -1.91182e-21)
(0.997455 0.0120115 -3.7751e-21)
(0.997639 0.0122576 7.52993e-21)
(0.997836 0.0124883 -3.75278e-21)
(0.998046 0.0127028 7.4702e-21)
(0.998268 0.0128996 7.61394e-24)
(0.998503 0.0130789 7.38475e-21)
(0.99875 0.0132391 -3.67059e-21)
(0.999009 0.0133795 0)
(0.99928 0.0135004 1.258e-24)
(0.999561 0.0135995 7.23337e-21)
(0.999855 0.0136779 0)
(1.00016 0.0137328 0)
(1.00048 0.0137646 6.22398e-21)
(1.00083 0.0137815 8.86792e-22)
(0.999867 0.00201485 1.04365e-21)
(0.999552 0.00213607 7.33208e-21)
(0.9992 0.00230055 8.30589e-21)
(0.998836 0.00248523 -8.3604e-21)
(0.998471 0.00269526 0)
(0.998115 0.00292891 -1.11338e-23)
(0.99777 0.00318577 -4.18283e-21)
(0.99744 0.00346809 -4.17261e-21)
(0.997127 0.00376939 1.24367e-20)
(0.99683 0.0040939 -4.13538e-21)
(0.996552 0.00443658 0)
(0.996292 0.00479719 8.25424e-21)
(0.996051 0.00517681 -8.20872e-21)
(0.99583 0.0055693 2.4107e-23)
(0.995629 0.00597764 8.18864e-21)
(0.995448 0.00639783 -2.05569e-21)
(0.995287 0.00682797 -2.00532e-21)
(0.995148 0.0072703 4.07043e-21)
(0.995029 0.00771818 0)
(0.994933 0.00817265 -2.01394e-21)
(0.994857 0.00863332 2.01647e-21)
(0.994804 0.00909563 2.00641e-21)
(0.994772 0.00955993 -2.00636e-21)
(0.994762 0.010025 2.50631e-22)
(0.994774 0.0104875 3.09708e-23)
(0.994808 0.010947 7.41454e-22)
(0.994863 0.0114026 -2.58088e-24)
(0.99494 0.0118512 0)
(0.995039 0.0122921 0)
(0.995159 0.0127244 -1.78381e-24)
(0.9953 0.0131455 -1.92941e-21)
(0.995461 0.0135546 3.87432e-21)
(0.995643 0.0139508 -3.84951e-21)
(0.995844 0.0143316 3.82096e-21)
(0.996065 0.0146967 -7.64275e-21)
(0.996305 0.0150449 1.77508e-23)
(0.996564 0.0153742 3.78196e-21)
(0.996841 0.0156843 3.74605e-21)
(0.997135 0.0159741 -7.48679e-21)
(0.997446 0.0162418 -7.43547e-21)
(0.997774 0.0164878 -3.70461e-21)
(0.998118 0.0167101 -3.6829e-21)
(0.998477 0.016908 0)
(0.998852 0.0170817 -3.63177e-21)
(0.999241 0.0172287 -2.86194e-25)
(0.999647 0.0173504 7.18234e-21)
(1.00007 0.0174433 -8.91984e-21)
(1.00051 0.0175085 1.76852e-21)
(1.00098 0.0175609 0)
(0.999318 0.00124086 0)
(0.99891 0.00143032 -8.38998e-21)
(0.998453 0.00167025 0)
(0.997977 0.00193495 8.37087e-21)
(0.9975 0.00223131 4.19369e-21)
(0.997032 0.00255677 -8.38341e-21)
(0.996579 0.00291071 1.25344e-20)
(0.996144 0.00329586 4.16308e-21)
(0.99573 0.00370405 -4.15966e-21)
(0.995339 0.00414074 0)
(0.994971 0.00459953 4.16049e-21)
(0.994628 0.00508022 -8.30041e-21)
(0.994309 0.00558415 4.17105e-21)
(0.994017 0.00610366 -4.12207e-21)
(0.993752 0.00664262 2.76641e-23)
(0.993513 0.00719597 4.12695e-21)
(0.993302 0.0077614 -8.22905e-21)
(0.993119 0.0083417 0)
(0.992965 0.00892867 4.08374e-21)
(0.992839 0.00952367 -4.08372e-21)
(0.992743 0.0101261 -1.01143e-21)
(0.992676 0.0107304 0)
(0.992638 0.011337 1.01455e-21)
(0.99263 0.0119444 2.51564e-22)
(0.992651 0.0125484 -5.33267e-22)
(0.992703 0.0131484 7.48567e-22)
(0.992783 0.0137433 4.93834e-22)
(0.992893 0.0143294 -9.91444e-22)
(0.993033 0.0149055 0)
(0.9932 0.0154707 -1.95682e-21)
(0.993396 0.0160217 3.91556e-21)
(0.99362 0.0165575 0)
(0.993871 0.0170768 1.92701e-21)
(0.994149 0.0175768 0)
(0.994453 0.0180568 3.8161e-21)
(0.994783 0.0185156 -7.61122e-21)
(0.995137 0.0189505 3.7736e-21)
(0.995515 0.0193613 -1.97395e-23)
(0.995916 0.0197466 3.71473e-21)
(0.996339 0.0201043 -3.73062e-21)
(0.996784 0.020435 3.69418e-21)
(0.997249 0.020736 7.35845e-21)
(0.997734 0.021007 0)
(0.998239 0.021248 0)
(0.998762 0.0214562 -7.22209e-21)
(0.999305 0.0216333 -1.43486e-20)
(0.99987 0.021775 1.42584e-20)
(1.00046 0.0218834 -7.97741e-21)
(1.00109 0.0219827 7.91588e-21)
(0.998498 -0.000107485 0)
(0.997969 0.000136385 8.54122e-21)
(0.997392 0.000462786 8.5273e-21)
(0.996786 0.000827099 1.27745e-20)
(0.996172 0.00123103 -1.27646e-20)
(0.995567 0.00167108 -4.23436e-21)
(0.994981 0.00214597 1.2751e-20)
(0.994416 0.00265893 -4.22374e-21)
(0.993878 0.00320018 4.22627e-21)
(0.993368 0.00377658 0)
(0.992888 0.0043801 8.47045e-21)
(0.992441 0.00501067 0)
(0.992025 0.00566977 -4.17097e-21)
(0.991644 0.00634814 -4.21279e-21)
(0.991297 0.00705059 4.90482e-23)
(0.990986 0.00777086 0)
(0.990711 0.00850616 4.16528e-21)
(0.990473 0.00925974 8.31776e-21)
(0.990272 0.0100218 0)
(0.99011 0.010794 2.05595e-21)
(0.989987 0.0115753 -2.0553e-21)
(0.989902 0.0123592 -2.04125e-21)
(0.989857 0.0131459 2.05225e-21)
(0.989851 0.0139334 -3.9902e-24)
(0.989885 0.014717 -5.06285e-22)
(0.989959 0.0154955 -2.2271e-22)
(0.990072 0.0162674 -5.01865e-22)
(0.990224 0.0170282 1.00218e-21)
(0.990415 0.0177765 0)
(0.990644 0.0185107 1.96964e-21)
(0.990912 0.019227 -3.92504e-21)
(0.991216 0.0199239 0)
(0.991557 0.0205999 0)
(0.991933 0.0212511 3.85315e-21)
(0.992344 0.0218769 -7.68555e-21)
(0.992787 0.0224758 3.83042e-21)
(0.993264 0.0230445 3.80691e-21)
(0.993771 0.0235823 0)
(0.994308 0.0240879 1.12537e-20)
(0.994873 0.0245587 -7.45428e-21)
(0.995465 0.0249954 -3.70312e-21)
(0.996084 0.0253949 1.62389e-23)
(0.996727 0.0257567 -7.31737e-21)
(0.997394 0.0260811 -7.26032e-21)
(0.998084 0.0263648 -7.21439e-21)
(0.998798 0.0266101 5.11982e-24)
(0.999539 0.0268115 -1.04978e-23)
(1.00031 0.0269726 0)
(1.00113 0.0271291 -1.40356e-20)
(0.997404 -0.00234437 0)
(0.996714 -0.00190309 2.22912e-21)
(0.995965 -0.00143868 -1.06887e-20)
(0.995187 -0.000996569 -8.54744e-21)
(0.994406 -0.000482494 8.53761e-21)
(0.99364 9.30048e-05 4.33935e-21)
(0.99289 0.000714747 -4.23857e-21)
(0.992163 0.00138341 0)
(0.991469 0.00208822 0)
(0.99081 0.00283681 8.5935e-21)
(0.990189 0.00361915 -8.4755e-21)
(0.989609 0.00443534 4.25346e-21)
(0.989069 0.00528685 -4.25002e-21)
(0.988573 0.00616288 4.24712e-21)
(0.988121 0.00706917 4.25426e-21)
(0.987715 0.00799815 -4.22254e-21)
(0.987358 0.00894649 -4.18122e-21)
(0.987047 0.00991769 -4.16712e-21)
(0.986786 0.0109004 4.17429e-21)
(0.986576 0.0118964 -4.17331e-21)
(0.986416 0.0129041 0)
(0.986307 0.0139158 2.08239e-21)
(0.986251 0.0149315 -2.05136e-21)
(0.986248 0.0159484 1.53705e-21)
(0.986296 0.0169611 0)
(0.986398 0.0179674 1.01653e-21)
(0.986552 0.0189655 0)
(0.986759 0.01995 -1.00064e-21)
(0.987017 0.0209185 1.72441e-23)
(0.987326 0.021869 1.04413e-23)
(0.987686 0.0227968 3.97428e-21)
(0.988095 0.0236996 0)
(0.988551 0.0245754 0)
(0.989055 0.0254195 0)
(0.989604 0.0262307 0)