/*--------------------------------*- C++ -*----------------------------------*\
| =========                 |                                                 |
| \\      /  F ield         | OpenFOAM: The Open Source CFD Toolbox           |
|  \\    /   O peration     | Version:  2312                                  |
|   \\  /    A nd           | Website:  www.openfoam.com                      |
|    \\/     M anipulation  |                                                 |
\*---------------------------------------------------------------------------*/
FoamFile
{
    version     2.0;
    format      ascii;
    arch        "LSB;label=32;scalar=64";
    class       volScalarField;
    location    "150";
    object      turbulenceProperties:epsilon;
}
// * * * * * * * * * * * * * * * * * * * * * * * * * * * * * * * * * * * * * //

dimensions      [0 2 -3 0 0 0 0];

internalField   nonuniform List<scalar> 
10720
(
0.0748268
0.107012
0.154903
0.196575
0.228826
0.26139
0.302585
0.356947
0.439615
0.569293
0.776712
1.12734
1.73328
2.87076
5.30828
11.8536
30.4044
100.214
372.309
873.738
1471.85
2228.47
3849.79
6703.24
10783.6
14381.1
14789.1
30954.4
54683.2
28185.4
9623.07
1685.31
314.671
32.5818
5.99025e-14
0.414513
17.0923
210.447
183.996
0.0621025
0.030379
0.0153392
0.067601
0.0186757
0.0328321
0.0404548
0.0468539
0.0575195
0.0714261
0.0949773
0.135523
0.199508
0.31606
0.541809
1.26956
2.98937
14.2045
28.8861
40.3232
53.6066
78.2125
111.004
163.974
241.628
348.866
369.31
257.844
117.051
33.0446
3.91352
0.0903099
5.1485e-14
4.59411e-14
0.14202
7.33949
0.101225
45.2641
3158.61
0.00937695
0.0140448
0.0105273
0.00821295
0.00590154
0.00409415
0.00295928
0.00221429
0.00174736
0.00143817
0.00123551
0.00107246
0.00119346
0.00190132
0.00379358
0.00902634
0.0227549
0.0564243
0.216722
1.89404
10.5243
32.7905
73.6688
229.831
850.819
1909.41
6066.17
21695.6
17726.3
4709.52
1730.59
923.767
260.792
34.8129
0.810492
0.110206
5.08313
68.7309
157.749
0.000169021
0.000472598
0.000445594
0.00603802
0.0032371
0.00146713
0.000586828
0.000434739
0.000459664
0.000472074
0.000450118
0.000549539
0.0004449
0.00266431
0.00352617
0.00527715
0.00562486
0.000236103
8.67216e-06
1.5122
2.1436
0.0133666
0.0680488
29.4119
2.88784
5.67631
0.877042
1.36263
0.0685815
0.401904
0.395544
0.0101475
1.33275e-14
1.28426e-14
0.00234553
0.122497
0.0018306
3.50335
284.078
0.000762395
0.000354878
0.000560668
0.000570199
0.000638151
0.000712565
0.000785575
0.000856245
0.000924194
0.000992475
0.00106203
0.0011374
0.00122184
0.00106302
0.00177587
0.00384006
0.00896041
0.0237722
0.0675565
0.153483
0.0914023
1.39223
3.05505
11.0347
37.4804
112.112
1122.32
5782.48
7698.25
5163.43
1943.93
678.967
325.236
86.3147
7.84446
0.272996
1.48486
67.3269
111.469
0.00198263
0.00327184
0.00352097
0.00237409
0.000643627
0.000374606
0.000229798
0.000214359
0.000227049
0.000239028
0.000245362
0.000292717
2.51192e-05
0.000213963
0.000188855
0.000186284
0.00018398
0.000547824
0.00169302
0.000284191
0.000311734
0.0133567
0.015333
0.000361995
0.0144281
0.0306081
0.0065048
0.00131779
0.0010891
0.00493372
0.00485607
0.000409537
0.000423284
0.000379693
0.000251583
0.00294411
9.28577e-16
0.0486421
11.4537
0.00311144
0.00302133
0.00296845
0.0028817
0.00290638
0.00294636
0.00296698
0.00298002
0.00299579
0.0030147
0.00303662
0.00307015
0.0031168
0.00315761
0.00320167
0.00325851
0.00303095
0.00171859
0.000528573
4.08779e-16
3.88277e-16
2.74909e-16
2.03694e-17
0.00672791
0.0200446
710.687
2237.91
3488.91
2140.99
1378.58
765.223
282.017
36.6961
28.8111
11.8801
0.463859
1.54863
64.0569
64.2091
0.00396218
0.00229187
0.000519168
0.000406787
0.000361693
0.000492264
0.000992998
0.00101713
0.00101657
0.00101009
0.000999952
0.00104438
0.000971549
0.0008939
0.00091907
0.000942807
0.000989532
0.00107049
0.00123145
0.00139174
0.00147578
0.00159824
0.00166715
0.00151887
0.00159528
0.00148328
0.00127029
0.00131191
0.00123819
0.0012726
0.00126458
0.00120439
0.00107655
0.000880284
0.000559957
0.00026615
4.53342e-06
0.037785
0.609054
0.00253183
0.00222244
0.00212244
0.00202455
0.00195014
0.00191705
0.00184614
0.00178232
0.00176412
0.00177171
0.00180363
0.00184746
0.0019053
0.00198917
0.00209431
0.00222694
0.00242301
0.00265789
0.00231569
0.000303908
0.000158972
4.28668e-16
4.01223e-16
2.94333e-16
0.020869
73.1829
4.45046e+06
4.68296e+06
2.65277e+06
1.86893e+06
2.58677e+06
5.05201e+06
1106
13.7324
2.25364
1.33363
0.993595
51.6489
41.8492
0.00103837
0.000449754
0.000358403
0.000707514
0.00186593
0.00244486
0.00260381
0.00267852
0.00273394
0.00278213
0.00282896
0.00287514
0.00294649
0.00306565
0.00307952
0.00303445
0.00309389
0.00316764
0.00323647
0.0032779
0.00329245
0.00328585
0.00326665
0.00323914
0.00320786
0.00317338
0.00313253
0.00308303
0.00301789
0.00294324
0.00285049
0.00272512
0.00257115
0.00241253
0.00210771
0.00203365
3.73781e-05
0.0290838
0.130003
0.000179553
0.000355188
0.000163943
3.49318e-05
0.000304015
0.000309839
0.000311364
0.00030877
0.000323121
0.000357868
0.000375231
0.000384315
0.000407421
0.000435669
0.00046861
0.000510136
2.55388e-05
0.000227973
0.000505338
0.000779053
0.000872216
0.000281046
0.000212378
4.45371e-16
3.89767e-16
9.7018e-11
1.95433e-05
1.89918e-05
1.12607e-05
4.66799e-06
1.50643e-06
3.74539e-07
7.5422e-08
65.5243
3.42525
4.91229
3.83564
62.6422
0.739384
0.000339253
0.000459337
0.00169585
0.00219507
0.00204163
0.00167726
0.00166511
0.00173556
0.00181532
0.00190158
0.00199761
0.00210497
0.00222468
0.00235093
0.0025122
0.00269476
0.00287294
0.00300764
0.0031157
0.00319172
0.00324219
0.00327321
0.00328669
0.00328515
0.00327469
0.00325585
0.00322208
0.00317558
0.00311405
0.00303387
0.00294455
0.00281801
0.00270242
0.00265836
0.00245666
0.00247147
4.91932e-05
0.0213245
0.758344
9.45615e-05
0.000224413
0.000356859
0.000414826
0.000459025
0.00049436
0.000537278
0.000523765
0.000590424
0.000778384
0.000800254
0.000747569
0.000771505
0.000792335
0.000813874
0.000838227
0.0008606
0.000845829
0.000849749
0.000952779
0.00116163
0.00120983
0.00112571
0.000529829
0.000163643
0.0168173
8.62801e-06
1.42133e-05
1.23783e-05
7.03241e-06
2.99516e-06
1.06599e-06
3.80136e-07
1.50465e-07
9.18545
33.7766
6.39568e-09
2103.04
35.4711
0.00132672
0.00213001
0.00193406
0.00109326
0.000484245
0.000180379
0.000167565
0.000189986
0.00023123
0.000283091
0.000345229
0.000419784
0.000509607
0.000610724
0.000727982
0.000884206
0.0010176
0.00109754
0.00114265
0.00116875
0.00117586
0.0011699
0.00115355
0.00114044
0.00113006
0.00111885
0.00110429
0.00108763
0.00106801
0.0010442
0.00101995
0.00101602
0.00103258
0.00108055
0.00110535
0.00142292
2.9355e-05
0.0102378
0.513556
0.00182212
0.00176336
0.00179838
0.00187249
0.00187388
0.00185917
0.00190351
0.00194425
0.00196894
0.00199986
0.00204748
0.00209063
0.00213976
0.00219493
0.00224406
0.00229173
0.0023506
0.00239715
0.00236665
0.00229641
0.00226225
0.00228573
0.00233323
0.00240788
0.000847549
0.0408499
237.622
9.21104e-06
1.10939e-05
8.33689e-06
4.51029e-06
2.04059e-06
9.40477e-07
5.15221e-07
3.31454e-07
1.5977e-07
5.90682e-08
1.20061e-05
0.000173035
0.00208501
0.00129868
0.000260961
0.000172649
0.000136553
0.000112708
0.000115119
0.000119361
0.000125376
0.000133155
0.000141691
0.00015233
0.000166358
0.000183047
0.000203714
0.000232146
0.000265386
0.000280753
0.00028351
0.000293713
0.000300767
0.000295553
0.000301149
0.000319132
0.000323346
0.000326148
0.000327565
0.000327746
0.000326406
0.000323413
0.000319447
0.000330876
0.000327788
0.000313644
0.000314412
0.000136956
5.05578e-05
0.00313147
0.166664
0.00154634
0.00138398
0.00129757
0.00123749
0.00120006
0.00116179
0.00113503
0.00111986
0.00111767
0.00112777
0.00114846
0.00116846
0.00122
0.00130871
0.00137052
0.00143395
0.00153905
0.00167851
0.00185112
0.00200605
0.00212793
0.00221793
0.00230559
0.00235793
0.00275699
0.233317
1324.24
5.42245e-06
8.69588e-06
8.41505e-06
5.66506e-06
3.11777e-06
1.70117e-06
1.04576e-06
7.24705e-07
4.26722e-07
1.97783e-07
9.84658e-08
0.000213659
0.000636459
0.000236186
0.000130857
4.74558e-06
0.000531693
0.000622225
0.000637153
0.000643812
0.000643402
0.000640598
0.000636327
0.000630108
0.000622645
0.000615577
0.000609765
0.000603824
0.000639982
0.000607936
0.000534685
0.000523597
0.000512948
0.000449003
0.000456623
0.000525873
0.000523625
0.000519163
0.000512645
0.000504323
0.000494014
0.000481767
0.000467256
0.000504599
0.000457451
0.000332538
0.00028471
0.000238031
0.000205888
0.000440851
0.0227944
0.000213256
0.000257763
0.000132411
6.179e-05
8.48091e-06
0.000162151
0.000162665
0.000167277
0.000173364
0.00018005
0.000189017
0.000198135
0.000212073
0.000232794
1.58297e-06
5.83566e-05
0.000134224
0.000220482
0.000361948
0.000616251
0.000916002
0.00116826
0.0014183
0.00151436
0.00228198
0.200326
1124.66
2.9763e-06
6.16502e-06
7.50847e-06
6.19645e-06
4.06387e-06
2.54036e-06
1.70013e-06
1.23751e-06
8.20788e-07
4.37509e-07
2.4126e-07
1.20048e-07
0.000154836
0.000221171
0.000724905
0.0012252
0.00137081
0.00136443
0.00136946
0.00138281
0.00139727
0.00141366
0.00143246
0.00145229
0.00147232
0.0014916
0.00150913
0.00152463
0.00153666
0.00155438
0.00156151
0.00156124
0.00155578
0.00154706
0.00152641
0.00150755
0.00148721
0.00146483
0.00143922
0.0014103
0.00137696
0.00133975
0.00129976
0.00125711
0.00118776
0.00109047
0.00093893
0.000816522
0.000777345
0.000101863
0.00522502
0.000186249
0.000138026
0.000138679
0.000135989
2.01625e-05
5.92087e-05
9.25031e-05
0.00012346
0.000151007
0.000173873
0.000193388
0.000210978
0.000226692
0.000241922
0.000258433
0.000278994
0.000305441
0.000325908
0.000334701
0.000400978
0.000535603
0.000694687
0.000898261
0.000987088
0.0016494
0.151397
847.074
1.54355e-06
4.024e-06
6.05255e-06
6.04107e-06
4.66366e-06
3.29306e-06
2.37485e-06
1.79329e-06
1.27632e-06
7.48778e-07
4.47897e-07
2.74723e-07
0.000446559
0.00111137
0.00118197
0.000972461
0.000861845
0.000839083
0.000834266
0.000844612
0.000862485
0.000885933
0.000913981
0.000945688
0.000977942
0.00100508
0.00102343
0.00103698
0.00104536
0.00104877
0.00104732
0.0010423
0.00103482
0.00102629
0.00101729
0.00100708
0.00099513
0.000981168
0.000964891
0.000946705
0.000926105
0.000903718
0.000879168
0.000856694
0.000840358
0.000820373
0.000792912
0.000744302
0.000751301
0.000367
7.94546e-06
0.000829525
0.000842326
0.000891949
0.00094794
0.00100312
0.00105762
0.00110462
0.00114477
0.0011804
0.00121199
0.00124106
0.00126871
0.00129517
0.00132179
0.00134942
0.00137798
0.00140777
0.00148871
0.0014839
0.00135988
0.00128951
0.00123359
0.00123001
0.00116041
0.00154841
0.144497
810.781
7.62163e-07
2.44988e-06
4.47385e-06
5.32945e-06
4.79469e-06
3.79639e-06
2.94115e-06
2.33064e-06
1.73851e-06
1.09876e-06
7.04884e-07
4.94265e-07
0.00121439
0.00099114
0.00051553
0.000147824
5.0326e-05
5.02788e-05
4.72003e-05
4.86243e-05
5.49773e-05
6.5623e-05
7.8455e-05
9.29901e-05
0.000104565
0.000112989
0.000118076
0.000122352
0.000127306
0.000130609
0.000131385
0.000131112
0.000130286
0.000128886
0.000126994
0.000125041
0.000123319
0.000121691
0.00012014
0.000118722
0.000117459
0.000116465
0.000115084
0.000113835
0.00012719
0.000158932
0.00020126
0.000248817
0.000309168
0.000383733
1.00114e-05
0.00114451
0.00102795
0.00100011
0.000989338
0.000976544
0.000970927
0.000972354
0.000977485
0.000988222
0.00100447
0.00102547
0.00105109
0.00108107
0.00111646
0.00115654
0.00120048
0.0012503
0.00129605
0.00136857
0.00145014
0.00145276
0.00140726
0.00138581
0.00129366
0.00153264
0.136212
771.128
3.59932e-07
1.40308e-06
3.06496e-06
4.30255e-06
4.46742e-06
3.94546e-06
3.28287e-06
2.71325e-06
2.12909e-06
1.45211e-06
9.99756e-07
7.64732e-07
0.000715836
0.000165674
9.02165e-05
5.96436e-05
4.97663e-05
4.95338e-05
5.0513e-05
5.10186e-05
5.17098e-05
5.29208e-05
5.38925e-05
5.51705e-05
5.6545e-05
5.76524e-05
5.86379e-05
5.99433e-05
6.16275e-05
6.3376e-05
6.49538e-05
6.65293e-05
6.80937e-05
6.95774e-05
7.09235e-05
7.20627e-05
7.289e-05
7.34804e-05
7.39153e-05
7.42011e-05
7.43023e-05
7.42362e-05
7.36396e-05
7.30157e-05
7.44273e-05
7.6868e-05
8.35504e-05
8.48565e-05
8.66355e-05
6.77684e-05
5.42644e-06
0.000367869
0.000365915
0.000307219
0.000276577
0.000248969
0.000228477
0.000216183
0.000209999
0.000210258
0.000216402
0.00022753
0.00024344
0.000264198
0.000291595
0.00032222
0.000356508
0.000407939
0.000469861
0.000534663
0.000633541
0.000756074
0.000864047
0.000964158
0.000992812
0.00124515
0.101335
0.0008967
0.000576853
7.60162e-07
1.96133e-06
3.2069e-06
3.80701e-06
3.73191e-06
3.33497e-06
2.8739e-06
2.37346e-06
1.75284e-06
1.10535e-06
8.80972e-07
0.000132653
5.08823e-05
0.000110533
0.000277281
0.00029373
0.000282038
0.000287735
0.000292873
0.000294601
0.000294246
0.000293007
0.000291199
0.000289264
0.000287483
0.000285725
0.000283885
0.000282154
0.000280497
0.000278791
0.000277081
0.000275219
0.00027312
0.000270782
0.000268167
0.000265196
0.000261836
0.000258046
0.000253853
0.000249093
0.000243747
0.000236821
0.000230077
0.000219264
0.000195793
0.000181123
0.00013719
7.53607e-05
7.45494e-05
9.30674e-05
5.02178e-05
5.18939e-05
5.31954e-05
5.35967e-05
5.47592e-05
5.66765e-05
5.72944e-05
5.88894e-05
6.09474e-05
6.31043e-05
6.6169e-05
6.97799e-05
7.40103e-05
7.94433e-05
8.55215e-05
9.23442e-05
0.000102133
0.000117469
0.000128832
0.000142
2.59067e-05
0.000148083
0.000292453
0.00040529
0.000662378
0.0478813
0.0131571
0.0105389
3.91046e-07
1.17899e-06
2.22237e-06
2.99011e-06
3.23769e-06
3.10575e-06
2.79908e-06
2.42237e-06
1.51787e-06
1.29954e-07
7.48605e-09
8.52351e-05
0.000233859
0.000562199
0.000648781
0.000639541
0.000633376
0.000635761
0.000642094
0.000645666
0.00064691
0.000647562
0.000648065
0.000648395
0.000648588
0.000648585
0.000648299
0.000647574
0.000646365
0.000644609
0.000642267
0.000639241
0.000635375
0.000630539
0.000624542
0.000617297
0.000608999
0.000599654
0.000589383
0.000577888
0.000565045
0.000547144
0.000532993
0.000507728
0.000478349
0.000453995
0.000400426
0.000343361
0.000257695
0.000204157
3.15995e-05
3.99442e-05
7.94997e-05
0.000123887
0.000152392
0.000178446
0.000198231
0.000213665
0.000225794
0.000234711
0.000241292
0.000246055
0.000249211
0.000251356
0.00025281
0.00025337
0.000254314
0.000276965
0.000269572
0.000226321
0.000199354
0.000191104
0.000220024
0.000259792
0.000376614
0.0198885
0.0266775
0.0263191
1.91435e-07
6.68394e-07
1.43987e-06
2.17876e-06
2.59342e-06
2.66777e-06
2.52068e-06
2.24304e-06
1.95878e-08
1.15766e-13
2.26463e-15
0.000437492
0.000648915
0.00054804
0.000381382
0.000360102
0.000365276
0.000365607
0.000369598
0.000373007
0.000374905
0.000376769
0.00037906
0.000381515
0.000383897
0.000386029
0.000387857
0.00038923
0.000390112
0.000390419
0.000390125
0.000389137
0.000387365
0.000384801
0.000381413
0.000377236
0.000372414
0.000367011
0.000361116
0.00035458
0.000347329
0.000339683
0.000331749
0.000327157
0.000325921
0.000324113
0.000319437
0.000307463
0.000272971
0.000237511
0.000565971
0.00055593
0.000569469
0.000592187
0.000611168
0.000627136
0.000639209
0.000647566
0.000652998
0.000655904
0.000657243
0.000657713
0.000657542
0.00065735
0.000657674
0.000658033
0.000658032
0.000657974
0.000657885
0.000654293
0.000645022
0.000580931
0.000492164
0.000446707
0.000426382
0.00965783
0.0424264
0.0510732
8.92972e-08
3.58325e-07
8.75804e-07
1.48075e-06
1.92956e-06
2.12558e-06
2.10801e-06
8.08528e-07
4.38083e-13
2.07804e-15
5.3672e-16
0.000656937
0.000404123
0.000146711
2.9621e-06
5.26464e-05
5.46091e-05
5.50862e-05
5.48784e-05
5.44991e-05
5.40907e-05
5.31419e-05
5.24311e-05
6.58656e-07
2.21435e-06
3.71647e-06
5.14467e-06
6.47242e-06
7.69145e-06
8.77859e-06
9.7277e-06
1.05191e-05
1.11637e-05
1.17085e-05
1.22336e-05
1.27852e-05
1.3333e-05
1.38825e-05
1.44244e-05
1.4971e-05
1.55368e-05
1.60671e-05
1.62056e-05
1.73608e-05
2.98674e-05
5.09338e-05
7.91605e-05
0.00011541
0.000149094
0.000163163
0.00054823
0.000496076
0.000471812
0.000458768
0.000444205
0.000430945
0.000421149
0.00041358
0.00040863
0.000406194
0.000405752
0.000406979
0.000409591
0.000413498
0.000418817
0.000425215
0.000432298
0.000440372
0.000450002
0.000465565
0.000485331
0.000500241
0.000500473
0.000477299
0.000437103
0.00398222
0.0474319
0.0691144
3.97121e-08
1.81966e-07
5.01648e-07
9.42692e-07
1.34039e-06
1.57953e-06
1.64536e-06
9.63951e-07
3.11673e-12
2.56139e-15
3.32659e-15
0.000247601
3.6571e-06
2.14159e-05
1.08593e-05
1.29783e-05
1.34741e-05
1.38979e-05
1.37795e-05
1.35103e-05
1.32353e-05
1.27632e-05
1.22846e-05
1.20316e-05
1.19452e-05
1.19543e-05
1.20936e-05
1.23059e-05
1.26017e-05
1.29642e-05
1.33775e-05
1.38143e-05
1.427e-05
1.47406e-05
1.51842e-05
1.55352e-05
1.58236e-05
1.60848e-05
1.63168e-05
1.65158e-05
1.66754e-05
1.67814e-05
1.67596e-05
1.68162e-05
1.82229e-05
2.07605e-05
2.51627e-05
3.00938e-05
2.16935e-05
6.71941e-05
0.000113042
0.000130514
9.48673e-05
7.30161e-05
5.55452e-05
4.07418e-05
2.98033e-05
2.28804e-05
1.94676e-05
1.89618e-05
2.03773e-05
2.31378e-05
2.6935e-05
3.17496e-05
3.75391e-05
4.42438e-05
5.19971e-05
6.09962e-05
7.14701e-05
8.3407e-05
0.000113348
0.000167561
0.000225279
0.000270223
0.000286594
0.00129823
0.0384312
0.0673144
1.68405e-08
8.76412e-08
2.71225e-07
5.64151e-07
8.73225e-07
1.10032e-06
1.20588e-06
8.92602e-07
1.38949e-11
4.60168e-13
8.67566e-16
4.53535e-05
1.56774e-05
4.40305e-05
7.03305e-05
8.57423e-05
8.65965e-05
8.86603e-05
8.93272e-05
8.91696e-05
8.86721e-05
8.78238e-05
8.67437e-05
8.56652e-05
8.46329e-05
8.36307e-05
8.27112e-05
8.1862e-05
8.10579e-05
8.02968e-05
7.95711e-05
7.88544e-05
7.81242e-05
7.7379e-05
7.66175e-05
7.57724e-05
7.481e-05
7.37467e-05
7.25914e-05
7.13301e-05
6.99347e-05
6.83824e-05
6.66761e-05
6.44539e-05
5.76389e-05
4.76377e-05
3.90006e-05
2.12736e-05
1.21036e-05
3.78361e-05
1.49735e-05
1.75421e-05
1.46721e-05
1.28528e-05
1.23715e-05
1.21666e-05
1.17136e-05
1.14848e-05
1.14142e-05
1.14717e-05
1.17934e-05
1.22597e-05
1.28558e-05
1.36658e-05
1.46645e-05
1.58501e-05
1.72346e-05
1.88635e-05
2.07794e-05
2.29421e-05
2.72998e-05
3.5643e-05
4.61303e-05
4.20654e-05
8.35173e-05
0.000346807
0.0216372
0.0452801
6.81091e-09
4.00703e-08
1.3869e-07
3.18309e-07
5.3557e-07
7.21859e-07
8.34085e-07
7.34649e-07
4.73437e-11
4.0328e-17
5.33024e-16
4.07882e-05
0.000112854
0.0002476
0.000284201
0.00029317
0.000292892
0.0002936
0.000294188
0.000293625
0.000292373
0.000290826
0.000289148
0.000287501
0.000285909
0.000284325
0.000282753
0.000281149
0.000279456
0.000277654
0.000275714
0.000273584
0.000271194
0.000268521
0.000265535
0.000262158
0.000258414
0.000254339
0.000249947
0.000245208
0.000240021
0.000234353
0.000228324
0.000222195
0.000211934
0.000196091
0.000173537
0.000143317
0.000110196
8.75099e-05
5.94745e-05
3.43632e-05
7.13819e-06
1.9585e-05
3.22363e-05
4.40848e-05
5.29175e-05
5.81778e-05
6.11314e-05
6.26471e-05
6.33989e-05
6.3722e-05
6.37179e-05
6.3644e-05
6.36182e-05
6.35152e-05
6.33025e-05
6.3045e-05
6.27734e-05
6.22e-05
5.71211e-05
5.17457e-05
3.38276e-05
2.49702e-05
2.88631e-05
0.000126661
0.0132112
0.0328544
2.62779e-09
1.74093e-08
6.7194e-08
1.69783e-07
3.10326e-07
4.4779e-07
5.46969e-07
5.43266e-07
1.29926e-10
2.97302e-15
1.47916e-15
0.000205485
0.00029698
0.000258701
0.000226336
0.000223483
0.00022045
0.000218086
0.000217535
0.0002168
0.000215681
0.00021459
0.000213653
0.000212822
0.000212082
0.000211388
0.000210681
0.000209917
0.000209066
0.000208092
0.000206967
0.000205656
0.000204094
0.00020225
0.000200095
0.000197622
0.00019489
0.000191911
0.000188681
0.000185193
0.000181391
0.000177231
0.000172831
0.000169128
0.00016708
0.000164597
0.000158861
0.000150356
0.00013197
0.000106876
0.000259098
0.000243308
0.000248056
0.000256115
0.000262893
0.000268314
0.000271828
0.000272437
0.000271414
0.00026993
0.000268275
0.000266538
0.000264497
0.000262633
0.000261074
0.000259424
0.000257492
0.000255428
0.000253415
0.000251338
0.000246429
0.000230233
0.000203606
0.000174351
0.000143166
0.000156621
0.0162657
0.0478389
9.67486e-10
7.19421e-09
3.08991e-08
8.58298e-08
1.70416e-07
2.63655e-07
3.415e-07
3.72149e-07
3.04385e-10
1.01834e-14
6.97361e-16
0.000309916
0.000190623
8.02592e-05
4.3306e-05
3.79623e-05
3.65882e-05
3.47729e-05
3.39996e-05
3.35813e-05
3.31075e-05
3.26778e-05
3.23823e-05
3.22134e-05
3.2135e-05
3.21192e-05
3.2148e-05
3.22069e-05
3.22931e-05
3.23994e-05
3.25215e-05
3.26507e-05
3.27816e-05
3.29084e-05
3.30189e-05
3.30922e-05
3.31116e-05
3.30664e-05
3.29492e-05
3.27579e-05
3.249e-05
3.2123e-05
3.15682e-05
3.11439e-05
3.44962e-05
4.25584e-05
5.40572e-05
6.9554e-05
8.06535e-05
7.904e-05
0.000275218
0.00025699
0.000248137
0.000243424
0.000238565
0.000234205
0.000230752
0.000226474
0.000221963
0.000218578
0.000215813
0.00021348
0.000211121
0.000209423
0.000208581
0.000207784
0.000206984
0.000206326
0.000205994
0.000206201
0.000209421
0.00021269
0.00020979
0.000202855
0.000182662
0.000180787
0.0182325
0.063151
3.40063e-10
2.83103e-09
1.35069e-08
4.12148e-08
8.89475e-08
1.47881e-07
2.03775e-07
2.40065e-07
6.29495e-10
1.10409e-13
4.05592e-15
0.000127325
7.24565e-06
1.27475e-05
6.46054e-06
5.77004e-06
5.70529e-06
5.44951e-06
5.22701e-06
5.05023e-06
4.88183e-06
4.65878e-06
4.45883e-06
4.32523e-06
4.21488e-06
4.14951e-06
4.14087e-06
4.16711e-06
4.23662e-06
4.34431e-06
4.48464e-06
4.6509e-06
4.84099e-06
5.05178e-06
5.25451e-06
5.41663e-06
5.55323e-06
5.67904e-06
5.79144e-06
5.88886e-06
5.96918e-06
6.02698e-06
6.04249e-06
6.07601e-06
6.85392e-06
8.60446e-06
1.11136e-05
1.5257e-05
1.82907e-05
3.68405e-05
7.23728e-05
7.24398e-05
6.32258e-05
5.84299e-05
5.39289e-05
4.99421e-05
4.65696e-05
4.42521e-05
4.24719e-05
4.11626e-05
4.02868e-05
3.97695e-05
3.9607e-05
3.96564e-05
4.00151e-05
4.06925e-05
4.16701e-05
4.29972e-05
4.47438e-05
4.661e-05
5.00423e-05
6.36713e-05
8.19814e-05
0.000102329
0.00011311
0.000137484
0.0119993
0.0496499
1.14138e-10
1.06176e-09
5.61935e-09
1.88406e-08
4.42343e-08
7.92336e-08
1.16551e-07
1.47563e-07
1.17556e-09
6.31875e-13
2.41604e-14
2.5194e-05
4.5047e-06
1.23539e-05
1.47904e-05
1.60736e-05
1.71406e-05
1.76099e-05
1.74141e-05
1.70386e-05
1.66428e-05
1.59772e-05
1.52831e-05
1.47441e-05
1.42286e-05
1.38392e-05
1.36298e-05
1.35271e-05
1.35592e-05
1.37084e-05
1.39544e-05
1.42716e-05
1.46469e-05
1.50666e-05
1.5435e-05
1.56466e-05
1.57649e-05
1.58598e-05
1.59241e-05
1.5957e-05
1.5954e-05
1.59077e-05
1.58132e-05
1.56833e-05
1.53524e-05
1.43565e-05
1.2513e-05
9.97687e-06
1.17099e-05
9.72139e-06
9.88459e-06
1.00325e-05
9.35142e-06
8.28804e-06
7.72841e-06
7.24802e-06
6.63275e-06
6.27459e-06
5.9927e-06
5.73731e-06
5.59984e-06
5.51767e-06
5.49533e-06
5.53512e-06
5.62817e-06
5.78547e-06
6.00036e-06
6.28066e-06
6.63497e-06
7.01883e-06
7.64847e-06
9.85896e-06
1.30651e-05
2.35568e-06
2.186e-05
5.6667e-05
0.00411552
0.00150605
0.00245304
3.79621e-10
2.22769e-09
8.20853e-09
2.10017e-08
4.06472e-08
6.40539e-08
8.70455e-08
2.00416e-09
2.98198e-12
1.19617e-13
1.26002e-05
2.54677e-05
8.09461e-05
9.68442e-05
0.000103471
0.000107686
0.000110218
0.000111306
0.000111548
0.00011137
0.000110944
0.000110334
0.000109629
0.000108881
0.000108097
0.00010729
0.00010646
0.000105596
0.000104693
0.000103743
0.000102723
0.000101593
0.000100333
9.89457e-05
9.74325e-05
9.57948e-05
9.40568e-05
9.22223e-05
9.02995e-05
8.82854e-05
8.61584e-05
8.39076e-05
8.15832e-05
7.83545e-05
7.19505e-05
6.1631e-05
4.83331e-05
3.56779e-05
2.83433e-05
2.29582e-05
1.52768e-05
1.58856e-05
1.50169e-05
1.49799e-05
1.50204e-05
1.46121e-05
1.44305e-05
1.4245e-05
1.39517e-05
1.37895e-05
1.36343e-05
1.34959e-05
1.34323e-05
1.33862e-05
1.33759e-05
1.33766e-05
1.33909e-05
1.34157e-05
1.34377e-05
1.34432e-05
1.2868e-05
1.15207e-05
1.01538e-05
1.2459e-05
6.279e-06
0.000727221
0.00218119
0.00416713
1.2952e-10
8.41918e-10
3.41317e-09
9.53078e-09
1.99863e-08
3.38791e-08
4.94616e-08
3.09961e-09
1.21746e-11
3.2414e-15
7.07465e-05
0.000138762
0.000139458
0.000134413
0.000134278
0.000133756
0.000132952
0.000131832
0.000130536
0.000129248
0.000128054
0.000126923
0.000125841
0.000124819
0.000123838
0.00012288
0.000121926
0.000120963
0.000119969
0.000118928
0.00011781
0.000116573
0.000115176
0.000113608
0.000111889
0.000110031
0.000108053
0.000105954
0.000103747
0.000101438
9.9004e-05
9.64439e-05
9.39139e-05
9.17403e-05
8.86339e-05
8.34804e-05
7.54298e-05
6.22417e-05
4.80249e-05
0.000106967
0.00010828
0.000105348
0.000104
0.000102782
0.000101855
0.000101123
0.000100398
9.96928e-05
9.89667e-05
9.82013e-05
9.74117e-05
9.65823e-05
9.57209e-05
9.4842e-05
9.39039e-05
9.28749e-05
9.17947e-05
9.07229e-05
8.9618e-05
8.84855e-05
8.37482e-05
7.42466e-05
6.26208e-05
5.33128e-05
3.99983e-05
0.000318306
0.00377279
8.28596e-05
8.26879e-05
3.03637e-10
1.35492e-09
4.13729e-09
9.42893e-09
1.72524e-08
2.71248e-08
4.21603e-09
4.22717e-11
4.03548e-14
0.000156414
0.000114712
6.78592e-05
5.31318e-05
4.74911e-05
4.38856e-05
4.13161e-05
3.94346e-05
3.79778e-05
3.68636e-05
3.60432e-05
3.54165e-05
3.49034e-05
3.44768e-05
3.41043e-05
3.37693e-05
3.34643e-05
3.31663e-05
3.28761e-05
3.2575e-05
3.2268e-05
3.19336e-05
3.1559e-05
3.11565e-05
3.07233e-05
3.02623e-05
2.97725e-05
2.92601e-05
2.87236e-05
2.81642e-05
2.75683e-05
2.69385e-05
2.62931e-05
2.64561e-05
2.91791e-05
3.35768e-05
3.82366e-05
4.08238e-05
3.92834e-05
0.000147979
0.000136152
0.00013132
0.000126707
0.000122893
0.000119829
0.000117486
0.000115501
0.000113769
0.00011224
0.000110836
0.000109536
0.00010832
0.000107158
0.000106049
0.000104934
0.000103771
0.000102599
0.000101476
0.000100375
9.96946e-05
9.90043e-05
9.60245e-05
9.06963e-05
8.34977e-05
6.97916e-05
0.000160518
0.00361467
0.00212199
0.00242805
1.046e-10
5.14177e-10
1.71899e-09
4.26934e-09
8.46146e-09
1.43637e-08
4.78374e-09
1.18472e-10
2.56878e-13
9.13235e-05
2.16208e-05
1.26928e-05
8.12705e-06
7.38385e-06
6.98282e-06
6.58896e-06
6.14696e-06
5.76668e-06
5.46069e-06
5.12474e-06
4.81777e-06
4.58284e-06
4.36743e-06
4.20044e-06
4.09883e-06
4.03682e-06
4.02275e-06
4.05295e-06
4.11932e-06
4.21383e-06
4.33502e-06
4.47502e-06
4.60127e-06
4.67512e-06
4.72066e-06
4.76116e-06
4.79616e-06
4.82462e-06
4.84499e-06
4.85379e-06
4.85137e-06
4.84048e-06
4.97456e-06
5.60048e-06
6.61225e-06
7.0928e-07
1.05345e-05
1.81224e-05
5.31593e-05
5.13634e-05
4.37304e-05
3.89346e-05
3.57798e-05
3.34999e-05
3.18945e-05
3.06988e-05
2.9745e-05
2.89865e-05
2.83712e-05
2.78652e-05
2.74539e-05
2.7133e-05
2.68834e-05
2.67022e-05
2.65751e-05
2.65224e-05
2.65637e-05
2.66815e-05
2.71461e-05
2.99665e-05
3.56203e-05
4.17695e-05
4.65724e-05
4.9079e-05
6.77417e-05
0.00135311
0.0029968
0.00392713
3.44701e-11
1.867e-10
6.84509e-10
1.85585e-09
3.99703e-09
7.34598e-09
4.37376e-09
2.568e-10
1.20656e-12
1.83491e-05
3.00706e-06
3.53237e-06
4.42403e-06
4.83158e-06
4.96944e-06
4.95103e-06
4.87236e-06
4.42756e-06
4.12886e-06
3.90219e-06
3.6942e-06
3.5298e-06
3.36835e-06
3.23729e-06
3.15422e-06
3.09855e-06
3.0807e-06
3.09776e-06
3.14555e-06
3.21626e-06
3.30936e-06
3.42078e-06
3.52045e-06
3.57375e-06
3.60158e-06
3.62578e-06
3.64463e-06
3.65736e-06
3.66326e-06
3.66121e-06
3.6512e-06
3.63078e-06
3.58675e-06
3.25343e-06
2.63389e-06
2.16256e-06
3.10827e-06
4.29018e-06
7.42278e-06
7.25766e-06
6.59352e-06
5.61435e-06
5.19991e-06
4.91756e-06
4.57754e-06
4.37259e-06
4.20191e-06
4.02805e-06
3.91636e-06
3.82344e-06
3.75004e-06
3.71203e-06
3.69008e-06
3.68889e-06
3.70281e-06
3.73304e-06
3.78015e-06
3.84023e-06
3.94964e-06
4.39643e-06
5.25996e-06
6.64184e-06
4.50661e-06
1.35351e-05
2.27035e-05
0.000257569
0.00204228
0.00324595
1.08828e-11
6.49675e-11
2.61523e-10
7.75611e-10
1.81942e-09
3.62974e-09
3.28496e-09
4.29101e-10
4.32087e-12
3.35776e-06
1.08496e-05
2.26752e-05
2.83876e-05
3.04885e-05
3.06203e-05
3.04232e-05
3.06363e-05
2.85936e-05
2.73571e-05
2.6994e-05
2.67905e-05
2.66167e-05
2.64484e-05
2.62772e-05
2.61025e-05
2.59237e-05
2.57352e-05
2.55347e-05
2.53185e-05
2.50816e-05
2.48152e-05
2.45135e-05
2.41811e-05
2.38242e-05
2.34413e-05
2.30337e-05
2.26014e-05
2.21433e-05
2.16623e-05
2.1154e-05
2.06233e-05
2.00603e-05
1.93918e-05
1.72214e-05
1.36549e-05
1.02753e-05
4.90181e-06
2.91378e-06
8.23464e-06
4.66484e-06
4.67952e-06
4.36752e-06
4.36831e-06
4.42058e-06
4.34011e-06
4.33036e-06
4.31764e-06
4.26228e-06
4.24218e-06
4.21766e-06
4.19169e-06
4.18509e-06
4.17814e-06
4.17531e-06
4.171e-06
4.16433e-06
4.15533e-06
4.14173e-06
4.11096e-06
4.00023e-06
3.56889e-06
2.96717e-06
3.00717e-06
3.8315e-06
5.36869e-06
2.1843e-05
0.000570132
0.000312217
0.00027946
2.17219e-11
9.60715e-11
3.1204e-10
7.9908e-10
1.73433e-09
2.12203e-09
5.59983e-10
1.19852e-11
2.38876e-05
6.11259e-05
6.81832e-05
6.81347e-05
6.80883e-05
6.73579e-05
6.62449e-05
6.58685e-05
6.42998e-05
6.29572e-05
6.26094e-05
6.20795e-05
6.15071e-05
6.09462e-05
6.04064e-05
5.98809e-05
5.93651e-05
5.88471e-05
5.83152e-05
5.776e-05
5.71698e-05
5.65238e-05
5.58042e-05
5.50148e-05
5.41729e-05
5.3281e-05
5.23379e-05
5.13415e-05
5.02885e-05
4.91838e-05
4.80168e-05
4.6793e-05
4.552e-05
4.43314e-05
4.10365e-05
3.76143e-05
3.42371e-05
2.80427e-05
2.06187e-05
3.91649e-05
3.24007e-05
3.04274e-05
2.96896e-05
2.9448e-05
2.94934e-05
2.96348e-05
2.98127e-05
3.00022e-05
3.01493e-05
3.02444e-05
3.02904e-05
3.02845e-05
3.02308e-05
3.01254e-05
2.99546e-05
2.97103e-05
2.94036e-05
2.90568e-05
2.8677e-05
2.82207e-05
2.72985e-05
2.4265e-05
2.01785e-05
1.58188e-05
1.18741e-05
8.42355e-06
1.0905e-05
0.0002073
0.000831037
0.00120669
6.99132e-12
3.40123e-11
1.21111e-10
3.39143e-10
8.02228e-10
1.22973e-09
5.78866e-10
2.59677e-11
7.83277e-05
6.38692e-05
4.17724e-05
3.95413e-05
3.8301e-05
3.77616e-05
3.69303e-05
3.61766e-05
3.65505e-05
3.61576e-05
3.56305e-05
3.51314e-05
3.46783e-05
3.42709e-05
3.39076e-05
3.35683e-05
3.32464e-05
3.29328e-05
3.26147e-05
3.22861e-05
3.19402e-05
3.1562e-05
3.11419e-05
3.0675e-05
3.01736e-05
2.96501e-05
2.91046e-05
2.85354e-05
2.79408e-05
2.73206e-05
2.66741e-05
2.59975e-05
2.52802e-05
2.47044e-05
2.47453e-05
2.52084e-05
2.55243e-05
2.47016e-05
2.14724e-05
7.66463e-05
6.8104e-05
6.5143e-05
6.34136e-05
6.22151e-05
6.119e-05
6.03303e-05
5.93831e-05
5.84065e-05
5.74693e-05
5.65649e-05
5.57099e-05
5.49045e-05
5.41375e-05
5.33968e-05
5.26503e-05
5.18747e-05
5.10796e-05
5.02938e-05
4.9525e-05
4.8786e-05
4.82609e-05
4.63619e-05
4.34849e-05
3.87896e-05
3.40286e-05
2.85388e-05
2.37428e-05
0.000106508
0.000994932
0.000620831
0.000434997
1.16284e-11
4.54504e-11
1.39363e-10
3.5985e-10
6.58778e-10
4.88038e-10
4.4666e-11
5.0986e-05