/*--------------------------------*- C++ -*----------------------------------*\
| =========                 |                                                 |
| \\      /  F ield         | OpenFOAM: The Open Source CFD Toolbox           |
|  \\    /   O peration     | Version:  2312                                  |
|   \\  /    A nd           | Website:  www.openfoam.com                      |
|    \\/     M anipulation  |                                                 |
\*---------------------------------------------------------------------------*/
FoamFile
{
    version     2.0;
    format      ascii;
    arch        "LSB;label=32;scalar=64";
    class       volScalarField;
    location    "150";
    object      turbulenceProperties:nut;
}
// * * * * * * * * * * * * * * * * * * * * * * * * * * * * * * * * * * * * * //

dimensions      [0 2 -1 0 0 0 0];

internalField   nonuniform List<scalar> 
10720
(
7.43481e-05
0.000110376
0.000144055
0.000150351
0.000136916
0.000124287
0.000120115
0.000124844
0.000139573
0.000165577
0.000207307
0.000276177
0.00039096
0.000599381
0.00101074
0.00193982
0.00385042
0.00835726
0.0173492
0.0303473
0.0501781
0.084587
0.165261
0.316841
0.531071
0.742866
1.43167
2.32167
1.67683
0.62013
0.197753
0.0256485
0.00441831
0.000589363
1.50244e-18
1.73245e-05
0.00179001
0.0941189
0.325913
8.20252e-05
8.16679e-05
6.21679e-05
0.000154406
6.07607e-05
0.000105443
0.000136909
0.000169931
0.000187289
0.000182136
0.000181459
0.000194951
0.000222877
0.00028122
0.000374645
0.000612349
0.000973847
0.00288186
0.00316777
0.00369169
0.00486918
0.00698264
0.00879455
0.0117631
0.0154702
0.0194905
0.0161202
0.00874574
0.00330709
0.000848779
0.000101041
2.57505e-06
1.74808e-18
1.95903e-18
7.80431e-06
0.000524938
9.27721e-06
0.00499675
0.315447
0.000275328
0.000318587
0.000322283
0.0002069
0.000124104
7.74792e-05
5.67385e-05
4.7873e-05
4.49835e-05
4.51793e-05
4.77028e-05
5.04609e-05
6.79452e-05
0.000130092
0.000305079
0.000807997
0.00204267
0.0049054
0.0111218
0.022511
0.0398696
0.0670303
0.107113
0.28536
0.646154
0.742505
1.65201
1.66755
1.4445
1.99875
1.23538
0.311999
0.0825469
0.0109229
0.000175336
2.46528e-05
0.00206439
0.0957745
0.433056
3.19842e-05
3.0766e-05
3.65647e-05
8.77302e-05
7.56647e-05
4.57987e-05
2.42925e-05
2.29396e-05
2.66084e-05
3.11119e-05
3.50693e-05
4.81996e-05
4.83252e-05
0.000348424
0.000601465
0.00125285
0.00216718
0.000213947
0.000962295
0.00365671
0.00489931
0.00920692
0.0103376
0.00351931
0.000563145
0.00135016
0.000318388
0.00061205
2.9776e-05
0.000216556
0.000200737
5.05105e-06
6.75297e-18
7.00792e-18
1.42417e-06
8.60128e-05
1.54839e-06
0.00375697
0.249113
6.97245e-05
8.10752e-05
8.06532e-05
8.13542e-05
8.39752e-05
8.84747e-05
9.49539e-05
0.000102558
0.000110863
0.000119293
0.000127676
0.00013594
0.000143009
0.00014658
0.000158656
0.000202182
0.000368486
0.000946626
0.00259856
0.00669901
0.0153848
0.0339488
0.0727243
0.343053
0.578738
1.25364
1.43882
1.0905
0.670309
0.545243
0.504345
0.335292
0.0887036
0.0133809
0.00100448
4.44049e-05
0.000527378
0.0764079
0.698689
0.000104198
0.000116834
0.000120333
0.000104378
8.89741e-05
8.93254e-05
9.39577e-05
0.000102681
0.000115695
0.000136027
0.000155253
0.000177463
1.45669e-05
0.000118723
0.000100261
9.4516e-05
8.90507e-05
0.000252293
0.000738962
0.000116973
0.000120341
0.00409345
0.00477715
0.000110449
0.00501027
0.0106495
0.00223662
0.000349399
0.000227109
0.0010378
0.000986405
5.33299e-05
4.07393e-05
3.00049e-05
1.80844e-05
0.000220129
9.69225e-17
0.0108659
0.851514
0.000210894
0.000208684
0.000206822
0.000207086
0.000209879
0.00021527
0.00022263
0.000232602
0.00024563
0.000262432
0.000283735
0.000310383
0.000343913
0.000386422
0.000440283
0.000512788
0.000601778
0.000685983
0.000298881
2.20168e-16
2.31793e-16
3.27381e-16
4.4184e-15
0.00599953
0.188072
1.458e-09
9.36579e-12
3.47434e-11
1.36706e-10
1.23698e-09
8.33755e-08
8.67817e-05
0.0218465
0.022546
0.00748594
0.000381707
0.00225079
0.0905278
0.489632
0.000234358
0.000192197
0.000183565
0.000190009
0.000198032
0.000211963
0.000231787
0.000253772
0.00028217
0.000321213
0.000373209
0.000439434
0.000519447
0.000586056
0.000586687
0.00058394
0.000592423
0.000616945
0.000679967
0.000732997
0.000744648
0.00077524
0.000778074
0.000681277
0.000685234
0.000607096
0.000495044
0.000486216
0.000435903
0.000427189
0.000409965
0.00037906
0.000328781
0.000261223
0.00016149
7.54748e-05
1.44978e-06
0.0112346
2.35032
0.000412056
0.000410098
0.000414253
0.000422106
0.000433113
0.000451077
0.000473185
0.000500958
0.000535598
0.000576692
0.000624415
0.000678355
0.000737533
0.00080057
0.00086618
0.000932486
0.00100642
0.0010957
0.00120448
0.000158377
7.89022e-05
2.09953e-16
2.24314e-16
3.05776e-16
0.0337877
6.28426e-10
2.15847e-16
1.2222e-15
5.3554e-15
4.54344e-14
1.25751e-12
2.52426e-10
3.85338e-05
1.35689e-12
0.00973686
0.00610671
0.00300475
0.0734678
0.212363
0.000409942
0.000326955
0.000256388
0.000428465
0.000450781
0.00048303
0.000521277
0.000568248
0.000628324
0.000707844
0.000811313
0.000942723
0.00110871
0.00131902
0.00157973
0.00177075
0.00174514
0.00172082
0.00168662
0.00164648
0.00160425
0.00155928
0.00151338
0.00146838
0.00142574
0.00138223
0.0013404
0.00130302
0.0012695
0.00123715
0.00120264
0.00116132
0.00111394
0.00107325
0.000968803
0.000976876
1.91664e-05
0.0162025
2.10488
0.000136031
0.000267952
0.000121595
2.55706e-05
0.00021942
0.000221073
0.000220074
0.000216085
0.000223621
0.000244535
0.000252694
0.000254532
0.000264741
0.000277001
0.000290618
0.000307427
1.49e-05
0.000128344
0.000273387
0.000402793
0.00042836
0.00013048
9.45736e-05
2.02079e-16
2.30907e-16
9.27663e-22
4.60516e-27
4.73889e-27
7.99241e-27
1.92802e-26
5.97438e-26
2.40295e-25
1.19329e-24
1.53362e-14
4.64738e-15
4.20554e-13
8.18807e-11
1.56191e-08
8.88817e-09
0.000256265
0.000331017
0.000819534
0.000847595
0.000883142
0.000929654
0.000990395
0.00106775
0.00116845
0.00128644
0.00132447
0.00136515
0.0014087
0.00145059
0.00150721
0.00156791
0.0016161
0.00162984
0.00162374
0.00161291
0.00159768
0.00157833
0.00155399
0.00152586
0.00149344
0.00145739
0.0014222
0.00138812
0.00135662
0.00132998
0.00130803
0.00127504
0.00124782
0.00125603
0.00118516
0.00121493
2.42476e-05
0.00998581
1.01756
7.23137e-05
0.000169436
0.000264951
0.000304219
0.000333203
0.000356712
0.000385191
0.000372536
0.00041579
0.000541371
0.000548287
0.000503294
0.000509121
0.000511101
0.000511541
0.000511415
0.00050776
0.000480893
0.000463409
0.000495073
0.000571598
0.000563773
0.000500887
0.000226518
6.96469e-05
3.62738e-13
1.04311e-26
6.33211e-27
7.27078e-27
1.27979e-26
3.00484e-26
8.44287e-26
2.36758e-25
5.98144e-25
9.36782e-17
3.36317e-15
1.4072e-23
2.63651e-11
1.06384e-11
0.000979833
0.00147379
0.0014307
0.000799148
0.000352316
0.000130626
0.000120408
0.000134895
0.000161679
0.000194453
0.000232491
0.000276703
0.000328243
0.000383627
0.00044492
0.000524289
0.000583456
0.000606219
0.000610614
0.000608528
0.000599436
0.000585689
0.000568126
0.000552752
0.000538074
0.000523799
0.000511343
0.000500173
0.00049072
0.000483273
0.000479097
0.00048797
0.000509718
0.000551888
0.000585342
0.000783459
1.66105e-05
0.0056862
0.372551
0.00140247
0.00133642
0.00135347
0.00139643
0.00139221
0.00137758
0.00140338
0.00142294
0.00142642
0.00143007
0.00144166
0.00144634
0.00145137
0.00145576
0.00145048
0.00143803
0.00142612
0.00140049
0.00132454
0.0012221
0.00113777
0.0010953
0.0010687
0.00105593
0.000358778
3.84781e-12
1.5517e-18
9.77089e-27
8.1126e-27
1.07954e-26
1.99544e-26
4.41048e-26
9.56961e-26
1.74682e-25
2.71531e-25
5.6331e-25
1.52366e-24
1.60022e-21
3.38351e-19
0.00154724
0.00097711
0.000195473
0.000128827
0.000102059
8.40837e-05
8.5296e-05
8.74334e-05
9.05363e-05
9.46013e-05
9.88494e-05
0.000104168
0.000111303
0.000119553
0.000129551
0.000143309
0.000158483
0.000161717
0.000158869
0.000161079
0.000162095
0.000156919
0.000157687
0.000164439
0.000163767
0.000162924
0.00016217
0.000161476
0.000161033
0.000160839
0.000161177
0.000170517
0.000173477
0.000171737
0.000178834
8.14071e-05
3.12741e-05
0.00199555
0.111837
0.00119115
0.00106492
0.000995297
0.000945992
0.00091795
0.000887337
0.000862956
0.000845159
0.000834925
0.000831954
0.000835123
0.000836094
0.00085733
0.000900571
0.000920072
0.000935307
0.000971145
0.00101992
0.00107681
0.00110899
0.00112263
0.00111879
0.00111125
0.00108773
0.00122486
1.09699e-10
4.89447e-17
1.65977e-26
1.03497e-26
1.06951e-26
1.58869e-26
2.88668e-26
5.29047e-26
8.60618e-26
1.24188e-25
2.1091e-25
4.55045e-25
9.14023e-25
1.55075e-20
0.000487749
0.000182997
0.00010022
3.66015e-06
0.000411842
0.000481331
0.000489779
0.000489909
0.000483524
0.000474481
0.000463452
0.000450276
0.000435617
0.00042062
0.000405856
0.000390308
0.000400529
0.00036939
0.0003176
0.000305528
0.00029502
0.000255017
0.000255913
0.000290103
0.000284491
0.000278794
0.000273299
0.000268054
0.000263316
0.000259002
0.00025484
0.000280832
0.00026107
0.000195983
0.000174019
0.000151857
0.000136932
0.000308902
0.0158702
0.000168231
0.000204168
0.000104619
4.89257e-05
6.72911e-06
0.000128569
0.000128503
0.000131321
0.000134964
0.000138754
0.000143953
0.000148835
0.000156748
0.000168712
1.12004e-06
4.01384e-05
8.9344e-05
0.000141321
0.000222048
0.000362151
0.000517401
0.000632913
0.000735673
0.000751737
0.00108831
5.06558e-10
2.46326e-16
3.02388e-26
1.45985e-26
1.19865e-26
1.45244e-26
2.21464e-26
3.5428e-26
5.29372e-26
7.27267e-26
1.09651e-25
2.0571e-25
3.73041e-25
7.49703e-25
0.000123539
0.000175397
0.000576349
0.000984567
0.00110583
0.00110015
0.0010996
0.00110195
0.00110203
0.00110042
0.00109721
0.00109175
0.0010837
0.00107232
0.00105695
0.00103756
0.00101607
0.00100525
0.000992475
0.000978489
0.000963662
0.000947813
0.000922629
0.000897648
0.000874623
0.000853431
0.000834203
0.000816462
0.000800389
0.000785662
0.00077304
0.000762044
0.000736968
0.000696993
0.000620789
0.000561851
0.000556487
7.73176e-05
0.00387765
0.0001535
0.000113798
0.000114561
0.000112923
1.67943e-05
4.93623e-05
7.69759e-05
0.000102341
0.000124483
0.000142256
0.000156662
0.000168772
0.000178533
0.000186834
0.000194809
0.00020439
0.000216523
0.00022251
0.000219798
0.000254573
0.000328343
0.000410099
0.000509698
0.000536588
0.000859544
2.19278e-09
1.15225e-15
5.83072e-26
2.23658e-26
1.48698e-26
1.4898e-26
1.92981e-26
2.73302e-26
3.78971e-26
5.01871e-26
7.05154e-26
1.20196e-25
2.00939e-25
3.27603e-25
0.000368951
0.00091382
0.000988683
0.00082196
0.000731787
0.000713537
0.000708111
0.000712744
0.000721004
0.000731116
0.000742147
0.000753571
0.000763027
0.000766063
0.000760508
0.000751184
0.000742237
0.000732905
0.000722459
0.000711098
0.000698948
0.000685541
0.000670856
0.000656067
0.000642164
0.000629126
0.000617144
0.00060596
0.000595868
0.000586634
0.000578531
0.00057365
0.000574549
0.000575902
0.000573713
0.000558171
0.000583846
0.000301963
6.33287e-06
0.00071554
0.000725326
0.000773242
0.000826877
0.00087869
0.000928389
0.000969315
0.00100245
0.00102932
0.00104945
0.00106369
0.00107297
0.00107751
0.00107754
0.00107311
0.00106494
0.00105397
0.00108006
0.00104586
0.000932005
0.000858062
0.000796228
0.000767257
0.000695769
0.000890316
1.27557e-08
7.18793e-15
1.18085e-25
3.67365e-26
2.01169e-26
1.68873e-26
1.87708e-26
2.37067e-26
3.06003e-26
3.86159e-26
5.17683e-26
8.19109e-26
1.27681e-25
1.82089e-25
0.00104225
0.00086273
0.000456188
0.00013178
4.50708e-05
4.51058e-05
4.225e-05
4.32396e-05
4.83882e-05
5.69809e-05
6.70164e-05
7.79759e-05
8.5916e-05
9.08567e-05
9.29986e-05
9.47757e-05
9.72822e-05
9.86818e-05
9.82994e-05
9.72071e-05
9.56955e-05
9.36993e-05
9.13911e-05
8.92505e-05
8.75594e-05
8.61851e-05
8.51147e-05
8.43391e-05
8.39789e-05
8.40436e-05
8.41553e-05
8.46012e-05
9.6323e-05
0.000123234
0.000160322
0.000204651
0.000262491
0.000343659
8.60977e-06
0.00102588
0.000919362
0.000901373
0.000897289
0.000889849
0.000887175
0.000889082
0.000892403
0.000898018
0.000905311
0.000913561
0.000922953
0.000933311
0.000944869
0.000956367
0.000968491
0.00098633
0.00100066
0.00103283
0.00107026
0.00104976
0.000994027
0.000952061
0.000858343
0.000977439
7.80752e-08
4.68378e-14
2.50047e-25
6.41446e-26
2.93642e-26
2.09178e-26
2.01458e-26
2.2811e-26
2.74151e-26
3.31706e-26
4.22716e-26
6.19786e-26
9.0022e-26
1.17688e-25
0.000643517
0.000152592
8.34118e-05
5.53389e-05
4.6396e-05
4.62288e-05
4.69673e-05
4.70637e-05
4.71823e-05
4.76451e-05
4.78042e-05
4.81805e-05
4.85868e-05
4.88426e-05
4.9098e-05
4.96899e-05
5.0643e-05
5.16816e-05
5.25894e-05
5.34659e-05
5.43049e-05
5.51042e-05
5.58587e-05
5.6552e-05
5.71321e-05
5.7631e-05
5.81186e-05
5.85849e-05
5.90809e-05
5.96202e-05
5.99068e-05
6.03129e-05
6.25518e-05
6.60005e-05
7.35099e-05
7.68518e-05
8.07539e-05
6.63603e-05
5.06724e-06
0.00034106
0.000338865
0.000286661
0.000259962
0.000235333
0.000216811
0.000205546
0.000199505
0.000198885
0.000203115
0.000211318
0.0002233
0.000239027
0.000260083
0.000283201
0.000308966
0.000348854
0.000395953
0.000443241
0.000516988
0.000607041
0.000680531
0.000740585
0.000738043
0.000890435
4.02079e-07
3.93176e-19
1.95359e-21
1.18396e-25
4.58873e-26
2.80645e-26
2.36406e-26
2.41163e-26
2.69868e-26
3.13164e-26
3.79193e-26
5.13453e-26
8.14225e-26
1.0216e-25
0.000124928
4.87719e-05
0.000105434
0.000265311
0.00028267
0.000272166
0.000277177
0.000280647
0.000280187
0.000277272
0.000273563
0.00026955
0.000265667
0.000262156
0.000258865
0.000255641
0.000252636
0.000249824
0.000246911
0.000243993
0.00024121
0.000238481
0.000235771
0.00023316
0.00023069
0.000228196
0.000225647
0.000223007
0.000220383
0.000217846
0.00021419
0.000211163
0.000204541
0.0001863
0.000176253
0.000137094
7.73455e-05
8.00509e-05
9.50458e-05
4.85601e-05
5.04745e-05
5.22347e-05
5.30862e-05
5.45627e-05
5.67254e-05
5.74896e-05
5.90601e-05
6.09096e-05
6.26983e-05
6.5261e-05
6.83009e-05
7.19393e-05
7.66775e-05
8.18559e-05
8.76468e-05
9.61943e-05
0.00010967
0.000118986
0.000129723
2.3387e-05
0.000131524
0.00025385
0.000341037
0.00053667
1.40068e-06
4.40179e-17
1.88631e-19
2.30152e-25
7.63363e-26
4.04973e-26
3.00993e-26
2.77976e-26
2.89785e-26
3.21535e-26
3.71538e-26
5.92935e-26
6.92555e-25
1.20224e-23
8.40474e-05
0.000232314
0.000557433
0.000649126
0.000644532
0.000640991
0.00064368
0.000648871
0.000650435
0.000649111
0.000646902
0.000644557
0.000642252
0.000640027
0.000637759
0.000635152
0.000632076
0.000628646
0.000624795
0.000620401
0.000615511
0.000610139
0.000604232
0.000597963
0.000591597
0.000585014
0.000578197
0.000571083
0.000563936
0.000556987
0.000545641
0.000539332
0.000522025
0.000501271
0.000486025
0.000439598
0.000386814
0.000302714
0.000228909
3.23267e-05
4.12938e-05
8.30028e-05
0.000130407
0.000161226
0.000189508
0.000210745
0.000226621
0.000238534
0.000246898
0.000252795
0.000256968
0.000259719
0.000261373
0.000261939
0.000261484
0.000261504
0.000283376
0.000273861
0.000228259
0.000199628
0.00018933
0.00021424
0.00024654
0.000345695
4.54446e-06
7.22369e-16
2.69717e-18
4.70132e-25
1.34651e-25
6.25056e-26
4.1308e-26
3.47032e-26
3.3736e-26
3.57046e-26
4.01242e-26
4.59471e-24
7.77427e-19
3.97416e-17
0.000454594
0.000676585
0.000573459
0.000403637
0.000383556
0.000389904
0.000390083
0.000393859
0.000396915
0.000398256
0.00039952
0.000401275
0.000403281
0.000405264
0.000406968
0.000408281
0.000409029
0.000409177
0.000408636
0.000407405
0.000405511
0.000402996
0.000399906
0.000396427
0.000392823
0.000389042
0.000385128
0.000381061
0.000377033
0.000373241
0.000369362
0.000366102
0.000366878
0.000372436
0.000378214
0.00038202
0.000377324
0.000348553
0.000291848
0.000611698
0.000604579
0.000624081
0.000653544
0.000677281
0.000696201
0.000709171
0.000716822
0.000721449
0.000724149
0.000725834
0.000727201
0.0007283
0.000728839
0.000728576
0.000727963
0.000727302
0.000725783
0.000722874
0.000716048
0.000703662
0.000630394
0.0005285
0.000471143
0.000438403
1.78967e-05
9.90713e-15
3.24885e-17
1.00787e-24
2.51168e-25
1.02763e-25
6.07801e-26
4.66428e-26
4.23413e-26
4.26943e-26
1.11313e-25
2.0544e-19
4.331e-17
1.67685e-16
0.000716229
0.000443077
0.000161778
3.29136e-06
5.86923e-05
6.09205e-05
6.14433e-05
6.12188e-05
6.08166e-05
6.03727e-05
5.93189e-05
5.85332e-05
7.35471e-07
2.47314e-06
4.15119e-06
5.74563e-06
7.22632e-06
8.584e-06
9.79271e-06
1.08458e-05
1.17241e-05
1.2444e-05
1.30597e-05
1.36675e-05
1.43294e-05
1.50087e-05
1.5714e-05
1.64345e-05
1.72013e-05
1.80532e-05
1.89081e-05
1.93619e-05
2.1081e-05
3.69468e-05
6.43111e-05
0.000102366
0.000153127
0.000205446
0.000218301
0.000615005
0.000557558
0.000534538
0.00052374
0.000509368
0.000495194
0.00048437
0.000476091
0.000471444
0.000470287
0.000471642
0.000474978
0.000479871
0.000485725
0.000492272
0.000499886
0.00050876
0.000518494
0.000529247
0.000546955
0.000570218
0.000586834
0.000583923
0.000550635
0.000495523
5.83677e-05
1.0221e-13
2.96356e-16
2.26631e-24
4.94599e-25
1.79409e-25
9.54712e-26
6.71444e-26
5.6979e-26
5.46994e-26
9.33658e-26
2.88765e-20
3.51371e-17
2.70547e-17
0.000279429
4.17835e-06
2.46109e-05
1.25377e-05
1.50231e-05
1.56238e-05
1.6145e-05
1.60446e-05
1.57685e-05
1.54777e-05
1.49498e-05
1.44107e-05
1.41337e-05
1.40505e-05
1.40773e-05
1.42552e-05
1.45189e-05
1.48825e-05
1.5327e-05
1.58335e-05
1.63729e-05
1.69439e-05
1.75426e-05
1.8126e-05
1.86271e-05
1.90772e-05
1.9519e-05
1.99499e-05
2.03785e-05
2.08188e-05
2.12446e-05
2.15576e-05
2.1995e-05
2.42814e-05
2.82264e-05
3.50143e-05
4.29464e-05
3.20842e-05
9.7221e-05
0.000130134
0.000150514
0.000110491
8.58081e-05
6.5647e-05
4.8358e-05
3.55266e-05
2.74108e-05
2.34649e-05
2.30048e-05
2.48695e-05
2.83856e-05
3.31943e-05
3.92537e-05
4.64763e-05
5.48495e-05
6.46353e-05
7.60164e-05
8.91859e-05
0.000104238
0.000142083
0.000210349
0.000282304
0.000336499
0.000352959
0.000125173
8.21086e-13
2.11682e-15
5.34426e-24
1.02691e-24
3.31828e-25
1.59532e-25
1.03066e-25
8.17944e-26
7.46345e-26
1.00829e-25
6.47719e-21
1.95581e-19
1.03739e-16
5.27145e-05
1.85545e-05
5.23442e-05
8.39483e-05
0.000102699
0.000104102
0.000107017
0.000108291
0.000108546
0.000108317
0.000107603
0.000106569
0.000105509
0.000104482
0.000103467
0.000102535
0.000101689
0.000100908
0.000100192
9.9531e-05
9.89025e-05
9.82976e-05
9.77107e-05
9.7165e-05
9.66247e-05
9.60169e-05
9.53551e-05
9.46553e-05
9.39302e-05
9.3227e-05
9.25137e-05
9.17202e-05
9.02319e-05
8.22414e-05
6.9372e-05
5.81175e-05
3.25078e-05
1.91348e-05
5.88953e-05
1.76607e-05
2.07693e-05
1.75706e-05
1.555e-05
1.50782e-05
1.49345e-05
1.44883e-05
1.43188e-05
1.43474e-05
1.45295e-05
1.50316e-05
1.57086e-05
1.65492e-05
1.76558e-05
1.89883e-05
2.05755e-05
2.24688e-05
2.47032e-05
2.73052e-05
3.02594e-05
3.62081e-05
4.74654e-05
6.15e-05
5.59396e-05
0.000110376
0.000139454
4.93961e-12
1.13759e-14
1.32141e-23
2.24605e-24
6.48931e-25
2.82744e-25
1.68045e-25
1.24678e-25
1.07903e-25
1.22507e-25
1.90099e-21
2.2317e-15
1.68848e-16
4.89269e-05
0.00013804
0.0003036
0.000349964
0.000362721
0.00036426
0.000367139
0.000369933
0.000371174
0.00037132
0.000370913
0.000370225
0.000369478
0.000368717
0.000367885
0.000367005
0.000366074
0.000365053
0.00036392
0.000362633
0.000361166
0.000359502
0.000357602
0.000355499
0.000353256
0.000350798
0.000348137
0.000345328
0.000342387
0.00033947
0.000336602
0.000333613
0.000330662
0.000321649
0.0003039
0.00027529
0.00023322
0.000185349
0.000145823
7.2138e-05
4.19188e-05
8.8119e-06
2.44481e-05
4.0604e-05
5.60432e-05
6.79058e-05
7.53207e-05
7.97999e-05
8.23699e-05
8.38505e-05
8.47093e-05
8.51218e-05
8.53979e-05
8.56594e-05
8.58634e-05
8.60807e-05
8.6268e-05
8.63449e-05
8.60278e-05
7.95954e-05
7.2554e-05
4.75995e-05
3.5154e-05
4.05346e-05
0.000114633
3.4813e-11
7.18956e-14
3.42493e-23
5.16965e-24
1.33941e-24
5.30088e-25
2.90017e-25
2.00987e-25
1.64543e-25
1.65665e-25
6.927e-22
3.02722e-17
6.08453e-17
0.000255092
0.000375167
0.000327128
0.000287547
0.000285463
0.000283153
0.000281711
0.000282654
0.000283324
0.000283391
0.000283416
0.000283595
0.000283863
0.000284205
0.000284554
0.000284835
0.000285016
0.000285074
0.000284961
0.000284636
0.000284093
0.00028332
0.000282292
0.00028101
0.000279593
0.000278044
0.000276337
0.000274497
0.000272535
0.00027056
0.00026862
0.000266642
0.000265969
0.000268141
0.000269911
0.000266758
0.000259128
0.000234965
0.000189641
0.000324415
0.00030648
0.000316157
0.000330327
0.000342514
0.000353074
0.000361058
0.000364831
0.000366115
0.000366441
0.000366203
0.000365762
0.000365022
0.000364488
0.000364146
0.000363876
0.000363846
0.00036373
0.000363269
0.000362785
0.000358865
0.000337948
0.000300522
0.000258099
0.000212037
0.000202354
5.35312e-10
9.95039e-13
9.30246e-23
1.25101e-23
2.9127e-24
1.04859e-24
5.28119e-25
3.41355e-25
2.63543e-25
2.41839e-25
2.95678e-22
8.83788e-18
1.29058e-16
0.000398335
0.00024862
0.000104738
5.67888e-05
5.00374e-05
4.84587e-05
4.62878e-05
4.55117e-05
4.52131e-05
4.48344e-05
4.45116e-05
4.43683e-05
4.43945e-05
4.45416e-05
4.47694e-05
4.50525e-05
4.53741e-05
4.57319e-05
4.6116e-05
4.65215e-05
4.69449e-05
4.73962e-05
4.78758e-05
4.83764e-05
4.88905e-05
4.9383e-05
4.98276e-05
5.02195e-05
5.05568e-05
5.08607e-05
5.11252e-05
5.11813e-05
5.1515e-05
5.82742e-05
7.35078e-05
9.56519e-05
0.000126375
0.000151332
0.000148594
0.000355963
0.000334014
0.000326296
0.00032413
0.000321024
0.000318162
0.000316086
0.000312397
0.000308116
0.000305219
0.000303069
0.000301605
0.000300308
0.000299996
0.000300773
0.000301762
0.00030322
0.000304958
0.000306838
0.000309616
0.000317601
0.000325567
0.000323401
0.000314208
0.000283699
0.000270612
8.12276e-09
1.36265e-11
2.64656e-22
3.17905e-23
6.66326e-24
2.18368e-24
1.01183e-24
6.08598e-25
4.41663e-25
3.74898e-25
1.42972e-22
8.15154e-19
2.21898e-17
0.000169046
9.74711e-06
1.71648e-05
8.7383e-06
7.83651e-06
7.77694e-06
7.46002e-06
7.19288e-06
6.98996e-06
6.79817e-06
6.52904e-06
6.28984e-06
6.14174e-06
6.02452e-06
5.9694e-06
5.99435e-06
6.06925e-06
6.20735e-06
6.40215e-06
6.6465e-06
6.93268e-06
7.26141e-06
7.63111e-06
8.00123e-06
8.32604e-06
8.62698e-06
8.92468e-06
9.21651e-06
9.50024e-06
9.776e-06
1.00414e-05
1.02642e-05
1.05393e-05
1.215e-05
1.56048e-05
2.06556e-05
2.91275e-05
3.60454e-05
7.30677e-05
9.64636e-05
9.68846e-05
8.55834e-05
8.01277e-05
7.47258e-05
6.97979e-05
6.55597e-05
6.26874e-05
6.05318e-05
5.90313e-05
5.81495e-05
5.7815e-05
5.80451e-05
5.86064e-05
5.96117e-05
6.11298e-05
6.32076e-05
6.58638e-05
6.91347e-05
7.26633e-05
7.887e-05
0.000101402
0.000131642
0.00016532
0.000183525
0.000221495
7.84515e-08
1.21267e-10
7.88518e-22
8.47653e-23
1.60161e-23
4.77691e-24
2.03462e-24
1.13588e-24
7.72194e-25
6.0991e-25
7.65591e-23
1.42433e-19
3.72511e-18
3.44317e-05
6.23935e-06
1.71346e-05
2.05879e-05
2.24396e-05
2.39952e-05
2.47476e-05
2.46004e-05
2.42164e-05
2.38099e-05
2.30179e-05
2.21772e-05
2.15511e-05
2.09485e-05
2.05196e-05
2.03484e-05
2.03312e-05
2.05142e-05
2.0874e-05
2.13836e-05
2.20116e-05
2.27508e-05
2.35901e-05
2.43873e-05
2.49833e-05
2.54709e-05
2.5953e-05
2.64204e-05
2.68694e-05
2.72974e-05
2.77081e-05
2.8101e-05
2.84809e-05
2.85109e-05
2.72899e-05
2.43826e-05
1.9973e-05
2.41847e-05
2.02755e-05
1.35315e-05
1.37693e-05
1.29982e-05
1.16741e-05
1.09949e-05
1.03936e-05
9.57715e-06
9.11783e-06
8.76634e-06
8.45316e-06
8.31404e-06
8.26103e-06
8.30338e-06
8.44239e-06
8.66213e-06
8.9874e-06
9.41931e-06
9.96398e-06
1.06259e-05
1.13507e-05
1.25154e-05
1.63187e-05
2.18268e-05
3.96347e-06
3.6978e-05
9.60036e-05
4.26279e-07
4.54612e-11
1.64876e-13
2.37079e-22
4.04005e-23
1.09642e-23
4.28537e-24
2.21417e-24
1.40507e-24
1.03394e-24
4.49067e-23
3.01813e-20
7.52404e-19
1.76739e-05
3.62445e-05
0.000115353
0.000138355
0.000148124
0.000154541
0.000158821
0.000161313
0.000162762
0.000163707
0.000164363
0.000164772
0.000165028
0.000165188
0.000165244
0.000165219
0.000165125
0.000164953
0.000164698
0.000164353
0.000163921
0.000163413
0.000162844
0.00016224
0.000161632
0.000160988
0.000160279
0.000159518
0.000158693
0.0001578
0.000156879
0.000155949
0.000155061
0.00015238
0.000143286
0.000125838
0.000101391
7.71596e-05
6.20479e-05
3.21991e-05
2.14812e-05
2.26388e-05
2.16888e-05
2.18472e-05
2.20811e-05
2.16386e-05
2.15247e-05
2.14149e-05
2.11525e-05
2.1094e-05
2.10546e-05
2.10493e-05
2.1161e-05
2.12936e-05
2.14907e-05
2.17319e-05
2.20014e-05
2.22688e-05
2.25418e-05
2.28367e-05
2.21346e-05
2.00216e-05
1.77872e-05
2.19602e-05
1.11121e-05
1.25602e-06
8.88698e-10
2.98591e-12
6.94873e-22
1.06899e-22
2.63685e-23
9.44309e-24
4.50309e-24
2.65651e-24
1.81959e-24
2.9036e-23
7.39241e-21
2.77658e-17
0.000101695
0.000202573
0.000203759
0.000196698
0.000196836
0.000196634
0.00019641
0.000196069
0.00019567
0.000195393
0.000195319
0.000195333
0.000195366
0.000195419
0.000195453
0.000195452
0.000195417
0.000195347
0.000195218
0.000195021
0.000194752
0.000194427
0.000194036
0.00019357
0.000193079
0.000192548
0.000191922
0.000191209
0.000190405
0.0001895
0.000188535
0.000187553
0.000186863
0.000186882
0.000184965
0.000178643
0.000165833
0.00014097
0.000110275
0.000153576
0.000155969
0.000153891
0.000153988
0.00015371
0.000153641
0.000153813
0.000154011
0.000154339
0.000154715
0.000155062
0.000155397
0.000155689
0.000155905
0.00015604
0.00015613
0.000156239
0.000156281
0.000156176
0.000156038
0.000156137
0.000149787
0.000134302
0.000114276
9.79578e-05
7.38529e-05
8.6612e-06
2.26342e-08
6.93217e-13
4.17798e-15
2.96407e-22
6.64247e-23
2.17534e-23
9.54509e-24
5.21668e-24
3.318e-24
2.13471e-23
2.12909e-21
2.23022e-18
0.000230415
0.000171657
0.000101571
7.96126e-05
7.12992e-05
6.61333e-05
6.26402e-05
6.02664e-05
5.85706e-05
5.74099e-05
5.67006e-05
5.62722e-05
5.59901e-05
5.58104e-05
5.56826e-05
5.55891e-05
5.55306e-05
5.54793e-05
5.5443e-05
5.53969e-05
5.53631e-05
5.53281e-05
5.52852e-05
5.52553e-05
5.52342e-05
5.52175e-05
5.5181e-05
5.51404e-05
5.50894e-05
5.50213e-05
5.4932e-05
5.4836e-05
5.47845e-05
5.64707e-05
6.38342e-05
7.53427e-05
8.81484e-05
9.68956e-05
9.46337e-05
0.000217648
0.000201092
0.000196798
0.000192543
0.000188755
0.000185846
0.000183969
0.000182632
0.000181766
0.000181262
0.000180939
0.000180755
0.000180676
0.000180634
0.000180634
0.000180714
0.000180929
0.000181178
0.00018135
0.000181585
0.000182904
0.000184278
0.000180944
0.000172575
0.000160081
0.000134523
4.52942e-05
3.46727e-07
2.26666e-10
1.26543e-12
8.6042e-22
1.75037e-22
5.23564e-23
2.10806e-23
1.06365e-23
6.26578e-24
1.88137e-23
7.59671e-22
3.5036e-19
0.000137996
3.31747e-05
1.94759e-05
1.24837e-05
1.1372e-05
1.08071e-05
1.0273e-05
9.67335e-06
9.16961e-06
8.77911e-06
8.33182e-06
7.91872e-06
7.61103e-06
7.32425e-06
7.10857e-06
6.99677e-06
6.94932e-06
6.98395e-06
7.0975e-06
7.27888e-06
7.51755e-06
7.81596e-06
8.16475e-06
8.50604e-06
8.76739e-06
8.99042e-06
9.21561e-06
9.44358e-06
9.67316e-06
9.89976e-06
1.01206e-05
1.03375e-05
1.05615e-05
1.11261e-05
1.28446e-05
1.55606e-05
1.71511e-06
2.62185e-05
4.58263e-05
8.02145e-05
7.78877e-05
6.73206e-05
6.08249e-05
5.6559e-05
5.35396e-05
5.15271e-05
5.01326e-05
4.91218e-05
4.84203e-05
4.79352e-05
4.7612e-05
4.74294e-05
4.73843e-05
4.74565e-05
4.76842e-05
4.80781e-05
4.86369e-05
4.93439e-05
5.02106e-05
5.18381e-05
5.81014e-05
6.9983e-05
8.29432e-05
9.32525e-05
9.88504e-05
7.57708e-05
2.19349e-06
4.4603e-09
2.30575e-11
2.61096e-21
4.82058e-22
1.31481e-22
4.84952e-23
2.25167e-23
1.22516e-23
2.05773e-23
3.50467e-22
7.45924e-20
2.8476e-05
4.73687e-06
5.56606e-06
6.9824e-06
7.65321e-06
7.91944e-06
7.95834e-06
7.91458e-06
7.27546e-06
6.86705e-06
6.56947e-06
6.29263e-06
6.07932e-06
5.8614e-06
5.68765e-06
5.59224e-06
5.54242e-06
5.55969e-06
5.64176e-06
5.78368e-06
5.97423e-06
6.21648e-06
6.50676e-06
6.78914e-06
6.99509e-06
7.162e-06
7.33024e-06
7.49758e-06
7.66368e-06
7.82553e-06
7.98404e-06
8.13948e-06
8.29046e-06
8.3997e-06
7.81687e-06
6.49636e-06
5.48231e-06
8.11026e-06
1.13882e-05
1.15074e-05
1.1312e-05
1.04404e-05
9.03209e-06
8.47542e-06
8.11321e-06
7.64147e-06
7.38356e-06
7.17897e-06
6.96436e-06
6.85205e-06
6.76831e-06
6.715e-06
6.72197e-06
6.75797e-06
6.83852e-06
6.95904e-06
7.11739e-06
7.30726e-06
7.52608e-06
7.85825e-06
8.88675e-06
1.07823e-05
1.37729e-05
9.43066e-06
2.85089e-05
4.19895e-05
6.73669e-06
4.59808e-08
2.33732e-10
8.26993e-21
1.38531e-21
3.44138e-22
1.16037e-22
4.94662e-23
2.47952e-23
2.73976e-23
2.09741e-22
2.08291e-20
5.35768e-06
1.75766e-05
3.67764e-05
4.61579e-05
4.98037e-05
5.03743e-05
5.05347e-05
5.14777e-05
4.86478e-05
4.71488e-05
4.71267e-05
4.73516e-05
4.7591e-05
4.78028e-05
4.7972e-05
4.8108e-05
4.82232e-05
4.83201e-05
4.84038e-05
4.84757e-05
4.85361e-05
4.85843e-05
4.86203e-05
4.8646e-05
4.86613e-05
4.86537e-05
4.8612e-05
4.85422e-05
4.84506e-05
4.83315e-05
4.81934e-05
4.80425e-05
4.78739e-05
4.74861e-05
4.32864e-05
3.52516e-05
2.7276e-05
1.33961e-05
8.11354e-06
1.31292e-05
7.47944e-06
7.62993e-06
7.24538e-06
7.35117e-06
7.53725e-06
7.49257e-06
7.56528e-06
7.63438e-06
7.62942e-06
7.68783e-06
7.73825e-06
7.78449e-06
7.86505e-06
7.94629e-06
8.04375e-06
8.15218e-06
8.26356e-06
8.36752e-06
8.46146e-06
8.5294e-06
8.43582e-06
7.63716e-06
6.42806e-06
6.57938e-06
8.44366e-06
1.15899e-05
6.2526e-06
2.08253e-07
2.98975e-10
2.31004e-12
4.14328e-21
9.36802e-22
2.88424e-22
1.1263e-22
5.18932e-23
4.24122e-23
1.60719e-22
7.50927e-21
3.92305e-05
0.000102037
0.000114075
0.000114394
0.000114941
0.000114599
0.000113883
0.000114633
0.000113385
0.000112529
0.00011342
0.000113904
0.00011421
0.000114438
0.000114612
0.000114745
0.000114862
0.000114968
0.000115066
0.000115154
0.000115234
0.000115301
0.000115348
0.000115367
0.000115359
0.000115307
0.000115179
0.000114986
0.000114751
0.000114456
0.000114119
0.000113739
0.000113362
0.000113326
0.000107726
0.000101471
9.50114e-05
8.01571e-05
6.0148e-05
6.42739e-05
5.34863e-05
5.11421e-05
5.08461e-05
5.12131e-05
5.20049e-05
5.29325e-05
5.39042e-05
5.49171e-05
5.58864e-05
5.67914e-05
5.76278e-05
5.8369e-05
5.90101e-05
5.95571e-05
6.00299e-05
6.04466e-05
6.07828e-05
6.10038e-05
6.11234e-05
6.11063e-05
6.0099e-05
5.42325e-05
4.56851e-05
3.61948e-05
2.73855e-05
1.94681e-05
1.33233e-05
1.25604e-06
1.1419e-08
1.17165e-10
1.28731e-20
2.6461e-21
7.43117e-22
2.65375e-22
1.12188e-22
7.31867e-23
1.55477e-22
3.46584e-21
0.000132573
0.000110063
7.22173e-05
6.86498e-05
6.68915e-05
6.64945e-05
6.57426e-05
6.52327e-05
6.6815e-05
6.70282e-05
6.69717e-05
6.69062e-05
6.68597e-05
6.6839e-05
6.68478e-05
6.68632e-05
6.68916e-05
6.69306e-05
6.69661e-05
6.69968e-05