/*--------------------------------*- C++ -*----------------------------------*\
| =========                 |                                                 |
| \\      /  F ield         | OpenFOAM: The Open Source CFD Toolbox           |
|  \\    /   O peration     | Version:  2312                                  |
|   \\  /    A nd           | Website:  www.openfoam.com                      |
|    \\/     M anipulation  |                                                 |
\*---------------------------------------------------------------------------*/
FoamFile
{
    version     2.0;
    format      ascii;
    arch        "LSB;label=32;scalar=64";
    class       volScalarField;
    location    "150";
    object      turbulenceProperties:nuEff;
}
// * * * * * * * * * * * * * * * * * * * * * * * * * * * * * * * * * * * * * //

dimensions      [0 2 -1 0 0 0 0];

internalField   nonuniform List<scalar> 
10720
(
8.43481e-05
0.000120376
0.000154055
0.000160351
0.000146916
0.000134287
0.000130115
0.000134844
0.000149573
0.000175577
0.000217307
0.000286177
0.00040096
0.000609381
0.00102074
0.00194982
0.00386042
0.00836726
0.0173592
0.0303573
0.0501881
0.084597
0.165271
0.316851
0.531081
0.742876
1.43168
2.32168
1.67684
0.62014
0.197763
0.0256585
0.00442831
0.000599363
1e-05
2.73245e-05
0.00180001
0.0941289
0.325923
9.20252e-05
9.16679e-05
7.21679e-05
0.000164406
7.07607e-05
0.000115443
0.000146909
0.000179931
0.000197289
0.000192136
0.000191459
0.000204951
0.000232877
0.00029122
0.000384645
0.000622349
0.000983847
0.00289186
0.00317777
0.00370169
0.00487918
0.00699264
0.00880455
0.0117731
0.0154802
0.0195005
0.0161302
0.00875574
0.00331709
0.000858779
0.000111041
1.25751e-05
1e-05
1e-05
1.78043e-05
0.000534938
1.92772e-05
0.00500675
0.315457
0.000285328
0.000328587
0.000332283
0.0002169
0.000134104
8.74792e-05
6.67385e-05
5.7873e-05
5.49835e-05
5.51793e-05
5.77028e-05
6.04609e-05
7.79452e-05
0.000140092
0.000315079
0.000817997
0.00205267
0.0049154
0.0111318
0.022521
0.0398796
0.0670403
0.107123
0.28537
0.646164
0.742515
1.65202
1.66756
1.44451
1.99876
1.23539
0.312009
0.0825569
0.0109329
0.000185336
3.46528e-05
0.00207439
0.0957845
0.433066
4.19842e-05
4.0766e-05
4.65647e-05
9.77302e-05
8.56647e-05
5.57987e-05
3.42925e-05
3.29396e-05
3.66084e-05
4.11119e-05
4.50693e-05
5.81996e-05
5.83252e-05
0.000358424
0.000611465
0.00126285
0.00217718
0.000223947
0.000972295
0.00366671
0.00490931
0.00921692
0.0103476
0.00352931
0.000573145
0.00136016
0.000328388
0.00062205
3.9776e-05
0.000226556
0.000210737
1.50511e-05
1e-05
1e-05
1.14242e-05
9.60128e-05
1.15484e-05
0.00376697
0.249123
7.97245e-05
9.10752e-05
9.06532e-05
9.13542e-05
9.39752e-05
9.84747e-05
0.000104954
0.000112558
0.000120863
0.000129293
0.000137676
0.00014594
0.000153009
0.00015658
0.000168656
0.000212182
0.000378486
0.000956626
0.00260856
0.00670901
0.0153948
0.0339588
0.0727343
0.343063
0.578748
1.25365
1.43883
1.09051
0.670319
0.545253
0.504355
0.335302
0.0887136
0.0133909
0.00101448
5.44049e-05
0.000537378
0.0764179
0.698699
0.000114198
0.000126834
0.000130333
0.000114378
9.89741e-05
9.93254e-05
0.000103958
0.000112681
0.000125695
0.000146027
0.000165253
0.000187463
2.45669e-05
0.000128723
0.000110261
0.000104516
9.90507e-05
0.000262293
0.000748962
0.000126973
0.000130341
0.00410345
0.00478715
0.000120449
0.00502027
0.0106595
0.00224662
0.000359399
0.000237109
0.0010478
0.000996405
6.33299e-05
5.07393e-05
4.00049e-05
2.80844e-05
0.000230129
1e-05
0.0108759
0.851524
0.000220894
0.000218684
0.000216822
0.000217086
0.000219879
0.00022527
0.00023263
0.000242602
0.00025563
0.000272432
0.000293735
0.000320383
0.000353913
0.000396422
0.000450283
0.000522788
0.000611778
0.000695983
0.000308881
1e-05
1e-05
1e-05
1e-05
0.00600953
0.188082
1.00015e-05
1e-05
1e-05
1.00001e-05
1.00012e-05
1.00834e-05
9.67817e-05
0.0218565
0.022556
0.00749594
0.000391707
0.00226079
0.0905378
0.489642
0.000244358
0.000202197
0.000193565
0.000200009
0.000208032
0.000221963
0.000241787
0.000263772
0.00029217
0.000331213
0.000383209
0.000449434
0.000529447
0.000596056
0.000596687
0.00059394
0.000602423
0.000626945
0.000689967
0.000742997
0.000754648
0.00078524
0.000788074
0.000691277
0.000695234
0.000617096
0.000505044
0.000496216
0.000445903
0.000437189
0.000419965
0.00038906
0.000338781
0.000271223
0.00017149
8.54748e-05
1.14498e-05
0.0112446
2.35033
0.000422056
0.000420098
0.000424253
0.000432106
0.000443113
0.000461077
0.000483185
0.000510958
0.000545598
0.000586692
0.000634415
0.000688355
0.000747533
0.00081057
0.00087618
0.000942486
0.00101642
0.0011057
0.00121448
0.000168377
8.89022e-05
1e-05
1e-05
1e-05
0.0337977
1.00006e-05
1e-05
1e-05
1e-05
1e-05
1e-05
1.00003e-05
4.85338e-05
1e-05
0.00974686
0.00611671
0.00301475
0.0734778
0.212373
0.000419942
0.000336955
0.000266388
0.000438465
0.000460781
0.00049303
0.000531277
0.000578248
0.000638324
0.000717844
0.000821313
0.000952723
0.00111871
0.00132902
0.00158973
0.00178075
0.00175514
0.00173082
0.00169662
0.00165648
0.00161425
0.00156928
0.00152338
0.00147838
0.00143574
0.00139223
0.0013504
0.00131302
0.0012795
0.00124715
0.00121264
0.00117132
0.00112394
0.00108325
0.000978803
0.000986876
2.91664e-05
0.0162125
2.10489
0.000146031
0.000277952
0.000131595
3.55706e-05
0.00022942
0.000231073
0.000230074
0.000226085
0.000233621
0.000254535
0.000262694
0.000264532
0.000274741
0.000287001
0.000300618
0.000317427
2.49e-05
0.000138344
0.000283387
0.000412793
0.00043836
0.00014048
0.000104574
1e-05
1e-05
1e-05
1e-05
1e-05
1e-05
1e-05
1e-05
1e-05
1e-05
1e-05
1e-05
1e-05
1.00001e-05
1.00156e-05
1.00089e-05
0.000266265
0.000341017
0.000829534
0.000857595
0.000893142
0.000939654
0.00100039
0.00107775
0.00117845
0.00129644
0.00133447
0.00137515
0.0014187
0.00146059
0.00151721
0.00157791
0.0016261
0.00163984
0.00163374
0.00162291
0.00160768
0.00158833
0.00156399
0.00153586
0.00150344
0.00146739
0.0014322
0.00139812
0.00136662
0.00133998
0.00131803
0.00128504
0.00125782
0.00126603
0.00119516
0.00122493
3.42476e-05
0.00999581
1.01757
8.23137e-05
0.000179436
0.000274951
0.000314219
0.000343203
0.000366712
0.000395191
0.000382536
0.00042579
0.000551371
0.000558287
0.000513294
0.000519121
0.000521101
0.000521541
0.000521415
0.00051776
0.000490893
0.000473409
0.000505073
0.000581598
0.000573773
0.000510887
0.000236518
7.96469e-05
1e-05
1e-05
1e-05
1e-05
1e-05
1e-05
1e-05
1e-05
1e-05
1e-05
1e-05
1e-05
1e-05
1e-05
0.000989833
0.00148379
0.0014407
0.000809148
0.000362316
0.000140626
0.000130408
0.000144895
0.000171679
0.000204453
0.000242491
0.000286703
0.000338243
0.000393627
0.00045492
0.000534289
0.000593456
0.000616219
0.000620614
0.000618528
0.000609436
0.000595689
0.000578126
0.000562752
0.000548074
0.000533799
0.000521343
0.000510173
0.00050072
0.000493273
0.000489097
0.00049797
0.000519718
0.000561888
0.000595342
0.000793459
2.66105e-05
0.0056962
0.372561
0.00141247
0.00134642
0.00136347
0.00140643
0.00140221
0.00138758
0.00141338
0.00143294
0.00143642
0.00144007
0.00145166
0.00145634
0.00146137
0.00146576
0.00146048
0.00144803
0.00143612
0.00141049
0.00133454
0.0012321
0.00114777
0.0011053
0.0010787
0.00106593
0.000368778
1e-05
1e-05
1e-05
1e-05
1e-05
1e-05
1e-05
1e-05
1e-05
1e-05
1e-05
1e-05
1e-05
1e-05
0.00155724
0.00098711
0.000205473
0.000138827
0.000112059
9.40837e-05
9.5296e-05
9.74334e-05
0.000100536
0.000104601
0.000108849
0.000114168
0.000121303
0.000129553
0.000139551
0.000153309
0.000168483
0.000171717
0.000168869
0.000171079
0.000172095
0.000166919
0.000167687
0.000174439
0.000173767
0.000172924
0.00017217
0.000171476
0.000171033
0.000170839
0.000171177
0.000180517
0.000183477
0.000181737
0.000188834
9.14071e-05
4.12741e-05
0.00200555
0.111847
0.00120115
0.00107492
0.0010053
0.000955992
0.00092795
0.000897337
0.000872956
0.000855159
0.000844925
0.000841954
0.000845123
0.000846094
0.00086733
0.000910571
0.000930072
0.000945307
0.000981145
0.00102992
0.00108681
0.00111899
0.00113263
0.00112879
0.00112125
0.00109773
0.00123486
1.00001e-05
1e-05
1e-05
1e-05
1e-05
1e-05
1e-05
1e-05
1e-05
1e-05
1e-05
1e-05
1e-05
1e-05
0.000497749
0.000192997
0.00011022
1.36601e-05
0.000421842
0.000491331
0.000499779
0.000499909
0.000493524
0.000484481
0.000473452
0.000460276
0.000445617
0.00043062
0.000415856
0.000400308
0.000410529
0.00037939
0.0003276
0.000315528
0.00030502
0.000265017
0.000265913
0.000300103
0.000294491
0.000288794
0.000283299
0.000278054
0.000273316
0.000269002
0.00026484
0.000290832
0.00027107
0.000205983
0.000184019
0.000161857
0.000146932
0.000318902
0.0158802
0.000178231
0.000214168
0.000114619
5.89257e-05
1.67291e-05
0.000138569
0.000138503
0.000141321
0.000144964
0.000148754
0.000153953
0.000158835
0.000166748
0.000178712
1.112e-05
5.01384e-05
9.9344e-05
0.000151321
0.000232048
0.000372151
0.000527401
0.000642913
0.000745673
0.000761737
0.00109831
1.00005e-05
1e-05
1e-05
1e-05
1e-05
1e-05
1e-05
1e-05
1e-05
1e-05
1e-05
1e-05
1e-05
1e-05
0.000133539
0.000185397
0.000586349
0.000994567
0.00111583
0.00111015
0.0011096
0.00111195
0.00111203
0.00111042
0.00110721
0.00110175
0.0010937
0.00108232
0.00106695
0.00104756
0.00102607
0.00101525
0.00100248
0.000988489
0.000973662
0.000957813
0.000932629
0.000907648
0.000884623
0.000863431
0.000844203
0.000826462
0.000810389
0.000795662
0.00078304
0.000772044
0.000746968
0.000706993
0.000630789
0.000571851
0.000566487
8.73176e-05
0.00388765
0.0001635
0.000123798
0.000124561
0.000122923
2.67943e-05
5.93623e-05
8.69759e-05
0.000112341
0.000134483
0.000152256
0.000166662
0.000178772
0.000188533
0.000196834
0.000204809
0.00021439
0.000226523
0.00023251
0.000229798
0.000264573
0.000338343
0.000420099
0.000519698
0.000546588
0.000869544
1.00022e-05
1e-05
1e-05
1e-05
1e-05
1e-05
1e-05
1e-05
1e-05
1e-05
1e-05
1e-05
1e-05
1e-05
0.000378951
0.00092382
0.000998683
0.00083196
0.000741787
0.000723537
0.000718111
0.000722744
0.000731004
0.000741116
0.000752147
0.000763571
0.000773027
0.000776063
0.000770508
0.000761184
0.000752237
0.000742905
0.000732459
0.000721098
0.000708948
0.000695541
0.000680856
0.000666067
0.000652164
0.000639126
0.000627144
0.00061596
0.000605868
0.000596634
0.000588531
0.00058365
0.000584549
0.000585902
0.000583713
0.000568171
0.000593846
0.000311963
1.63329e-05
0.00072554
0.000735326
0.000783242
0.000836877
0.00088869
0.000938389
0.000979315
0.00101245
0.00103932
0.00105945
0.00107369
0.00108297
0.00108751
0.00108754
0.00108311
0.00107494
0.00106397
0.00109006
0.00105586
0.000942005
0.000868062
0.000806228
0.000777257
0.000705769
0.000900316
1.00128e-05
1e-05
1e-05
1e-05
1e-05
1e-05
1e-05
1e-05
1e-05
1e-05
1e-05
1e-05
1e-05
1e-05
0.00105225
0.00087273
0.000466188
0.00014178
5.50708e-05
5.51058e-05
5.225e-05
5.32396e-05
5.83882e-05
6.69809e-05
7.70164e-05
8.79759e-05
9.5916e-05
0.000100857
0.000102999
0.000104776
0.000107282
0.000108682
0.000108299
0.000107207
0.000105695
0.000103699
0.000101391
9.92505e-05
9.75594e-05
9.61851e-05
9.51147e-05
9.43391e-05
9.39789e-05
9.40436e-05
9.41553e-05
9.46012e-05
0.000106323
0.000133234
0.000170322
0.000214651
0.000272491
0.000353659
1.86098e-05
0.00103588
0.000929362
0.000911373
0.000907289
0.000899849
0.000897175
0.000899082
0.000902403
0.000908018
0.000915311
0.000923561
0.000932953
0.000943311
0.000954869
0.000966367
0.000978491
0.00099633
0.00101066
0.00104283
0.00108026
0.00105976
0.00100403
0.000962061
0.000868343
0.000987439
1.00781e-05
1e-05
1e-05
1e-05
1e-05
1e-05
1e-05
1e-05
1e-05
1e-05
1e-05
1e-05
1e-05
1e-05
0.000653517
0.000162592
9.34118e-05
6.53389e-05
5.6396e-05
5.62288e-05
5.69673e-05
5.70637e-05
5.71823e-05
5.76451e-05
5.78042e-05
5.81805e-05
5.85868e-05
5.88426e-05
5.9098e-05
5.96899e-05
6.0643e-05
6.16816e-05
6.25894e-05
6.34659e-05
6.43049e-05
6.51042e-05
6.58587e-05
6.6552e-05
6.71321e-05
6.7631e-05
6.81186e-05
6.85849e-05
6.90809e-05
6.96202e-05
6.99068e-05
7.03129e-05
7.25518e-05
7.60005e-05
8.35099e-05
8.68518e-05
9.07539e-05
7.63603e-05
1.50672e-05
0.00035106
0.000348865
0.000296661
0.000269962
0.000245333
0.000226811
0.000215546
0.000209505
0.000208885
0.000213115
0.000221318
0.0002333
0.000249027
0.000270083
0.000293201
0.000318966
0.000358854
0.000405953
0.000453241
0.000526988
0.000617041
0.000690531
0.000750585
0.000748043
0.000900435
1.04021e-05
1e-05
1e-05
1e-05
1e-05
1e-05
1e-05
1e-05
1e-05
1e-05
1e-05
1e-05
1e-05
1e-05
0.000134928
5.87719e-05
0.000115434
0.000275311
0.00029267
0.000282166
0.000287177
0.000290647
0.000290187
0.000287272
0.000283563
0.00027955
0.000275667
0.000272156
0.000268865
0.000265641
0.000262636
0.000259824
0.000256911
0.000253993
0.00025121
0.000248481
0.000245771
0.00024316
0.00024069
0.000238196
0.000235647
0.000233007
0.000230383
0.000227846
0.00022419
0.000221163
0.000214541
0.0001963
0.000186253
0.000147094
8.73455e-05
9.00509e-05
0.000105046
5.85601e-05
6.04745e-05
6.22347e-05
6.30862e-05
6.45627e-05
6.67254e-05
6.74896e-05
6.90601e-05
7.09096e-05
7.26983e-05
7.5261e-05
7.83009e-05
8.19393e-05
8.66775e-05
9.18559e-05
9.76468e-05
0.000106194
0.00011967
0.000128986
0.000139723
3.3387e-05
0.000141524
0.00026385
0.000351037
0.00054667
1.14007e-05
1e-05
1e-05
1e-05
1e-05
1e-05
1e-05
1e-05
1e-05
1e-05
1e-05
1e-05
1e-05
1e-05
9.40474e-05
0.000242314
0.000567433
0.000659126
0.000654532
0.000650991
0.00065368
0.000658871
0.000660435
0.000659111
0.000656902
0.000654557
0.000652252
0.000650027
0.000647759
0.000645152
0.000642076
0.000638646
0.000634795
0.000630401
0.000625511
0.000620139
0.000614232
0.000607963
0.000601597
0.000595014
0.000588197
0.000581083
0.000573936
0.000566987
0.000555641
0.000549332
0.000532025
0.000511271
0.000496025
0.000449598
0.000396814
0.000312714
0.000238909
4.23267e-05
5.12938e-05
9.30028e-05
0.000140407
0.000171226
0.000199508
0.000220745
0.000236621
0.000248534
0.000256898
0.000262795
0.000266968
0.000269719
0.000271373
0.000271939
0.000271484
0.000271504
0.000293376
0.000283861
0.000238259
0.000209628
0.00019933
0.00022424
0.00025654
0.000355695
1.45445e-05
1e-05
1e-05
1e-05
1e-05
1e-05
1e-05
1e-05
1e-05
1e-05
1e-05
1e-05
1e-05
1e-05
0.000464594
0.000686585
0.000583459
0.000413637
0.000393556
0.000399904
0.000400083
0.000403859
0.000406915
0.000408256
0.00040952
0.000411275
0.000413281
0.000415264
0.000416968
0.000418281
0.000419029
0.000419177
0.000418636
0.000417405
0.000415511
0.000412996
0.000409906
0.000406427
0.000402823
0.000399042
0.000395128
0.000391061
0.000387033
0.000383241
0.000379362
0.000376102
0.000376878
0.000382436
0.000388214
0.00039202
0.000387324
0.000358553
0.000301848
0.000621698
0.000614579
0.000634081
0.000663544
0.000687281
0.000706201
0.000719171
0.000726822
0.000731449
0.000734149
0.000735834
0.000737201
0.0007383
0.000738839
0.000738576
0.000737963
0.000737302
0.000735783
0.000732874
0.000726048
0.000713662
0.000640394
0.0005385
0.000481143
0.000448403
2.78967e-05
1e-05
1e-05
1e-05
1e-05
1e-05
1e-05
1e-05
1e-05
1e-05
1e-05
1e-05
1e-05
1e-05
0.000726229
0.000453077
0.000171778
1.32914e-05
6.86923e-05
7.09205e-05
7.14433e-05
7.12188e-05
7.08166e-05
7.03727e-05
6.93189e-05
6.85332e-05
1.07355e-05
1.24731e-05
1.41512e-05
1.57456e-05
1.72263e-05
1.8584e-05
1.97927e-05
2.08458e-05
2.17241e-05
2.2444e-05
2.30597e-05
2.36675e-05
2.43294e-05
2.50087e-05
2.5714e-05
2.64345e-05
2.72013e-05
2.80532e-05
2.89081e-05
2.93619e-05
3.1081e-05
4.69468e-05
7.43111e-05
0.000112366
0.000163127
0.000215446
0.000228301
0.000625005
0.000567558
0.000544538
0.00053374
0.000519368
0.000505194
0.00049437
0.000486091
0.000481444
0.000480287
0.000481642
0.000484978
0.000489871
0.000495725
0.000502272
0.000509886
0.00051876
0.000528494
0.000539247
0.000556955
0.000580218
0.000596834
0.000593923
0.000560635
0.000505523
6.83677e-05
1e-05
1e-05
1e-05
1e-05
1e-05
1e-05
1e-05
1e-05
1e-05
1e-05
1e-05
1e-05
1e-05
0.000289429
1.41783e-05
3.46109e-05
2.25377e-05
2.50231e-05
2.56238e-05
2.6145e-05
2.60446e-05
2.57685e-05
2.54777e-05
2.49498e-05
2.44107e-05
2.41337e-05
2.40505e-05
2.40773e-05
2.42552e-05
2.45189e-05
2.48825e-05
2.5327e-05
2.58335e-05
2.63729e-05
2.69439e-05
2.75426e-05
2.8126e-05
2.86271e-05
2.90772e-05
2.9519e-05
2.99499e-05
3.03785e-05
3.08188e-05
3.12446e-05
3.15576e-05
3.1995e-05
3.42814e-05
3.82264e-05
4.50143e-05
5.29464e-05
4.20842e-05
0.000107221
0.000140134
0.000160514
0.000120491
9.58081e-05
7.5647e-05
5.8358e-05
4.55266e-05
3.74108e-05
3.34649e-05
3.30048e-05
3.48695e-05
3.83856e-05
4.31943e-05
4.92537e-05
5.64763e-05
6.48495e-05
7.46353e-05
8.60164e-05
9.91859e-05
0.000114238
0.000152083
0.000220349
0.000292304
0.000346499
0.000362959
0.000135173
1e-05
1e-05
1e-05
1e-05
1e-05
1e-05
1e-05
1e-05
1e-05
1e-05
1e-05
1e-05
1e-05
6.27145e-05
2.85545e-05
6.23442e-05
9.39483e-05
0.000112699
0.000114102
0.000117017
0.000118291
0.000118546
0.000118317
0.000117603
0.000116569
0.000115509
0.000114482
0.000113467
0.000112535
0.000111689
0.000110908
0.000110192
0.000109531
0.000108902
0.000108298
0.000107711
0.000107165
0.000106625
0.000106017
0.000105355
0.000104655
0.00010393
0.000103227
0.000102514
0.00010172
0.000100232
9.22414e-05
7.9372e-05
6.81175e-05
4.25078e-05
2.91348e-05
6.88953e-05
2.76607e-05
3.07693e-05
2.75706e-05
2.555e-05
2.50782e-05
2.49345e-05
2.44883e-05
2.43188e-05
2.43474e-05
2.45295e-05
2.50316e-05
2.57086e-05
2.65492e-05
2.76558e-05
2.89883e-05
3.05755e-05
3.24688e-05
3.47032e-05
3.73052e-05
4.02594e-05
4.62081e-05
5.74654e-05
7.15e-05
6.59396e-05
0.000120376
0.000149454
1e-05
1e-05
1e-05
1e-05
1e-05
1e-05
1e-05
1e-05
1e-05
1e-05
1e-05
1e-05
1e-05
5.89269e-05
0.00014804
0.0003136
0.000359964
0.000372721
0.00037426
0.000377139
0.000379933
0.000381174
0.00038132
0.000380913
0.000380225
0.000379478
0.000378717
0.000377885
0.000377005
0.000376074
0.000375053
0.00037392
0.000372633
0.000371166
0.000369502
0.000367602
0.000365499
0.000363256
0.000360798
0.000358137
0.000355328
0.000352387
0.00034947
0.000346602
0.000343613
0.000340662
0.000331649
0.0003139
0.00028529
0.00024322
0.000195349
0.000155823
8.2138e-05
5.19188e-05
1.88119e-05
3.44481e-05
5.0604e-05
6.60432e-05
7.79058e-05
8.53207e-05
8.97999e-05
9.23699e-05
9.38505e-05
9.47093e-05
9.51218e-05
9.53979e-05
9.56594e-05
9.58634e-05
9.60807e-05
9.6268e-05
9.63449e-05
9.60278e-05
8.95954e-05
8.2554e-05
5.75995e-05
4.5154e-05
5.05346e-05
0.000124633
1e-05
1e-05
1e-05
1e-05
1e-05
1e-05
1e-05
1e-05
1e-05
1e-05
1e-05
1e-05
1e-05
0.000265092
0.000385167
0.000337128
0.000297547
0.000295463
0.000293153
0.000291711
0.000292654
0.000293324
0.000293391
0.000293416
0.000293595
0.000293863
0.000294205
0.000294554
0.000294835
0.000295016
0.000295074
0.000294961
0.000294636
0.000294093
0.00029332
0.000292292
0.00029101
0.000289593
0.000288044
0.000286337
0.000284497
0.000282535
0.00028056
0.00027862
0.000276642
0.000275969
0.000278141
0.000279911
0.000276758
0.000269128
0.000244965
0.000199641
0.000334415
0.00031648
0.000326157
0.000340327
0.000352514
0.000363074
0.000371058
0.000374831
0.000376115
0.000376441
0.000376203
0.000375762
0.000375022
0.000374488
0.000374146
0.000373876
0.000373846
0.00037373
0.000373269
0.000372785
0.000368865
0.000347948
0.000310522
0.000268099
0.000222037
0.000212354
1.00005e-05
1e-05
1e-05
1e-05
1e-05
1e-05
1e-05
1e-05
1e-05
1e-05
1e-05
1e-05
1e-05
0.000408335
0.00025862
0.000114738
6.67888e-05
6.00374e-05
5.84587e-05
5.62878e-05
5.55117e-05
5.52131e-05
5.48344e-05
5.45116e-05
5.43683e-05
5.43945e-05
5.45416e-05
5.47694e-05
5.50525e-05
5.53741e-05
5.57319e-05
5.6116e-05
5.65215e-05
5.69449e-05
5.73962e-05
5.78758e-05
5.83764e-05
5.88905e-05
5.9383e-05
5.98276e-05
6.02195e-05
6.05568e-05
6.08607e-05
6.11252e-05
6.11813e-05
6.1515e-05
6.82742e-05
8.35078e-05
0.000105652
0.000136375
0.000161332
0.000158594
0.000365963
0.000344014
0.000336296
0.00033413
0.000331024
0.000328162
0.000326086
0.000322397
0.000318116
0.000315219
0.000313069
0.000311605
0.000310308
0.000309996
0.000310773
0.000311762
0.00031322
0.000314958
0.000316838
0.000319616
0.000327601
0.000335567
0.000333401
0.000324208
0.000293699
0.000280612
1.00081e-05
1e-05
1e-05
1e-05
1e-05
1e-05
1e-05
1e-05
1e-05
1e-05
1e-05
1e-05
1e-05
0.000179046
1.97471e-05
2.71648e-05
1.87383e-05
1.78365e-05
1.77769e-05
1.746e-05
1.71929e-05
1.699e-05
1.67982e-05
1.6529e-05
1.62898e-05
1.61417e-05
1.60245e-05
1.59694e-05
1.59943e-05
1.60692e-05
1.62074e-05
1.64022e-05
1.66465e-05
1.69327e-05
1.72614e-05
1.76311e-05
1.80012e-05
1.8326e-05
1.8627e-05
1.89247e-05
1.92165e-05
1.95002e-05
1.9776e-05
2.00414e-05
2.02642e-05
2.05393e-05
2.215e-05
2.56048e-05
3.06556e-05
3.91275e-05
4.60454e-05
8.30677e-05
0.000106464
0.000106885
9.55834e-05
9.01277e-05
8.47258e-05
7.97979e-05
7.55597e-05
7.26874e-05
7.05318e-05
6.90313e-05
6.81495e-05
6.7815e-05
6.80451e-05
6.86064e-05
6.96117e-05
7.11298e-05
7.32076e-05
7.58638e-05
7.91347e-05
8.26633e-05
8.887e-05
0.000111402
0.000141642
0.00017532
0.000193525
0.000231495
1.00785e-05
1.00001e-05
1e-05
1e-05
1e-05
1e-05
1e-05
1e-05
1e-05
1e-05
1e-05
1e-05
1e-05
4.44317e-05
1.62393e-05
2.71346e-05
3.05879e-05
3.24396e-05
3.39952e-05
3.47476e-05
3.46004e-05
3.42164e-05
3.38099e-05
3.30179e-05
3.21772e-05
3.15511e-05
3.09485e-05
3.05196e-05
3.03484e-05
3.03312e-05
3.05142e-05
3.0874e-05
3.13836e-05
3.20116e-05
3.27508e-05
3.35901e-05
3.43873e-05
3.49833e-05
3.54709e-05
3.5953e-05
3.64204e-05
3.68694e-05
3.72974e-05
3.77081e-05
3.8101e-05
3.84809e-05
3.85109e-05
3.72899e-05
3.43826e-05
2.9973e-05
3.41847e-05
3.02755e-05
2.35315e-05
2.37693e-05
2.29982e-05
2.16741e-05
2.09949e-05
2.03936e-05
1.95772e-05
1.91178e-05
1.87663e-05
1.84532e-05
1.8314e-05
1.8261e-05
1.83034e-05
1.84424e-05
1.86621e-05
1.89874e-05
1.94193e-05
1.9964e-05
2.06259e-05
2.13507e-05
2.25154e-05
2.63187e-05
3.18268e-05
1.39635e-05
4.6978e-05
0.000106004
1.04263e-05
1e-05
1e-05
1e-05
1e-05
1e-05
1e-05
1e-05
1e-05
1e-05
1e-05
1e-05
1e-05
2.76739e-05
4.62445e-05
0.000125353
0.000148355
0.000158124
0.000164541
0.000168821
0.000171313
0.000172762
0.000173707
0.000174363
0.000174772
0.000175028
0.000175188
0.000175244
0.000175219
0.000175125
0.000174953
0.000174698
0.000174353
0.000173921
0.000173413
0.000172844
0.00017224
0.000171632
0.000170988
0.000170279
0.000169518
0.000168693
0.0001678
0.000166879
0.000165949
0.000165061
0.00016238
0.000153286
0.000135838
0.000111391
8.71596e-05
7.20479e-05
4.21991e-05
3.14812e-05
3.26388e-05
3.16888e-05
3.18472e-05
3.20811e-05
3.16386e-05
3.15247e-05
3.14149e-05
3.11525e-05
3.1094e-05
3.10546e-05
3.10493e-05
3.1161e-05
3.12936e-05
3.14907e-05
3.17319e-05
3.20014e-05
3.22688e-05
3.25418e-05
3.28367e-05
3.21346e-05
3.00216e-05
2.77872e-05
3.19602e-05
2.11121e-05
1.1256e-05
1.00009e-05
1e-05
1e-05
1e-05
1e-05
1e-05
1e-05
1e-05
1e-05
1e-05
1e-05
1e-05
0.000111695
0.000212573
0.000213759
0.000206698
0.000206836
0.000206634
0.00020641
0.000206069
0.00020567
0.000205393
0.000205319
0.000205333
0.000205366
0.000205419
0.000205453
0.000205452
0.000205417
0.000205347
0.000205218
0.000205021
0.000204752
0.000204427
0.000204036
0.00020357
0.000203079
0.000202548
0.000201922
0.000201209
0.000200405
0.0001995
0.000198535
0.000197553
0.000196863
0.000196882
0.000194965
0.000188643
0.000175833
0.00015097
0.000120275
0.000163576
0.000165969
0.000163891
0.000163988
0.00016371
0.000163641
0.000163813
0.000164011
0.000164339
0.000164715
0.000165062
0.000165397
0.000165689
0.000165905
0.00016604
0.00016613
0.000166239
0.000166281
0.000166176
0.000166038
0.000166137
0.000159787
0.000144302
0.000124276
0.000107958
8.38529e-05
1.86612e-05
1.00226e-05
1e-05
1e-05
1e-05
1e-05
1e-05
1e-05
1e-05
1e-05
1e-05
1e-05
1e-05
0.000240415
0.000181657
0.000111571
8.96126e-05
8.12992e-05
7.61333e-05
7.26402e-05
7.02664e-05
6.85706e-05
6.74099e-05
6.67006e-05
6.62722e-05
6.59901e-05
6.58104e-05
6.56826e-05
6.55891e-05
6.55306e-05
6.54793e-05
6.5443e-05
6.53969e-05
6.53631e-05
6.53281e-05
6.52852e-05
6.52553e-05
6.52342e-05
6.52175e-05
6.5181e-05
6.51404e-05
6.50894e-05
6.50213e-05
6.4932e-05
6.4836e-05
6.47845e-05
6.64707e-05
7.38342e-05
8.53427e-05
9.81484e-05
0.000106896
0.000104634
0.000227648
0.000211092
0.000206798
0.000202543
0.000198755
0.000195846
0.000193969
0.000192632
0.000191766
0.000191262
0.000190939
0.000190755
0.000190676
0.000190634
0.000190634
0.000190714
0.000190929
0.000191178
0.00019135
0.000191585
0.000192904
0.000194278
0.000190944
0.000182575
0.000170081
0.000144523
5.52942e-05
1.03467e-05
1.00002e-05
1e-05
1e-05
1e-05
1e-05
1e-05
1e-05
1e-05
1e-05
1e-05
1e-05
0.000147996
4.31747e-05
2.94759e-05
2.24837e-05
2.1372e-05
2.08071e-05
2.0273e-05
1.96733e-05
1.91696e-05
1.87791e-05
1.83318e-05
1.79187e-05
1.7611e-05
1.73242e-05
1.71086e-05
1.69968e-05
1.69493e-05
1.69839e-05
1.70975e-05
1.72789e-05
1.75176e-05
1.7816e-05
1.81647e-05
1.8506e-05
1.87674e-05
1.89904e-05
1.92156e-05
1.94436e-05
1.96732e-05
1.98998e-05
2.01206e-05
2.03375e-05
2.05615e-05
2.11261e-05
2.28446e-05
2.55606e-05
1.17151e-05
3.62185e-05
5.58263e-05
9.02145e-05
8.78877e-05
7.73206e-05
7.08249e-05
6.6559e-05
6.35396e-05
6.15271e-05
6.01326e-05
5.91218e-05
5.84203e-05
5.79352e-05
5.7612e-05
5.74294e-05
5.73843e-05
5.74565e-05
5.76842e-05
5.80781e-05
5.86369e-05
5.93439e-05
6.02106e-05
6.18381e-05
6.81014e-05
7.9983e-05
9.29432e-05
0.000103252
0.00010885
8.57708e-05
1.21935e-05
1.00045e-05
1e-05
1e-05
1e-05
1e-05
1e-05
1e-05
1e-05
1e-05
1e-05
1e-05
3.8476e-05
1.47369e-05
1.55661e-05
1.69824e-05
1.76532e-05
1.79194e-05
1.79583e-05
1.79146e-05
1.72755e-05
1.6867e-05
1.65695e-05
1.62926e-05
1.60793e-05
1.58614e-05
1.56876e-05
1.55922e-05
1.55424e-05
1.55597e-05
1.56418e-05
1.57837e-05
1.59742e-05
1.62165e-05
1.65068e-05
1.67891e-05
1.69951e-05
1.7162e-05
1.73302e-05
1.74976e-05
1.76637e-05
1.78255e-05
1.7984e-05
1.81395e-05
1.82905e-05
1.83997e-05
1.78169e-05
1.64964e-05
1.54823e-05
1.81103e-05
2.13882e-05
2.15074e-05
2.1312e-05
2.04404e-05
1.90321e-05
1.84754e-05
1.81132e-05
1.76415e-05
1.73836e-05
1.7179e-05
1.69644e-05
1.68521e-05
1.67683e-05
1.6715e-05
1.6722e-05
1.6758e-05
1.68385e-05
1.6959e-05
1.71174e-05
1.73073e-05
1.75261e-05
1.78582e-05
1.88867e-05
2.07823e-05
2.37729e-05
1.94307e-05
3.85089e-05
5.19895e-05
1.67367e-05
1.0046e-05
1.00002e-05
1e-05
1e-05
1e-05
1e-05
1e-05
1e-05
1e-05
1e-05
1e-05
1.53577e-05
2.75766e-05
4.67764e-05
5.61579e-05
5.98037e-05
6.03743e-05
6.05347e-05
6.14777e-05
5.86478e-05
5.71488e-05
5.71267e-05
5.73516e-05
5.7591e-05
5.78028e-05
5.7972e-05
5.8108e-05
5.82232e-05
5.83201e-05
5.84038e-05
5.84757e-05
5.85361e-05
5.85843e-05
5.86203e-05
5.8646e-05
5.86613e-05
5.86537e-05
5.8612e-05
5.85422e-05
5.84506e-05
5.83315e-05
5.81934e-05
5.80425e-05
5.78739e-05
5.74861e-05
5.32864e-05
4.52516e-05
3.7276e-05
2.33961e-05
1.81135e-05
2.31292e-05
1.74794e-05
1.76299e-05
1.72454e-05
1.73512e-05
1.75373e-05
1.74926e-05
1.75653e-05
1.76344e-05
1.76294e-05
1.76878e-05
1.77383e-05
1.77845e-05
1.78651e-05
1.79463e-05
1.80438e-05
1.81522e-05
1.82636e-05
1.83675e-05
1.84615e-05
1.85294e-05
1.84358e-05
1.76372e-05
1.64281e-05
1.65794e-05
1.84437e-05
2.15899e-05
1.62526e-05
1.02083e-05
1.00003e-05
1e-05
1e-05
1e-05
1e-05
1e-05
1e-05
1e-05
1e-05
1e-05
4.92305e-05
0.000112037
0.000124075
0.000124394
0.000124941
0.000124599
0.000123883
0.000124633
0.000123385
0.000122529
0.00012342
0.000123904
0.00012421
0.000124438
0.000124612
0.000124745
0.000124862
0.000124968
0.000125066
0.000125154
0.000125234
0.000125301
0.000125348
0.000125367
0.000125359
0.000125307
0.000125179
0.000124986
0.000124751
0.000124456
0.000124119
0.000123739
0.000123362
0.000123326
0.000117726
0.000111471
0.000105011
9.01571e-05
7.0148e-05
7.42739e-05
6.34863e-05
6.11421e-05
6.08461e-05
6.12131e-05
6.20049e-05
6.29325e-05
6.39042e-05
6.49171e-05
6.58864e-05
6.67914e-05
6.76278e-05
6.8369e-05
6.90101e-05
6.95571e-05
7.00299e-05
7.04466e-05
7.07828e-05
7.10038e-05
7.11234e-05
7.11063e-05
7.0099e-05
6.42325e-05
5.56851e-05
4.61948e-05
3.73855e-05
2.94681e-05
2.33233e-05
1.1256e-05
1.00114e-05
1.00001e-05
1e-05
1e-05
1e-05
1e-05
1e-05
1e-05
1e-05
1e-05
0.000142573
0.000120063
8.22173e-05
7.86498e-05
7.68915e-05
7.64945e-05
7.57426e-05
7.52327e-05
7.6815e-05
7.70282e-05
7.69717e-05
7.69062e-05
7.68597e-05
7.6839e-05
7.68478e-05
7.68632e-05
7.68916e-05
7.69306e-05
7.69661e-05
7.69968e-05
7.70223e-05
7.70325e-05
7.70262e-05
7.69851e-05
7.69138e-05
7.68251e-05
7.67055e-05
7.65605e-05
7.64059e-05
7.62267e-05
7.60462e-05
7.58458e-05
7.56077e-05
7.58315e-05
7.77414e-05
8.09498e-05
8.39307e-05
8.37329e-05
7.55141e-05
0.000139608
0.000125888
0.000123016
0.000122242
0.000121911
0.000121653
0.000121556
0.000121184
0.000120738
0.000120388
0.000120133
0.000119991
0.000119919
0.000119869
0.000119842
0.000119865
0.000119962
0.000120087
0.00012017
0.000120212
0.000120327
0.000120999
0.000118289
0.000112936
0.000102849
9.2158e-05
7.93743e-05
5.99964e-05
1.92071e-05
1.02095e-05
1.00008e-05
1e-05
1e-05
1e-05
1e-05
1e-05
1e-05
1e-05
1e-05
9.909e-05
4.35298e-05
1.33407e-05
1.04158e-05
2.0912e-05
2.10583e-05
2.0955e-05
2.06142e-05
2.05724e-05
2.03229e-05
1.9856e-05
1.9358e-05
1.89542e-05
1.85463e-05
1.8213e-05
1.80033e-05
1.78685e-05
1.7841e-05
1.79197e-05
1.80967e-05
1.83576e-05
1.87078e-05
1.91423e-05
1.95623e-05
1.98523e-05
2.00796e-05
2.03152e-05
2.05547e-05
2.08004e-05
2.10458e-05
2.1294e-05
2.15422e-05
2.17849e-05
2.21144e-05
2.31391e-05
1.56387e-05
2.58615e-05
3.8153e-05
4.58907e-05
7.27521e-05
7.35074e-05
7.00313e-05
6.84515e-05
6.75234e-05
6.64714e-05
6.55586e-05
6.4994e-05
6.47389e-05
6.46912e-05
6.47173e-05
6.47683e-05
6.48305e-05
6.48822e-05
6.49294e-05
6.49995e-05
6.51119e-05
6.5268e-05
6.54485e-05
6.56394e-05
6.58385e-05
6.6898e-05
7.07038e-05
7.49829e-05
7.80963e-05
7.89688e-05
7.75445e-05
7.17096e-05
3.89156e-05
1.15235e-05
1.00175e-05
1e-05
1e-05
1e-05
1e-05
1e-05
1e-05
1e-05
1e-05
1.52976e-05
1.54673e-05
1.31088e-05
1.29972e-05
1.31749e-05
1.332e-05
1.33845e-05
1.33415e-05
1.32691e-05
1.31968e-05
1.30586e-05
1.28989e-05
1.27654e-05
1.26264e-05
1.2507e-05
1.24271e-05
1.237e-05
1.2348e-05
1.23609e-05
1.24074e-05
1.24834e-05
1.25918e-05
1.27339e-05
1.28785e-05
1.29824e-05
1.30637e-05
1.31463e-05
1.32304e-05
1.33161e-05
1.34017e-05
1.34869e-05
1.3572e-05
1.36535e-05
1.37154e-05
1.35691e-05
1.41742e-05
1.5703e-05
1.73868e-05
1.35864e-05
1.91768e-05
1.93936e-05
1.94773e-05
1.88202e-05
1.87454e-05
1.86686e-05