/*--------------------------------*- C++ -*----------------------------------*\
| =========                 |                                                 |
| \\      /  F ield         | OpenFOAM: The Open Source CFD Toolbox           |
|  \\    /   O peration     | Version:  2312                                  |
|   \\  /    A nd           | Website:  www.openfoam.com                      |
|    \\/     M anipulation  |                                                 |
\*---------------------------------------------------------------------------*/
FoamFile
{
    version     2.0;
    format      ascii;
    arch        "LSB;label=32;scalar=64";
    class       volVectorField;
    location    "150";
    object      U;
}
// * * * * * * * * * * * * * * * * * * * * * * * * * * * * * * * * * * * * * //

dimensions      [0 1 -1 0 0 0 0];

internalField   nonuniform List<vector> 
10720
(
(0.487806 26.1807 8.15368e-18)
(2.12827 28.4897 -7.46347e-18)
(4.20335 30.7303 0)
(6.60695 32.51 -3.48997e-16)
(9.27683 33.9033 3.89409e-16)
(12.1477 34.8648 2.92066e-16)
(15.0689 35.2953 4.1645e-16)
(17.9456 35.2257 0)
(20.6944 34.7151 0)
(23.2339 33.8013 0)
(25.5255 32.5569 1.17528e-16)
(27.5492 31.0886 0)
(29.2441 29.3712 2.32832e-15)
(30.5927 27.435 0)
(31.5621 25.3002 0)
(32.143 23.0011 0)
(32.3037 20.5457 -4.18837e-15)
(32.0387 17.9822 -6.4555e-15)
(31.3518 15.3332 5.92922e-15)
(30.341 12.6779 0)
(29.1772 10.0997 5.20244e-15)
(28.2586 7.79263 -1.03059e-14)
(28.1906 5.90789 4.84464e-15)
(29.5856 4.27829 -1.17909e-16)
(31.7628 2.83082 0)
(33.1713 2.15718 9.91506e-16)
(33.9546 1.52088 1.00522e-17)
(33.5041 0.0104291 -2.15901e-16)
(32.5593 -1.91425 -8.21104e-16)
(31.6201 -2.75498 -3.08677e-15)
(30.4208 -2.94966 1.86955e-15)
(28.4229 -3.08024 5.51164e-15)
(25.102 -2.86569 5.57708e-15)
(18.7546 -2.13675 2.03013e-14)
(6.0817 -0.53089 -1.14501e-14)
(-4.3258 0.700359 -3.18803e-16)
(-4.6383 0.853954 2.69647e-16)
(-8.87202 1.14184 4.92546e-14)
(-4.47303 -0.0105129 -8.57368e-15)
(-0.787781 23.7296 -4.1244e-18)
(-1.79354 20.9832 -2.09209e-17)
(-2.45395 17.9061 7.55906e-17)
(-2.65126 14.368 -2.08524e-16)
(-2.22849 10.7225 -6.90889e-16)
(-1.17173 7.13021 1.22379e-15)
(0.380861 3.93512 6.91845e-15)
(2.17062 1.33446 3.21964e-15)
(4.18859 -1.00685 0)
(6.47687 -2.96528 0)
(8.7557 -4.35298 1.83953e-15)
(10.8301 -5.21473 6.76168e-16)
(12.6613 -5.68857 -1.13771e-15)
(14.2582 -5.89206 9.37456e-16)
(15.6436 -5.92024 1.54759e-15)
(16.8523 -5.83523 9.96818e-16)
(17.9175 -5.68695 1.25995e-15)
(18.8727 -5.49635 8.29221e-16)
(19.7486 -5.28048 0)
(20.5659 -5.04536 0)
(21.342 -4.79509 -1.09935e-15)
(22.097 -4.49169 -4.71938e-17)
(22.8181 -4.15293 6.87275e-16)
(23.4769 -3.74939 -4.35399e-16)
(24.0034 -3.2767 2.7583e-17)
(24.379 -2.75191 0)
(24.6245 -2.18855 1.92129e-17)
(24.7601 -1.63378 0)
(24.733 -1.10668 0)
(24.5148 -0.612385 -6.34324e-17)
(24.0975 -0.150333 0)
(23.4785 0.278759 3.60368e-16)
(22.6546 0.669668 6.44555e-16)
(21.6174 1.01344 2.98953e-15)
(20.3289 1.30152 -8.84145e-16)
(18.7772 1.51117 3.00104e-18)
(16.8191 1.75824 0)
(15.1797 1.27487 2.50722e-15)
(18.7819 3.25809 2.4878e-15)
(7.0546 22.6966 -1.1888e-17)
(8.84687 24.4336 4.0638e-18)
(11.0459 26.0223 0)
(13.5948 27.36 0)
(16.3572 28.3831 -1.14161e-16)
(19.3375 29.0311 -2.80344e-16)
(22.4266 29.2557 0)
(25.4953 29.0737 0)
(28.4906 28.4929 6.21336e-16)
(31.327 27.5588 0)
(33.9554 26.3305 2.34276e-15)
(36.3435 24.8457 0)
(38.5061 23.2297 8.48484e-16)
(40.456 21.5334 -8.32894e-16)
(42.2128 19.7714 1.69133e-15)
(43.7322 17.9786 -3.38087e-15)
(44.9966 16.1703 3.61365e-15)
(45.9783 14.3594 3.29399e-15)
(46.6351 12.5308 3.21818e-15)
(46.8887 10.6715 1.96298e-16)
(46.653 8.74784 -3.38368e-15)
(45.8141 6.73651 3.23424e-15)
(44.251 4.66192 -1.78776e-16)
(41.4929 2.84408 0)
(38.2888 1.7133 0)
(36.3021 0.780774 0)
(35.1114 0.0392904 4.39353e-17)
(34.1954 -0.558967 -8.38606e-18)
(33.1918 -1.07441 5.75523e-16)
(32.1783 -1.66814 -1.99489e-17)
(31.1496 -2.24213 5.26492e-18)
(30.2169 -2.68069 -3.63557e-17)
(29.4543 -3.01139 3.79762e-15)
(28.734 -3.00858 -5.61506e-15)
(21.0425 -1.86787 -2.77722e-17)
(7.15245 -0.453302 -1.26888e-14)
(-7.66658 2.21973 0)
(-7.97359 1.64931 -1.59057e-14)
(-3.0541 -0.487047 -4.16394e-15)
(5.55819 20.8554 1.61267e-17)
(4.27404 18.8182 -6.0782e-17)
(3.17685 16.4427 -7.02527e-16)
(2.3766 13.7574 8.75991e-16)
(2.0545 10.8522 0)
(2.2978 7.87708 -1.85968e-15)
(3.10551 5.05434 -1.43705e-15)
(4.33268 2.54208 -9.66865e-15)
(5.8707 0.310048 2.4084e-15)
(7.68609 -1.46806 -1.76706e-15)
(9.59262 -2.70605 2.21266e-15)
(11.4317 -3.49075 -6.25068e-16)
(13.1383 -3.94396 0)
(14.6897 -4.15813 -4.05709e-16)
(16.0795 -4.2152 6.2328e-17)
(17.3226 -4.16749 -8.86939e-16)
(18.4395 -4.05645 0)
(19.4541 -3.90698 0)
(20.3911 -3.73358 -8.94695e-17)
(21.2728 -3.53124 8.64549e-17)
(22.1181 -3.29424 -9.89919e-16)
(22.925 -3.02376 -1.01378e-16)
(23.7088 -2.67081 4.50395e-17)
(24.4459 -2.20353 4.54973e-16)
(25.0851 -1.62608 -2.7018e-16)
(25.5969 -1.01514 -1.72116e-16)
(25.9978 -0.41195 0)
(26.301 0.186574 0)
(26.5606 0.766636 0)
(26.8017 1.32759 9.59504e-18)
(27.0275 1.85692 0)
(27.231 2.3452 0)
(27.3973 2.78775 -9.71939e-16)
(27.5112 3.18145 -8.58252e-16)
(27.5348 3.52241 6.17527e-16)
(27.4617 3.82779 -2.33668e-16)
(27.007 4.0285 -3.01854e-16)
(26.957 4.73474 -1.83385e-15)
(23.0827 4.30728 -1.27572e-15)
(8.38632 20.9152 -2.84009e-18)
(9.65621 22.4457 -1.05352e-17)
(11.2127 23.944 6.22385e-18)
(13.0121 25.3388 -2.48252e-17)
(15.007 26.513 -1.44505e-16)
(17.1969 27.4431 5.21269e-16)
(19.5105 28.0887 -3.69304e-16)
(21.8756 28.4107 -4.49868e-16)
(24.2363 28.4075 1.04635e-17)
(26.5355 28.0887 -6.06756e-16)
(28.72 27.4743 5.7405e-16)
(30.756 26.5922 -1.50754e-15)
(32.6132 25.4688 -7.22019e-16)
(34.28 24.1282 0)
(35.7312 22.6096 -1.7722e-15)
(37.0052 20.9268 3.5915e-15)
(38.1414 19.0903 0)
(39.1465 17.1394 -6.86597e-15)
(40.0455 15.096 -3.44806e-15)
(40.8185 12.9972 4.03707e-16)
(41.4348 10.8578 -3.97861e-16)
(41.7804 8.72135 -1.79931e-16)
(41.734 6.68106 -2.50912e-15)
(41.2447 4.82536 1.19345e-15)
(39.8814 3.02726 0)
(38.0885 1.56227 5.71784e-16)
(36.3286 0.43111 -5.30637e-17)
(34.9702 -0.379 0)
(33.7367 -1.04887 8.63484e-16)
(32.4739 -1.71837 1.40326e-15)
(31.2833 -2.29085 -2.78482e-15)
(30.1203 -2.73048 -3.30917e-15)
(28.8667 -2.997 -8.40253e-17)
(28.5559 -2.88984 -4.99603e-15)
(27.149 -2.21961 -2.94193e-15)
(19.7095 -1.50072 5.50374e-15)
(-0.251987 1.40397 0)
(-5.67423 1.22414 -1.97093e-14)
(-1.05577 -1.6013 6.92673e-15)
(7.36068 19.3102 -2.04303e-17)
(6.47045 17.5663 -6.92886e-17)
(5.74816 15.5221 2.85729e-16)
(5.18738 13.2433 0)
(4.93962 10.8053 5.16129e-16)
(5.04883 8.28662 0)
(5.54088 5.82851 3.84907e-15)
(6.36581 3.54971 2.02883e-15)
(7.50692 1.51744 1.64358e-15)
(8.90315 -0.179173 0)
(10.4164 -1.50146 -2.30578e-15)
(11.9336 -2.48082 -4.83812e-16)
(13.393 -3.17566 2.17994e-15)
(14.762 -3.64183 0)
(16.0239 -3.93128 -9.8997e-16)
(17.1792 -4.08717 -2.9749e-16)
(18.2369 -4.14613 1.20925e-15)
(19.2126 -4.13263 6.19703e-16)
(20.1236 -4.0626 1.6683e-16)
(20.9873 -3.94003 -9.21918e-17)
(21.8151 -3.7674 9.1146e-16)
(22.6201 -3.53336 0)
(23.3987 -3.22507 0)
(24.1312 -2.8233 2.74127e-17)
(24.7722 -2.34708 0)
(25.2992 -1.84089 3.69868e-16)
(25.7234 -1.32149 -4.16659e-18)
(26.0557 -0.804225 -6.77235e-18)
(26.3032 -0.28775 0)
(26.4689 0.212943 4.42166e-17)
(26.5656 0.698937 -9.69945e-17)
(26.6066 1.169 0)
(26.6045 1.62282 4.54552e-16)
(26.579 2.06006 0)
(26.5344 2.48564 0)
(26.5367 2.90457 5.24238e-17)
(26.415 3.37147 -1.14098e-16)
(26.4344 3.8636 1.70141e-15)
(24.1429 4.25355 1.15863e-15)
(10.9171 19.1505 -1.63315e-17)
(12.1025 20.4494 -1.66499e-17)
(13.5348 21.7221 1.1119e-17)
(15.1924 22.8962 3.29244e-18)
(17.0328 23.8807 0)
(19.063 24.6577 0)
(21.2295 25.182 -6.1466e-16)
(23.4743 25.4173 7.56415e-16)
(25.7519 25.3547 0)
(28.0085 24.9939 -9.54338e-16)
(30.1936 24.3469 -1.23529e-15)
(32.2691 23.4328 -1.17079e-15)
(34.1998 22.2801 1.41574e-15)
(35.9574 20.9235 1.33855e-15)
(37.5251 19.3965 0)
(38.8895 17.7337 2.15347e-15)
(40.0075 15.9869 7.4574e-16)
(40.8615 14.194 6.0714e-15)
(41.4456 12.3793 3.69492e-16)
(41.7722 10.5566 -3.66679e-16)
(41.8481 8.7408 3.13638e-15)
(41.6816 6.96288 -5.16988e-16)
(41.2611 5.28487 2.8289e-15)
(40.6529 3.85731 1.16256e-15)
(39.913 2.78575 -5.37887e-17)
(38.95 1.74081 -7.51732e-16)
(37.5828 0.765596 5.27205e-18)
(36.1379 -0.121683 -5.70499e-18)
(34.7472 -0.952646 -1.44029e-15)
(33.3185 -1.6689 -3.89678e-17)
(31.8506 -2.24231 2.46305e-15)
(30.3838 -2.67397 -4.33388e-15)
(28.8482 -2.91345 -3.57414e-15)
(27.5167 -2.71471 -8.80223e-17)
(27.4462 -2.10853 2.63938e-15)
(26.1704 -1.80705 0)
(11.5992 0.052802 6.67033e-15)
(-0.45277 0.580619 1.61353e-14)
(1.93695 -2.60516 -4.07613e-15)
(9.93141 17.7969 -3.28831e-17)
(9.05595 16.3359 9.6481e-17)
(8.30734 14.618 3.9752e-16)
(7.69769 12.6857 0)
(7.35481 10.6098 -4.50786e-16)
(7.30925 8.44549 0)
(7.58184 6.29225 -2.75723e-15)
(8.14335 4.25002 -1.06259e-16)
(8.98007 2.39266 1.20356e-15)
(10.0478 0.789995 1.04068e-15)
(11.2547 -0.516333 3.31711e-17)
(12.5182 -1.52698 1.73112e-15)
(13.7828 -2.27501 -1.09703e-15)
(15.0104 -2.8011 3.49287e-16)
(16.1766 -3.14528 1.17561e-15)
(17.2711 -3.34699 1.28109e-15)
(18.2933 -3.43979 -1.13583e-15)
(19.2492 -3.44974 9.2458e-18)
(20.1492 -3.39539 0)
(21.0052 -3.28555 1.14374e-15)
(21.8265 -3.12246 5.42115e-17)
(22.6192 -2.90071 -8.24445e-16)
(23.3835 -2.60962 0)
(24.1027 -2.23015 2.75278e-17)
(24.7394 -1.76524 0)
(25.2701 -1.25486 -1.83231e-16)
(25.7001 -0.722344 0)
(26.0393 -0.176628 6.41709e-18)
(26.2941 0.369365 2.32766e-19)
(26.4681 0.906766 -2.81928e-19)
(26.568 1.42264 8.93756e-17)
(26.5988 1.90355 2.72314e-18)
(26.5652 2.34436 0)
(26.4753 2.7424 -2.91271e-16)
(26.327 3.10118 -4.08876e-18)
(26.1481 3.42062 1.69744e-16)
(25.858 3.75968 9.07578e-16)
(25.5641 4.1069 4.11365e-18)
(24.2681 4.21785 0)
(12.4771 17.8319 -2.21726e-17)
(13.4747 18.9829 -8.71589e-18)
(14.6864 20.1321 1.9236e-17)
(16.0798 21.2185 4.74339e-17)
(17.6185 22.159 -2.84259e-17)
(19.3231 22.9498 -1.47402e-16)
(21.1492 23.5505 2.59748e-16)
(23.0517 23.9251 0)
(25.001 24.0628 1.08168e-15)
(26.9521 23.9555 5.17751e-16)
(28.8643 23.6032 0)
(30.704 23.0153 1.12484e-15)
(32.4366 22.2086 -6.02148e-16)
(34.0339 21.2025 1.67654e-15)
(35.475 20.02 0)
(36.7404 18.683 -2.84047e-15)
(37.8232 17.2022 2.72363e-15)
(38.7282 15.5789 -1.70036e-16)
(39.4456 13.8314 0)
(39.9536 11.9933 2.99304e-15)
(40.2273 10.0995 -3.04942e-15)
(40.2352 8.20815 -1.57081e-16)
(39.965 6.39596 -2.40901e-15)
(39.425 4.78176 -2.20666e-15)
(38.8374 3.38312 0)
(38.1669 2.22226 0)
(37.4445 1.21837 -2.36457e-16)
(36.6291 0.27118 -2.64765e-17)
(35.6754 -0.633153 1.65271e-15)
(34.5673 -1.41614 -4.35246e-17)
(33.3006 -2.04706 4.43832e-17)
(31.8664 -2.52 4.47462e-15)
(30.2153 -2.79696 0)
(28.2931 -2.64745 9.24821e-15)
(26.9854 -2.02689 -2.53703e-17)
(27.7591 -1.69185 0)
(20.6726 -0.899657 -2.22867e-17)
(9.89071 -0.793162 0)
(7.1452 -3.46735 5.63645e-15)
(11.6411 16.6386 3.48607e-17)
(10.8957 15.3637 -2.09243e-16)
(10.2381 13.8632 -4.5236e-17)
(9.6754 12.1779 8.96431e-16)
(9.32067 10.3728 -1.41018e-15)
(9.1963 8.48205 -1.82447e-15)
(9.32565 6.57548 2.08873e-15)
(9.70178 4.74124 -2.07086e-15)
(10.3178 3.05264 -9.13012e-16)
(11.14 1.56092 -8.01251e-16)
(12.1044 0.300788 1.53783e-15)
(13.1488 -0.718932 -1.46056e-15)
(14.2276 -1.5173 -6.32134e-16)
(15.305 -2.12158 6.15781e-16)
(16.355 -2.55811 -1.31772e-15)
(17.3628 -2.85699 2.43834e-16)
(18.322 -3.04445 0)
(19.2324 -3.14214 -8.94413e-16)
(20.0989 -3.16588 3.13997e-16)
(20.9289 -3.12441 -1.20271e-15)
(21.7286 -3.02048 0)
(22.5022 -2.85092 7.1791e-16)
(23.2482 -2.60658 5.52029e-16)
(23.9518 -2.27553 -3.91778e-16)
(24.5815 -1.86394 0)
(25.114 -1.40402 -2.20077e-16)
(25.5501 -0.920696 0)
(25.8981 -0.427071 0)
(26.1632 0.0666557 0)
(26.3487 0.549682 -1.60375e-17)
(26.4602 1.01368 0)
(26.5041 1.45828 0)
(26.4851 1.88188 2.91228e-16)
(26.4097 2.28244 2.80806e-16)
(26.2744 2.66143 0)
(26.0915 3.02009 5.83811e-17)
(25.7944 3.39668 9.99444e-17)
(25.3989 3.73751 0)
(24.3121 4.14972 -3.83419e-16)
(13.9579 16.672 2.80769e-17)
(14.8629 17.6902 -1.99903e-17)
(15.9578 18.7126 0)
(17.2125 19.6819 9.67128e-18)
(18.5913 20.5244 -6.49396e-17)
(20.1234 21.2414 1.38201e-16)
(21.7707 21.7944 4.48644e-17)
(23.497 22.1507 -6.51952e-16)
(25.2823 22.2966 -8.87385e-17)
(27.0898 22.2199 1.04121e-15)
(28.8848 21.9148 -3.73677e-16)
(30.6382 21.3831 8.59748e-16)
(32.3168 20.6328 4.32553e-16)
(33.8919 19.6763 3.08053e-16)
(35.339 18.5304 0)
(36.6363 17.2143 -6.12835e-16)
(37.7662 15.7497 -1.3694e-15)
(38.6992 14.1808 -5.07119e-15)
(39.4135 12.5455 1.50155e-15)
(39.8968 10.8673 -1.92249e-15)
(40.1361 9.17064 -3.01352e-16)
(40.1193 7.48673 0)
(39.8401 5.87203 2.14142e-15)
(39.3161 4.40216 1.36841e-16)
(38.6485 3.14817 -5.99512e-17)
(37.9227 2.05667 -8.43798e-16)
(37.1837 1.08138 1.938e-16)
(36.4265 0.176419 4.04398e-16)
(35.6053 -0.666483 -1.51698e-15)
(34.6867 -1.40653 -7.94573e-17)
(33.6564 -2.01866 2.51353e-15)
(32.4944 -2.48656 3.91295e-15)
(31.1476 -2.75603 0)
(29.5624 -2.64048 5.45295e-17)
(27.6434 -2.06586 -2.6132e-15)
(27.7398 -1.55235 0)
(25.2424 -1.33333 -7.86379e-15)
(19.2358 -2.01129 0)
(14.4104 -4.02686 -1.06715e-14)
(13.1916 15.6199 -3.4399e-17)
(12.5048 14.5025 8.45136e-17)
(11.8854 13.1831 -2.06683e-16)
(11.3413 11.6978 0)
(10.9713 10.1085 5.95527e-16)
(10.7915 8.43718 2.96422e-15)
(10.8228 6.73358 0)
(11.0673 5.07874 -1.4979e-15)
(11.5206 3.54217 -1.42016e-15)
(12.1561 2.1607 1.41342e-15)
(12.9282 0.963423 -5.57721e-17)
(13.7902 -0.0352473 6.08177e-16)
(14.7067 -0.845102 3.5149e-17)
(15.6473 -1.48334 1.57739e-15)
(16.5871 -1.96638 1.40019e-15)
(17.51 -2.31609 -1.30654e-15)
(18.4064 -2.55267 1.81535e-16)
(19.2714 -2.69414 -3.36631e-16)
(20.1052 -2.75464 1.55359e-16)
(20.9107 -2.74339 8.89419e-16)
(21.691 -2.66443 1.14282e-16)
(22.4475 -2.51671 -7.9222e-17)
(23.1776 -2.29405 -4.669e-16)
(23.8674 -1.98824 0)
(24.49 -1.60351 1.68426e-17)
(25.0231 -1.16534 4.18054e-16)
(25.4639 -0.69683 -1.65433e-18)
(25.8186 -0.210576 1.65662e-18)
(26.0913 0.283743 0)
(26.2848 0.775534 1.51436e-17)
(26.4043 1.25619 0)
(26.4553 1.71525 0)
(26.4422 2.14475 -2.72611e-16)
(26.3718 2.5406 -2.02027e-16)
(26.2416 2.90452 0)
(26.0636 3.23357 -5.51578e-17)
(25.7733 3.57054 -1.2087e-15)
(25.3969 3.85729 8.63011e-18)
(24.3553 4.09745 6.17373e-16)
(15.1602 15.6903 1.52235e-18)
(15.973 16.6038 -1.84974e-17)
(16.9558 17.5282 1.98098e-17)
(18.0768 18.4103 -1.9207e-17)
(19.3002 19.1839 4.7516e-17)
(20.6603 19.8563 0)
(22.1224 20.394 -2.78494e-16)
(23.6559 20.7673 2.34744e-18)
(25.2488 20.9648 -3.08268e-16)
(26.8698 20.9736 -6.28357e-16)
(28.4912 20.7856 0)
(30.0891 20.3988 -1.55696e-15)
(31.6335 19.8162 -1.35353e-15)
(33.0974 19.0451 -3.31506e-15)
(34.4562 18.0976 0)
(35.6865 16.9892 -2.07228e-15)
(36.7662 15.74 -2.18943e-15)
(37.6798 14.3633 2.39556e-15)
(38.4158 12.8693 -2.3651e-15)
(38.9562 11.2819 2.19769e-15)
(39.2822 9.63208 2.72021e-16)
(39.3738 7.96711 -2.35156e-15)
(39.2197 6.3499 0)
(38.834 4.85964 -2.03197e-15)
(38.2778 3.55562 1.19603e-16)
(37.6299 2.41195 8.80394e-16)
(36.9311 1.38769 0)
(36.187 0.44869 -2.99691e-17)
(35.3753 -0.418774 6.3996e-17)
(34.4809 -1.18527 2.44561e-15)
(33.5034 -1.82401 -2.21244e-15)
(32.4483 -2.31539 -3.6563e-15)
(31.2942 -2.6101 2.82871e-15)
(30.1235 -2.54622 2.41817e-17)
(28.6206 -2.0903 2.43063e-15)
(27.9407 -1.51228 3.33251e-15)
(26.9603 -1.4758 3.66482e-15)
(24.3561 -2.62444 -7.62034e-17)
(19.8636 -4.20906 7.60207e-17)
(14.4664 14.7484 1.38335e-17)
(13.8414 13.754 1.59459e-16)
(13.2654 12.5777 2.08249e-16)
(12.7467 11.2525 -4.04392e-16)
(12.3736 9.83749 -1.57853e-15)
(12.1585 8.34388 5.07469e-16)
(12.1223 6.80875 1.22461e-15)
(12.2719 5.30893 3.04978e-15)
(12.6036 3.90831 1.21372e-15)
(13.0968 2.63247 -1.13324e-15)
(13.7173 1.50612 -3.32286e-17)
(14.4291 0.544734 -5.36898e-16)
(15.2054 -0.257496 0)
(16.0212 -0.911731 -2.44557e-17)
(16.8547 -1.42802 -8.6043e-16)
(17.6907 -1.82188 3.72012e-16)
(18.5183 -2.10803 -3.65633e-16)
(19.3299 -2.30016 0)
(20.1223 -2.40954 5.43353e-16)
(20.8951 -2.44418 -9.35028e-16)
(21.6487 -2.40768 0)
(22.3823 -2.29973 6.67422e-16)
(23.0921 -2.11601 0)
(23.7651 -1.85116 -2.30969e-17)
(24.3778 -1.50914 2.30573e-17)
(24.9088 -1.11087 -2.08619e-16)
(25.3527 -0.678196 -4.04074e-18)
(25.7133 -0.224782 -1.83851e-18)
(25.9939 0.238652 1.11222e-19)
(26.1967 0.700872 -7.53829e-19)
(26.3263 1.15144 2.65407e-17)
(26.3876 1.58368 -8.15862e-17)
(26.3847 1.99423 -3.07774e-18)
(26.3239 2.38063 3.32009e-17)
(26.2024 2.74391 0)
(26.0308 3.08236 2.62713e-18)
(25.7469 3.42875 6.00983e-16)
(25.3916 3.71617 -1.04536e-17)
(24.3965 4.01877 1.21057e-15)
(16.2133 14.8261 5.27797e-18)
(16.958 15.6497 2.8411e-17)
(17.857 16.4867 0)
(18.8785 17.2868 -2.413e-17)
(19.9865 17.9904 2.41219e-18)
(21.2179 18.6081 0)
(22.5412 19.1092 -1.01799e-16)
(23.93 19.4673 8.3926e-16)
(25.3776 19.672 -1.19439e-15)
(26.8583 19.7099 3.79423e-16)
(28.3495 19.5713 5.34383e-16)
(29.8322 19.2511 1.96882e-15)
(31.2804 18.7477 1.4223e-15)
(32.6698 18.063 1.71451e-15)
(33.9763 17.2034 4.56864e-16)
(35.1761 16.1792 1.52034e-15)
(36.2471 15.004 2.0944e-15)
(37.1688 13.6953 2.03879e-15)
(37.9165 12.2843 -1.5051e-15)
(38.4702 10.7991 -4.63008e-15)
(38.8124 9.26882 0)
(38.93 7.72917 9.15908e-17)
(38.8172 6.22949 1.82676e-15)
(38.488 4.83194 1.92141e-15)
(37.993 3.58317 -1.0928e-16)
(37.3982 2.47552 -7.89634e-16)
(36.7395 1.47713 5.6278e-18)
(36.0212 0.559458 -3.98755e-16)
(35.2245 -0.290124 4.20738e-17)
(34.3377 -1.04455 -4.55906e-15)
(33.3614 -1.6753 -9.67443e-18)
(32.3097 -2.15946 -5.85763e-17)
(31.1872 -2.45401 -2.69669e-15)
(30.1354 -2.41328 2.03781e-17)
(29.1201 -2.04838 -2.39275e-15)
(28.4248 -1.51803 -6.42987e-15)
(27.6602 -1.52939 3.40318e-15)
(26.4135 -2.82815 4.76054e-15)
(22.3467 -4.3222 -8.14528e-15)
(15.5729 13.9783 -5.87903e-17)
(14.9941 13.087 -2.14844e-16)
(14.4518 12.0305 -1.5158e-16)
(13.9546 10.8379 -3.84544e-16)
(13.583 9.56669 8.75149e-16)
(13.3444 8.22026 -6.19268e-17)
(13.2611 6.82762 -3.01241e-15)
(13.3413 5.46241 -1.03492e-15)
(13.5809 4.18179 2.01909e-17)
(13.9644 3.00388 0)
(14.4646 1.94999 -9.57604e-16)
(15.0532 1.03496 8.88578e-16)
(15.7098 0.254634 -8.51703e-16)
(16.4147 -0.398529 -4.34787e-16)
(17.1496 -0.930139 3.59261e-16)
(17.9016 -1.35091 3.57757e-16)
(18.6597 -1.67068 1.27125e-15)
(19.4153 -1.89895 -3.00244e-16)
(20.1633 -2.0441 -5.04828e-16)
(20.9006 -2.11261 0)
(21.6252 -2.10761 -7.54373e-16)
(22.3345 -2.02931 -5.51273e-16)
(23.0234 -1.87473 -1.29294e-17)
(23.6795 -1.64061 -5.77598e-17)
(24.2814 -1.33056 -1.7093e-17)
(24.8089 -0.961406 2.54958e-16)
(25.2546 -0.553129 -3.99958e-18)
(25.6199 -0.119502 3.01304e-17)
(25.907 0.328773 3.63326e-18)
(26.1177 0.780638 3.80703e-19)
(26.2556 1.22612 -1.30503e-17)
(26.3251 1.65725 1.40641e-16)
(26.3298 2.06644 1.30617e-16)
(26.2757 2.44922 1.48045e-16)
(26.1603 2.80564 1.84942e-18)
(25.992 3.13171 -2.90034e-19)
(25.7148 3.45878 -7.5475e-16)
(25.365 3.7126 -1.70319e-15)
(24.4343 3.95646 -2.04753e-15)
(17.1234 14.0626 -1.63349e-17)
(17.8093 14.8099 -1.13398e-17)
(18.636 15.572 -4.08854e-17)
(19.5717 16.3023 8.67469e-17)
(20.5804 16.9454 1.00973e-17)
(21.6998 17.5153 -9.9406e-17)
(22.9011 17.9843 3.74421e-16)
(24.1602 18.3286 0)
(25.4745 18.5404 3.62254e-16)
(26.8221 18.607 1.37583e-17)
(28.1845 18.5186 -4.55331e-16)
(29.5473 18.2692 -1.80914e-15)
(30.8881 17.8549 -7.44934e-16)
(32.185 17.2748 0)
(33.4162 16.5321 0)
(34.5583 15.6337 0)
(35.5889 14.591 0)
(36.486 13.4202 -1.96294e-15)
(37.2305 12.1353 1.96823e-15)
(37.802 10.7568 1.93314e-15)
(38.1816 9.31194 -1.55804e-15)
(38.3541 7.83912 1.3759e-15)
(38.3113 6.38841 -1.42249e-15)
(38.0617 5.01897 -1.04325e-16)
(37.6441 3.77767 -4.71721e-17)
(37.1144 2.66546 7.94515e-16)
(36.5077 1.65759 1.70482e-16)
(35.8314 0.732295 0)
(35.072 -0.119664 0)
(34.2188 -0.875701 3.88657e-17)
(33.2684 -1.50978 0)
(32.231 -1.99664 3.13989e-15)
(31.118 -2.29613 -2.56294e-15)
(30.0479 -2.28005 -3.45567e-15)
(29.1889 -1.97044 4.57163e-15)
(28.7617 -1.51166 3.14687e-15)
(28.1253 -1.56512 -3.27228e-15)
(27.2674 -2.8416 -8.5748e-15)
(23.5952 -4.2843 6.17799e-15)
(16.5298 13.2942 0)
(15.9912 12.4892 6.03177e-17)
(15.4796 11.5326 2.8812e-16)
(15.0037 10.4512 -1.23746e-15)
(14.6372 9.30067 1.08505e-15)
(14.384 8.07834 -8.36986e-16)
(14.2672 6.80781 1.32805e-17)
(14.2958 5.55967 7.93299e-16)
(14.4653 4.38523 8.31525e-16)
(14.7635 3.29748 0)
(15.168 2.31455 3.93919e-16)
(15.6559 1.45021 -1.20229e-15)
(16.2113 0.700621 1.89178e-15)
(16.8189 0.0600898 3.41707e-16)
(17.464 -0.474721 -6.93506e-16)
(18.1361 -0.911043 -6.41889e-16)
(18.8253 -1.25518 -5.8617e-16)
(19.523 -1.51326 0)
(20.2233 -1.69087 0)
(20.9213 -1.79258 0)
(21.6132 -1.82066 7.0468e-16)
(22.295 -1.77518 0)
(22.9604 -1.65388 -4.42154e-16)
(23.5976 -1.45481 -5.57598e-17)
(24.1867 -1.18126 -3.17702e-16)
(24.7085 -0.847019 -2.2379e-16)
(25.1541 -0.470087 0)
(25.5229 -0.0643094 -2.46418e-17)
(25.816 0.35934 -3.86379e-18)
(26.0343 0.789651 6.48902e-19)
(26.181 1.21608 -1.05002e-17)
(26.2595 1.63012 -2.21968e-17)
(26.2732 2.02585 -1.27071e-16)
(26.2274 2.39933 7.42881e-17)
(26.1198 2.75023 0)
(25.9564 3.07433 -3.76439e-18)
(25.6876 3.39704 -8.07998e-17)
(25.3401 3.64337 1.62813e-15)
(24.4721 3.87145 -1.53992e-17)
(17.9235 13.3787 1.7996e-17)
(18.5603 14.0597 0)
(19.3267 14.7558 9.21699e-17)
(20.1907 15.4235 -5.94933e-17)
(21.1172 16.0113 -1.23793e-17)
(22.1438 16.5352 9.28949e-17)
(23.2432 16.9697 -1.63543e-16)
(24.3935 17.2941 -2.08996e-16)
(25.5951 17.5018 0)
(26.8288 17.5813 -3.91183e-16)
(28.08 17.5229 -4.24657e-16)
(29.3376 17.3202 4.21044e-16)
(30.5825 16.9677 1.60081e-15)
(31.7964 16.4619 6.51213e-16)
(32.9595 15.8026 -1.97669e-15)
(34.0495 14.9937 -1.43538e-15)
(35.0447 14.0427 1.13639e-15)
(35.9238 12.9611 8.45393e-16)
(36.6651 11.7654 -4.27693e-16)
(37.2455 10.4793 4.29045e-16)
(37.6454 9.12968 1.09409e-15)
(37.851 7.75055 2.03591e-16)
(37.8554 6.38472 -1.91598e-16)
(37.6645 5.08181 -1.27663e-15)
(37.3085 3.88262 0)
(36.8333 2.79349 -6.68246e-16)
(36.2711 1.79896 -3.183e-16)
(35.6321 0.883606 -2.925e-16)
(34.9079 0.0410201 -1.0775e-15)
(34.0909 -0.709535 3.99537e-15)
(33.177 -1.34305 1.60852e-15)
(32.1736 -1.83166 1.16287e-17)
(31.0939 -2.13624 1.79323e-17)
(30.0269 -2.14872 0)
(29.1421 -1.88492 -2.22344e-15)
(28.836 -1.48259 0)
(28.4221 -1.5853 0)
(27.7173 -2.77436 3.89958e-15)
(24.3525 -4.08873 -5.43666e-17)
(17.3692 12.6787 -6.01493e-17)
(16.8651 11.9471 1.98804e-16)
(16.3805 11.0762 1.36775e-17)
(15.9242 10.0903 2.75755e-16)
(15.5646 9.04255 -9.77359e-16)
(15.3031 7.92616 6.91329e-16)
(15.1621 6.7614 2.9192e-17)
(15.152 5.61588 -6.58234e-16)
(15.2678 4.53548 -6.41173e-16)
(15.4991 3.52971 -6.80564e-16)
(15.8271 2.61439 -1.33943e-15)
(16.2326 1.80193 0)
(16.7029 1.08812 -6.81538e-16)
(17.2261 0.468024 -2.39282e-17)
(17.7907 -0.0602316 0)
(18.3884 -0.501933 -5.65512e-16)
(19.0111 -0.860652 -2.6908e-16)
(19.651 -1.13992 -2.51848e-16)
(20.3019 -1.34294 8.60632e-16)
(20.9583 -1.47227 7.62708e-16)
(21.6152 -1.52888 -7.77535e-17)
(22.2673 -1.51249 5.79164e-16)
(22.9077 -1.42118 1.09922e-16)
(23.5246 -1.25362 -5.36563e-17)
(24.0995 -1.01279 2.81587e-16)
(24.6139 -0.710018 1.69784e-17)
(25.0578 -0.361148 0)
(25.4287 0.0203024 0)
(25.7265 0.423303 -8.17437e-19)
(25.9515 0.836769 1.47929e-18)
(26.1061 1.25005 -1.44241e-17)
(26.1929 1.65462 -2.16528e-17)
(26.2147 2.04292 -4.97818e-17)
(26.1765 2.4099 -7.1128e-17)
(26.076 2.75422 1.00384e-18)
(25.9177 3.07052 3.27066e-18)
(25.6571 3.38001 1.58337e-15)
(25.3139 3.60806 -1.64493e-15)
(24.5106 3.80059 1.5803e-17)
(18.6301 12.7611 6.97881e-18)
(19.2243 13.3842 0)
(19.9384 14.0222 -4.98847e-17)
(20.7408 14.6341 0)
(21.5963 15.1726 -4.12796e-17)
(22.5425 15.6542 3.99044e-17)
(23.5535 16.0562 1.21523e-16)
(24.6091 16.3601 1.96469e-16)
(25.711 16.5605 0)
(26.8427 16.6475 -2.51545e-16)
(27.9924 16.6123 4.34572e-16)
(29.152 16.4482 -8.96668e-16)
(30.3052 16.1492 -5.0559e-16)
(31.4364 15.7108 -5.17638e-16)
(32.5281 15.1307 1.25735e-15)
(33.5602 14.4104 1.36826e-15)
(34.512 13.5549 -1.47372e-15)
(35.3624 12.5737 -1.46996e-15)
(36.0902 11.4797 0)
(36.6735 10.2902 3.92537e-16)
(37.092 9.02916 -7.60889e-16)
(37.3315 7.72879 1.87839e-16)
(37.384 6.42942 4.46644e-18)
(37.2521 5.17669 3.00281e-15)
(36.9578 4.00869 -1.64011e-16)
(36.5386 2.93601 9.9806e-17)
(36.0233 1.95018 2.93462e-16)
(35.4233 1.04072 3.09355e-16)
(34.7345 0.203956 9.24163e-16)
(33.953 -0.542901 -1.82965e-15)
(33.0752 -1.17598 -1.46763e-15)
(32.1101 -1.66614 -5.51018e-15)
(31.073 -1.97604 4.40105e-15)
(30.0453 -2.01603 -5.71715e-17)
(29.1358 -1.79969 2.22605e-15)
(28.7857 -1.44258 -7.53807e-17)
(28.5164 -1.58333 4.56762e-17)
(27.9187 -2.66277 -3.82897e-17)
(24.8934 -3.81223 3.38527e-15)
(18.1103 12.1206 3.02472e-17)
(17.6367 11.4524 -1.01256e-16)
(17.1763 10.6558 1.97033e-16)
(16.7383 9.75257 0)
(16.3865 8.79378 5.59028e-16)
(16.1212 7.76891 0)
(15.9633 6.69691 0)
(15.9238 5.64175 0)
(15.998 4.64492 1.18413e-15)
(16.1765 3.71353 -5.79934e-16)
(16.443 2.86158 6.56483e-16)
(16.7809 2.1003 0)
(17.1799 1.42483 0)
(17.6304 0.830275 -5.82764e-16)
(18.1235 0.315427 0)
(18.653 -0.123742 5.24439e-16)
(19.2128 -0.489396 1.16471e-17)
(19.7961 -0.782995 0)
(20.3973 -1.0057 -6.1272e-16)
(21.0105 -1.15842 -9.00412e-16)
(21.6303 -1.24095 -6.2136e-16)
(22.2507 -1.25232 -5.32485e-16)
(22.8643 -1.19041 8.9926e-16)
(23.4595 -1.05413 0)
(24.0184 -0.846132 2.87769e-16)
(24.5235 -0.575578 2.55332e-16)
(24.9639 -0.256382 8.98426e-17)
(25.3355 0.0984923 0)
(25.6371 0.478033 -5.31902e-18)
(25.8682 0.871237 -2.50004e-17)
(26.0302 1.2674 3.5726e-17)
(26.1253 1.65747 -2.07557e-17)
(26.1556 2.03405 4.56324e-17)
(26.1254 2.39195 -6.2728e-18)
(26.0323 2.72916 -1.81348e-18)
(25.88 3.03981 1.67695e-18)
(25.6275 3.34006 -1.64418e-15)
(25.2903 3.55793 1.52442e-15)
(24.5491 3.72419 4.95395e-15)
(19.2588 12.199 3.75486e-18)
(19.8159 12.7709 -2.08171e-17)
(20.4844 13.3572 0)
(21.233 13.9191 -3.94823e-17)
(22.0272 14.4127 0)
(22.904 14.8552 0)
(23.8383 15.226 1.98388e-17)
(24.8113 15.5083 1.7217e-16)
(25.8261 15.6983 4.05494e-16)
(26.8679 15.7868 1.06444e-15)
(27.9271 15.7665 6.12531e-16)
(28.9979 15.6308 7.17081e-16)
(30.0666 15.3736 0)
(31.1202 14.9892 1.42677e-15)
(32.1437 14.4742 -5.07208e-16)
(33.1187 13.8281 0)
(34.0263 13.0535 1.22147e-15)
(34.8463 12.1572 1.4033e-15)
(35.5581 11.1497 0)
(36.1395 10.047 1.38635e-15)
(36.5698 8.87207 -1.35761e-15)
(36.8348 7.65395 0)
(36.9264 6.42838 -1.6127e-16)
(36.8445 5.23536 2.95392e-17)
(36.6051 4.10903 7.70281e-17)
(36.2382 3.06228 1.14953e-15)
(35.7686 2.09223 -3.97224e-18)
(35.2077 1.19348 -3.02588e-17)
(34.5551 0.365676 -2.49083e-17)
(33.8091 -0.375134 5.54526e-17)
(32.9671 -1.00615 1.46628e-15)
(32.0393 -1.49745 4.95197e-15)
(31.0437 -1.81388 5.23858e-17)
(30.0618 -1.87991 -3.00657e-15)
(29.1693 -1.71176 -2.03641e-15)
(28.7378 -1.39979 -3.0801e-15)
(28.4811 -1.56194 -2.85703e-15)
(27.9155 -2.52251 8.01537e-17)
(25.2609 -3.51735 -3.03555e-15)
(18.7693 11.6109 -6.65572e-17)
(18.3225 10.9985 -2.40995e-16)
(17.8842 10.2669 4.72797e-16)
(17.4636 9.43625 0)
(17.1203 8.55487 8.8537e-16)
(16.8543 7.61023 0)
(16.6848 6.62021 -4.6689e-16)
(16.6229 5.64511 1.86838e-15)
(16.6647 4.72282 -1.43844e-15)
(16.8011 3.85904 0)
(17.0179 3.06602 1.05626e-15)
(17.3002 2.35393 1.01618e-15)
(17.6393 1.71738 0)
(18.0275 1.15145 -9.93928e-16)
(18.4577 0.654977 2.38867e-16)
(18.9256 0.224286 -2.39222e-16)
(19.4267 -0.141801 2.31605e-16)
(19.9556 -0.443422 4.03787e-16)
(20.5075 -0.68026 -1.62779e-17)
(21.077 -0.851744 4.82055e-16)
(21.6584 -0.956483 1.39457e-16)
(22.2455 -0.992716 -1.35042e-16)
(22.8308 -0.958021 -4.25399e-16)
(23.4029 -0.851112 3.60609e-16)
(23.9446 -0.67405 -2.53657e-16)
(24.4386 -0.43429 -2.5758e-16)
(24.8738 -0.143807 -8.46916e-17)
(25.2447 0.185221 -8.40103e-19)
(25.5488 0.541965 5.87397e-18)
(25.785 0.915675 2.36386e-17)
(25.9539 1.29566 1.08539e-17)
(26.0567 1.67274 -1.99615e-17)
(26.095 2.03893 2.54993e-17)
(26.0726 2.38829 6.80868e-18)
(25.987 2.71792 2.36972e-18)
(25.8408 3.02111 -2.44757e-16)
(25.597 3.30976 8.18073e-16)
(25.2677 3.51427 0)
(24.5855 3.65174 -4.693e-15)
(19.821 11.6845 1.1372e-17)
(20.3451 12.2109 0)
(20.9731 12.7508 0)
(21.6744 13.2677 5.23753e-17)
(22.4147 13.7208 -2.01384e-17)
(23.2303 14.1274 0)
(24.0972 14.4687 0)
(24.9975 14.7297 -5.49948e-16)
(25.9352 14.9077 -2.99844e-17)
(26.8969 14.9948 -3.72739e-17)
(27.8746 14.9844 -1.41421e-15)
(28.8644 14.8705 -3.77381e-16)
(29.8547 14.6472 7.21081e-16)
(30.8348 14.3087 -6.40823e-17)
(31.7919 13.8506 0)
(32.7098 13.271 0)
(33.5713 12.571 -3.33622e-15)
(34.3574 11.7549 -6.17311e-16)
(35.0481 10.8317 6.33285e-16)
(35.6225 9.8137 -1.34172e-15)
(36.0601 8.72098 2.54914e-15)
(36.3461 7.58008 1.20711e-15)
(36.472 6.42342 -1.16878e-15)
(36.4354 5.28712 -1.32036e-15)
(36.2468 4.20234 2.08903e-16)
(35.93 3.18303 -1.12554e-15)
(35.5055 2.23072 -1.2659e-16)
(34.9846 1.34463 2.79466e-17)
(34.3691 0.527266 -2.79847e-17)
(33.6597 -0.20613 9.15489e-17)
(32.8544 -0.834072 -3.83277e-17)
(31.964 -1.32632 -2.428e-15)
(31.0085 -1.65008 -7.13092e-17)
(30.0667 -1.74096 5.03428e-17)
(29.2076 -1.61852 0)
(28.7236 -1.35427 2.92399e-15)
(28.4155 -1.52717 2.72682e-15)
(27.802 -2.36681 0)
(25.4773 -3.22125 0)
(19.3586 11.143 0)
(18.9356 10.5799 2.14487e-16)
(18.5178 9.90579 -7.02737e-16)
(18.1139 9.13908 -3.36101e-16)
(17.7797 8.32595 -7.99737e-16)
(17.5151 7.4523 0)
(17.3379 6.53527 0)
(17.2592 5.63164 -8.33432e-16)
(17.2754 4.77637 8.66294e-16)
(17.3782 3.97395 0)
(17.5545 3.23534 -4.44403e-16)
(17.7909 2.56995 -4.77466e-16)
(18.0798 1.97207 4.49557e-16)
(18.4146 1.43629 4.64245e-16)
(18.7898 0.961239 -8.59933e-16)
(19.2024 0.543487 0)
(19.6494 0.182175 -1.91985e-16)
(20.1268 -0.122079 1.31019e-17)
(20.6307 -0.368024 8.45354e-16)
(21.1566 -0.553953 -1.53827e-16)
(21.6989 -0.677382 1.47498e-16)
(22.2516 -0.735804 -1.11014e-16)
(22.8075 -0.726322 1.56813e-16)
(23.3551 -0.647269 -7.31258e-16)
(23.878 -0.499935 -2.54844e-16)
(24.3593 -0.290213 2.12402e-16)
(24.7876 -0.0283542 -1.2764e-17)
(25.1562 0.274416 0)
(25.4617 0.607599 -6.15815e-18)
(25.7021 0.960709 3.17269e-17)
(25.8771 1.32317 -2.98186e-17)
(25.9873 1.68559 2.95292e-17)
(26.0335 2.03973 -8.26387e-17)
(26.0189 2.37929 1.04714e-16)