/*--------------------------------*- C++ -*----------------------------------*\
| =========                 |                                                 |
| \\      /  F ield         | OpenFOAM: The Open Source CFD Toolbox           |
|  \\    /   O peration     | Version:  2312                                  |
|   \\  /    A nd           | Website:  www.openfoam.com                      |
|    \\/     M anipulation  |                                                 |
\*---------------------------------------------------------------------------*/
FoamFile
{
    version     2.0;
    format      ascii;
    arch        "LSB;label=32;scalar=64";
    class       volScalarField;
    location    "98.245760524137012";
    object      p;
}
// * * * * * * * * * * * * * * * * * * * * * * * * * * * * * * * * * * * * * //

dimensions      [0 2 -2 0 0 0 0];

internalField   nonuniform List<scalar> 
21039
(
0.594298
0.460473
0.418303
0.390064
0.368759
0.352701
0.340292
0.330429
0.322432
0.315848
0.310364
0.305749
0.301832
0.298483
0.295601
0.293102
0.290921
0.289002
0.287298
0.285769
0.28438
0.283101
0.281904
0.280826
0.279894
0.279066
0.278305
0.27758
0.276877
0.447184
0.409317
0.395495
0.377135
0.360384
0.347117
0.336394
0.327579
0.320281
0.314188
0.309059
0.304709
0.300995
0.297806
0.295051
0.292657
0.290562
0.288717
0.287076
0.285601
0.284258
0.283018
0.281853
0.280796
0.279873
0.279048
0.278288
0.277563
0.276861
0.357712
0.35532
0.357488
0.350754
0.342323
0.334545
0.327316
0.320816
0.31512
0.310169
0.305875
0.302154
0.298924
0.296117
0.293669
0.291527
0.289645
0.28798
0.286495
0.285156
0.283934
0.2828
0.281729
0.280747
0.279877
0.279092
0.278362
0.277661
0.27698
0.319551
0.321668
0.326145
0.325073
0.322466
0.319262
0.315481
0.311589
0.307854
0.304381
0.301213
0.298364
0.295823
0.293568
0.291573
0.289809
0.288246
0.286857
0.285615
0.284493
0.283465
0.282508
0.281598
0.280752
0.27999
0.279289
0.278626
0.277977
0.277336
0.294452
0.298422
0.304316
0.306034
0.306248
0.305537
0.304023
0.302119
0.300048
0.297935
0.295877
0.293935
0.29214
0.290505
0.289031
0.287712
0.286536
0.285488
0.28455
0.283703
0.282929
0.282206
0.281516
0.280862
0.280252
0.279671
0.279102
0.278527
0.277941
0.274714
0.279972
0.287322
0.291193
0.293212
0.294037
0.293989
0.293446
0.292594
0.291557
0.290438
0.289307
0.288214
0.287187
0.286245
0.285395
0.284636
0.283965
0.283373
0.282846
0.282371
0.281931
0.28151
0.281093
0.280674
0.280245
0.279796
0.279314
0.278798
0.261828
0.266853
0.273943
0.278887
0.282118
0.284077
0.285119
0.285587
0.285661
0.285471
0.285122
0.284688
0.284221
0.28376
0.283329
0.282945
0.282616
0.282343
0.282123
0.28195
0.281813
0.281698
0.281592
0.281458
0.28127
0.281026
0.280725
0.280359
0.27993
0.254397
0.2585
0.264232
0.269173
0.272885
0.275484
0.277251
0.278451
0.279234
0.279719
0.280006
0.280165
0.280251
0.280305
0.280356
0.280425
0.280523
0.280657
0.280829
0.281036
0.281269
0.281519
0.281773
0.281968
0.282053
0.282031
0.281909
0.281683
0.28136
0.249726
0.252929
0.257285
0.261764
0.265462
0.268275
0.270412
0.272067
0.273347
0.274344
0.275139
0.275794
0.27636
0.276876
0.277372
0.277871
0.278388
0.278931
0.279506
0.280112
0.280745
0.281394
0.282051
0.282623
0.283025
0.283265
0.283355
0.283298
0.283103
0.246162
0.248614
0.251928
0.255872
0.259373
0.262192
0.264485
0.266393
0.267994
0.269357
0.270541
0.271598
0.272571
0.273494
0.274396
0.275299
0.276219
0.277167
0.27815
0.279169
0.280223
0.281304
0.282406
0.2834
0.284162
0.284704
0.285053
0.285199
0.28516
0.243008
0.244857
0.247422
0.250852
0.254108
0.256865
0.259217
0.261267
0.263076
0.264698
0.266179
0.267558
0.268871
0.270148
0.271415
0.272693
0.273998
0.275341
0.27673
0.278171
0.279664
0.281205
0.28279
0.284252
0.285427
0.286315
0.286939
0.287311
0.287457
0.239958
0.241357
0.243393
0.246356
0.249355
0.252018
0.254379
0.256508
0.258457
0.260267
0.261976
0.263614
0.265213
0.266799
0.268393
0.270016
0.271684
0.273408
0.275199
0.277064
0.279005
0.281024
0.283121
0.285095
0.286725
0.288004
0.288953
0.289582
0.289915
0.236862
0.237945
0.239612
0.242171
0.244923
0.247476
0.24981
0.251975
0.254014
0.255962
0.257846
0.259695
0.261533
0.263385
0.265271
0.26721
0.269217
0.271307
0.273489
0.275771
0.278161
0.280663
0.283287
0.2858
0.287923
0.289638
0.290962
0.2919
0.29247
0.23366
0.234524
0.235925
0.238146
0.240668
0.243103
0.24539
0.247561
0.249653
0.251695
0.253712
0.255727
0.257764
0.259843
0.261986
0.264211
0.266535
0.268971
0.27153
0.274218
0.277043
0.280013
0.283149
0.286189
0.288807
0.290975
0.292703
0.293984
0.294827
0.230344
0.231053
0.232243
0.234166
0.236466
0.238778
0.241005
0.243161
0.245276
0.247378
0.249489
0.251631
0.253825
0.256094
0.258459
0.26094
0.263556
0.266319
0.269238
0.272316
0.275554
0.278957
0.282546
0.286033
0.289067
0.291633
0.293742
0.295371
0.296514
0.227203
0.2278
0.228823
0.230521
0.23264
0.234836
0.236998
0.239126
0.241246
0.24338
0.24555
0.247778
0.250088
0.252502
0.255047
0.257746
0.260618
0.263675
0.266923
0.270358
0.273966
0.277726
0.281629
0.285326
0.288468
0.291107
0.293319
0.295116
0.296482
0.224558
0.225081
0.226
0.227554
0.229537
0.231632
0.233737
0.235844
0.237965
0.240121
0.242333
0.244624
0.247021
0.249552
0.252246
0.255131
0.258227
0.261549
0.2651
0.268868
0.272822
0.276897
0.28101
0.28467
0.287474
0.289544
0.291111
0.292409
0.293648
0.22238
0.222855
0.223701
0.22515
0.227028
0.229054
0.231135
0.233243
0.235379
0.237558
0.239808
0.242157
0.244634
0.247272
0.250105
0.253164
0.256475
0.260056
0.263913
0.268033
0.272368
0.276813
0.281193
0.284786
0.286954
0.287681
0.287195
0.285974
0.285107
0.220635
0.221159
0.222023
0.22337
0.225076
0.226988
0.229048
0.231182
0.233352
0.235569
0.237866
0.24028
0.242843
0.245594
0.24857
0.251806
0.255337
0.259189
0.263375
0.267886
0.272677
0.277629
0.282513
0.28638
0.288185
0.287388
0.28361
0.276236
0.264895
0.276189
0.275498
0.274813
0.274134
0.273459
0.272788
0.272119
0.271452
0.270785
0.270119
0.269451
0.268781
0.268108
0.267432
0.266752
0.266067
0.265376
0.26468
0.263977
0.263267
0.262551
0.261827
0.261096
0.260358
0.259613
0.25886
0.258101
0.257335
0.256564
0.255786
0.255003
0.254214
0.253422
0.252626
0.251827
0.251026
0.250224
0.249421
0.248619
0.247819
0.24702
0.246225
0.245434
0.244648
0.243868
0.243096
0.242331
0.241574
0.240826
0.276177
0.275495
0.274821
0.274153
0.273488
0.272828
0.272169
0.271512
0.270855
0.270198
0.269539
0.268878
0.268214
0.267546
0.266873
0.266194
0.265509
0.264817
0.264118
0.263412
0.262698
0.261976
0.261245
0.260507
0.25976
0.259006
0.258243
0.257474
0.256697
0.255914
0.255125
0.25433
0.25353
0.252727
0.25192
0.25111
0.250298
0.249486
0.248673
0.247862
0.247052
0.246246
0.245443
0.244646
0.243854
0.243069
0.242292
0.241524
0.240765
0.276319
0.275663
0.275014
0.27437
0.27373
0.273092
0.272455
0.271819
0.271181
0.270542
0.2699
0.269254
0.268603
0.267946
0.267283
0.266612
0.265933
0.265246
0.264549
0.263843
0.263127
0.262401
0.261666
0.26092
0.260164
0.259399
0.258624
0.257841
0.257048
0.256248
0.25544
0.254626
0.253805
0.252979
0.252149
0.251315
0.250478
0.24964
0.248801
0.247962
0.247124
0.246289
0.245457
0.244629
0.243807
0.242992
0.242184
0.241384
0.240594
0.276713
0.276097
0.275485
0.274876
0.274269
0.273662
0.273054
0.272445
0.271832
0.271216
0.270593
0.269965
0.269328
0.268684
0.268029
0.267365
0.26669
0.266003
0.265304
0.264593
0.26387
0.263134
0.262385
0.261624
0.26085
0.260064
0.259267
0.258458
0.257639
0.256809
0.25597
0.255123
0.254267
0.253405
0.252537
0.251663
0.250785
0.249905
0.249022
0.248139
0.247256
0.246374
0.245494
0.244618
0.243747
0.242881
0.242022
0.241171
0.240329
0.277369
0.276806
0.276242
0.275678
0.275112
0.274545
0.273973
0.273397
0.272814
0.272223
0.271623
0.271013
0.270392
0.269759
0.269113
0.268453
0.267779
0.267089
0.266384
0.265663
0.264926
0.264172
0.263403
0.262618
0.261818
0.261002
0.260171
0.259327
0.258469
0.257598
0.256716
0.255822
0.254918
0.254006
0.253085
0.252157
0.251224
0.250286
0.249344
0.2484
0.247455
0.24651
0.245567
0.244625
0.243687
0.242754
0.241826
0.240905
0.239992
0.278292
0.277794
0.277289
0.276781
0.276268
0.275748
0.27522
0.274683
0.274135
0.273574
0.273001
0.272412
0.271808
0.271187
0.270548
0.269891
0.269214
0.268518
0.267801
0.267065
0.266308
0.26553
0.264733
0.263915
0.263078
0.262222
0.261348
0.260456
0.259548
0.258624
0.257684
0.256731
0.255766
0.254788
0.253801
0.252804
0.251799
0.250788
0.249771
0.24875
0.247727
0.246702
0.245677
0.244653
0.243632
0.242613
0.241599
0.240592
0.239592
0.279503
0.279083
0.278651
0.27821
0.277759
0.277296
0.27682
0.276328
0.275821
0.275296
0.274751
0.274187
0.2736
0.272991
0.272359
0.271702
0.27102
0.270314
0.269581
0.268823
0.268039
0.26723
0.266395
0.265536
0.264653
0.263746
0.262817
0.261866
0.260894
0.259903
0.258893
0.257866
0.256824
0.255766
0.254696
0.253614
0.252521
0.25142
0.250311
0.249197
0.248078
0.246956
0.245832
0.244708
0.243585
0.242464
0.241346
0.240234
0.23913
0.281028
0.280701
0.280353
0.27999
0.279611
0.279215
0.278798
0.27836
0.277899
0.277414
0.276902
0.276363
0.275796
0.275199
0.274572
0.273913
0.273224
0.272502
0.271749
0.270963
0.270146
0.269297
0.268417
0.267506
0.266566
0.265598
0.264601
0.263578
0.26253
0.261458
0.260363
0.259247
0.258111
0.256958
0.255788
0.254603
0.253405
0.252196
0.250977
0.24975
0.248516
0.247278
0.246036
0.244793
0.243549
0.242307
0.241066
0.239831
0.238605
0.282883
0.28266
0.282409
0.282137
0.281842
0.281521
0.281173
0.280796
0.280388
0.279947
0.279473
0.278963
0.278416
0.277832
0.27721
0.276549
0.275849
0.275109
0.27433
0.273511
0.272654
0.271758
0.270824
0.269853
0.268847
0.267805
0.26673
0.265622
0.264483
0.263315
0.26212
0.260898
0.259653
0.258385
0.257097
0.255791
0.254467
0.25313
0.25178
0.25042
0.249051
0.247675
0.246295
0.244911
0.243526
0.242141
0.240757
0.239379
0.238011
0.285066
0.284955
0.284814
0.284646
0.284448
0.284216
0.283947
0.28364
0.283293
0.282904
0.282472
0.281996
0.281474
0.280906
0.280291
0.279628
0.278917
0.278158
0.277351
0.276497
0.275595
0.274647
0.273653
0.272614
0.271532
0.270407
0.269241
0.268036
0.266793
0.265514
0.264202
0.262857
0.261483
0.260081
0.258653
0.257204
0.255733
0.254244
0.252739
0.251221
0.249692
0.248154
0.246609
0.24506
0.243508
0.241956
0.240404
0.238859
0.237328
0.287561
0.287615
0.287527
0.287487
0.287402
0.28727
0.287095
0.286871
0.286597
0.286272
0.285893
0.28546
0.284971
0.284427
0.283825
0.283166
0.28245
0.281676
0.280845
0.279956
0.279011
0.27801
0.276952
0.275842
0.274678
0.273462
0.272196
0.270882
0.269521
0.268116
0.266668
0.265181
0.263657
0.262096
0.260505
0.258886
0.257238
0.255569
0.25388
0.252173
0.250452
0.248719
0.246979
0.245232
0.243483
0.241732
0.239982
0.238241
0.236517
0.290179
0.290404
0.290567
0.290676
0.290724
0.290632
0.290571
0.290448
0.290263
0.290018
0.28971
0.289338
0.288901
0.288398
0.287827
0.287189
0.286482
0.285706
0.284864
0.283952
0.282972
0.281925
0.280809
0.279629
0.278383
0.277072
0.275699
0.274266
0.272773
0.271225
0.269623
0.267968
0.266268
0.26452
0.262732
0.260908
0.259047
0.257158
0.255242
0.253304
0.251349
0.249378
0.247399
0.245411
0.243421
0.241431
0.239441
0.237464
0.235511
0.292928
0.293311
0.293623
0.293882
0.294088
0.294229
0.2943
0.294305
0.294192
0.294065
0.293867
0.293596
0.293246
0.29282
0.292315
0.291732
0.291067
0.290322
0.289497
0.288587
0.287596
0.286523
0.285365
0.284126
0.282806
0.281402
0.279921
0.278361
0.276723
0.275013
0.273231
0.271381
0.269468
0.267492
0.265463
0.263384
0.261257
0.259091
0.25689
0.254661
0.252409
0.250137
0.247855
0.245564
0.243273
0.240983
0.238698
0.236431
0.234197
0.29552
0.296098
0.296599
0.29704
0.297418
0.297733
0.29798
0.298159
0.298267
0.29829
0.298232
0.298241
0.298025
0.297733
0.297355
0.296886
0.296321
0.295661
0.294907
0.294048
0.29309
0.29203
0.290862
0.289592
0.288216
0.286732
0.285144
0.283453
0.281654
0.279758
0.277764
0.275675
0.273499
0.271235
0.268896
0.266488
0.264011
0.261482
0.258904
0.256287
0.253641
0.25097
0.248289
0.2456
0.242915
0.240239
0.237576
0.234943
0.232359
0.297474
0.298269
0.298998
0.299686
0.300327
0.300921
0.301461
0.30194
0.302352
0.302683
0.302925
0.303068
0.303118
0.303101
0.302994
0.302751
0.302388
0.30191
0.301315
0.300588
0.299737
0.298757
0.297637
0.296384
0.294991
0.29345
0.291769
0.289944
0.28797
0.285858
0.283606
0.281217
0.278704
0.276064
0.273315
0.270465
0.267516
0.264491
0.261395
0.258245
0.255054
0.251831
0.248599
0.245364
0.242144
0.238949
0.235785
0.232677
0.229647
0.297676
0.298646
0.299648
0.300719
0.301823
0.302935
0.30401
0.30502
0.305943
0.306753
0.307451
0.308019
0.308455
0.308757
0.308928
0.30902
0.309004
0.308818
0.308484
0.307986
0.307338
0.306529
0.305541
0.304379
0.303029
0.301478
0.299734
0.297787
0.295628
0.293272
0.290714
0.287957
0.28502
0.281899
0.278619
0.275191
0.271621
0.26794
0.264155
0.26029
0.256366
0.252397
0.248417
0.244439
0.240497
0.236612
0.2328
0.2291
0.225543
0.295007
0.296053
0.297504
0.299347
0.301376
0.303438
0.305403
0.307208
0.308823
0.310231
0.311451
0.312482
0.313347
0.314058
0.314604
0.314989
0.315196
0.315559
0.315516
0.315316
0.314959
0.314414
0.313651
0.31267
0.311448
0.309961
0.308212
0.306185
0.303865
0.301268
0.298388
0.295231
0.29182
0.288156
0.284271
0.280183
0.275903
0.271471
0.266897
0.262212
0.25744
0.252597
0.247725
0.242841
0.237996
0.233229
0.228589
0.224154
0.219989
0.285043
0.286532
0.290158
0.294628
0.298991
0.302893
0.306219
0.309011
0.311349
0.313301
0.31496
0.316366
0.317579
0.318634
0.31954
0.320324
0.320933
0.321388
0.321825
0.322043
0.322083
0.321916
0.321495
0.320811
0.319823
0.318489
0.316806
0.314744
0.312281
0.309435
0.306201
0.30259
0.298634
0.294342
0.289761
0.28492
0.279839
0.274572
0.269134
0.263564
0.257885
0.252107
0.246264
0.240355
0.234418
0.228492
0.222658
0.217121
0.212162
0.256292
0.267432
0.280073
0.290465
0.29828
0.304041
0.308316
0.311591
0.314192
0.316322
0.318131
0.319687
0.321073
0.32233
0.323478
0.324562
0.325549
0.32642
0.327172
0.327886
0.328378
0.328672
0.328691
0.328411
0.327775
0.326712
0.325194
0.323177
0.320627
0.317568
0.313995
0.309928
0.305417
0.300481
0.295186
0.289581
0.283697
0.277611
0.271345
0.264953
0.258461
0.251871
0.2452
0.238398
0.231427
0.224197
0.216625
0.208779
0.201292
0.240096
0.239349
0.238556
0.23771
0.236797
0.235813
0.234787
0.23385
0.233095
0.232554
0.232261
0.232232
0.232545
0.233224
0.234326
0.235914
0.238067
0.240885
0.244494
0.249061
0.254812
0.262059
0.27125
0.283062
0.298595
0.31945
0.347319
0.389129
0.522654
0.240021
0.239258
0.238447
0.237576
0.236632
0.235611
0.234541
0.233554
0.232748
0.232152
0.231799
0.231722
0.23196
0.232555
0.233556
0.235021
0.237021
0.239642
0.242993
0.247211
0.252478
0.259031
0.267177
0.277307
0.290048
0.306339
0.324316
0.337766
0.375356
0.239818
0.239019
0.238164
0.237239
0.236228
0.235124
0.233954
0.232853
0.231928
0.231206
0.230716
0.230487
0.230552
0.230945
0.231704
0.232875
0.234507
0.236658
0.239394
0.242791
0.246929
0.251891
0.257731
0.264373
0.271626
0.279586
0.285908
0.28332
0.285442
0.239498
0.238639
0.237711
0.2367
0.235585
0.234354
0.233028
0.231753
0.230645
0.229728
0.229028
0.228567
0.228369
0.228458
0.22886
0.2296
0.230701
0.232186
0.234072
0.236363
0.239043
0.24206
0.245306
0.248508
0.251189
0.253318
0.253945
0.249024
0.246668
0.239087
0.238145
0.237119
0.235992
0.234736
0.233336
0.231806
0.230305
0.228962
0.227799
0.226834
0.226087
0.225571
0.225299
0.225284
0.225531
0.226044
0.226814
0.227823
0.229033
0.230378
0.231756
0.233032
0.23398
0.234178
0.233485
0.231307
0.224986
0.220826
0.238594
0.237548
0.2364
0.235128
0.233699
0.232089
0.230311
0.228538
0.226918
0.225469
0.224204
0.223137
0.222274
0.221619
0.221173
0.220929
0.220874
0.220982
0.221219
0.221528
0.221833
0.222023
0.221966
0.221471
0.220151
0.217664
0.213337
0.20559
0.200193
0.23802
0.236848
0.235553
0.234106
0.232469
0.230613
0.228542
0.226457
0.224522
0.222755
0.221165
0.21976
0.21854
0.217503
0.216639
0.215934
0.215365
0.214898
0.214489
0.214077
0.21358
0.212887
0.211857
0.210306
0.207881
0.204203
0.198826
0.191382
0.186264
0.237363
0.236042
0.234572
0.232919
0.231039
0.228894
0.226489
0.224051
0.221771
0.219661
0.21773
0.215979
0.214405
0.212999
0.211745
0.210623
0.209603
0.208649
0.20771
0.206723
0.205609
0.204261
0.202551
0.200322
0.197296
0.193175
0.187843
0.181813
0.17766
0.236614
0.235117
0.233443
0.23155
0.229387
0.226912
0.224129
0.221301
0.218647
0.216178
0.213898
0.211804
0.209889
0.208137
0.206531
0.205044
0.203643
0.20229
0.200934
0.199515
0.197962
0.196187
0.194086
0.191546
0.188364
0.184314
0.179503
0.174916
0.171696
0.235749
0.234048
0.232135
0.229963
0.227475
0.224624
0.221419
0.218165
0.215115
0.212276
0.209648
0.207223
0.204988
0.202926
0.201012
0.199219
0.197512
0.19585
0.194189
0.192473
0.190645
0.188633
0.18636
0.18374
0.180625
0.176846
0.172647
0.169171
0.166724
0.234726
0.232784
0.230593
0.228097
0.225235
0.221959
0.218286
0.214574
0.21111
0.207898
0.204931
0.202196
0.199675
0.197344
0.195175
0.193139
0.1912
0.189318
0.187451
0.185552
0.183572
0.181454
0.179136
0.17655
0.173588
0.170145
0.166545
0.163885
0.162056
0.233467
0.231242
0.228725
0.225852
0.22256
0.218805
0.214618
0.21042
0.206535
0.202958
0.199673
0.196661
0.193894
0.191345
0.188981
0.186768
0.184669
0.182646
0.180659
0.178667
0.176625
0.174488
0.172206
0.169721
0.166957
0.163874
0.160833
0.158764
0.157395
0.231848
0.229285
0.22638
0.223067
0.219283
0.214994
0.210254
0.205556
0.201257
0.197338
0.193774
0.190531
0.187575
0.184868
0.182374
0.180053
0.177867
0.175778
0.173747
0.171735
0.169704
0.167617
0.16543
0.163096
0.160562
0.15784
0.155296
0.153649
0.152602
0.229634
0.226664
0.223302
0.219479
0.21514
0.210271
0.204958
0.199772
0.195094
0.190886
0.187104
0.183699
0.180625
0.177836
0.175287
0.172935
0.170737
0.168656
0.166652
0.16469
0.162735
0.160754
0.158711
0.156564
0.154279
0.151906
0.14979
0.148453
0.147627
0.226455
0.222991
0.219094
0.214693
0.209755
0.204293
0.198432
0.192816
0.187839
0.183431
0.179524
0.176052
0.172955
0.170175
0.167659
0.165359
0.163231
0.161233
0.159328
0.157481
0.155659
0.153833
0.151971
0.150038
0.148019
0.145988
0.144252
0.143155
0.142477
0.221815
0.217819
0.213378
0.208434
0.202979
0.19705
0.190804
0.184933
0.179822
0.17537
0.171483
0.168077
0.165076
0.162413
0.160029
0.157871
0.155891
0.154048
0.152303
0.150622
0.148976
0.147336
0.145675
0.143967
0.142209
0.140479
0.139046
0.138139
0.137562
0.215673
0.211155
0.206293
0.201015
0.195298
0.189174
0.182808
0.176914
0.171862
0.167528
0.163798
0.160572
0.157764
0.155299
0.153114
0.151153
0.149368
0.147716
0.146159
0.144664
0.143202
0.141747
0.140278
0.138782
0.137265
0.135792
0.134588
0.133821
0.133314
0.207334
0.202592
0.19781
0.192675
0.187081
0.181065
0.174822
0.169095
0.164251
0.160151
0.156671
0.153699
0.151141
0.148919
0.146968
0.145231
0.143659
0.142211
0.14085
0.139543
0.138261
0.136976
0.135672
0.134351
0.133038
0.131788
0.13078
0.130134
0.129687
0.195421
0.191903
0.1883
0.183881
0.178752
0.173069
0.167117
0.161689
0.15715
0.15336
0.150184
0.147505
0.145225
0.143264
0.141556
0.140046
0.138687
0.137438
0.136265
0.135134
0.134015
0.132876
0.131707
0.130549
0.129478
0.128514
0.127704
0.127104
0.126635
0.218862
0.219168
0.219847
0.221213
0.223104
0.225215
0.227394
0.229579
0.231776
0.23403
0.236384
0.238874
0.241538
0.244414
0.247544
0.250967
0.254725
0.25885
0.263361
0.268258
0.273504
0.27898
0.284426
0.288749
0.29055
0.288594
0.281293
0.266216
0.234763
0.217109
0.217535
0.218327
0.219678
0.221481
0.223512
0.225647
0.227829
0.230061
0.232376
0.234812
0.237403
0.240188
0.243207
0.246506
0.250131
0.254128
0.25854
0.2634
0.268727
0.274529
0.28075
0.287223
0.292962
0.296653
0.297549
0.295021
0.291047
0.295478
0.215332
0.215838
0.216713
0.218055
0.219785
0.221735
0.223809
0.225965
0.228209
0.230563
0.233058
0.235727
0.238607
0.241744
0.245187
0.248992
0.253215
0.257917
0.26316
0.26901
0.275567
0.282949
0.291316
0.300196
0.308705
0.317073
0.325552
0.333013
0.350236
0.213505
0.213989
0.214835
0.216159
0.21789
0.219843
0.221907
0.224052
0.226297
0.22867
0.231201
0.233921
0.23687
0.240098
0.243657
0.247613
0.252038
0.257011
0.262633
0.269032
0.276422
0.285144
0.295774
0.308428
0.322336
0.337847
0.355865
0.37242
0.394786
0.21163
0.212079
0.212872
0.214163
0.21589
0.217853
0.219919
0.222061
0.224305
0.226686
0.229235
0.231987
0.234983
0.238274
0.241921
0.245994
0.250579
0.255777
0.261723
0.268606
0.276747
0.286668
0.299291
0.315153
0.333321
0.353821
0.378552
0.401945
0.42796
0.20971
0.21014
0.2109
0.21215
0.213844
0.215784
0.217833
0.219961
0.222194
0.224569
0.227119
0.22988
0.232896
0.236219
0.239913
0.244055
0.24874
0.254086
0.260253
0.267477
0.276161
0.286888
0.300838
0.318726
0.339213
0.362162
0.389377
0.418835
0.448645
0.207741
0.20816
0.208895
0.210102
0.211744
0.213637
0.215648
0.217744
0.219948
0.222298
0.224826
0.22757
0.230572
0.233887
0.237578
0.241727
0.246434
0.251824
0.258074
0.26543
0.274381
0.285346
0.299794
0.317871
0.339983
0.364275
0.390505
0.418133
0.446062
0.205718
0.206123
0.206833
0.207992
0.209572
0.211406
0.213363
0.215409
0.217566
0.219868
0.222348
0.225043
0.227994
0.231253
0.234885
0.23897
0.243607
0.24892
0.255088
0.262317
0.271257
0.281694
0.29619
0.314272
0.335377
0.358002
0.381255
0.404793
0.428378
0.203638
0.20403
0.204711
0.205817
0.207326
0.209088
0.210977
0.212957
0.215045
0.217275
0.219679
0.222291
0.22515
0.228305
0.231817
0.235761
0.24023
0.245329
0.251242
0.258061
0.266358
0.276795
0.290277
0.306812
0.325284
0.344676
0.364253
0.383748
0.402499
0.201501
0.20188
0.202531
0.203579
0.205007
0.206683
0.208488
0.210383
0.212382
0.214517
0.216816
0.21931
0.222035
0.225035
0.228365
0.232089
0.236289
0.241043
0.246496
0.252868
0.260462
0.269922
0.281696
0.295716
0.3109
0.326476
0.341904
0.357192
0.371386
0.199304
0.19967
0.200287
0.201271
0.202612
0.204191
0.205898
0.207691
0.209582
0.211597
0.213763
0.216106
0.218657
0.221454
0.224541
0.227972
0.231803
0.236129
0.241045
0.246735
0.253348
0.261273
0.270902
0.28199
0.293606
0.305103
0.316098
0.326892
0.336659
0.197048
0.197401
0.197984
0.198902
0.200147
0.201619
0.203212
0.204886
0.206648
0.208521
0.210528
0.212689
0.215029
0.217577
0.220368
0.223442
0.226853
0.230656
0.234896
0.239685
0.245091
0.251318
0.258589
0.266562
0.274515
0.281964
0.288686
0.295155
0.300807
0.194738
0.195082
0.195633
0.196482
0.197623
0.198971
0.200433
0.20197
0.203584
0.205294
0.207117
0.209067
0.211161
0.213422
0.215874
0.218543
0.221459
0.224647
0.228104
0.231869
0.235953
0.240417
0.245266
0.25013
0.254565
0.258295
0.261266
0.264003
0.266169
0.192373
0.192703
0.193218
0.193993
0.195026
0.196246
0.197569
0.198956
0.200407
0.201935
0.203552
0.205266
0.207089
0.209032
0.211107
0.213325
0.215689
0.218196
0.220811
0.223506
0.226224
0.228912
0.231404
0.233365
0.234654
0.235202
0.235106
0.234882
0.234383
0.189957
0.190276
0.190754
0.191454
0.192374
0.193458
0.194632
0.195857
0.19713
0.198461
0.199856
0.201318
0.202849
0.204449
0.206119
0.207853
0.209633
0.211427
0.213174
0.21479
0.216158
0.217135
0.217448
0.216842
0.21547
0.213443
0.210965
0.208545
0.206209
0.187498
0.187807
0.18825
0.188872
0.189676
0.190617
0.19163
0.192682
0.193767
0.194891
0.196053
0.197248
0.198471
0.199711
0.200956
0.202186
0.203365
0.204437
0.205312
0.205869
0.205944
0.205336
0.203707
0.200915
0.197379
0.193354
0.189115
0.185171
0.181713
0.184997
0.185296
0.1857
0.186244
0.186931
0.187727
0.188578
0.189451
0.190341
0.191251
0.192172
0.193092
0.193997
0.194868
0.195681
0.196402
0.19698
0.197337
0.197362
0.196908
0.195783
0.193751
0.190442
0.185845
0.180612
0.175106
0.169625
0.164687
0.160641
0.182464
0.182753
0.183118
0.183585
0.184155
0.184804
0.185489
0.186177
0.186872
0.187565
0.188242
0.188884
0.18947
0.189973
0.190357
0.190578
0.190568
0.190236
0.189456
0.188062
0.185848
0.182566
0.177841
0.171797
0.165276
0.158713
0.152381
0.146814
0.14252
0.179905
0.180188
0.180517
0.180909
0.181363
0.181862
0.182372
0.182881
0.183379
0.183855
0.184289
0.184656
0.184928
0.18507
0.185037
0.184775
0.184204
0.183222
0.181692
0.179441
0.176258
0.171893
0.165991
0.158807
0.151332
0.144037
0.13713
0.131175
0.126838
0.177327
0.177603
0.177892
0.17821
0.178551
0.178897
0.179253
0.179581
0.179885
0.180149
0.180345
0.180446
0.180415
0.180212
0.179785
0.179067
0.177974
0.176394
0.174184
0.171165
0.167131
0.16184
0.154971
0.146902
0.138747
0.130979
0.123708
0.117542
0.113304
0.174737
0.17501
0.175257
0.175507
0.175722
0.175953
0.176141
0.176293
0.176412
0.176472
0.176443
0.176291
0.175977
0.175452
0.17466
0.173528
0.171964
0.16985
0.167039
0.163355
0.158593
0.152526
0.144871
0.13613
0.127514
0.119481
0.112017
0.105793
0.101795
0.172144
0.172417
0.172623
0.1728
0.172929
0.173018
0.173044
0.173033
0.172977
0.172845
0.172606
0.172222
0.171647
0.170831
0.169712
0.168213
0.166237
0.163664
0.160344
0.156101
0.150738
0.144035
0.135752
0.126498
0.117579
0.109444
0.101933
0.095804
0.0922297
0.169555
0.169817
0.170015
0.170133
0.170155
0.170099
0.169978
0.169815
0.169595
0.169288
0.168857
0.168262
0.167455
0.166382
0.164979
0.163166
0.160845
0.157895
0.154166
0.149483
0.143649
0.136452
0.127674
0.118014
0.108876
0.100727
0.0932663
0.0873834
0.0844819
0.166977
0.167232
0.16741
0.167467
0.167387
0.167205
0.166953
0.166653
0.166286
0.165822
0.165221
0.164441
0.163433
0.162142
0.160502
0.158435
0.155843
0.152605
0.148576
0.143583
0.137429
0.129894
0.120769
0.11079
0.101452
0.0932861
0.0858819
0.080343
0.0783731
0.164418
0.164674
0.164832
0.164832
0.164657
0.164357
0.163982
0.163556
0.163062
0.162463
0.161717
0.16078
0.159605
0.158137
0.156312
0.154054
0.151269
0.147843
0.143635
0.138479
0.13218
0.124504
0.115222
0.105036
0.0954758
0.0871657
0.0796441
0.0744293
0.0737064
0.161884
0.162135
0.162263
0.162204
0.161943
0.161541
0.161064
0.160539
0.159942
0.159233
0.158367
0.157304
0.155997
0.154395
0.152439
0.150057
0.147162
0.143649
0.13939
0.134233
0.127995
0.120435
0.111293
0.101163
0.0914752
0.082866
0.074782
0.0694774
0.0702362
0.159397
0.159696
0.159856
0.159764
0.159393
0.15884
0.158228
0.157599
0.156916
0.156121
0.155166
0.154008
0.152608
0.150918
0.148885
0.146445
0.14352
0.140019
0.135834
0.13084
0.124878
0.117703
0.109003
0.0992231
0.0896071
0.080699
0.0716415
0.0650765
0.0664753
0.163785
0.146347
0.121959
0.0904697
0.0548087
0.0195964
-0.0123528
-0.0416356
-0.0684383
-0.0969107
-0.126151
-0.159711
-0.194329
-0.226775
-0.252972
-0.270328
-0.278966
-0.281188
-0.280724
0.172629
0.159886
0.136701
0.104672
0.0658312
0.0242519
-0.0167612
-0.0576122
-0.0963126
-0.138829
-0.18156
-0.22488
-0.266489
-0.302948
-0.330945
-0.349313
-0.359382
-0.363821
-0.365447
0.169325
0.157919
0.136129
0.10436
0.0635965
0.0173669
-0.0306636
-0.0825309
-0.134487
-0.186903
-0.239251
-0.290458
-0.337681
-0.37753
-0.40751
-0.427353
-0.438921
-0.44492
-0.447899
0.160547
0.149393
0.129529
0.0985462
0.0557936
0.00488435
-0.0507225
-0.109703
-0.170528
-0.232091
-0.29343
-0.352452
-0.40545
-0.448794
-0.480536
-0.501284
-0.513658
-0.520627
-0.524566
0.148593
0.138491
0.120383
0.0900509
0.0461155
-0.00780553
-0.0685221
-0.133913
-0.202583
-0.272977
-0.342663
-0.408217
-0.465284
-0.510453
-0.542755
-0.563812
-0.576843
-0.584764
-0.589541
0.132168
0.122786
0.106332
0.0773606
0.0336233
-0.0217881
-0.0859721
-0.156972
-0.232579
-0.310229
-0.386271
-0.456234
-0.515573
-0.561578
-0.594351
-0.616236
-0.630697
-0.64036
-0.646762
0.111689
0.101638
0.0858553
0.0581571
0.0152795
-0.0406076
-0.106911
-0.181575
-0.261671
-0.343556
-0.422545
-0.49342
-0.551839
-0.596067
-0.627236
-0.648219
-0.662564
-0.672476
-0.67914
0.0882422
0.0763945
0.0599226
0.03249
-0.00973659
-0.0654249
-0.132308
-0.20818
-0.289688
-0.372411
-0.450869
-0.519571
-0.574842
-0.616069
-0.64519
-0.665245
-0.679537
-0.689712
-0.696716
0.062747
0.0486387
0.0304693
0.00216504
-0.0399879
-0.0950993
-0.161225
-0.23616
-0.316292
-0.39663
-0.471246
-0.534902
-0.584937
-0.621785
-0.64789
-0.666221
-0.679731
-0.689589
-0.696431
0.036056
0.0197313
-0.000559327
-0.0304339
-0.0730111
-0.127412
-0.191928
-0.264447
-0.341206
-0.416882
-0.485526
-0.542616
-0.586638
-0.618887
-0.642038
-0.658829
-0.671807
-0.681784
-0.689059
0.0091048
-0.0091306
-0.0315273
-0.0631809
-0.106481
-0.160233
-0.222735
-0.29182
-0.363492
-0.432252
-0.492592
-0.541138
-0.577585
-0.603863
-0.622651
-0.636358
-0.647065
-0.655376
-0.661401
-0.0170214
-0.0366932
-0.0608366
-0.0939843
-0.137885
-0.190859
-0.250987
-0.315869
-0.381298
-0.441964
-0.493311
-0.533327
-0.562713
-0.58368
-0.598656
-0.609612
-0.618128
-0.624729
-0.629429
-0.0413218
-0.0618749
-0.0871996
-0.121205
-0.165172
-0.216943
-0.274306
-0.334596
-0.393532
-0.446315
-0.489538
-0.522389
-0.546208
-0.563201
-0.575452
-0.584546
-0.591702
-0.597449
-0.601645
-0.0631011
-0.084018
-0.109944
-0.144106
-0.187484
-0.237502
-0.291609
-0.346826
-0.398922
-0.443857
-0.479466
-0.505944
-0.524969
-0.538563
-0.548429
-0.555805
-0.561599
-0.566315
-0.569727
-0.0819545
-0.102793
-0.128786
-0.162453
-0.204584
-0.252257
-0.302612
-0.352442
-0.397808
-0.435635
-0.464909
-0.486506
-0.502161
-0.513581
-0.52208
-0.52858
-0.533748
-0.53803
-0.541149
-0.0978475
-0.11827
-0.143895
-0.176551
-0.216918
-0.261822
-0.3082
-0.352775
-0.392092
-0.424038
-0.448477
-0.466642
-0.480143
-0.490363
-0.498291
-0.50461
-0.509832
-0.514312
-0.517686
-0.111096
-0.130893
-0.155859
-0.187187
-0.225474
-0.267313
-0.30948
-0.348774
-0.3824
-0.409202
-0.429701
-0.445244
-0.457201
-0.466614
-0.474187
-0.480401
-0.485649
-0.490171
-0.493585
-0.122137
-0.141198
-0.165338
-0.195178
-0.231244
-0.269924
-0.307928
-0.342293
-0.370985
-0.393656
-0.411222
-0.42497
-0.435982
-0.444995
-0.452476
-0.458737
-0.46408
-0.46865
-0.472092
-0.131497
-0.149802
-0.17307
-0.201419
-0.235327
-0.271039
-0.305293
-0.335453
-0.360172
-0.379682
-0.395082
-0.407525
-0.417841
-0.426529
-0.433882
-0.440099
-0.445419
-0.449935
-0.453327
-0.139741
-0.157347
-0.179836
-0.206816
-0.238665
-0.271487
-0.302147
-0.328469
-0.349776
-0.366704
-0.380371
-0.391726
-0.40136
-0.409587
-0.416581
-0.42247
-0.427457
-0.431614
-0.434691
-0.147278
-0.164346
-0.186292
-0.212132
-0.242069
-0.272124
-0.299455
-0.322451
-0.340988
-0.355899
-0.368194
-0.378606
-0.38754
-0.39519
-0.40166
-0.407043
-0.411517
-0.415167
-0.417825
-0.154433
-0.171271