/*--------------------------------*- C++ -*----------------------------------*\
| =========                 |                                                 |
| \\      /  F ield         | OpenFOAM: The Open Source CFD Toolbox           |
|  \\    /   O peration     | Version:  2312                                  |
|   \\  /    A nd           | Website:  www.openfoam.com                      |
|    \\/     M anipulation  |                                                 |
\*---------------------------------------------------------------------------*/
FoamFile
{
    version     2.0;
    format      ascii;
    arch        "LSB;label=32;scalar=64";
    class       surfaceScalarField;
    location    "11.061007113766287";
    object      phi;
}
// * * * * * * * * * * * * * * * * * * * * * * * * * * * * * * * * * * * * * //

dimensions      [0 3 -1 0 0 0 0];

oriented        oriented;

internalField   nonuniform List<scalar> 
41713
(
0.00735797
0.0568885
0.00362394
0.0679805
0.00211226
0.0657581
0.00147837
0.0648803
0.00109161
0.0646332
0.000836698
0.0645014
0.000660843
0.0644223
0.000533125
0.0643742
0.000436937
0.0643426
0.000362624
0.0643207
0.000304059
0.064305
0.000257188
0.0642933
0.000219247
0.0642844
0.000188297
0.0642774
0.000162944
0.0642718
0.000142165
0.0642672
0.000125198
0.0642634
0.000111455
0.0642602
0.000100477
0.0642574
9.188e-05
0.064255
8.52995e-05
0.064253
8.03691e-05
0.0642514
7.68021e-05
0.06425
7.43078e-05
0.0548137
7.22021e-05
0.0456781
7.02517e-05
0.0380653
6.84521e-05
0.0317212
6.68217e-05
0.0264345
0.0220289
6.53294e-05
0.00998455
0.0469039
0.00841232
0.0695527
0.00569902
0.0684714
0.00410347
0.0664759
0.00310053
0.0656361
0.00240696
0.0651949
0.00190702
0.0649222
0.00153524
0.0647459
0.00125134
0.0646265
0.00102952
0.0645426
0.000852826
0.0644817
0.000709901
0.0644362
0.000592897
0.0644014
0.00049628
0.064374
0.000416063
0.064352
0.000349328
0.0643339
0.000293904
0.0643188
0.000248149
0.0643059
0.000210796
0.0642948
0.000180844
0.064285
0.000157476
0.0642764
0.000139971
0.0642689
0.000127599
0.0642624
0.000120194
0.0548211
0.000115651
0.0456826
0.000112596
0.0380683
0.00011024
0.0317236
0.000108194
0.0264365
0.0220306
0.000106453
0.00858155
0.0383224
0.00968134
0.0684529
0.00743962
0.0707131
0.00566823
0.0682473
0.00447645
0.0668279
0.00358757
0.0660838
0.00290166
0.0656081
0.00236712
0.0652805
0.00194528
0.0650484
0.00160758
0.0648803
0.00133359
0.0647557
0.00110871
0.0646611
0.000922394
0.0645877
0.000766948
0.0645295
0.000636714
0.0644822
0.000527481
0.0644432
0.000436081
0.0644102
0.00036011
0.0643819
0.000297716
0.0643572
0.000247453
0.0643352
0.000208164
0.0643157
0.000178881
0.0642982
0.000158626
0.0642826
0.000147208
0.0548325
0.000140939
0.0456889
0.000137308
0.0380719
0.00013485
0.031726
0.000132857
0.0264385
0.0220323
0.000131219
0.00675763
0.0315647
0.00943725
0.0657733
0.00807469
0.0720757
0.00639188
0.0699301
0.0051968
0.068023
0.00428664
0.066994
0.00355062
0.0663442
0.00294947
0.0658816
0.00245602
0.0655418
0.00204827
0.065288
0.00170896
0.065095
0.00142473
0.0649453
0.00118528
0.0648271
0.000982759
0.064732
0.000811129
0.0646539
0.000665782
0.0645885
0.000543182
0.0645328
0.000440605
0.0644845
0.00035594
0.0644418
0.000287537
0.0644037
0.000234082
0.0643691
0.000194485
0.0643378
0.00016755
0.0643096
0.00015296
0.0548471
0.000145524
0.0456963
0.000141697
0.0380758
0.000139455
0.0317283
0.000137862
0.0264401
0.0220334
0.000136723
0.00504584
0.0265189
0.00852182
0.0622973
0.00811905
0.0724785
0.0066705
0.0713786
0.00551061
0.0691829
0.00462879
0.0678758
0.00390462
0.0670683
0.00329462
0.0664916
0.00277789
0.0660585
0.00233851
0.0657274
0.00196357
0.0654699
0.00164259
0.0652663
0.00136712
0.0651026
0.00113043
0.0649687
0.000927165
0.0648571
0.000753095
0.0647626
0.000604902
0.064681
0.000479989
0.0646094
0.000376326
0.0645455
0.000292319
0.0644877
0.000226692
0.0644348
0.000178364
0.0643861
0.000146064
0.0643419
0.000129295
0.0548638
0.00012148
0.0457041
0.00011813
0.0380791
0.000116726
0.0317297
0.000116134
0.0264407
0.0220335
0.000116061
0.00359726
0.0229216
0.00725418
0.0586404
0.00770364
0.072029
0.00663675
0.0724455
0.00557063
0.070249
0.00473824
0.0687082
0.00404949
0.0677571
0.00345676
0.0670843
0.00294231
0.066573
0.00249463
0.0661751
0.00210428
0.0658603
0.00176343
0.0656072
0.00146569
0.0654003
0.00120583
0.0652285
0.0009796
0.0650834
0.000783583
0.0649586
0.000615052
0.0648496
0.000471857
0.0647526
0.000352318
0.064665
0.000255124
0.0645849
0.000179241
0.0645106
0.00012372
0.0644416
8.7454e-05
0.0643781
6.96102e-05
0.0548817
6.23381e-05
0.0457114
6.0267e-05
0.0380812
6.03919e-05
0.0317296
6.13715e-05
0.0264397
0.0220319
6.28929e-05
0.00250006
0.0204216
0.00595366
0.0551868
0.00700219
0.0709805
0.00636004
0.0730877
0.00544176
0.0711673
0.00467848
0.0694715
0.00403963
0.0683959
0.00347917
0.0676448
0.00298151
0.0670707
0.00253908
0.0666175
0.00214566
0.0662537
0.00179592
0.0659569
0.00148536
0.0657109
0.00121028
0.0655036
0.00096761
0.065326
0.000754888
0.0651713
0.000570155
0.0650343
0.00041189
0.0649109
0.000278942
0.064798
0.000170469
0.0646933
8.58762e-05
0.0645952
2.45675e-05
0.0645029
-1.47984e-05
0.0644175
-3.29842e-05
0.0548999
-3.90356e-05
0.0457175
-3.91842e-05
0.0380813
-3.6871e-05
0.0317272
-3.36759e-05
0.0264365
0.0220284
-3.0104e-05
0.00173404
0.0186875
0.00481578
0.0521051
0.00620936
0.0695869
0.00594331
0.0733537
0.00519012
0.0719205
0.00450088
0.0701607
0.00391507
0.0689818
0.00339338
0.0681665
0.00292033
0.0675437
0.00249097
0.0670469
0.00210188
0.0666428
0.00174997
0.0663088
0.00143255
0.0660283
0.00114736
0.0657888
0.000892506
0.0655809
0.000666513
0.0653973
0.000468252
0.0652325
0.000296927
0.0650822
0.000152033
0.0649429
3.32528e-05
0.0648121
-5.96387e-05
0.0646881
-0.000126716
0.06457
-0.000168614
0.0644594
-0.000186478
0.0549177
-0.00019065
0.0457216
-0.000188148
0.0380788
-0.000182835
0.0317219
-0.000176499
0.0264302
0.0220217
-0.000169793
0.0012214
0.0174661
0.00388868
0.0494378
0.00543953
0.068036
0.0054709
0.0733223
0.0048767
0.0725147
0.00425567
0.0707817
0.00371546
0.069522
0.00322973
0.0686522
0.00278207
0.0679914
0.00236825
0.0674607
0.0019866
0.0670244
0.00163577
0.0666597
0.00131454
0.0663496
0.00102188
0.0660815
0.00075701
0.0658458
0.000519387
0.065635
0.000308726
0.0654432
0.000124959
0.0652659
-3.1809e-05
0.0650996
-0.000161247
0.0649415
-0.000262798
0.0647897
-0.000335928
0.0646431
-0.000380893
0.0645044
-0.000398736
0.0549356
-0.000400939
0.0457238
-0.000395395
0.0380733
-0.000386503
0.031713
-0.000376374
0.0264201
0.0220112
-0.000365874
0.00088508
0.016581
0.00315325
0.0471696
0.00473612
0.0664532
0.00498713
0.0730713
0.00453715
0.0729646
0.0039773
0.0713416
0.00347254
0.0700267
0.00301503
0.0691097
0.00258849
0.0684179
0.00218829
0.0678609
0.00181355
0.0673992
0.00146395
0.0670093
0.00113932
0.0666742
0.000839624
0.0663812
0.000564956
0.0661204
0.000315625
0.0658843
9.20644e-05
0.0656668
-0.000105151
0.0654632
-0.000275174
0.0652697
-0.000416854
0.0650832
-0.000528871
0.0649017
-0.000609982
0.0647242
-0.000659767
0.0645541
-0.00067886
0.0549547
-0.000679853
0.0457248
-0.000671547
0.038065
-0.000658937
0.0317004
-0.000644569
0.0264057
0.0219963
-0.000629673
0.000665404
0.0159156
0.00257606
0.045259
0.0041117
0.0649175
0.0045135
0.0726695
0.00418842
0.0732897
0.0036837
0.0718463
0.00320579
0.0705046
0.00276821
0.0695473
0.00235669
0.0688294
0.00196591
0.0682517
0.00159517
0.0677699
0.00124472
0.0673597
0.000915077
0.0670038
0.000606862
0.0666894
0.000320897
0.0664064
5.80655e-05
0.0661471
-0.000180618
0.0659055
-0.000393835
0.0656764
-0.000579925
0.0654557
-0.000736959
0.0652403
-0.000862814
0.0650275
-0.00095543
0.0648168
-0.00101361
0.0646123
-0.0010368
0.0549779
-0.00103861
0.0457266
-0.00102881
0.0380552
-0.00101311
0.0316847
-0.000994636
0.0263872
0.0219768
-0.000975129
0.000518885
0.0153968
0.00212295
0.0436549
0.0035658
0.0634747
0.00406198
0.0721734
0.00384019
0.0735115
0.00338451
0.072302
0.0029267
0.0709624
0.00250158
0.0699724
0.00209882
0.0692322
0.00171253
0.068638
0.0013418
0.0681407
0.000987152
0.0677144
0.000649479
0.0673415
0.000329903
0.067009
2.95896e-05
0.0667067
-0.000250117
0.0664268
-0.000507571
0.0661629
-0.000740722
0.0659095
-0.000947208
0.0656622
-0.00112436
0.0654174
-0.00126924
0.0651724
-0.00137894
0.0649265
-0.0014514
0.0646848
-0.00148377
0.0550102
-0.00149036
0.0457332
-0.00148189
0.0380467
-0.00146491
0.0316678
-0.00144333
0.0263656
0.0219531
-0.00141964
0.000416368
0.0149804
0.00176365
0.0423076
0.00309142
0.0621469
0.00363883
0.0716259
0.00349906
0.0736513
0.00308609
0.072715
0.00264296
0.0714056
0.00222391
0.0703915
0.00182401
0.0696321
0.00143716
0.0690248
0.00106206
0.0685158
0.000699223
0.0680772
0.000349735
0.067691
1.48345e-05
0.0673439
-0.00030403
0.0670256
-0.000605104
0.0667279
-0.000886132
0.0664439
-0.00114451
0.0661679
-0.00137725
0.065895
-0.00158099
0.0656212
-0.00175205
0.0653435
-0.00188675
0.0650612
-0.0019823
0.0647803
-0.002032
0.0550599
-0.00205031
0.0457516
-0.00204859
0.038045
-0.00203422
0.0316534
-0.00201208
0.0263435
0.0219267
-0.00198574
0.000340214
0.0146402
0.00147432
0.0411735
0.00267914
0.0609421
0.00324622
0.0710589
0.00316933
0.0737282
0.0027929
0.0730914
0.0023603
0.0718382
0.00194213
0.0708096
0.00153982
0.0700344
0.00114764
0.069417
0.000763768
0.0688996
0.000388534
0.0684524
2.28746e-05
0.0680566
-0.000331981
0.0676987
-0.000674411
0.067368
-0.00100221
0.0670557
-0.00131277
0.0667545
-0.00160302
0.0664582
-0.00186944
0.0661614
-0.002108
0.0658597
-0.0023144
0.0655499
-0.00248445
0.0652313
-0.00261507
0.064911
-0.00269418
0.055139
-0.00273546
0.0457928
-0.00275012
0.0380597
-0.0027459
0.0316492
-0.00272873
0.0263263
0.0219016
-0.00270363
0.000280342
0.0143598
0.00123907
0.0402148
0.00232263
0.0598585
0.00288621
0.0704953
0.00285438
0.07376
0.00250791
0.0734379
0.00208249
0.0722636
0.00166123
0.0712309
0.00125216
0.0704435
0.000850408
0.0698188
0.000453686
0.0692964
6.18621e-05
0.0688442
-0.000324442
0.068443
-0.000704062
0.0680783
-0.00107518
0.0677391
-0.00143551
0.067416
-0.00178218
0.0671012
-0.00211177
0.0667877
-0.00242019
0.0664698
-0.00270285
0.0661424
-0.00295488
0.0658019
-0.00317203
0.0654484
-0.00335211
0.065091
-0.0034771
0.055264
-0.00355945
0.0458752
-0.0036086
0.0381088
-0.00363039
0.0316709
-0.00363019
0.0263261
0.0218858
-0.00361434
0.000199681
0.0141601
0.000892997
0.0395215
0.0017167
0.0590348
0.00217814
0.0700338
0.00217592
0.0737622
0.00190278
0.073711
0.00154795
0.0726184
0.00118857
0.0715903
0.000836251
0.0707958
0.00048772
0.0701673
0.000140656
0.0696434
-0.000205595
0.0691905
-0.000550795
0.0687882
-0.000894079
0.0684216
-0.00123411
0.0680791
-0.00156903
0.0677509
-0.00189642
0.0674286
-0.00221319
0.0671045
-0.00251552
0.0667721
-0.00279894
0.0664258
-0.0030586
0.0660616
-0.00329041
0.0656802
-0.00349324
0.0652939
-0.00364732
0.0554181
-0.0037646
0.0459925
-0.00385254
0.0381968
-0.00391274
0.0317311
-0.00394566
0.0263591
0.0218958
-0.00395565
0.000145473
0.0140147
0.000654085
0.0390129
0.00128143
0.0584075
0.0016528
0.0696625
0.00166371
0.0737513
0.00144707
0.0739277
0.00115316
0.0729123
0.000850101
0.0718933
0.000550618
0.0710953
0.000252476
0.0704654
-4.6654e-05
0.0699425
-0.000347692
0.0694915
-0.000650721
0.0690912
-0.000955317
0.0687262
-0.00126065
0.0683845
-0.00156544
0.0680557
-0.00186786
0.067731
-0.00216543
0.0674021
-0.00245488
0.0670616
-0.00273212
0.066703
-0.00299236
0.0663218
-0.00323108
0.065919
-0.00344625
0.065509
-0.00361574
0.0555876
-0.00375398
0.0461307
-0.00387286
0.0383157
-0.00397726
0.0318355
-0.00406496
0.0264468
0.0219533
-0.00412253
0.000109902
0.0139048
0.000491153
0.0386316
0.000975065
0.0579236
0.00127363
0.0693639
0.00128944
0.0737355
0.00111594
0.0741012
0.000872575
0.0731557
0.00061795
0.072148
0.000364508
0.0713487
0.000110737
0.0707192
-0.000145567
0.0701989
-0.000405441
0.0697514
-0.000669208
0.0693549
-0.000936833
0.0689938
-0.00120795
0.0686556
-0.00148185
0.0683296
-0.00175732
0.0680065
-0.00203261
0.0676774
-0.0023052
0.0673342
-0.0025717
0.0669695
-0.00282778
0.0665779
-0.00306858
0.0661598
-0.0032897
0.0657302
-0.00346248
0.0557604
-0.00359952
0.0462677
-0.00371858
0.0384347
-0.0038343
0.0319513
-0.00396432
0.0265768
0.0221092
-0.00412017
8.22487e-05
0.0138225
0.000375845
0.038338
0.000757543
0.0575419
0.000999821
0.0691216
0.0010151
0.0737202
0.000872657
0.0742436
0.000669855
0.0733585
0.000456363
0.0723615
0.000242874
0.0715622
2.79409e-05
0.0709341
-0.000190447
0.0704172
-0.000413313
0.0699743
-0.000641159
0.0695828
-0.00087422
0.0692269
-0.00111251
0.0688939
-0.0013558
0.0685729
-0.00160349
0.0682541
-0.00185453
0.0679284
-0.00210724
0.0675869
-0.00235926
0.0672216
-0.00260741
0.0668261
-0.00284798
0.0664003
-0.00307647
0.0659586
-0.00325696
0.0559409
-0.00339065
0.0464014
-0.00348504
0.0385291
-0.00355137
0.0320176
-0.00360821
0.0266336
-0.00379393
0.0222949
0.000110041
0.0219826
0.000152232
0.0219852
0.000185477
0.0219941
0.000216378
0.0219965
0.000241457
0.0220023
0.000262002
0.0220068
0.000279514
0.0220098
0.000290705
0.0220162
0.000299886
0.0220182
0.000304041
0.0220232
0.000305123
0.0220263
0.000303673
0.0220288
0.000297772
0.0220333
0.000290263
0.0220349
0.000279495
0.0220381
0.000266413
0.0220404
0.000251986
0.0220418
0.000234571
0.0220448
0.000216081
0.0220458
0.000196341
0.0220471
0.000175024
0.0220487
0.000153079
0.0220493
0.000130452
0.02205
0.000107303
0.0220505
8.40304e-05
0.0220506
6.08019e-05
0.0220506
3.80023e-05
0.0220502
1.56293e-05
0.0220497
-5.99618e-06
0.022049
-2.6234e-05
0.0220476
-4.55807e-05
0.0220467
-6.32056e-05
0.022045
-7.88047e-05
0.022043
-9.31433e-05
0.0220417
-0.000104182
0.0220384
-0.000113246
0.0220364
-0.000120025
0.0220341
-0.000122627
0.02203
-0.000123442
0.0220282
-0.000119579
0.0220235
-0.000112553
0.0220203
-0.000102397
0.0220172
-8.64352e-05
0.0220114
-6.83062e-05
0.0220092
-4.34515e-05
0.0220025
-1.5146e-05
0.021999
1.79757e-05
0.0219942
5.74612e-05
0.0219879
0.0219854
9.9455e-05
0.000151085
0.021938
0.000193419
0.0219428
0.000227032
0.0219605
0.000258537
0.0219649
0.000284466
0.0219763
0.000306103
0.0219852
0.000324937
0.021991
0.000337674
0.0220034
0.000348609
0.0220072
0.000354716
0.0220171
0.000357934
0.0220231
0.000358788
0.022028
0.000355351
0.0220367
0.000350446
0.0220398
0.000342413
0.0220462
0.000332182
0.0220507
0.000320704
0.0220533
0.000306332
0.0220591
0.000290957
0.0220612
0.00027439
0.0220637
0.000256298
0.0220668
0.000237608
0.022068
0.000218256
0.0220693
0.000198392
0.0220704
0.000178394
0.0220706
0.00015842
0.0220706
0.000138848
0.0220697
0.000119653
0.0220689
0.000101148
0.0220675
8.39663e-05
0.0220648
6.75852e-05
0.0220631
5.28286e-05
0.0220597
3.99861e-05
0.0220558
2.82699e-05
0.0220534
1.97205e-05
0.0220469
1.29888e-05
0.0220432
8.37069e-06
0.0220388
7.75847e-06
0.0220306
8.73205e-06
0.0220272
1.41857e-05
0.022018
2.25827e-05
0.0220119
3.38758e-05
0.0220059
5.07412e-05
0.0219945
6.95088e-05
0.0219905
9.47436e-05
0.0219773
0.000123139
0.0219707
0.000156045
0.0219613
0.000194986
0.0219489
0.0219443
0.000236084
0.000176083
0.0218931
0.000218863
0.0219
0.000253173
0.0219262
0.000285628
0.0219325
0.000312759
0.0219492
0.00033584
0.0219621
0.000356348
0.0219705
0.000370982
0.0219888
0.000384018
0.0219942
0.000392425
0.0220087
0.000398123
0.0220174
0.000401627
0.0220244
0.000400999
0.0220373
0.000399041
0.0220417
0.000394088
0.0220511
0.000387053
0.0220577
0.00037887
0.0220614
0.000367885
0.0220701
0.000355968
0.0220731
0.000342919
0.0220767
0.000328395
0.0220813
0.000313303
0.0220831
0.000297566
0.0220851
0.000281324
0.0220866
0.000264938
0.022087
0.00024855
0.0220869
0.000232532
0.0220857
0.000216837
0.0220846
0.000201767
0.0220826
0.000187946
0.0220786
0.000174829
0.0220762
0.000163234
0.0220713
0.000153437
0.0220656
0.000144628
0.0220622
0.000138849
0.0220527
0.000134726
0.0220473
0.000132543
0.0220409
0.000134189
0.0220289
0.000137216
0.0220242
0.00014452
0.0220107
0.000154543
0.0220019
0.000167222
0.0219932
0.000185234
0.0219765
0.000204876
0.0219708
0.00023072
0.0219514
0.00025943
0.0219419
0.000292345
0.0219284
0.000330977
0.0219103
0.0219038
0.000371406
0.000182397
0.0218475
0.000226183
0.0218563
0.000261728
0.0218906
0.000295669
0.0218986
0.000324538
0.0219203
0.000349608
0.021937
0.000372346
0.0219478
0.00038944
0.0219717
0.000405154
0.0219785
0.000416444
0.0219974
0.000425218
0.0220086
0.000431973
0.0220177
0.000434762
0.0220345
0.000436369
0.0220401
0.000435116
0.0220524
0.000431901
0.0220609
0.000427642
0.0220657
0.000420674
0.0220771
0.000412848
0.022081
0.000403949
0.0220856
0.000393623
0.0220916
0.000382758
0.0220939
0.000371263
0.0220966
0.000359266
0.0220986
0.000347108
0.0220992
0.000334919
0.0220991
0.000323059
0.0220976
0.000311462
0.0220962
0.000300416
0.0220936
0.000290535
0.0220885
0.000281254
0.0220855
0.000273382
0.0220792
0.000267181
0.0220718
0.00026182
0.0220676
0.000259341
0.0220552
0.000258346
0.0220483
0.000259107
0.0220402
0.00026351
0.0220245
0.00026908
0.0220186
0.000278715
0.0220011
0.000290836
0.0219898
0.000305369
0.0219787
0.000324988
0.0219569
0.000345962
0.0219498
0.00037287
0.0219245
0.000402346
0.0219125
0.000435721
0.021895
0.000474497
0.0218715
0.0218636
0.000514714
0.000163324
0.0218002
0.000208876
0.0218107
0.000246389
0.0218531
0.000282559
0.0218624
0.000313923
0.021889
0.000341749
0.0219092
0.000367501
0.021922
0.000387849
0.0219514
0.000407052
0.0219593
0.000422048
0.0219824
0.000434734
0.0219959
0.000445592
0.0220068
0.000452658
0.0220275
0.000458705
0.0220341
0.000462035
0.022049
0.000463533
0.0220594
0.0004641
0.0220651
0.000462056
0.0220791
0.000459234
0.0220838
0.000455403
0.0220894
0.000450195
0.0220968
0.000444477
0.0220997
0.000438146
0.0221029
0.000431312
0.0221054
0.000424298
0.0221062
0.00041722
0.0221062
0.000410422
0.0221044
0.000403821
0.0221028
0.000397689
0.0220997
0.000392629
0.0220935
0.000388054
0.0220901
0.000384762
0.0220825
0.000383001
0.0220736
0.000381921
0.0220687
0.00038356
0.0220536
0.000386497
0.0220453
0.000390992
0.0220357
0.000398929
0.0220166
0.000407805
0.0220097
0.000420522
0.0219884
0.000435481
0.0219748
0.000452594
0.0219616
0.000474539
0.021935
0.000497557
0.0219268
0.000526235
0.0218958
0.000557184
0.0218815
0.000591724
0.0218605
0.000631353
0.0218319
0.0218229
0.000672067
0.000112776
0.0217503
0.000160972
0.0217625
0.000201456
0.0218126
0.000240867
0.021823
0.00027571
0.0218541
0.000307274
0.0218776
0.000337041
0.0218922
0.00036167
0.0219267
0.000385418
0.0219355
0.000405196
0.0219626
0.000422892
0.0219782
0.000438975
0.0219908
0.000451456
0.022015
0.000463101
0.0220224
0.000472189
0.0220399
0.000479589
0.022052
0.000486186
0.0220585
0.000490278
0.022075
0.000493683
0.0220804
0.000496152
0.022087
0.000497296
0.0220957
0.000497966
0.022099
0.000498037
0.0221028
0.000497605
0.0221059
0.000496971
0.0221068
0.000496233
0.0221069
0.000495721
0.0221049
0.000495329
0.0221032
0.000495312
0.0220998
0.00049626
0.0220926
0.000497563
0.0220888
0.000500006
0.0220801
0.000503824
0.0220697
0.000508142
0.0220643
0.000514995
0.0220467
0.000522941
0.0220374
0.000532224
0.0220264
0.000544726
0.0220041
0.000557917
0.0219965
0.000574703
0.0219716
0.000593463
0.0219561
0.0006141
0.0219409
0.000639297
0.0219098
0.000665262
0.0219009
0.000696601
0.0218645
0.000729893
0.0218482
0.000766456
0.0218239
0.00080778
0.0217906
0.0217809
0.000849815
2.29093e-05
0.0216973
7.53116e-05
0.0217101
0.000120196
0.0217678
0.00016406
0.0217791
0.000203636
0.0218146
0.000240318
0.021841
0.000275495
0.0218571
0.000305778
0.0218964
0.00033544
0.0219059
0.000361388
0.0219367
0.000385513
0.0219541
0.000408269
0.021968
0.000427637
0.0219956
0.00044638
0.0220037
0.000462746
0.0220236
0.00047759
0.0220372
0.00049178
0.0220443
0.000503583
0.0220632
0.000514807
0.0220692
0.000525179
0.0220766
0.000534284
0.0220866
0.000542958
0.0220903
0.000551052
0.0220947
0.000558639
0.0220983
0.000566
0.0220995
0.000573211
0.0220997
0.00058058
0.0220975
0.00058798
0.0220958
0.000595645
0.0220921
0.000604146
0.0220841
0.000612851
0.02208
0.000622527
0.0220704
0.000633391
0.0220589
0.000644545
0.0220532
0.000658018
0.0220332
0.000672341
0.0220231
0.000687744
0.022011
0.000706106
0.0219857
0.000724866
0.0219778
0.000746938
0.0219495
0.000770677
0.0219323
0.000795975
0.0219156
0.000825524
0.0218802
0.000855497
0.0218709
0.000890523
0.0218295
0.000927148
0.0218116
0.00096669
0.0217844
0.00101063
0.0217466
0.0217366
0.00105487
-0.000111869
0.0216394
-5.51478e-05
0.0216534
-5.62174e-06
0.0217182
4.41351e-05
0.0217294
9.02588e-05
0.0217684
0.000133745
0.0217975
0.000176027
0.0218148
0.000213554
0.0218589
0.000250892
0.0218685
0.000284826
0.0219027
0.000317201
0.0219217
0.000348459
0.0219367
0.000376564
0.0219675
0.000404293
0.021976
0.000429861
0.021998
0.000454106
0.0220129
0.000477878
0.0220206
0.000499404
0.0220417
0.000520485
0.0220481
0.000540817
0.0220563
0.000559954
0.0220674
0.000578715
0.0220716
0.00059692
0.0220765
0.000614614
0.0220806
0.000632055
0.022082
0.000649291
0.0220825
0.000666604
0.0220802
0.000683839
0.0220786
0.000701204
0.0220747
0.00071925
0.022066
0.00073731
0.022062
0.000756136
0.0220516
0.000775921
0.0220391
0.000795735
0.0220334
0.000817603
0.0220114
0.000840025
0.0220006
0.00086321
0.0219878
0.000889038
0.0219599
0.00091491
0.0219519
0.000943749
0.0219207
0.000973886
0.0219022
0.0010052
0.0218843
0.00104039
0.021845
0.0010756
0.0218357
0.00111548
0.0217896
0.00115654
0.0217705
0.00120011
0.0217408
0.00124766
0.0216991
0.0216893
0.00129502
-0.000301685
0.0215752
-0.000237849
0.0215896
-0.000180831
0.0216612
-0.000124061
0.0216726
-7.09124e-05
0.0217153
-1.98747e-05
0.0217464
3.07016e-05
0.0217642
7.76716e-05
0.0218119
0.000124827
0.0218214
0.000168922
0.0218586
0.000211571
0.0218791
0.0002535
0.0218948
0.000292638
0.0219284
0.000331723
0.0219369
0.000368908
0.0219608
0.000405013
0.0219768
0.000440877
0.0219847
0.000474673
0.0220079
0.000508198
0.0220145
0.000541109
0.0220234
0.000572923
0.0220356
0.000604437
0.02204
0.000635431
0.0220455
0.000665917
0.0220501
0.000696122
0.0220518
0.000726055
0.0220526
0.000755967
0.0220503
0.000785666
0.0220489
0.000815326
0.0220451
0.000845468
0.0220359
0.000875387
0.0220321
0.000905807
0.0220211
0.000936892
0.022008
0.000967673
0.0220026
0.00100017
0.0219789
0.00103283
0.021968
0.00106586
0.0219548
0.00110112
0.0219246
0.00113597
0.021917
0.00117335
0.0218833
0.00121156
0.021864
0.00125045
0.0218454
0.00129277
0.0218027
0.00133458
0.0217939
0.00138059
0.0217436
0.00142727
0.0217239
0.00147594
0.0216922
0.00152808
0.0216469
0.0216379
0.00157947
-0.000557825
0.0215034
-0.000485861
0.0215176
-0.000420228
0.0215956
-0.000353901
0.0216063
-0.000290457
0.0216518
-0.000228625
0.0216846
-0.000167032
0.0217026
-0.000109389
0.0217543
-5.10717e-05
0.0217631
4.71912e-06
0.0218029
6.0485e-05
0.0218233
0.000116048
0.0218392
0.00016911
0.0218753
0.000222435
0.0218835
0.000274195
0.0219091
0.000325225
0.0219258
0.000376333
0.0219336
0.00042562
0.0219586
0.000474874
0.0219653
0.000523707
0.0219745
0.000571585
0.0219877
0.000619276
0.0219924
0.000666511
0.0219983
0.000713253
0.0220034
0.000759689
0.0220054
0.000805776
0.0220065
0.000851721
0.0220044
0.000897282
0.0220033
0.000942586
0.0219998
0.000988113
0.0219904
0.0010331
0.0219871
0.00107824
0.021976
0.00112366
0.0219626
0.00116833
0.0219579
0.00121425
0.0219329
0.00125984
0.0219224
0.00130524
0.0219094
0.00135234
0.0218775
0.00139842
0.021871
0.00144645
0.0218353
0.00149468
0.0218158
0.00154296
0.0217972
0.00159405
0.0217516
0.00164395
0.021744
0.00169744
0.0216901
0.00175093
0.0216704
0.00180576
0.0216373
0.00186341
0.0215893
0.0215817
0.00191958
-0.00089418
0.0214224
-0.000812277
0.0214357
-0.000736041
0.0215194
-0.000658388
0.0215286
-0.000582974
0.0215764
-0.000508445
0.0216101
-0.000433263
0.0216274
-0.000360993
0.021682
-0.000287234
0.0216893
-0.000215389
0.021731
-0.000143898
0.0217518
-7.21235e-05
0.0217675
-2.2042e-06
0.0218054
6.8778e-05
0.0218126
0.000138743
0.0218391
0.000208427
0.0218561
0.000278654
0.0218634
0.000347446
0.0218898
0.000416586
0.0218962
0.000485614
0.0219055
0.000553915
0.0219194
0.000622212
0.0219241
0.000690163
0.0219303
0.000757668
0.0219359
0.000824851
0.0219382
0.0008916
0.0219397
0.000958059
0.0219379
0.00102391
0.0219375
0.00108922
0.0219344
0.00115441
0.0219252
0.00121864
0.0219229
0.00128254
0.0219121
0.00134618
0.0218989
0.00140845
0.0218957
0.00147136
0.02187
0.00153322
0.0218605
0.00159416
0.0218485
0.00165603
0.0218157
0.00171606
0.0218109
0.00177722
0.0217741
0.00183773
0.0217553
0.0018974
0.0217375
0.00195905
0.02169
0.00201859
0.0216844
0.0020809
0.0216278
0.00214231
0.021609
0.00220419
0.0215755
0.00226805
0.0215254
0.0215203
0.0023295
-0.00132842
0.0213312
-0.00123512
0.0213424
-0.00114655
0.0214308
-0.00105546
0.0214375
-0.000965624
0.0214866
-0.000875679
0.0215201
-0.000784107
0.0215359
-0.000694646
0.0215926
-0.000602747
0.0215974
-0.000511885
0.0216401
-0.000420126
0.02166
-0.000327134
0.0216745
-0.000235278
0.0217135
-0.000141784
0.0217191
-4.86906e-05
0.021746
4.47717e-05
0.0217627
0.0001393
0.0217688
0.000232869
0.0217963
0.000327388
0.0218016
0.000422219
0.0218107
0.000516679
0.021825
0.00061142
0.0218293
0.000706001
0.0218358
0.000800232
0.0218416
0.000894147
0.0218443
0.000987538
0.0218463
0.00108046
0.021845
0.00117249
0.0218454
0.00126358
0.0218434
0.00135409
0.0218347
0.00144304
0.0218339
0.001531
0.0218241
0.00161795
0.021812
0.00170266
0.0218109
0.00178713
0.0217856
0.00186954
0.0217781
0.00194995
0.021768
0.00203023
0.0217354
0.00210747
0.0217337
0.00218471
0.0216969
0.00226007
0.0216799
0.00233335
0.0216642
0.00240743
0.0216159
0.00247813
0.0216137
0.00255044
0.0215555
0.00262063
0.0215388
0.00269011
0.021506
0.00276044
0.0214551
0.0214536
0.00282713
-0.00188351
0.021229
-0.00177759
0.0212365
-0.00167509
0.0213283
-0.00156857
0.021331
-0.00146194
0.02138
-0.00135379
0.021412
-0.00124257
0.0214246
-0.00113213
0.0214821
-0.00101781
0.0214831
-0.000903255
0.0215256
-0.000786534
0.0215433
-0.000667344
0.0215553
-0.000548162
0.0215944
-0.000426121
0.021597
-0.000303463
0.0216233
-0.000179507
0.0216387
-5.35589e-05
0.0216429
7.20343e-05
0.0216707
0.000198858
0.0216748
0.000327018
0.0216825
0.000455268
0.0216967
0.00058421
0.0217004
0.000713297
0.0217067
0.000842221
0.0217127
0.000970885
0.0217156
0.00109894
0.0217183
0.00122632
0.0217176
0.00135243
0.0217193
0.00147709
0.0217187
0.00160052
0.0217113
0.00172156
0.0217129
0.00184067
0.021705
0.00195769
0.021695
0.00207122
0.0216974
0.00218321
0.0216736
0.00229168
0.0216696
0.00239659
0.0216631
0.00249981
0.0216321
0.00259824
0.0216353
0.002695
0.0216001
0.0027881
0.0215868
0.00287733
0.021575
0.00296567
0.0215276
0.00304881
0.0215306
0.00313194
0.0214723
0.00321124
0.0214595
0.0032882
0.021429
0.0033645
0.0213788
0.0213826
0.00343552
-0.0025911
0.0211164
-0.0024726
0.021118
-0.0023556
0.0212113
-0.00223229
0.0212077
-0.00210673
0.0212544
-0.00197744
0.0212827
-0.0018428
0.02129
-0.00170687
0.0213462
-0.00156485
0.0213411
-0.00142065
0.0213814
-0.00127236
0.021395
-0.00111981
0.0214027
-0.000965693
0.0214402
-0.000807152
0.0214385
-0.000646619
0.0214628
-0.000483475
0.0214756
-0.00031712
0.0214765
-0.000149908
0.0215035
1.99003e-05
0.021505
0.000190449
0.021512
0.000362326
0.0215249
0.000535662
0.021527
0.00070973
0.0215326
0.00088404
0.0215384
0.0010583
0.0215414
0.00123196
0.0215446
0.00140475
0.0215448
0.00157582
0.0215483
0.00174476
0.0215497
0.00191161
0.0215444
0.00207489
0.0215496
0.00223488
0.021545
0.00239123
0.0215386
0.00254223
0.0215464
0.00268979
0.021526
0.00283163
0.0215278
0.00296759
0.0215272
0.00309953
0.0215002
0.00322406
0.0215107
0.00334441
0.0214798
0.00345844
0.0214728
0.00356592
0.0214675
0.00366998
0.0214235
0.00376615
0.0214344
0.00385995
0.0213785
0.00394746
0.021372
0.00403037
0.0213461
0.00411054
0.0212986
0.0213098
0.00418324
-0.00349448
0.0209966
-0.00336507
0.0209886
-0.00323449
0.0210807
-0.00309425
0.0210674
-0.00294834
0.0211085
-0.00279491
0.0211293
-0.00263223
0.0211273
-0.00246471
0.0211787
-0.00228761
0.021164
-0.00210536
0.0211991
-0.0019163
0.021206
-0.00172057
0.021207
-0.00152123
0.0212409
-0.00131549
0.0212328
-0.00110604
0.0212534
-0.000892326
0.0212618
-0.000673845
0.0212581
-0.000453165
0.0212828
-0.000228602
0.0212804
-6.38262e-07
0.021284
0.000228265
0.021296
0.00046019
0.0212951
0.000693712
0.0212991
0.00092826
0.0213038
0.00116328
0.0213063
0.00139793
0.02131
0.00163164
0.0213111
0.00186314
0.0213168
0.00209165
0.0213212
0.00231686
0.0213192
0.00253682
0.0213296
0.00275149
0.0213304
0.00296016
0.02133
0.00316068
0.0213459
0.00335486
0.0213318
0.00353999
0.0213427
0.00371567
0.0213515
0.00388376
0.0213321
0.00404047
0.021354
0.00418917
0.0213311
0.0043275
0.0213344
0.00445519
0.0213398
0.00457562
0.0213031
0.00468409
0.021326
0.00478665
0.021276
0.00487936
0.0212793
0.00496425
0.0212612
0.00504355
0.0212193
0.021241
0.00511243
-0.00386044
0.0209014
-0.00375412
0.0208822
-0.00364199
0.0209686
-0.0035143
0.0209397
-0.00337411
0.0209683
-0.00322037
0.0209755
-0.00305267
0.0209596
-0.00287618
0.0210022
-0.00268788
0.0209757
-0.00249262
0.0210039
-0.00228964
0.021003
-0.0020795
0.0209969
-0.00186513
0.0210265
-0.0016442
0.0210118
-0.00141902
0.0210282
-0.00118902
0.0210318
-0.00095363
0.0210227
-0.000714899
0.0210441
-0.00047127
0.0210368
-0.000223374
0.0210361
2.8392e-05
0.0210442
0.000282466
0.021041
0.000539678
0.0210419
0.000799291
0.0210442
0.00106043
0.0210452
0.00132199
0.0210484
0.00158309
0.02105
0.00184209
0.0210578
0.0020978
0.0210655
0.00234948
0.0210675
0.00259482
0.0210843
0.00283335
0.0210918
0.00306401
0.0210993
0.00328442
0.0211255
0.00349597
0.0211203
0.0036959
0.0211427
0.00388364
0.0211638
0.00406077
0.021155
0.0042237
0.0211911
0.00437546
0.0211793
0.00451382
0.0211961
0.00463847
0.0212152
0.00475245
0.0211891
0.00485144
0.021227
0.00494093
0.0211865
0.00501749
0.0212027
0.00508333
0.0211954
0.00514109
0.0211615
0.0211949
0.0051872
-0.0040497
0.0208285
-0.00397592
0.0208085
-0.00389273
0.0208854
-0.00378301
0.02083
-0.003649
0.0208343
-0.0034927
0.0208192
-0.00331743
0.0207843
-0.00313078
0.0208155
-0.00293229
0.0207772
-0.0027275
0.0207991