/*--------------------------------*- C++ -*----------------------------------*\
| =========                 |                                                 |
| \\      /  F ield         | OpenFOAM: The Open Source CFD Toolbox           |
|  \\    /   O peration     | Version:  2312                                  |
|   \\  /    A nd           | Website:  www.openfoam.com                      |
|    \\/     M anipulation  |                                                 |
\*---------------------------------------------------------------------------*/
FoamFile
{
    version     2.0;
    format      ascii;
    arch        "LSB;label=32;scalar=64";
    class       volVectorField;
    location    "14.839441310479204";
    object      U;
}
// * * * * * * * * * * * * * * * * * * * * * * * * * * * * * * * * * * * * * //

dimensions      [0 1 -1 0 0 0 0];

internalField   nonuniform List<vector> 
21039
(
(0.913801 0.0474482 0)
(1.02605 0.0664593 0)
(1.00449 0.0294241 0)
(1.00177 0.0188445 0)
(1.00121 0.0138269 0)
(1.0008 0.0104385 0)
(1.00055 0.00810573 0)
(1.0004 0.00645734 0)
(1.00031 0.00524216 0)
(1.00024 0.00431636 0)
(1.00019 0.00359451 0)
(1.00015 0.00302163 0)
(1.00012 0.00256073 0)
(1.0001 0.00218628 0)
(1.00008 0.00188018 0)
(1.00006 0.00162931 0)
(1.00005 0.00142401 0)
(1.00004 0.00125696 0)
(1.00003 0.0011225 0)
(1.00002 0.00101606 0)
(1.00002 0.000933732 0)
(1.00001 0.000873434 0)
(1.00001 0.000836777 0)
(1 0.000804681 0)
(1.00001 0.000781178 0)
(1.00001 0.000762933 0)
(1.00001 0.000745718 0)
(1.00001 0.000719586 0)
(1.00001 0.000662711 0)
(0.794721 0.0730328 0)
(1.07452 0.121553 0)
(1.03989 0.0706451 0)
(1.01814 0.0495233 0)
(1.01131 0.0380761 0)
(1.00766 0.0292669 0)
(1.0054 0.0229461 0)
(1.00398 0.0183477 0)
(1.00302 0.0148711 0)
(1.00235 0.0121753 0)
(1.00186 0.0100438 0)
(1.0015 0.00833005 0)
(1.00122 0.00693329 0)
(1.001 0.00578323 0)
(1.00082 0.00482966 0)
(1.00068 0.00403611 0)
(1.00056 0.00337563 0)
(1.00045 0.00282805 0)
(1.00036 0.00237801 0)
(1.00028 0.0020135 0)
(1.00022 0.00172456 0)
(1.00016 0.00150466 0)
(1.00011 0.00135768 0)
(1.00008 0.00125209 0)
(1.00006 0.00119125 0)
(1.00006 0.00115675 0)
(1.00007 0.00113452 0)
(1.00008 0.00110539 0)
(1.00009 0.00103937 0)
(0.66767 0.0572223 0)
(1.08317 0.124585 0)
(1.08439 0.0899648 0)
(1.04635 0.0673426 0)
(1.02913 0.0537805 0)
(1.02032 0.0427745 0)
(1.01475 0.0344281 0)
(1.01105 0.0280077 0)
(1.00849 0.0229412 0)
(1.00667 0.0188973 0)
(1.00533 0.0156305 0)
(1.00432 0.0129585 0)
(1.00355 0.0107502 0)
(1.00293 0.00891044 0)
(1.00244 0.00736924 0)
(1.00203 0.00607479 0)
(1.00168 0.00498831 0)
(1.00139 0.0040805 0)
(1.00113 0.00332903 0)
(1.0009 0.00271668 0)
(1.0007 0.00222937 0)
(1.00052 0.00185662 0)
(1.00036 0.00160396 0)
(1.00025 0.00143462 0)
(1.00019 0.00134521 0)
(1.00016 0.00130028 0)
(1.00015 0.00127612 0)
(1.00016 0.00124791 0)
(1.00017 0.00118236 0)
(0.54161 0.0352009 0)
(1.05115 0.110545 0)
(1.11603 0.096556 0)
(1.07622 0.0757877 0)
(1.04937 0.0615745 0)
(1.0354 0.0504057 0)
(1.02655 0.0416734 0)
(1.02037 0.034589 0)
(1.01594 0.0287511 0)
(1.0127 0.0239344 0)
(1.01027 0.0199347 0)
(1.00841 0.0165884 0)
(1.00696 0.0137713 0)
(1.0058 0.0113883 0)
(1.00485 0.00936656 0)
(1.00406 0.00765025 0)
(1.00339 0.0061966 0)
(1.00282 0.00497276 0)
(1.00231 0.00395346 0)
(1.00185 0.00311923 0)
(1.00145 0.00245437 0)
(1.00108 0.00194603 0)
(1.00075 0.00160102 0)
(1.0005 0.00137976 0)
(1.00035 0.00126942 0)
(1.00026 0.00121902 0)
(1.00023 0.00119671 0)
(1.00023 0.00117306 0)
(1.00023 0.00110977 0)
(0.445055 0.0186024 0)
(0.998479 0.0915445 0)
(1.12929 0.095068 0)
(1.10159 0.0788067 0)
(1.06843 0.064702 0)
(1.04998 0.0539512 0)
(1.03847 0.0454878 0)
(1.03025 0.0383752 0)
(1.02415 0.0323271 0)
(1.01956 0.0271942 0)
(1.01603 0.0228181 0)
(1.01328 0.0190713 0)
(1.01109 0.0158541 0)
(1.00932 0.0130865 0)
(1.00785 0.0107046 0)
(1.00662 0.00865791 0)
(1.00556 0.00690677 0)
(1.00464 0.0054202 0)
(1.00382 0.00417408 0)
(1.00308 0.00314977 0)
(1.0024 0.00233248 0)
(1.00178 0.00170902 0)
(1.00122 0.00128787 0)
(1.0008 0.00102849 0)
(1.00052 0.000907377 0)
(1.00035 0.000859645 0)
(1.00028 0.000846911 0)
(1.00026 0.000835678 0)
(1.00024 0.000780088 0)
(0.379798 0.0080353 0)
(0.940896 0.07148 0)
(1.12752 0.087591 0)
(1.12109 0.077773 0)
(1.08578 0.0649455 0)
(1.06338 0.0548727 0)
(1.04961 0.0469064 0)
(1.03979 0.0400557 0)
(1.03236 0.034092 0)
(1.02663 0.028911 0)
(1.02213 0.024393 0)
(1.01856 0.0204444 0)
(1.01566 0.016991 0)
(1.01327 0.013971 0)
(1.01127 0.0113341 0)
(1.00957 0.00903997 0)
(1.00808 0.00705624 0)
(1.00677 0.00535749 0)
(1.0056 0.00392385 0)
(1.00452 0.00274013 0)
(1.00353 0.00179469 0)
(1.00261 0.0010762 0)
(1.00177 0.00059568 0)
(1.00112 0.000312265 0)
(1.00068 0.000191692 0)
(1.00042 0.000155251 0)
(1.00029 0.000157867 0)
(1.00024 0.000170749 0)
(1.00019 0.000143323 0)
(0.334896 0.002261 0)
(0.88516 0.0534372 0)
(1.11497 0.0770221 0)
(1.1343 0.0737493 0)
(1.10128 0.0630906 0)
(1.07577 0.0539127 0)
(1.05995 0.0465718 0)
(1.04881 0.040153 0)
(1.04031 0.0344417 0)
(1.03364 0.0293674 0)
(1.02832 0.0248498 0)
(1.02402 0.0208275 0)
(1.02047 0.0172494 0)
(1.01751 0.0140717 0)
(1.01499 0.0112587 0)
(1.01281 0.00878136 0)
(1.01089 0.00661649 0)
(1.00916 0.00474612 0)
(1.0076 0.00315664 0)
(1.00615 0.00183817 0)
(1.0048 0.00078399 0)
(1.00354 -1.44342e-05 0)
(1.00237 -0.000541064 0)
(1.00145 -0.00083658 0)
(1.00082 -0.000945219 0)
(1.00044 -0.00095717 0)
(1.00023 -0.000926251 0)
(1.00014 -0.000892165 0)
(1.00005 -0.000912837 0)
(0.302941 -0.000272099 0)
(0.834083 0.0391278 0)
(1.0953 0.0659955 0)
(1.14127 0.0680956 0)
(1.11442 0.0599103 0)
(1.08714 0.0517001 0)
(1.06951 0.0449871 0)
(1.05727 0.0390593 0)
(1.04791 0.0336828 0)
(1.04048 0.028801 0)
(1.03448 0.0243682 0)
(1.02954 0.0203508 0)
(1.02543 0.0167186 0)
(1.02193 0.0134451 0)
(1.01892 0.0105084 0)
(1.01627 0.00789104 0)
(1.01391 0.00557968 0)
(1.01177 0.00356465 0)
(1.0098 0.00183973 0)
(1.00795 0.000401251 0)
(1.00621 -0.000752136 0)
(1.00455 -0.00162302 0)
(1.003 -0.00218871 0)
(1.00177 -0.00248914 0)
(1.00092 -0.00257912 0)
(1.00038 -0.00255969 0)
(1.00008 -0.00248998 0)
(0.999924 -0.00241977 0)
(0.999784 -0.00242471 0)
(0.280345 -0.0010713 0)
(0.789163 0.0285871 0)
(1.07179 0.0558716 0)
(1.14284 0.0618575 0)
(1.12494 0.0560828 0)
(1.0974 0.0488174 0)
(1.07831 0.042634 0)
(1.06516 0.037146 0)
(1.05513 0.0321004 0)
(1.0471 0.0274331 0)
(1.04053 0.0231188 0)
(1.03507 0.0191436 0)
(1.03045 0.0154938 0)
(1.02648 0.0121574 0)
(1.02302 0.0091253 0)
(1.01993 0.00639076 0)
(1.01714 0.00394995 0)
(1.01457 0.00180192 0)
(1.01217 -5.25448e-05 0)
(1.0099 -0.00161055 0)
(1.00773 -0.00286523 0)
(1.00564 -0.00381139 0)
(1.00367 -0.00441943 0)
(1.00208 -0.00472615 0)
(1.00096 -0.00479647 0)
(1.00024 -0.00474218 0)
(0.999816 -0.00462776 0)
(0.999562 -0.00451048 0)
(0.999338 -0.0044838 0)
(0.26432 -0.00112005 0)
(0.750778 0.0211077 0)
(1.04697 0.0470671 0)
(1.14034 0.0556019 0)
(1.13301 0.0520003 0)
(1.10659 0.0456374 0)
(1.08645 0.0398723 0)
(1.07252 0.0347245 0)
(1.06197 0.0299512 0)
(1.05347 0.0254711 0)
(1.04646 0.0212665 0)
(1.04057 0.0173348 0)
(1.03552 0.0136735 0)
(1.03114 0.0102816 0)
(1.02725 0.00715996 0)
(1.02375 0.00431121 0)
(1.02055 0.00174037 0)
(1.01756 -0.000546784 0)
(1.01473 -0.00254207 0)
(1.01202 -0.0042333 0)
(1.00939 -0.00560515 0)
(1.00683 -0.00664417 0)
(1.00438 -0.00731218 0)
(1.00238 -0.00763968 0)
(1.00095 -0.00769911 0)
(1 -0.00761328 0)
(0.999411 -0.00745364 0)
(0.999026 -0.00728576 0)
(0.998684 -0.00722176 0)
(0.252552 -0.000905357 0)
(0.718426 0.0159022 0)
(1.02246 0.0396042 0)
(1.13501 0.049615 0)
(1.13897 0.0478541 0)
(1.11487 0.0423406 0)
(1.09409 0.0369105 0)
(1.07948 0.0320044 0)
(1.0685 0.0274284 0)
(1.05965 0.0230846 0)
(1.05229 0.0189554 0)
(1.04604 0.0150436 0)
(1.04064 0.0113537 0)
(1.0359 0.0078922 0)
(1.03164 0.00466729 0)
(1.02776 0.00168928 0)
(1.02416 -0.00103143 0)
(1.02076 -0.00348187 0)
(1.0175 -0.00564444 0)
(1.01433 -0.00749868 0)
(1.01122 -0.00902087 0)
(1.00815 -0.0101883 0)
(1.00517 -0.0109525 0)
(1.0027 -0.0113335 0)
(1.0009 -0.0114064 0)
(0.999677 -0.011305 0)
(0.99887 -0.0111087 0)
(0.998305 -0.0108929 0)
(0.997798 -0.0107907 0)
(0.243519 -0.000650486 0)
(0.691268 0.0122867 0)
(0.999164 0.0333607 0)
(1.12785 0.0440445 0)
(1.14316 0.043755 0)
(1.12233 0.0390185 0)
(1.10136 0.0338644 0)
(1.08619 0.0291172 0)
(1.07483 0.0246643 0)
(1.0657 0.0203994 0)
(1.05807 0.0163005 0)
(1.05154 0.0123716 0)
(1.04585 0.00862116 0)
(1.04079 0.00506045 0)
(1.03621 0.00170312 0)
(1.03198 -0.00143732 0)
(1.02802 -0.00434448 0)
(1.02422 -0.0069969 0)
(1.02053 -0.00936964 0)
(1.0169 -0.0114345 0)
(1.01328 -0.0131595 0)
(1.00966 -0.0145123 0)
(1.00611 -0.0154329 0)
(1.00311 -0.0159253 0)
(1.00089 -0.0160589 0)
(0.999317 -0.0159772 0)
(0.998226 -0.0157676 0)
(0.997411 -0.015518 0)
(0.996677 -0.0153834 0)
(0.236348 -0.000445722 0)
(0.66847 0.0097255 0)
(0.977542 0.0281581 0)
(1.11959 0.0389503 0)
(1.14591 0.0397768 0)
(1.12909 0.0357298 0)
(1.10837 0.030808 0)
(1.09274 0.0261522 0)
(1.08107 0.0217547 0)
(1.07171 0.0175115 0)
(1.06387 0.013394 0)
(1.05712 0.00940463 0)
(1.05119 0.00555328 0)
(1.04588 0.00185384 0)
(1.04102 -0.00167916 0)
(1.03649 -0.00502827 0)
(1.03218 -0.00817034 0)
(1.02801 -0.0110781 0)
(1.0239 -0.0137203 0)
(1.0198 -0.0160616 0)
(1.01566 -0.0180623 0)
(1.01147 -0.0196814 0)
(1.00731 -0.0208477 0)
(1.00373 -0.0215428 0)
(1.00101 -0.021818 0)
(0.999018 -0.0218215 0)
(0.997559 -0.021648 0)
(0.996406 -0.0213989 0)
(0.995361 -0.0212513 0)
(0.230528 -0.000309052 0)
(0.6493 0.00784531 0)
(0.957803 0.0238126 0)
(1.11081 0.0343352 0)
(1.14753 0.0359653 0)
(1.13521 0.0325157 0)
(1.11518 0.0277931 0)
(1.09925 0.0231769 0)
(1.0873 0.0187763 0)
(1.07776 0.0145015 0)
(1.06976 0.0103171 0)
(1.06285 0.00622183 0)
(1.05675 0.00222449 0)
(1.05123 -0.0016622 0)
(1.04615 -0.00542253 0)
(1.04136 -0.00903514 0)
(1.03675 -0.0124729 0)
(1.03224 -0.015704 0)
(1.02773 -0.0186915 0)
(1.02317 -0.0213935 0)
(1.0185 -0.0237639 0)
(1.01372 -0.0257547 0)
(1.00892 -0.0272867 0)
(1.00472 -0.0283158 0)
(1.00145 -0.0288597 0)
(0.998966 -0.029061 0)
(0.997033 -0.0290158 0)
(0.995422 -0.0288382 0)
(0.993948 -0.0287246 0)
(0.225731 -0.000230519 0)
(0.633145 0.00641539 0)
(0.939992 0.0201898 0)
(1.10188 0.0302018 0)
(1.14825 0.0323623 0)
(1.14076 0.0294066 0)
(1.12179 0.0248522 0)
(1.10572 0.0202369 0)
(1.09354 0.0157862 0)
(1.08387 0.0114331 0)
(1.07577 0.00713725 0)
(1.06875 0.00289156 0)
(1.06252 -0.00129866 0)
(1.05686 -0.00542273 0)
(1.0516 -0.00946438 0)
(1.0466 -0.0134005 0)
(1.04174 -0.0172016 0)
(1.03691 -0.0208327 0)
(1.03204 -0.0242517 0)
(1.02703 -0.0274102 0)
(1.02185 -0.0302562 0)
(1.01648 -0.0327374 0)
(1.01106 -0.0347736 0)
(1.00628 -0.0363063 0)
(1.00248 -0.0373103 0)
(0.999473 -0.0379085 0)
(0.996987 -0.0381777 0)
(0.994794 -0.038225 0)
(0.992746 -0.0382433 0)
(0.222065 -0.000177749 0)
(0.62048 0.0053835 0)
(0.925238 0.0173727 0)
(1.09385 0.0267856 0)
(1.14843 0.0292537 0)
(1.14553 0.0266778 0)
(1.12784 0.0222592 0)
(1.11178 0.0176246 0)
(1.09946 0.0131002 0)
(1.0897 0.00864454 0)
(1.08155 0.00421331 0)
(1.07449 -0.000207516 0)
(1.06821 -0.00461784 0)
(1.06248 -0.00900996 0)
(1.05713 -0.0133692 0)
(1.052 -0.0176737 0)
(1.04696 -0.0218945 0)
(1.04191 -0.025995 0)
(1.03674 -0.0299293 0)
(1.03136 -0.033642 0)
(1.02573 -0.0370718 0)
(1.01983 -0.040158 0)
(1.01385 -0.0428143 0)
(1.00858 -0.0449743 0)
(1.00438 -0.0465952 0)
(1.00095 -0.0478019 0)
(0.997946 -0.0486396 0)
(0.995076 -0.0491593 0)
(0.992244 -0.0494864 0)
(0.219435 -0.000144592 0)
(0.611311 0.00468062 0)
(0.914084 0.0153447 0)
(1.08739 0.0242101 0)
(1.14831 0.0268416 0)
(1.14929 0.0245373 0)
(1.13286 0.0202186 0)
(1.11691 0.0155586 0)
(1.10451 0.0109618 0)
(1.09472 0.00640821 0)
(1.08657 0.0018484 0)
(1.07952 -0.00273855 0)
(1.07326 -0.00735805 0)
(1.06753 -0.0120068 0)
(1.06216 -0.0166739 0)
(1.05699 -0.0213416 0)
(1.05187 -0.0259846 0)
(1.04669 -0.0305685 0)
(1.04133 -0.035047 0)
(1.0357 -0.0393606 0)
(1.02973 -0.0434381 0)
(1.02342 -0.0472039 0)
(1.01698 -0.0505436 0)
(1.01137 -0.0533525 0)
(1.00696 -0.0555894 0)
(1.0034 -0.0574651 0)
(1.00022 -0.0591076 0)
(0.997017 -0.0605531 0)
(0.99368 -0.0616348 0)
(0.217432 -9.4675e-05 0)
(0.604356 0.00420322 0)
(0.905351 0.0138693 0)
(1.08204 0.0222566 0)
(1.148 0.024971 0)
(1.15228 0.0228704 0)
(1.13703 0.0186369 0)
(1.12125 0.0139633 0)
(1.10882 0.00931158 0)
(1.09902 0.00467824 0)
(1.0909 9.84353e-06 0)
(1.08389 -0.00472072 0)
(1.07767 -0.00952387 0)
(1.07199 -0.014401 0)
(1.06665 -0.019347 0)
(1.0615 -0.0243504 0)
(1.05637 -0.0293922 0)
(1.05114 -0.0344438 0)
(1.04569 -0.0394637 0)
(1.03991 -0.0443935 0)
(1.0337 -0.0491571 0)
(1.02708 -0.0536667 0)
(1.02026 -0.0577628 0)
(1.01432 -0.0612182 0)
(1.00973 -0.0639097 0)
(1.00622 -0.0661273 0)
(1.00339 -0.0682524 0)
(1.00089 -0.0706603 0)
(0.998099 -0.0727936 0)
(0.216239 -9.7403e-05 0)
(0.599693 0.00383554 0)
(0.899253 0.0128167 0)
(1.07826 0.0208684 0)
(1.14788 0.0236192 0)
(1.15466 0.0216213 0)
(1.14038 0.0174165 0)
(1.12479 0.0127245 0)
(1.11237 0.00803528 0)
(1.1026 0.00334281 0)
(1.09454 -0.00141314 0)
(1.08761 -0.00626387 0)
(1.08147 -0.0112238 0)
(1.07587 -0.0162994 0)
(1.07061 -0.0214919 0)
(1.06552 -0.0267977 0)
(1.06045 -0.0322064 0)
(1.05527 -0.0376982 0)
(1.04983 -0.0432412 0)
(1.04402 -0.0487855 0)
(1.03774 -0.0542621 0)
(1.03101 -0.0595925 0)
(1.02405 -0.0646072 0)
(1.01797 -0.0689224 0)
(1.01329 -0.0721942 0)
(1.0098 -0.0744999 0)
(1.0072 -0.0758989 0)
(1.00541 -0.0771772 0)
(1.00547 -0.0820989 0)
(1.00002 0.000672963 0)
(1.00001 0.000675973 0)
(1.00001 0.00067411 0)
(1.00001 0.000673239 9.75008e-22)
(1.00001 0.000674426 4.8627e-21)
(1.00001 0.000677491 -8.74997e-21)
(1.00001 0.000682271 4.85953e-21)
(1 0.000688645 -3.87191e-21)
(1 0.000696463 4.94674e-22)
(1 0.000705736 3.87019e-21)
(1 0.000716295 0)
(0.999999 0.000728125 -4.32749e-21)
(0.999998 0.000741106 4.91587e-22)
(0.999996 0.000755112 3.84213e-21)
(0.999995 0.00077012 0)
(0.999994 0.000785963 0)
(0.999992 0.000802602 -3.80623e-21)
(0.999991 0.000819898 3.80863e-21)
(0.99999 0.000837691 0)
(0.999989 0.000855978 -1.88893e-21)
(0.999988 0.000874576 2.00771e-21)
(0.999987 0.00089337 1.76082e-21)
(0.999986 0.000912304 -2.81547e-21)
(0.999986 0.000931201 9.07424e-22)
(0.999985 0.000949966 2.90809e-23)
(0.999984 0.000968528 -5.81265e-23)
(0.999984 0.000986714 8.08539e-22)
(0.999983 0.00100445 -9.24218e-22)
(0.999983 0.00102168 0)
(0.999983 0.00103813 0)
(0.999983 0.0010538 -2.2804e-22)
(0.999983 0.00106872 -2.27083e-22)
(0.999983 0.00108272 -3.83622e-21)
(0.999983 0.0010958 3.15727e-21)
(0.999983 0.00110782 -4.02626e-21)
(0.999984 0.00111876 4.0211e-21)
(0.999984 0.00112857 -3.10092e-21)
(0.999985 0.00113714 3.09967e-21)
(0.999986 0.00114448 4.39784e-22)
(0.999987 0.00115047 4.3764e-22)
(0.999988 0.00115512 -4.35463e-22)
(0.999989 0.00115838 0)
(0.99999 0.00116015 0)
(0.999992 0.0011605 0)
(0.999993 0.00115932 0)
(0.999995 0.00115678 0)
(0.999996 0.00115275 1.68589e-21)
(0.999998 0.00114639 -1.68304e-21)
(1 0.00113363 0)
(1.00008 0.00105071 0)
(1.00007 0.00105614 1.96745e-21)
(1.00005 0.00105879 -1.96075e-21)
(1.00003 0.00106553 -9.78786e-22)
(1.00002 0.00107751 -9.78833e-22)
(1 0.00109411 -2.92726e-21)
(0.99999 0.00111506 4.88685e-21)
(0.999976 0.00114032 0)
(0.999963 0.00116936 -4.86332e-22)
(0.99995 0.00120232 -9.71869e-22)
(0.999938 0.0012387 0)
(0.999927 0.0012784 4.83701e-22)
(0.999916 0.00132124 -4.33996e-21)
(0.999906 0.00136675 3.86063e-21)
(0.999896 0.00141493 0)
(0.999888 0.00146536 9.60498e-22)
(0.999879 0.00151782 0)
(0.999872 0.00157216 0)
(0.999865 0.00162784 0)
(0.999859 0.00168483 -1.89747e-21)
(0.999854 0.0017428 1.77976e-21)
(0.99985 0.00180137 -1.18379e-22)
(0.999846 0.0018604 0)
(0.999844 0.00191955 -4.39487e-22)
(0.999842 0.00197851 4.61562e-22)
(0.999841 0.00203709 8.7521e-23)
(0.99984 0.00209497 1.162e-22)
(0.999841 0.00215187 0)
(0.999842 0.0022076 -1.84308e-21)
(0.999845 0.00226185 1.84266e-21)
(0.999848 0.0023144 -3.42866e-21)
(0.999852 0.00236502 7.52713e-21)
(0.999856 0.00241344 -3.41409e-21)
(0.999861 0.00245949 4.52254e-22)
(0.999868 0.00250287 4.50316e-22)
(0.999874 0.00254344 4.48913e-22)
(0.999882 0.00258097 -4.46249e-22)
(0.99989 0.00261521 3.99158e-21)
(0.999899 0.00264609 -3.10132e-21)
(0.999909 0.00267325 -1.3202e-21)
(0.99992 0.00269666 4.80939e-21)
(0.999931 0.00271611 -3.49161e-21)
(0.999943 0.00273134 -1.73382e-21)
(0.999956 0.00274237 3.44245e-21)
(0.999969 0.00274879 -6.86298e-21)
(0.999983 0.00275079 3.4196e-21)
(0.999997 0.00274816 1.69416e-21)
(1.00001 0.00274009 -3.71092e-24)
(1.00003 0.00272156 0)
(1.00015 0.00118814 2.96103e-21)
(1.00011 0.00119666 -9.88355e-22)
(1.00006 0.00120799 -3.93919e-21)
(1.00002 0.00122633 1.96369e-21)
(0.999976 0.00125293 -1.96399e-21)
(0.999935 0.00128691 0)
(0.999895 0.00132798 -1.95429e-21)
(0.999858 0.00137623 -5.85354e-21)
(0.999822 0.00143056 5.85494e-21)
(0.999788 0.00149141 9.7188e-22)
(0.999756 0.00155782 0)
(0.999725 0.00162964 -5.81236e-21)
(0.999697 0.00170673 1.0713e-23)
(0.999671 0.00178808 3.86597e-21)
(0.999646 0.00187391 0)
(0.999624 0.0019634 -9.59915e-22)
(0.999604 0.00205617 -9.60222e-22)
(0.999586 0.00215219 0)
(0.99957 0.00225035 -9.5534e-22)
(0.999557 0.00235066 -1.89945e-21)
(0.999546 0.00245272 1.90002e-21)
(0.999537 0.00255573 -2.3744e-22)
(0.99953 0.00265956 -2.3611e-22)
(0.999526 0.00276371 0)
(0.999523 0.00286755 3.65411e-23)
(0.999524 0.00297085 -2.04428e-22)
(0.999526 0.00307315 0)
(0.999531 0.00317388 0)
(0.999538 0.00327275 -1.84395e-21)
(0.999547 0.00336935 1.84358e-21)
(0.999558 0.00346318 -3.6589e-21)
(0.999572 0.00355392 3.65766e-21)
(0.999587 0.00364117 0)
(0.999605 0.00372452 0)
(0.999624 0.0038036 0)
(0.999646 0.0038781 -8.96486e-22)
(0.99967 0.0039476 -1.78683e-21)
(0.999695 0.00401174 0)
(0.999723 0.00407033 -8.84004e-22)
(0.999752 0.00412281 -8.72508e-22)
(0.999784 0.00416909 2.63417e-21)
(0.999817 0.00420874 0)
(0.999852 0.00424138 3.46028e-21)
(0.999889 0.00426701 -5.18028e-21)
(0.999927 0.00428487 0)
(0.999967 0.00429518 0)
(1.00001 0.00429737 0)
(1.00005 0.0042906 -1.68887e-21)
(1.0001 0.00427085 -1.6782e-21)
(1.00018 0.00111115 -1.97848e-21)
(1.0001 0.00112753 3.96149e-21)
(1.00002 0.00115324 3.95424e-21)
(0.999936 0.00118876 5.91146e-21)
(0.999854 0.00123568 -1.97523e-21)
(0.999774 0.00129292 -3.92477e-21)
(0.999698 0.00136018 7.84782e-21)
(0.999625 0.00143777 -3.57276e-24)
(0.999555 0.00152382 -1.95233e-21)
(0.99949 0.00161924 1.95559e-21)
(0.999428 0.00172246 0)
(0.99937 0.00183333 1.94104e-21)
(0.999316 0.0019518 -1.92996e-21)
(0.999267 0.00207615 7.74363e-21)
(0.999221 0.00220694 -7.72572e-21)
(0.99918 0.00234287 5.79094e-21)
(0.999142 0.00248337 -9.67405e-22)
(0.99911 0.00262864 9.60942e-22)
(0.999081 0.0027768 9.54606e-22)
(0.999057 0.00292799 -9.55811e-22)
(0.999038 0.00308177 0)
(0.999023 0.00323678 -1.4196e-21)
(0.999012 0.00339297 1.18561e-21)
(0.999006 0.0035497 9.4354e-22)
(0.999004 0.00370592 4.39861e-23)
(0.999007 0.00386138 8.74813e-23)
(0.999014 0.00401553 1.39752e-21)
(0.999026 0.00416738 -9.30378e-22)
(0.999042 0.00431662 1.84678e-21)
(0.999062 0.00446273 -1.84646e-21)
(0.999087 0.00460488 0)
(0.999116 0.00474269 4.5637e-21)
(0.999149 0.00487559 -3.64704e-21)
(0.999186 0.00500295 3.61625e-21)
(0.999227 0.00512434 -3.61488e-21)
(0.999272 0.00523924 0)
(0.999321 0.00534706 3.56309e-21)
(0.999374 0.00544736 -1.78421e-21)
(0.99943 0.00553979 0)
(0.999491 0.00562361 3.51638e-21)
(0.999555 0.00569868 -3.51112e-21)
(0.999622 0.00576439 1.74336e-21)
(0.999693 0.0058202 1.7338e-21)
(0.999768 0.0058661 5.17339e-21)
(0.999846 0.00590103 6.94162e-24)
(0.999927 0.00592529 3.41951e-21)
(1.00001 0.00593788 1.69331e-21)
(1.0001 0.00593791 1.6824e-21)
(1.0002 0.00592272 1.67942e-21)
(1.00016 0.000781812 0)
(1.00004 0.000813466 -3.96723e-21)
(0.999905 0.000861239 -3.95851e-21)
(0.999769 0.000921754 0)
(0.999634 0.000997153 -3.94962e-21)
(0.999503 0.00108605 9.21657e-24)
(0.999377 0.00118812 7.90002e-21)
(0.999257 0.00130396 -1.97876e-21)
(0.999144 0.00143075 -9.60039e-24)
(0.999036 0.00157006 -5.88121e-21)
(0.998935 0.00171958 0)
(0.99884 0.00187915 -5.85954e-21)
(0.998753 0.0020489 1.958e-21)
(0.998671 0.00222621 0)
(0.998597 0.00241215 -1.94584e-21)
(0.99853 0.00260478 1.0576e-23)
(0.99847 0.00280336 -1.9294e-21)
(0.998418 0.00300842 6.7402e-21)
(0.998372 0.00321706 -1.18771e-23)
(0.998334 0.00342972 -9.68609e-22)
(0.998304 0.00364587 -9.54579e-22)
(0.998281 0.0038635 1.89968e-21)
(0.998265 0.00408269 -1.89994e-21)
(0.998257 0.00430262 -2.34784e-22)
(0.998256 0.00452177 4.86461e-22)
(0.998263 0.00473991 -2.62497e-22)
(0.998277 0.00495636 9.35001e-22)
(0.998298 0.00516969 -9.33075e-22)
(0.998327 0.00537957 9.2982e-22)
(0.998362 0.00558535 1.84396e-21)
(0.998405 0.00578582 -5.51528e-21)
(0.998455 0.00598061 -8.9944e-22)
(0.998512 0.00616892 5.4819e-21)
(0.998576 0.00634988 1.81829e-21)
(0.998646 0.00652302 -3.60598e-21)
(0.998723 0.0066876 3.60377e-21)
(0.998807 0.00684286 8.36878e-24)
(0.998896 0.00698827 5.34323e-21)
(0.998993 0.00712333 -3.56147e-21)
(0.999095 0.00724711 -8.82132e-21)
(0.999204 0.00735948 3.50824e-21)
(0.999318 0.00745956 1.74579e-21)
(0.999439 0.00754675 6.93132e-21)
(0.999565 0.00762103 -3.45597e-21)
(0.999697 0.00768101 -8.02964e-24)
(0.999834 0.00772715 -8.62025e-24)
(0.999979 0.00775802 0)
(1.00013 0.00777281 -3.37546e-21)
(1.00029 0.00777082 -3.35131e-21)
(1.00006 0.000151803 0)
(0.999888 0.000198505 -6.00573e-21)
(0.999692 0.000276439 5.99715e-21)
(0.99949 0.000372533 0)
(0.999288 0.00048697 0)
(0.999092 0.000618218 -3.96774e-21)
(0.998904 0.000766051 -3.05039e-24)
(0.998724 0.000931574 -3.96916e-21)
(0.998553 0.00111086 -9.78746e-24)
(0.998391 0.00130625 0)
(0.998239 0.00151447 0)
(0.998097 0.00173546 1.95895e-21)
(0.997965 0.00196952 0)
(0.997844 0.00221296 0)
(0.997733 0.00246749 -1.95178e-21)
(0.997633 0.00273044 3.91186e-21)
(0.997544 0.00300084 1.94917e-21)
(0.997465 0.00327967 0)
(0.997398 0.0035628 1.91706e-21)
(0.997342 0.00385104 -4.82198e-21)
(0.997297 0.00414378 -1.91941e-21)
(0.997263 0.00443821 -1.90921e-21)
(0.997241 0.00473464 1.90937e-21)
(0.99723 0.00503201 1.50739e-24)
(0.99723 0.00532827 1.48345e-23)
(0.997242 0.00562322 2.35359e-22)
(0.997265 0.00591604 -4.70343e-22)
(0.997299 0.00620476 0)
(0.997344 0.00648909 -9.28848e-22)
(0.9974 0.00676822 0)
(0.997467 0.0070405 0)
(0.997544 0.00730557 -1.84209e-21)
(0.997632 0.00756241 -7.30819e-21)
(0.99773 0.00780984 2.36053e-23)
(0.997839 0.00804739 1.81569e-21)
(0.997957 0.00827408 0)
(0.998086 0.00848895 -1.79006e-21)
(0.998224 0.0086914 -3.57234e-21)
(0.998371 0.00888075 3.54339e-21)
(0.998528 0.0090559 7.05823e-21)
(0.998694 0.0092167 -7.01856e-21)
(0.998869 0.00936205 4.00906e-24)
(0.999053 0.00949125 -3.4693e-21)
(0.999245 0.00960432 1.13539e-24)
(0.999446 0.00969952 0)
(0.999656 0.00977749 -3.41064e-21)
(0.999876 0.00983632 -1.69066e-21)
(1.00011 0.00987542 1.68938e-21)
(1.00035 0.00989719 3.35311e-21)
(0.999863 -0.000876225 0)
(0.99961 -0.000762598 4.01553e-21)
(0.999332 -0.000644339 -1.20732e-20)
(0.999047 -0.000515719 0)
(0.998774 -0.000351843 0)
(0.998498 -0.000164799 -8.01774e-21)
(0.998231 4.28007e-05 7.98554e-21)
(0.997976 0.00027269 -4.00617e-21)
(0.997733 0.000519262 -9.92581e-24)
(0.997503 0.000785951 3.97954e-21)
(0.997288 0.00106852 0)
(0.997086 0.00136705 0)
(0.996899 0.001682 3.96862e-21)
(0.996726 0.0020084 0)
(0.996569 0.00234876 0)
(0.996426 0.00269949 -3.92347e-21)
(0.9963 0.0030594 1.66709e-23)
(0.996189 0.00342995 0)
(0.996093 0.00380562 1.93686e-21)
(0.996014 0.00418767 4.84742e-21)
(0.995951 0.00457535 -1.94282e-21)
(0.995904 0.00496497 0)
(0.995874 0.00535708 -9.57287e-22)
(0.995859 0.00575035 1.19604e-21)
(0.995861 0.00614211 -5.21484e-22)
(0.995879 0.00653221 -2.3793e-22)
(0.995913 0.00691963 4.68174e-22)
(0.995963 0.00730186 -9.4183e-22)
(0.996029 0.00767857 0)
(0.996111 0.00804877 -3.72785e-21)
(0.996208 0.00841035 5.5571e-21)
(0.996321 0.00876292 1.82304e-21)
(0.996448 0.00910521 -7.70569e-24)
(0.996591 0.00943571 1.8212e-21)
(0.996748 0.00975391 -1.82948e-21)
(0.996919 0.0100586 -3.60489e-21)
(0.997104 0.0103485 7.18759e-21)
(0.997303 0.010623 -3.58012e-21)
(0.997516 0.0108813 7.1216e-21)
(0.997741 0.011122 8.47658e-24)
(0.99798 0.011345 7.0268e-21)
(0.998231 0.0115489 -3.48939e-21)
(0.998494 0.0117329 0)
(0.998769 0.0118972 1.64385e-24)
(0.999056 0.0120395 6.86011e-21)
(0.999355 0.0121609 0)
(0.999669 0.0122587 0)
(0.999998 0.0123328 5.88738e-21)
(1.00035 0.0123903 8.38465e-22)
(0.999521 -0.00238438 1.01463e-21)
(0.999178 -0.00222495 7.13741e-21)
(0.998798 -0.00202719 8.07471e-21)
(0.998409 -0.00177153 -8.14149e-21)
(0.998026 -0.00153474 0)
(0.99765 -0.00132262 -1.29611e-23)
(0.997289 -0.00104383 -4.07338e-21)
(0.996951 -0.000731877 -4.06078e-21)
(0.996622 -0.000399706 1.20869e-20)
(0.996308 -4.28098e-05 -4.01725e-21)
(0.996013 0.000333858 0)
(0.995737 0.000730038 8.0132e-21)
(0.99548 0.00114643 -7.96155e-21)
(0.995244 0.00157676 2.73043e-23)
(0.995028 0.00202449 7.93683e-21)
(0.994833 0.00248493 -1.99369e-21)
(0.99466 0.00295661 -1.93671e-21)
(0.994508 0.00344153 3.94047e-21)
(0.994377 0.00393257 0)
(0.994269 0.00443152 -1.94594e-21)
(0.994183 0.00493743 1.94854e-21)
(0.99412 0.00544562 1.93704e-21)
(0.994078 0.0059569 -1.93696e-21)
(0.994059 0.00646958 2.41894e-22)
(0.994063 0.00698036 2.98382e-23)
(0.994089 0.00748903 7.13973e-22)
(0.994137 0.00799437 -2.86806e-24)
(0.994208 0.00849324 0)
(0.9943 0.00898523 0)
(0.994414 0.00946912 -1.84988e-24)
(0.99455 0.00994228 -1.85012e-21)
(0.994707 0.0104042 3.71772e-21)
(0.994884 0.0108535 -3.68987e-21)
(0.995082 0.011288 3.65814e-21)
(0.995301 0.0117072 -7.31687e-21)
(0.995538 0.0121098 1.96487e-23)
(0.995795 0.0124941 3.61491e-21)
(0.996071 0.0128593 3.57471e-21)
(0.996365 0.0132044 -7.14433e-21)
(0.996676 0.0135279 -7.08705e-21)
(0.997005 0.0138296 -3.52913e-21)
(0.99735 0.014108 -3.50529e-21)
(0.997711 0.014362 0)
(0.998089 0.0145919 -3.44871e-21)
(0.998482 0.0147951 2.67903e-25)
(0.998892 0.0149729 6.80835e-21)
(0.99932 0.0151219 -8.4465e-21)
(0.999769 0.0152427 1.67318e-21)
(1.00025 0.0153488 0)
(0.998984 -0.00442096 0)
(0.998537 -0.00420094 -8.158e-21)
(0.998043 -0.00393073 0)
(0.997532 -0.00362557 8.14446e-21)
(0.997012 -0.00329649 4.08388e-21)
(0.996513 -0.00294292 -8.1666e-21)
(0.996031 -0.00251364 1.22057e-20)
(0.995571 -0.00210093 4.05163e-21)
(0.995132 -0.0017086 -4.04699e-21)
(0.994717 -0.00124484 0)
(0.994333 -0.000751183 4.04709e-21)
(0.993966 -0.000233514 -8.07012e-21)
(0.993623 0.000308837 4.05838e-21)
(0.993308 0.000868857 -4.00227e-21)
(0.993019 0.00145057 3.13357e-23)
(0.992758 0.00204788 4.00713e-21)
(0.992526 0.00265899 -7.98464e-21)
(0.992322 0.00328646 0)
(0.992147 0.00392146 3.9568e-21)
(0.992003 0.00456631 -3.95671e-21)
(0.991887 0.00521975 -9.78463e-22)
(0.991802 0.00587608 0)
(0.991747 0.00653628 9.81639e-22)
(0.991722 0.00719822 2.43059e-22)
(0.991728 0.00785792 -5.15086e-22)
(0.991764 0.00851501 7.22293e-22)
(0.99183 0.00916798 4.75664e-22)
(0.991926 0.00981303 -9.55614e-22)
(0.992052 0.0104495 0)
(0.992207 0.0110759 -1.88188e-21)
(0.992391 0.011689 3.76582e-21)
(0.992604 0.0122882 0)
(0.992845 0.0128715 1.84869e-21)
(0.993113 0.0134365 0)
(0.993409 0.0139824 3.65505e-21)
(0.99373 0.0145076 -7.28654e-21)
(0.994077 0.01501 3.60777e-21)
(0.994449 0.0154888 -2.20259e-23)
(0.994845 0.0159426 3.54254e-21)
(0.995263 0.0163696 -3.56009e-21)
(0.995704 0.0167699 3.51978e-21)
(0.996167 0.0171412 7.00681e-21)
(0.996651 0.0174827 0)
(0.997155 0.0177946 0)
(0.997679 0.0180739 -6.85543e-21)
(0.998224 0.0183222 -1.36071e-20)
(0.998793 0.0185353 1.35078e-20)
(0.999388 0.0187149 -7.5499e-21)
(1.00002 0.018883 7.48334e-21)
(0.998206 -0.00712302 0)
(0.997626 -0.00681958 8.32402e-21)
(0.99699 -0.00645275 8.31345e-21)
(0.996333 -0.0060559 1.24535e-20)
(0.995673 -0.0056195 -1.24486e-20)
(0.995025 -0.00514795 -4.12666e-21)
(0.994397 -0.00462925 1.24413e-20)
(0.993782 -0.00408238 -4.11826e-21)
(0.993206 -0.00351192 4.12288e-21)
(0.99266 -0.00286496 0)
(0.992148 -0.00222914 8.2693e-21)
(0.991666 -0.00159952 0)
(0.991218 -0.000905311 -4.06049e-21)
(0.990804 -0.000183988 -4.10698e-21)
(0.990425 0.000564091 5.52555e-23)
(0.990081 0.00133141 0)
(0.989774 0.00211616 4.05188e-21)
(0.989505 0.00292127 8.08835e-21)
(0.989273 0.00373606 0)
(0.989081 0.00456335 1.99504e-21)
(0.988928 0.00540139 -1.99437e-21)
(0.988815 0.00624341 -1.9782e-21)
(0.988742 0.00709048 1.99034e-21)
(0.98871 0.00793985 -4.43127e-24)
(0.988717 0.00878685 -4.89963e-22)
(0.988765 0.00963072 -2.15668e-22)
(0.988854 0.0104695 -4.84958e-22)
(0.988982 0.0112988 9.67991e-22)
(0.98915 0.0121173 0)
(0.989357 0.0129233 1.89725e-21)
(0.989603 0.0137127 -3.77892e-21)
(0.989888 0.0144846 0)
(0.990209 0.0152366 0)
(0.990568 0.0159656 3.69851e-21)
(0.990961 0.0166704 -7.37359e-21)
(0.991389 0.0173493 3.67346e-21)
(0.991851 0.0179995 3.64719e-21)
(0.992344 0.0186199 0)
(0.992869 0.0192091 1.07559e-20)
(0.993423 0.0197645 -7.11704e-21)
(0.994006 0.0202866 -3.53182e-21)
(0.994616 0.0207725 1.78784e-23)
(0.995252 0.0212212 -6.96555e-21)
(0.995914 0.0216334 -6.90352e-21)
(0.9966 0.0220052 -6.85211e-21)
(0.997312 0.022339 5.02422e-24)
(0.998053 0.0226293 -1.07744e-23)
(0.998828 0.0228793 0)
(0.999651 0.0231224 -1.3271e-20)
(0.997158 -0.0106439 0)
(0.996408 -0.0102363 2.19169e-21)
(0.995594 -0.00975246 -1.04028e-20)
(0.994753 -0.00923279 -8.31938e-21)
(0.99391 -0.00866402 8.31303e-21)
(0.993079 -0.00805174 4.24269e-21)
(0.992272 -0.00739439 -4.12483e-21)
(0.991491 -0.00668921 0)
(0.990746 -0.00594847 0)
(0.990036 -0.00515255 8.39942e-21)
(0.989358 -0.00433082 -8.26753e-21)
(0.98873 -0.00347857 4.15337e-21)
(0.988144 -0.00258153 -4.15202e-21)
(0.987602 -0.0016665 4.14843e-21)
(0.987105 -0.000718936 4.15547e-21)
(0.986653 0.000258034 -4.1194e-21)
(0.98625 0.00125856 -4.07182e-21)
(0.985896 0.00228481 -4.0557e-21)
(0.98559 0.00332423 4.06262e-21)
(0.985336 0.00438003 -4.06157e-21)
(0.985134 0.00544976 0)
(0.984983 0.00652558 2.02516e-21)
(0.984886 0.00760832 -1.99046e-21)
(0.984842 0.00869445 1.49115e-21)
(0.984851 0.00977846 0)
(0.984914 0.0108589 9.84723e-22)
(0.98503 0.0119332 0)
(0.9852 0.0129962 -9.66998e-22)