/*--------------------------------*- C++ -*----------------------------------*\
| =========                 |                                                 |
| \\      /  F ield         | OpenFOAM: The Open Source CFD Toolbox           |
|  \\    /   O peration     | Version:  2312                                  |
|   \\  /    A nd           | Website:  www.openfoam.com                      |
|    \\/     M anipulation  |                                                 |
\*---------------------------------------------------------------------------*/
FoamFile
{
    version     2.0;
    format      ascii;
    arch        "LSB;label=32;scalar=64";
    class       volScalarField;
    location    "7.85969367930012";
    object      p;
}
// * * * * * * * * * * * * * * * * * * * * * * * * * * * * * * * * * * * * * //

dimensions      [0 2 -2 0 0 0 0];

internalField   nonuniform List<scalar> 
21039
(
0.580784
0.446646
0.404835
0.376637
0.355414
0.339465
0.327176
0.317445
0.309588
0.303157
0.297835
0.293392
0.289658
0.286501
0.283821
0.281535
0.279577
0.277891
0.276431
0.275157
0.274035
0.273036
0.27213
0.271332
0.270644
0.270023
0.269435
0.268852
0.268265
0.433353
0.395641
0.38199
0.363655
0.347011
0.333862
0.32326
0.314578
0.307422
0.301482
0.296515
0.292337
0.288806
0.285808
0.283255
0.281073
0.279201
0.277589
0.276191
0.274971
0.273894
0.272932
0.272058
0.271282
0.270602
0.269984
0.269396
0.268814
0.268226
0.343884
0.341631
0.343901
0.337218
0.328905
0.321245
0.314138
0.307772
0.30222
0.297423
0.293292
0.289743
0.286696
0.28408
0.281834
0.279904
0.278243
0.276809
0.275567
0.274482
0.273525
0.272667
0.271885
0.271181
0.270553
0.269973
0.269415
0.268856
0.268289
0.30569
0.307863
0.312439
0.311461
0.308976
0.30589
0.302234
0.298479
0.294891
0.291571
0.288568
0.285892
0.283533
0.28147
0.279675
0.278121
0.276779
0.27562
0.274618
0.273747
0.272982
0.272298
0.271674
0.271105
0.270582
0.270085
0.269593
0.269088
0.26856
0.280444
0.284455
0.290464
0.292305
0.29265
0.292063
0.290681
0.288919
0.286996
0.28504
0.283148
0.281379
0.279767
0.278323
0.277049
0.275939
0.274981
0.274161
0.27346
0.272862
0.272347
0.271894
0.271485
0.271104
0.27073
0.270354
0.269952
0.269516
0.269044
0.260531
0.265822
0.273298
0.277312
0.279473
0.280432
0.280524
0.280129
0.27943
0.278553
0.277601
0.276646
0.275735
0.2749
0.274157
0.273514
0.272972
0.272526
0.272168
0.271886
0.271665
0.271491
0.271347
0.271198
0.27101
0.270777
0.27049
0.270141
0.269735
0.247459
0.252504
0.259721
0.264823
0.268209
0.270314
0.271505
0.272127
0.27236
0.272334
0.272155
0.271898
0.271615
0.271345
0.271113
0.270935
0.270819
0.270768
0.270779
0.270846
0.270959
0.271105
0.271269
0.271393
0.271431
0.271378
0.271236
0.271
0.270675
0.239825
0.243935
0.249789
0.254901
0.258781
0.261538
0.263462
0.264823
0.26577
0.266425
0.266885
0.267224
0.267495
0.26774
0.267989
0.268261
0.26857
0.268923
0.269321
0.269762
0.27024
0.270743
0.27126
0.271707
0.27201
0.272173
0.272204
0.272102
0.271877
0.234929
0.238129
0.242601
0.24726
0.251138
0.254119
0.256424
0.258247
0.259697
0.260868
0.261841
0.262678
0.26343
0.264138
0.264831
0.265533
0.266257
0.267015
0.267811
0.268645
0.269514
0.270409
0.271322
0.272138
0.272751
0.273168
0.273404
0.273464
0.273359
0.23112
0.233561
0.236981
0.241111
0.244804
0.247803
0.250272
0.252357
0.254135
0.255677
0.257044
0.258286
0.259447
0.260562
0.26166
0.262763
0.263888
0.265045
0.266243
0.267483
0.268766
0.270085
0.271434
0.272666
0.273636
0.274348
0.274826
0.275077
0.275115
0.227702
0.229532
0.232194
0.235815
0.239272
0.24222
0.244758
0.246992
0.248986
0.250793
0.252461
0.254029
0.255533
0.257003
0.258466
0.259941
0.261446
0.262994
0.264592
0.266246
0.267959
0.269727
0.271549
0.273243
0.274615
0.275668
0.276428
0.276903
0.277111
0.224368
0.225742
0.227865
0.23102
0.234231
0.237097
0.239653
0.241975
0.244116
0.246119
0.24802
0.249852
0.251644
0.253424
0.255213
0.257032
0.258896
0.26082
0.262812
0.264881
0.26703
0.269263
0.271585
0.273778
0.275597
0.277037
0.278121
0.278857
0.279264
0.220967
0.222019
0.223763
0.226518
0.229492
0.232259
0.2348
0.237168
0.239407
0.241554
0.243638
0.245684
0.24772
0.249768
0.251849
0.253981
0.256183
0.258466
0.26084
0.263314
0.265895
0.268593
0.271423
0.274136
0.276433
0.278297
0.279746
0.280782
0.28142
0.217441
0.218267
0.219737
0.222157
0.224913
0.227575
0.23008
0.232464
0.234766
0.237016
0.23924
0.24146
0.243698
0.245977
0.248317
0.250736
0.253252
0.255874
0.258612
0.261474
0.264469
0.267609
0.270919
0.274129
0.276896
0.279193
0.281029
0.282391
0.283291
0.213785
0.214448
0.215699
0.217824
0.220371
0.222924
0.225382
0.227762
0.230099
0.23242
0.234747
0.237101
0.239504
0.241978
0.244545
0.247224
0.250028
0.252969
0.256052
0.259283
0.262663
0.266198
0.269917
0.273526
0.276667
0.279327
0.281516
0.283204
0.284384
0.210321
0.21086
0.211934
0.213839
0.21622
0.218673
0.22108
0.223446
0.225799
0.228164
0.23056
0.233011
0.235539
0.23817
0.240925
0.243825
0.246883
0.25011
0.253509
0.257074
0.26079
0.264638
0.268612
0.272362
0.275544
0.278216
0.280456
0.282269
0.283638
0.207404
0.207857
0.208818
0.210584
0.212843
0.215212
0.217577
0.219935
0.222303
0.224701
0.22715
0.229675
0.232304
0.235064
0.237978
0.241069
0.244353
0.247842
0.251534
0.255415
0.259447
0.263564
0.267683
0.271314
0.274068
0.276081
0.277587
0.278819
0.280003
0.205006
0.2054
0.206282
0.207945
0.210112
0.212429
0.214786
0.217157
0.219549
0.221982
0.224483
0.227077
0.229801
0.232681
0.235745
0.239018
0.242524
0.246275
0.250271
0.254492
0.258883
0.263331
0.267655
0.27113
0.273138
0.273684
0.273009
0.271591
0.270529
0.203089
0.203523
0.204416
0.205973
0.207978
0.2102
0.212553
0.214962
0.217398
0.219879
0.22244
0.225115
0.22794
0.230946
0.234165
0.237629
0.241367
0.245398
0.249727
0.254337
0.259173
0.264104
0.268888
0.272565
0.274109
0.27298
0.268809
0.260969
0.249123
0.26768
0.267094
0.266515
0.265945
0.26538
0.264821
0.264266
0.263714
0.263164
0.262616
0.262069
0.261522
0.260973
0.260423
0.259871
0.259315
0.258756
0.258193
0.257625
0.257052
0.256474
0.25589
0.255302
0.254707
0.254107
0.253502
0.252891
0.252276
0.251655
0.25103
0.250401
0.249768
0.249133
0.248495
0.247855
0.247215
0.246574
0.245934
0.245296
0.24466
0.244028
0.243399
0.242776
0.242159
0.241548
0.240946
0.240351
0.239766
0.23919
0.267645
0.267067
0.266499
0.265938
0.265384
0.264835
0.264289
0.263747
0.263208
0.262669
0.262131
0.261593
0.261053
0.260511
0.259965
0.259417
0.258864
0.258305
0.257742
0.257173
0.256598
0.256016
0.255429
0.254835
0.254234
0.253627
0.253014
0.252396
0.251772
0.251143
0.250509
0.249871
0.249229
0.248584
0.247937
0.247288
0.246639
0.24599
0.245342
0.244695
0.244052
0.243413
0.242778
0.24215
0.241528
0.240914
0.240308
0.239712
0.239125
0.267728
0.267176
0.266632
0.266095
0.265564
0.265037
0.264513
0.263992
0.263471
0.262951
0.26243
0.261906
0.26138
0.26085
0.260315
0.259774
0.259228
0.258674
0.258114
0.257546
0.256969
0.256385
0.255793
0.255193
0.254584
0.253968
0.253343
0.252712
0.252073
0.251428
0.250777
0.250122
0.249461
0.248796
0.248127
0.247456
0.246783
0.24611
0.245437
0.244765
0.244095
0.243429
0.242767
0.242111
0.24146
0.240818
0.240183
0.239557
0.23894
0.26803
0.267516
0.267009
0.266507
0.266008
0.265512
0.265017
0.264523
0.264027
0.263529
0.263027
0.262521
0.26201
0.261492
0.260966
0.260433
0.25989
0.259338
0.258776
0.258204
0.257622
0.257028
0.256424
0.25581
0.255184
0.254549
0.253903
0.253248
0.252584
0.251912
0.251232
0.250544
0.24985
0.249151
0.248447
0.247739
0.247028
0.246316
0.245602
0.244889
0.244177
0.243467
0.242761
0.242059
0.241363
0.240672
0.239989
0.239314
0.238649
0.268578
0.268101
0.267641
0.267183
0.266726
0.266269
0.26581
0.265347
0.26488
0.264408
0.263929
0.263442
0.262946
0.26244
0.261923
0.261395
0.260854
0.2603
0.259732
0.259152
0.258556
0.257947
0.257324
0.256688
0.256037
0.255374
0.254697
0.254008
0.253308
0.252597
0.251875
0.251145
0.250406
0.249659
0.248906
0.248147
0.247384
0.246617
0.245848
0.245078
0.244308
0.243539
0.242772
0.242009
0.241249
0.240495
0.239747
0.239007
0.238275
0.269335
0.268947
0.268539
0.268137
0.267728
0.267314
0.266896
0.266472
0.266039
0.265597
0.265143
0.264678
0.264199
0.263706
0.263197
0.262671
0.26213
0.26157
0.260993
0.260398
0.259785
0.259153
0.258504
0.257837
0.257152
0.256451
0.255733
0.255
0.254252
0.25349
0.252716
0.251929
0.251131
0.250323
0.249507
0.248683
0.247852
0.247017
0.246177
0.245335
0.244491
0.243647
0.242803
0.241962
0.241124
0.24029
0.239461
0.238639
0.237826
0.270347
0.270033
0.269714
0.269389
0.269048
0.268654
0.268291
0.267915
0.267522
0.267115
0.266692
0.266251
0.265791
0.26531
0.264808
0.264285
0.26374
0.263171
0.262579
0.261965
0.261327
0.260666
0.259982
0.259276
0.258548
0.257799
0.257029
0.25624
0.255433
0.254608
0.253766
0.25291
0.252039
0.251156
0.250261
0.249356
0.248443
0.247522
0.246596
0.245665
0.244731
0.243795
0.242859
0.241923
0.240989
0.240059
0.239133
0.238213
0.237302
0.271641
0.271409
0.271161
0.270903
0.270637
0.270354
0.270053
0.269736
0.269372
0.269003
0.26861
0.268192
0.267748
0.267279
0.266783
0.26626
0.265708
0.265127
0.264516
0.263876
0.263207
0.26251
0.261783
0.261029
0.260248
0.259441
0.258608
0.257751
0.256871
0.25597
0.255048
0.254107
0.253148
0.252174
0.251185
0.250183
0.24917
0.248147
0.247116
0.246078
0.245036
0.243991
0.242943
0.241895
0.240849
0.239804
0.238763
0.237727
0.236702
0.273231
0.273105
0.27295
0.272776
0.272583
0.272368
0.27213
0.271872
0.271589
0.271272
0.270922
0.270545
0.270075
0.269627
0.269141
0.268616
0.268057
0.26746
0.266828
0.266158
0.265452
0.264711
0.263935
0.263124
0.262281
0.261405
0.260497
0.259561
0.258595
0.257603
0.256586
0.255545
0.254483
0.2534
0.252299
0.251182
0.250049
0.248905
0.24775
0.246587
0.245416
0.24424
0.243062
0.241881
0.240701
0.239522
0.238346
0.237176
0.236019
0.275116
0.27511
0.275065
0.274992
0.27489
0.274756
0.274591
0.27439
0.274154
0.27388
0.273568
0.273219
0.272828
0.272393
0.271912
0.271383
0.270815
0.270201
0.269543
0.26884
0.268094
0.267305
0.266472
0.265598
0.264684
0.26373
0.262738
0.26171
0.260646
0.259549
0.258421
0.257263
0.256078
0.254868
0.253634
0.252381
0.251107
0.249819
0.248517
0.247203
0.24588
0.24455
0.243215
0.241878
0.24054
0.239203
0.237868
0.236542
0.23523
0.277262
0.277392
0.277473
0.277515
0.277518
0.277481
0.277402
0.277277
0.277108
0.276891
0.276626
0.276313
0.275948
0.275534
0.27507
0.274554
0.273984
0.273359
0.272683
0.271953
0.27117
0.270334
0.269445
0.268506
0.267517
0.266478
0.265393
0.264263
0.263087
0.261871
0.260615
0.259321
0.257993
0.256632
0.255241
0.253825
0.252383
0.250922
0.249442
0.247947
0.246441
0.244924
0.243403
0.241877
0.24035
0.238825
0.237302
0.23579
0.234298
0.27959
0.279874
0.280097
0.280272
0.280398
0.280475
0.280499
0.28047
0.280386
0.280245
0.280047
0.27979
0.279473
0.279098
0.27866
0.278162
0.277601
0.276975
0.276287
0.275578
0.274763
0.273886
0.272945
0.271944
0.27088
0.269755
0.268571
0.267329
0.26603
0.264679
0.263275
0.261822
0.260325
0.258783
0.257204
0.25559
0.253942
0.252268
0.250569
0.248851
0.247118
0.245372
0.243619
0.241861
0.240103
0.238348
0.236596
0.234859
0.23315
0.281947
0.282404
0.28279
0.283121
0.283395
0.28361
0.283767
0.283862
0.283895
0.283864
0.283769
0.283607
0.283376
0.283078
0.282709
0.282269
0.281757
0.281171
0.280512
0.279772
0.278967
0.27808
0.277111
0.276064
0.274939
0.273732
0.27245
0.271092
0.269658
0.268153
0.266579
0.264937
0.263235
0.261473
0.259658
0.257796
0.255888
0.253943
0.251966
0.249962
0.247939
0.245899
0.243851
0.241798
0.239747
0.237701
0.235663
0.233647
0.23167
0.284046
0.284696
0.285272
0.285792
0.286253
0.286656
0.286998
0.287276
0.287492
0.287638
0.287715
0.287717
0.287643
0.287493
0.287259
0.286944
0.286541
0.286051
0.285475
0.284797
0.284026
0.283176
0.282213
0.28115
0.279983
0.278709
0.277334
0.275856
0.274271
0.27259
0.270812
0.268938
0.266979
0.264934
0.262814
0.260627
0.258373
0.256069
0.253718
0.25133
0.248917
0.246482
0.24404
0.241594
0.239156
0.236732
0.234324
0.231951
0.229635
0.285394
0.28625
0.287048
0.287811
0.288534
0.289219
0.289857
0.29044
0.290964
0.291414
0.29179
0.292079
0.29228
0.292392
0.292405
0.292321
0.292129
0.291833
0.291433
0.29091
0.290265
0.289494
0.288622
0.28759
0.286422
0.28511
0.283658
0.282059
0.28031
0.278421
0.276391
0.274223
0.271929
0.26951
0.26698
0.264349
0.261622
0.25882
0.255949
0.253026
0.250067
0.24708
0.244088
0.241097
0.238127
0.235187
0.232284
0.229443
0.22669
0.28486
0.285872
0.286928
0.288065
0.289249
0.290455
0.291639
0.29277
0.293827
0.294782
0.295636
0.296371
0.296992
0.297499
0.297883
0.298152
0.298291
0.298305
0.298193
0.297932
0.297527
0.296961
0.296218
0.295314
0.294218
0.292919
0.291421
0.289715
0.287792
0.285665
0.283332
0.280796
0.278074
0.275167
0.272096
0.268878
0.265517
0.262046
0.258474
0.254826
0.251125
0.247384
0.243638
0.239903
0.23621
0.232581
0.229033
0.225603
0.222327
0.281357
0.282409
0.28389
0.285792
0.287907
0.290081
0.292178
0.294134
0.295917
0.297507
0.298923
0.300162
0.301248
0.302194
0.302996
0.303674
0.30421
0.304611
0.304877
0.30497
0.304899
0.30464
0.304162
0.30347
0.30253
0.301318
0.299834
0.298062
0.295985
0.293621
0.290963
0.288018
0.28481
0.281342
0.277646
0.273743
0.269646
0.265398
0.26101
0.256517
0.251945
0.247312
0.242663
0.238017
0.233421
0.228917
0.224549
0.220392
0.216514
0.270333
0.271741
0.275403
0.279987
0.2845
0.288574
0.292089
0.295082
0.297634
0.299813
0.301712
0.303371
0.304849
0.306181
0.307373
0.308458
0.309416
0.310257
0.310977
0.311522
0.311895
0.312059
0.311966
0.311602
0.310931
0.309899
0.308502
0.306711
0.304501
0.30189
0.298873
0.295461
0.29169
0.287567
0.283144
0.278452
0.273514
0.268388
0.263093
0.257672
0.252154
0.246552
0.240906
0.235221
0.229539
0.223897
0.218374
0.213154
0.208503
0.240077
0.251121
0.264002
0.274674
0.282756
0.288774
0.2933
0.296826
0.299685
0.302081
0.304173
0.306028
0.307731
0.309322
0.310821
0.312265
0.313632
0.314936
0.316158
0.317232
0.318143
0.318836
0.319236
0.319317
0.319022
0.318283
0.317076
0.315347
0.313058
0.310233
0.306867
0.302979
0.298622
0.293817
0.288634
0.283125
0.277327
0.27132
0.265134
0.258825
0.252427
0.245951
0.239421
0.2328
0.226068
0.219155
0.211993
0.204644
0.197665
0.238633
0.238079
0.237522
0.236963
0.236398
0.235834
0.235306
0.234903
0.234679
0.234651
0.23487
0.235361
0.236162
0.237318
0.238881
0.240914
0.243494
0.24672
0.250715
0.255648
0.261741
0.269307
0.278792
0.290873
0.30665
0.327732
0.355822
0.39754
0.531597
0.238555
0.237985
0.23741
0.236828
0.236233
0.235633
0.235063
0.234614
0.234339
0.234269
0.234433
0.234863
0.235595
0.23667
0.238136
0.240049
0.242478
0.245509
0.249248
0.253833
0.259444
0.266317
0.274759
0.285159
0.298139
0.314644
0.33287
0.346432
0.384074
0.23834
0.237736
0.23712
0.236487
0.235829
0.235152
0.234487
0.233931
0.233546
0.233358
0.233391
0.233675
0.23424
0.235119
0.236349
0.237974
0.24004
0.242606
0.245735
0.249502
0.253988
0.259274
0.265414
0.272332
0.279834
0.288015
0.294594
0.292237
0.294422
0.237998
0.237337
0.236653
0.235939
0.235184
0.234388
0.233579
0.232861
0.232304
0.231932
0.231767
0.231829
0.232143
0.232729
0.233612
0.234814
0.236359
0.238267
0.240553
0.243223
0.246259
0.249607
0.253161
0.25665
0.259596
0.261967
0.262856
0.258202
0.255964
0.237554
0.236816
0.23604
0.235218
0.234332
0.233379
0.23238
0.231451
0.230676
0.230074
0.229661
0.229453
0.229464
0.229704
0.230184
0.230908
0.231876
0.233081
0.234502
0.236102
0.237813
0.239533
0.24113
0.242376
0.242854
0.242424
0.240521
0.234456
0.230387
0.237018
0.236182
0.235293
0.234336
0.233289
0.232142
0.230913
0.229733
0.228702
0.227835
0.227144
0.226637
0.226322
0.226199
0.226266
0.226516
0.226934
0.227493
0.228157
0.22887
0.229555
0.230101
0.230377
0.230194
0.229167
0.226962
0.222925
0.215424
0.210087
0.23639
0.235436
0.23441
0.233291
0.232052
0.230676
0.229179
0.227712
0.226393
0.225236
0.224246
0.223429
0.222782
0.222301
0.221975
0.221787
0.221712
0.221716
0.221753
0.221762
0.221662
0.22134
0.220659
0.219434
0.217316
0.21394
0.208866
0.201661
0.196583
0.235667
0.234574
0.233385
0.232076
0.230612
0.228971
0.227168
0.22538
0.223748
0.222282
0.220985
0.219855
0.218887
0.218068
0.217381
0.216803
0.216305
0.215845
0.215375
0.214831
0.214133
0.213174
0.211829
0.209941
0.20724
0.203438
0.198415
0.19261
0.188478
0.234839
0.233583
0.232204
0.230672
0.228948
0.227005
0.224859
0.22272
0.220755
0.218969
0.217364
0.215932
0.214662
0.213536
0.212532
0.211623
0.210775
0.209946
0.209085
0.208132
0.207017
0.20565
0.203932
0.201749
0.198905
0.195184
0.190683
0.186298
0.183085
0.233883
0.232434
0.230834
0.229044
0.227021
0.224736
0.222209
0.219692
0.217379
0.215272
0.213368
0.211653
0.210112
0.20872
0.207453
0.206277
0.205159
0.204055
0.202918
0.201696
0.200327
0.198743
0.196869
0.19462
0.191853
0.188408
0.18451
0.181212
0.178763
0.232751
0.231077
0.229218
0.227128
0.224762
0.222092
0.219147
0.216228
0.21356
0.21114
0.208956
0.206989
0.205217
0.203611
0.202139
0.200767
0.199458
0.198171
0.196862
0.195484
0.193987
0.192316
0.190411
0.188207
0.185599
0.182489
0.179177
0.176671
0.174834
0.231366
0.229425
0.22726
0.224821
0.222061
0.218958
0.215559
0.212224
0.209205
0.206491
0.204061
0.201887
0.199936
0.198174
0.196565
0.195069
0.193648
0.192261
0.190867
0.189424
0.187889
0.186216
0.184359
0.182261
0.179853
0.177096
0.174326
0.172387
0.171006
0.229596
0.227334
0.224806
0.221959
0.218749
0.215166
0.211286
0.207532
0.204186
0.201219
0.198595
0.196274
0.194211
0.192365
0.190692
0.189148
0.187692
0.186284
0.184883
0.18345
0.181947
0.180338
0.178584
0.176638
0.174454
0.172043
0.169745
0.168209
0.167145
0.227202
0.224552
0.221592
0.21827
0.214554
0.210458
0.206091
0.20195
0.19833
0.19518
0.192442
0.190059
0.187973
0.186128
0.184478
0.182968
0.181558
0.180204
0.178868
0.177512
0.176104
0.174611
0.173001
0.171236
0.169288
0.1672
0.165301
0.164053
0.16321
0.223806
0.220682
0.217213
0.213354
0.209096
0.204484
0.199675
0.195231
0.191441
0.18822
0.185485
0.183154
0.181154
0.179418
0.177884
0.176502
0.175222
0.174
0.172798
0.171582
0.17032
0.168986
0.16755
0.165983
0.164273
0.162492
0.160936
0.159909
0.159213
0.218924
0.215285
0.2113
0.206938
0.202222
0.197232
0.192159
0.187605
0.183833
0.180717
0.178144
0.176011
0.174227
0.172713
0.1714
0.170234
0.16916
0.168137
0.167125
0.166092
0.16501
0.163854
0.162603
0.161234
0.159746
0.15822
0.156923
0.156066
0.155473
0.212542
0.208398
0.204012
0.199348
0.194423
0.189324
0.184259
0.179836
0.176281
0.173438
0.171165
0.169341
0.167864
0.166646
0.165614
0.164712
0.163881
0.163082
0.162279
0.16144
0.160537
0.159551
0.158468
0.157278
0.155988
0.154666
0.153551
0.152815
0.152298
0.204028
0.199651
0.195333
0.190818
0.186054
0.181146
0.176337
0.172243
0.169056
0.166602
0.164719
0.163273
0.162153
0.161268
0.160542
0.159917
0.15934
0.158772
0.158177
0.157526
0.156793
0.155957
0.155009
0.153957
0.152825
0.151672
0.150708
0.150079
0.149626
0.192188
0.188898
0.185649
0.18181
0.177535
0.173048
0.168674
0.165044
0.162322
0.160324
0.158877
0.157837
0.15709
0.156544
0.156124
0.155771
0.155438
0.155087
0.154686
0.154207
0.153623
0.15291
0.152068
0.151146
0.150213
0.149292
0.148481
0.147884
0.147416
0.201157
0.201365
0.202082
0.203672
0.205874
0.2083
0.210775
0.21324
0.215714
0.218244
0.220873
0.223639
0.226577
0.22972
0.233106
0.23677
0.240746
0.24506
0.24972
0.254715
0.259994
0.265421
0.27071
0.274743
0.27615
0.273663
0.265703
0.250028
0.218456
0.199248
0.199581
0.200408
0.201979
0.204097
0.206453
0.208895
0.21137
0.213891
0.216495
0.219219
0.2221
0.225172
0.228475
0.232047
0.23593
0.240164
0.244782
0.249806
0.255242
0.261081
0.26725
0.273547
0.278943
0.282215
0.282536
0.279322
0.273954
0.278098
0.197317
0.197731
0.198636
0.200196
0.202245
0.204528
0.206918
0.209379
0.211922
0.214577
0.217373
0.220344
0.223527
0.226963
0.230698
0.234781
0.239264
0.244196
0.249626
0.255609
0.262225
0.269585
0.277825
0.286368
0.294653
0.302529
0.310814
0.317153
0.332978
0.19534
0.195727
0.196601
0.198143
0.200198
0.202489
0.204876
0.207334
0.209889
0.212573
0.215416
0.218451
0.221718
0.225261
0.229132
0.23339
0.238097
0.243328
0.249165
0.255726
0.2632
0.271935
0.282537
0.294745
0.308796
0.323838
0.341852
0.358567
0.380038
0.193322
0.193666
0.194484
0.195993
0.198049
0.200355
0.20275
0.205212
0.207774
0.210475
0.213348
0.216429
0.219759
0.223384
0.227363
0.231761
0.236657
0.242142
0.248336
0.255414
0.263652
0.273599
0.286355
0.301363
0.320059
0.340255
0.363451
0.389027
0.41729
0.191264
0.191584
0.192362
0.193829
0.195853
0.198141
0.200525
0.202979
0.205538
0.208243
0.21113
0.214234
0.2176
0.221277
0.225325
0.229819
0.234845
0.240514
0.246964
0.25443
0.263192
0.27394
0.288261
0.30453
0.325358
0.349328
0.376493
0.405537
0.435586
0.189164
0.189466
0.190214
0.191633
0.193604
0.195849
0.198199
0.200627
0.203165
0.205854
0.208731
0.211832
0.215201
0.21889
0.222961
0.227491
0.232573
0.238328
0.244894
0.252581
0.261502
0.272571
0.286912
0.305487
0.327089
0.351462
0.377548
0.404464
0.432299
0.187015
0.187297
0.188012
0.189378
0.191286
0.193472
0.195772
0.198155
0.200652
0.203302
0.206142
0.209209
0.212544
0.216199
0.220238
0.224736
0.229781
0.235512
0.242012
0.249779
0.258293
0.269602
0.284135
0.302648
0.323306
0.34569
0.368795
0.392119
0.415646
0.184816
0.185078
0.185757
0.187061
0.188895
0.191009
0.193242
0.195562
0.197996
0.200583
0.203358
0.206356
0.209617
0.21319
0.217136
0.221528
0.226434
0.232023
0.238239
0.245591
0.254352
0.265149
0.278854
0.295647
0.314029
0.333388
0.352964
0.372452
0.391135
0.182565
0.182807
0.183448
0.184685
0.186432
0.188458
0.190608
0.192845
0.195195
0.197694
0.200374
0.203268
0.206414
0.209855
0.213644
0.217857
0.222516
0.2278
0.233793
0.240693
0.248926
0.258747
0.270876
0.285246
0.300617
0.31635
0.331874
0.347235
0.361412
0.180261
0.180481
0.181081
0.182244
0.183895
0.185821
0.18787
0.190007
0.192252
0.194638
0.197195
0.199951
0.20294
0.206202
0.209773
0.213725
0.218108
0.223019
0.228579
0.234851
0.242111
0.250613
0.260787
0.272401
0.284389
0.29618
0.30739
0.318389
0.328275
0.177903
0.178101
0.178659
0.179744
0.18129
0.183102
0.185035
0.187051
0.18917
0.19142
0.193826
0.196414
0.199208
0.202245
0.205556
0.209199
0.213219
0.21766
0.222604
0.228072
0.234215
0.2412
0.249211
0.257891
0.266398
0.274307
0.281418
0.288267
0.294217
0.175495
0.175676
0.176194
0.177195
0.178624
0.180305
0.182103
0.18398
0.185953
0.188044
0.190275
0.192663
0.195231
0.198006
0.201012
0.204287
0.207858
0.21174
0.215964
0.220523
0.225467
0.230833
0.236597
0.242351
0.247539
0.251919
0.255467
0.258767
0.261427
0.173032
0.173197
0.173667
0.174579
0.175887
0.17743
0.179082
0.180807
0.182616
0.18453
0.186562
0.188727
0.191039
0.193516
0.196174
0.199031
0.202094
0.205357
0.208809
0.212399
0.216094
0.219821
0.223397
0.226431
0.228667
0.230053
0.230714
0.231232
0.231419
0.17052
0.17067
0.171095
0.171916
0.173094
0.174489
0.175983
0.17754
0.179173
0.180893
0.18271
0.184631
0.186663
0.188815
0.191091
0.193495
0.196016
0.198625
0.201277
0.203878
0.20633
0.208481
0.210043
0.210688
0.210443
0.209422
0.207862
0.206338
0.204854
0.167965
0.1681
0.168481
0.169209
0.170252
0.171488
0.172811
0.174192
0.175637
0.177152
0.178738
0.180397
0.182129
0.183935
0.185807
0.187735
0.189692
0.191629
0.193471
0.195096
0.196356
0.19705
0.196827
0.195452
0.193208
0.190342
0.187158
0.184231
0.181748
0.165369
0.165487
0.165819
0.166453
0.167359
0.168431
0.169582
0.170782
0.172031
0.173329
0.174673
0.176059
0.177479
0.178925
0.18038
0.181822
0.183208
0.184473
0.185521
0.186209
0.186361
0.185748
0.183992
0.180971
0.177186
0.172982
0.168674
0.164847
0.161864
0.162737
0.16284
0.163122
0.163659
0.164426
0.165335
0.166309
0.167324
0.168371
0.169447
0.170543
0.171649
0.172752
0.173834
0.17487
0.175826
0.176649
0.177259
0.177547
0.17736
0.176508
0.174752
0.171716
0.167404
0.162488
0.15737
0.152325
0.147955
0.144797
0.160076
0.160168
0.160403
0.16084
0.161465
0.162209
0.163006
0.163831
0.164674
0.165525
0.166371
0.167197
0.167982
0.168703
0.169325
0.169806
0.170083
0.170069
0.169644
0.168653
0.166903
0.164161
0.160077
0.154784
0.149078
0.143383
0.13789
0.133234
0.13013
0.157391
0.15747
0.157654
0.157991
0.158477
0.15906
0.159684
0.160323
0.160963
0.161591
0.16219
0.162739
0.163213
0.163581
0.163804
0.163831
0.163592
0.162994
0.161914
0.160196
0.157655
0.154072
0.149144
0.143129
0.136924
0.130936
0.125236
0.120514
0.117659
0.15469
0.154757
0.154891
0.155129
0.155479
0.155905
0.156358
0.156814
0.157257
0.157668
0.158028
0.15831
0.158485
0.158518
0.158365
0.157969
0.157256
0.156128
0.154462
0.152105
0.148882
0.144596
0.138998
0.132477
0.126005
0.119961
0.114262
0.109677
0.107285
0.151979
0.152037
0.152124
0.152266
0.152482
0.152753
0.153041
0.153321
0.153574
0.153777
0.153908
0.153937
0.153832
0.153553
0.153054
0.152273
0.151135
0.149541
0.147366
0.144465
0.140672
0.135808
0.129685
0.122812
0.116241
0.110322
0.104799
0.10055
0.0988712
0.149269
0.149321
0.149365
0.149412
0.149496
0.149616
0.149744
0.149856
0.149928
0.149936
0.149851
0.149645
0.14928
0.148717
0.147906
0.146786
0.145279
0.143289
0.140693
0.13735
0.133103
0.127785
0.121253
0.114119
0.107519
0.101813
0.0965721
0.0928273
0.0921518
0.146564
0.146608
0.146606
0.14656
0.146518
0.146497
0.146477
0.146434
0.146339
0.146165
0.145882
0.14546
0.144861
0.144044
0.142961
0.141551
0.139737
0.137428
0.134508
0.130839
0.126271
0.120637
0.113823
0.106488
0.0998473
0.094321
0.0893369
0.0861707
0.0867502
0.143874
0.143916
0.143872
0.143734
0.143568
0.14341
0.143252
0.143066
0.142819
0.14248
0.142019
0.141403
0.140597
0.139562
0.138249
0.136603
0.134551
0.132009
0.128871
0.12501
0.12028
0.114507
0.107573
0.100108
0.0933563
0.0878225
0.0828441
0.080159
0.0822509
0.141205
0.141235
0.14114
0.140909
0.140628
0.140352
0.140077
0.139769
0.139389
0.138903
0.138282
0.137496
0.136513
0.135294
0.133797
0.13197
0.12975
0.127063
0.123818
0.11991
0.115208
0.109536
0.102758
0.0953885
0.0885649
0.0827993
0.0772847
0.0746086
0.0784308
0.138587
0.138664
0.13856
0.138234
0.137804
0.137374
0.136965
0.136539
0.136042
0.13543
0.134675
0.133748
0.13262
0.131258
0.129624
0.127674
0.125357
0.122614
0.11938
0.115581
0.111109
0.105773
0.0993832
0.0923286
0.0855875
0.079602
0.0731529
0.0693109
0.0737448
0.162916
0.147476
0.126422
0.10074
0.0733216
0.0476676
0.0254337
0.00528956
-0.0139406
-0.0351336
-0.0597674
-0.0882497
-0.119521
-0.149692
-0.174507
-0.19105
-0.198978
-0.200312
-0.199001
0.169006
0.156134
0.135362
0.108231
0.0767799
0.0441855
0.0126574
-0.0190719
-0.0506236
-0.0849414
-0.121636
-0.161164
-0.200166
-0.235078
-0.262361
-0.280327
-0.289823
-0.293365
-0.294113
0.162571
0.150014
0.130312
0.1028
0.0686077
0.0304567
-0.00892003
-0.051146
-0.0932065
-0.140677
-0.188902
-0.237071
-0.282518
-0.321711
-0.351654
-0.371468
-0.382596
-0.387728
-0.389842
0.150188
0.137856
0.119569
0.09222
0.0559038
0.0129787
-0.0330778
-0.0857287
-0.141034
-0.198143
-0.255846
-0.312506
-0.364626
-0.408188
-0.440514
-0.461557
-0.47359
-0.479706
-0.482781
0.135815
0.123848
0.106838
0.0798951
0.0417481
-0.00723822
-0.0630573
-0.123849
-0.188056
-0.254228
-0.320881
-0.385109
-0.442404
-0.48866
-0.522035
-0.543547
-0.556207
-0.563217
-0.567096
0.119027
0.106936
0.0904001
0.0617827
0.0194446
-0.0339248
-0.0952448
-0.162443
-0.234135
-0.308692
-0.383185
-0.45338
-0.514289
-0.562287
-0.596571
-0.61902
-0.633063
-0.641788
-0.647301
0.0980894
0.0844239
0.0661344
0.0357819
-0.00880613
-0.0648171
-0.129733
-0.202272
-0.280409
-0.361441
-0.44115
-0.514285
-0.575768
-0.622778
-0.655633
-0.677001
-0.690627
-0.699368
-0.704989
0.0734412
0.057043
0.0361939
0.00408512
-0.0418475
-0.0998349
-0.167767
-0.244315
-0.326837
-0.411633
-0.493565
-0.566831
-0.62672
-0.671478
-0.702451
-0.722773
-0.736148
-0.745007
-0.75087
0.0465067
0.0270187
0.00330986
-0.0311553
-0.0790142
-0.139013
-0.209265
-0.288163
-0.372674
-0.458415
-0.539589
-0.610251
-0.666432
-0.707506
-0.735626
-0.754155
-0.766637
-0.775113
-0.780769
0.018521
-0.00394893
-0.0307544
-0.0682347
-0.118704
-0.180727
-0.252477
-0.332278
-0.416914
-0.501541
-0.579983
-0.646556
-0.698273
-0.735561
-0.761143
-0.778403
-0.790606
-0.799461
-0.805761
-0.00955402
-0.034741
-0.0647077
-0.105469
-0.158787
-0.222736
-0.295424
-0.37511
-0.458302
-0.539673
-0.612906
-0.672991
-0.718154
-0.749821
-0.771114
-0.785337
-0.795403
-0.802759
-0.807949
-0.0365944
-0.0640997
-0.0969651
-0.140728
-0.196616
-0.262156
-0.335268
-0.414004
-0.494508
-0.571134
-0.637882
-0.690829
-0.72946
-0.755945
-0.773507
-0.785157
-0.793342
-0.79931
-0.803437
-0.0613996
-0.0907338
-0.126007
-0.172138
-0.229962
-0.296516
-0.369486
-0.446669
-0.523894
-0.595457
-0.655976
-0.702684
-0.736079
-0.758758
-0.773842
-0.784016
-0.791346
-0.796969
-0.801018
-0.0830296
-0.113721
-0.150889
-0.198705
-0.257759
-0.324678
-0.396887
-0.471841
-0.545035
-0.61086
-0.664773
-0.705197
-0.733477
-0.752445
-0.765027
-0.77357
-0.779782
-0.784653
-0.788149
-0.100841
-0.132455
-0.171039
-0.219883
-0.279443
-0.346016
-0.416784
-0.488856
-0.557501
-0.617463
-0.665222
-0.700313
-0.72468
-0.741156
-0.752342
-0.760195
-0.76609
-0.770836
-0.774278
-0.11462
-0.14678
-0.186388
-0.235703
-0.295147
-0.360768
-0.429586
-0.498447
-0.562566
-0.617212
-0.659872
-0.690958
-0.712748
-0.727937
-0.738779
-0.746879
-0.753358
-0.758831
-0.762967
-0.124634
-0.156994
-0.197412
-0.246837
-0.305774
-0.370036
-0.436471
-0.501662
-0.560896
-0.610154
-0.647968
-0.67548
-0.69512
-0.709326
-0.719971
-0.728315
-0.735254
-0.741182
-0.745676
-0.131416
-0.163415
-0.204691
-0.254045
-0.312293
-0.375005
-0.438852
-0.500211
-0.554617
-0.598912
-0.632622
-0.657426
-0.675725
-0.689612
-0.700546
-0.70945
-0.717014
-0.723448
-0.728312
-0.134376
-0.16782
-0.209141
-0.258302
-0.315911
-0.377179
-0.438626
-0.496473
-0.546598
-0.586691
-0.617113
-0.639901
-0.657334
-0.67116
-0.682483
-0.69195
-0.700096
-0.707017
-0.712252
-0.135313
-0.169573
-0.211447
-0.260723
-0.318018
-0.378102
-0.437286
-0.491619
-0.537442
-0.573403
-0.600654
-0.621459
-0.637883
-0.651307
-0.662518
-0.671947
-0.680023
-0.686796
-0.691846
-0.134343
-0.169453
-0.212315
-0.262133
-0.319678
-0.379026
-0.436288
-0.487349
-0.529132
-0.561269
-0.585606
-0.604531
-0.61986
-0.632649
-0.643421
-0.652453
-0.660082
-0.666377
-0.671003
-0.131696
-0.168004
-0.21243
-0.263322
-0.321856
-0.38095