/*--------------------------------*- C++ -*----------------------------------*\
| =========                 |                                                 |
| \\      /  F ield         | OpenFOAM: The Open Source CFD Toolbox           |
|  \\    /   O peration     | Version:  2312                                  |
|   \\  /    A nd           | Website:  www.openfoam.com                      |
|    \\/     M anipulation  |                                                 |
\*---------------------------------------------------------------------------*/
FoamFile
{
    version     2.0;
    format      ascii;
    arch        "LSB;label=32;scalar=64";
    class       volVectorField;
    location    "89.415604195627537";
    object      U;
}
// * * * * * * * * * * * * * * * * * * * * * * * * * * * * * * * * * * * * * //

dimensions      [0 1 -1 0 0 0 0];

internalField   nonuniform List<vector> 
21039
(
(0.913785 0.0474703 0)
(1.02606 0.0665049 0)
(1.00449 0.0294694 0)
(1.00177 0.0188903 0)
(1.00121 0.013877 0)
(1.0008 0.0104912 0)
(1.00055 0.00815964 0)
(1.0004 0.00651148 0)
(1.00031 0.00529562 0)
(1.00024 0.00436818 0)
(1.00019 0.00364369 0)
(1.00015 0.00306714 0)
(1.00012 0.00260154 0)
(1.0001 0.00222131 0)
(1.00008 0.00190835 0)
(1.00007 0.00164956 0)
(1.00005 0.00143526 0)
(1.00004 0.0012582 0)
(1.00003 0.00111275 0)
(1.00003 0.000994411 0)
(1.00002 0.000899373 0)
(1.00002 0.000825651 0)
(1.00001 0.000774961 0)
(1.00001 0.000729551 0)
(1.00001 0.000694644 0)
(1.00001 0.000666816 0)
(1.00001 0.000641667 0)
(1.00001 0.000609144 0)
(1.00002 0.000547183 0)
(0.794606 0.0730836 0)
(1.0745 0.121688 0)
(1.03989 0.0708048 0)
(1.01812 0.0496769 0)
(1.0113 0.0382432 0)
(1.00766 0.0294446 0)
(1.0054 0.0231298 0)
(1.00397 0.018535 0)
(1.00302 0.0150596 0)
(1.00235 0.0123624 0)
(1.00187 0.0102267 0)
(1.00151 0.00850594 0)
(1.00123 0.00709925 0)
(1.00102 0.00593627 0)
(1.00084 0.00496675 0)
(1.0007 0.0041542 0)
(1.00058 0.0034717 0)
(1.00048 0.00289914 0)
(1.0004 0.00242126 0)
(1.00032 0.00202624 0)
(1.00025 0.00170432 0)
(1.0002 0.00144925 0)
(1.00015 0.00126513 0)
(1.00012 0.00112381 0)
(1.00011 0.00103204 0)
(1.00011 0.000971343 0)
(1.00011 0.000927184 0)
(1.00012 0.000880039 0)
(1.00013 0.000799426 0)
(0.667369 0.0572842 0)
(1.08305 0.124805 0)
(1.08438 0.0902675 0)
(1.04632 0.0676335 0)
(1.0291 0.0540915 0)
(1.02029 0.0431061 0)
(1.01474 0.0347738 0)
(1.01104 0.0283645 0)
(1.00849 0.0233053 0)
(1.00668 0.0192647 0)
(1.00535 0.015997 0)
(1.00435 0.0133196 0)
(1.00358 0.0111014 0)
(1.00297 0.00924691 0)
(1.00249 0.00768618 0)
(1.00209 0.00636729 0)
(1.00175 0.00525144 0)
(1.00146 0.0043094 0)
(1.00121 0.00351898 0)
(1.00099 0.00286318 0)
(1.0008 0.00232822 0)
(1.00062 0.00190407 0)
(1.00047 0.00159662 0)
(1.00036 0.00137402 0)
(1.0003 0.00123817 0)
(1.00028 0.00115381 0)
(1.00027 0.00109641 0)
(1.00028 0.00104052 0)
(1.00028 0.00095231 0)
(0.541061 0.0352685 0)
(1.0508 0.11084 0)
(1.11596 0.0970168 0)
(1.07617 0.0762524 0)
(1.0493 0.0620608 0)
(1.03534 0.0509222 0)
(1.0265 0.042216 0)
(1.02034 0.0351543 0)
(1.01593 0.0293343 0)
(1.0127 0.0245304 0)
(1.01029 0.0205381 0)
(1.00844 0.0171934 0)
(1.00701 0.0143719 0)
(1.00586 0.0119783 0)
(1.00493 0.0099393 0)
(1.00416 0.00819907 0)
(1.00351 0.00671471 0)
(1.00295 0.00545343 0)
(1.00246 0.00439006 0)
(1.00202 0.00350537 0)
(1.00163 0.00278401 0)
(1.00127 0.00221376 0)
(1.00095 0.00180194 0)
(1.00071 0.00151501 0)
(1.00056 0.00134693 0)
(1.00048 0.00124726 0)
(1.00045 0.00118302 0)
(1.00045 0.00112382 0)
(1.00045 0.00103114 0)
(0.444222 0.018672 0)
(0.997764 0.091903 0)
(1.12907 0.0956918 0)
(1.10152 0.0794812 0)
(1.06833 0.0654004 0)
(1.04987 0.0546887 0)
(1.03838 0.0462674 0)
(1.03018 0.0391943 0)
(1.02411 0.03318 0)
(1.01954 0.028075 0)
(1.01604 0.0237208 0)
(1.01331 0.0199891 0)
(1.01115 0.0167797 0)
(1.0094 0.0140122 0)
(1.00796 0.0116223 0)
(1.00676 0.00955918 0)
(1.00573 0.00778304 0)
(1.00483 0.00626281 0)
(1.00404 0.00497443 0)
(1.00332 0.00389944 0)
(1.00267 0.00302339 0)
(1.00208 0.00233388 0)
(1.00153 0.00184014 0)
(1.00112 0.001508 0)
(1.00085 0.00132226 0)
(1.00069 0.00121929 0)
(1.00062 0.00115893 0)
(1.0006 0.00110612 0)
(1.00059 0.00101555 0)
(0.378654 0.00810715 0)
(0.939682 0.0718929 0)
(1.12703 0.088377 0)
(1.12094 0.0786857 0)
(1.08563 0.0658954 0)
(1.0632 0.0558714 0)
(1.04945 0.0479669 0)
(1.03966 0.0411777 0)
(1.03226 0.0352698 0)
(1.02656 0.0301387 0)
(1.0221 0.0256639 0)
(1.01856 0.0217511 0)
(1.0157 0.0183251 0)
(1.01335 0.0153236 0)
(1.01139 0.0126958 0)
(1.00973 0.0104005 0)
(1.00829 0.00840533 0)
(1.00702 0.00668443 0)
(1.00588 0.00521792 0)
(1.00485 0.00399067 0)
(1.00389 0.00299125 0)
(1.00301 0.00220906 0)
(1.00219 0.0016563 0)
(1.00156 0.00129893 0)
(1.00114 0.00111189 0)
(1.00088 0.00101969 0)
(1.00076 0.000975902 0)
(1.00071 0.000941022 0)
(1.00067 0.000861639 0)
(0.333412 0.00233716 0)
(0.883321 0.0539001 0)
(1.11406 0.0779659 0)
(1.13401 0.0749185 0)
(1.10106 0.0643288 0)
(1.0755 0.0552127 0)
(1.05968 0.0479559 0)
(1.04858 0.0416262 0)
(1.04011 0.0359993 0)
(1.03348 0.0310035 0)
(1.02821 0.0265577 0)
(1.02395 0.0225993 0)
(1.02046 0.0190759 0)
(1.01755 0.015943 0)
(1.01509 0.0131639 0)
(1.01296 0.0107087 0)
(1.0111 0.00855375 0)
(1.00944 0.00668051 0)
(1.00793 0.0050751 0)
(1.00654 0.00372754 0)
(1.00524 0.00263109 0)
(1.00403 0.00177867 0)
(1.0029 0.00118653 0)
(1.00201 0.000821071 0)
(1.00141 0.000647409 0)
(1.00103 0.000579095 0)
(1.00084 0.000564066 0)
(1.00074 0.000559723 0)
(1.00067 0.00050408 0)
(0.301087 -0.000191006 0)
(0.831502 0.0396396 0)
(1.09382 0.0670891 0)
(1.14072 0.0695292 0)
(1.11409 0.0614665 0)
(1.08675 0.0533384 0)
(1.0691 0.0467345 0)
(1.05689 0.0409282 0)
(1.04758 0.0356708 0)
(1.04019 0.0309029 0)
(1.03424 0.0265775 0)
(1.02937 0.0226592 0)
(1.02532 0.0191166 0)
(1.0219 0.0159216 0)
(1.01896 0.0130512 0)
(1.01639 0.0104869 0)
(1.01411 0.00821431 0)
(1.01204 0.00622296 0)
(1.01015 0.00450602 0)
(1.00838 0.00305983 0)
(1.00671 0.00188365 0)
(1.00512 0.000975443 0)
(1.00363 0.000356901 0)
(1.00244 -7.63235e-06 0)
(1.00162 -0.000158313 0)
(1.00111 -0.000193795 0)
(1.00082 -0.000175111 0)
(1.00066 -0.000132889 0)
(1.00053 -0.000126842 0)
(0.278085 -0.000985538 0)
(0.785734 0.0291482 0)
(1.06956 0.0571048 0)
(1.14191 0.063554 0)
(1.12444 0.0579766 0)
(1.09685 0.0508251 0)
(1.07771 0.0447795 0)
(1.06458 0.0394496 0)
(1.0546 0.0345636 0)
(1.04662 0.030052 0)
(1.04012 0.0258872 0)
(1.03473 0.0220532 0)
(1.0302 0.0185347 0)
(1.02632 0.0153177 0)
(1.02294 0.0123915 0)
(1.01995 0.00974777 0)
(1.01726 0.00738138 0)
(1.0148 0.00529004 0)
(1.0125 0.00347436 0)
(1.01033 0.00193774 0)
(1.00826 0.000686453 0)
(1.00626 -0.000276319 0)
(1.00437 -0.000922504 0)
(1.00284 -0.00127851 0)
(1.00177 -0.00140008 0)
(1.00108 -0.00139674 0)
(1.00068 -0.00133149 0)
(1.00044 -0.00125353 0)
(1.00022 -0.00123856 0)
(0.261618 -0.00102932 0)
(0.746411 0.021719 0)
(1.04385 0.0484284 0)
(1.13887 0.0575513 0)
(1.13224 0.05424 0)
(1.10583 0.0480375 0)
(1.08561 0.0424445 0)
(1.07168 0.0374952 0)
(1.06117 0.0329274 0)
(1.05275 0.0286504 0)
(1.04581 0.0246434 0)
(1.04 0.0209013 0)
(1.03506 0.0174192 0)
(1.03078 0.0141939 0)
(1.02701 0.0112239 0)
(1.02363 0.00851007 0)
(1.02055 0.00605517 0)
(1.01769 0.0038647 0)
(1.01499 0.00194675 0)
(1.01241 0.000311981 0)
(1.00991 -0.00102665 0)
(1.00747 -0.00205762 0)
(1.00514 -0.00274418 0)
(1.00322 -0.00310645 0)
(1.00186 -0.00320748 0)
(1.00095 -0.0031661 0)
(1.00039 -0.00305145 0)
(1.00003 -0.00292439 0)
(0.999714 -0.00288471 0)
(0.249368 -0.000809068 0)
(0.713042 0.0165637 0)
(1.01829 0.0410817 0)
(1.13285 0.0518011 0)
(1.13783 0.0504373 0)
(1.11383 0.0451465 0)
(1.09295 0.0399298 0)
(1.07831 0.0352668 0)
(1.06737 0.0309463 0)
(1.05859 0.0268583 0)
(1.05132 0.0229802 0)
(1.04517 0.0193117 0)
(1.03989 0.0158546 0)
(1.03527 0.0126123 0)
(1.03115 0.00959048 0)
(1.02742 0.00679655 0)
(1.02397 0.00424033 0)
(1.02074 0.00193414 0)
(1.01764 -0.000107253 0)
(1.01463 -0.00186709 0)
(1.01169 -0.00332382 0)
(1.00878 -0.00445605 0)
(1.00596 -0.00521657 0)
(1.00361 -0.00561722 0)
(1.00189 -0.00572267 0)
(1.00073 -0.00565916 0)
(0.999966 -0.00550279 0)
(0.999438 -0.00532599 0)
(0.998968 -0.00525165 0)
(0.239814 -0.000548353 0)
(0.684798 0.0129971 0)
(0.99381 0.0349426 0)
(1.12482 0.0464468 0)
(1.14151 0.04667 0)
(1.12095 0.0422333 0)
(1.09986 0.0373427 0)
(1.08462 0.032887 0)
(1.0733 0.0287435 0)
(1.06424 0.0247914 0)
(1.0567 0.0210016 0)
(1.05029 0.0173745 0)
(1.04473 0.0139151 0)
(1.03982 0.0106312 0)
(1.03541 0.00753285 0)
(1.03136 0.00463267 0)
(1.02757 0.00194588 0)
(1.02397 -0.000510384 0)
(1.02049 -0.00271596 0)
(1.01706 -0.00464625 0)
(1.01365 -0.0062712 0)
(1.01025 -0.00756066 0)
(1.0069 -0.00845569 0)
(1.00406 -0.00895319 0)
(1.00194 -0.00911116 0)
(1.00046 -0.00906235 0)
(0.999428 -0.00889003 0)
(0.998668 -0.00867853 0)
(0.997987 -0.00857445 0)
(0.232084 -0.000337669 0)
(0.660852 0.0104819 0)
(0.970888 0.0298334 0)
(1.11553 0.0415469 0)
(1.14361 0.0430047 0)
(1.12724 0.039347 0)
(1.10643 0.034748 0)
(1.09071 0.0304366 0)
(1.07904 0.0264055 0)
(1.06976 0.0225355 0)
(1.06201 0.018789 0)
(1.05539 0.0151639 0)
(1.04962 0.011666 0)
(1.04448 0.00830496 0)
(1.03981 0.0050937 0)
(1.03548 0.00204807 0)
(1.0314 -0.000814195 0)
(1.02746 -0.00347183 0)
(1.02361 -0.00589846 0)
(1.01976 -0.00806267 0)
(1.01589 -0.0099276 0)
(1.01197 -0.0114551 0)
(1.00806 -0.0125753 0)
(1.00469 -0.0132634 0)
(1.00212 -0.0135575 0)
(1.00024 -0.0135926 0)
(0.998869 -0.0134579 0)
(0.997793 -0.0132502 0)
(0.99682 -0.0131393 0)
(0.225668 -0.000195167 0)
(0.64048 0.00864435 0)
(0.949747 0.0255719 0)
(1.10556 0.0371042 0)
(1.14443 0.0394824 0)
(1.13281 0.0365203 0)
(1.11272 0.0321887 0)
(1.09666 0.0279741 0)
(1.0847 0.0239997 0)
(1.07523 0.0201612 0)
(1.06733 0.016413 0)
(1.06056 0.0127478 0)
(1.05463 0.00917021 0)
(1.04931 0.00568995 0)
(1.04444 0.00232059 0)
(1.03989 -0.000921845 0)
(1.03554 -0.00401773 0)
(1.03131 -0.00694154 0)
(1.02711 -0.00966198 0)
(1.02288 -0.0121421 0)
(1.01855 -0.0143399 0)
(1.0141 -0.0162115 0)
(1.00962 -0.017679 0)
(1.00569 -0.0186921 0)
(1.00262 -0.0192536 0)
(1.00028 -0.0194903 0)
(0.998464 -0.0194909 0)
(0.99696 -0.0193636 0)
(0.995584 -0.0192981 0)
(0.220242 -0.000110965 0)
(0.62307 0.00725407 0)
(0.930443 0.0220261 0)
(1.09531 0.0331234 0)
(1.14419 0.0361422 0)
(1.13766 0.0337768 0)
(1.11871 0.0296889 0)
(1.10249 0.025537 0)
(1.09028 0.0215747 0)
(1.08066 0.0177234 0)
(1.07266 0.0139314 0)
(1.06579 0.0101854 0)
(1.05975 0.00648659 0)
(1.0543 0.00284281 0)
(1.04929 -0.000734477 0)
(1.04457 -0.0042302 0)
(1.04002 -0.00762318 0)
(1.03553 -0.0108852 0)
(1.03103 -0.0139811 0)
(1.02643 -0.0168694 0)
(1.02166 -0.0195039 0)
(1.01672 -0.021838 0)
(1.0117 -0.0237935 0)
(1.00726 -0.0253046 0)
(1.00371 -0.0263293 0)
(1.0009 -0.026972 0)
(0.998574 -0.0273003 0)
(0.996528 -0.0274139 0)
(0.994614 -0.0274991 0)
(0.215969 -5.49749e-05 0)
(0.60921 0.00625401 0)
(0.914248 0.0192736 0)
(1.08594 0.0298308 0)
(1.14334 0.0332504 0)
(1.14167 0.0313594 0)
(1.12409 0.0274813 0)
(1.10787 0.02337 0)
(1.09549 0.0193925 0)
(1.08577 0.0155003 0)
(1.07773 0.0116375 0)
(1.07083 0.0077835 0)
(1.06474 0.00393493 0)
(1.05925 9.50844e-05 0)
(1.05417 -0.0037288 0)
(1.04936 -0.00752383 0)
(1.04468 -0.0112697 0)
(1.04003 -0.0149378 0)
(1.0353 -0.0184913 0)
(1.0304 -0.021884 0)
(1.02528 -0.0250626 0)
(1.0199 -0.027974 0)
(1.01441 -0.030535 0)
(1.00956 -0.0326706 0)
(1.00568 -0.0343176 0)
(1.00251 -0.0355806 0)
(0.999722 -0.0364948 0)
(0.997054 -0.0371022 0)
(0.994403 -0.0375199 0)
(0.212812 -2.16134e-05 0)
(0.599008 0.00557187 0)
(0.901843 0.0172925 0)
(1.07828 0.0273452 0)
(1.14227 0.0310002 0)
(1.1447 0.0294594 0)
(1.12848 0.0257448 0)
(1.11238 0.0216595 0)
(1.0999 0.0176591 0)
(1.09014 0.0137213 0)
(1.08209 0.00978572 0)
(1.0752 0.00582438 0)
(1.06913 0.00182813 0)
(1.06366 -0.00220519 0)
(1.05858 -0.00627364 0)
(1.05376 -0.0103689 0)
(1.04905 -0.0144746 0)
(1.04432 -0.0185662 0)
(1.03947 -0.0226086 0)
(1.0344 -0.0265537 0)
(1.02902 -0.0303411 0)
(1.02332 -0.0339052 0)
(1.01748 -0.0371365 0)
(1.01235 -0.0399197 0)
(1.00833 -0.0421884 0)
(1.00509 -0.0441287 0)
(1.00219 -0.0458577 0)
(0.999254 -0.0474037 0)
(0.996147 -0.0486086 0)
(0.210362 2.55912e-05 0)
(0.591178 0.00510658 0)
(0.892042 0.0158506 0)
(1.07188 0.025456 0)
(1.14109 0.0292488 0)
(1.14703 0.0279754 0)
(1.13208 0.0243995 0)
(1.11616 0.0203436 0)
(1.10362 0.0163294 0)
(1.09383 0.0123557 0)
(1.08581 0.00835875 0)
(1.07897 0.00430432 0)
(1.07295 0.000177615 0)
(1.06753 -0.00402937 0)
(1.06251 -0.00832063 0)
(1.05773 -0.0126941 0)
(1.05304 -0.0171408 0)
(1.04832 -0.0216436 0)
(1.04344 -0.026174 0)
(1.03828 -0.030688 0)
(1.03275 -0.035123 0)
(1.02683 -0.039404 0)
(1.0207 -0.0433798 0)
(1.01532 -0.0468142 0)
(1.01119 -0.0495518 0)
(1.00805 -0.0518454 0)
(1.00554 -0.0540577 0)
(1.00336 -0.0565799 0)
(1.00093 -0.0588464 0)
(0.208783 1.75853e-05 0)
(0.58577 0.00474341 0)
(0.885045 0.0148201 0)
(1.06721 0.0241149 0)
(1.14023 0.02799 0)
(1.14883 0.0268718 0)
(1.13492 0.0233676 0)
(1.11919 0.0193275 0)
(1.10665 0.0153098 0)
(1.09688 0.0113146 0)
(1.08891 0.00727054 0)
(1.08213 0.00313872 0)
(1.0762 -0.0010994 0)
(1.07086 -0.005457 0)
(1.06593 -0.00994467 0)
(1.06124 -0.0145682 0)
(1.05665 -0.0193283 0)
(1.05201 -0.0242183 0)
(1.04719 -0.029221 0)
(1.04207 -0.0343032 0)
(1.03655 -0.0394122 0)
(1.03059 -0.0444851 0)
(1.02439 -0.0493615 0)
(1.01896 -0.0536524 0)
(1.01478 -0.0569738 0)
(1.0117 -0.0593526 0)
(1.00947 -0.0608074 0)
(1.0081 -0.0620375 0)
(1.00846 -0.0669983 0)
(1.00002 0.000552434 0)
(1.00002 0.000550547 0)
(1.00002 0.000543936 0)
(1.00001 0.000538386 1.00344e-21)
(1.00001 0.000534936 5.00695e-21)
(1.00001 0.000533409 -9.01136e-21)
(1.00001 0.00053365 5.00567e-21)
(1.00001 0.000535534 -3.99103e-21)
(1.00001 0.000538924 5.08513e-22)
(1.00001 0.000543826 3.9907e-21)
(1 0.000550078 0)
(1 0.000557673 -4.46726e-21)
(1 0.000566487 5.05945e-22)
(0.999999 0.000576405 3.96796e-21)
(0.999998 0.000587403 0)
(0.999997 0.000599319 0)
(0.999995 0.000612122 -3.93771e-21)
(0.999994 0.000625668 3.94019e-21)
(0.999993 0.000639805 0)
(0.999992 0.000654536 -1.95695e-21)
(0.999991 0.000669676 2.08003e-21)
(0.99999 0.000685113 1.82609e-21)
(0.999989 0.000700799 -2.92029e-21)
(0.999988 0.000716552 9.41528e-22)
(0.999987 0.000732281 3.02062e-23)
(0.999986 0.000747921 -6.03826e-23)
(0.999986 0.000763303 8.40801e-22)
(0.999985 0.000778374 -9.61038e-22)
(0.999985 0.00079295 0)
(0.999985 0.0008069 0)
(0.999985 0.000820306 -2.37559e-22)
(0.999984 0.000833052 -2.36705e-22)
(0.999984 0.00084503 -4.00253e-21)
(0.999984 0.000856227 3.29408e-21)
(0.999985 0.000866513 -4.20603e-21)
(0.999985 0.000875831 4.20094e-21)
(0.999985 0.000884153 -3.24385e-21)
(0.999986 0.00089135 3.24223e-21)
(0.999987 0.000897425 4.60477e-22)
(0.999988 0.000902277 4.58539e-22)
(0.999989 0.00090589 -4.56567e-22)
(0.99999 0.000908248 0)
(0.999991 0.00090926 0)
(0.999992 0.00090898 0)
(0.999993 0.000907307 0)
(0.999995 0.000904407 0)
(0.999996 0.000900559 1.77577e-21)
(0.999997 0.000894249 -1.77295e-21)
(0.999999 0.000881343 0)
(1.00012 0.000797198 0)
(1.00011 0.000789045 2.02324e-21)
(1.00009 0.000778295 -2.0176e-21)
(1.00007 0.000771733 -1.00734e-21)
(1.00006 0.000770482 -1.00775e-21)
(1.00004 0.000773939 -3.01515e-21)
(1.00003 0.000781865 5.03319e-21)
(1.00001 0.0007942 0)
(1 0.000810457 -5.01389e-22)
(0.999987 0.00083077 -1.0021e-21)
(0.999974 0.000854663 0)
(0.999962 0.000882052 4.99248e-22)
(0.999951 0.000912756 -4.48184e-21)
(0.99994 0.000946326 3.98692e-21)
(0.99993 0.000982777 0)
(0.99992 0.00102168 9.92816e-22)
(0.999911 0.00106286 0)
(0.999903 0.00110613 0)
(0.999895 0.00115101 0)
(0.999888 0.00119746 -1.96578e-21)
(0.999882 0.00124515 1.8438e-21)
(0.999877 0.00129371 -1.22691e-22)
(0.999872 0.00134303 0)
(0.999869 0.00139275 -4.56259e-22)
(0.999866 0.00144258 4.79171e-22)
(0.999864 0.00149234 9.0928e-23)
(0.999863 0.00154172 1.20806e-22)
(0.999862 0.00159044 0)
(0.999863 0.00163832 -1.91882e-21)
(0.999864 0.00168503 1.91838e-21)
(0.999866 0.00173038 -3.57391e-21)
(0.999868 0.00177414 7.84831e-21)
(0.999872 0.00181601 -3.56065e-21)
(0.999876 0.00185581 4.72098e-22)
(0.999881 0.00189329 4.70331e-22)
(0.999887 0.00192833 4.69041e-22)
(0.999893 0.00196072 -4.66633e-22)
(0.9999 0.00199021 4.17772e-21)
(0.999908 0.00201672 -3.24598e-21)
(0.999917 0.00203993 -1.38323e-21)
(0.999926 0.00205977 5.04408e-21)
(0.999936 0.00207606 -3.66269e-21)
(0.999947 0.00208853 -1.82082e-21)
(0.999959 0.00209706 3.61925e-21)
(0.99997 0.00210127 -7.218e-21)
(0.999983 0.00210143 3.59776e-21)
(0.999996 0.0020974 1.78496e-21)
(1.00001 0.00208822 -3.23483e-24)
(1.00002 0.00206889 0)
(1.00026 0.000937297 3.04316e-21)
(1.00022 0.000924268 -1.0161e-21)
(1.00017 0.000914303 -4.05052e-21)
(1.00013 0.000911497 2.02059e-21)
(1.00009 0.000916997 -2.02063e-21)
(1.00004 0.000929976 0)
(1 0.000950165 -2.0129e-21)
(0.999965 0.000977651 -6.03035e-21)
(0.999928 0.00101139 6.03256e-21)
(0.999893 0.00105181 1.00212e-21)
(0.999859 0.00109799 0)
(0.999827 0.0011498 -5.99713e-21)
(0.999797 0.00120711 9.43287e-24)
(0.999769 0.00126896 3.99119e-21)
(0.999743 0.00133555 0)
(0.999719 0.00140611 -9.92245e-22)
(0.999696 0.00148027 -9.9259e-22)
(0.999676 0.001558 0)
(0.999658 0.00163824 -9.88489e-22)
(0.999643 0.001721 -1.96732e-21)
(0.999629 0.00180589 1.96792e-21)
(0.999617 0.00189215 -2.45959e-22)
(0.999608 0.00197963 -2.44807e-22)
(0.999601 0.00206787 0)
(0.999596 0.00215627 3.79466e-23)
(0.999594 0.00224457 -2.12331e-22)
(0.999594 0.00233234 0)
(0.999595 0.00241903 0)
(0.9996 0.00250436 -1.9194e-21)
(0.999606 0.00258791 1.91903e-21)
(0.999614 0.00266921 -3.81333e-21)
(0.999625 0.00274794 3.81205e-21)
(0.999637 0.00282369 0)
(0.999651 0.00289608 0)
(0.999668 0.00296473 0)
(0.999686 0.00302934 -9.37116e-22)
(0.999707 0.0030895 -1.86873e-21)
(0.999729 0.00314484 0)
(0.999753 0.00319518 -9.25929e-22)
(0.99978 0.00323996 -9.15844e-22)
(0.999808 0.00327909 2.76148e-21)
(0.999838 0.00331217 0)
(0.999869 0.00333878 3.63578e-21)
(0.999903 0.00335892 -5.44351e-21)
(0.999938 0.00337186 0)
(0.999974 0.0033778 0)
(1.00001 0.00337618 0)
(1.00005 0.00336616 -1.78024e-21)
(1.0001 0.00334371 -1.77042e-21)
(1.0004 0.00100573 -2.03293e-21)
(1.00032 0.000993432 4.06903e-21)
(1.00023 0.000990848 4.06305e-21)
(1.00015 0.000998163 6.07824e-21)
(1.00007 0.00101682 -2.03031e-21)
(0.999985 0.00104587 -4.03858e-21)
(0.999907 0.001085 8.07684e-21)
(0.999833 0.00113455 -3.19373e-24)
(0.999761 0.00119273 -2.01131e-21)
(0.999694 0.0012604 2.01411e-21)
(0.99963 0.00133611 0)
(0.999569 0.00141968 2.00202e-21)
(0.999512 0.00151108 -1.99245e-21)
(0.99946 0.00160869 7.99147e-21)
(0.999411 0.00171302 -7.9765e-21)
(0.999366 0.00182285 5.98001e-21)
(0.999325 0.00193762 -9.98755e-22)
(0.999289 0.00205754 9.93173e-22)
(0.999256 0.00218081 9.87706e-22)
(0.999228 0.00230754 -9.88866e-22)
(0.999205 0.00243732 0)
(0.999185 0.00256886 -1.47114e-21)
(0.99917 0.00270208 1.22824e-21)
(0.999159 0.00283636 9.78329e-22)
(0.999153 0.00297073 4.56504e-23)
(0.999151 0.0031049 9.087e-23)
(0.999153 0.00323834 1.45211e-21)
(0.999159 0.00337013 -9.66919e-22)
(0.99917 0.00349992 1.92166e-21)
(0.999185 0.00362721 -1.92134e-21)
(0.999204 0.00375119 0)
(0.999228 0.00387149 4.75737e-21)
(0.999255 0.00398755 -3.80225e-21)
(0.999286 0.00409876 3.77516e-21)
(0.999322 0.00420466 -3.77376e-21)
(0.999361 0.00430477 0)
(0.999404 0.0043985 3.72785e-21)
(0.999451 0.0044854 -1.86608e-21)
(0.999501 0.00456514 0)
(0.999556 0.00463696 3.68612e-21)
(0.999613 0.00470076 -3.68093e-21)
(0.999675 0.0047559 1.82956e-21)
(0.99974 0.00480185 1.82104e-21)
(0.999809 0.00483862 5.43753e-21)
(0.99988 0.00486512 5.92906e-24)
(0.999956 0.00488167 3.59819e-21)
(1.00003 0.00488726 1.78448e-21)
(1.00012 0.00488104 1.77451e-21)
(1.00021 0.0048604 1.77178e-21)
(1.0005 0.000985259 0)
(1.00038 0.00098186 -4.07434e-21)
(1.00024 0.000995495 -4.0666e-21)
(1.00011 0.00102173 0)
(0.99997 0.00106251 -4.05913e-21)
(0.999838 0.00111671 8.15464e-24)
(0.999711 0.00118403 8.12061e-21)
(0.999589 0.0012651 -2.03346e-21)
(0.999473 0.00135726 -8.40896e-24)
(0.999363 0.00146196 -6.05417e-21)
(0.999259 0.00157708 0)
(0.999161 0.00170241 -6.03658e-21)
(0.99907 0.00183812 2.0165e-21)
(0.998985 0.00198173 0)
(0.998906 0.0021342 -2.00637e-21)
(0.998835 0.00229376 9.27573e-24)
(0.99877 0.00245965 -1.99249e-21)
(0.998712 0.00263239 6.96282e-21)
(0.998661 0.00280926 -1.02882e-23)
(0.998617 0.00299058 -9.99821e-22)
(0.99858 0.0031759 -9.87594e-22)
(0.998551 0.00336331 1.9672e-21)
(0.998528 0.00355282 -1.9675e-21)
(0.998513 0.00374368 -2.43575e-22)
(0.998505 0.00393443 5.04347e-22)
(0.998505 0.0041248 -2.72612e-22)
(0.998511 0.00431416 9.7084e-22)
(0.998525 0.00450113 -9.6913e-22)
(0.998546 0.00468534 9.66358e-22)
(0.998574 0.00486619 1.91891e-21)
(0.998608 0.00504251 -5.74203e-21)
(0.99865 0.00521387 -9.39714e-22)
(0.998698 0.00537956 5.71265e-21)
(0.998753 0.00553868 1.89629e-21)
(0.998815 0.00569075 -3.76556e-21)
(0.998883 0.0058351 3.76328e-21)
(0.998958 0.00597091 7.32092e-24)
(0.999039 0.00609769 5.58968e-21)
(0.999126 0.00621495 -3.7254e-21)
(0.999219 0.00632174 -9.24079e-21)
(0.999319 0.00641796 3.67816e-21)
(0.999424 0.00650272 1.83154e-21)
(0.999535 0.00657541 7.2802e-21)
(0.999652 0.00663604 -3.63094e-21)
(0.999775 0.0066832 -7.05797e-24)
(0.999903 0.00671736 -7.59499e-24)
(1.00004 0.00673707 0)
(1.00018 0.0067416 -3.55865e-21)
(1.00033 0.00673053 -3.53653e-21)
(1.00055 0.000833937 0)
(1.00037 0.000849573 -6.15601e-21)
(1.00017 0.000890029 6.14849e-21)
(0.999968 0.00094594 0)
(0.999766 0.00101998 0)
(0.99957 0.00111079 -4.07428e-21)
(0.999381 0.001218 -2.60851e-24)
(0.999199 0.00134266 -4.07601e-21)
(0.999026 0.00148105 -8.3298e-24)
(0.998862 0.00163538 0)
(0.998708 0.00180269 0)
(0.998562 0.00198281 2.01682e-21)
(0.998426 0.0021761 0)
(0.9983 0.0023791 0)
(0.998184 0.00259333 -2.0112e-21)
(0.998079 0.00281636 4.02989e-21)
(0.997984 0.00304717 2.00935e-21)
(0.997899 0.00328674 0)
(0.997825 0.00353121 1.98151e-21)
(0.997761 0.00378115 -4.97991e-21)
(0.997709 0.00403613 -1.98391e-21)
(0.997667 0.00429345 -1.97515e-21)
(0.997636 0.00455329 1.97535e-21)
(0.997616 0.00481472 1.35007e-24)
(0.997608 0.00507576 1.53631e-23)
(0.99761 0.00533611 2.44078e-22)
(0.997623 0.00559507 -4.87795e-22)
(0.997647 0.00585075 0)
(0.997681 0.00610273 -9.65208e-22)
(0.997727 0.00635031 0)
(0.997783 0.0065919 0)
(0.997849 0.00682703 -1.91698e-21)
(0.997926 0.00705483 -7.61456e-21)
(0.998013 0.00727404 2.08499e-23)
(0.99811 0.00748421 1.8934e-21)
(0.998217 0.00768446 0)
(0.998333 0.0078737 -1.87076e-21)
(0.998459 0.00805143 -3.73491e-21)
(0.998595 0.00821697 3.70879e-21)
(0.998739 0.00836918 7.39249e-21)
(0.998893 0.00850799 -7.35689e-21)
(0.999056 0.00863221 3.6084e-24)
(0.999227 0.00874121 -3.64273e-21)
(0.999407 0.00883501 9.66203e-25)
(0.999595 0.00891184 0)
(0.999792 0.00897238 -3.58988e-21)
(0.999999 0.00901465 -1.7818e-21)
(1.00022 0.00903825 1.78046e-21)
(1.00045 0.00904612 3.5381e-21)
(1.00049 0.000489189 0)
(1.00025 0.000534797 4.11421e-21)
(0.999972 0.000613433 -1.23607e-20)
(0.99969 0.00071135 0)
(0.999408 0.000831937 0)
(0.999132 0.000973222 -8.21697e-21)
(0.998866 0.00113471 8.19098e-21)
(0.998611 0.0013179 -4.10685e-21)
(0.998368 0.0015178 -8.51784e-24)
(0.998137 0.00173752 4.08496e-21)
(0.997919 0.00197312 0)
(0.997714 0.00222445 0)
(0.997524 0.00249215 4.07695e-21)
(0.997347 0.00277154 0)
(0.997184 0.00306485 0)
(0.997037 0.00336889 -4.039e-21)
(0.996904 0.0036823 1.47185e-23)
(0.996786 0.00400661 0)
(0.996683 0.00433666 1.99827e-21)
(0.996596 0.00467333 5.0011e-21)
(0.996524 0.00501614 -2.00397e-21)
(0.996468 0.00536155 0)
(0.996428 0.00570988 -9.89755e-22)
(0.996403 0.00606003 1.23674e-21)
(0.996394 0.00640942 -5.39532e-22)
(0.996401 0.00675769 -2.46275e-22)
(0.996424 0.00710405 4.85756e-22)
(0.996462 0.00744605 -9.76385e-22)
(0.996515 0.00778317 0)
(0.996584 0.00811463 -3.87135e-21)
(0.996669 0.00843833 5.77624e-21)
(0.996768 0.00875375 1.89962e-21)
(0.996882 0.00905983 -6.68471e-24)
(0.99701 0.00935493 1.8981e-21)
(0.997153 0.00963858 -1.90532e-21)
(0.99731 0.00990971 -3.76278e-21)
(0.997481 0.0101669 7.50554e-21)
(0.997665 0.0104096 -3.74089e-21)
(0.997863 0.010637 7.44681e-21)
(0.998073 0.0108477 7.74906e-24)
(0.998296 0.0110417 7.36249e-21)
(0.998532 0.0112175 -3.65963e-21)
(0.998779 0.0113745 0)
(0.999039 0.0115126 1.48999e-24)
(0.99931 0.0116297 7.2134e-21)
(0.999593 0.0117268 0)
(0.99989 0.0118013 0)
(1.0002 0.0118533 6.20784e-21)
(1.00054 0.0118907 8.84464e-22)
(1.00028 -0.00011934 1.03838e-21)
(0.999955 -5.10819e-05 7.29581e-21)
(0.999594 7.79943e-05 8.26539e-21)
(0.999217 0.000233177 -8.31922e-21)
(0.998838 0.000416527 0)
(0.998467 0.00062508 -1.09228e-23)
(0.998107 0.000858224 -4.16268e-21)
(0.997762 0.00111799 -4.15268e-21)
(0.997432 0.00139794 1.23787e-20)
(0.997119 0.00170226 -4.11629e-21)
(0.996824 0.00202584 0)
(0.996547 0.00236858 8.21704e-21)
(0.996288 0.00273141 -8.17233e-21)
(0.996049 0.00310829 2.3711e-23)
(0.99583 0.00350225 8.15312e-21)
(0.99563 0.00390918 -2.04671e-21)
(0.995451 0.0043274 -1.99718e-21)
(0.995293 0.00475897 4.05332e-21)
(0.995155 0.00519729 0)
(0.995039 0.0056436 -2.00581e-21)
(0.994944 0.00609731 2.00837e-21)
(0.994871 0.00655395 1.99853e-21)
(0.99482 0.00701397 -1.99849e-21)
(0.99479 0.00747602 2.49662e-22)
(0.994782 0.00793687 3.08543e-23)
(0.994796 0.00839606 7.38712e-22)
(0.994832 0.00885265 -2.55038e-24)
(0.994889 0.00930358 0)
(0.994968 0.00974817 0)
(0.995068 0.0101855 -1.82656e-24)
(0.995189 0.0106129 -1.92299e-21)
(0.995331 0.0110298 3.86118e-21)
(0.995493 0.0114348 -3.83681e-21)
(0.995676 0.0118259 3.8087e-21)
(0.995878 0.0122026 -7.6184e-21)
(0.996099 0.0125635 1.76396e-23)
(0.99634 0.0129069 3.77029e-21)
(0.996598 0.0132322 3.73496e-21)
(0.996875 0.0135383 -7.46464e-21)
(0.997169 0.0138236 -7.41392e-21)
(0.99748 0.0140883 -3.69412e-21)
(0.997807 0.0143303 -3.67265e-21)
(0.99815 0.0145489 0)
(0.99851 0.0147445 -3.62208e-21)
(0.998884 0.0149142 3.77307e-25)
(0.999275 0.0150595 7.16467e-21)
(0.999683 0.015177 -8.8984e-21)
(1.00011 0.0152675 1.76501e-21)
(1.00057 0.015346 0)
(0.999875 -0.00115924 0)
(0.999444 -0.000982934 -8.34814e-21)
(0.99897 -0.000806452 0)
(0.998484 -0.000590287 8.33053e-21)
(0.997995 -0.000328759 4.17355e-21)
(0.997508 -3.52815e-05 -8.34339e-21)
(0.997036 0.000288891 1.24754e-20)
(0.99658 0.000645877 4.14378e-21)
(0.996145 0.00102748 -4.1406e-21)
(0.995732 0.00143913 0)
(0.995341 0.00187427 4.14174e-21)
(0.994975 0.00233282 -8.26337e-21)
(0.994633 0.00281596 4.15237e-21)
(0.994317 0.00331611 -4.10427e-21)
(0.994027 0.00383719 2.72117e-23)
(0.993763 0.00437406 4.10931e-21)
(0.993527 0.0049246 -8.19453e-21)
(0.993318 0.00549145 0)
(0.993138 0.00606646 4.06723e-21)
(0.992986 0.00665118 -4.06723e-21)
(0.992863 0.00724485 -1.00747e-21)
(0.992769 0.007842 0)
(0.992705 0.00844315 1.01064e-21)
(0.99267 0.00904658 2.50629e-22)
(0.992664 0.00964841 -5.31282e-22)
(0.992688 0.0102479 7.45863e-22)
(0.992742 0.0108439 4.92125e-22)
(0.992824 0.0114328 -9.87949e-22)
(0.992936 0.0120135 0)
(0.993077 0.0125848 -1.95032e-21)
(0.993246 0.0131436 3.90262e-21)
(0.993444 0.0136889 0)
(0.993669 0.0142193 1.92093e-21)
(0.993921 0.0147319 0)
(0.994199 0.0152262 3.80456e-21)
(0.994503 0.0157008 -7.58884e-21)
(0.994833 0.0161532 3.76288e-21)
(0.995186 0.0165828 -1.94125e-23)
(0.995563 0.0169883 3.70472e-21)
(0.995963 0.0173677 -3.72052e-21)
(0.996385 0.0177213 3.68443e-21)
(0.996828 0.0180467 7.34017e-21)
(0.997291 0.0183433 0)
(0.997775 0.0186111 0)
(0.998278 0.0188473 -7.20482e-21)
(0.998802 0.0190534 -1.43161e-20)
(0.999348 0.0192252 1.4227e-20)
(0.999921 0.0193648 -7.95984e-21)
(1.00053 0.0194962 7.8999e-21)
(0.999256 -0.00279458 0)
(0.99869 -0.00253255 8.48757e-21)
(0.998072 -0.00220084 8.47954e-21)
(0.997438 -0.0018556 1.2711e-20)
(0.996801 -0.00151802 -1.27033e-20)
(0.996175 -0.0011387 -4.21413e-21)
(0.995575 -0.000703796 1.26896e-20)
(0.994986 -0.000226997 -4.2039e-21)
(0.994421 0.000281002 4.20646e-21)
(0.993883 0.000826653 0)
(0.993375 0.00140131 8.4312e-21)
(0.992897 0.00200489 0)
(0.992451 0.00263865 -4.15267e-21)
(0.992039 0.00329343 -4.19403e-21)
(0.99166 0.00397404 4.83224e-23)
(0.991316 0.00467414 0)
(0.991008 0.00539116 4.14764e-21)
(0.990737 0.00612819 8.28305e-21)
(0.990502 0.00687552 0)
(0.990306 0.00763498 2.04781e-21)
(0.990147 0.00840541 -2.04717e-21)
(0.990027 0.00918036 -2.03346e-21)
(0.989947 0.00996024 2.04435e-21)
(0.989905 0.0107429 -3.94018e-24)
(0.989903 0.0115236 -5.04429e-22)
(0.989941 0.0123014 -2.21894e-22)
(0.990018 0.0130745 -5.00099e-22)
(0.990134 0.0138387 9.98757e-22)
(0.99029 0.0145924 0)
(0.990484 0.0153341 1.96331e-21)
(0.990716 0.0160599 -3.91251e-21)
(0.990985 0.0167684 0)
(0.991291 0.0174578 0)
(0.991634 0.0181246 3.84198e-21)
(0.99201 0.0187679 -7.66357e-21)
(0.992421 0.019386 3.81936e-21)
(0.992865 0.0199759 3.79646e-21)
(0.99334 0.0205367 0)
(0.993846 0.0210669 1.12256e-20)
(0.994381 0.021564 -7.43584e-21)
(0.994943 0.0220287 -3.69487e-21)
(0.995533 0.0224577 1.70954e-23)
(0.996148 0.0228505 -7.30148e-21)
(0.996788 0.0232075 -7.24512e-21)
(0.997452 0.0235249 -7.19986e-21)
(0.998141 0.0238052 3.94492e-24)
(0.998858 0.0240429 -9.24986e-24)
(0.999607 0.0242414 0)
(1.0004 0.024437 -1.40102e-20)
(0.998364 -0.00512689 0)
(0.997647 -0.00477654 2.21008e-21)
(0.996863 -0.00434999 -1.06124e-20)
(0.996045 -0.0038948 -8.49231e-21)
(0.995224 -0.00338822 8.48784e-21)
(0.994419 -0.00280749 4.31534e-21)
(0.993637 -0.00223921 -4.21806e-21)
(0.99288 -0.00166159 0)
(0.992157 -0.00100322 0)
(0.991466 -0.000292112 8.55216e-21)
(0.99081 0.000454791 -8.43671e-21)
(0.990192 0.00123824 4.23405e-21)
(0.989615 0.00205918 -4.23067e-21)
(0.989079 0.00290666 4.22798e-21)
(0.988588 0.0037864 4.2353e-21)
(0.988141 0.00469081 -4.20418e-21)
(0.987741 0.0056168 -4.16373e-21)
(0.987388 0.00656773 -4.14998e-21)
(0.987083 0.00753239 4.15734e-21)
(0.986829 0.00851275 -4.1564e-21)
(0.986624 0.00950698 0)
(0.98647 0.0105077 2.07425e-21)
(0.986369 0.0115149 -2.0437e-21)
(0.986319 0.0125257 1.53136e-21)
(0.986322 0.0135348 0)
(0.986378 0.0145401 1.01296e-21)
(0.986486 0.0155396 0)
(0.986646 0.0165281 -9.97309e-22)
(0.986858 0.0175032 1.70897e-23)