/*--------------------------------*- C++ -*----------------------------------*\
| =========                 |                                                 |
| \\      /  F ield         | OpenFOAM: The Open Source CFD Toolbox           |
|  \\    /   O peration     | Version:  2312                                  |
|   \\  /    A nd           | Website:  www.openfoam.com                      |
|    \\/     M anipulation  |                                                 |
\*---------------------------------------------------------------------------*/
FoamFile
{
    version     2.0;
    format      ascii;
    arch        "LSB;label=32;scalar=64";
    class       volVectorField;
    location    "16.60197818929246";
    object      U;
}
// * * * * * * * * * * * * * * * * * * * * * * * * * * * * * * * * * * * * * //

dimensions      [0 1 -1 0 0 0 0];

internalField   nonuniform List<vector> 
21039
(
(0.913763 0.047399 0)
(1.02607 0.06645 0)
(1.00449 0.0294756 0)
(1.00177 0.018868 0)
(1.00121 0.0138579 0)
(1.0008 0.0104771 0)
(1.00055 0.00815079 0)
(1.0004 0.00650903 0)
(1.0003 0.00530087 0)
(1.00023 0.00438245 0)
(1.00018 0.00366833 0)
(1.00015 0.00310355 0)
(1.00012 0.00265111 0)
(1.00009 0.00228547 0)
(1.00008 0.0019885 0)
(1.00006 0.00174708 0)
(1.00005 0.0015515 0)
(1.00004 0.00139442 0)
(1.00003 0.00127015 0)
(1.00002 0.00117405 0)
(1.00001 0.00110219 0)
(1.00001 0.00105243 0)
(1 0.00102618 0)
(1 0.00100384 0)
(1 0.000988516 0)
(1 0.000977063 0)
(1.00001 0.000965374 0)
(1.00001 0.000943897 0)
(1.00001 0.000891792 0)
(0.794613 0.0730048 0)
(1.07453 0.121589 0)
(1.03988 0.0707534 0)
(1.01811 0.0496043 0)
(1.01129 0.0381806 0)
(1.00764 0.0293931 0)
(1.00538 0.0230926 0)
(1.00395 0.018516 0)
(1.003 0.0150625 0)
(1.00232 0.0123911 0)
(1.00183 0.0102852 0)
(1.00147 0.00859807 0)
(1.00119 0.00722913 0)
(1.00097 0.00610799 0)
(1.00079 0.00518438 0)
(1.00065 0.00442175 0)
(1.00053 0.00379306 0)
(1.00042 0.00327802 0)
(1.00033 0.00286112 0)
(1.00025 0.0025302 0)
(1.00018 0.00227511 0)
(1.00013 0.00208921 0)
(1.00008 0.00197586 0)
(1.00005 0.00190126 0)
(1.00003 0.00186607 0)
(1.00003 0.00185262 0)
(1.00004 0.00184736 0)
(1.00005 0.00183201 0)
(1.00006 0.00177856 0)
(0.667523 0.0572286 0)
(1.08312 0.124662 0)
(1.08436 0.0901118 0)
(1.0463 0.0674846 0)
(1.02908 0.0539588 0)
(1.02026 0.0429879 0)
(1.01469 0.0346765 0)
(1.01098 0.0282941 0)
(1.00842 0.0232678 0)
(1.0066 0.0192661 0)
(1.00526 0.0160436 0)
(1.00425 0.013418 0)
(1.00347 0.011258 0)
(1.00285 0.00946843 0)
(1.00235 0.00797929 0)
(1.00194 0.00673861 0)
(1.00159 0.00570742 0)
(1.00129 0.00485621 0)
(1.00103 0.0041624 0)
(1.00081 0.0036085 0)
(1.0006 0.00318007 0)
(1.00042 0.0028664 0)
(1.00027 0.00267229 0)
(1.00016 0.00255657 0)
(1.0001 0.00251136 0)
(1.00007 0.00250259 0)
(1.00006 0.00250757 0)
(1.00007 0.00250295 0)
(1.00008 0.00245813 0)
(0.541401 0.0352155 0)
(1.05099 0.110637 0)
(1.11594 0.0967344 0)
(1.07612 0.0759881 0)
(1.04926 0.0618191 0)
(1.03528 0.0506976 0)
(1.02642 0.0420154 0)
(1.02024 0.0349849 0)
(1.0158 0.0292039 0)
(1.01255 0.024447 0)
(1.01012 0.0205101 0)
(1.00825 0.0172295 0)
(1.00679 0.014481 0)
(1.00562 0.0121695 0)
(1.00467 0.0102219 0)
(1.00388 0.00858223 0)
(1.0032 0.00720749 0)
(1.00262 0.00606455 0)
(1.00211 0.00512777 0)
(1.00165 0.00437727 0)
(1.00124 0.00379682 0)
(1.00088 0.00337324 0)
(1.00055 0.00311244 0)
(1.00031 0.00296827 0)
(1.00016 0.00292156 0)
(1.00007 0.00292323 0)
(1.00004 0.0029429 0)
(1.00005 0.00295298 0)
(1.00005 0.00291853 0)
(0.444764 0.0186162 0)
(0.998186 0.0916405 0)
(1.12911 0.0952675 0)
(1.10144 0.0790547 0)
(1.06825 0.0650014 0)
(1.04978 0.0543082 0)
(1.03826 0.0459085 0)
(1.03002 0.0388646 0)
(1.02391 0.0328887 0)
(1.01931 0.0278318 0)
(1.01577 0.0235357 0)
(1.01301 0.0198728 0)
(1.01081 0.0167433 0)
(1.00902 0.0140673 0)
(1.00755 0.0117805 0)
(1.00631 0.00983226 0)
(1.00524 0.00818276 0)
(1.00431 0.0068006 0)
(1.00348 0.00566121 0)
(1.00274 0.0047454 0)
(1.00206 0.00403771 0)
(1.00144 0.0035245 0)
(1.00088 0.00321339 0)
(1.00046 0.00305478 0)
(1.00019 0.00301721 0)
(1.00003 0.00303829 0)
(0.999966 0.00308098 0)
(0.999954 0.0031135 0)
(0.999945 0.00309399 0)
(0.379431 0.00804855 0)
(0.940455 0.0715715 0)
(1.12722 0.0877965 0)
(1.12085 0.078051 0)
(1.08552 0.0652848 0)
(1.06308 0.0552784 0)
(1.0493 0.0473872 0)
(1.03946 0.0406176 0)
(1.032 0.0347394 0)
(1.02625 0.0296487 0)
(1.02174 0.0252259 0)
(1.01815 0.0213773 0)
(1.01523 0.0180287 0)
(1.01283 0.0151182 0)
(1.01081 0.0125956 0)
(1.00909 0.0104201 0)
(1.0076 0.00855911 0)
(1.00627 0.00698679 0)
(1.00509 0.00568276 0)
(1.00401 0.00463118 0)
(1.00301 0.00381953 0)
(1.00209 0.00323578 0)
(1.00126 0.00289031 0)
(1.00061 0.0027315 0)
(1.00018 0.00271496 0)
(0.99993 0.002766 0)
(0.99981 0.00284159 0)
(0.99977 0.00290572 0)
(0.999738 0.00290781 0)
(0.334462 0.00227428 0)
(0.884574 0.0535182 0)
(1.11453 0.0772178 0)
(1.13395 0.0740363 0)
(1.10092 0.0634509 0)
(1.07537 0.0543474 0)
(1.05951 0.0470902 0)
(1.04835 0.0407623 0)
(1.03982 0.0351474 0)
(1.03312 0.0301749 0)
(1.02778 0.025765 0)
(1.02345 0.0218561 0)
(1.01988 0.0183972 0)
(1.01689 0.0153446 0)
(1.01435 0.0126624 0)
(1.01214 0.0103214 0)
(1.0102 0.00829811 0)
(1.00846 0.00657415 0)
(1.00688 0.00513531 0)
(1.00543 0.00397095 0)
(1.00407 0.00307328 0)
(1.00281 0.00243374 0)
(1.00164 0.00206672 0)
(1.00073 0.00191949 0)
(1.00012 0.00193454 0)
(0.999741 0.00202526 0)
(0.99955 0.00214328 0)
(0.999467 0.00224865 0)
(0.999397 0.0022808 0)
(0.30245 -0.000259321 0)
(0.833368 0.0391944 0)
(1.09471 0.0661673 0)
(1.14079 0.0683694 0)
(1.11395 0.0602695 0)
(1.08662 0.0521411 0)
(1.06894 0.0455178 0)
(1.05667 0.0396877 0)
(1.04728 0.0344152 0)
(1.03981 0.0296438 0)
(1.03377 0.0253278 0)
(1.0288 0.0214339 0)
(1.02465 0.0179321 0)
(1.02112 0.0147958 0)
(1.01807 0.0120034 0)
(1.0154 0.0095372 0)
(1.01301 0.00738354 0)
(1.01084 0.00553236 0)
(1.00885 0.00397676 0)
(1.00699 0.00271276 0)
(1.00523 0.00173894 0)
(1.00357 0.00105123 0)
(1.00203 0.000668079 0)
(1.0008 0.000539146 0)
(0.999965 0.000593084 0)
(0.999442 0.000730543 0)
(0.999157 0.000898613 0)
(0.999009 0.00105481 0)
(0.998881 0.00112973 0)
(0.279805 -0.00105983 0)
(0.788342 0.0286368 0)
(1.07105 0.0560085 0)
(1.14222 0.0620978 0)
(1.12434 0.0564174 0)
(1.09675 0.04924 0)
(1.0776 0.0431499 0)
(1.0644 0.0377632 0)
(1.05433 0.0328257 0)
(1.04626 0.0282734 0)
(1.03964 0.0240814 0)
(1.03414 0.020236 0)
(1.02947 0.0167239 0)
(1.02546 0.0135335 0)
(1.02195 0.0106557 0)
(1.01882 0.00808366 0)
(1.01599 0.00581355 0)
(1.01339 0.00384396 0)
(1.01096 0.00217608 0)
(1.00867 0.000812682 0)
(1.00648 -0.000240848 0)
(1.00438 -0.000981814 0)
(1.00241 -0.00138479 0)
(1.00083 -0.00149776 0)
(0.999725 -0.00140517 0)
(0.99902 -0.00121776 0)
(0.998613 -0.000996356 0)
(0.998376 -0.000791347 0)
(0.998169 -0.000670722 0)
(0.263744 -0.00111089 0)
(0.749882 0.021139 0)
(1.0461 0.0471614 0)
(1.13957 0.0557913 0)
(1.13227 0.0522873 0)
(1.10581 0.0460165 0)
(1.0856 0.0403457 0)
(1.07161 0.0352991 0)
(1.06101 0.0306343 0)
(1.05246 0.0262699 0)
(1.04539 0.0221889 0)
(1.03944 0.0183892 0)
(1.03434 0.014869 0)
(1.02989 0.0116277 0)
(1.02595 0.00866648 0)
(1.0224 0.00598812 0)
(1.01914 0.0035976 0)
(1.0161 0.001502 0)
(1.01323 -0.000290759 0)
(1.01048 -0.00177058 0)
(1.00783 -0.00292282 0)
(1.00526 -0.00373577 0)
(1.00281 -0.0041748 0)
(1.00081 -0.00428549 0)
(0.999395 -0.00416168 0)
(0.998467 -0.00392402 0)
(0.9979 -0.0036402 0)
(0.99754 -0.00337143 0)
(0.997224 -0.00321604 0)
(0.251953 -0.000899568 0)
(0.717488 0.0159136 0)
(1.0215 0.0396512 0)
(1.13411 0.0497399 0)
(1.13809 0.0480728 0)
(1.11394 0.0426517 0)
(1.0931 0.0373139 0)
(1.07842 0.0325055 0)
(1.06738 0.0280339 0)
(1.05846 0.0238024 0)
(1.05103 0.0197938 0)
(1.04471 0.016012 0)
(1.03924 0.0124623 0)
(1.03442 0.00915173 0)
(1.0301 0.00608935 0)
(1.02615 0.00328579 0)
(1.02247 0.000753106 0)
(1.01901 -0.0014956 0)
(1.01569 -0.00344404 0)
(1.01247 -0.00507239 0)
(1.00932 -0.00635755 0)
(1.00623 -0.00727824 0)
(1.00325 -0.00778881 0)
(1.00078 -0.00792796 0)
(0.998994 -0.00779456 0)
(0.997788 -0.00752072 0)
(0.997007 -0.00718184 0)
(0.99647 -0.00684732 0)
(0.995995 -0.00664094 0)
(0.242914 -0.000648981 0)
(0.690321 0.0122769 0)
(0.998134 0.0333579 0)
(1.12683 0.0440952 0)
(1.14215 0.0438878 0)
(1.12128 0.0392388 0)
(1.10024 0.0341716 0)
(1.08499 0.0295145 0)
(1.07356 0.025158 0)
(1.06435 0.0209973 0)
(1.05663 0.0170115 0)
(1.05002 0.0132059 0)
(1.04424 0.00959022 0)
(1.0391 0.00617661 0)
(1.03442 0.00297971 0)
(1.03011 1.49897e-05 0)
(1.02605 -0.00270038 0)
(1.02217 -0.00514547 0)
(1.0184 -0.0072953 0)
(1.0147 -0.00912171 0)
(1.01102 -0.0105931 0)
(1.00736 -0.0116784 0)
(1.0038 -0.0123199 0)
(1.00079 -0.0125428 0)
(0.998573 -0.012444 0)
(0.997022 -0.0121663 0)
(0.995958 -0.0117936 0)
(0.995174 -0.0114062 0)
(0.994476 -0.0111508 0)
(0.235754 -0.000449185 0)
(0.667548 0.00969347 0)
(0.976491 0.0281047 0)
(1.11849 0.0389209 0)
(1.14478 0.0398099 0)
(1.12791 0.0358394 0)
(1.10713 0.0309946 0)
(1.09142 0.0264175 0)
(1.07966 0.0221037 0)
(1.07021 0.0179521 0)
(1.06227 0.0139356 0)
(1.05542 0.0100581 0)
(1.04939 0.00633135 0)
(1.04396 0.0027704 0)
(1.03899 -0.000607903 0)
(1.03434 -0.00378451 0)
(1.02992 -0.00673598 0)
(1.02564 -0.00943438 0)
(1.02143 -0.0118476 0)
(1.01723 -0.0139398 0)
(1.01301 -0.0156713 0)
(1.00876 -0.0170017 0)
(1.00455 -0.0178617 0)
(1.00095 -0.0182566 0)
(0.998233 -0.0182694 0)
(0.996259 -0.0180494 0)
(0.994824 -0.0176884 0)
(0.993704 -0.0172797 0)
(0.992696 -0.0169928 0)
(0.229964 -0.000317893 0)
(0.648435 0.00779014 0)
(0.956776 0.023709 0)
(1.10966 0.0342228 0)
(1.14632 0.0358891 0)
(1.13394 0.0324981 0)
(1.11383 0.0278377 0)
(1.09782 0.023284 0)
(1.08577 0.0189502 0)
(1.07613 0.0147495 0)
(1.06802 0.010649 0)
(1.061 0.0066494 0)
(1.05476 0.00276158 0)
(1.04911 -0.000999531 0)
(1.04389 -0.00461589 0)
(1.03896 -0.0080646 0)
(1.03421 -0.0113172 0)
(1.02955 -0.0143403 0)
(1.02491 -0.0170957 0)
(1.02022 -0.0195402 0)
(1.01544 -0.0216268 0)
(1.01056 -0.0233075 0)
(1.00569 -0.0245041 0)
(1.00144 -0.0251986 0)
(0.998158 -0.025445 0)
(0.995673 -0.02539 0)
(0.993759 -0.0251275 0)
(0.992179 -0.0247633 0)
(0.990743 -0.0244873 0)
(0.225219 -0.000245362 0)
(0.632371 0.00633593 0)
(0.939034 0.0200366 0)
(1.10075 0.0300058 0)
(1.14699 0.0321706 0)
(1.13941 0.0292489 0)
(1.12037 0.0247359 0)
(1.10421 0.0201625 0)
(1.09193 0.0157566 0)
(1.08214 0.0114552 0)
(1.07391 0.00722098 0)
(1.06675 0.00304944 0)
(1.06037 -0.00105149 0)
(1.05456 -0.00506842 0)
(1.04913 -0.00898257 0)
(1.04396 -0.0127685 0)
(1.03892 -0.0163945 0)
(1.03391 -0.0198232 0)
(1.02886 -0.0230104 0)
(1.02369 -0.0259058 0)
(1.01835 -0.0284553 0)
(1.01285 -0.0306056 0)
(1.0073 -0.0322762 0)
(1.00243 -0.033436 0)
(0.998589 -0.0341015 0)
(0.995561 -0.034403 0)
(0.993082 -0.034417 0)
(0.990911 -0.0342427 0)
(0.988898 -0.034069 0)
(0.221618 -0.0001983 0)
(0.619816 0.00528135 0)
(0.924381 0.0171752 0)
(1.09276 0.0265139 0)
(1.14716 0.0289538 0)
(1.14414 0.0263838 0)
(1.12638 0.0219826 0)
(1.11022 0.0173665 0)
(1.0978 0.0128625 0)
(1.08791 0.00843364 0)
(1.07962 0.00403905 0)
(1.0724 -0.000332046 0)
(1.06595 -0.0046764 0)
(1.06004 -0.00898324 0)
(1.05449 -0.0132347 0)
(1.04915 -0.0174058 0)
(1.0439 -0.0214645 0)
(1.03862 -0.0253712 0)
(1.03323 -0.029077 0)
(1.02764 -0.0325236 0)
(1.0218 -0.0356471 0)
(1.01572 -0.0383843 0)
(1.00956 -0.0406475 0)
(1.00416 -0.0423982 0)
(0.999858 -0.0436388 0)
(0.996379 -0.0445049 0)
(0.993354 -0.0450438 0)
(0.990493 -0.0453003 0)
(0.987688 -0.0454 0)
(0.219058 -0.000169462 0)
(0.610757 0.00456026 0)
(0.913337 0.0151118 0)
(1.08637 0.0238773 0)
(1.14706 0.0264512 0)
(1.14791 0.0241256 0)
(1.13139 0.0198003 0)
(1.11535 0.0151357 0)
(1.10284 0.0105357 0)
(1.09291 0.00598458 0)
(1.08461 0.00143695 0)
(1.07739 -0.0031245 0)
(1.07093 -0.0077015 0)
(1.06499 -0.0122871 0)
(1.05939 -0.0168666 0)
(1.05398 -0.0214184 0)
(1.04861 -0.0259135 0)
(1.04317 -0.0303135 0)
(1.03755 -0.0345685 0)
(1.03166 -0.0386153 0)
(1.02543 -0.0423792 0)
(1.01888 -0.0457818 0)
(1.01221 -0.0487067 0)
(1.0064 -0.0510773 0)
(1.00184 -0.0529001 0)
(0.998188 -0.0543968 0)
(0.994952 -0.0556972 0)
(0.991731 -0.0568318 0)
(0.988403 -0.0576448 0)
(0.217123 -0.000122698 0)
(0.603908 0.00406876 0)
(0.904714 0.013609 0)
(1.08111 0.0218756 0)
(1.1468 0.0245066 0)
(1.15092 0.0223594 0)
(1.13557 0.0180966 0)
(1.1197 0.0133967 0)
(1.10716 0.00871952 0)
(1.09721 0.00406583 0)
(1.08893 -0.000613492 0)
(1.08174 -0.00534163 0)
(1.07531 -0.0101248 0)
(1.06939 -0.0149604 0)
(1.0638 -0.0198386 0)
(1.05837 -0.0247437 0)
(1.05296 -0.0296523 0)
(1.04744 -0.0345308 0)
(1.04169 -0.0393332 0)
(1.0356 -0.0439969 0)
(1.02909 -0.048442 0)
(1.02217 -0.052577 0)
(1.01507 -0.0562412 0)
(1.00888 -0.0592379 0)
(1.00409 -0.061494 0)
(1.00043 -0.0633081 0)
(0.997485 -0.0650584 0)
(0.994913 -0.0671116 0)
(0.992084 -0.0689276 0)
(0.215991 -0.000127418 0)
(0.599339 0.00369045 0)
(0.898718 0.0125351 0)
(1.07741 0.020449 0)
(1.14674 0.0230943 0)
(1.15334 0.021027 0)
(1.13895 0.0167721 0)
(1.12327 0.0120338 0)
(1.11073 0.00729878 0)
(1.10082 0.00256497 0)
(1.09258 -0.00222312 0)
(1.08545 -0.00709263 0)
(1.07908 -0.0120535 0)
(1.07323 -0.0171075 0)
(1.06769 -0.0222509 0)
(1.06231 -0.0274751 0)
(1.05693 -0.032764 0)
(1.05141 -0.0380928 0)
(1.04563 -0.0434239 0)
(1.03947 -0.0487024 0)
(1.03284 -0.0538548 0)
(1.02577 -0.0587984 0)
(1.01847 -0.0633622 0)
(1.01208 -0.0671965 0)
(1.00715 -0.0700138 0)
(1.00345 -0.0719033 0)
(1.00068 -0.0729281 0)
(0.998787 -0.0738519 0)
(0.998735 -0.0784189 0)
(1.00001 0.000904655 0)
(1.00001 0.000910146 0)
(1.00001 0.000910798 0)
(1.00001 0.000912358 1.04368e-21)
(1.00001 0.000915895 5.20347e-21)
(1.00001 0.000921229 -9.36185e-21)
(1 0.000928186 5.19865e-21)
(1 0.000936665 -4.14026e-21)
(1 0.000946495 5.29894e-22)
(1 0.000957696 4.13741e-21)
(0.999999 0.000970097 0)
(0.999997 0.000983669 -4.6229e-21)
(0.999996 0.00099831 5.26128e-22)
(0.999995 0.00101388 4.10328e-21)
(0.999994 0.00103035 0)
(0.999993 0.00104757 0)
(0.999991 0.00106548 -4.06063e-21)
(0.99999 0.00108395 4.06318e-21)
(0.999989 0.00110282 0)
(0.999988 0.00112208 -2.01353e-21)
(0.999987 0.00114155 2.14012e-21)
(0.999987 0.00116113 1.8759e-21)
(0.999986 0.00118073 -2.99923e-21)
(0.999985 0.0012002 9.66474e-22)
(0.999985 0.00121945 3.09557e-23)
(0.999984 0.00123838 -6.18692e-23)
(0.999984 0.00125685 8.6016e-22)
(0.999983 0.00127476 -9.83245e-22)
(0.999983 0.00129205 0)
(0.999983 0.0013086 0)
(0.999983 0.00132422 -2.4241e-22)
(0.999983 0.00133884 -2.41324e-22)
(0.999983 0.0013525 -4.07516e-21)
(0.999984 0.00136512 3.35398e-21)
(0.999984 0.00137656 -4.27462e-21)
(0.999985 0.00138681 4.26901e-21)
(0.999985 0.00139582 -3.29022e-21)
(0.999986 0.00140348 3.28903e-21)
(0.999987 0.0014098 4.66428e-22)
(0.999988 0.00141467 4.64021e-22)
(0.999989 0.00141808 -4.61581e-22)
(0.99999 0.00142 0)
(0.999992 0.00142033 0)
(0.999993 0.00141913 0)
(0.999995 0.00141631 0)
(0.999997 0.001412 0)
(0.999998 0.00140601 1.78347e-21)
(1 0.00139769 -1.78038e-21)
(1 0.00138308 0)
(1.00005 0.00179847 0)
(1.00004 0.00181171 2.1067e-21)
(1.00002 0.00182215 -2.09876e-21)
(1.00001 0.00183644 -1.04741e-21)
(0.999993 0.00185575 -1.04735e-21)
(0.99998 0.00187944 -3.13108e-21)
(0.999966 0.00190723 5.22724e-21)
(0.999954 0.00193908 0)
(0.999942 0.00197445 -5.19887e-22)
(0.99993 0.00201346 -1.03871e-21)
(0.999919 0.00205562 0)
(0.999909 0.0021008 5.16685e-22)
(0.999899 0.00214885 -4.63422e-21)
(0.99989 0.00219926 4.12232e-21)
(0.999881 0.00225204 0)
(0.999874 0.00230677 1.02492e-21)
(0.999867 0.0023632 0)
(0.99986 0.0024212 0)
(0.999855 0.00248024 0)
(0.99985 0.00254023 -2.02221e-21)
(0.999846 0.00260091 1.89677e-21)
(0.999843 0.00266185 -1.26102e-22)
(0.99984 0.00272289 0)
(0.999839 0.00278375 -4.67843e-22)
(0.999838 0.00284408 4.91349e-22)
(0.999838 0.00290366 9.31271e-23)
(0.999839 0.00296224 1.23612e-22)
(0.999841 0.0030195 0)
(0.999844 0.00307521 -1.9592e-21)
(0.999847 0.00312914 1.95876e-21)
(0.999851 0.00318101 -3.64255e-21)
(0.999856 0.00323059 7.99565e-21)
(0.999862 0.00327766 -3.6261e-21)
(0.999869 0.003322 4.80139e-22)
(0.999876 0.00336334 4.77945e-22)
(0.999884 0.00340153 4.76243e-22)
(0.999893 0.00343634 -4.73358e-22)
(0.999902 0.00346753 4.23223e-21)
(0.999913 0.00349503 -3.28837e-21)
(0.999924 0.00351849 -1.39913e-21)
(0.999935 0.0035379 5.09505e-21)
(0.999948 0.003553 -3.6989e-21)
(0.999961 0.00356358 -1.83585e-21)
(0.999974 0.00356968 3.64371e-21)
(0.999989 0.00357085 -7.2632e-21)
(1 0.00356733 3.6185e-21)
(1.00002 0.00355886 1.79169e-21)
(1.00003 0.00354472 -4.29283e-24)
(1.00005 0.00352018 0)
(1.00006 0.00247899 3.17082e-21)
(1.00002 0.00250125 -1.05834e-21)
(0.999982 0.00252623 -4.21675e-21)
(0.999941 0.00255781 2.1013e-21)
(0.999901 0.00259721 -2.10135e-21)
(0.999862 0.00264361 0)
(0.999826 0.00269663 -2.08976e-21)
(0.999791 0.00275643 -6.25755e-21)
(0.999758 0.00282183 6.25849e-21)
(0.999727 0.00289327 1.03848e-21)
(0.999698 0.00296981 0)
(0.99967 0.00305121 -6.20696e-21)
(0.999645 0.0031374 1.25491e-23)
(0.999622 0.00322733 4.12709e-21)
(0.999601 0.00332118 0)
(0.999582 0.00341818 -1.02404e-21)
(0.999566 0.00351786 -1.02406e-21)
(0.999551 0.00362025 0)
(0.999539 0.00372425 -1.01826e-21)
(0.999529 0.00382976 -2.02375e-21)
(0.999521 0.00393647 2.02435e-21)
(0.999516 0.00404355 -2.52838e-22)
(0.999513 0.00415081 -2.51365e-22)
(0.999512 0.00425784 0)
(0.999514 0.00436398 3.8877e-23)
(0.999517 0.00446891 -2.17456e-22)
(0.999523 0.00457229 0)
(0.999532 0.00467349 0)
(0.999542 0.00477219 -1.95945e-21)
(0.999555 0.00486805 1.95907e-21)
(0.99957 0.00496053 -3.88584e-21)
(0.999587 0.00504929 3.88452e-21)
(0.999606 0.00513399 0)
(0.999628 0.00521417 0)
(0.999651 0.00528949 0)
(0.999676 0.00535967 -9.50899e-22)
(0.999703 0.00542422 -1.89446e-21)
(0.999732 0.00548287 0)
(0.999763 0.0055354 -9.36854e-22)
(0.999796 0.00558124 -9.23936e-22)
(0.999831 0.00562037 2.79036e-21)
(0.999867 0.0056523 0)
(0.999906 0.0056767 3.66252e-21)
(0.999945 0.00569357 -5.48218e-21)
(0.999987 0.00570216 0)
(1.00003 0.00570274 0)
(1.00007 0.00569467 0)
(1.00012 0.0056772 -1.78529e-21)
(1.00017 0.00564674 -1.77323e-21)
(1.00001 0.0029416 -2.11833e-21)
(0.999934 0.00297842 4.24122e-21)
(0.999856 0.00302448 4.23255e-21)
(0.999777 0.00307958 6.32509e-21)
(0.999699 0.00314539 -2.11362e-21)
(0.999625 0.00322094 -4.19694e-21)
(0.999555 0.00330581 8.3909e-21)
(0.999487 0.0034004 -4.35453e-24)
(0.999424 0.00350275 -2.08627e-21)
(0.999365 0.00361376 2.08928e-21)
(0.999309 0.00373189 0)
(0.999258 0.00385686 2.07252e-21)
(0.999211 0.00398872 -2.05955e-21)
(0.999168 0.00412568 8.2635e-21)
(0.999129 0.00426827 -8.242e-21)
(0.999094 0.00441524 6.17666e-21)
(0.999064 0.00456588 -1.03136e-21)
(0.999039 0.00472053 1.02421e-21)
(0.999017 0.00487724 1.01723e-21)
(0.999001 0.00503606 -1.01813e-21)
(0.998988 0.00519666 0)
(0.998981 0.00535763 -1.511e-21)
(0.998978 0.00551885 1.2623e-21)
(0.998979 0.00567976 1.00405e-21)
(0.998985 0.0058393 4.67801e-23)
(0.998995 0.00599712 9.30246e-23)
(0.99901 0.00615279 1.48539e-21)
(0.999029 0.00630528 -9.88859e-22)
(0.999053 0.00645421 1.96169e-21)
(0.99908 0.00659916 -1.96135e-21)
(0.999113 0.00673925 0)
(0.999149 0.00687409 4.84336e-21)
(0.999189 0.00700318 -3.8705e-21)
(0.999234 0.00712581 3.83555e-21)
(0.999282 0.00724161 -3.83411e-21)
(0.999334 0.00735011 0)
(0.999391 0.00745062 3.77625e-21)
(0.999451 0.00754281 -1.89127e-21)
(0.999514 0.0076263 0)
(0.999581 0.00770034 3.72269e-21)
(0.999652 0.00776489 -3.71755e-21)
(0.999726 0.00781923 1.84481e-21)
(0.999804 0.00786294 1.8346e-21)
(0.999885 0.007896 5.47175e-21)
(0.999969 0.00791734 7.35365e-24)
(1.00006 0.00792735 3.6154e-21)
(1.00015 0.00792494 1.7893e-21)
(1.00024 0.00790934 1.77677e-21)
(1.00034 0.00787836 1.77407e-21)
(0.999867 0.00312324 0)
(0.999752 0.00318266 -4.24649e-21)
(0.999626 0.00325855 -4.23614e-21)
(0.999497 0.00334588 0)
(0.999371 0.00344697 -4.22417e-21)
(0.99925 0.00356068 1.09753e-23)
(0.999134 0.00368656 8.44641e-21)
(0.999024 0.00382539 -2.11551e-21)
(0.99892 0.0039742 -1.14356e-23)
(0.998823 0.00413458 -6.28255e-21)
(0.998733 0.00430422 0)
(0.998649 0.00448285 -6.25453e-21)
(0.998573 0.00467069 2.09017e-21)
(0.998503 0.00486503 0)
(0.998441 0.00506691 -2.07526e-21)
(0.998385 0.00527447 1.1152e-23)
(0.998337 0.00548676 -2.05583e-21)
(0.998297 0.0057045 7.18201e-21)
(0.998264 0.00592472 -1.39067e-23)
(0.998238 0.00614772 -1.03235e-21)
(0.99822 0.00637311 -1.01659e-21)
(0.99821 0.00659881 2.02138e-21)
(0.998206 0.00682484 -2.02165e-21)
(0.998211 0.00705047 -2.49654e-22)
(0.998223 0.00727413 5.17292e-22)
(0.998242 0.00749552 -2.78963e-22)
(0.998269 0.00771408 9.93386e-22)
(0.998303 0.00792831 -9.91304e-22)
(0.998345 0.00813782 9.87267e-22)
(0.998393 0.0083421 1.95723e-21)
(0.998449 0.00853985 -5.85287e-21)
(0.998512 0.00873069 -9.53171e-22)
(0.998581 0.00891394 5.81451e-21)
(0.998657 0.0090886 1.92764e-21)
(0.99874 0.00925429 -3.82168e-21)
(0.99883 0.00941033 3.81934e-21)
(0.998925 0.00955583 9.35836e-24)
(0.999027 0.00969041 5.6584e-21)
(0.999135 0.00981354 -3.77108e-21)
(0.999249 0.00992428 -9.3367e-21)
(0.999369 0.0100226 3.71142e-21)
(0.999495 0.0101075 1.84578e-21)
(0.999626 0.0101786 7.32858e-21)
(0.999763 0.0102358 -3.65528e-21)
(0.999906 0.0102777 -9.50672e-24)
(1.00005 0.0103049 -1.02901e-23)
(1.00021 0.0103158 0)
(1.00037 0.0103098 -3.56495e-21)
(1.00054 0.0102867 -3.53732e-21)
(0.999619 0.00294886 0)
(0.999452 0.00304107 -6.42939e-21)
(0.999266 0.00315754 6.41901e-21)
(0.999075 0.00328787 0)
(0.998887 0.00343537 0)
(0.998705 0.00359863 -4.24204e-21)
(0.998531 0.00377722 -3.32158e-24)
(0.998366 0.00397234 -4.24177e-21)
(0.998211 0.00417988 -9.98435e-24)
(0.998065 0.00440228 0)
(0.99793 0.0046363 0)
(0.997805 0.00488171 2.09077e-21)
(0.99769 0.00513897 0)
(0.997586 0.00540426 0)
(0.997493 0.00567926 -2.08039e-21)
(0.997411 0.00596137 4.1702e-21)
(0.99734 0.00624941 2.07686e-21)
(0.99728 0.00654456 0)
(0.997231 0.00684259 2.04089e-21)
(0.997194 0.00714416 -5.13365e-21)
(0.997168 0.00744883 -2.04256e-21)
(0.997154 0.00775371 -2.03072e-21)
(0.997151 0.00805901 2.03089e-21)
(0.99716 0.0083638 1.54978e-24)
(0.997179 0.00866595 1.57638e-23)
(0.997211 0.00896519 2.49947e-22)
(0.997253 0.00926083 -4.99627e-22)
(0.997307 0.00955084 0)
(0.997371 0.00983484 -9.86008e-22)
(0.997447 0.0101122 0)
(0.997533 0.0103811 0)
(0.99763 0.0106413 -1.95301e-21)
(0.997737 0.0108918 -7.74648e-21)
(0.997855 0.0111313 2.55738e-23)
(0.997982 0.0113595 1.92452e-21)
(0.99812 0.0115754 0)
(0.998267 0.0117779 -1.89554e-21)
(0.998423 0.0119667 -3.78031e-21)
(0.998589 0.012141 3.74994e-21)
(0.998763 0.0122997 7.46601e-21)
(0.998946 0.0124427 -7.42183e-21)
(0.999138 0.012569 2.7621e-24)
(0.999339 0.0126778 -3.66722e-21)
(0.999547 0.0127694 -3.00017e-25)
(0.999764 0.0128418 0)
(0.999989 0.0128959 -3.60212e-21)
(1.00022 0.0129297 -1.78449e-21)
(1.00047 0.0129427 1.78314e-21)
(1.00073 0.0129376 3.53841e-21)
(0.999227 0.00234203 0)
(0.998995 0.00247991 4.29894e-21)
(0.998736 0.00264926 -1.29221e-20)
(0.998469 0.002835 0)
(0.998204 0.00304214 0)
(0.997947 0.0032688 -8.57285e-21)
(0.997701 0.00351452 8.53627e-21)
(0.997466 0.00378095 -4.28111e-21)
(0.997246 0.00406257 -1.00683e-23)
(0.997039 0.00436291 4.25021e-21)
(0.996846 0.00467756 0)
(0.996668 0.00500641 0)
(0.996505 0.00535016 4.23343e-21)
(0.996357 0.00570367 0)
(0.996225 0.00606947 0)
(0.996108 0.00644401 -4.18092e-21)
(0.996008 0.00682587 1.75271e-23)
(0.995923 0.00721675 0)
(0.995854 0.00761099 2.06194e-21)
(0.995802 0.00800969 5.15783e-21)
(0.995766 0.00841232 -2.06685e-21)
(0.995747 0.00881503 0)
(0.995744 0.00921831 -1.01745e-21)
(0.995757 0.00962095 1.27104e-21)
(0.995787 0.0100202 -5.54053e-22)
(0.995833 0.0104158 -2.52626e-22)
(0.995895 0.0108069 4.96919e-22)
(0.995973 0.0111909 -9.99651e-22)
(0.996067 0.0115674 0)
(0.996177 0.0119356 -3.95269e-21)
(0.996302 0.0122932 5.89106e-21)
(0.996442 0.0126399 1.93112e-21)
(0.996597 0.0129745 -8.88387e-24)
(0.996767 0.0132954 1.92789e-21)
(0.996951 0.0136022 -1.93726e-21)
(0.997149 0.0138937 -3.81493e-21)
(0.99736 0.0141686 7.6052e-21)
(0.997585 0.0144264 -3.78616e-21)
(0.997823 0.0146663 7.53025e-21)
(0.998074 0.0148868 7.14567e-24)
(0.998337 0.0150881 7.42564e-21)
(0.998612 0.0152687 -3.68726e-21)
(0.998898 0.0154279 0)
(0.999196 0.0155659 -1.64191e-25)
(0.999505 0.0156805 7.23891e-21)
(0.999826 0.0157728 0)
(1.00016 0.0158402 0)
(1.00051 0.0158826 6.20691e-21)
(1.00088 0.015907 8.84147e-22)
(0.998641 0.00122255 1.08841e-21)
(0.998339 0.00141937 7.65225e-21)
(0.997992 0.00165425 8.6474e-21)
(0.997631 0.00190985 -8.71425e-21)
(0.997271 0.00219275 0)
(0.996921 0.00249941 -1.34852e-23)
(0.996585 0.00282928 -4.35357e-21)
(0.996265 0.00318487 -4.33903e-21)
(0.995962 0.0035591 1.29108e-20)
(0.995678 0.00395674 -4.29018e-21)
(0.995414 0.00437196 0)
(0.99517 0.00480478 8.54893e-21)
(0.994946 0.00525616 -8.49219e-21)
(0.994742 0.00571943 2.97892e-23)
(0.994561 0.00619808 8.45863e-21)
(0.9944 0.00668747 -2.12464e-21)
(0.994262 0.00718588 -2.06211e-21)
(0.994145 0.00769562 4.19556e-21)
(0.994051 0.00820935 0)
(0.993979 0.00872871 -2.07017e-21)
(0.99393 0.00925297 2.07197e-21)
(0.993903 0.00977728 2.05862e-21)
(0.9939 0.0103024 -2.05852e-21)
(0.993919 0.0108267 2.56892e-22)
(0.99396 0.0113467 3.16865e-23)
(0.994024 0.0118624 7.57763e-22)
(0.99411 0.0123724 -3.04963e-24)
(0.994219 0.0128737 0)
(0.994349 0.0133656 0)
(0.994501 0.0138473 -1.23421e-24)
(0.994675 0.0143159 -1.95922e-21)
(0.994869 0.0147709 3.93831e-21)
(0.995084 0.015211 -3.90669e-21)
(0.995319 0.0156341 3.87122e-21)
(0.995573 0.0160398 -7.74129e-21)
(0.995847 0.0164266 2.02722e-23)
(0.99614 0.0167929 3.82292e-21)
(0.99645 0.0171381 3.77791e-21)
(0.996778 0.0174612 -7.55023e-21)
(0.997123 0.0177606 -7.48792e-21)
(0.997485 0.0180364 -3.7271e-21)
(0.997862 0.0182869 -3.70101e-21)
(0.998255 0.0185112 0)
(0.998663 0.0187097 -3.63952e-21)
(0.999086 0.0188798 -4.5065e-24)
(0.999525 0.019023 7.17597e-21)
(0.99998 0.0191358 -8.90033e-21)
(1.00046 0.0192188 1.75854e-21)
(1.00096 0.0192853 0)
(0.997835 -0.00047844 0)
(0.997421 -0.000192975 -8.75937e-21)
(0.996961 7.71499e-05 0)
(0.996489 0.000414299 8.72893e-21)
(0.996026 0.000791917 4.3728e-21)
(0.995563 0.00119914 -8.73825e-21)
(0.995116 0.00163476 1.30494e-20)
(0.994689 0.00210238 4.32922e-21)
(0.994286 0.00259254 -4.32248e-21)
(0.993906 0.00311144 0)
(0.993551 0.00365184 4.31848e-21)
(0.993224 0.00421402 -8.61025e-21)
(0.992923 0.00479918 4.32784e-21)
(0.992649 0.00539892 -4.26633e-21)
(0.992405 0.00601784 3.40927e-23)
(0.992188 0.00665002 4.26878e-21)
(0.992001 0.00729341 -8.50086e-21)
(0.991844 0.00795091 0)
(0.991716 0.00861339 4.20839e-21)
(0.991619 0.00928304 -4.20823e-21)
(0.991552 0.00995883 -1.04017e-21)
(0.991515 0.0106348 0)
(0.991509 0.0113119 1.04241e-21)
(0.991534 0.0119882 2.57909e-22)
(0.991589 0.0126594 -5.46729e-22)
(0.991675 0.0133251 7.66085e-22)
(0.991791 0.0139841 5.0412e-22)
(0.991936 0.0146323 -1.01316e-21)
(0.992112 0.015269 0)
(0.992317 0.015893 -1.99295e-21)
(0.992551 0.0165009 3.98712e-21)
(0.992813 0.017092 0)
(0.993102 0.0176646 1.95651e-21)
(0.993419 0.0182161 0)
(0.993762 0.018746 3.8655e-21)
(0.99413 0.0192525 -7.70089e-21)
(0.994524 0.0197337 3.81107e-21)
(0.994941 0.0201888 -2.45767e-23)
(0.995381 0.0206165 3.74016e-21)
(0.995844 0.021015 -3.75813e-21)
(0.996328 0.0213846 3.71498e-21)
(0.996832 0.0217229 7.38728e-21)
(0.997356 0.0220293 0)
(0.9979 0.0223042 0)
(0.998462 0.0225444 -7.22652e-21)
(0.999044 0.022752 -1.43333e-20)
(0.999648 0.0229227 1.42244e-20)
(1.00028 0.0230578 -7.951e-21)
(1.00094 0.023179 7.87285e-21)
(0.996774 -0.00302293 0)
(0.996216 -0.00263538 8.94995e-21)
(0.995616 -0.00219877 8.93541e-21)
(0.994997 -0.00169384 1.33773e-20)
(0.994382 -0.00120315 -1.33633e-20)
(0.993778 -0.000721305 -4.42376e-21)
(0.993197 -0.000163851 1.33292e-20)
(0.992652 0.000439557 -4.40556e-21)
(0.992124 0.00107065 4.40802e-21)
(0.991624 0.00173841 0)
(0.991157 0.00243335 8.82604e-21)
(0.990724 0.00315563 0)
(0.990325 0.00390641 -4.32964e-21)
(0.989963 0.00467543 -4.37732e-21)
(0.989637 0.00546844 5.86898e-23)
(0.989349 0.0062781 0)
(0.9891 0.00710194 4.31374e-21)
(0.988889 0.0079434 8.60596e-21)
(0.988717 0.00879147 0)
(0.988585 0.00964889 2.12025e-21)
(0.988494 0.0105141 -2.1195e-21)
(0.988442 0.0113801 -2.10051e-21)
(0.988432 0.0122478 2.11301e-21)
(0.988463 0.0131147 -4.7016e-24)
(0.988534 0.0139758 -5.1979e-22)
(0.988646 0.0148304 -2.28682e-22)
(0.988798 0.0156767 -5.14057e-22)
(0.98899 0.01651 1.02513e-21)
(0.989223 0.0173292 0)
(0.989493 0.0181325 2.00779e-21)
(0.989803 0.0189159 -3.99923e-21)
(0.99015 0.0196784 0)
(0.990534 0.0204178 0)
(0.990953 0.0211309 3.90778e-21)
(0.991408 0.0218167 -7.7893e-21)
(0.991895 0.0224736 3.88193e-21)
(0.992416 0.0230986 3.85061e-21)
(0.992967 0.023691 0)
(0.993548 0.0242493 1.1341e-20)
(0.994157 0.0247711 -7.50439e-21)
(0.994794 0.025257 -3.71821e-21)
(0.995457 0.025704 1.17939e-23)
(0.996143 0.0261115 -7.33303e-21)
(0.996854 0.0264802 -7.26524e-21)
(0.997588 0.0268063 -7.20867e-21)
(0.998346 0.0270923 1.2648e-23)
(0.999131 0.0273331 -1.87453e-23)
(0.999947 0.0275312 0)
(1.00081 0.027719 -1.39512e-20)
(0.995393 -0.00640881 0)
(0.994683 -0.00591337 2.36095e-21)
(0.993912 -0.00535004 -1.11828e-20)
(0.993114 -0.00474212 -8.93929e-21)
(0.992307 -0.00409722 8.92909e-21)
(0.991525 -0.00341554 4.55835e-21)
(0.99077 -0.00263321 -4.4254e-21)
(0.990047 -0.00186118 0)
(0.989359 -0.00111396 0)
(0.98871 -0.000272319 8.98936e-21)
(0.988106 0.000611931 -8.83551e-21)
(0.98754 0.00153057 4.43271e-21)
(0.987017 0.00248515 -4.42892e-21)
(0.986539 0.00346333 4.42243e-21)
(0.986109 0.00447207 4.42648e-21)
(0.985727 0.00550226 -4.38697e-21)
(0.985396 0.00655088 -4.33336e-21)
(0.985114 0.00762176 -4.3142e-21)
(0.984883 0.00870206 4.31811e-21)
(0.984705 0.00979488 -4.3169e-21)
(0.98458 0.010898 0)
(0.984507 0.0120031 2.1495e-21)
(0.984489 0.0131112 -2.11198e-21)
(0.984524 0.0142188 1.58182e-21)
(0.984614 0.0153201 0)
(0.984757 0.0164138 1.04335e-21)
(0.984954 0.0174973 0)
(0.985204 0.0185653 -1.02395e-21)
(0.985508 0.0196157 1.97294e-23)
(0.985862 0.0206463 1.33147e-23)
(0.986268 0.0216522 4.05409e-21)
(0.986723 0.0226315 0)
(0.987227 0.0235818 0)
(0.987778 0.0244987 0)