/*--------------------------------*- C++ -*----------------------------------*\
| =========                 |                                                 |
| \\      /  F ield         | OpenFOAM: The Open Source CFD Toolbox           |
|  \\    /   O peration     | Version:  2312                                  |
|   \\  /    A nd           | Website:  www.openfoam.com                      |
|    \\/     M anipulation  |                                                 |
\*---------------------------------------------------------------------------*/
FoamFile
{
    version     2.0;
    format      ascii;
    arch        "LSB;label=32;scalar=64";
    class       volScalarField;
    location    "10.925945212219329";
    object      p;
}
// * * * * * * * * * * * * * * * * * * * * * * * * * * * * * * * * * * * * * //

dimensions      [0 2 -2 0 0 0 0];

internalField   nonuniform List<scalar> 
21039
(
0.578962
0.445149
0.403121
0.374935
0.353703
0.33773
0.325409
0.315637
0.307733
0.301244
0.295853
0.29133
0.287503
0.28424
0.281438
0.279013
0.276898
0.275037
0.273381
0.271888
0.270524
0.269258
0.26806
0.266968
0.266014
0.265161
0.264373
0.26362
0.262891
0.431763
0.394016
0.380295
0.361983
0.345317
0.332139
0.321506
0.312785
0.305582
0.299585
0.294551
0.290296
0.286673
0.283572
0.280899
0.278581
0.276555
0.274768
0.273177
0.27174
0.270423
0.269196
0.268031
0.266961
0.266016
0.265166
0.264378
0.263626
0.262897
0.34227
0.339977
0.342239
0.33557
0.327235
0.31955
0.312415
0.306014
0.300418
0.295567
0.291374
0.287752
0.284619
0.281903
0.279543
0.277482
0.275672
0.274071
0.272639
0.271343
0.27015
0.269032
0.267962
0.266967
0.266077
0.265266
0.264508
0.26378
0.263072
0.304061
0.306235
0.310817
0.309841
0.30734
0.304237
0.300558
0.296772
0.293145
0.28978
0.28672
0.283978
0.281541
0.279387
0.277487
0.275811
0.274329
0.27301
0.271828
0.270753
0.26976
0.268822
0.267918
0.267062
0.266279
0.265553
0.264862
0.264186
0.263516
0.278864
0.282876
0.288888
0.290729
0.291063
0.290464
0.289065
0.287278
0.285325
0.283331
0.281393
0.279568
0.277889
0.276365
0.274997
0.273778
0.272692
0.271725
0.270855
0.270065
0.269332
0.268635
0.267954
0.267292
0.266663
0.266057
0.265461
0.264858
0.264242
0.259008
0.264296
0.271774
0.27579
0.277945
0.278898
0.278979
0.278568
0.277849
0.276944
0.275958
0.27496
0.273997
0.273096
0.272275
0.271538
0.270884
0.270307
0.269796
0.269336
0.268912
0.268506
0.2681
0.267678
0.267242
0.266788
0.266311
0.265802
0.265259
0.245989
0.251032
0.258252
0.263359
0.266746
0.268851
0.270039
0.270656
0.270879
0.27084
0.270642
0.270358
0.27004
0.269723
0.269432
0.269181
0.268974
0.268812
0.26869
0.268599
0.268526
0.268454
0.268371
0.268237
0.268033
0.267765
0.267435
0.26704
0.266589
0.238405
0.242516
0.248375
0.253494
0.25738
0.260145
0.262077
0.263445
0.264397
0.265055
0.265514
0.265846
0.266104
0.266326
0.26654
0.266764
0.267008
0.267277
0.267567
0.267875
0.26819
0.268498
0.268784
0.268984
0.269056
0.269008
0.268852
0.268589
0.268229
0.233558
0.236761
0.241238
0.245904
0.249794
0.252792
0.255116
0.256961
0.258433
0.259627
0.26062
0.261475
0.26224
0.262954
0.263642
0.264326
0.265018
0.265723
0.266444
0.267176
0.267912
0.26864
0.269346
0.269933
0.270326
0.270539
0.270595
0.270498
0.27026
0.229785
0.232234
0.23566
0.239798
0.243506
0.246531
0.249033
0.251155
0.252975
0.254562
0.255975
0.257264
0.258469
0.259624
0.260754
0.261877
0.263008
0.264154
0.265317
0.266495
0.267683
0.26887
0.270045
0.271072
0.271837
0.272357
0.27266
0.272758
0.272667
0.226383
0.228228
0.230898
0.234524
0.238002
0.240984
0.243568
0.245858
0.247915
0.249794
0.251538
0.253186
0.254771
0.256321
0.257859
0.259401
0.260961
0.262546
0.264161
0.265803
0.26747
0.269152
0.270841
0.272362
0.273552
0.274428
0.275023
0.275353
0.275435
0.223035
0.224431
0.226565
0.229726
0.232959
0.235868
0.238485
0.240882
0.243111
0.245214
0.247226
0.249176
0.251093
0.253
0.254915
0.256856
0.258834
0.260858
0.262929
0.265049
0.267215
0.269422
0.271665
0.27373
0.275398
0.276682
0.277615
0.278216
0.278504
0.219579
0.220661
0.222422
0.225181
0.228178
0.230997
0.233614
0.236078
0.238433
0.240712
0.242944
0.245153
0.247363
0.249592
0.25186
0.254182
0.256568
0.259025
0.261556
0.264161
0.266838
0.269587
0.27241
0.275054
0.277245
0.278983
0.280302
0.281216
0.281745
0.215942
0.216808
0.218302
0.220725
0.223504
0.226227
0.228823
0.231326
0.233772
0.23619
0.238604
0.241035
0.243502
0.246026
0.248624
0.251311
0.254095
0.256981
0.259971
0.263064
0.266255
0.269546
0.272946
0.276169
0.27889
0.281105
0.282842
0.284105
0.284909
0.212104
0.212818
0.214103
0.216232
0.218803
0.221423
0.223988
0.22651
0.229021
0.231548
0.23411
0.236729
0.239423
0.242214
0.24512
0.248155
0.251326
0.254638
0.258089
0.261672
0.265376
0.269192
0.273129
0.276864
0.280046
0.282688
0.284824
0.286446
0.287555
0.208391
0.208993
0.210113
0.212023
0.214426
0.216951
0.219478
0.222007
0.224563
0.227169
0.229845
0.232613
0.235496
0.238516
0.241693
0.245041
0.248571
0.252286
0.256181
0.260237
0.264426
0.26871
0.273061
0.277084
0.280424
0.283169
0.285427
0.287226
0.288561
0.205195
0.205724
0.20674
0.20851
0.210786
0.213228
0.215723
0.21826
0.220854
0.223524
0.226292
0.229181
0.232219
0.235432
0.238842
0.242467
0.24632
0.250407
0.254719
0.259229
0.263885
0.268601
0.27327
0.277338
0.280389
0.282588
0.284208
0.285508
0.286719
0.202505
0.202985
0.20393
0.205597
0.207777
0.210166
0.212658
0.215221
0.217859
0.22059
0.223439
0.226438
0.229617
0.233004
0.236627
0.240508
0.244669
0.249117
0.253847
0.258826
0.263986
0.269194
0.274245
0.278332
0.280787
0.281647
0.281197
0.279967
0.279061
0.200297
0.200825
0.201787
0.203352
0.205366
0.207656
0.210147
0.212759
0.215456
0.218254
0.22119
0.224299
0.227617
0.231175
0.235005
0.23914
0.243606
0.24842
0.253582
0.259066
0.264803
0.270645
0.276323
0.280791
0.282937
0.282256
0.278421
0.270888
0.259493
0.262176
0.261456
0.26074
0.260029
0.259321
0.258615
0.257909
0.257203
0.256497
0.255789
0.255078
0.254364
0.253646
0.252923
0.252195
0.25146
0.250719
0.249971
0.249216
0.248452
0.247681
0.246902
0.246115
0.24532
0.244517
0.243706
0.242888
0.242063
0.241231
0.240393
0.239549
0.2387
0.237846
0.236989
0.236128
0.235266
0.234402
0.233538
0.232675
0.231813
0.230953
0.230097
0.229246
0.2284
0.227561
0.226729
0.225906
0.225091
0.224286
0.262185
0.261474
0.260769
0.260068
0.25937
0.258673
0.257977
0.257281
0.256584
0.255885
0.255183
0.254477
0.253767
0.253051
0.252329
0.2516
0.250864
0.250121
0.249368
0.248608
0.247838
0.24706
0.246273
0.245477
0.244672
0.243858
0.243036
0.242206
0.241369
0.240525
0.239674
0.238818
0.237956
0.23709
0.236221
0.235349
0.234475
0.2336
0.232726
0.231853
0.230982
0.230114
0.22925
0.228392
0.22754
0.226695
0.225859
0.225032
0.224215
0.262383
0.261697
0.261016
0.260338
0.259663
0.258988
0.258313
0.257636
0.256957
0.256275
0.255588
0.254896
0.254198
0.253492
0.252778
0.252056
0.251324
0.250583
0.249831
0.249069
0.248296
0.247512
0.246718
0.245912
0.245096
0.24427
0.243434
0.242588
0.241733
0.24087
0.239998
0.23912
0.238236
0.237346
0.236451
0.235553
0.234652
0.233749
0.232846
0.231943
0.231042
0.230144
0.229249
0.228359
0.227475
0.226598
0.225729
0.224869
0.22402
0.262865
0.262217
0.261572
0.260927
0.260284
0.259638
0.258991
0.258339
0.257683
0.257021
0.256352
0.255675
0.254989
0.254293
0.253586
0.252867
0.252137
0.251393
0.250637
0.249867
0.249084
0.248287
0.247476
0.246652
0.245815
0.244965
0.244103
0.243229
0.242343
0.241447
0.240542
0.239627
0.238705
0.237775
0.236839
0.235898
0.234953
0.234005
0.233056
0.232105
0.231156
0.230207
0.229262
0.228321
0.227385
0.226455
0.225533
0.224619
0.223714
0.26364
0.263042
0.262443
0.261842
0.261238
0.26063
0.260016
0.259395
0.258766
0.258127
0.257478
0.256817
0.256143
0.255455
0.254753
0.254035
0.253302
0.252552
0.251785
0.251001
0.2502
0.249382
0.248547
0.247695
0.246826
0.245942
0.245042
0.244128
0.2432
0.242258
0.241305
0.24034
0.239364
0.23838
0.237387
0.236388
0.235383
0.234373
0.23336
0.232345
0.23133
0.230314
0.229301
0.22829
0.227283
0.226282
0.225287
0.2243
0.223322
0.264718
0.264179
0.263637
0.26309
0.262536
0.261972
0.261399
0.260814
0.260217
0.259605
0.258978
0.258335
0.257673
0.256994
0.256294
0.255575
0.254835
0.254073
0.25329
0.252486
0.25166
0.250812
0.249943
0.249053
0.248143
0.247213
0.246264
0.245297
0.244313
0.243312
0.242296
0.241265
0.240222
0.239167
0.238102
0.237028
0.235946
0.234857
0.233764
0.232666
0.231567
0.230467
0.229367
0.228268
0.227173
0.226082
0.224996
0.223918
0.222848
0.26615
0.265634
0.265177
0.264699
0.264203
0.263693
0.263169
0.262626
0.262066
0.261485
0.260883
0.260258
0.25961
0.258937
0.258239
0.257515
0.256764
0.255986
0.255181
0.254349
0.253489
0.252603
0.251691
0.250752
0.249789
0.248801
0.24779
0.246756
0.245701
0.244626
0.243532
0.242421
0.241293
0.240151
0.238996
0.237829
0.236652
0.235467
0.234274
0.233076
0.231874
0.23067
0.229464
0.228259
0.227056
0.225857
0.224661
0.223472
0.222292
0.267872
0.267516
0.267133
0.266721
0.266275
0.265836
0.265367
0.264867
0.264345
0.263798
0.263223
0.262619
0.261983
0.261316
0.260617
0.259884
0.259118
0.258318
0.257485
0.256617
0.255716
0.254782
0.253816
0.252818
0.251789
0.250731
0.249644
0.248529
0.247389
0.246224
0.245036
0.243826
0.242597
0.24135
0.240086
0.238808
0.237516
0.236214
0.234902
0.233583
0.232258
0.230929
0.229598
0.228266
0.226935
0.225606
0.22428
0.222961
0.221652
0.270006
0.269743
0.26945
0.269138
0.268806
0.268443
0.268047
0.267523
0.267064
0.266565
0.266023
0.265441
0.26482
0.264159
0.263457
0.262713
0.261929
0.261101
0.260233
0.259323
0.258373
0.257382
0.256352
0.255283
0.254177
0.253035
0.251858
0.250648
0.249406
0.248135
0.246835
0.245509
0.244159
0.242786
0.241393
0.239983
0.238555
0.237114
0.235661
0.234198
0.232727
0.231251
0.229771
0.228288
0.226806
0.225326
0.223848
0.222377
0.220918
0.272541
0.272394
0.272203
0.271978
0.271717
0.27142
0.271089
0.270719
0.270304
0.269837
0.269319
0.268753
0.268151
0.267496
0.266789
0.266032
0.265225
0.264367
0.26346
0.262502
0.261495
0.26044
0.259337
0.258188
0.256994
0.255756
0.254476
0.253156
0.251796
0.250401
0.248971
0.247508
0.246016
0.244495
0.24295
0.241382
0.239793
0.238188
0.236567
0.234933
0.23329
0.231638
0.229982
0.228322
0.226662
0.225003
0.223346
0.221698
0.220064
0.27546
0.275449
0.27538
0.275266
0.275106
0.274898
0.27464
0.27433
0.273968
0.273551
0.273083
0.272561
0.271977
0.27133
0.270623
0.26986
0.269035
0.268149
0.267203
0.266197
0.265133
0.26401
0.26283
0.261594
0.260303
0.258958
0.257563
0.256118
0.254624
0.253086
0.251505
0.249883
0.248224
0.24653
0.244804
0.24305
0.241269
0.239467
0.237645
0.235807
0.233957
0.232096
0.230229
0.228357
0.226485
0.224614
0.222745
0.220888
0.21905
0.278706
0.278847
0.278919
0.278934
0.278892
0.27879
0.278628
0.278401
0.278112
0.277757
0.277337
0.27685
0.276296
0.275675
0.274985
0.274225
0.273397
0.272495
0.271524
0.27048
0.269364
0.268179
0.266923
0.265599
0.264209
0.262751
0.26123
0.259647
0.258002
0.256301
0.254546
0.252737
0.250882
0.24898
0.247037
0.245059
0.243044
0.241003
0.238935
0.236847
0.234744
0.232626
0.230501
0.228371
0.226241
0.224114
0.22199
0.219882
0.2178
0.282153
0.282466
0.282698
0.282864
0.282962
0.282992
0.28295
0.282836
0.28265
0.282388
0.282051
0.281636
0.281144
0.280575
0.279926
0.279198
0.278385
0.277489
0.276526
0.275463
0.274317
0.273087
0.271769
0.270367
0.268881
0.267308
0.265656
0.263923
0.26211
0.260224
0.258265
0.256236
0.254144
0.251989
0.249781
0.247523
0.245218
0.242875
0.240499
0.238095
0.235672
0.23323
0.230781
0.228326
0.225874
0.223427
0.220987
0.21857
0.21619
0.285553
0.28606
0.286479
0.28683
0.287107
0.287312
0.287442
0.287494
0.287469
0.287361
0.287172
0.286894
0.286529
0.286075
0.285527
0.284888
0.28415
0.283311
0.282375
0.281356
0.280224
0.278983
0.27763
0.27617
0.274602
0.272922
0.271136
0.269242
0.26724
0.265139
0.262937
0.260639
0.258254
0.255781
0.253232
0.250615
0.24793
0.245194
0.242411
0.239591
0.236745
0.233876
0.231001
0.228121
0.22525
0.222392
0.21955
0.216744
0.213993
0.288465
0.289181
0.289822
0.290411
0.290942
0.291414
0.29182
0.292154
0.29241
0.292575
0.292648
0.292619
0.292487
0.292251
0.291902
0.291444
0.290868
0.290176
0.289366
0.288426
0.287385
0.286197
0.28486
0.283385
0.281767
0.279996
0.278082
0.27602
0.273805
0.271451
0.268954
0.266319
0.263558
0.260671
0.257674
0.254577
0.251383
0.248114
0.244776
0.241387
0.237961
0.234506
0.231047
0.227589
0.224151
0.220744
0.217373
0.214063
0.21084
0.289705
0.290589
0.291492
0.292451
0.29343
0.294406
0.295333
0.296183
0.296935
0.297562
0.298066
0.298431
0.298663
0.298763
0.298723
0.298554
0.298241
0.297792
0.297207
0.296457
0.295554
0.294535
0.293291
0.291868
0.290255
0.288436
0.286418
0.284193
0.281753
0.279111
0.276264
0.273218
0.269988
0.266576
0.263003
0.259284
0.255424
0.251456
0.247387
0.243242
0.239043
0.234805
0.230561
0.226326
0.222133
0.218003
0.213953
0.21002
0.206239
0.288028
0.288976
0.290314
0.292034
0.29393
0.295848
0.297657
0.299292
0.300724
0.301934
0.302944
0.303751
0.304382
0.304852
0.305159
0.305323
0.30533
0.305192
0.304907
0.304442
0.303799
0.302967
0.30193
0.300653
0.299129
0.297334
0.295271
0.292924
0.290279
0.287352
0.284139
0.280645
0.276896
0.272892
0.268666
0.264239
0.259621
0.254855
0.249951
0.244942
0.239853
0.234702
0.229531
0.22436
0.219235
0.214199
0.209296
0.204603
0.200186
0.278939
0.280286
0.28379
0.288153
0.292401
0.296169
0.299342
0.301959
0.304104
0.305845
0.307277
0.30844
0.309394
0.310175
0.310795
0.311285
0.311629
0.311843
0.311923
0.311822
0.311541
0.311045
0.310304
0.309283
0.307954
0.306274
0.304238
0.301817
0.298988
0.295772
0.292163
0.288171
0.283832
0.279154
0.274185
0.268956
0.263488
0.257838
0.252021
0.246079
0.240038
0.23391
0.227732
0.221506
0.215272
0.209067
0.20297
0.197171
0.191938
0.251046
0.261832
0.274438
0.284806
0.292542
0.298181
0.302299
0.305388
0.307781
0.30968
0.311242
0.312534
0.313641
0.314605
0.315446
0.316207
0.316868
0.317447
0.317932
0.31826
0.318423
0.318364
0.318017
0.317365
0.31634
0.314884
0.312972
0.310556
0.307601
0.304129
0.300137
0.295644
0.290701
0.285328
0.279593
0.273545
0.267219
0.260693
0.253992
0.247172
0.240262
0.233269
0.226214
0.219054
0.211762
0.204261
0.196475
0.188471
0.180825
0.2235
0.222692
0.221831
0.220906
0.219903
0.218818
0.21768
0.216631
0.215775
0.215142
0.214767
0.214681
0.214932
0.215563
0.216627
0.218187
0.220323
0.223133
0.226743
0.23132
0.237089
0.244361
0.253584
0.265433
0.281008
0.301913
0.329842
0.371641
0.505279
0.223414
0.22259
0.221709
0.220759
0.219725
0.218601
0.217418
0.216319
0.215411
0.214725
0.214292
0.214147
0.214327
0.214875
0.215839
0.217278
0.219261
0.221875
0.225227
0.229457
0.234742
0.241322
0.249501
0.25967
0.272453
0.28879
0.306842
0.320339
0.357927
0.223185
0.222324
0.221397
0.220391
0.219287
0.218078
0.216792
0.215578
0.21455
0.213737
0.213166
0.212869
0.212876
0.213222
0.213946
0.215092
0.216709
0.218854
0.221595
0.225004
0.229164
0.234155
0.240032
0.246717
0.254019
0.262031
0.268437
0.265943
0.268086
0.222823
0.221898
0.220897
0.219801
0.218589
0.21725
0.215805
0.214413
0.2132
0.212191
0.21141
0.21088
0.210625
0.210669
0.211037
0.211754
0.212843
0.214325
0.216219
0.218527
0.221233
0.224284
0.227572
0.230825
0.233565
0.235759
0.236479
0.231676
0.229369
0.222353
0.221342
0.220238
0.219022
0.217666
0.216152
0.214498
0.212877
0.211426
0.210169
0.209124
0.208308
0.207735
0.207421
0.207374
0.207602
0.208106
0.208878
0.209899
0.211132
0.212508
0.213927
0.215253
0.21626
0.216528
0.215916
0.213847
0.207646
0.203524
0.221782
0.220663
0.219432
0.218066
0.21653
0.214801
0.212893
0.210996
0.209265
0.20772
0.206375
0.20524
0.204324
0.20363
0.203156
0.202897
0.202838
0.202955
0.20321
0.203548
0.203892
0.204131
0.204133
0.203708
0.202469
0.200079
0.19588
0.188256
0.182878
0.22111
0.219859
0.218475
0.216928
0.215178
0.213194
0.210988
0.208772
0.206724
0.20486
0.203191
0.201721
0.200451
0.199379
0.198493
0.19778
0.197214
0.196763
0.196381
0.196006
0.195558
0.194923
0.193963
0.192494
0.190162
0.186601
0.18137
0.174052
0.168938
0.220332
0.218925
0.217359
0.215598
0.213596
0.211317
0.208768
0.206194
0.203798
0.201592
0.199582
0.197771
0.196153
0.194718
0.19345
0.192328
0.191322
0.190393
0.189491
0.188553
0.187498
0.186221
0.184593
0.182459
0.179543
0.175558
0.170388
0.16448
0.160316
0.219435
0.217845
0.216067
0.214056
0.211762
0.209143
0.206209
0.20324
0.200468
0.197903
0.195548
0.1934
0.191448
0.189678
0.188069
0.186593
0.185218
0.183903
0.182597
0.18124
0.17976
0.178069
0.176065
0.173634
0.170578
0.166681
0.162042
0.157567
0.154324
0.218393
0.216589
0.214562
0.212262
0.209632
0.206628
0.203263
0.199864
0.196695
0.193763
0.191066
0.188595
0.186335
0.184269
0.182366
0.180599
0.178932
0.177325
0.175729
0.174091
0.172351
0.170438
0.168277
0.165781
0.162807
0.159195
0.155172
0.151796
0.149316
0.217156
0.215101
0.212785
0.210149
0.207133
0.203693
0.199852
0.195992
0.192411
0.189113
0.186087
0.183319
0.180788
0.178468
0.176329
0.174339
0.172459
0.17065
0.168868
0.167065
0.16519
0.163188
0.160997
0.15855
0.155743
0.152478
0.149053
0.146477
0.144611
0.215641
0.21329
0.210634
0.207608
0.204149
0.200219
0.195857
0.191511
0.187515
0.183861
0.180533
0.177506
0.17475
0.172234
0.169923
0.167779
0.165764
0.163837
0.161957
0.160081
0.158164
0.156161
0.154021
0.15169
0.149094
0.146196
0.143325
0.141327
0.139917
0.213711
0.211008
0.20795
0.204468
0.200504
0.196028
0.191108
0.186265
0.181865
0.177888
0.174301
0.171069
0.168152
0.165507
0.163094
0.160872
0.158798
0.156833
0.154934
0.153062
0.151178
0.149244
0.147216
0.145049
0.142695
0.140162
0.137781
0.136192
0.135102
0.211121
0.207993
0.20446
0.200451
0.195918
0.190852
0.185358
0.180036
0.175276
0.171035
0.167261
0.163901
0.160902
0.158212
0.155781
0.153563
0.151513
0.149587
0.147745
0.14595
0.144165
0.142357
0.140491
0.138525
0.13643
0.134247
0.132286
0.130995
0.130126
0.207479
0.203839
0.199749
0.195144
0.189997
0.18433
0.178292
0.172559
0.167529
0.163125
0.159269
0.155889
0.152914
0.15028
0.147929
0.145806
0.143865
0.14206
0.140351
0.1387
0.137074
0.135443
0.133775
0.132037
0.130215
0.128374
0.126784
0.125726
0.125004
0.202319
0.198123
0.193467
0.188298
0.182617
0.17648
0.170068
0.16411
0.158989
0.154591
0.150811
0.147553
0.144731
0.14227
0.140103
0.138169
0.136421
0.13481
0.133295
0.131841
0.130416
0.128991
0.127541
0.12604
0.124485
0.122943
0.121648
0.120771
0.120148
0.195657
0.190918
0.185814
0.180286
0.174326
0.167992
0.161481
0.155541
0.150532
0.146311
0.142748
0.139731
0.137161
0.134954
0.133037
0.131349
0.129836
0.128452
0.127157
0.125916
0.124697
0.123475
0.12223
0.120952
0.119644
0.118356
0.117278
0.116533
0.11598
0.186861
0.181853
0.17678
0.171356
0.165498
0.159274
0.152917
0.147196
0.142454
0.138532
0.135283
0.132582
0.130321
0.128411
0.126777
0.125357
0.124095
0.122949
0.121878
0.120847
0.119826
0.118789
0.117721
0.116626
0.115526
0.114456
0.113564
0.112934
0.11244
0.174661
0.170743
0.166742
0.161976
0.156562
0.150684
0.144661
0.139299
0.134927
0.13138
0.1285
0.126152
0.124224
0.122625
0.12128
0.120127
0.119112
0.118194
0.117334
0.116499
0.115656
0.114776
0.113853
0.112933
0.112081
0.11129
0.110582
0.109991
0.109476
0.198067
0.198373
0.199158
0.200753
0.202963
0.205459
0.208078
0.210756
0.213503
0.216366
0.219391
0.222618
0.22608
0.229814
0.233857
0.238247
0.243017
0.248192
0.253777
0.259755
0.266065
0.272553
0.278909
0.283937
0.286124
0.284257
0.276756
0.261324
0.22992
0.195824
0.196257
0.197157
0.198738
0.200864
0.203288
0.205876
0.208567
0.211368
0.214316
0.217451
0.22081
0.224429
0.22835
0.232615
0.237267
0.242347
0.24789
0.253917
0.260429
0.267411
0.274779
0.282292
0.288896
0.293101
0.294218
0.291628
0.286554
0.290291
0.193524
0.194042
0.195026
0.1966
0.198657
0.201008
0.203544
0.206222
0.209052
0.21206
0.215278
0.218742
0.222491
0.226571
0.23103
0.235921
0.241298
0.247213
0.253717
0.260863
0.268729
0.277422
0.286972
0.296969
0.306237
0.315055
0.324202
0.330978
0.346376
0.191141
0.191637
0.192595
0.194155
0.196217
0.198576
0.20111
0.203788
0.206635
0.20968
0.212956
0.216499
0.220352
0.224563
0.229189
0.234292
0.239941
0.246213
0.253197
0.261008
0.269834
0.280069
0.291968
0.306032
0.320983
0.337079
0.356571
0.374034
0.395554
0.188678
0.189138
0.190044
0.191573
0.193637
0.19601
0.198553
0.201238
0.204096
0.207165
0.210481
0.214082
0.218014
0.22233
0.227092
0.232372
0.238255
0.244838
0.252249
0.260666
0.270338
0.282035
0.295864
0.313419
0.332661
0.353533
0.379139
0.406331
0.435881
0.186136
0.186578
0.187449
0.188938
0.190971
0.193326
0.195857
0.198535
0.201393
0.204471
0.207806
0.211441
0.215423
0.219808
0.224664
0.230072
0.236127
0.242942
0.250674
0.259565
0.269799
0.282671
0.297476
0.316895
0.339568
0.364806
0.392772
0.422663
0.453704
0.183511
0.18394
0.184787
0.186232
0.188213
0.190523
0.193019
0.195671
0.198508
0.201572
0.204902
0.208539
0.212534
0.216945
0.221842
0.227312
0.23346
0.2404
0.248301
0.257481
0.267877
0.280943
0.297644
0.318136
0.341802
0.367743
0.394876
0.422704
0.451379
0.180796
0.181212
0.18203
0.183425
0.185344
0.187595
0.190039
0.192644
0.195439
0.198463
0.201756
0.20536
0.209325
0.213711
0.21859
0.224044
0.230192
0.237129
0.245016
0.254111
0.264914
0.27816
0.295181
0.315611
0.338354
0.362588
0.387255
0.41187
0.436348
0.177991
0.178391
0.179178
0.180516
0.182361
0.184539
0.186914
0.189452
0.19218
0.195137
0.198361
0.201894
0.205784
0.21009
0.214886
0.220236
0.226283
0.23305
0.24085
0.249904
0.260604
0.273542
0.28971
0.308876
0.329558
0.350993
0.372368
0.393386
0.413259
0.175093
0.175478
0.176231
0.177506
0.179266
0.181354
0.183641
0.186092
0.188729
0.19159
0.194712
0.198134
0.201902
0.206068
0.210714
0.215866
0.221708
0.228312
0.23584
0.244545
0.254689
0.266791
0.281517
0.298603
0.316522
0.334528
0.352024
0.369092
0.384679
0.172101
0.17247
0.173185
0.17439
0.176056
0.178042
0.180224
0.182566
0.185089
0.187826
0.190812
0.194083
0.197682
0.201651
0.20607
0.211005
0.216547
0.222815
0.229892
0.237982
0.247282
0.258194
0.271129
0.285672
0.300426
0.314714
0.328121
0.341035
0.352548
0.169016
0.169368
0.170044
0.171175
0.172738
0.174607
0.176666
0.17888
0.181264
0.183849
0.186667
0.18975
0.193136
0.196866
0.201007
0.205629
0.210782
0.216566
0.223043
0.230353
0.238623
0.248118
0.259028
0.27082
0.282314
0.292971
0.302542
0.311555
0.319369
0.165843
0.166183
0.166821
0.167873
0.169322
0.171057
0.172973
0.175036
0.177258
0.179665
0.182285
0.185144
0.188278
0.191722
0.195527
0.199746
0.204422
0.209623
0.215386
0.221792
0.228896
0.23683
0.245607
0.254656
0.263062
0.270454
0.276743
0.282481
0.287267
0.162583
0.162905
0.163498
0.164467
0.165797
0.167391
0.169154
0.171049
0.173088
0.175293
0.177688
0.180293
0.183137
0.186246
0.18966
0.193412
0.197541
0.20208
0.207042
0.212452
0.218304
0.224626
0.231302
0.237794
0.243473
0.248136
0.251826
0.255069
0.257664
0.159242
0.159548
0.160096
0.160978
0.162183
0.163626
0.16522
0.166932
0.168769
0.170754
0.172901
0.175225
0.177744
0.180479
0.183456
0.186694
0.190219
0.194036
0.198134
0.202494
0.207063
0.211799
0.216503
0.220726
0.224113
0.226615
0.228366
0.229853
0.231066
0.155827
0.156118
0.156621
0.157415
0.158489
0.159771
0.161185
0.162696
0.164321
0.166068
0.167946
0.169963
0.172131
0.174458
0.176962
0.179648
0.182522
0.185572
0.188763
0.192047
0.19534
0.198554
0.201452
0.203709
0.20523
0.20609
0.206468
0.206815
0.207298
0.152344
0.152619
0.153072
0.153776
0.15472
0.155836
0.157058
0.158368
0.159768
0.161263
0.162856
0.164549
0.166343
0.16824
0.170243
0.172346
0.17454
0.176793
0.179057
0.18126
0.183304
0.185079
0.186341
0.186917
0.186945
0.186599
0.186044
0.1857
0.185905
0.148803
0.149063
0.149466
0.150081
0.150895
0.151831
0.152867
0.153965
0.155131
0.156365
0.157664
0.159019
0.160427
0.161878
0.163364
0.164867
0.166363
0.167807
0.169138
0.170271
0.171103
0.171519
0.171296
0.170424
0.169252
0.168015
0.166822
0.166053
0.166223
0.145214
0.145459
0.145825
0.146344
0.147014
0.147792
0.148625
0.149506
0.150434
0.151403
0.1524
0.153412
0.154425
0.155423
0.156384
0.157279
0.158071
0.158704
0.159105
0.159182
0.158833
0.157952
0.156351
0.154188
0.152004
0.150072
0.148406
0.147348
0.14759
0.141586
0.141814
0.142134
0.142564
0.143098
0.143709
0.144348
0.145016
0.145707
0.146409
0.147104
0.147773
0.148392
0.148936
0.149374
0.149665
0.149759
0.149589
0.149072
0.148111
0.146608
0.144466
0.14154
0.138167
0.135072
0.132551
0.130494
0.129208
0.129562
0.137932
0.138143
0.138415
0.138758
0.139162
0.139605
0.140057
0.140517
0.140976
0.141416
0.141815
0.142146
0.14238
0.14248
0.142407
0.142109
0.141525
0.140574
0.139164
0.13719
0.134554
0.131168
0.126925
0.122341
0.118344
0.115249
0.112808
0.111296
0.111775
0.134262
0.134459
0.134684
0.13494
0.135218
0.135502
0.135773
0.136031
0.136265
0.136452
0.136565
0.136571
0.136433
0.136108
0.135545
0.134684
0.13345
0.131752
0.129485
0.126532
0.122784
0.118152
0.112552
0.106675
0.10168
0.0979316
0.0950328
0.0932493
0.09386
0.130589
0.130776
0.130959
0.131131
0.131286
0.131415
0.131512
0.131577
0.131596
0.131544
0.131386
0.131085
0.130596
0.129869
0.128845
0.127455
0.125612
0.123213
0.120138
0.116251
0.111424
0.105542
0.0985146
0.0911776
0.0849662
0.0803514
0.0768079
0.074638
0.0753833
0.126924
0.127097
0.127236
0.127327
0.127365
0.127351
0.127288
0.127175
0.126997
0.126723
0.126313
0.125726
0.124911
0.123813
0.122366
0.12049
0.11809
0.115049
0.111231
0.106478
0.100628
0.0935167
0.0850038
0.0760095
0.0682659
0.0624202
0.0578707
0.0550766
0.0559099
0.123277
0.123442
0.123544
0.123557
0.123483
0.123332
0.123118
0.122844
0.122487
0.122012
0.121374
0.120528
0.119419
0.117987
0.11616
0.113852
0.110958
0.107349
0.102875
0.0973531
0.0905803
0.0823213
0.0723329
0.061522
0.0518778
0.0442641
0.038068
0.034198
0.0350449
0.11966
0.119809
0.119864
0.119798
0.11962
0.119351
0.119012
0.118603
0.118094
0.117443
0.116603
0.115527
0.114158
0.112433
0.110277
0.107597
0.104281
0.100192
0.0951638
0.0889972
0.0814494
0.0722092
0.0609028
0.0483205
0.0365686
0.0266382
0.0178484
0.0120768
0.0128905
0.116105
0.116292
0.116355
0.116228
0.115918
0.115487
0.114998
0.114456
0.113815
0.113015
0.112006
0.110736
0.10915
0.107183
0.104756
0.101773
0.0981196
0.0936513
0.0881958
0.0815432
0.0734237
0.0634455
0.0510718
0.0369219
0.0231138
0.0106492
-0.00153865
-0.0110124
-0.0119326
0.144472
0.128971
0.107514
0.080544
0.0508543
0.0223299
-0.00296972
-0.0259304
-0.047925
-0.0713241
-0.0975582
-0.127571
-0.159622
-0.190092
-0.214907
-0.231392
-0.239456
-0.241212
-0.240384
0.150894
0.138732
0.118058
0.0900445
0.0567042
0.0215251
-0.0127926
-0.0470568
-0.0812991
-0.117279
-0.156206
-0.19621
-0.235281
-0.269902
-0.296714
-0.314339
-0.323856
-0.327789
-0.329008
0.14507
0.133814
0.114561
0.0863906
0.0506322
0.010211
-0.0313723
-0.0751969
-0.122182
-0.169882
-0.218329
-0.266271
-0.31112
-0.349373
-0.378364
-0.397565
-0.408594
-0.414069
-0.416624
0.133433
0.122769
0.10537
0.0776217
0.0403648
-0.00455532
-0.0550691
-0.108622
-0.164171
-0.221092
-0.278485
-0.334286
-0.385037
-0.426961
-0.457856
-0.478029
-0.489863
-0.496286
-0.499782
0.12018
0.110231
0.0938744
0.0659196
0.0256622
-0.0237623
-0.0797678
-0.140348
-0.203864
-0.26947
-0.335197
-0.397694
-0.452721
-0.496654
-0.528202
-0.548682
-0.56111
-0.568425
-0.572722
0.102887
0.0928951
0.0768212
0.0488269
0.00721868
-0.0449605
-0.104919
-0.171224
-0.242035
-0.315241
-0.387653
-0.454942
-0.512581
-0.557575
-0.589671
-0.610945
-0.624714
-0.633705
-0.639588
0.0809756
0.0697151
0.0532659
0.0254394
-0.0163353
-0.0699447
-0.132935
-0.203676
-0.279773
-0.358007
-0.434086
-0.502949
-0.560156
-0.603623
-0.634139
-0.654401
-0.667893
-0.677007
-0.683066
0.0557707
0.042352
0.02463
-0.00367278
-0.0457241
-0.100188
-0.164967
-0.23815
-0.316813
-0.396974
-0.473533
-0.541085
-0.595738
-0.636498
-0.665032
-0.684311
-0.69765
-0.706953
-0.713294
0.0284881
0.0125631
-0.00722557
-0.0370042
-0.0799337
-0.134981
-0.200282
-0.273863
-0.352481
-0.431574
-0.505516
-0.569026
-0.619108
-0.655836
-0.68148
-0.69905
-0.711588
-0.720564
-0.726736
-3.57888e-05
-0.018391
-0.040623
-0.0725165
-0.116732
-0.172141
-0.237033
-0.309504
-0.386146
-0.462011
-0.531315
-0.589327
-0.634125
-0.666696
-0.689656
-0.705874
-0.718036
-0.727263
-0.733959
-0.0289408
-0.0494306
-0.0740814
-0.108221
-0.153853
-0.209503
-0.273453
-0.343751
-0.41673
-0.48715
-0.549449
-0.599865
-0.63767
-0.6646
-0.683406
-0.696711
-0.706785
-0.714509
-0.720081
-0.0571168
-0.0792919
-0.106006
-0.142046
-0.188836
-0.24444
-0.306955
-0.374212
-0.442272
-0.5059
-0.56025
-0.602817
-0.633948
-0.655809
-0.671012
-0.68179
-0.689932
-0.69618
-0.70061
-0.0834746
-0.106809
-0.135046
-0.172335
-0.219678
-0.274699
-0.335248
-0.398912
-0.461591
-0.518358
-0.565327
-0.601174
-0.626997
-0.645091
-0.657795
-0.666971
-0.67404
-0.679694
-0.683826
-0.107233
-0.131238
-0.160452
-0.198291
-0.24549
-0.299295
-0.357277
-0.416714
-0.47343
-0.523029
-0.562745
-0.592316
-0.613338
-0.628038
-0.638421
-0.645997
-0.651861
-0.656633
-0.660097
-0.127896
-0.152163
-0.18185
-0.219587
-0.265942
-0.317858
-0.372652
-0.427351
-0.477903
-0.520697
-0.554094
-0.578652
-0.596174
-0.60865
-0.6177
-0.624491
-0.629846
-0.634288
-0.637533
-0.14534
-0.169576
-0.199332
-0.236445
-0.281389
-0.33089
-0.38211
-0.431962
-0.476725
-0.513648
-0.542034
-0.562949
-0.578184
-0.589435
-0.597978
-0.6047
-0.61024
-0.615004
-0.618604
-0.159809
-0.183864
-0.213443
-0.249621
-0.292805
-0.33951
-0.386773
-0.43151
-0.47053
-0.502021
-0.526076
-0.544035
-0.55752
-0.567883
-0.576077
-0.582744
-0.588375
-0.593241
-0.596923
-0.171656
-0.195515
-0.224815
-0.259935
-0.301203
-0.34493
-0.388097
-0.427798
-0.46154
-0.488409
-0.509067
-0.52491
-0.537297
-0.547237
-0.555387
-0.562179
-0.567986
-0.572969
-0.576728
-0.181324
-0.205096
-0.234175
-0.268314
-0.307753
-0.348609
-0.387908
-0.423051
-0.45228
-0.475415
-0.49346
-0.507743
-0.519348
-0.528994
-0.537111
-0.543976
-0.54988
-0.554923
-0.558725
-0.189287
-0.213201
-0.2423
-0.275737
-0.313573
-0.351649
-0.387095
-0.417794
-0.442823
-0.46265
-0.47845
-0.491366
-0.502186
-0.511367
-0.519165
-0.525753
-0.531369
-0.536089
-0.539598
-0.195808
-0.220229
-0.24977
-0.282979
-0.319588
-0.355098
-0.386849
-0.413395
-0.43468
-0.451672
-0.465571
-0.477277
-0.487307
-0.49591
-0.503218
-0.509338
-0.514466
-0.518691
-0.521786
-0.201029
-0.226485