/*--------------------------------*- C++ -*----------------------------------*\
| =========                 |                                                 |
| \\      /  F ield         | OpenFOAM: The Open Source CFD Toolbox           |
|  \\    /   O peration     | Version:  2312                                  |
|   \\  /    A nd           | Website:  www.openfoam.com                      |
|    \\/     M anipulation  |                                                 |
\*---------------------------------------------------------------------------*/
FoamFile
{
    version     2.0;
    format      ascii;
    arch        "LSB;label=32;scalar=64";
    class       volScalarField;
    location    "150";
    object      div(phi);
}
// * * * * * * * * * * * * * * * * * * * * * * * * * * * * * * * * * * * * * //

dimensions      [0 0 -1 0 0 0 0];

internalField   nonuniform List<scalar> 
10720
(
-0.000103164
-0.00385957
-0.000673687
-0.000304431
-0.000681044
-6.0412e-05
0.00114232
0.00259276
0.00416842
0.00591761
0.00751379
0.00834039
0.00755536
0.00462675
-0.000510091
-0.00710984
-0.0123284
-0.0120946
-0.00463347
0.00519222
0.00758503
-0.000766056
-0.00693307
-0.00113942
0.000621553
-0.00586404
0.00100145
0.00275308
-0.00232583
0.000267232
-0.00293908
0.00932247
-0.00394579
-0.0118882
-0.000249994
0.0649267
0.0301342
-0.00548954
-0.00583114
-0.00238792
-0.00151371
-0.00133105
-0.00208279
-0.00235431
-0.00301047
-0.00468671
-0.00723733
-0.00776563
-0.0052382
-0.00453021
-0.004314
-0.00450087
-0.00497871
-0.00540245
-0.00543055
-0.00486341
-0.0037152
-0.00242887
-0.00180071
-0.00219495
-0.00282361
-0.00219629
0.000407268
0.00231371
0.000707781
-0.00107088
0.000268979
0.000611372
-0.000131757
0.000250597
-0.0012187
0.000912285
-0.000452089
-0.00140099
0.000915552
-0.00137278
0.00181861
-0.00148608
-0.00148538
-0.00368406
-0.000879445
-0.000444937
0.000742999
0.00246766
0.00467836
0.00726846
0.00999437
0.0120873
0.0124771
0.0101535
0.00452783
-0.00380663
-0.0126113
-0.0173043
-0.0135198
-0.00230978
0.00770995
0.00885675
0.00524309
0.00608374
0.00345946
0.000897208
0.00732279
0.00141624
-0.00230421
0.00337836
-0.00410978
0.00515701
-0.00462321
0.00223802
0.00369795
0.00948799
-0.0264882
-0.0349872
-0.00314024
-0.0128008
-0.0101417
-0.00386522
-0.00268462
-0.00252379
-0.00317807
-0.00418365
-0.00614856
-0.00962135
-0.0118762
-0.00882459
-0.00726988
-0.00746823
-0.00828925
-0.00923668
-0.00965955
-0.00923221
-0.00804578
-0.00644883
-0.0049357
-0.00419431
-0.0043321
-0.00400619
-0.00187599
0.00089492
0.00165965
0.00152487
0.00110158
-0.000799941
0.000516111
0.0014572
-0.00134582
0.00118321
-0.00120139
-0.000236636
0.000659239
-0.00254222
0.00115848
-0.00123924
-0.000312985
-0.000187351
-0.0012344
-0.00301206
-0.00123232
-0.00107386
0.000350012
0.00177188
0.00364143
0.00600867
0.00843378
0.0103347
0.0108277
0.00915757
0.0048186
-0.00199057
-0.00939354
-0.0137816
-0.0117534
-0.00404888
0.00342079
0.00508918
0.00206796
0.000239677
-0.0030336
-0.00049034
0.00621018
-4.36583e-05
-0.00180363
0.00425633
-0.00398573
0.00360366
-0.00377121
0.00227033
0.00121392
0.00308545
-0.00571366
-0.00717798
-0.0107134
0.000278345
-0.0118874
-0.00357181
-0.00228451
-0.00300835
-0.00298697
-0.00314065
-0.00388195
-0.00508563
-0.0055667
-0.00498831
-0.00477673
-0.00519003
-0.0059727
-0.00688315
-0.00748877
-0.0073829
-0.00648164
-0.00505616
-0.00381668
-0.00335519
-0.00367582
-0.00333184
-0.00186208
0.000503113
0.00129777
0.00103109
0.000929595
-0.00054028
0.000462871
0.00154143
-0.00117176
0.00104851
-0.00110605
5.14409e-05
0.000535225
-0.00205948
0.00112228
-0.000753833
0.00113639
0.000318127
-0.00163589
-0.00259452
-0.000975189
-0.000567181
0.000456295
0.00179019
0.00370506
0.00604347
0.00834337
0.00997703
0.0101993
0.00840199
0.00391998
-0.0030283
-0.0103872
-0.0142572
-0.0113583
-0.00313442
0.00375346
0.00425342
0.00149211
0.000935039
-0.00108683
-0.00205985
0.00551924
-0.00222671
-0.00396527
0.00816643
-0.00610179
0.00363454
-0.00651108
0.00469214
-0.000364762
0.00109111
-0.0020086
-0.00251001
-0.00522037
-0.00121793
0.00529233
-0.00290346
-0.00195865
-0.00215083
-0.00229758
-0.00268822
-0.00352173
-0.00405088
-0.00379403
-0.00350179
-0.00382916
-0.00455399
-0.00531623
-0.00600158
-0.00646893
-0.00643998
-0.00573498
-0.0045344
-0.00341604
-0.0030844
-0.00352558
-0.00331521
-0.0014722
0.000816457
0.00137638
0.00099014
0.000815814
-0.000621365
0.00029537
0.00145682
-0.00115911
0.00107274
-0.00102421
-1.07808e-05
0.00056196
-0.00215809
0.000997064
-0.000940534
0.00047818
-0.00016554
-0.00162616
-0.00272569
-0.00115531
-0.000698613
4.90702e-05
0.00129969
0.00320852
0.00550226
0.0077583
0.0093968
0.00971085
0.00805474
0.00374392
-0.0029398
-0.00987456
-0.0133437
-0.0104012
-0.00242698
0.00417044
0.00415979
0.000837566
0.00100029
0.00056104
-0.00125737
0.00656335
-0.00125079
-0.00775913
0.0124671
-0.00824401
0.00666155
-0.00817055
0.00480238
-0.00102974
-0.000353173
-0.00055725
-0.000692005
-0.00303288
0.00410796
0.0253599
-0.00310554
-0.00215634
-0.00180481
-0.00210827
-0.002315
-0.00271872
-0.00313829
-0.00316086
-0.00312759
-0.00343265
-0.00401047
-0.00468588
-0.00532615
-0.0057855
-0.00581156
-0.00514751
-0.0040401
-0.00306678
-0.00285742
-0.00317555
-0.00313284
-0.0013718
0.000906974
0.0012496
0.000785597
0.000808302
-0.000566953
0.000164842
0.00124725
-0.0013442
0.000787231
-0.00116883
-0.000210722
0.000468612
-0.00220801
0.000938295
-0.000966677
0.000621042
-0.000746238
-0.00103141
-0.00240784
-0.000831448
-0.000537909
0.000270254
0.00161587
0.00353734
0.00574616
0.00782346
0.00927423
0.00943157
0.00767715
0.00338538
-0.00320877
-0.00985417
-0.0128662
-0.009479
-0.00138599
0.00481782
0.00406518
0.000345623
0.00182901
0.00118002
-0.0026541
0.00589806
0.00226377
-0.00967844
0.011668
-0.00843961
0.00753177
-0.00775579
0.0034927
-0.00113598
-0.000918661
0.000672973
-0.000485506
-0.00172616
0.00390986
0.0163533
-0.00275491
-0.00162467
-0.00162857
-0.00204659
-0.00225343
-0.00247905
-0.00262785
-0.00258454
-0.00260547
-0.0028745
-0.00339104
-0.00406554
-0.00472883
-0.00520643
-0.00526102
-0.00466237
-0.00362336
-0.00277996
-0.00267877
-0.00305902
-0.00298396
-0.00128583
0.000981941
0.00120582
0.000586365
0.000761741
-0.000426449
0.000194506
0.00135807
-0.00111622
0.000923656
-0.000929618
-0.000138833
0.000557759
-0.00213347
0.000843907
-0.00121917
0.000940094
-0.000877592
-0.00117709
-0.0019062
-0.000768953
-0.000613381
0.000179768
0.00146697
0.00324413
0.00525857
0.0071399
0.00847129
0.00861307
0.00691526
0.00273102
-0.00361164
-0.00988094
-0.0124808
-0.0088302
-0.000815624
0.00489075
0.00342462
-0.000633831
0.00147581
0.0014649
-0.00404337
0.00495339
0.00322545
-0.00948748
0.0107136
-0.0075789
0.00629861
-0.00688234
0.00325378
-0.00102922
-0.000995476
0.0015435
-0.000956891
-0.0019444
-0.00113414
0.000603317
-0.00249113
-0.00140457
-0.00161737
-0.00191346
-0.00199175
-0.00208388
-0.00208285
-0.00203918
-0.00214439
-0.00247583
-0.00305027
-0.00375634
-0.00440879
-0.00485396
-0.00486887
-0.00429453
-0.00330422
-0.00257515
-0.00251171
-0.00297289
-0.00283908
-0.00114938
0.00104474
0.0011867
0.000466333
0.000727146
-0.000319355
0.000150153
0.00130807
-0.00108486
0.000844725
-0.000856108
-0.000164022
0.000632447
-0.00195592
0.000907784
-0.00127054
0.00125512
-0.000567278
-0.0012555
-0.00168988
-0.000820618
-0.000590289
0.000224945
0.00146974
0.00314092
0.00500188
0.0067421
0.00796349
0.0080211
0.00629619
0.00212229
-0.00408367
-0.0100575
-0.0122773
-0.00839868
-0.000432323
0.00478472
0.00257051
-0.00160528
0.00108362
0.00216731
-0.00483002
0.00408551
0.00404064
-0.00933474
0.0097499
-0.00664544
0.00530278
-0.00589177
0.00312859
-0.000917764
-0.000620108
0.00195576
-0.00111957
-0.00239577
-0.00186429
-0.00311642
-0.00186622
-0.00133848
-0.00143312
-0.00160855
-0.00164167
-0.00170168
-0.00171074
-0.00174556
-0.00193056
-0.00231405
-0.00290409
-0.00356993
-0.00414173
-0.00450867
-0.00446694
-0.00390622
-0.00297882
-0.00235546
-0.00232836
-0.0028416
-0.00267698
-0.000985261
0.00112713
0.00118332
0.000362652
0.000681148
-0.000222558
0.000116264
0.00127638
-0.0010275
0.000779769
-0.000789379
-0.000254784
0.000598716
-0.00190354
0.000772647
-0.00156287
0.00112653
9.27499e-05
-0.00095629
-0.00141497
-0.000628952
-0.000377179
0.000376927
0.00150962
0.00303796
0.0047431
0.00633849
0.00743017
0.00738948
0.00563117
0.00152961
-0.00445399
-0.0100203
-0.0118159
-0.00773009
0.000143592
0.0048561
0.00196637
-0.00232422
0.000864636
0.00285027
-0.00509918
0.00344546
0.00479265
-0.00913402
0.00890396
-0.0056434
0.00438771
-0.00487916
0.00302536
-0.000954092
-2.71713e-05
0.00201561
-0.000774567
-0.00217276
0.00124026
-0.00349237
-0.00154081
-0.00130448
-0.0012209
-0.00132474
-0.00138823
-0.00145869
-0.00148008
-0.00154952
-0.0017549
-0.00212662
-0.00266985
-0.0032627
-0.00375991
-0.00407371
-0.00402025
-0.00350452
-0.00268126
-0.00216048
-0.00219479
-0.00273486
-0.0025583
-0.000862404
0.00117087
0.00114108
0.000227878
0.000593417
-0.000166553
4.85086e-05
0.00120268
-0.00100374
0.000681411
-0.000738846
-0.000351113
0.00058903
-0.00176735
0.000730497
-0.00176887
0.00106693
0.000708662
-0.000736066
-0.00115053
-0.000415207
-0.0001727
0.000537633
0.00159283
0.00302251
0.00462052
0.00611068
0.00709313
0.00696425
0.00517913
0.00117852
-0.00454459
-0.00970964
-0.0111226
-0.00687931
0.000836235
0.00503984
0.00158382
-0.00284946
0.000885773
0.00357153
-0.00502717
0.00280744
0.00534617
-0.00898606
0.00808107
-0.00467167
0.0035047
-0.00390849
0.00292295
-0.00105645
0.000632798
0.00185973
-0.000157843
-0.00152641
0.00220584
-0.00501462
-0.0014073
-0.00116067
-0.00101173
-0.00113564
-0.00123594
-0.00127826
-0.00127101
-0.00133747
-0.00153086
-0.00187231
-0.00237426
-0.00292309
-0.00338813
-0.00368493
-0.00364614
-0.0031768
-0.00245488
-0.00200914
-0.00209749
-0.00262831
-0.00243306
-0.000730636
0.0012341
0.00112347
0.000126229
0.000531467
-8.26301e-05
1.2958e-05
0.00114851
-0.00095102
0.000611405
-0.000660182
-0.000447519
0.000572596
-0.00162015
0.000679943
-0.00200193
0.000819533
0.000525955
-0.000668528
-0.000892394
-0.000302278
-6.73371e-05
0.000604513
0.00158974
0.00293073
0.0044305
0.00580809
0.00667382
0.00645063
0.00464356
0.000764488
-0.00464503
-0.00937084
-0.010379
-0.00596729
0.00155662
0.00526248
0.00133582
-0.00331105
0.000881489
0.00406711
-0.00491866
0.00205624
0.00569186
-0.00878895
0.00734341
-0.00370666
0.00267969
-0.00298268
0.00276281
-0.00117813
0.0012125
0.00151385
0.000476286
-0.000823725
0.00182771
-0.00537028
-0.00124752
-0.000927304
-0.00083758
-0.00102429
-0.00112535
-0.00111473
-0.00108252
-0.00114747
-0.00133292
-0.00165836
-0.00213987
-0.00266979
-0.00311963
-0.00339942
-0.00335658
-0.00291063
-0.00226408
-0.00186964
-0.00200321
-0.00250929
-0.00228905
-0.000592038
0.00130596
0.00111873
4.34799e-05
0.000478456
1.0671e-05
-7.30154e-06
0.00109596
-0.00088607
0.00054909
-0.000566406
-0.000540433
0.000560636
-0.00143463
0.000680431
-0.00212748
0.000485705
-0.000175245
-0.000596992
-0.000702598
-0.000285045
-3.76746e-05
0.00059054
0.00150093
0.00275345
0.00415215
0.00541398
0.00615895
0.00583559
0.0040073
0.000271759
-0.00478881
-0.00904838
-0.00965362
-0.00509434
0.00221131
0.00541742
0.00108125
-0.0037714
0.000770784
0.00434462
-0.00480726
0.00127931
0.00591261
-0.00850981
0.00663886
-0.00281943
0.0018515
-0.00215078
0.00246352
-0.00131444
0.00158073
0.000990295
0.000942728
-0.000184712
0.000972714
-0.00510229
-0.000976046
-0.000692977
-0.000718354
-0.000930476
-0.000993911
-0.000947847
-0.000918783
-0.000997044
-0.00118845
-0.00151364
-0.00198657
-0.00250001
-0.00292575
-0.0031717
-0.00310247
-0.00266175
-0.00207331
-0.00172622
-0.00190114
-0.00238409
-0.00213823
-0.000460569
0.00136712
0.00110956
-3.64413e-05
0.000419695
0.000100213
-2.12373e-05
0.00103811
-0.00081662
0.00049082
-0.000464468
-0.000635201
0.000532309
-0.00125121
0.000693861
-0.00214028
9.6882e-05
-0.000790421
-0.000461741
-0.000549024
-0.000244608
2.87808e-05
0.000600457
0.00143119
0.0025958
0.00388364
0.00502047
0.00563691
0.00520309
0.00334396
-0.000255376
-0.00496557
-0.00876338
-0.00898492
-0.0043022
0.00275866
0.00548656
0.000808369
-0.0041922
0.000548026
0.00445682
-0.00466255
0.000530153
0.00600701
-0.00817871
0.005922
-0.0020429
0.00100498
-0.00141883
0.00200038
-0.00143318
0.00167103
0.000355041
0.00112748
0.000307868
0.000176221
-0.00402458
-0.000690903
-0.000524995
-0.00063286
-0.000813685
-0.000835447
-0.000781778
-0.000774528
-0.000874446
-0.00107966
-0.00140739
-0.00186969
-0.00235869
-0.00274718
-0.00294715
-0.00283982
-0.0024035
-0.00186817
-0.00157551
-0.00179055
-0.0022547
-0.00198273
-0.000335072
0.00141679
0.00109525
-0.000114059
0.000355189
0.000186146
-2.87062e-05
0.000973228
-0.000745231
0.000438976
-0.000354465
-0.000727585
0.000493519
-0.0010678
0.000736191
-0.00200619
-0.000253519
-0.00115731
-0.00032722
-0.000425071
-0.000142096
0.000150995
0.000661167
0.00141761
0.00249799
0.00367762
0.0046925
0.00518264
0.00463555
0.00273684
-0.000737817
-0.00511897
-0.00847945
-0.00834899
-0.00358132
0.00319708
0.00549983
0.00056693
-0.00451096
0.000273714
0.00447619
-0.00444348
-0.000156106
0.00598725
-0.00778895
0.0052111
-0.0013441
0.00019014
-0.000747761
0.0014126
-0.00147165
0.00148729
-0.00029298
0.000996786
0.000604275
-0.00046504
-0.0023459
-0.000481285
-0.000454867
-0.000558005
-0.000681097
-0.000675644
-0.000633622
-0.000654063
-0.000775292
-0.000991117
-0.00131553
-0.00175863
-0.00221359
-0.00255615
-0.00270898
-0.00256806
-0.00214287
-0.00166371
-0.00143297
-0.00168427
-0.00212935
-0.0018291
-0.000216901
0.00145342
0.00107486
-0.000189942
0.000284897
0.000268049
-3.04033e-05
0.000898278
-0.000675377
0.000392771
-0.000238157
-0.000818608
0.000437299
-0.000903334
0.000790175
-0.00175994
-0.000514346
-0.00131827
-0.000237489
-0.000319885
-6.97827e-06
0.0002854
0.000741066
0.00143547
0.00244088
0.00352264
0.00442986
0.00480821
0.00416281
0.0022284
-0.00113115
-0.00520852
-0.0081663
-0.00772533
-0.00291832
0.00355877
0.00550904
0.000408091
-0.00468283
1.05347e-05
0.00446081
-0.00412157
-0.000745045
0.00587777
-0.00732334
0.00452849
-0.000701348
-0.000549123
-0.000114823
0.000754663
-0.00137664
0.00108545
-0.000851401
0.000595209
0.000725181
-0.000954144
-0.000580047
-0.000376692
-0.000443452
-0.000482142
-0.000555514
-0.000542371
-0.000521202
-0.000566066
-0.000702943
-0.000921713
-0.00123397
-0.0016491
-0.00206313
-0.00235988
-0.00247115
-0.00230799
-0.00190553
-0.00148495
-0.00131742
-0.00159638
-0.00201549
-0.0016835
-0.000108464
0.00147547
0.00104642
-0.00026383
0.000208087
0.000342532
-2.71891e-05
0.000811349
-0.000610809
0.000350147
-0.000118144
-0.000903965
0.000362968
-0.000769552
0.000846202
-0.00143209
-0.000647894
-0.00132272
-0.000190784
-0.000219367
0.000107563
0.000379231
0.000792117
0.00143623
0.00237406
0.00337105
0.00418936
0.00448004
0.00376187
0.00181186
-0.00142926
-0.00521796
-0.00781364
-0.0071057
-0.00230434
0.00386594
0.00552593
0.000337704
-0.0047053
-0.000209875
0.00443399
-0.0036875
-0.00122087
0.00569115
-0.00678336
0.0038801
-0.000114892
-0.00118635
0.00048023
8.49724e-05
-0.00112192
0.000555006
-0.00123462
2.50813e-05
0.000723736
-0.00124634
0.000906826
-0.000342607
-0.000416996
-0.000397104
-0.000446081
-0.000441219
-0.00044273
-0.000506495
-0.000651915
-0.000868243
-0.00116321
-0.00154644
-0.0019187
-0.00217264
-0.00225037
-0.00207704
-0.001704
-0.00134307
-0.00123363
-0.00152868
-0.0019112
-0.00154341
-6.31151e-06
0.00148758
0.00101378
-0.000331636
0.000129106
0.000411112
-1.59834e-05
0.000715513
-0.000552415
0.000311204
5.64999e-06
-0.000976173
0.00027335
-0.000677761
0.000889795
-0.00106513
-0.000643509
-0.00122401
-0.000165723
-0.000127
0.000166476
0.000410452
0.000788818
0.00138793
0.00226171
0.00318142
0.00392319
0.00414862
0.00338909
0.00145367
-0.00165387
-0.00516481
-0.00742834
-0.0065016
-0.00175154
0.00410354
0.005526
0.000325829
-0.00461341
-0.000380297
0.00440014
-0.00316056
-0.00158694
0.0054243
-0.00619017
0.00326212
0.000404709
-0.00169955
0.0010286
-0.000532915
-0.000706861
2.22156e-06
-0.00138546
-0.000583266
0.000661231
-0.00129725
0.00196631
-0.000308363
-0.000340129
-0.000307276
-0.00035187
-0.000362468
-0.000384032
-0.000460457
-0.000609133
-0.000819483
-0.00109572
-0.00144679
-0.00177947
-0.00199574
-0.00204724
-0.00187201
-0.00153298
-0.00122872
-0.00117019
-0.00146962
-0.00180652
-0.00140076
9.58979e-05
0.00149544
0.000981486
-0.000389898
5.12201e-05
0.000473325
4.21314e-06
0.00061268
-0.000503821
0.000273263
0.000129692
-0.00103104
0.000170972
-0.00063535
0.000906443
-0.000700265
-0.000513484
-0.001068
-0.000140672
-4.99891e-05
0.00017773
0.000397782
0.000745828
0.00130024
0.00210823
0.0029512
0.00362108
0.00379509
0.00302071
0.00112825
-0.00182765
-0.00506763
-0.00702793
-0.00592805
-0.00127677
0.00425472
0.00547132
0.000348815
-0.00444924
-0.000509926
0.00434115
-0.00257474
-0.00185167
0.00507446
-0.00556511
0.00267425
0.000846238
-0.00207206
0.00151437
-0.00104233
-0.000159339
-0.0004722
-0.00128552
-0.0011049
0.000576758
-0.00112777
0.0025452
-0.000230314
-0.000238398
-0.000228325
-0.000278477
-0.000304523
-0.000339417
-0.000421266
-0.00056945
-0.000772468
-0.00103059
-0.00135185
-0.00164823
-0.00183013
-0.00186011
-0.00168768
-0.0013835
-0.00113149
-0.00111528
-0.001409
-0.00169288
-0.00124954
0.000203374
0.00150479
0.000953066
-0.000435095
-2.14413e-05
0.000531375
3.60903e-05
0.000506329
-0.000466145
0.000235683
0.000251848
-0.00106318
5.99397e-05
-0.000641662
0.000882637
-0.000376261
-0.000291704
-0.000890039
-9.91193e-05
1.17517e-05
0.000174783
0.000378488
0.000699467
0.00120844
0.00194739
0.00270886
0.00330603
0.00343281
0.00265673
0.000828671
-0.00196227
-0.00493571
-0.00662372
-0.00539622
-0.000889405
0.00430792
0.0053425
0.000382327
-0.00424493
-0.000616222
0.00423933
-0.00196974
-0.0020291
0.00464357
-0.0049305
0.00211979
0.00119857
-0.00229772
0.0019147
-0.00140756
0.000463581
-0.000795488
-0.000961486
-0.00144935
0.000487686
-0.000819841
0.00263593
-0.000125202
-0.000154855
-0.000173909
-0.000232243
-0.000267569
-0.000307762
-0.000390427
-0.000535506
-0.000730741
-0.000972095
-0.00126614
-0.00152901
-0.00167951
-0.00168983
-0.0015224
-0.00125138
-0.00104646
-0.00106376
-0.00134368
-0.00157012
-0.00109077
0.000313385
0.00151412
0.000927737
-0.000468979
-8.73344e-05
0.000585873
8.1288e-05
0.00040113
-0.000439329
0.000198089
0.000369514
-0.00106224
-5.11185e-05
-0.00068728
0.000808986
-0.000121622
-2.47317e-05
-0.000712686
-4.24753e-05
6.16303e-05
0.000180847
0.000376051
0.00067536
0.00113963
0.00180992
0.00248661
0.00300619
0.00308426
0.00231341
0.000560403
-0.00205812
-0.0047761
-0.00621929
-0.0049086
-0.000585772
0.0042659
0.00514007
0.000397911
-0.00402559
-0.000716265
0.00408191
-0.00138021
-0.00212646
0.00414534
-0.004303
0.00160478
0.00145247
-0.00238463
0.00220117
-0.00162139
0.00108295
-0.000935886
-0.000481964
-0.00157376
0.000394549
-0.000478888
0.00227633
-3.55066e-05
-0.000107896
-0.000145134
-0.000207871
-0.000245518
-0.000286284
-0.000367489
-0.000508473
-0.00069573
-0.000921842
-0.00119126
-0.00142351
-0.00154449
-0.00153729
-0.00137496
-0.00113501
-0.000972018
-0.00101507
-0.00127477
-0.00144251
-0.000930872
0.000419457
0.00151759
0.0009005
-0.000495029
-0.000148717
0.000633661
0.000138446
0.000300324
-0.000424253
0.000157923
0.000479538
-0.00102404
-0.000150901
-0.000758198
0.000680383
4.80862e-05
0.000237085
-0.00054693
1.15078e-05
9.70595e-05
0.000195071
0.000389642
0.000672975
0.00109752
0.0017027
0.00229741
0.00273921
0.0027684
0.00200403
0.000332082
-0.00211298
-0.00458742
-0.00581286
-0.00445787
-0.000352882
0.00414353
0.00487715
0.00039009
-0.00380579
-0.000819767
0.00386627
-0.000833559
-0.00215069
0.00360067
-0.00369614
0.0011377
0.00160187
-0.00235244
0.00234926
-0.00170332
0.00161123
-0.000905677
5.81566e-05
-0.00148536
0.00029094
-0.000195767
0.00156545
1.33494e-05
-9.0105e-05
-0.000132685
-0.000193742
-0.00022933
-0.000268934
-0.000348104
-0.000484339
-0.000663514
-0.000875479
-0.00112247
-0.00132733
-0.00142202
-0.00139936
-0.00124333
-0.00103238
-0.000906751
-0.000969258
-0.00120443
-0.00131413
-0.000775193
0.00051563
0.00151096
0.000867309
-0.000517314
-0.000207799
0.000671955
0.000205782
0.000207879
-0.000420809
0.000112761
0.000578263
-0.000948323
-0.000229477
-0.000836052
0.000498896
0.000131288
0.000447758
-0.000395808
4.56109e-05
0.000112859
0.000206449
0.00040471
0.000676902
0.00106777
0.00161645
0.0021369
0.00250645
0.0024892
0.00173491
0.000147907
-0.00212405
-0.00436799
-0.00540399
-0.00403591
-0.000176106
0.00396322
0.00457425
0.000368139
-0.00358847
-0.000927901
0.00359831
-0.000347009
-0.00210601
0.00303495
-0.00311993
0.000728077
0.00165029
-0.00222728
0.00234595
-0.00169094
0.00197124
-0.000752208
0.000557559
-0.00123156
0.00017193
-2.7136e-05
0.000655896
2.41794e-05
-8.62068e-05
-0.000125003
-0.000179874
-0.000212077
-0.000250521
-0.000327322
-0.00045822
-0.000629068
-0.000827735
-0.00105424
-0.00123427
-0.00130668
-0.00127181
-0.0011236
-0.000940496
-0.000847756
-0.000924037
-0.00113211
-0.00118624
-0.000626282
0.000599717
0.00149262
0.000827112
-0.000537872
-0.000265716
0.000698576
0.000281333
0.000128167
-0.000428165
6.08839e-05
0.000660647
-0.000836497
-0.00027794
-0.000900866
0.000274393
0.000138298
0.00057251
-0.000257788
5.48115e-05
0.000109737
0.000207769
0.000408964
0.000671473
0.00103486
0.00153562
0.00199364
0.00230066
0.00224454
0.00150474
5.79875e-06
-0.00209641
-0.00412322
-0.00499303
-0.00363971
-4.03895e-05
0.00374602
0.00425323
0.000343338
-0.00336758
-0.00103112
0.0032857
7.28961e-05
-0.00199816
0.00247489
-0.00258255
0.000383703
0.00160868
-0.00203529
0.0021972
-0.00162766
0.00211235
-0.00054336
0.00093056
-0.000883179
4.17879e-05
7.17448e-06
-0.000267115
1.38416e-05
-8.53617e-05
-0.000115461
-0.000162578
-0.000192501
-0.000230431
-0.000304873
-0.000430011
-0.000591945
-0.000777331
-0.000984822
-0.00114325
-0.00119705
-0.00115371
-0.00101474
-0.00085779
-0.000793616
-0.000878454
-0.00105711
-0.00105913
-0.000484972
0.000671765
0.00146351
0.000780734
-0.000557189
-0.000322451
0.000712638
0.000363277
6.46106e-05
-0.000444097
4.90338e-07
0.000720958
-0.000694904
-0.000290494
-0.00093427
2.37908e-05
8.83721e-05
0.00059326
-0.000131044
4.59965e-05
9.57324e-05
0.000199115
0.000397223
0.000649084
0.000988761
0.001449
0.0018552
0.00211219
0.00202679
0.00130883
-9.87881e-05
-0.00203465
-0.00385923
-0.00458428
-0.00326757
6.37907e-05
0.0035085
0.00392998
0.000326061
-0.00313673
-0.0011119
0.00294376
0.000421955
-0.00183584
0.00194467
-0.00209022
0.000110894
0.00149764
-0.00179866
0.00193243
-0.00154837
0.00202314
-0.000347127
0.00112286
-0.000517472
-8.42751e-05
-7.80045e-05
-0.00102202
-2.28067e-06
-8.1563e-05
-0.000102273
-0.000143251
-0.000172894
-0.000211122
-0.000283218
-0.000402589
-0.000555378
-0.000727796
-0.000917491
-0.00105677
-0.00109544
-0.00104669
-0.000918483
-0.000785737
-0.000744978
-0.000832859
-0.000980061
-0.000933746
-0.000351696
0.000732044
0.00142535
0.000729526
-0.000574335
-0.000377545
0.000713988
0.00044889
2.15145e-05
-0.000465653
-6.91848e-05
0.000753955
-0.000534813
-0.000266264
-0.000921756
-0.000230325
5.84508e-06
0.000509643
-1.6514e-05
2.98775e-05
8.03387e-05
0.000183117
0.000370729
0.0006087
0.000926162
0.00135019
0.00171502
0.00193216
0.001828
0.00113986
-0.00017278
-0.0019472
-0.00358422
-0.0041857
-0.00292161
0.000139889
0.00325942
0.00361647
0.000325337
-0.00288228
-0.00117063
0.0025868
0.000697414
-0.00163451
0.00146026
-0.00165023
-8.7447e-05
0.00134251
-0.00153194
0.0015977
-0.00147529
0.00173365
-0.000216285
0.00112106
-0.000200986
-0.000182416
-0.000242689
-0.00147621
-1.3883e-05
-7.16184e-05
-8.63619e-05
-0.000124458
-0.000155695
-0.000194818
-0.000264881
-0.000378425
-0.000522172
-0.000681886
-0.000855008
-0.00097759
-0.00100444
-0.000953061
-0.000836199
-0.000724996
-0.000702621
-0.000787927
-0.000901786
-0.000810955
-0.000226966
0.000781529
0.00137954
0.000676025
-0.00058919
-0.000429903
0.000702313
0.000535564
1.75425e-06
-0.00048777
-0.000147483
0.000754565
-0.000368129
-0.000205934
-0.000855793
-0.000463438
-8.4528e-05
0.000339493
8.10466e-05
1.55469e-05
6.95601e-05
0.000162659
0.000333634
0.000554511
0.000849139
0.00123926
0.00156893
0.0017561
0.00164212
0.000991289
-0.000224163
-0.00184208
-0.00330576
-0.00380414
-0.00260694
0.000187381
0.00300029
0.00331282
0.000339229
-0.00261373
-0.00121507
0.00222537
0.000897651
-0.00141117
0.00103071
-0.00126629
-0.000214308
0.00116997
-0.00124293
0.00125145
-0.0014081
0.00130787
-0.000176293
0.000950745
2.14882e-05
-0.000227743
-0.000435208
-0.00156565
-1.49382e-05
-5.5144e-05
-6.96748e-05
-0.000107825
-0.000141859
-0.000182154
-0.000250121
-0.000358164
-0.00049304
-0.000640528
-0.000798178
-0.00090602
-0.000923749
-0.000872215
-0.000767197
-0.000674917
-0.000665645
-0.000743419
-0.000822953
-0.000691455
-0.000111217
0.000820559
0.00132915
0.000622545
-0.000599133
-0.000478735
0.000676499
0.000620038
5.11898e-06
-0.000505999
-0.000233273
0.000721812
-0.000211883
-0.00011637
-0.000737773
-0.000651281
-0.000161562
0.000114399
0.000153853
8.64275e-06
6.51241e-05
0.000141115
0.000292257
0.000493226
0.000763505
0.00112044
0.00141944
0.00158294
0.00146656
0.000858911
-0.000257977
-0.00172628
-0.00303239
-0.00344499
-0.00232757
0.000205673
0.00273292
0.00301639
0.000358902
-0.00234943
-0.00123937
0.00187235
0.0010216
-0.00118643
0.000656371
-0.000948599
-0.000279158
0.00100041
-0.000939691
0.000948202
-0.00133501
0.000831804
-0.000223105
0.000667605
0.000132724
-0.000202213
-0.000603645
-0.0013015
-4.36091e-06
-3.47954e-05
-5.41203e-05
-9.41137e-05
-0.000131301
-0.000172535
-0.000238249
-0.000340786
-0.000466933
-0.000602666
-0.000745973
-0.000841015
-0.000851917
-0.000802245
-0.000709316
-0.000633345
-0.000632749
-0.000698944
-0.000743794
-0.000576338
-4.72518e-06
0.000851172
0.00127556
0.000571802
-0.0006037
-0.000522859
0.000638508
0.000698146
3.48034e-05
-0.000514341
-0.000320937
0.00065394
-7.95976e-05
-9.61221e-06
-0.000576576
-0.000775829
-0.000210654
-0.000126153
0.000194155
1.0678e-05
6.62682e-05
0.000122222
0.000253342
0.000432935
0.000677669
0.00100175
0.00127241
0.00141651
0.00130297
0.000741889
-0.000276988
-0.00160315
-0.00276557
-0.0031118
-0.00208263
0.000196557
0.00245738
0.00272697
0.000378652
-0.00208685
-0.00123994
0.00153043
0.00107227
-0.000977234
0.000335194
-0.000700601
-0.000299145
0.000846103
-0.000629824
0.000732088
-0.00123331
0.000391545
-0.000327439
0.000340944
0.000140884
-0.000102108
-0.000706612
-0.000761043
1.42324e-05
-1.51063e-05
-4.1647e-05
-8.39832e-05
-0.000123621
-0.000164952
-0.000228105
-0.000325121
-0.000442763
-0.000567275
-0.000697295
-0.00078127
-0.00078743
-0.000740944
-0.000659895
-0.000598004
-0.000602139
-0.000653984
-0.00066508
-0.000466808
9.16506e-05
0.000872517
0.00122048
0.000525079
-0.000601045
-0.000561127
0.000588657
0.000766994
8.72327e-05
-0.000506258
-0.00040559
0.000555484
1.62384e-05
0.00010059
-0.000389246
-0.000827223
-0.000224591
-0.000342441
0.000197748
1.97608e-05
7.06275e-05
0.000108189
0.000221025
0.000379289
0.000598327
0.000889958
0.00113379
0.00126124
0.00115375
0.000641094
-0.000281784
-0.00147362
-0.00250845
-0.00280217
-0.00187046
0.000164036
0.00217819
0.00244438
0.000397583
-0.00182653
-0.00121603
0.00121101
0.00105701
-0.000798865
6.20782e-05
-0.000526124
-0.000292761
0.000709331
-0.000327373
0.000622011
-0.00108604
5.69789e-05
-0.000447786
3.75831e-05
7.2493e-05
5.81323e-05
-0.000722346
-7.01145e-05
3.45067e-05
8.52745e-09
-3.33969e-05
-7.75154e-05
-0.000118247
-0.000158748
-0.0002189
-0.000310368
-0.000419772
-0.000533684
-0.000651644
-0.000725814
-0.000728952
-0.000686882
-0.000617115
-0.000566912
-0.000572847
-0.000608489
-0.000588171
-0.000364593
0.00017631
0.000884802
0.00116395
0.000483129
-0.000591537
-0.000593535
0.000526427
0.00082115
0.000159723
-0.000479394
-0.00047839
0.000431744
6.81258e-05
0.000197911
-0.000197685
-0.000803814
-0.000203818
-0.000501706
0.000166681
3.17695e-05
7.55523e-05
9.90231e-05
0.000196427
0.000334703
0.000528881
0.000789702
0.00100781
0.00112065
0.00102142
0.000557042
-0.000273179
-0.00134015
-0.0022596
-0.00251578
-0.00168505
0.000114206
0.00190031
0.0021713
0.000413667
-0.00157151
-0.0011672
0.000921938
0.000988686
-0.000652074
-0.000166712
-0.000423861
-0.000280768
0.000582913
-5.17596e-05
0.000611831
-0.0008866
-0.000131975
-0.000542384
-0.000194148
-3.85463e-05
0.00024738
-0.000654261
0.000624824
5.05866e-05
8.57384e-06
-2.94775e-05
-7.41937e-05
-0.000114485
-0.000153194
-0.000210001
-0.000295865
-0.000397374
-0.000501449
-0.00060828
-0.000674421
-0.000675548
-0.000638525
-0.000579295
-0.000538644
-0.000543826
-0.000562897
-0.000514246
-0.000271462
0.000247918
0.000886886
0.00110609
0.000445858
-0.000575439
-0.000620011
0.000453504
0.000856929
0.000246514
-0.000428152
-0.000532723
0.000294216
7.33733e-05
0.00027025
-2.22988e-05
-0.000714317
-0.000155261
-0.000583035
0.000110598
4.25426e-05
7.86275e-05
9.30982e-05
0.000178206
0.000298842
0.00046991
0.000701841
0.000895975
0.000995819
0.000905462
0.000488998
-0.000253106
-0.00120334
-0.00202042
-0.00224915
-0.00152204
5.49361e-05
0.0016306
0.00190935
0.00042577
-0.00132549
-0.00109287
0.000669903
0.000885602
-0.000537873
-0.000351354
-0.000383344
-0.000279549
0.000455731
0.000172926
0.000672607
-0.000644647
-0.000171167
-0.000582399
-0.000330824
-0.000160461
0.000424056
-0.000528167
0.00118659
5.93573e-05
1.07499e-05
-2.91454e-05
-7.30158e-05
-0.000111492
-0.000147687
-0.000200819
-0.000281054
-0.000375002
-0.000469992
-0.000567029
-0.000626212
-0.000626459
-0.00059447
-0.000544653
-0.00051132
-0.00051405
-0.000516836
-0.000443877
-0.000188263
0.000305921
0.000879178
0.00104673
0.000412713
-0.000553467
-0.000640635
0.000370063
0.000870108
0.000340114
-0.000355006
-0.000560927
0.000152888
3.67938e-05
0.000308691
0.000119088
-0.000577326
-8.97946e-05
-0.000580639
4.49472e-05
4.93484e-05
7.83796e-05
8.84836e-05
0.000164069
0.000269511
0.000419783
0.000625234
0.000797276
0.000885585
0.000805169
0.000434628
-0.000224002
-0.00106646
-0.0017916
-0.00200142
-0.00137623
-8.87998e-06
0.00137304