/*--------------------------------*- C++ -*----------------------------------*\
| =========                 |                                                 |
| \\      /  F ield         | OpenFOAM: The Open Source CFD Toolbox           |
|  \\    /   O peration     | Version:  2312                                  |
|   \\  /    A nd           | Website:  www.openfoam.com                      |
|    \\/     M anipulation  |                                                 |
\*---------------------------------------------------------------------------*/
FoamFile
{
    version     2.0;
    format      ascii;
    arch        "LSB;label=32;scalar=64";
    class       volScalarField;
    location    "150";
    object      magR;
}
// * * * * * * * * * * * * * * * * * * * * * * * * * * * * * * * * * * * * * //

dimensions      [0 2 -2 0 0 0 0];

internalField   nonuniform List<scalar> 
10720
(
0.0292342
0.0338841
0.0434959
0.0507236
0.0564185
0.0640624
0.0749931
0.0897469
0.110126
0.138979
0.18145
0.248877
0.359331
0.557718
0.946868
1.81987
3.59655
7.72359
15.758
26.9008
43.1506
70.4318
133.797
251.139
416.075
579.114
1108.35
1757.48
1245.39
532.915
174.864
26.0166
4.64063
0.545047
1.16603e-15
0.0103164
0.67932
18.3093
31.4685
0.0366433
0.0337235
0.0226586
0.025172
0.016321
0.0228713
0.0227504
0.0229917
0.0258241
0.0298172
0.0365026
0.0475525
0.0640918
0.0926302
0.135292
0.236753
0.351758
0.904584
1.27375
1.61154
2.14432
3.1816
4.46716
6.28883
8.5038
10.8921
9.93895
6.04782
2.48839
0.667603
0.0792659
0.00192799
1.20649e-15
1.21719e-15
0.00431933
0.25794
0.0040712
2.01571
150.9
0.0190692
0.0225034
0.0224355
0.0151895
0.0104231
0.00799618
0.00685118
0.00612167
0.00563418
0.00527413
0.00505596
0.00481621
0.00582176
0.0100148
0.0213699
0.0536686
0.139108
0.373245
1.0024
2.4368
5.07108
9.45321
15.2498
35.3602
92.3307
145.533
385.616
732.154
615.971
373.63
178.062
65.3775
17.8995
2.41068
0.0480662
0.00673981
0.395905
9.93785
32.6174
0.00207925
0.00545264
0.00623485
0.0113407
0.0112838
0.00613881
0.00258371
0.00201134
0.00216059
0.00224925
0.00219847
0.00276061
0.002365
0.0151996
0.0225461
0.0405061
0.0609678
0.00529243
0.0212242
0.287309
0.39566
0.16069
0.17393
1.23849
0.155249
0.337039
0.0643441
0.111217
0.0055041
0.0359523
0.0343573
0.000873735
1.15964e-15
1.16301e-15
0.00022522
0.0127715
0.000213127
0.472786
32.8111
0.0038168
0.00338804
0.00358011
0.00352482
0.00362117
0.00376675
0.00393606
0.00411269
0.00428755
0.00446343
0.00464467
0.00483956
0.00506047
0.00475688
0.00643116
0.0119417
0.0264971
0.069085
0.187242
0.465424
0.989969
1.88414
3.09918
8.18057
18.4193
47.2661
155.204
305.736
276.513
204.236
120.524
58.0755
20.6749
4.13692
0.34252
0.0137576
0.113796
8.95943
40.8643
0.00706472
0.0128323
0.0128191
0.00824026
0.00394205
0.00343793
0.00320571
0.00315872
0.00320044
0.00329166
0.00319042
0.00306414
0.000209814
0.00142729
0.00101952
0.000832229
0.000701377
0.00184153
0.00516595
0.000802867
0.000826765
0.0328158
0.0361933
0.000813806
0.0352938
0.0764029
0.0154689
0.0027217
0.00198433
0.00909833
0.00889259
0.000596482
0.000530287
0.000432785
0.000275052
0.00331209
1.2352e-15
0.184017
12.6684
0.0121606
0.0119092
0.0117686
0.0115237
0.0115943
0.0117068
0.0117619
0.0117934
0.0118277
0.0118651
0.0119039
0.0119672
0.0120575
0.0121232
0.0121869
0.0122771
0.0116288
0.00870169
0.00311747
2.19961e-15
2.29196e-15
3.11983e-15
3.93243e-14
0.141634
2.99627
0.00391802
0.000557239
0.00134008
0.00208233
0.00502625
0.0307441
0.602143
3.44785
3.10235
1.14787
0.0523757
0.279449
13.2297
39.7025
0.014462
0.00989039
0.00615968
0.00607753
0.0060372
0.00618402
0.00688505
0.00696001
0.00700039
0.00703896
0.00708483
0.00723231
0.00721601
0.0069234
0.00615737
0.00551292
0.00511069
0.00494583
0.00515301
0.00532976
0.00525368
0.00534658
0.00527314
0.00454578
0.00452166
0.00399626
0.00327271
0.00324842
0.00295288
0.00293728
0.00284813
0.00265808
0.00233117
0.00187547
0.00117792
0.00056258
1.04437e-05
0.120491
8.00649
0.0134725
0.0127975
0.0126194
0.0124706
0.0123626
0.0123764
0.0123265
0.0123018
0.0123683
0.0124867
0.0126533
0.0128471
0.0130715
0.0133523
0.0136901
0.0141088
0.014683
0.0153707
0.0152665
0.00188942
0.000891163
2.23659e-15
2.19425e-15
2.5686e-15
0.620394
0.000825429
0.000119295
0.000291192
0.000458769
0.0011216
0.00694198
0.137451
0.794596
1.66147e-05
0.570231
0.349311
0.249611
12.8337
24.2696
0.0109895
0.00840285
0.00649951
0.0106922
0.0122441
0.0134357
0.0138401
0.0140818
0.0142916
0.0144937
0.0147059
0.0149299
0.0152208
0.0156236
0.0158402
0.0152284
0.0136964
0.0125403
0.0116327
0.0109135
0.0103407
0.00986335
0.0094566
0.00908497
0.00873852
0.00842366
0.00814931
0.0079127
0.0076941
0.00748477
0.00725688
0.00696964
0.00662653
0.00629549
0.00558423
0.00550717
0.000104743
0.0866262
5.6502
0.00290435
0.00574523
0.00260781
0.000546812
0.00465084
0.00461699
0.00450333
0.00430352
0.00430607
0.00452467
0.00446385
0.00426671
0.00418841
0.00411567
0.00403887
0.00398167
0.000178561
0.00141221
0.00276094
0.00375584
0.00372162
0.00106509
0.000727376
1.43749e-15
1.45384e-15
1.1547e-15
1.1547e-15
1.1547e-15
1.1547e-15
1.1547e-15
1.1547e-15
1.1547e-15
1.1547e-15
3.8584e-06
4.85622e-07
5.53224e-06
6.82115e-05
0.00380724
0.000312025
0.00542437
0.00693176
0.0173701
0.0180849
0.0179843
0.0176545
0.0177843
0.0180548
0.0183818
0.0185793
0.017507
0.016417
0.0153754
0.0143817
0.0136354
0.0130532
0.0125261
0.0119235
0.0113681
0.0109107
0.0105258
0.0101894
0.00986971
0.00954461
0.00921347
0.00889849
0.00861389
0.00835524
0.00811307
0.00788207
0.00766702
0.0073792
0.00712833
0.00707717
0.00659659
0.00669014
0.000133201
0.0563205
3.51193
0.0012631
0.00297322
0.00465668
0.00533823
0.00580726
0.00614094
0.00651516
0.00615277
0.00666352
0.00836962
0.00813068
0.00712249
0.00684805
0.00651535
0.00617311
0.00584553
0.00551683
0.00499681
0.00462019
0.00473864
0.00524458
0.00493825
0.00415867
0.00177102
0.000510881
3.00624e-07
1.1547e-15
1.1547e-15
1.1547e-15
1.1547e-15
1.1547e-15
1.1547e-15
1.1547e-15
1.1547e-15
1.12906e-07
1.29727e-06
1.1547e-15
0.00090633
7.47694e-05
0.0169996
0.0254079
0.024186
0.0132217
0.00566202
0.00202126
0.00178506
0.00190387
0.0021539
0.0024249
0.00269478
0.0029666
0.00324726
0.00350158
0.00375724
0.00412073
0.00430564
0.00424706
0.00410121
0.00395011
0.00378773
0.00362424
0.00345803
0.00331858
0.00319566
0.00308619
0.00299203
0.0029104
0.00283824
0.0027724
0.00271986
0.00273449
0.00281422
0.0029935
0.00311653
0.00409094
8.55861e-05
0.0296931
1.71495
0.0205656
0.0197344
0.0200729
0.0207554
0.0206512
0.0203075
0.0204785
0.0204534
0.0200959
0.0196527
0.019227
0.01863
0.0179765
0.0172699
0.01643
0.0155197
0.0146438
0.0136443
0.0122196
0.0106984
0.00949526
0.00872912
0.00814247
0.00770643
0.00251923
1.52599e-06
7.39086e-08
1.1547e-15
1.1547e-15
1.1547e-15
1.1547e-15
1.1547e-15
1.1547e-15
1.1547e-15
1.1547e-15
1.1547e-15
1.1547e-15
5.33504e-13
2.9451e-11
0.0225108
0.0140471
0.0027682
0.00178687
0.00137813
0.00109802
0.00107348
0.00105477
0.00103984
0.00102823
0.00101133
0.000999474
0.000999584
0.00100479
0.00102115
0.0010645
0.00111727
0.00109165
0.00103335
0.00101586
0.000996791
0.000945453
0.000934357
0.000961531
0.00094733
0.000933576
0.000921553
0.000910979
0.00090133
0.000891812
0.000883708
0.000922305
0.000923846
0.000897712
0.000916146
0.000407811
0.000153545
0.00968388
0.533575
0.0148414
0.0133633
0.0125595
0.0119811
0.0116279
0.0112047
0.0108263
0.0104897
0.0102072
0.00997398
0.00977206
0.00950572
0.00943078
0.00954946
0.0093786
0.00914837
0.00910645
0.00917749
0.00932304
0.00926453
0.00904775
0.00868801
0.00830288
0.00781581
0.00849158
1.94725e-05
9.79907e-07
1.1547e-15
1.1547e-15
1.1547e-15
1.1547e-15
1.1547e-15
1.1547e-15
1.1547e-15
1.1547e-15
1.1547e-15
1.1547e-15
1.1547e-15
7.00614e-12
0.00602021
0.00223256
0.00120634
4.3179e-05
0.00474027
0.00537972
0.00530156
0.00511265
0.00484026
0.00453658
0.00421608
0.00388694
0.00356316
0.00325949
0.00298415
0.00273264
0.00268449
0.00238249
0.00197996
0.00184974
0.00174258
0.00147575
0.00145683
0.00163065
0.00158216
0.00153581
0.00149291
0.00145316
0.00141583
0.00137972
0.00134288
0.00146114
0.00133896
0.000987983
0.000860793
0.000735217
0.000649441
0.00143236
0.0742933
0.00180599
0.00220825
0.00113942
0.000535556
7.3836e-05
0.00141068
0.00140619
0.0014282
0.00145355
0.00147433
0.00150292
0.00152076
0.00156156
0.00163308
1.05046e-05
0.00036394
0.000782092
0.00119354
0.00180842
0.00284205
0.00391205
0.00461637
0.00518238
0.00512497
0.00721027
3.87732e-05
2.02588e-06
1.1547e-15
1.1547e-15
1.1547e-15
1.1547e-15
1.1547e-15
1.1547e-15
1.1547e-15
1.1547e-15
1.1547e-15
1.1547e-15
1.1547e-15
1.1547e-15
0.00131177
0.0018435
0.00597492
0.0100098
0.0109924
0.0106586
0.0103588
0.0100571
0.00971021
0.00933353
0.00893537
0.00852168
0.00809985
0.0076738
0.00725067
0.00684117
0.00646055
0.00617852
0.00591523
0.00567596
0.00546103
0.00526692
0.00504901
0.00485298
0.00467626
0.00451758
0.00437549
0.00424635
0.00412586
0.00401111
0.00390363
0.00380062
0.00362531
0.00337317
0.00295103
0.00261731
0.0025416
0.000343914
0.0175549
0.00143505
0.00107255
0.00108767
0.00107837
0.000160993
0.000474129
0.0007392
0.000979733
0.00118432
0.00134074
0.00145754
0.00154462
0.00160189
0.00163825
0.00166494
0.00169902
0.00174794
0.00174334
0.00167065
0.00187487
0.00234328
0.00283683
0.00341763
0.00349417
0.00545783
7.01301e-05
3.80262e-06
1.1547e-15
1.1547e-15
1.1547e-15
1.1547e-15
1.1547e-15
1.1547e-15
1.1547e-15
1.1547e-15
1.1547e-15
1.1547e-15
1.1547e-15
1.1547e-15
0.00341398
0.00837224
0.00892722
0.00728633
0.00635491
0.00605765
0.00586502
0.00574349
0.00564075
0.00554338
0.00544453
0.00534362
0.0052272
0.00507018
0.00486673
0.00465414
0.00445499
0.00426776
0.0040907
0.00392622
0.00377498
0.00363526
0.00350519
0.00338468
0.00327413
0.00317297
0.00308114
0.00299736
0.00291977
0.00284696
0.0027777
0.00272252
0.002693
0.00266024
0.002608
0.00249172
0.00256061
0.00129026
2.76473e-05
0.00589208
0.00602395
0.00646817
0.00696085
0.00743289
0.00788076
0.00824303
0.00851979
0.00872118
0.00884187
0.0088859
0.00886157
0.00877206
0.00862325
0.00842163
0.00817872
0.00790744
0.00790197
0.00744641
0.00644667
0.00576258
0.00519067
0.00485932
0.00429257
0.00537467
0.000165246
9.29184e-06
1.1547e-15
1.1547e-15
1.1547e-15
1.1547e-15
1.1547e-15
1.1547e-15
1.1547e-15
1.1547e-15
1.1547e-15
1.1547e-15
1.1547e-15
1.1547e-15
0.00850327
0.00695496
0.00362646
0.00103012
0.000345827
0.000339262
0.000311051
0.000311008
0.000339656
0.00038996
0.000446762
0.000506097
0.000542782
0.000558637
0.000556459
0.000551612
0.000550824
0.000544059
0.000528526
0.000510841
0.000492896
0.000474438
0.000455966
0.000439286
0.000425419
0.000413698
0.000404011
0.00039629
0.000390654
0.000387097
0.000383508
0.000381281
0.000429097
0.000541717
0.000694598
0.000872271
0.00110119
0.00140674
3.61424e-05
0.00752875
0.00680556
0.00671947
0.00673312
0.00671353
0.00672342
0.00675963
0.00679409
0.00683341
0.0068721
0.00690171
0.00692247
0.00693182
0.00693152
0.00691402
0.00688406
0.00687396
0.00682214
0.00687787
0.00694988
0.00663656
0.00611454
0.00570234
0.00501892
0.00560404
0.000396929
2.31318e-05
1.1547e-15
1.1547e-15
1.1547e-15
1.1547e-15
1.1547e-15
1.1547e-15
1.1547e-15
1.1547e-15
1.1547e-15
1.1547e-15
1.1547e-15
1.1547e-15
0.00467564
0.00109396
0.000591163
0.000386414
0.000318606
0.000311999
0.000311282
0.000305976
0.000300772
0.00029768
0.000292562
0.000288703
0.000284968
0.000280135
0.000275123
0.000271921
0.000270639
0.000269841
0.000268552
0.000267492
0.000266716
0.000266139
0.000265632
0.000265012
0.000263993
0.000262844
0.000261924
0.000261214
0.000260715
0.000260402
0.000258921
0.000257902
0.000264578
0.000275767
0.000303105
0.000312211
0.000323366
0.000259734
2.03929e-05
0.00225658
0.00226057
0.00192531
0.0017571
0.00159948
0.00148097
0.00140977
0.0013721
0.00136983
0.00139889
0.00145252
0.00152849
0.00162549
0.00175259
0.00188616
0.00202832
0.00225146
0.00250708
0.00274884
0.00313361
0.0035901
0.00392525
0.00416979
0.00406726
0.00482329
0.000776934
7.22712e-11
4.08599e-12
1.1547e-15
1.1547e-15
1.1547e-15
1.1547e-15
1.1547e-15
1.1547e-15
1.1547e-15
1.1547e-15
1.1547e-15
1.1547e-15
1.1547e-15
0.000816787
0.000315013
0.000674874
0.00167567
0.00175866
0.00166743
0.00167148
0.001665
0.00163516
0.0015915
0.00154341
0.0014939
0.00144545
0.00139923
0.0013546
0.00131101
0.00126949
0.00123026
0.00119248
0.00115688
0.00112379
0.00109285
0.00106378
0.00103659
0.0010112
0.000987218
0.000964543
0.000943032
0.000922374
0.000902352
0.000878317
0.000856895
0.00082139
0.000739566
0.000691117
0.000530235
0.000295151
0.00029911
0.000365412
0.000292167
0.00030563
0.000318175
0.000325237
0.000336131
0.000351299
0.000357684
0.000368837
0.000381453
0.000393238
0.000409204
0.000427247
0.000447837
0.000473873
0.000501087
0.00053015
0.000573432
0.000642901
0.000684756
0.000731339
0.000128935
0.000708867
0.00133884
0.00176461
0.00273504
0.000996788
2.92916e-09
1.71614e-10
1.1547e-15
1.1547e-15
1.1547e-15
1.1547e-15
1.1547e-15
1.1547e-15
1.1547e-15
1.1547e-15
1.1547e-15
1.1547e-15
1.1547e-15
0.000499352
0.00136677
0.0032515
0.00373606
0.00365896
0.00358892
0.00355388
0.00353177
0.00349001
0.00343296
0.00337122
0.00330871
0.00324607
0.00318312
0.00311943
0.00305429
0.00298744
0.00291996
0.00285237
0.00278514
0.00271903
0.00265421
0.0025904
0.00252776
0.0024671
0.00240881
0.00235292
0.00229934
0.00224757
0.00219717
0.00213118
0.00208469
0.0019971
0.00189641
0.00181715
0.00162221
0.00140889
0.00108111
0.000839188
0.000177891
0.000228302
0.000461322
0.000728737
0.000905997
0.0010708
0.00119714
0.0012936
0.00136703
0.00141863
0.00145367
0.00147581
0.00148638
0.00148735
0.00147926
0.00146224
0.00144457
0.00154315
0.00146769
0.00120127
0.00102946
0.000956004
0.00106008
0.00119821
0.00165617
0.0011572
1.68966e-08
1.02551e-09
1.1547e-15
1.1547e-15
1.1547e-15
1.1547e-15
1.1547e-15
1.1547e-15
1.1547e-15
1.1547e-15
1.1547e-15
1.1547e-15
1.15694e-15
0.00247279
0.0036496
0.0030657
0.00213014
0.00199974
0.00200925
0.00198661
0.00198183
0.00197317
0.00195582
0.00193779
0.00192181
0.00190645
0.00189015
0.00187184
0.00185115
0.00182751
0.00180114
0.0017721
0.00174092
0.00170804
0.00167382
0.00163855
0.00160287
0.00156777
0.00153368
0.00150087
0.00146939
0.00143913
0.00140999
0.00138155
0.00135508
0.00134396
0.00134931
0.00135442
0.00135062
0.00131663
0.00119355
0.00102118
0.00310355
0.0030828
0.00319839
0.00336659
0.00350795
0.0036271
0.00371629
0.00377631
0.00381669
0.00384144
0.0038544
0.00385877
0.00385454
0.00384069
0.00381683
0.00378398
0.00374267
0.00369023
0.00362541
0.0035349
0.0034113
0.00299746
0.00246533
0.00215987
0.00198092
0.00160071
7.89115e-08
4.95803e-09
1.1547e-15
1.1547e-15
1.1547e-15
1.1547e-15
1.1547e-15
1.1547e-15
1.1547e-15
1.1547e-15
1.1547e-15
1.1557e-15
1.18778e-15
0.00359962
0.00220826
0.000799243
1.60836e-05
0.000283959
0.000291888
0.000291447
0.000287395
0.000282553
0.000277589
0.0002699
0.000263514
3.27536e-06
1.08914e-05
1.80715e-05
2.47167e-05
3.07059e-05
3.60157e-05
4.05591e-05
4.43394e-05
4.73105e-05
4.95699e-05
5.13614e-05
5.30762e-05
5.49549e-05
5.68752e-05
5.88778e-05
6.09315e-05
6.31265e-05
6.55625e-05
6.79694e-05
6.88678e-05
7.42072e-05
0.000128644
0.000221387
0.000348005
0.000513798
0.000676959
0.000731417
0.0029124
0.00265477
0.00255568
0.00251469
0.00245758
0.00240229
0.00236238
0.00233275
0.00231805
0.00231747
0.00232624
0.00234173
0.00236152
0.00238282
0.00240452
0.00242706
0.00245007
0.00247202
0.00249401
0.00254251
0.00260853
0.00263824
0.00257944
0.0023925
0.00212205
0.00185982
2.67998e-07
1.74196e-08
1.1547e-15
1.1547e-15
1.1547e-15
1.1547e-15
1.1547e-15
1.1547e-15
1.1547e-15
1.1547e-15
1.1547e-15
1.15527e-15
1.15543e-15
0.00131251
1.94356e-05
0.000113556
5.73295e-05
6.8112e-05
7.02261e-05
7.19131e-05
7.08052e-05
6.89487e-05
6.70681e-05
6.42032e-05
6.13362e-05
5.96149e-05
5.87157e-05
5.82666e-05
5.84207e-05
5.88877e-05
5.97127e-05
6.08088e-05
6.20973e-05
6.34624e-05
6.48979e-05
6.63917e-05
6.77822e-05
6.88273e-05
6.96796e-05
7.05096e-05
7.13158e-05
7.21099e-05
7.29017e-05
7.36061e-05
7.38837e-05
7.45888e-05
8.14502e-05
9.36266e-05
0.000114733
0.000138919
0.000102003
0.000312985
0.000581521
0.000675789
0.000497404
0.000387445
0.000297565
0.000220154
0.000162397
0.000125713
0.000107878
0.000105929
0.000114604
0.000130797
0.000152786
0.000180297
0.000212828
0.000250032
0.000292701
0.000341367
0.000396553
0.00045805
0.00061559
0.000897393
0.0011855
0.00139166
0.00143939
0.00157176
6.83729e-07
4.59457e-08
1.1547e-15
1.1547e-15
1.1547e-15
1.1547e-15
1.1547e-15
1.1547e-15
1.1547e-15
1.1547e-15
1.1547e-15
1.1547e-15
1.16343e-15
0.000233522
8.12784e-05
0.0002277
0.000362329
0.000439867
0.000442289
0.000450832
0.000452323
0.000449626
0.000445098
0.000438721
0.000431168
0.000423598
0.000416186
0.000408826
0.000401765
0.000394952
0.000388289
0.00038178
0.000375413
0.000369127
0.000362898
0.000356749
0.000350787
0.000344896
0.000338943
0.000333019
0.000327179
0.00032141
0.000315707
0.000309915
0.00030387
0.000295696
0.00026654
0.000222301
0.000183987
0.000101594
5.88155e-05
0.000182658
7.50389e-05
8.85406e-05
7.49947e-05
6.64849e-05
6.4638e-05
6.42051e-05
6.24444e-05
6.18396e-05
6.20604e-05
6.29231e-05
6.51511e-05
6.81044e-05
7.1712e-05
7.6406e-05
8.19998e-05
8.85441e-05
9.6165e-05
0.00010498
0.000115056
0.00012621
0.000149146
0.000192863
0.000246402
0.000221039
0.000430423
0.000886082
1.25833e-06
8.73563e-08
1.1547e-15
1.1547e-15
1.1547e-15
1.1547e-15
1.1547e-15
1.1547e-15
1.1547e-15
1.1547e-15
1.1547e-15
2.3256e-15
1.1735e-15
0.000205667
0.00057364
0.00125457
0.00143607
0.00147773
0.00147275
0.00147275
0.00147238
0.00146621
0.00145626
0.00144456
0.00143207
0.00141951
0.00140688
0.00139388
0.00138046
0.00136647
0.00135166
0.00133596
0.00131931
0.00130167
0.00128299
0.00126327
0.00124275
0.00122173
0.00120042
0.00117902
0.00115768
0.00113639
0.00111512
0.00109369
0.00107195
0.00105064
0.00101049
0.000943763
0.000844463
0.000706098
0.000552098
0.000436798
0.000292857
0.000170504
3.58469e-05
9.95101e-05
0.000165491
0.00022875
0.000277536
0.000308224
0.000326937
0.000337836
0.00034423
0.000347932
0.000349545
0.000350337
0.00035083
0.000350648
0.000349883
0.000348484
0.000346245
0.000341932
0.000312894
0.000281788
0.000182577
0.000133169
0.000151696
0.000505608
2.6103e-06
1.87067e-07
1.1547e-15
1.1547e-15
1.1547e-15
1.1547e-15
1.1547e-15
1.1547e-15
1.1547e-15
1.1547e-15
1.1547e-15
1.15498e-15
1.1567e-15
0.00102242
0.00148798
0.00129171
0.00112819
0.00111256
0.00109596
0.00108272
0.00107878
0.00107404
0.00106733
0.0010607
0.00105479
0.0010493
0.00104404
0.00103872
0.00103299
0.00102662
0.00101947
0.00101137
0.00100221
0.000991962
0.000980542
0.000967918
0.000954191
0.000939813
0.000925134
0.000910225
0.000895146
0.000879922
0.000864588
0.000849041
0.000833337
0.000821755
0.000818919
0.000814637
0.000795116
0.000762108
0.000679973
0.000550122
0.00126308
0.00119461
0.00123154
0.00128605
0.00133379
0.00137558
0.00140765
0.00142371
0.00143026
0.00143307
0.00143344
0.00143234
0.00142899
0.00142542
0.0014218
0.00141694
0.00141077
0.00140256
0.0013918
0.00137919
0.00135103
0.00125872
0.001107
0.000940162
0.000763853
0.000761147
1.13576e-05
8.39767e-07
1.1547e-15
1.1547e-15
1.1547e-15
1.1547e-15
1.1547e-15
1.1547e-15
1.1547e-15
1.1547e-15
1.1547e-15
1.15472e-15
1.16201e-15
0.00152961
0.000945987
0.000397059
0.000214043
0.000187485
0.000180501
0.000171377
0.000167479
0.000165382
0.000163036
0.000160926
0.000159488
0.000158669
0.000158275
0.000158152
0.0001582
0.00015834
0.000158555
0.000158802
0.000159063
0.000159313
0.000159562
0.000159802
0.00016001
0.00016016
0.000160187
0.000160038
0.000159697
0.000159166
0.00015848
0.000157569
0.000155944
0.000155122
0.000173404
0.000216103
0.000277651
0.000361866
0.00042643
0.000418521
0.00133456
0.00125352
0.00122289
0.00121291
0.00120052
0.00118979
0.00118256
0.00116975
0.00115484
0.00114497
0.0011376
0.00113216
0.00112647
0.00112374
0.00112457
0.0011252
0.00112603
0.00112674
0.0011272
0.00112956
0.00114862
0.0011662
0.0011471
0.00110343
0.000986336
0.000945874
4.68407e-05
3.57051e-06
1.1547e-15
1.1547e-15
1.1547e-15
1.1547e-15
1.1547e-15
1.1547e-15
1.1547e-15
1.1547e-15
1.1547e-15
1.1547e-15
1.15488e-15
0.000625149
3.57478e-05
6.27443e-05
3.17804e-05
2.83605e-05
2.80098e-05
2.67326e-05
2.56388e-05
2.47816e-05
2.39722e-05
2.28989e-05
2.19407e-05
2.1308e-05
2.0787e-05
2.04831e-05
2.04533e-05
2.05894e-05
2.09323e-05
2.14555e-05
2.21309e-05
2.29271e-05
2.38385e-05
2.4853e-05
2.58345e-05
2.66351e-05
2.73327e-05
2.79998e-05
2.86278e-05
2.92119e-05
2.97491e-05
3.02228e-05
3.05342e-05
3.0976e-05
3.52793e-05
4.47553e-05
5.84829e-05
8.1339e-05
9.90692e-05
0.000200255
0.000349885
0.000351795
0.000310086
0.000289615
0.00026976
0.0002519
0.000236669
0.000226439
0.000218783
0.000213437
0.000210246
0.000208912
0.000209465
0.000211092
0.000214238
0.00021906
0.000225597
0.000233948
0.000244279
0.00025514
0.00027474
0.000350174
0.000450616
0.000560887
0.000617064
0.000741019
0.000118094
9.4445e-06
1.1547e-15
1.1547e-15
1.1547e-15
1.1547e-15
1.1547e-15
1.1547e-15
1.1547e-15
1.1547e-15
1.1547e-15
1.1547e-15
1.1547e-15
0.000123256
2.21542e-05
6.06555e-05
7.25734e-05
7.87905e-05
8.39244e-05
8.61801e-05
8.52579e-05
8.35074e-05
8.16864e-05
7.85595e-05
7.52947e-05
7.27859e-05
7.03787e-05
6.85742e-05
6.76409e-05
6.72172e-05
6.74436e-05
6.82307e-05
6.94783e-05
7.10667e-05
7.29481e-05
7.50662e-05
7.69592e-05
7.81288e-05
7.8896e-05
7.96044e-05
8.02249e-05
8.0754e-05
8.1182e-05
8.14958e-05
8.16793e-05
8.17691e-05
8.08501e-05
7.64233e-05
6.74002e-05
5.4449e-05
6.49056e-05
5.41629e-05
4.7702e-05
4.859e-05
4.5729e-05
4.09412e-05
3.84961e-05
3.63698e-05
3.35092e-05
3.19044e-05
3.06717e-05
2.95631e-05
2.90523e-05
2.88279e-05
2.89188e-05
2.93332e-05
3.00187e-05
3.10491e-05
3.24093e-05
3.41229e-05
3.62096e-05
3.84533e-05
4.20863e-05
5.44356e-05
7.22284e-05
1.30116e-05
0.000120421
0.000310428
0.000161217
1.00714e-06
7.74068e-08
1.1547e-15
1.1547e-15
1.1547e-15
1.1547e-15
1.1547e-15
1.1547e-15
1.1547e-15
1.1547e-15
1.1547e-15
1.1547e-15
6.15153e-05
0.000125097
0.000397085
0.000474692
0.00050663
0.000526818
0.000539247
0.000545189
0.000547375
0.000547746
0.000547078
0.000545573
0.000543584
0.00054131
0.000538733
0.000535906
0.00053283
0.000529449
0.000525736
0.000521646
0.00051713
0.000512111
0.000506563
0.000500567
0.00049424
0.0004876
0.000480697
0.000473563
0.000466222
0.000458676
0.000450929
0.000442956
0.000434942
0.000422093
0.000391895
0.000339708
0.000269934
0.000202294
0.000161719
0.000110743
7.39282e-05
7.76078e-05
7.40732e-05
7.44613e-05
7.51764e-05
7.36135e-05
7.31709e-05
7.27237e-05
7.17334e-05
7.14127e-05
7.11296e-05
7.09328e-05
7.11103e-05
7.13469e-05
7.1766e-05
7.22679e-05
7.28202e-05
7.33472e-05
7.38285e-05
7.42675e-05
7.14349e-05
6.41351e-05
5.65663e-05
6.93344e-05
3.48409e-05
0.000116336
5.35885e-06
4.29344e-07
1.1547e-15
1.1547e-15
1.1547e-15
1.1547e-15
1.1547e-15
1.1547e-15
1.1547e-15
1.1547e-15
1.1547e-15
1.15485e-15
0.000345315
0.000681936
0.000684495
0.000659103
0.000657855
0.000655123
0.000651758
0.000647558
0.000642937
0.000638609
0.000634905
0.000631525
0.000628296
0.00062523
0.000622196
0.000619102
0.000615891
0.000612511
0.000608861
0.000604874
0.000600465
0.000595547
0.000589993
0.000583794
0.000577134
0.00057009
0.000562648
0.000554832
0.00054669
0.000538242
0.000529493
0.000520479
0.000512034
0.000505597
0.000494026
0.000470926
0.000431138
0.000361042
0.000280536
0.000516679
0.000524739
0.000515344
0.000513464
0.000511208
0.000510047
0.000509777
0.000509558
0.000509618
0.000509681
0.000509538
0.000509243
0.000508684
0.000507802
0.000506611
0.000505071
0.000503199
0.000500889
0.000498081
0.000494863
0.000491766
0.000468253
0.000416853
0.000352312
0.000300029
0.000224777
0.000202311
3.55683e-05
2.91712e-08
2.26231e-09
1.1547e-15
1.1547e-15
1.1547e-15
1.1547e-15
1.1547e-15
1.1547e-15
1.1547e-15
1.1547e-15
1.1547e-15
0.000765015
0.00056505
0.000333831
0.000261139
0.00023331
0.000215706
0.000203443
0.000194746
0.000188232
0.000183451
0.000180139
0.000177764
0.000175906
0.000174421
0.000173144
0.000172002
0.000170974
0.000169955
0.000168956
0.000167889
0.000166796
0.000165601
0.000164257
0.000162831
0.000161322
0.000159747
0.000158073
0.000156341
0.000154543
0.000152679
0.000150707
0.000148652
0.000146629
0.000149194
0.000166468
0.000193903
0.000223738
0.000242351
0.000234969
0.000717388
0.000662364
0.000644809
0.000627802
0.00061342
0.000602331
0.000594695
0.000588807
0.000584314
0.000580886
0.000577996
0.000575525
0.000573341
0.000571256
0.000569262
0.000567284
0.000565292
0.000563162
0.00056079
0.000558328
0.000558533
0.000558555
0.000544618
0.000516085
0.000475812
0.000397579
0.000331251
0.000136263
2.6694e-06
2.13352e-07
1.1547e-15
1.1547e-15
1.1547e-15
1.1547e-15
1.1547e-15
1.1547e-15
1.1547e-15
1.1547e-15
1.1547e-15
0.000448632
0.000106961
6.27193e-05
4.0132e-05
3.6468e-05
3.45341e-05
3.2675e-05
3.05996e-05
2.88352e-05
2.74383e-05
2.58801e-05
2.44499e-05
2.3366e-05
2.23641e-05
2.15942e-05
2.11494e-05
2.09025e-05
2.09011e-05
2.11301e-05
2.15508e-05
2.21253e-05
2.28522e-05
2.36954e-05
2.44841e-05
2.50127e-05
2.54076e-05
2.57898e-05
2.6159e-05
2.65114e-05
2.68374e-05
2.71241e-05
2.73748e-05
2.76114e-05
2.8706e-05
3.27048e-05
3.90946e-05
4.24956e-06
6.4024e-05
0.000111029
0.000259252
0.000251413
0.000216033
0.000194103
0.000179744
0.00016953
0.000162589
0.000157643
0.000153906
0.000151141
0.000149065
0.000147506
0.000146393
0.000145709
0.000145375
0.000145448
0.000145907
0.000146791
0.000148108
0.000149826
0.000153617
0.000170893
0.000204404
0.000240728
0.000269078
0.000283742
0.000284301
0.000209701
1.40721e-05
1.15822e-06
1.1547e-15
1.1547e-15
1.1547e-15
1.1547e-15
1.1547e-15
1.1547e-15
1.1547e-15
1.1547e-15
1.1547e-15
9.07344e-05
1.49729e-05
1.75742e-05
2.20067e-05
2.40552e-05
2.47951e-05
2.47908e-05
2.45094e-05
2.23881e-05
2.09938e-05
1.99535e-05
1.89931e-05
1.82408e-05
1.74891e-05
1.68817e-05
1.65151e-05
1.62866e-05
1.62548e-05
1.6408e-05
1.67274e-05
1.71751e-05
1.77532e-05
1.84442e-05
1.90873e-05
1.9493e-05
1.97723e-05
2.00417e-05
2.02932e-05
2.05248e-05
2.07308e-05
2.09099e-05
2.10622e-05
2.11783e-05
2.1172e-05
1.94405e-05
1.5939e-05
1.32636e-05
1.93384e-05
2.69242e-05
3.64891e-05
3.58094e-05
3.28368e-05
2.82256e-05
2.63532e-05
2.51141e-05
2.3554e-05
2.26664e-05
2.1947e-05
2.12007e-05
2.07704e-05
2.04301e-05
2.0185e-05
2.01229e-05
2.01457e-05
2.02902e-05
2.05345e-05
2.08773e-05
2.13083e-05
2.18122e-05
2.26164e-05
2.53838e-05
3.05817e-05
3.8817e-05
2.64281e-05
7.94965e-05
0.000123955
0.000160425
3.72987e-05
3.35257e-06
1.1547e-15
1.1547e-15
1.1547e-15
1.1547e-15
1.1547e-15
1.1547e-15
1.1547e-15
1.1547e-15
1.1547e-15
1.67434e-05
5.44893e-05
0.000113856
0.000142607
0.000153402
0.000154504
0.000154156
0.000156051
0.000146491
0.000141009
0.000139989
0.000139748
0.0001396
0.000139422
0.000139166
0.000138845
0.000138475
0.000138042
0.000137547
0.00013698
0.000136325
0.000135554
0.000134649
0.000133624
0.000132501
0.000131266
0.000129909
0.00012844
0.000126865
0.000125189
0.000123412
0.000121554
0.000119579
0.000117014
0.000105225
8.45216e-05
6.44767e-05
3.12058e-05
1.87255e-05
4.08662e-05
2.3235e-05
2.35327e-05
2.2183e-05
2.23753e-05
2.2823e-05
2.25788e-05
2.26948e-05
2.27979e-05
2.26771e-05
2.27431e-05
2.27842e-05
2.28134e-05
2.29436e-05
2.30723e-05
2.3235e-05
2.34085e-05
2.3577e-05
2.37231e-05
2.38359e-05
2.38579e-05
2.34165e-05
2.10488e-05
1.76035e-05
1.79159e-05
2.28812e-05
3.16456e-05
4.52241e-05
4.19405e-05
1.17597e-06
9.77952e-08
1.1547e-15
1.1547e-15
1.1547e-15
1.1547e-15
1.1547e-15
1.1547e-15
1.1547e-15
1.1547e-15
0.000120303
0.000310254
0.000346247
0.000346389
0.000346888
0.000344315
0.00034022
0.000340228
0.000334198
0.000329337
0.000329633
0.00032885
0.000327685
0.000326429
0.000325137
0.000323808
0.000322466
0.000321084
0.000319629
0.00031807
0.000316372
0.000314465
0.000312281
0.00030982
0.000307138
0.000304231
0.000301061
0.000297636
0.00029398
0.000290088
0.000285958
0.000281598
0.000277088
0.000273241
0.000256188
0.000237959
0.000219626
0.000182551
0.000135605
0.000196462
0.000163125
0.000154734
0.000152572
0.000152666
0.000154139
0.000156066
0.000158154
0.000160339
0.000162348
0.000164121
0.000165658
0.000166908
0.000167872
0.000168549
0.000168931
0.000169019
0.000168799
0.00016827
0.000167468
0.000166221
0.000162222
0.000145335
0.00012164
9.5822e-05
7.21506e-05
5.11653e-05
4.72892e-05
6.2114e-05
1.1857e-05
1.44725e-06
1.1547e-15
1.1547e-15
1.1547e-15
1.1547e-15
1.1547e-15
1.1547e-15
1.1547e-15
1.1547e-15
0.000398998
0.0003282
0.00021489
0.000203738
0.000197835
0.000195762
0.00019242
0.000189643
0.000192862
0.000192081
0.000190553
0.000189081
0.000187754
0.000186581
0.00018556
0.000184607
0.00018371
0.000182841
0.000181943
0.000180996
0.000179978
0.000178829
0.000177517
0.000176003
0.00017433
0.000172557
0.00017067
0.000168669
0.000166571
0.000164359
0.00016206
0.00015964
0.000157041
0.000155426
0.000157726
0.000162868
0.000167256
0.000164304
0.000144407
0.0003891
0.000347027
0.000335459
0.000330152
0.000326841
0.000324081
0.000321981
0.000319238
0.000316299
0.000313592
0.000311093
0.000308871
0.00030686
0.000304958
0.000303141
0.000301358
0.000299574
0.000297744
0.000295832
0.000293854
0.000292007
0.000291491
0.000282305
0.000266599
0.000239091
0.000210529
0.000177003
0.000136301
0.000120664
5.55731e-05
2.64705e-06
2.31259e-07
1.1547e-15
1.1547e-15
1.1547e-15
1.1547e-15
1.1547e-15
1.1547e-15
1.1547e-15
0.000263103
9.80334e-05
9.74552e-06
1.20962e-06
3.16393e-05
3.19166e-05
3.14312e-05
3.02437e-05
2.99055e-05
2.89838e-05
2.7471e-05
2.59028e-05
2.46245e-05
2.33594e-05
2.23192e-05
2.16292e-05
2.11499e-05
2.09618e-05
2.10561e-05
2.14048e-05
2.19628e-05
2.27359e-05
2.3701e-05
2.4597e-05
2.51327e-05
2.54882e-05
2.58479e-05
2.61978e-05
2.65385e-05
2.68548e-05
2.71493e-05
2.74151e-05
2.76365e-05
2.80197e-05
2.99671e-05
1.26775e-05
3.51411e-05
6.14261e-05
7.74059e-05
0.000184989
0.000186674
0.000174775
0.000168531
0.00016461
0.00016055
0.000157014
0.000154557
0.000152986
0.000151966
0.000151104
0.000150274
0.000149475
0.000148673
0.000147875
0.000147099
0.000146345
0.000145642
0.000145009
0.000144427
0.000143854
0.000145415
0.000153999
0.000163766