/*--------------------------------*- C++ -*----------------------------------*\
| =========                 |                                                 |
| \\      /  F ield         | OpenFOAM: The Open Source CFD Toolbox           |
|  \\    /   O peration     | Version:  2312                                  |
|   \\  /    A nd           | Website:  www.openfoam.com                      |
|    \\/     M anipulation  |                                                 |
\*---------------------------------------------------------------------------*/
FoamFile
{
    version     2.0;
    format      ascii;
    arch        "LSB;label=32;scalar=64";
    class       volVectorField;
    location    "150";
    object      momentError;
}
// * * * * * * * * * * * * * * * * * * * * * * * * * * * * * * * * * * * * * //

dimensions      [0 1 -2 0 0 0 0];

internalField   nonuniform List<vector> 
10720
(
(-0.659202 1.59954 -1.67561e-15)
(-0.624206 1.67516 -1.76762e-15)
(-0.390853 1.63945 -1.95727e-14)
(-0.259264 1.58305 8.3982e-14)
(-0.0912731 1.36754 6.31481e-14)
(0.0317324 1.11115 -1.55327e-13)
(0.106098 0.863228 -1.23582e-13)
(0.150134 0.634028 -9.67117e-14)
(0.153006 0.408957 1.89638e-14)
(0.112599 0.17912 5.12087e-15)
(0.0406173 -0.0271951 -1.58825e-14)
(-0.06438 -0.267797 6.30106e-14)
(-0.0624149 -0.283044 -2.06506e-13)
(-0.037704 -0.250841 -3.79327e-13)
(0.0360208 -0.173728 7.02875e-14)
(0.149079 -0.0386907 -1.00634e-13)
(0.269626 0.142049 1.09938e-13)
(0.464221 0.281593 8.60893e-13)
(0.790964 0.333284 2.3187e-13)
(1.25044 0.302089 -4.82445e-13)
(1.64976 0.322822 -2.06744e-13)
(1.99707 0.891927 5.26194e-14)
(2.85901 0.775323 4.33558e-13)
(5.49832 0.130302 -3.18009e-13)
(4.91116 -0.164667 5.63151e-14)
(1.9989 -0.129818 -3.36762e-14)
(0.948611 -0.463979 -4.416e-14)
(0.307265 -0.101553 1.97626e-14)
(0.382219 -0.0445375 -1.17417e-15)
(0.429529 -0.117788 1.25862e-13)
(0.321982 -0.0520621 5.17875e-14)
(0.36378 -0.0524421 -1.03232e-13)
(1.26474 -0.184519 -8.68375e-14)
(2.99787 -0.481935 -1.95126e-13)
(-1.35449 0.117577 -7.85721e-14)
(-2.23378 0.579289 1.10994e-14)
(-2.27886 0.0476684 -8.99285e-14)
(-0.214489 -1.74101 -6.02643e-14)
(-0.171663 -2.34295 1.42038e-13)
(-0.565408 1.39272 1.07317e-14)
(-0.368099 1.03404 -2.31179e-14)
(-0.33132 0.807109 2.61424e-14)
(-0.380539 0.64336 1.12914e-13)
(-0.386886 0.421561 4.57777e-14)
(-0.340842 0.224354 -3.00303e-13)
(-0.144655 0.10497 -1.21183e-13)
(-0.105033 0.105878 1.37927e-13)
(-0.153659 0.114543 -7.09862e-14)
(-0.184898 0.132035 6.05986e-14)
(-0.151447 0.0700757 -7.5075e-14)
(-0.0562082 -0.0239121 -1.32361e-13)
(0.076446 -0.100229 3.37451e-14)
(0.181104 -0.127372 6.69653e-14)
(0.23238 -0.106926 -1.0982e-13)
(0.247058 -0.0944334 -9.47598e-14)
(0.25529 -0.0908759 -6.69109e-14)
(0.312868 0.0728511 -8.08982e-14)
(0.324094 0.0197388 -2.94206e-14)
(0.306192 -0.0870949 -2.15677e-15)
(0.335104 -0.0560309 2.71477e-14)
(0.576172 0.494556 5.39692e-14)
(0.325994 -0.0636829 -2.45558e-14)
(0.322591 0.0170826 -1.78521e-14)
(0.250328 -0.0497489 1.96847e-14)
(0.197627 -0.0597522 -3.57212e-15)
(0.234681 0.066466 -1.23312e-16)
(0.18537 0.0161309 -5.16929e-16)
(0.139178 0.0525894 -1.88973e-16)
(0.123385 0.0202096 7.04668e-16)
(0.0592974 -0.0117472 2.55028e-15)
(0.0346411 -0.0114442 -1.36061e-15)
(0.0499517 -0.00939214 -2.38865e-15)
(0.0233253 -0.00694038 -3.00875e-14)
(0.0198578 -0.00408715 -2.78662e-14)
(0.00247766 0.000255499 1.46682e-14)
(0.0301348 -0.0152788 1.89042e-15)
(0.142362 0.0920642 -7.04674e-15)
(-0.0209001 -0.168104 -2.35439e-14)
(-0.459579 1.44849 -4.65548e-15)
(-0.378736 1.56868 3.43219e-15)
(-0.18746 1.59142 -1.7501e-15)
(-0.0829816 1.69504 -6.29551e-15)
(0.0673738 1.55307 8.16209e-15)
(0.188482 1.36601 5.69916e-14)
(0.240569 1.17768 6.98709e-14)
(0.235704 0.952214 2.47287e-14)
(0.184893 0.69263 -7.78032e-14)
(0.0897517 0.420283 -3.52877e-14)
(-0.051271 0.131703 -2.37902e-13)
(-0.198472 -0.105685 -4.33763e-13)
(-0.429034 -0.492709 -2.14568e-14)
(-0.624916 -0.749477 -1.85692e-14)
(-0.74015 -0.810578 -8.04091e-14)
(-0.598822 -0.768694 8.32311e-14)
(-0.429398 -0.593495 3.6684e-13)
(-0.32273 -0.451211 -6.73244e-13)
(-0.402372 -0.47718 -5.34224e-13)
(-0.658853 -0.667442 -3.53252e-13)
(-0.665922 -0.989572 2.4788e-13)
(-0.704896 -1.37898 1.9425e-13)
(-1.17312 -1.75009 -3.10448e-13)
(-3.82161 -6.06141 4.60924e-14)
(-3.75611 3.60126 -2.04376e-15)
(0.15611 0.888118 -3.81502e-14)
(1.1731 0.602537 -8.67974e-16)
(1.2263 0.0852112 1.02775e-14)
(0.641513 -0.180346 -1.59855e-14)
(0.495191 -0.204888 5.94736e-14)
(0.326307 -0.0816842 2.94774e-14)
(-0.159142 -0.00627233 4.64045e-15)
(-0.43658 -0.0202236 -9.69873e-14)
(-0.146497 -0.433035 -1.45153e-13)
(5.2461 -1.21401 1.53295e-13)
(0.142886 -0.0823271 6.6424e-14)
(-2.41536 -0.681291 3.67364e-14)
(1.22718 -1.86749 -9.3336e-14)
(-3.06595 -2.66882 5.71479e-15)
(-0.477051 1.24858 -1.78007e-14)
(-0.444623 0.986966 1.63743e-13)
(-0.424898 0.758565 -5.05452e-14)
(-0.423027 0.582703 -1.23704e-13)
(-0.407887 0.384727 7.80242e-14)
(-0.337168 0.210977 8.05936e-14)
(-0.194627 0.116484 -5.38315e-14)
(-0.152368 0.0965636 1.65274e-13)
(-0.16833 0.0909512 6.74009e-14)
(-0.164733 0.069158 -6.28244e-14)
(-0.136787 -0.00383028 6.92074e-14)
(-0.0615411 -0.0929661 -9.57446e-14)
(0.053315 -0.137508 2.28495e-14)
(0.161414 -0.132061 9.56508e-15)
(0.223915 -0.101583 2.22899e-14)
(0.249978 -0.0732698 2.46986e-14)
(0.302812 -0.0690831 4.40592e-14)
(0.246521 -0.21042 -1.28372e-14)
(0.232225 -0.183846 2.77389e-15)
(0.312783 -0.0790513 -6.17145e-15)
(0.37358 -0.131654 1.6271e-14)
(0.0198244 -0.672678 4.65686e-14)
(0.263081 -0.100943 -1.50198e-15)
(0.208786 -0.189529 -1.36724e-14)
(0.260164 -0.0377031 -1.20929e-14)
(0.264558 0.0411916 1.46435e-14)
(0.0950948 -0.207871 3.6152e-15)
(0.133669 -0.078616 -9.90148e-16)
(0.0991902 -0.148774 4.676e-17)
(0.0813604 -0.0251462 -9.83645e-17)
(0.113501 0.0201955 -2.12815e-16)
(0.0957653 0.0032854 -3.82318e-15)
(0.0751068 0.0092908 5.93393e-15)
(0.0814493 0.00657893 2.37109e-14)
(0.0666194 0.00288134 5.30199e-15)
(0.0922934 -0.000691478 -1.01686e-14)
(0.0699117 0.00131602 2.26859e-15)
(0.229471 0.0302318 8.64817e-15)
(1.13314 0.152819 -2.81496e-15)
(-0.581215 1.32108 1.93845e-15)
(-0.429779 1.39814 2.35768e-15)
(-0.189495 1.37869 -1.81495e-16)
(-0.0577966 1.50364 -4.41974e-15)
(0.127456 1.41908 4.65768e-14)
(0.296524 1.28605 -5.51712e-14)
(0.421497 1.12631 -7.24286e-14)
(0.482456 0.89735 1.36863e-13)
(0.485757 0.621293 5.77235e-14)
(0.43344 0.325563 8.18626e-14)
(0.325731 0.0242649 1.8204e-14)
(0.178024 -0.252853 2.34319e-15)
(0.0201917 -0.456025 3.28433e-13)
(-0.116998 -0.556902 9.88299e-15)
(-0.164708 -0.563753 2.0737e-13)
(-0.234156 -0.406532 -3.84941e-15)
(-0.116767 -0.280033 -6.52314e-13)
(-0.0351533 -0.184926 3.99148e-13)
(-0.103606 -0.208862 8.96098e-13)
(-0.36565 -0.298975 1.65524e-13)
(-0.791054 -0.374031 -5.44813e-14)
(-1.14585 -0.371404 -1.66079e-14)
(-0.939938 0.922528 1.22255e-13)
(-1.17989 6.56512 1.18833e-13)
(-5.02004 -4.23389 -9.48855e-14)
(-2.50415 -0.577684 -2.84635e-15)
(-0.84416 -0.276182 -2.05275e-14)
(0.135353 0.0718128 9.30872e-15)
(0.162463 0.0278175 -3.12432e-14)
(0.255189 -0.0347411 -8.08186e-14)
(0.278922 -0.0292039 2.07255e-14)
(0.046339 -0.0348996 1.44118e-13)
(0.545431 -0.119522 1.94981e-14)
(-2.69368 -0.340943 1.15749e-13)
(0.418774 -1.48985 1.08262e-13)
(17.7984 -2.27406 7.46514e-14)
(5.71197 -0.697628 3.11922e-15)
(-2.04526 -1.30126 8.52755e-14)
(-4.56513 -2.60752 3.65327e-14)
(-0.620778 1.1589 2.67554e-14)
(-0.554298 0.93388 -4.13925e-14)
(-0.455196 0.699081 -5.32088e-14)
(-0.405041 0.521201 -1.02671e-14)
(-0.381488 0.360194 8.47253e-15)
(-0.332784 0.214559 -1.0958e-13)
(-0.231454 0.119954 3.12493e-14)
(-0.196819 0.0850374 -1.59542e-13)
(-0.195021 0.0631272 -1.27217e-13)
(-0.168162 0.0262965 -1.13002e-13)
(-0.123242 -0.0303005 1.1384e-13)
(-0.0452884 -0.0842602 1.0775e-13)
(0.0504285 -0.104331 -6.31539e-14)
(0.144385 -0.0851556 -1.43468e-13)
(0.217435 -0.0633652 3.97493e-14)
(0.26122 -0.0467375 6.69208e-14)
(0.285987 -0.0468148 -1.80603e-14)
(0.318761 -0.0870082 -8.59267e-14)
(0.332 -0.0978827 -2.45012e-14)
(0.334709 -0.0820682 2.53543e-15)
(0.350228 -0.0632317 -1.7921e-14)
(0.447759 -0.0860252 -3.6611e-14)
(0.344016 -0.0961468 8.02654e-15)
(0.320616 0.00734518 -6.917e-16)
(0.22775 -0.118621 1.54687e-15)
(0.195562 -0.107112 -5.93428e-15)
(0.228197 0.137486 -1.13008e-14)
(0.184634 0.0423977 2.31615e-15)
(0.165864 0.113975 3.63988e-16)
(0.106869 0.00262959 -9.82312e-16)
(0.0825727 -0.00273661 1.00444e-16)
(0.0718626 0.00594923 3.76943e-15)
(0.0569937 -0.00263416 -4.06314e-15)
(0.0557334 -0.000782993 -6.64579e-15)
(0.0498812 -0.00141496 9.76995e-16)
(0.0618976 0.000904759 -4.36065e-16)
(0.0514325 -0.00622885 4.46288e-15)
(0.137083 0.0346701 5.45209e-15)
(1.88909 0.146769 -3.09237e-14)
(-0.488207 1.24348 1.15591e-14)
(-0.355124 1.30527 4.31678e-15)
(-0.129778 1.28695 -2.89004e-17)
(-0.00420471 1.41236 -5.69773e-15)
(0.136038 1.34817 -5.95188e-16)
(0.278663 1.24166 -1.21858e-14)
(0.39405 1.10573 8.93066e-14)
(0.4481 0.886257 2.35503e-14)
(0.445556 0.616016 -2.22319e-13)
(0.38718 0.32897 7.49888e-14)
(0.272048 0.0425857 2.46663e-13)
(0.11914 -0.213498 3.13214e-13)
(-0.0429362 -0.404394 7.18006e-14)
(-0.170216 -0.513894 -3.60164e-13)
(-0.232422 -0.521962 -9.07271e-14)
(-0.175974 -0.468295 -8.83304e-14)
(-0.0483352 -0.358318 -1.68484e-13)
(0.0688938 -0.286734 -3.57572e-13)
(0.066503 -0.300586 -6.19201e-13)
(-0.0606668 -0.395982 1.55126e-13)
(-0.243476 -0.51099 -1.17034e-13)
(-0.448348 -0.521893 -1.83189e-13)
(-0.975726 -0.523655 -9.45045e-16)
(-3.19626 -1.63811 -2.33272e-13)
(-0.770706 0.760841 -3.86031e-14)
(-1.60051 -0.33506 2.99487e-14)
(-1.34125 -0.232133 3.34787e-14)
(-0.736577 -0.0838268 -1.61083e-14)
(-0.410626 -0.011213 2.4007e-14)
(-0.195439 -0.0240181 4.35763e-14)
(-0.0419827 -0.0241849 -4.43342e-14)
(-0.0677452 -0.0404378 2.08187e-14)
(0.519922 -0.0727393 1.42331e-13)
(-0.556739 -0.551827 9.66448e-14)
(-4.77266 -1.1865 -8.22804e-15)
(6.1701 -1.74706 -1.35404e-13)
(17.2481 -0.714832 -5.42544e-14)
(1.1068 -0.480726 6.70123e-15)
(-2.00639 1.33687 -1.70172e-13)
(-0.527003 1.10192 -2.91499e-15)
(-0.484232 0.89476 -4.05577e-14)
(-0.421499 0.660471 -3.65895e-14)
(-0.419594 0.495552 -3.37625e-14)
(-0.409601 0.350908 1.27066e-13)
(-0.343103 0.220515 2.01476e-13)
(-0.255808 0.133869 1.4021e-14)
(-0.227155 0.090908 1.49062e-13)
(-0.213367 0.0570762 -5.19807e-15)
(-0.181131 0.0152779 -3.69547e-14)
(-0.133168 -0.0343189 -8.42752e-14)
(-0.0656509 -0.0790288 -3.10409e-14)
(0.0182693 -0.115231 -1.99499e-14)
(0.107262 -0.128387 7.30563e-14)
(0.179178 -0.135727 -3.86675e-14)
(0.233688 -0.139456 -1.24618e-13)
(0.270668 -0.144963 -1.67057e-14)
(0.294164 -0.147486 8.02029e-14)
(0.309681 -0.1327 -2.71628e-15)
(0.324825 -0.13705 -2.23368e-14)
(0.340591 -0.126606 -5.92929e-14)
(0.348144 -0.0581821 2.38004e-14)
(0.338549 -0.0463816 3.10212e-14)
(0.310587 -0.0782816 -5.55197e-15)
(0.249683 0.00698062 -2.16828e-15)
(0.215931 0.0018133 3.93451e-15)
(0.208852 -0.0860334 5.56249e-15)
(0.180688 -0.0491974 -1.1289e-15)
(0.151517 -0.0502653 -1.69366e-16)
(0.110476 0.00346536 4.23739e-16)
(0.096425 0.0109437 -9.38567e-16)
(0.080477 0.00122457 -1.78632e-15)
(0.0699557 0.000192476 -9.33427e-16)
(0.0646876 -0.000101183 2.38505e-15)
(0.0552295 -0.00443009 4.87438e-15)
(0.0642042 -0.00379108 2.16468e-16)
(0.0452109 -0.00432405 -7.83942e-15)
(0.176327 0.0861709 -1.15959e-14)
(1.80413 0.45896 -2.54893e-14)
(-0.337719 1.12633 -9.93785e-15)
(-0.21085 1.17463 6.66528e-15)
(-0.0190504 1.14565 3.86992e-16)
(0.111267 1.25896 -1.04774e-14)
(0.2356 1.20315 -4.54512e-15)
(0.368838 1.09764 2.44862e-14)
(0.483632 0.970627 -1.32684e-14)
(0.532614 0.762051 1.52397e-14)
(0.523572 0.50967 -8.38252e-14)
(0.458833 0.246831 -2.57542e-13)
(0.337699 -0.0115787 -9.66826e-15)
(0.18201 -0.24052 -1.17476e-13)
(0.019989 -0.411221 -7.39708e-14)
(-0.108963 -0.500164 -1.51337e-14)
(-0.165664 -0.491836 -3.06756e-13)
(-0.127161 -0.406485 2.84727e-13)
(-0.0470905 -0.274348 1.61394e-13)
(0.0293837 -0.181156 -3.56957e-13)
(0.00397933 -0.182145 1.21031e-13)
(-0.138511 -0.260526 -1.94646e-13)
(-0.310688 -0.320578 -1.29579e-13)
(-0.458667 -0.315536 2.46891e-13)
(-0.562279 -0.237955 1.49676e-14)
(-0.476993 -0.18807 2.13001e-13)
(0.179676 -0.620536 9.36826e-14)
(-0.394991 -0.0781258 -2.11979e-14)
(-0.376355 -0.121785 5.60446e-15)
(-0.347787 -0.0830726 2.18867e-14)
(-0.343244 -0.0239031 -2.8102e-14)
(-0.199538 -0.0465773 -4.8647e-14)
(-0.100886 -0.0500996 2.23026e-14)
(-0.0707131 -0.0785973 -4.47052e-14)
(0.210171 -0.0740138 -4.00215e-14)
(0.822577 -0.614185 -1.06688e-13)
(-2.30174 -1.31004 -1.87233e-13)
(-5.13778 -0.946085 4.42071e-14)
(12.0023 -1.09542 -1.25955e-13)
(24.509 -2.39916 -1.23323e-13)
(1.1595 3.86106 8.81955e-14)
(-0.401851 0.981062 2.11757e-14)
(-0.429441 0.801778 3.95544e-14)
(-0.428793 0.634756 -4.79066e-14)
(-0.430211 0.502282 -2.41271e-14)
(-0.38676 0.354319 6.35174e-14)
(-0.31107 0.22436 -1.49867e-13)
(-0.244274 0.144716 -1.01473e-13)
(-0.224119 0.101851 1.84801e-13)
(-0.204468 0.0628154 1.92608e-13)
(-0.172279 0.0184001 -3.35398e-15)
(-0.126664 -0.029798 -5.32558e-14)
(-0.065204 -0.0734827 -3.69994e-14)
(0.00902331 -0.104618 1.15806e-13)
(0.0838265 -0.127547 -5.33656e-14)
(0.156839 -0.141061 -1.23443e-14)
(0.218454 -0.147895 9.24625e-14)
(0.261278 -0.150124 -4.17293e-14)
(0.287944 -0.147968 3.74114e-14)
(0.305526 -0.140398 2.30477e-14)
(0.31981 -0.128444 3.49395e-15)
(0.335768 -0.116744 6.19553e-14)
(0.346988 -0.100726 -2.27507e-14)
(0.336859 -0.0790242 -4.1421e-14)
(0.301077 -0.0602887 -6.94133e-15)
(0.259608 -0.0428189 1.59309e-14)
(0.227529 -0.0344283 1.67106e-16)
(0.203767 -0.036759 6.57931e-15)
(0.18356 -0.0336896 -1.23483e-15)
(0.151497 -0.0282175 -7.48653e-17)
(0.11677 -0.0259371 1.84988e-16)
(0.100101 -0.0239275 3.37983e-16)
(0.0851621 -0.0257772 9.86289e-16)
(0.074314 -0.0251716 -1.70572e-15)
(0.0688977 -0.0185627 -6.91546e-15)
(0.0594338 -0.0145074 -3.09298e-15)
(0.0670437 -0.0072009 4.45011e-16)
(0.0494806 0.00183982 -2.39444e-15)
(0.206457 0.0345485 -1.34175e-14)
(1.78405 0.428929 -3.82422e-15)
(-0.29847 1.03006 1.90413e-15)
(-0.170131 1.08598 -4.10741e-16)
(-0.010374 1.06633 2.2525e-15)
(0.100189 1.16723 -2.04558e-15)
(0.214426 1.11587 6.43582e-15)
(0.343792 1.02223 -4.61397e-15)
(0.445407 0.905764 -3.2992e-14)
(0.483059 0.71627 6.63447e-14)
(0.468141 0.485697 1.47028e-13)
(0.401855 0.253264 -9.28486e-14)
(0.285501 0.0227502 -9.54653e-14)
(0.137704 -0.188283 5.98481e-14)
(-0.0143652 -0.342539 -1.34857e-13)
(-0.135731 -0.420729 -2.11563e-14)
(-0.184612 -0.411684 -4.19979e-14)
(-0.143934 -0.327069 2.03951e-14)
(-0.0541808 -0.219991 4.06435e-14)
(0.0184795 -0.168406 4.23894e-13)
(-0.00457886 -0.202471 3.42508e-13)
(-0.131444 -0.290849 -1.4763e-13)
(-0.280035 -0.377175 2.09975e-13)
(-0.410798 -0.387881 1.98489e-14)
(-0.558067 -0.279953 -6.31192e-14)
(-0.665719 -0.214016 -1.21809e-13)
(-0.557121 -0.180827 9.69232e-15)
(-0.541696 -0.14624 2.87737e-14)
(-0.403194 -0.140755 3.55244e-14)
(-0.274962 -0.07975 -3.34978e-14)
(-0.236701 -0.0293134 7.89414e-15)
(-0.113086 -0.0636189 6.67278e-14)
(-0.0158917 -0.0736259 -2.72329e-14)
(-0.00891537 -0.112897 -1.45864e-13)
(0.119348 -0.132707 -7.11927e-14)
(0.602794 -0.625295 -6.87608e-14)
(0.703703 -1.4196 4.76871e-14)
(-5.12809 -1.10879 2.77978e-14)
(-1.49683 -0.811949 1.42456e-13)
(20.7975 -1.68995 7.8949e-14)
(-1.49177 3.38764 4.08448e-14)
(-0.393223 0.938442 -9.34494e-15)
(-0.440837 0.832862 -1.26352e-14)
(-0.417814 0.653238 2.2331e-15)
(-0.374284 0.453716 3.66751e-14)
(-0.308542 0.301328 3.66791e-14)
(-0.223113 0.201432 -1.97188e-13)
(-0.179977 0.149885 -1.18587e-13)
(-0.168267 0.115804 -1.7004e-13)
(-0.14768 0.0802317 3.11845e-14)
(-0.118218 0.0409855 2.11492e-14)
(-0.079637 -0.000990089 -5.48653e-14)
(-0.0297012 -0.0405191 4.84534e-15)
(0.0305067 -0.0724097 -2.41415e-14)
(0.0959736 -0.094711 -4.35479e-14)
(0.160276 -0.106075 -1.37395e-13)
(0.214138 -0.114179 -1.21994e-14)
(0.255429 -0.119462 8.19119e-14)
(0.283002 -0.118737 -1.26854e-14)
(0.300095 -0.11395 1.59075e-14)
(0.313166 -0.107127 -2.81894e-14)
(0.327943 -0.0997554 -4.27132e-14)
(0.338172 -0.0900982 -3.40558e-15)
(0.327749 -0.0753928 1.51392e-14)
(0.292961 -0.0571033 1.63379e-14)
(0.25432 -0.0409495 -9.37007e-16)
(0.224857 -0.0341343 -7.24798e-15)
(0.202036 -0.0336936 -1.22352e-14)
(0.181651 -0.0270376 2.35659e-15)
(0.149591 -0.014088 2.03354e-17)
(0.115952 -0.00407812 -1.7243e-16)
(0.100053 0.00250609 -3.24931e-16)
(0.0854969 0.001354 -9.20711e-16)
(0.0749569 0.000111918 1.69779e-15)
(0.0695091 0.00413599 5.89784e-15)
(0.0604505 0.0033429 1.99943e-15)
(0.0655338 0.00325686 -3.13487e-15)
(0.0610298 0.0142735 8.71207e-15)
(0.16037 0.0659974 1.94669e-14)
(1.42202 0.103569 -1.67825e-14)
(-0.280959 1.01965 7.67399e-16)
(-0.166973 1.02777 -3.16963e-16)
(-0.0244304 1.01425 -9.55374e-16)
(0.0939795 1.11787 3.29812e-15)
(0.212341 1.07074 -2.59315e-15)
(0.33646 0.983309 -1.35755e-14)
(0.442127 0.873722 3.70288e-14)
(0.487344 0.695419 -1.06804e-14)
(0.476259 0.479213 4.69718e-14)
(0.416368 0.254858 9.17491e-14)
(0.317461 0.0331133 1.79834e-14)
(0.188013 -0.168754 2.96917e-14)
(0.0520468 -0.321219 1.95697e-13)
(-0.0520946 -0.403513 3.39025e-13)
(-0.090683 -0.404705 3.06996e-13)
(-0.0471988 -0.336219 -5.60872e-15)
(0.048057 -0.252315 3.77008e-13)
(0.0998086 -0.215525 1.45183e-14)
(0.0468124 -0.248773 -1.11821e-13)
(-0.102785 -0.318864 1.5146e-13)
(-0.260035 -0.369202 -2.52463e-13)
(-0.381571 -0.353951 1.03518e-13)
(-0.511554 -0.275694 1.16134e-13)
(-0.603375 -0.213152 3.9027e-14)
(-0.612204 -0.201089 1.12562e-13)
(-0.585071 -0.174775 -4.51711e-14)
(-0.4418 -0.126615 -3.79752e-14)
(-0.30158 -0.0818399 5.29228e-15)
(-0.251626 -0.0405229 2.43608e-14)
(-0.113552 -0.0630748 -6.21614e-14)
(0.00349254 -0.0823825 -6.00864e-14)
(0.00709473 -0.116879 1.13772e-13)
(0.146516 -0.166732 2.4968e-14)
(0.054699 -0.612993 -4.27175e-14)
(0.916874 -1.32091 1.03904e-14)
(-1.33472 -1.41313 -9.54095e-14)
(-7.18464 -0.997403 6.34381e-14)
(5.16651 0.585363 -2.05175e-14)
(-2.75611 3.65085 4.58775e-15)
(-0.355317 0.950141 -6.70521e-15)
(-0.378717 0.764894 -1.14757e-14)
(-0.331504 0.517435 6.7683e-15)
(-0.289958 0.362654 8.07147e-14)
(-0.261851 0.267071 3.55826e-14)
(-0.21146 0.190059 6.57169e-15)
(-0.186802 0.150691 1.73657e-13)
(-0.173588 0.115316 -8.85378e-14)
(-0.149313 0.0772043 -1.40299e-13)
(-0.116176 0.0378186 4.61341e-14)
(-0.0757573 -0.00114821 9.60942e-14)
(-0.0268265 -0.037726 -2.24394e-14)
(0.0299501 -0.0692822 6.49015e-14)
(0.0912241 -0.0941432 7.49287e-15)
(0.15128 -0.110845 3.36326e-14)
(0.204172 -0.119692 1.34498e-14)
(0.246323 -0.123555 -3.62832e-14)
(0.274619 -0.123175 3.04767e-14)
(0.291927 -0.119703 -2.28876e-14)
(0.305117 -0.114511 3.46505e-15)
(0.319866 -0.108512 5.90078e-14)
(0.329852 -0.0993205 -2.03408e-14)
(0.319711 -0.0841943 -2.69651e-14)
(0.286203 -0.0646043 5.77519e-15)
(0.249849 -0.0464533 -1.18186e-15)
(0.222845 -0.0368307 2.06707e-15)
(0.200805 -0.034196 6.31211e-15)
(0.179684 -0.0272278 -1.06774e-15)
(0.14763 -0.0153915 1.5618e-17)
(0.114923 -0.00688873 1.12277e-16)
(0.0996846 -0.00133608 -5.86342e-16)
(0.0850541 -0.00246321 2.73074e-16)
(0.0747007 -0.00277011 1.80635e-15)
(0.0693871 0.00232583 -3.3225e-16)
(0.0607292 0.00254266 -4.86401e-16)
(0.0617043 0.00392365 1.59907e-15)
(0.0755522 0.0173599 -2.83726e-15)
(0.0962507 0.0699422 -2.53924e-15)
(0.827187 -0.0500694 -1.54482e-14)
(-0.252215 0.928168 3.16095e-15)
(-0.134078 0.95001 -3.43756e-15)
(0.00422284 0.924751 1.66342e-15)
(0.113696 1.0077 -4.1154e-15)
(0.221116 0.965063 2.18478e-15)
(0.335709 0.883295 3.33122e-15)
(0.428293 0.780843 6.99518e-15)
(0.462183 0.617201 -9.41174e-14)
(0.450442 0.422833 -9.74606e-15)
(0.394113 0.215088 1.46442e-13)
(0.292031 0.00954562 -6.09701e-14)
(0.165793 -0.171826 -1.36911e-13)
(0.0375319 -0.308514 -2.70861e-13)
(-0.0590523 -0.375047 -2.27948e-13)
(-0.0906825 -0.364921 -1.57142e-13)
(-0.0451152 -0.292027 -5.94202e-14)
(0.0409456 -0.206327 -2.12214e-13)
(0.0870266 -0.17281 -2.90621e-13)
(0.0325968 -0.220391 -1.4093e-13)
(-0.10607 -0.300094 3.44688e-13)
(-0.241915 -0.351689 3.19745e-13)
(-0.33672 -0.339778 -2.83305e-14)
(-0.462705 -0.28039 -4.69692e-14)
(-0.577823 -0.234599 -1.53502e-13)
(-0.586807 -0.216174 -8.57496e-14)
(-0.551466 -0.161985 3.92785e-14)
(-0.418776 -0.10784 2.95243e-14)
(-0.296354 -0.089723 3.38616e-15)
(-0.260056 -0.0558046 -1.73525e-14)
(-0.129003 -0.0698477 6.42901e-14)
(-0.0147684 -0.0870853 1.36244e-13)
(-0.0132766 -0.124655 -3.07514e-15)
(0.150792 -0.186503 1.62693e-14)
(-0.10932 -0.606097 3.46438e-14)
(-0.0384159 -1.16125 -1.91479e-14)
(0.406425 -1.35923 9.47738e-14)
(-6.53421 -1.26179 -6.42949e-14)
(-0.861671 1.82061 -1.37532e-13)
(1.80632 4.64055 2.61429e-14)
(-0.293331 0.781852 1.72299e-14)
(-0.293489 0.607111 2.12424e-14)
(-0.272118 0.467881 6.40041e-15)
(-0.279811 0.379194 1.05636e-13)
(-0.279027 0.288302 -1.78024e-13)
(-0.257112 0.202948 8.56677e-14)
(-0.242514 0.151686 1.50376e-13)
(-0.22751 0.106763 7.31816e-14)
(-0.199423 0.0608092 -3.4266e-14)
(-0.160907 0.0156041 -3.37668e-14)
(-0.113956 -0.026528 2.25395e-14)
(-0.0587886 -0.0637029 3.59385e-14)
(0.0027965 -0.0945005 -8.54762e-14)
(0.067327 -0.118373 6.3705e-14)
(0.130126 -0.134927 1.5557e-14)
(0.18612 -0.14313 -1.14846e-14)
(0.230793 -0.145074 -5.48048e-14)
(0.261412 -0.142417 -5.4771e-14)
(0.281423 -0.135834 4.5612e-14)
(0.296784 -0.128145 1.34093e-14)
(0.313006 -0.12006 4.64486e-15)
(0.323802 -0.109017 4.64e-14)
(0.314422 -0.0918267 1.84028e-14)
(0.282616 -0.0703043 -2.17786e-15)
(0.248689 -0.0500856 5.50353e-15)
(0.223932 -0.0379168 -3.69787e-15)
(0.202505 -0.0327687 -7.27044e-15)
(0.180465 -0.0244831 1.1241e-15)
(0.148168 -0.0119212 -8.11176e-16)
(0.116076 -0.00345253 -3.67109e-18)
(0.101155 0.00211943 7.00968e-16)
(0.0862085 0.00209502 -6.38982e-16)
(0.0758614 0.00173478 -3.23969e-15)
(0.0708438 0.00691809 -2.89503e-15)
(0.0627234 0.00666681 -1.78249e-15)
(0.0592957 0.00801296 -1.47367e-15)
(0.0894415 0.024788 2.3975e-16)
(0.0430052 0.0861999 1.46097e-14)
(0.511136 -0.10884 2.32333e-14)
(-0.163254 0.785142 7.91867e-16)
(-0.0544839 0.833839 1.90202e-15)
(0.0660008 0.809262 -1.91557e-15)
(0.168614 0.87683 -2.27943e-16)
(0.261194 0.829576 -1.18354e-14)
(0.359342 0.751598 1.24995e-14)
(0.439086 0.655502 -1.27159e-14)
(0.461061 0.504033 -1.69195e-14)
(0.442023 0.324591 -2.96891e-14)
(0.38379 0.138899 -3.97141e-14)
(0.284075 -0.0460107 1.65135e-14)
(0.162224 -0.212389 1.60897e-13)
(0.0391732 -0.333105 2.17838e-13)
(-0.0528414 -0.388092 3.54998e-14)
(-0.0811169 -0.372169 7.26064e-15)
(-0.0362973 -0.296131 1.28876e-14)
(0.0437191 -0.212787 -3.9547e-14)
(0.0796165 -0.182508 1.22359e-13)
(0.0142556 -0.22532 1.10295e-13)
(-0.123565 -0.291055 -2.67528e-13)
(-0.241884 -0.324067 -2.90229e-14)
(-0.316275 -0.305098 5.77835e-14)
(-0.434221 -0.256135 -6.83132e-14)
(-0.553294 -0.219011 7.9717e-14)
(-0.562575 -0.199891 2.90753e-16)
(-0.524582 -0.151846 -1.31423e-14)
(-0.400376 -0.10808 -3.79887e-14)
(-0.282173 -0.101001 1.76263e-15)
(-0.248579 -0.0615417 -1.55858e-16)
(-0.126792 -0.0621345 3.39167e-14)
(-0.0207444 -0.0824537 1.35454e-14)
(-0.0264146 -0.128182 -6.15296e-14)
(0.112175 -0.196447 -1.96136e-14)
(-0.0381431 -0.59202 1.2e-13)
(-0.575753 -1.04059 2.18382e-14)
(0.0883912 -1.09732 -1.97305e-14)
(-4.52581 -1.42083 -4.6852e-14)
(-1.35713 2.07002 1.12444e-13)
(1.40726 5.36314 4.31824e-14)
(-0.220527 0.677607 3.79304e-15)
(-0.254434 0.597388 -5.03609e-14)
(-0.275288 0.488357 2.13348e-14)
(-0.291889 0.385917 2.42182e-14)
(-0.272161 0.285934 4.75714e-14)
(-0.250416 0.206606 -1.63891e-14)
(-0.242712 0.156797 -3.20842e-14)
(-0.23106 0.109562 -4.69639e-15)
(-0.207316 0.0615312 -5.76351e-15)
(-0.172289 0.0145339 1.16197e-14)
(-0.128277 -0.0295286 3.70937e-14)
(-0.0754591 -0.0687836 6.31641e-14)
(-0.0156137 -0.101699 -2.73005e-15)
(0.0477295 -0.127774 -1.31625e-13)
(0.110107 -0.146227 2.49212e-14)
(0.166357 -0.15671 7.27756e-14)
(0.212225 -0.159946 5.54445e-14)
(0.245335 -0.157308 2.52954e-14)
(0.267892 -0.150607 -2.01218e-14)
(0.285287 -0.141909 -5.03419e-15)
(0.303254 -0.132861 -2.11619e-14)
(0.315284 -0.121067 -3.88211e-14)
(0.30684 -0.103075 1.58054e-14)
(0.276586 -0.0799782 1.49124e-14)
(0.245331 -0.0581913 2.5057e-15)
(0.22315 -0.0436989 1.37141e-14)
(0.202721 -0.0358966 4.49342e-15)
(0.180104 -0.025729 -8.60584e-16)
(0.147818 -0.0119628 6.6227e-16)
(0.116506 -0.00278398 -8.29628e-17)
(0.102037 0.0032837 3.11139e-18)
(0.0868193 0.00367693 -4.11904e-17)
(0.0764085 0.00348861 1.68205e-15)
(0.0717588 0.00934907 1.2534e-15)
(0.0640387 0.00954159 -1.46431e-15)
(0.0582945 0.0114632 3.12796e-17)
(0.0956262 0.026403 5.55134e-15)
(0.0203501 0.0853343 -6.85573e-15)
(0.394431 -0.102403 -7.97596e-15)
(-0.125884 0.72699 3.87168e-15)
(-0.0340098 0.758806 -1.15921e-15)
(0.0718939 0.747129 -4.74929e-15)
(0.166292 0.808382 -2.13204e-15)
(0.249688 0.766327 1.21178e-14)
(0.340454 0.692605 -1.41133e-14)
(0.41447 0.605278 -2.69175e-15)
(0.43371 0.467289 2.7587e-14)
(0.417184 0.302738 1.61485e-14)
(0.365212 0.131051 3.2318e-14)
(0.27438 -0.0405944 7.07731e-14)
(0.163386 -0.195134 5.89769e-14)
(0.0529572 -0.306895 -1.37824e-13)
(-0.0283704 -0.358189 -2.23224e-13)
(-0.0512044 -0.339557 3.79154e-14)
(-0.00769313 -0.267542 2.86681e-13)
(0.0656552 -0.193184 6.05713e-14)
(0.0919038 -0.170026 -1.63844e-13)
(0.0150001 -0.21905 -2.78466e-14)
(-0.128885 -0.289812 3.3893e-14)
(-0.234476 -0.317112 -6.78633e-14)
(-0.291785 -0.295295 -8.28815e-14)
(-0.402432 -0.253371 6.06599e-15)
(-0.527694 -0.221306 6.14919e-14)
(-0.542199 -0.200374 5.58692e-14)
(-0.504599 -0.158331 -3.15961e-15)
(-0.386845 -0.113132 3.21247e-14)
(-0.269366 -0.0992256 5.75155e-15)
(-0.235095 -0.0535328 5.43469e-14)
(-0.120796 -0.0509533 -4.17394e-14)
(-0.0209029 -0.0786782 -1.39018e-13)
(-0.0313364 -0.133882 -4.66031e-14)
(0.0634234 -0.207349 2.75021e-14)
(0.00812632 -0.565774 2.32762e-14)
(-0.600301 -0.949101 -2.2904e-14)
(-0.504678 -0.853973 -3.49572e-14)
(-3.43485 -1.43184 6.65042e-14)
(-1.29166 2.07166 5.75265e-14)
(0.579056 5.28974 -7.06974e-14)
(-0.196417 0.671041 -8.79963e-15)
(-0.244125 0.593534 -8.18859e-15)
(-0.252727 0.471901 -1.31113e-14)
(-0.249343 0.361921 -2.10007e-14)
(-0.21949 0.260367 3.17245e-14)
(-0.204893 0.19918 -4.21325e-14)
(-0.204564 0.157333 -1.89596e-14)
(-0.196121 0.113431 6.47552e-14)
(-0.177582 0.0682995 -3.59946e-14)
(-0.148397 0.0237661 6.84144e-14)
(-0.110667 -0.0184306 6.70218e-14)
(-0.0641118 -0.0566856 4.40171e-14)
(-0.010164 -0.0896502 3.05963e-14)
(0.0477877 -0.116852 4.72214e-14)
(0.1056 -0.137091 -1.34368e-14)
(0.158601 -0.149677 3.48483e-15)
(0.202562 -0.154878 3.38114e-14)
(0.234446 -0.153266 2.55143e-14)
(0.256658 -0.148145 -2.46725e-15)
(0.274814 -0.140624 -5.1155e-14)
(0.293195 -0.132376 -9.42319e-15)
(0.305303 -0.121279 2.10886e-16)
(0.297369 -0.104049 -3.40097e-14)
(0.268285 -0.0809735 3.69918e-15)
(0.23914 -0.059214 -5.04276e-15)
(0.219362 -0.0439252 -1.06754e-14)
(0.20011 -0.0347247 8.05704e-16)
(0.177247 -0.0236679 7.6696e-17)
(0.145325 -0.00953353 2.67364e-17)
(0.11512 -0.000433017 -3.36078e-17)
(0.10143 0.00544902 1.9408e-17)
(0.0864463 0.00628904 3.17114e-16)
(0.07579 0.00641723 5.87765e-16)
(0.0716769 0.0124682 1.28234e-15)
(0.064481 0.0125229 8.80725e-16)
(0.0581299 0.0153894 3.61229e-15)
(0.0938215 0.0301297 -1.44816e-14)
(0.0246305 0.0864651 -9.61669e-15)
(0.347898 -0.0530472 2.02807e-14)
(-0.119635 0.695916 -2.96281e-15)
(-0.0305041 0.713188 8.61432e-16)
(0.0624502 0.702027 5.00479e-15)
(0.15136 0.757854 5.6327e-15)
(0.230048 0.720917 2.72466e-15)
(0.31488 0.65089 3.51738e-15)
(0.382567 0.570088 -1.27404e-14)
(0.401265 0.443992 -4.07637e-14)
(0.388304 0.292824 -3.85968e-14)
(0.343534 0.134171 -9.70013e-15)
(0.262681 -0.0252757 -5.28496e-14)
(0.163619 -0.168845 -1.66801e-14)
(0.065616 -0.271513 1.28241e-13)
(-0.0046916 -0.315561 6.46772e-14)
(-0.0180733 -0.294978 -3.8672e-15)
(0.027703 -0.230154 -2.20642e-13)
(0.0950994 -0.166201 -5.96391e-14)
(0.115009 -0.152975 2.02702e-13)
(0.0312736 -0.205754 9.644e-14)
(-0.120704 -0.282004 -4.62723e-14)
(-0.219768 -0.30568 -3.76135e-15)
(-0.266281 -0.282571 4.64091e-14)
(-0.371834 -0.24821 1.17824e-14)
(-0.503606 -0.221555 -8.43198e-14)
(-0.523348 -0.201176 -1.42005e-13)
(-0.486096 -0.160716 4.19954e-14)
(-0.373012 -0.110044 -7.64489e-15)
(-0.257275 -0.0930856 -8.57184e-15)
(-0.224141 -0.0509826 -3.02633e-14)
(-0.118527 -0.0508332 -2.61433e-14)
(-0.0245058 -0.0848438 4.2115e-14)
(-0.0372575 -0.144957 1.38371e-13)
(0.0248944 -0.220721 4.05475e-14)
(-0.0133391 -0.536786 -1.03528e-13)
(-0.516332 -0.862995 1.58232e-14)
(-0.664214 -0.689538 -3.01226e-14)
(-3.0689 -1.32231 -1.22984e-14)
(-1.74799 2.13402 -5.5197e-14)
(0.489494 5.0946 -3.23153e-14)
(-0.180067 0.640328 8.51047e-15)
(-0.206987 0.544208 2.64653e-14)
(-0.208193 0.41578 -6.0157e-14)
(-0.197941 0.313431 -6.6735e-15)
(-0.173445 0.234289 -1.22627e-13)
(-0.166567 0.189666 8.23234e-15)
(-0.168908 0.152332 3.33656e-14)
(-0.161663 0.112219 -1.33658e-13)
(-0.145481 0.0711603 2.76155e-14)
(-0.119903 0.0304926 -1.14817e-14)
(-0.0866779 -0.00838159 -6.54706e-14)
(-0.0452814 -0.0440788 -7.69321e-14)
(0.00327789 -0.0754673 -1.09342e-15)
(0.0558482 -0.102175 5.76093e-14)
(0.108547 -0.122868 2.30092e-14)
(0.157081 -0.136574 -2.28802e-14)
(0.197493 -0.143422 -3.23778e-14)
(0.227096 -0.143617 -8.938e-15)
(0.248315 -0.139463 1.69165e-14)
(0.266059 -0.133248 4.35702e-14)
(0.284138 -0.126269 4.38465e-14)
(0.295706 -0.116104 3.98345e-14)
(0.287341 -0.0995976 -1.85623e-15)
(0.259022 -0.0777505 -3.65429e-14)
(0.231622 -0.0567981 3.31846e-15)
(0.213992 -0.0415408 -1.13233e-14)
(0.195878 -0.03169 -6.71182e-15)
(0.17291 -0.020363 -1.02127e-15)
(0.141523 -0.00636813 3.85671e-16)
(0.112592 0.00234361 5.48989e-16)
(0.099868 0.00782803 2.26526e-17)
(0.0855164 0.00868807 -4.13709e-16)
(0.074364 0.00859855 7.1834e-17)
(0.0706603 0.0149225 -6.93428e-16)
(0.0640801 0.0153979 2.40728e-16)
(0.0579011 0.0191414 -4.0282e-15)
(0.0887254 0.0325283 1.21848e-14)
(0.0360458 0.085365 2.13327e-14)
(0.318913 -0.00370433 -5.25656e-14)
(-0.0959785 0.641899 -4.75616e-16)
(-0.0154371 0.656301 5.51474e-16)
(0.071622 0.643671 -3.19645e-17)
(0.153525 0.690131 -1.06689e-15)