/*--------------------------------*- C++ -*----------------------------------*\
| =========                 |                                                 |
| \\      /  F ield         | OpenFOAM: The Open Source CFD Toolbox           |
|  \\    /   O peration     | Version:  2312                                  |
|   \\  /    A nd           | Website:  www.openfoam.com                      |
|    \\/     M anipulation  |                                                 |
\*---------------------------------------------------------------------------*/
FoamFile
{
    version     2.0;
    format      ascii;
    arch        "LSB;label=32;scalar=64";
    class       volScalarField;
    location    "150";
    object      p;
}
// * * * * * * * * * * * * * * * * * * * * * * * * * * * * * * * * * * * * * //

dimensions      [0 2 -2 0 0 0 0];

internalField   nonuniform List<scalar> 
10720
(
-19.2456
-87.1906
-167.409
-247.278
-322.048
-398.665
-467.425
-526.03
-577.606
-618.847
-651.353
-676.101
-694.029
-706.373
-713.324
-714.399
-710.497
-700.696
-686.215
-665.962
-640.577
-608.329
-568.552
-520.343
-469.423
-431.362
-403.837
-353.438
-294.782
-258.209
-229.767
-194.477
-153.431
-105.771
-69.2144
-56.741
-73.5852
-94.3382
-52.9151
48.0145
108.994
172.888
231.632
280.73
316.043
334.084
338.098
331.908
314.677
290.997
265.943
241.367
218.011
196.499
176.468
157.844
140.15
123.13
106.25
89.4529
72.4136
55.2911
38.448
23.7841
12.4956
3.52913
-3.63035
-9.09885
-12.8519
-14.9424
-15.523
-14.6786
-12.5207
-9.187
-4.55225
0.981527
10.2733
28.6878
72.1728
20.8514
-37.0213
-98.9532
-163.018
-228.987
-293.476
-354.439
-411.157
-461.904
-506.273
-544.258
-575.956
-601.339
-620.346
-632.497
-638.366
-637.857
-631.769
-619.626
-601.302
-574.618
-538.12
-492.626
-446.569
-407.308
-371.163
-337.835
-305.341
-270.348
-233.799
-195.049
-153.322
-106.06
-69.6611
-56.6834
-74.2376
-96.4788
-56.8846
118.115
161.659
204.696
245.631
280.958
308.003
323.784
328.667
323.658
309.677
290.25
268.557
246.216
224.14
203.014
182.945
163.964
145.83
128.321
111.108
94.1029
77.0532
60.0313
43.4797
28.9036
17.2282
7.71723
0.019365
-5.89715
-10.039
-12.4861
-13.4088
-12.8893
-11.0351
-7.9711
-3.54781
1.77943
12.0523
30.2688
83.0878
37.0842
-15.0628
-72.9338
-133.33
-195.659
-258.372
-318.922
-375.774
-427.915
-474.097
-513.946
-547.031
-573.2
-592.768
-605.983
-613.043
-613.877
-608.833
-597.719
-580.307
-555.385
-522.151
-480.604
-437.582
-399.532
-364.763
-334.67
-304.105
-268.906
-231.779
-193.068
-152.25
-106.798
-71.2674
-56.7232
-74.7919
-97.6267
-58.7501
124.345
164.083
203.226
239.835
270.826
294.538
309.152
314.777
311.794
301.057
284.933
265.726
245.073
224.074
203.51
183.731
164.845
146.759
129.299
112.199
95.3194
78.5323
61.8512
45.6245
31.0691
19.1115
9.35252
1.46205
-4.61941
-8.91876
-11.5227
-12.5846
-12.1798
-10.4172
-7.41002
-3.01744
2.5253
12.8698
30.9806
100.647
62.1163
17.8491
-31.1086
-82.7863
-137.167
-192.657
-247.564
-300.633
-350.735
-396.769
-438.034
-473.966
-504.294
-528.833
-547.703
-560.667
-567.406
-567.939
-562.117
-549.628
-529.672
-501.712
-466.641
-429.147
-394.793
-362.687
-332.347
-300.923
-266.278
-229.873
-191.68
-151.608
-107.825
-73.2933
-57.6745
-74.8005
-97.6596
-57.4133
134.987
167.743
200.33
231.388
258.05
278.997
292.759
298.994
297.77
289.822
276.825
260.543
242.367
223.328
204.186
185.373
167.09
149.367
132.111
115.153
98.3898
81.7451
65.2465
49.239
34.723
22.5645
12.5701
4.43302
-1.91748
-6.50516
-9.40555
-10.7483
-10.604
-9.0785
-6.27471
-2.03035
3.48712
13.7853
31.8024
104.082
69.8563
30.3481
-13.6358
-60.1758
-109.709
-160.926
-212.3
-262.886
-311.564
-357.218
-399.056
-436.372
-468.606
-495.362
-516.431
-531.368
-540.128
-542.596
-538.755
-528.341
-510.835
-485.927
-454.525
-419.794
-387.31
-356.792
-326.952
-296.151
-262.692
-227.331
-189.988
-150.858
-108.657
-75.1568
-59.3052
-74.4746
-96.2592
-54.2135
134.652
163.657
192.611
220.236
244.007
263.011
276.119
282.805
283.014
277.379
267.084
253.468
237.644
220.53
202.851
185.08
167.499
150.238
133.293
116.586
100.051
83.6533
67.4459
51.7414
37.3551
25.0779
14.8835
6.52375
-0.0656515
-4.90209
-8.0338
-9.58456
-9.61951
-8.2455
-5.55728
-1.38392
4.16508
14.3857
31.6987
105.35
75.0776
39.9648
0.90428
-40.4175
-84.7136
-130.775
-177.392
-223.881
-269.228
-312.495
-352.929
-389.779
-422.398
-450.281
-473.033
-490.297
-501.922
-507.661
-507.306
-500.508
-486.813
-466.037
-438.941
-408.375
-378.264
-349.291
-320.489
-290.784
-258.572
-224.276
-187.88
-149.869
-109.305
-76.8826
-61.0204
-74.0856
-93.4569
-50.7605
132.4
157.982
183.719
208.47
229.905
247.359
259.901
266.883
268.194
264.396
256.36
245.121
231.558
216.444
200.434
183.982
167.4
150.876
134.478
118.199
102.021
85.9516
70.0653
54.6547
40.4103
28.0548
17.6874
9.13155
2.32703
-2.74059
-6.10621
-7.88838
-8.1457
-6.97815
-4.46714
-0.433998
5.06946
15.1632
31.2684
103.396
76.1181
44.3989
9.08891
-28.1822
-68.3425
-110.324
-153.073
-196.141
-238.634
-279.743
-318.797
-355.041
-387.79
-416.46
-440.527
-459.536
-473.087
-480.877
-482.652
-478.125
-466.992
-449.192
-425.453
-397.967
-369.905
-342.375
-314.617
-285.827
-254.639
-221.317
-185.852
-148.951
-110
-78.6123
-62.6628
-73.5736
-89.7031
-47.3447
127.797
150.809
174.094
196.596
216.173
232.388
244.418
251.554
253.713
251.364
245.187
235.992
224.474
211.261
196.915
181.843
166.356
150.679
134.931
119.167
103.418
87.7296
72.2008
57.1089
43.0488
30.6785
20.1836
11.4585
4.45341
-0.840889
-4.44348
-6.45284
-6.91848
-5.93279
-3.56897
0.357749
5.83628
15.7909
31.0701
100.138
75.4071
46.5949
14.5511
-19.1724
-55.6182
-93.8071
-132.822
-172.381
-211.722
-250.149
-287.105
-321.895
-353.851
-382.354
-406.822
-426.712
-441.627
-451.253
-455.271
-453.323
-445.099
-430.56
-410.328
-386.069
-360.415
-334.6
-308.1
-280.375
-250.336
-218.119
-183.7
-147.976
-110.656
-80.3135
-64.2296
-72.8924
-85.2848
-43.7018
122.299
143.16
164.396
185.027
203.066
218.242
229.788
236.978
239.772
238.558
233.889
226.424
216.713
205.261
192.537
178.884
164.592
149.892
134.933
119.811
104.6
89.3794
74.2665
59.5285
45.695
33.3669
22.7893
13.9258
6.74446
1.24313
-2.57952
-4.80704
-5.48286
-4.69215
-2.49689
1.29253
6.7039
16.4628
31.1012
95.9498
73.3325
46.9557
17.6454
-13.0985
-46.3753
-81.3013
-117.05
-153.474
-189.913
-225.785
-260.642
-293.858
-324.805
-352.878
-377.466
-397.989
-413.999
-425.088
-430.862
-430.921
-425.007
-413.129
-395.833
-374.403
-350.964
-326.758
-301.49
-274.835
-245.941
-214.834
-181.485
-146.947
-111.211
-81.9223
-65.6978
-72.0697
-80.6341
-39.766
116.251
135.337
154.868
173.929
190.668
204.95
216.037
223.213
226.47
226.142
222.693
216.674
208.53
198.667
187.466
175.205
162.137
148.479
134.389
119.992
105.392
90.6979
76.0431
61.6892
48.1176
35.8818
25.2651
16.2933
8.95736
3.26381
-0.772438
-3.21654
-4.10222
-3.50313
-1.47066
2.18734
7.52811
17.0748
31.2165
91.3102
70.5038
46.2258
19.2833
-8.88084
-39.3861
-71.4122
-104.214
-137.737
-171.403
-204.738
-237.381
-268.776
-298.375
-325.595
-349.824
-370.484
-387.083
-399.207
-406.451
-408.359
-404.66
-395.351
-380.88
-362.202
-341.012
-318.516
-294.592
-269.089
-241.37
-211.408
-179.182
-145.858
-111.652
-83.405
-67.047
-71.1406
-76.0412
-36.1744
110.021
127.595
145.671
163.387
179.007
192.496
203.149
210.258
213.844
214.207
211.742
206.922
200.121
191.666
181.865
170.935
159.086
146.508
133.353
119.756
105.843
91.7414
77.5984
63.6701
50.4038
38.3151
27.7097
18.6668
11.2046
5.34045
1.10598
-1.54452
-2.63541
-2.22972
-0.367353
3.14474
8.38973
17.6908
31.3444
86.4506
67.2072
44.7468
19.8569
-6.06639
-34.1516
-63.6288
-93.8193
-124.724
-155.841
-186.786
-217.279
-246.832
-274.963
-301.14
-324.784
-345.321
-362.26
-375.144
-383.566
-387.005
-385.18
-378.088
-366.096
-349.902
-330.845
-310.042
-287.479
-263.154
-236.626
-207.838
-176.782
-144.7
-111.975
-84.7425
-68.2647
-70.1387
-71.6354
-33.0698
103.789
120.063
136.88
153.424
168.069
180.845
191.078
198.087
201.901
202.797
201.123
197.296
191.638
184.415
175.879
166.195
155.526
144.029
131.842
119.096
105.926
92.4714
78.8852
65.4184
52.4962
40.6028
30.0554
20.9771
13.4153
7.40101
2.98191
0.132188
-1.16063
-0.947319
0.74444
4.10682
9.24295
18.2801
31.4273
81.5397
63.6652
42.8005
19.7142
-4.24439
-30.1947
-57.4085
-85.2593
-113.794
-142.567
-171.263
-199.673
-227.373
-253.951
-278.925
-301.756
-321.905
-338.887
-352.232
-361.541
-366.267
-366.097
-361.006
-351.278
-337.401
-320.409
-301.299
-280.133
-257.031
-231.721
-204.139
-174.293
-143.468
-112.181
-85.9264
-69.342
-69.0917
-67.4788
-30.3517
97.6792
112.818
128.53
144.04
157.826
169.951
179.777
186.662
190.624
191.93
190.893
187.886
183.193
177.039
169.632
161.093
151.544
141.108
129.898
118.035
105.653
92.8919
79.9055
66.9395
54.4018
42.7522
32.3117
23.2377
15.6078
9.46819
4.88266
1.84589
0.357811
0.380032
1.89783
5.10103
10.1086
18.8551
31.4617
76.6826
60.0152
40.5634
19.0733
-3.1493
-27.2061
-52.4058
-78.1614
-104.556
-131.194
-157.806
-184.245
-210.143
-235.151
-258.846
-280.736
-300.323
-317.141
-330.728
-340.681
-346.452
-347.681
-344.326
-336.602
-324.827
-309.782
-292.335
-272.582
-250.735
-226.666
-200.311
-171.705
-142.149
-112.261
-86.9515
-70.2734
-68.0176
-63.6197
-27.9472
91.7597
105.901
120.629
135.218
148.235
159.764
169.199
175.937
179.987
181.607
181.081
178.749
174.871
169.641
163.23
155.729
147.225
137.808
127.565
116.599
105.031
92.998
80.6481
68.2191
56.1036
44.7424
34.4551
25.4252
17.7586
11.519
6.78574
3.57388
1.89722
1.73058
3.07295
6.11052
10.9732
19.4071
31.4473
71.9464
56.3539
38.1643
18.0991
-2.57687
-24.9434
-48.3416
-72.2146
-96.6756
-121.365
-146.054
-170.639
-194.808
-218.263
-240.641
-261.503
-280.386
-296.865
-310.49
-320.86
-327.454
-329.859
-328.014
-322.07
-312.209
-298.999
-283.175
-264.842
-244.273
-221.46
-196.349
-169.01
-140.73
-112.202
-87.8102
-71.0566
-66.9287
-60.0899
-25.8408
86.0743
99.3255
113.176
126.933
139.255
150.231
159.293
165.869
169.96
171.817
171.701
169.926
166.732
162.294
156.758
150.19
142.648
134.195
124.892
114.817
104.077
92.796
81.1127
69.2531
57.5957
46.5651
36.4765
27.5315
19.862
13.5502
8.69049
5.31845
3.46221
3.1103
4.27569
7.13997
11.8398
19.9387
31.3879
67.3715
52.7458
35.6914
16.9078
-2.38255
-23.2326
-45.0089
-67.1877
-89.8963
-112.806
-135.724
-158.583
-181.113
-203.067
-224.128
-243.911
-262.001
-278.009
-291.516
-302.119
-309.33
-312.701
-312.144
-307.758
-299.617
-288.114
-273.856
-256.933
-237.654
-216.106
-192.252
-166.2
-139.199
-111.998
-88.4952
-71.6909
-65.8356
-56.8951
-24.0351
80.6462
93.0968
106.153
119.157
130.843
141.305
150.01
156.412
160.509
162.541
162.752
161.435
158.818
155.059
150.287
144.55
137.885
130.332
121.926
112.723
102.811
92.2954
81.3011
70.0376
58.8698
48.2088
38.3619
29.5422
21.9044
15.5491
10.5857
7.06966
5.04391
4.51129
5.49895
8.18324
12.7035
20.4472
31.2868
62.9828
49.2338
33.207
15.5834
-2.45819
-21.9377
-42.2482
-62.8943
-84.0118
-105.298
-126.591
-147.847
-168.834
-189.346
-209.115
-227.801
-245.039
-260.48
-273.737
-284.412
-292.058
-296.205
-296.733
-293.701
-287.097
-277.173
-264.412
-248.878
-230.891
-210.612
-188.024
-163.272
-137.551
-111.642
-89.0005
-72.1763
-64.7493
-54.0207
-22.5219
75.4855
87.212
99.5452
111.861
122.961
132.943
141.306
147.527
151.6
153.759
154.232
153.293
151.16
147.981
143.872
138.871
132.999
126.276
118.717
110.356
101.258
91.5098
81.2174
70.5719
59.9227
49.666
40.101
31.4463
23.8751
17.5064
12.464
8.822
6.63852
5.93118
6.74093
9.23868
13.5629
20.9329
31.1484
58.7957
45.844
30.7528
14.186
-2.72398
-20.9588
-39.9402
-59.1937
-78.8628
-98.6683
-118.468
-138.238
-157.782
-176.925
-195.441
-213.037
-229.392
-244.197
-257.101
-267.72
-275.639
-280.389
-281.818
-279.945
-274.704
-266.224
-254.881
-240.703
-223.999
-204.987
-183.669
-160.224
-135.776
-111.126
-89.3213
-72.5132
-63.6784
-51.4484
-21.2782
70.5938
81.6619
93.3318
105.015
115.572
125.103
133.139
139.175
143.203
145.45
146.13
145.501
143.775
141.093
137.559
133.207
128.046
122.082
115.313
107.754
99.4473
90.4587
80.8727
70.8598
60.7516
50.9302
41.6839
33.2321
25.7626
19.4114
14.3156
10.5673
8.23922
7.3644
7.9968
10.3021
14.4147
21.395
30.9768
54.8164
42.5939
28.3616
12.759
-3.11711
-20.2194
-37.988
-55.9737
-74.3208
-92.7707
-111.198
-129.597
-147.794
-165.647
-182.964
-199.49
-214.952
-229.075
-241.545
-252.003
-260.056
-265.256
-267.416
-266.528
-262.481
-255.314
-245.302
-232.434
-216.996
-199.243
-179.19
-157.052
-133.868
-110.445
-89.4542
-72.7021
-62.629
-49.1622
-20.2809
65.968
76.4324
87.4916
98.59
108.642
117.748
125.47
131.32
135.286
137.59
138.433
138.061
136.678
134.418
131.384
127.6
123.074
117.799
111.76
104.956
97.4097
89.1634
80.2804
70.9078
61.358
51.9976
43.1026
34.8897
27.5562
21.2537
16.1312
12.2976
9.83963
8.80598
9.26241
11.3701
15.2564
21.8336
30.777
51.0458
39.4946
26.0516
11.3373
-3.59376
-19.6571
-36.3169
-53.1419
-70.281
-87.4884
-104.654
-121.786
-138.732
-155.372
-171.548
-187.038
-201.611
-215.028
-227.01
-237.224
-245.293
-250.806
-253.546
-253.48
-250.472
-244.487
-235.713
-224.1
-209.901
-193.389
-174.593
-153.754
-131.82
-109.593
-89.3969
-72.7451
-61.6048
-47.149
-19.5179
61.6017
71.5095
82.0042
92.56
102.139
110.844
118.265
123.928
127.82
130.156
131.127
130.965
129.871
127.974
125.37
122.087
118.124
113.47
108.101
102.002
95.1763
87.6471
79.455
70.7243
61.7452
52.8665
44.3512
36.41
29.2458
23.0227
17.9011
14.0043
11.4324
10.2499
10.5327
12.4384
16.0853
22.2485
30.5535
47.4824
36.552
23.8381
9.94321
-4.11743
-19.2268
-34.8669
-50.6287
-66.659
-82.7257
-98.7295
-114.691
-130.473
-145.979
-161.075
-175.574
-189.276
-201.978
-213.433
-223.334
-231.325
-237.034
-240.219
-240.83
-238.715
-233.784
-226.151
-215.732
-202.735
-187.439
-169.885
-150.329
-129.628
-108.566
-89.1493
-72.6445
-60.6085
-45.3956
-18.9835
57.4861
66.8791
76.8495
86.8992
96.034
104.359
111.491
116.969
120.778
123.126
124.196
124.208
123.357
121.77
119.54
116.693
113.229
109.133
104.374
98.9264
92.7789
85.9358
78.4165
70.3222
61.919
53.537
45.4253
37.7853
30.8216
24.7085
19.6152
15.6784
13.0098
11.6896
11.8024
13.5027
16.8987
22.6398
30.3106
44.1213
33.7668
21.7302
8.5946
-4.66291
-18.8914
-33.5929
-48.3759
-63.386
-78.4028
-93.3381
-108.218
-122.922
-137.368
-151.447
-165.001
-177.857
-189.846
-200.749
-210.29
-218.127
-223.929
-227.442
-228.598
-227.243
-223.244
-216.654
-207.359
-195.52
-181.409
-165.074
-146.78
-127.291
-107.362
-88.7131
-72.4038
-59.6415
-43.8867
-18.6705
53.6123
62.5262
72.0077
81.5832
90.3007
98.2659
105.121
110.416
114.134
116.479
117.624
117.779
117.134
115.813
113.906
111.441
108.418
104.82
100.614
95.7642
90.2488
84.056
77.1857
69.7154
61.8873
54.0119
46.3225
39.0095
32.2753
26.3013
21.2638
17.3106
14.5638
13.1182
13.0658
14.5584
17.6938
23.0078
30.0529
40.9568
31.1386
19.7318
7.30268
-5.21025
-18.6236
-32.4569
-46.3372
-60.4048
-74.4543
-88.4033
-102.284
-115.988
-129.448
-142.575
-155.23
-167.274
-178.561
-188.901
-198.044
-205.668
-211.478
-215.215
-216.801
-216.083
-212.903
-207.257
-199.012
-188.279
-175.314
-160.169
-143.11
-124.808
-105.981
-88.0917
-72.0276
-58.7052
-42.6045
-18.5659
49.9694
58.4365
67.4599
76.5903
84.9143
92.5391
99.1268
104.242
107.866
110.196
111.397
111.669
111.197
110.104
108.478
106.348
103.713
100.559
96.8503
92.5465
87.6163
82.0343
75.7835
68.9197
61.6611
54.2966
47.0432
40.0785
33.5997
27.7922
22.8373
18.8915
16.0857
14.5281
14.3166
15.6007
18.468
23.3525
29.7848
37.9819
28.6641
17.846
6.07576
-5.74667
-18.4018
-31.4307
-44.4751
-57.6727
-70.8268
-83.8647
-96.8206
-109.597
-122.14
-134.374
-146.183
-157.451
-168.055
-177.829
-186.55
-193.915
-199.662
-203.538
-205.453
-205.261
-202.789
-197.992
-190.719
-181.036
-169.172
-155.183
-139.324
-122.182
-104.424
-87.2903
-71.5212
-57.7994
-41.5301
-18.651
46.5462
54.5965
63.1899
71.9004
79.8534
87.1546
93.4857
98.4237
101.949
104.255
105.496
105.865
105.541
104.645
103.262
101.423
99.1318
96.3722
93.1094
89.3013
84.9093
79.8969
74.2329
67.9536
61.253
54.3982
47.5894
40.9899
34.7891
29.1735
24.3265
20.4117
17.567
15.9116
15.5486
16.6249
19.2187
23.6744
29.51
35.1891
26.3397
16.0727
4.91869
-6.25985
-18.2097
-30.4906
-42.7597
-55.1503
-67.477
-79.6714
-91.7711
-103.687
-115.376
-126.776
-137.79
-148.32
-158.262
-167.476
-175.761
-182.835
-188.462
-192.402
-194.559
-194.793
-192.93
-188.89
-182.51
-173.815
-163.001
-150.127
-135.429
-119.415
-102.697
-86.3156
-70.8912
-56.9228
-40.6423
-18.9024
43.3329
50.9917
59.1809
67.4958
75.0974
82.09
88.1743
92.9395
96.3663
98.64
99.9092
100.356
100.158
99.431
98.2594
96.6763
94.6868
92.2772
89.4139
86.0537
82.1535
77.6689
72.5568
66.8358
60.6771
54.3257
47.9649
41.7434
35.8394
30.4379
25.7232
21.8625
18.9985
17.2606
16.7551
17.6258
19.9435
23.9737
29.2321
32.5701
24.1609
14.4111
3.83429
-6.74224
-18.0342
-29.6177
-41.1656
-52.8073
-64.3661
-75.7784
-87.0837
-98.202
-109.097
-119.72
-129.986
-139.817
-149.126
-157.791
-165.632
-172.394
-177.855
-181.799
-184.121
-184.695
-183.349
-179.977
-174.411
-166.638
-156.822
-145.015
-131.436
-116.516
-100.805
-85.1759
-70.1438
-56.0728
-39.919
-19.2955
40.319
47.6101
55.4178
63.3578
70.626
77.3247
83.1722
87.7697
91.0967
93.3324
94.6191
95.1309
95.0395
94.4586
93.471
92.1118
90.3882
88.2888
85.7817
82.8248
79.372
75.373
70.7762
65.585
59.9483
54.09
48.176
42.3399
36.7479
31.5805
27.0196
23.2347
20.3718
18.5669
17.9291
18.5985
20.6399
24.251
28.9541
30.1173
22.1225
12.8588
2.82384
-7.18901
-17.8656
-28.7981
-39.6738
-50.6185
-61.4632
-72.15
-82.7177
-93.0946
-103.253
-113.15
-122.717
-131.888
-140.592
-148.724
-156.122
-162.556
-167.819
-171.716
-174.14
-174.978
-174.064
-171.278
-166.447
-159.529
-150.651
-139.863
-127.353
-113.49
-98.7568
-83.8791
-69.2871
-55.2447
-39.3377
-19.805
37.4943
44.4386
51.8857
59.4698
66.4216
72.8405
78.46
82.8949
86.1222
88.3161
89.6121
90.1765
90.1761
89.7218
88.895
87.7318
86.2423
84.4173
82.2278
79.6328
76.5853
73.0309
68.9119
64.2193
59.0821
53.7024
48.2297
42.7825
37.5136
32.5963
28.209
24.5205
21.6782
19.8224
19.0637
19.538
21.3053
24.5065
28.6784
27.823
20.2183
11.4133
1.88772
-7.59616
-17.6959
-28.0196
-38.2677
-48.5624
-58.7422
-68.7544
-78.6372
-88.326
-97.7976
-107.019
-115.932
-124.482
-132.611
-140.227
-147.19
-153.286
-158.326
-162.138
-164.61
-165.646
-165.091
-162.814
-158.643
-152.51
-144.509
-134.685
-123.196
-110.349
-96.5611
-82.4365
-68.3277
-54.4339
-38.8765
-20.4062
34.8485
41.4652
48.571
55.8178
62.468
68.6204
74.0208
78.2975
81.4263
83.5754
84.874
85.481
85.5581
85.2138
84.5277
83.5369
82.2537
80.6716
78.7644
76.4931
73.8109
70.6619
66.9839
62.7582
58.0948
53.1758
48.1347
43.0758
38.1369
33.4828
29.2857
25.7125
22.9094
21.019
20.152
20.4392
21.9376
24.7405
28.4071
25.6791
18.4432
10.0703
1.02557
-7.96163
-17.5197
-27.2725
-36.9345
-46.6218
-56.182
-65.5659
-74.8122
-83.8604
-92.6945
-101.286
-109.587
-117.554
-125.138
-132.26
-138.795
-144.553
-149.353
-153.047
-155.525
-156.702
-156.44
-154.602
-151.017
-145.602
-138.416
-129.497
-118.976
-107.103
-94.23
-80.8571
-67.2734
-53.6349
-38.5127
-21.0755
32.372
38.679
45.4615
52.3872
58.7503
64.6484
69.8382
73.9616
76.9931
79.0954
80.3916
81.033
81.1769
80.9281
80.3651
79.5258
78.4245
77.0572
75.4006
73.418
71.0642
68.2835
65.0105
61.2187
57.0018
52.523
47.9008
43.2254
38.6198
34.2382
30.2456
26.804
24.0576
22.1489
21.187
21.2971
22.5343
24.9536
28.1417
23.6777
16.7906
8.82642
0.235645
-8.28401
-17.3331
-26.5498
-35.6623
-44.782
-53.7639
-62.5614
-71.2149
-79.6679
-87.9079
-95.9139
-103.644
-111.064
-118.133
-124.783
-130.903
-136.322
-140.873
-144.426
-146.875
-148.146
-148.119
-146.655
-143.589
-138.824
-132.391
-124.318
-114.709
-103.764
-91.7762
-79.1526
-66.1308
-52.8396
-38.2254
-21.7898
30.0556
36.069
42.5444
49.1645
55.2542
60.9092
65.8971
69.8718
72.8079
74.8622
76.1517
76.8208
77.0217
76.8567
76.4015
75.6956
74.7547
73.5773
72.143
70.4179
68.3588
65.9106
63.0075
59.6172
55.8186
51.7574
47.5383
43.2384
38.9657
34.8626
31.0852
27.7897
25.1161
23.2046
22.1621
22.1069
23.093
25.1455
27.883
21.8113
15.2545
7.67757
-0.484206
-8.56284
-17.1322
-25.8452
-34.442
-43.0299
-51.4709
-59.7219
-67.8224
-75.7211
-83.4087
-90.869
-98.0668
-104.975
-111.558
-117.759
-123.478
-128.564
-132.862
-136.257
-138.648
-139.974
-140.132
-138.984
-136.374
-132.194
-126.45
-119.163
-110.41
-100.348
-89.2124
-77.3345
-64.9063
-52.0426
-37.9934
-22.5273
27.8903
33.6248
39.8086
46.138
51.9668
57.3892
62.1834
66.0144
68.8571
70.8624
72.1419
72.8331
73.0828
72.9912
72.6312
72.0429
71.2438
70.234
68.9965
67.5004
65.7047
63.5561
60.9896
57.9689
54.5599
50.8923
47.0581
43.1224
39.1789
35.357
31.803
28.6653
26.0787
24.1792
23.0708
22.8637
23.6111
25.3164
27.6315
20.0726
13.8291
6.61916
-1.13627
-8.79859
-16.9157
-25.1543
-33.2668
-41.3561
-49.2911
-57.0311
-64.6157
-71.998
-79.1709
-86.123
-92.8245
-99.2531
-105.38
-111.155
-116.49
-121.251
-125.293
-128.519
-130.831
-132.18
-132.479
-131.597
-129.384
-125.727
-120.613
-114.051
-106.098
-96.8695
-86.5542
-75.4141
-63.6065
-51.2366
-37.7982
-23.2687
25.8677
31.3374
37.2435
43.2958
48.8756
54.0756
58.6834
62.3762
65.1279
67.0839
68.3505
69.0589
69.3509
69.3234
69.0472
68.5628
67.889
67.0275
65.9643
64.6716
63.1109
61.2315
58.97
56.2877
53.2396
49.9406
46.4712
42.886
39.2649
35.7238
32.398
29.4274
26.9404
25.0669
23.9072
23.563
24.0863
25.4657
27.3872
18.4545
12.5084
5.64687
-1.72348
-8.99229
-16.6822
-24.4739
-32.1313
-39.7526
-47.213
-54.4755
-61.5781
-68.4786
-75.172
-81.6509
-87.8896
-93.8701
-99.5683
-104.94
-109.91
-114.355
-118.145
-121.193
-123.41
-124.757
-125.16
-124.498
-122.629
-119.438
-114.895
-108.999
-101.789
-93.3456
-83.8161
-73.404
-62.2376
-50.415
-37.6219
-23.9963
23.9794
29.1977
34.8392
40.627
45.9692
50.9563
55.3852
58.9447
61.6075
63.5144
64.7663
65.4882
65.8164
65.8449
65.6427
65.2504
64.6871
63.957
63.0481
61.9355
60.5841
58.9457
56.9599
54.5864
51.8708
48.9148
45.7889
42.5382
39.2299
35.9662
32.871
30.0743
27.6971
25.8624
24.6659
24.2002
24.516
25.5927
27.1499
16.9501
11.2866
4.75619
-2.24883
-9.14517
-16.4313
-23.8012
-31.0297
-38.2113
-45.2267
-52.0422
-58.6946
-65.1455
-71.3925
-77.4301
-83.2375
-88.7992
-94.0957
-99.0881
-103.709
-107.85
-111.392
-114.26
-116.371
-117.694
-118.171
-117.69
-116.116
-113.338
-109.31
-104.023
-97.4998
-89.7936
-81.0145
-71.3169
-60.8049
-49.572
-37.4482
-24.6932
22.218
27.1968
32.5862
38.1216
43.2368
48.0202
52.2775
55.708
58.2848
60.143
61.3784
62.11
62.4693
62.5475
62.4107
62.0997
61.6344
61.0201
60.2477
59.2949
58.1294
56.7066
54.9688
52.8759
50.4653
47.8268
45.0221
42.0883
39.0809
36.0888
33.2235
30.6051
28.3461
26.5618
25.3422
24.7714
24.8977
25.6962
26.9185
15.5528
10.1582
3.94265
-2.71544
-9.25882
-16.1632
-23.1345
-29.9591
-36.7265
-43.3243
-49.7208
-55.9522
-61.9831
-67.8137
-73.4407
-78.846
-84.0171
-88.9376
-93.5724
-97.8626
-101.713
-105.015
-107.7
-109.697
-110.98
-111.506
-111.171
-109.851
-107.436
-103.871
-99.1385
-93.249
-86.2308
-78.1656
-69.1655
-59.3152
-48.7013
-37.262
-25.345
20.576
25.3268
30.4759
35.7703
40.6684
45.2567
49.349
52.6553
55.1485
56.9584
58.1761
58.9147
59.3007
59.4223
59.3436
59.1046
58.7259
58.2143
57.5624
56.751
55.7505
54.5198
53.0047
51.1658
49.0338
46.6878
44.1815
41.5458
38.8255
36.0966
33.4585
31.0203
28.8857
27.1618
25.9323
25.273
25.229
25.7747
26.6917
14.2565
9.11781
3.20189
-3.12659
-9.33539
-15.8781
-22.473
-28.9164
-35.2943
-41.4995
-47.5031
-53.3405
-58.9793
-64.4211
-69.6649
-74.6954
-79.502
-84.0705
-88.37
-92.3483
-95.9207
-98.9906
-101.497
-103.374
-104.606
-105.158
-104.94
-103.836
-101.74
-98.5896
-94.3604
-89.0523
-82.6749
-75.2858
-66.9627
-57.7736
-47.7987
-37.0504
-25.9378
19.0465
23.58
28.4996
33.5638
38.2542
42.6557
46.5895
49.7764
52.1884
53.9505
55.1497
55.8926
56.3017
56.4617
56.4343
56.2589
55.957
55.5361
54.9906
54.304
53.4497
52.39
51.0744
49.4647
47.5861
45.508
43.2775
40.92
38.4714
35.9956
33.5796
31.3214
29.3158
27.6607
26.4333
25.702
25.5076
25.8263
26.4679
13.0553
8.16033
2.52961
-3.48546
-9.37679
-15.5769
-21.8155
-27.8992
-33.9102
-39.7461
-45.3812
-50.8494
-56.1215
-61.2007
-66.0874
-70.7684
-75.2349
-79.4744
-83.4597
-87.1442
-90.4534
-93.3008
-95.6306
-97.3872
-98.5575
-99.1199
-98.9934
-98.0717
-96.2546
-93.4742
-89.7007
-84.9249
-79.1423
-72.3908
-64.7212
-56.186
-46.8595
-36.8011
-26.459
17.623
21.9493
26.6498
31.4939
35.9857
40.2079
43.9895
47.0609
49.3945
51.1098
52.2897
53.0349
53.4635
53.657
53.675
53.5562
53.3222
52.9812
52.5297
51.9533
51.2282
50.3203
49.183
47.7798
46.1307
44.2969
42.3198
40.2202
38.0269
35.7922
33.5913
31.5111
29.6368
28.0575
26.8435
26.056
25.7315
25.8491
26.2447
11.9435
7.28082
1.92167
-3.79536
-9.38529
-15.2606
-21.1621
-26.9061
-32.571
-38.0597
-43.3484
-48.4708
-53.3998
-58.1401
-62.6936
-67.0489
-71.1983
-75.1309
-78.8221
-82.231
-85.2914
-87.9263
-90.0853
-91.7208
-92.8239
-93.3821
-93.3257
-92.5574
-90.9828
-88.5323
-85.1701
-80.8802
-75.648
-69.4956
-62.4524
-54.5583
-45.8795
-36.5037
-26.8974
16.2993
20.4278
24.919
29.5526
33.8542
37.9044
41.5397
44.5
46.7575
48.4268
49.5866
50.3325
50.7776
51.0007
51.0587
50.9898
50.8157
50.5454
50.1767
49.6974
49.0866
48.3133
47.3348
46.1168
44.6749
43.063
41.3174
39.4556
37.5001
35.4932
33.4989
31.5928
29.8508
28.3527
27.1622
26.3335
25.8989
25.8409
26.0195
10.9157
6.47457
1.37409
-4.05922
-9.36304
-14.9302
-20.5127
-25.9355
-31.2737
-36.4357
-41.3993
-46.1974
-50.8054
-55.229
-59.4715
-63.5229
-67.3768
-71.023
-74.4396
-77.5901
-80.4165
-82.8498
-84.8447
-86.3605
-87.392
-87.9356
-87.9312
-87.2909
-85.9265
-83.7687
-80.7771
-76.9302
-72.2059
-66.6138
-60.1678
-52.8961
-44.8565
-36.1491
-27.2433
15.0693
19.0092
23.2999
27.7322
31.8517
35.7371
39.2315
42.0849
44.2685
45.8927
47.0319
47.7767
48.2358
48.4846
48.578
48.5534
48.4321
48.224
47.9281
47.5342
47.0242
46.3699
45.5328
44.4804
43.2251
41.8139
40.2788
38.6347
36.8991
35.1059
33.3082
31.5707
29.9604
28.5476
27.3894
26.5337
26.0085
25.7998
25.7897
9.96699
5.73688
0.883078
-4.28018
-9.3123
-14.5869
-19.8671
-24.9864
-30.0166
-34.8708
-39.5289
-44.0227
-48.33
-52.4579
-56.41
-60.1779
-63.7562
-67.1355
-70.2959
-73.2049
-75.8115
-78.0545
-79.8927
-81.2919
-82.2503
-82.7709
-82.8034
-82.2689
-81.0861
-79.1872
-76.5287
-73.0848
-68.828
-63.7581
-57.8778
-51.2049
-43.7889
-35.7307
-27.49
13.9274
17.687
21.7863
26.0256
29.9708
33.6978
37.057
39.8069
41.9191
43.4991
44.6174
45.3597
45.8301
46.1014
46.2259
46.2402
46.1656
46.0121
45.7803
45.4615
45.04
44.4909
43.7792
42.8747
41.7867
40.5563
39.2116
37.7657
36.2322
34.6377
33.0254
31.45
29.9693
28.6446
27.5264
26.6567
26.0596
25.7239
25.5523
9.09231
5.06358
0.444835
-4.46125
-9.23507
-14.2321
-19.2258
-24.058
-28.7974
-33.3617
-37.7323
-41.9408
-45.9667
-49.8178
-53.4988
-57.0023
-60.3237
-63.4543
-66.3759
-69.0598
-71.4607
-73.5247
-75.2145
-76.5014
-77.3864
-77.878
-77.9351
-77.4874
-76.4607
-74.7902
-72.4307
-69.3522
-65.5246
-60.9398
-55.5921
-49.4908
-42.6765
-35.2441
-27.6332
12.8682
16.4558
20.3717
24.4264
28.2043
31.7795
35.0084
37.6586
39.7016
41.238
42.335
43.0735
43.5531
43.8438
43.9956
44.0441
44.0104
43.905
43.7291
43.4762
43.1325
42.6761
42.0755
41.3024
40.3641
39.296
38.123
36.8563
35.5072
34.0959
32.6572
31.2361
29.8818
28.6467
27.575
26.7032
26.0518
25.6118
25.3044
8.28701
4.45043
0.0558874
-4.60529
-9.13366
-13.8671
-18.5891
-23.1499
-27.6146
-31.9058
-36.0064
-39.947
-43.7092
-47.3014
-50.729
-53.9857
-57.0676
-59.9665
-62.666
-65.1401
-67.3493
-69.2455
-70.7954
-71.975
-72.788
-73.2469
-73.3188
-72.9415
-72.0487
-70.5789
-68.4868
-65.7393
-62.3047
-58.1686
-53.3197
-47.7601
-41.5213
-34.6876
-27.6717
11.8868
15.3096
19.0503
22.9279
26.5455
29.9747
33.0782
35.6323
37.6081
39.102
40.1775
40.9109
41.3975
41.7047
41.8803
41.9588
41.9609
41.8975
41.7707
41.5754
41.2998
40.9248
40.4222
39.7661
38.9612
38.0382
37.019
35.9139
34.7317
33.4882
32.2105
30.9351
29.7028
28.5577
27.538
26.6746
25.9852
25.4621
25.0435
7.54656
3.89347
-0.287213
-4.71507
-9.00997
-13.4931
-17.9575
-22.2616
-26.4671
-30.5007
-34.3473
-38.0364
-41.5516
-44.9016
-48.0926
-51.119
-53.9775
-56.6607
-59.1534
-61.4326
-63.4631
-65.2025
-66.6216
-67.6998
-68.4432
-68.8672
-68.9462
-68.6258
-67.8471
-66.5534
-64.6998
-62.2516
-59.1758
-55.4534
-51.0692
-46.0195
-40.3266
-34.0621
-27.6079
10.978
14.2434
17.816
21.5242
24.9878
28.2768
31.2598
33.721
35.6317
37.0838
38.1374
38.8645
39.3565
39.6776
39.8737
39.9782
40.0117
39.9848
39.9007
39.7556
39.5396
39.236
38.8197
38.267
37.5808
36.7872
35.9055
34.945
33.9132
32.822
31.6924
30.5533
29.4377
28.382
27.4185
26.573
25.8603
25.2739
24.7668
6.86676
3.38879
-0.587681
-4.79331
-8.86599
-13.1115
-17.3318
-21.3928
-25.3533
-29.1442
-32.7519
-36.205
-39.4886
-42.6121
-45.5819
-48.3935
-51.044
-53.5263
-55.8267
-57.9248
-59.7892
-61.3829
-62.6795
-63.6627
-64.3396
-64.7281
-64.8086
-64.5342
-63.8526
-62.7128
-61.0716
-58.8932
-56.1441
-52.802
-48.8488
-44.2757
-39.0972
-33.3711
-27.4464
10.1372
13.2519
16.6637
20.2093
23.5254
26.6796
29.5464
31.9178
33.7653
35.1764
36.208
36.9278
37.4233
37.7559
37.9696
38.0966
38.1571
38.162
38.115
38.0136
37.8495
37.6083
37.2678
36.8064
36.2254
35.5468
34.7875
33.9558
33.0585
32.1047
31.1102
30.0974
29.0925
28.1246
27.2202
26.4007
25.6782
25.0464
24.472
6.24349
2.93283
-0.84878
-4.8425
-8.70393
-12.7236
-16.7123
-20.5431
-24.2723
-27.8346
-31.2176
-34.449
-37.5158
-40.4274
-43.1906
-45.8016
-48.2581
-50.5535
-52.6754
-54.6051
-56.3155
-57.7738
-58.9567
-59.8513
-60.4654
-60.8188
-60.8969
-60.6595
-60.0608
-59.0555
-57.6028
-55.667
-53.2145
-50.2208
-46.6653
-42.5357
-37.839
-32.6194
-27.1932
9.35997
12.3306
15.5881
18.9779
22.1522
25.1769
27.9317
30.2166
32.0025
33.3734
34.3827
35.0942
35.5915
35.9335
36.162
36.3083
36.3922
36.4244
36.4095
36.3458
36.2268
36.04
35.766
35.385
34.8968
34.3202
33.6693
32.9521
32.1745
31.3436
30.4713
29.5745
28.6734
27.7906
26.9474
26.1606
25.4398
24.7791
24.1563
5.67289
2.52211
-1.0735
-4.86517
-8.52562
-12.3305
-16.0996
-19.7127
-23.2234
-26.57
-29.7416
-32.7649
-35.6286
-38.3419
-40.9122
-43.3362
-45.612
-47.7336
-49.6894
-51.4632
-53.0309
-54.3636
-55.441
-56.2531
-56.8087
-57.1284
-57.2016
-56.9941
-56.4663
-55.5783
-54.2926
-52.5745
-50.3906
-47.7149
-44.5252
-40.8063
-36.5583
-31.813
-26.8553
8.64218
11.4747
14.5846
17.8248