/*--------------------------------*- C++ -*----------------------------------*\
| =========                 |                                                 |
| \\      /  F ield         | OpenFOAM: The Open Source CFD Toolbox           |
|  \\    /   O peration     | Version:  2312                                  |
|   \\  /    A nd           | Website:  www.openfoam.com                      |
|    \\/     M anipulation  |                                                 |
\*---------------------------------------------------------------------------*/
FoamFile
{
    version     2.0;
    format      ascii;
    arch        "LSB;label=32;scalar=64";
    class       surfaceScalarField;
    location    "150";
    object      phi;
}
// * * * * * * * * * * * * * * * * * * * * * * * * * * * * * * * * * * * * * //

dimensions      [0 3 -1 0 0 0 0];

oriented        oriented;

internalField   nonuniform List<scalar> 
21254
(
-0.220726
0.240617
-0.0198911
0.262852
-0.0222381
0.282246
-0.0193953
0.299699
-0.0174527
0.316253
-0.0165557
0.329671
-0.0134179
0.340408
-0.0107353
0.349187
-0.00877422
0.355072
-0.00587762
0.359027
-0.00394345
0.361236
-0.00219341
0.361344
-8.82784e-05
0.359381
0.00198212
0.355105
0.00428929
0.348281
0.00682274
0.339019
0.009238
0.327063
0.0119099
0.312645
0.0143683
0.2962
0.0164232
0.279308
0.0169188
0.264199
0.0151499
0.255461
0.00873312
0.257863
-0.00244726
0.271471
-0.0136163
0.287145
-0.015669
0.297011
-0.00991711
0.297394
-0.000373182
0.291396
0.0060264
0.284319
0.00704977
0.275433
0.00888984
0.261384
0.0140081
0.238305
0.0232227
0.194776
0.0434622
0.112564
0.0819895
0.00814667
0.104412
-0.0162969
0.0259142
-0.0407058
0.0251596
-0.0696865
0.0288303
0.0475507
-0.117413
-0.197541
-0.0231868
-0.173427
-0.0241156
-0.144036
-0.0293923
-0.111972
-0.0320666
-0.0783278
-0.0336472
-0.0438083
-0.0345236
-0.0101462
-0.033669
0.020985
-0.0311431
0.0494635
-0.0284922
0.0744325
-0.0249792
0.0957723
-0.0213494
0.113805
-0.018043
0.128874
-0.0150797
0.141367
-0.0125071
0.152021
-0.0106711
0.16115
-0.00914629
0.169224
-0.00809263
0.176466
-0.00725645
0.183194
-0.00673911
0.189515
-0.00632983
0.195618
-0.00611409
0.201451
-0.00585029
0.206956
-0.00551892
0.211432
-0.004473
0.214663
-0.00321286
0.216931
-0.00226232
0.218222
-0.00130099
0.218447
-0.000222504
0.217207
0.00124724
0.214334
0.00287138
0.209793
0.00454441
0.203506
0.00626853
0.195442
0.00807947
0.185429
0.0100041
0.173061
0.0123404
0.158128
0.0149526
0.142145
0.0159501
0.150354
-0.00816027
0.172971
-0.0226616
-0.201081
0.222575
-0.0413875
0.244617
-0.0442838
0.267721
-0.0425009
0.289359
-0.0390912
0.310561
-0.037756
0.330362
-0.0332153
0.348345
-0.0287106
0.364787
-0.0252029
0.379316
-0.0203868
0.392015
-0.016616
0.402932
-0.013081
0.4124
-0.00952982
0.420948
-0.00655324
0.428802
-0.00357584
0.435821
-0.000238622
0.44161
0.00338458
0.445914
0.00755167
0.448506
0.011766
0.448328
0.0166387
0.444868
0.0204255
0.436743
0.0233056
0.423008
0.0225066
0.401057
0.0195285
0.372487
0.0149604
0.348003
0.00887665
0.332802
0.00529781
0.322859
0.00954562
0.314058
0.0148652
0.304771
0.0162862
0.295588
0.0181424
0.286745
0.0227829
0.279219
0.0307853
0.271593
0.0511552
0.234571
0.119199
0.134794
0.203612
0.0051787
0.154693
-0.0632242
0.0934799
-0.0597894
0.0250249
0.0381765
-0.215702
-0.179167
-0.0451042
-0.155705
-0.047581
-0.128249
-0.056851
-0.0992487
-0.0610716
-0.0684839
-0.0644182
-0.0363482
-0.0666693
-0.00422843
-0.0658057
0.026231
-0.0616249
0.0536927
-0.0559718
0.0781402
-0.0494424
0.0993657
-0.0425925
0.117756
-0.0364546
0.133731
-0.0310802
0.147509
-0.0263133
0.159554
-0.0227469
0.170168
-0.0197888
0.179649
-0.0175989
0.188305
-0.0159338
0.196382
-0.0148354
0.203994
-0.0139648
0.211287
-0.0134293
0.218307
-0.0128821
0.225017
-0.0122232
0.230977
-0.01042
0.235899
-0.00812267
0.23999
-0.00634363
0.243241
-0.00455959
0.245928
-0.00290411
0.248446
-0.00125243
0.25087
0.000429282
0.253211
0.00222048
0.255317
0.0041435
0.257024
0.00636796
0.258111
0.00893045
0.258222
0.0121744
0.256427
0.0167746
0.254455
0.0178907
0.237451
0.00883402
0.213551
0.00123278
-0.195257
0.217029
-0.0631611
0.238996
-0.0662551
0.262749
-0.0662551
0.284513
-0.0608569
0.305272
-0.0585143
0.325179
-0.0531193
0.342942
-0.0464664
0.358948
-0.0411966
0.372756
-0.0341759
0.384609
-0.0284441
0.394523
-0.0229666
0.402588
-0.0175689
0.408616
-0.0125657
0.413059
-0.00802537
0.415696
-0.00290998
0.417487
0.00153797
0.41845
0.0065376
0.419281
0.0109154
0.419906
0.0160319
0.420226
0.0201348
0.419623
0.0239211
0.416929
0.0252025
0.411191
0.0252435
0.400374
0.0257732
0.384088
0.0252188
0.366046
0.0233392
0.350575
0.0249968
0.337898
0.0275932
0.325676
0.028456
0.313998
0.0298725
0.302796
0.0339251
0.291369
0.0422513
0.282779
0.0597682
0.275053
0.12699
0.232379
0.246155
0.101583
0.285307
-0.018719
0.213484
-0.0428608
0.0491753
0.0289365
-0.287898
-0.173372
-0.0669932
-0.149461
-0.0714955
-0.1209
-0.0854161
-0.0912478
-0.0907292
-0.0603094
-0.0953621
-0.0282535
-0.0987326
0.0033951
-0.0974649
0.032857
-0.091099
0.0597235
-0.0828498
0.0839931
-0.0737238
0.105328
-0.0639405
0.123938
-0.0550817
0.140208
-0.0473707
0.154412
-0.0405419
0.166866
-0.0352271
0.17792
-0.0308676
0.187843
-0.0275428
0.196906
-0.0250146
0.205312
-0.0232583
0.213219
-0.0218918
0.220819
-0.021049
0.228154
-0.0202292
0.235089
-0.0191547
0.24131
-0.0166306
0.246523
-0.0133267
0.250854
-0.0106656
0.254352
-0.00806342
0.257069
-0.00561578
0.259099
-0.0032623
0.260425
-0.000913692
0.261257
0.00140441
0.26163
0.003752
0.261762
0.00623672
0.261771
0.00893306
0.261884
0.0120147
0.262009
0.016677
0.261899
0.0179805
0.251701
0.0190665
0.233846
0.0190977
-0.188179
0.21088
-0.085864
0.2337
-0.0890789
0.258827
-0.0913843
0.281796
-0.083827
0.304117
-0.0808341
0.325575
-0.0745737
0.345331
-0.0662138
0.36323
-0.0590819
0.379474
-0.0503988
0.393841
-0.0427835
0.406448
-0.035544
0.417284
-0.0283783
0.426395
-0.0216641
0.433837
-0.015478
0.439962
-0.00907687
0.444384
-0.00294524
0.447173
0.00369476
0.448068
0.0100052
0.447343
0.0167772
0.444837
0.0226665
0.440612
0.028157
0.434648
0.0311728
0.427076
0.0328074
0.418896
0.0339345
0.409593
0.0345747
0.397149
0.03576
0.382408
0.0396927
0.367785
0.0423188
0.353186
0.0429707
0.338607
0.044506
0.323741
0.0486827
0.308634
0.0574442
0.293092
0.0753032
0.285859
0.134247
0.278382
0.253584
0.19975
0.363872
0.0684192
0.344662
0.000844552
0.116711
0.0277403
-0.314606
-0.165765
-0.0894117
-0.141772
-0.095492
-0.112683
-0.114509
-0.0828566
-0.12056
-0.0517963
-0.126428
-0.0195512
-0.130986
0.011994
-0.12902
0.0411034
-0.120218
0.0676302
-0.109386
0.0916071
-0.0977112
0.112707
-0.0850541
0.131213
-0.0736041
0.147561
-0.0637385
0.162001
-0.0550046
0.174861
-0.0481109
0.186367
-0.042398
0.196828
-0.0380233
0.20642
-0.034624
0.215375
-0.0322293
0.223822
-0.0303598
0.231871
-0.029119
0.239611
-0.0279792
0.246976
-0.0265132
0.253617
-0.0232607
0.259285
-0.0189848
0.26405
-0.0154221
0.267939
-0.0119599
0.27103
-0.00870317
0.273374
-0.00558588
0.274995
-0.00255288
0.275988
0.000429104
0.276324
0.0033974
0.276075
0.00648637
0.275297
0.00972327
0.273972
0.0132882
0.272217
0.0184577
0.269524
0.0206463
0.261618
0.0269876
0.248348
0.0323623
-0.184604
0.208139
-0.109402
0.23184
-0.112785
0.258359
-0.117906
0.282075
-0.107544
0.305366
-0.104125
0.327854
-0.0970584
0.348417
-0.0867688
0.367178
-0.0778283
0.384414
-0.0676125
0.39948
-0.0578214
0.412752
-0.0487848
0.424154
-0.0397529
0.433943
-0.0314385
0.44179
-0.023337
0.447879
-0.015208
0.452202
-0.00733137
0.455003
0.000840721
0.45641
0.00858537
0.456198
0.0170139
0.454517
0.0243752
0.451008
0.0316715
0.445532
0.0366565
0.438096
0.0402482
0.429895
0.0421243
0.422134
0.042402
0.413942
0.0439382
0.405171
0.0483692
0.395581
0.0520754
0.384264
0.0541671
0.371734
0.0571429
0.357327
0.0629451
0.340949
0.0739158
0.32095
0.09528
0.303456
0.151733
0.299094
0.257931
0.266579
0.396366
0.175304
0.435843
0.0920258
0.200129
0.0405353
-0.262167
-0.161147
-0.112873
-0.136432
-0.120212
-0.106088
-0.144856
-0.0754054
-0.151248
-0.0436101
-0.158229
-0.0107187
-0.163884
0.0212693
-0.161017
0.0504769
-0.149435
0.0769055
-0.135824
0.100735
-0.121551
0.121661
-0.105993
0.140058
-0.0920169
0.156429
-0.0801282
0.170991
-0.0695887
0.184069
-0.0612131
0.195934
-0.054286
0.206769
-0.048877
0.216761
-0.0446321
0.226105
-0.0415892
0.234934
-0.039209
0.243341
-0.0375478
0.251385
-0.0360331
0.259028
-0.034149
0.265975
-0.0301958
0.271954
-0.0249565
0.277007
-0.0204663
0.281154
-0.0161136
0.284475
-0.0120216
0.287008
-0.0081011
0.288746
-0.00431203
0.289808
-0.000619102
0.290213
0.00297029
0.290026
0.00666833
0.289271
0.0104899
0.287906
0.0145971
0.285974
0.0204152
0.282524
0.0240675
0.274928
0.0346043
0.262666
0.0445969
-0.181691
0.206238
-0.133951
0.231236
-0.137789
0.259119
-0.145791
0.284014
-0.13244
0.308305
-0.128415
0.332124
-0.120873
0.35363
-0.108265
0.373635
-0.0978153
0.391838
-0.0857907
0.408116
-0.0740679
0.422698
-0.0633335
0.435397
-0.0524229
0.446421
-0.0424489
0.455753
-0.032683
0.463273
-0.0227739
0.469317
-0.0134405
0.473567
-0.00346167
0.47611
0.00603389
0.477007
0.0161482
0.475954
0.0254568
0.47282
0.034808
0.46762
0.0418717
0.460315
0.0475641
0.451648
0.0507653
0.442739
0.0513741
0.433757
0.0529466
0.424745
0.0572572
0.415743
0.0612418
0.405662
0.0641175
0.394803
0.0681292
0.382509
0.0750948
0.368507
0.0879894
0.351164
0.112597
0.331263
0.171612
0.319272
0.26994
0.305959
0.409666
0.262762
0.478983
0.196469
0.266563
0.0555609
-0.120613
-0.157271
-0.1373
-0.131734
-0.145751
-0.100075
-0.176519
-0.0682476
-0.183081
-0.0354491
-0.191034
-0.00161499
-0.197726
0.0311332
-0.193773
0.0607388
-0.179049
0.0873113
-0.162405
0.111135
-0.145385
0.131968
-0.126839
0.150229
-0.110292
0.166519
-0.0964371
0.181106
-0.0841974
0.194299
-0.0744292
0.206363
-0.0663719
0.217467
-0.0599991
0.227812
-0.0549931
0.237523
-0.051316
0.246727
-0.048433
0.255518
-0.0463604
0.263933
-0.0444586
0.271921
-0.0421289
0.279279
-0.0375421
0.285664
-0.0313353
0.291075
-0.0258682
0.295587
-0.0206309
0.299221
-0.0156527
0.302038
-0.0108982
0.304029
-0.0063208
0.30531
-0.00188395
0.305864
0.00239785
0.305763
0.00676606
0.305087
0.0111794
0.303696
0.0159313
0.301712
0.0224244
0.298127
0.0276124
0.290534
0.0422313
0.277784
0.0573123
-0.180007
0.205874
-0.159821
0.231917
-0.163837
0.261358
-0.175235
0.28751
-0.158594
0.313033
-0.153938
0.337911
-0.145746
0.360551
-0.130895
0.381376
-0.118622
0.400579
-0.104969
0.417743
-0.0911997
0.433098
-0.0786546
0.44677
-0.0660667
0.458623
-0.0542894
0.468715
-0.0427917
0.477109
-0.0312187
0.483658
-0.0200584
0.488536
-0.00839233
0.491684
0.00288042
0.493125
0.0147411
0.492703
0.0259049
0.490319
0.0371875
0.485882
0.0463219
0.479571
0.0538892
0.471694
0.0585994
0.463209
0.0599157
0.454337
0.0618591
0.445053
0.0664118
0.435619
0.0708355
0.42518
0.074432
0.414147
0.0792755
0.402097
0.0870096
0.389115
0.101042
0.374556
0.127132
0.358514
0.187627
0.34405
0.284448
0.333874
0.419811
0.317008
0.495782
0.273355
0.310174
0.138934
0.0138337
-0.154378
-0.162934
-0.127735
-0.172398
-0.0946179
-0.209641
-0.0614733
-0.216232
-0.02745
-0.225064
0.00762325
-0.232807
0.0413629
-0.227521
0.0716771
-0.209371
0.0986394
-0.189376
0.122664
-0.169419
0.143495
-0.147682
0.161677
-0.12849
0.177889
-0.112669
0.192436
-0.0987665
0.205656
-0.0876722
0.217836
-0.0785732
0.229158
-0.0713388
0.239764
-0.065615
0.249789
-0.0613574
0.259324
-0.0579884
0.268444
-0.0555026
0.277179
-0.0532033
0.285512
-0.0504515
0.293175
-0.0451931
0.299932
-0.0380874
0.305713
-0.0316401
0.310528
-0.0254501
0.314452
-0.019575
0.317504
-0.0139289
0.319702
-0.00853734
0.321127
-0.00329242
0.321796
0.00171041
0.321789
0.00676902
0.321123
0.0118615
0.319757
0.0172425
0.317703
0.0245058
0.31405
0.0312223
0.306814
0.0495148
0.293501
0.0706015
-0.178977
0.206175
-0.187022
0.233639
-0.191307
0.264751
-0.206349
0.292097
-0.185941
0.318894
-0.180735
0.345004
-0.17185
0.368643
-0.154522
0.390645
-0.140604
0.410642
-0.124939
0.428707
-0.109232
0.445075
-0.0949867
0.459581
-0.0805437
0.47229
-0.0669881
0.483314
-0.053837
0.492594
-0.0405554
0.500114
-0.0276517
0.505941
-0.0142737
0.510032
-0.00121288
0.512269
0.0125401
0.512538
0.0256561
0.510788
0.0389242
0.506916
0.050204
0.501051
0.0597765
0.493606
0.0659902
0.485364
0.0682078
0.476592
0.0706841
0.467212
0.075657
0.457495
0.0807068
0.446587
0.0852249
0.43496
0.0910026
0.422223
0.0996241
0.408713
0.114624
0.39434
0.141481
0.381156
0.200795
0.369121
0.296542
0.359648
0.429247
0.350967
0.504376
0.316158
0.344907
0.227173
0.102682
-0.152117
-0.189799
-0.124315
-0.200204
-0.0894872
-0.244473
-0.0548179
-0.250907
-0.0193533
-0.260535
0.0171048
-0.269272
0.0520877
-0.262511
0.0833025
-0.240593
0.110841
-0.216922
0.135205
-0.193793
0.156163
-0.168653
0.174323
-0.146666
0.190468
-0.128833
0.204946
-0.113267
0.218134
-0.100883
0.230386
-0.0908465
0.241819
-0.0827896
0.252621
-0.0764309
0.262885
-0.0716382
0.272707
-0.067831
0.28212
-0.064938
0.291188
-0.0622797
0.299851
-0.0591033
0.307885
-0.0532145
0.315013
-0.0452113
0.321164
-0.037782
0.326338
-0.0306272
0.330588
-0.0238231
0.333926
-0.0172452
0.336349
-0.0109795
0.337989
-0.00491682
0.338806
0.00087575
0.338901
0.00666767
0.338303
0.0124762
0.336901
0.0185871
0.334762
0.0266703
0.330954
0.0349744
0.324032
0.0564809
0.309718
0.0849199
-0.178735
0.207301
-0.215592
0.236208
-0.220218
0.269014
-0.239158
0.297741
-0.214669
0.32599
-0.208982
0.353442
-0.199295
0.378281
-0.179349
0.401155
-0.163458
0.422235
-0.14599
0.441109
-0.128072
0.458159
-0.112
0.473446
-0.0958027
0.486976
-0.0805097
0.498756
-0.0656419
0.50879
-0.050651
0.517127
-0.036065
0.523675
-0.0208762
0.528411
-0.00594709
0.531287
0.00970328
0.532159
0.0248006
0.531
0.0400613
0.527787
0.0534265
0.522586
0.0650084
0.515699
0.072817
0.507875
0.0760763
0.499353
0.0792729
0.490007
0.0848631
0.480228
0.0906351
0.469208
0.0961412
0.45727
0.103029
0.44408
0.112706
0.429946
0.12883
0.414817
0.156585
0.401713
0.213899
0.391922
0.306397
0.384685
0.436457
0.37834
0.510638
0.3467
0.3766
0.268602
0.180618
-0.150394
-0.218144
-0.121239
-0.229364
-0.0846289
-0.281089
-0.0483822
-0.287159
-0.0112633
-0.29766
0.0267932
-0.307335
0.0632631
-0.298988
0.0955514
-0.272889
0.123839
-0.245219
0.148705
-0.218669
0.169905
-0.189866
0.188139
-0.164916
0.204259
-0.144972
0.218673
-0.127703
0.231814
-0.114046
0.244041
-0.103095
0.255553
-0.094318
0.266476
-0.0873689
0.276922
-0.0821002
0.28698
-0.0779103
0.296691
-0.0746713
0.306035
-0.0716319
0.315007
-0.0680633
0.323392
-0.0615861
0.330906
-0.0527227
0.337406
-0.0442735
0.342933
-0.036157
0.347479
-0.0283683
0.351114
-0.0208585
0.353786
-0.0136711
0.355612
-0.00672805
0.356587
-0.000116381
0.356769
0.00647588
0.356227
0.013035
0.354842
0.0199167
0.352647
0.0288903
0.348665
0.0388894
0.341923
0.0632677
0.327172
0.0997029
-0.178899
0.209071
-0.245767
0.239521
-0.250673
0.274212
-0.273851
0.304392
-0.24485
0.333928
-0.238516
0.362839
-0.228198
0.388837
-0.205333
0.412832
-0.18743
0.434879
-0.168006
0.454609
-0.147766
0.472488
-0.129841
0.48862
-0.111905
0.502826
-0.094709
0.515289
-0.0781335
0.526144
-0.0615698
0.535146
-0.0451459
0.542427
-0.0282098
0.547879
-0.0113923
0.551506
0.00612072
0.553108
0.023213
0.552509
0.0406322
0.549919
0.0560255
0.545321
0.0696491
0.538958
0.0791165
0.531474
0.0835983
0.5231
0.0877268
0.513789
0.0940278
0.503959
0.100608
0.492793
0.107217
0.480672
0.115225
0.46723
0.126057
0.452737
0.143399
0.437088
0.172204
0.423077
0.22793
0.413468
0.316068
0.408268
0.441651
0.403687
0.515156
0.373496
0.40689
0.300478
0.253389
-0.149179
-0.247868
-0.118557
-0.259991
-0.0799836
-0.319666
-0.0418788
-0.325269
-0.00306243
-0.336482
0.0368424
-0.347247
0.0748686
-0.337021
0.108413
-0.306441
0.137622
-0.274436
0.163152
-0.244211
0.184711
-0.211438
0.203085
-0.183306
0.219242
-0.161148
0.23361
-0.142091
0.246687
-0.127145
0.258885
-0.115313
0.270398
-0.105847
0.281385
-0.098371
0.291984
-0.0927157
0.302228
-0.0881765
0.312136
-0.0846013
0.321768
-0.0812719
0.331053
-0.0773337
0.339771
-0.0702907
0.347635
-0.0605845
0.354521
-0.0511518
0.360383
-0.0420208
0.365276
-0.0332604
0.369198
-0.024759
0.372127
-0.0166197
0.374186
-0.00877315
0.375314
-0.00126105
0.375628
0.00614994
0.375159
0.0135207
0.373773
0.0212493
0.371498
0.0311895
0.367393
0.0429138
0.360616
0.0700815
0.346122
0.114222
-0.179636
0.211382
-0.277515
0.243412
-0.282708
0.280028
-0.310469
0.311876
-0.276698
0.343018
-0.269654
0.373392
-0.258564
0.400531
-0.232456
0.425738
-0.212613
0.448804
-0.191039
0.469457
-0.16838
0.488106
-0.148452
0.50485
-0.128621
0.519821
-0.109675
0.533087
-0.0914307
0.544492
-0.0730429
0.55422
-0.0549542
0.562171
-0.0362099
0.568354
-0.0175612
0.572573
0.0019511
0.574767
0.0210322
0.574813
0.0405504
0.572774
0.0580746
0.568781
0.0736933
0.562965
0.0848666
0.555894
0.0906986
0.547827
0.0958844
0.538589
0.103114
0.528673
0.110663
0.517445
0.118368
0.505099
0.127631
0.491434
0.139648
0.476719
0.158189
0.460876
0.188011
0.446186
0.242659
0.435588
0.32672
0.430837
0.446421
0.427312
0.518646
0.398772
0.435517
0.330737
0.321146
-0.148247
-0.279262
-0.116112
-0.29213
-0.075462
-0.360321
-0.0354188
-0.365318
0.00536082
-0.377268
0.0471476
-0.389041
0.0869574
-0.376838
0.121912
-0.341404
0.152204
-0.304735
0.17848
-0.270497
0.200532
-0.233503
0.219149
-0.20194
0.235411
-0.177429
0.249766
-0.156468
0.262789
-0.140191
0.274926
-0.12747
0.286416
-0.117353
0.297441
-0.10941
0.308098
-0.10339
0.318478
-0.0985792
0.32861
-0.0947559
0.33848
-0.0911477
0.348029
-0.0868672
0.357082
-0.0793298
0.365299
-0.0688003
0.372539
-0.0583849
0.378773
-0.0482547
0.383989
-0.0384765
0.38823
-0.0289778
0.391424
-0.0198327
0.393686
-0.0110222
0.395017
-0.00260741
0.395445
0.0057064
0.395055
0.0139284
0.393677
0.0225772
0.391358
0.0335347
0.387113
0.0470678
0.380239
0.076979
0.366306
0.128146
-0.180668
0.214208
-0.311058
0.247995
-0.316498
0.286645
-0.349122
0.320096
-0.310149
0.352843
-0.302398
0.384793
-0.290504
0.413422
-0.261069
0.439755
-0.238921
0.463882
-0.215131
0.485422
-0.189881
0.504946
-0.167937
0.522527
-0.146174
0.538088
-0.125234
0.551942
-0.105321
0.564077
-0.0852493
0.574448
-0.0654063
0.583013
-0.0448206
0.589782
-0.0243083
0.594631
-0.00284341
0.597453
0.0182222
0.598116
0.0398435
0.596711
0.0594889
0.593315
0.0771485
0.588018
0.0900941
0.581339
0.0973975
0.573543
0.10378
0.564411
0.112089
0.554512
0.120696
0.543179
0.129639
0.530673
0.140181
0.516794
0.15347
0.501826
0.173228
0.485862
0.203933
0.470842
0.257734
0.459254
0.338346
0.453683
0.452031
0.44973
0.522591
0.422702
0.462593
0.359939
0.38363
-0.147639
-0.312296
-0.113779
-0.325993
-0.0709907
-0.403114
-0.0288518
-0.407463
0.0139775
-0.420104
0.0578245
-0.432894
0.099593
-0.418613
0.136066
-0.377883
0.16755
-0.336229
0.194748
-0.297705
0.217396
-0.256165
0.236355
-0.220915
0.252755
-0.193848
0.267149
-0.170884
0.280136
-0.153199
0.29222
-0.139574
0.303651
-0.128799
0.314661
-0.120435
0.325377
-0.114122
0.335845
-0.109071
0.346118
-0.105051
0.356185
-0.10122
0.366023
-0.0966871
0.375384
-0.0886762
0.383944
-0.0773608
0.391543
-0.0659762
0.398122
-0.0548317
0.403689
-0.0440448
0.408218
-0.0334845
0.411701
-0.0233344
0.414206
-0.0135145
0.415717
-0.00413135
0.416299
0.00510486
0.415975
0.0142704
0.41463
0.0238756
0.412248
0.0359443
0.407884
0.0513357
0.400972
0.0838964
0.387619
0.141456
-0.182169
0.217424
-0.346315
0.253067
-0.352145
0.293872
-0.389928
0.329169
-0.345445
0.363662
-0.336887
0.397246
-0.324079
0.427286
-0.291091
0.454943
-0.26655
0.480122
-0.240275
0.502634
-0.212352
0.522977
-0.188242
0.541274
-0.164446
0.557622
-0.141584
0.572147
-0.119887
0.58486
-0.0980387
0.595786
-0.0764143
0.604977
-0.0540533
0.612383
-0.0316866
0.617843
-0.00824213
0.621173
0.0149014
0.622404
0.03856
0.62155
0.0603497
0.618726
0.0800366
0.613996
0.0947527
0.607812
0.103591
0.600313
0.111387
0.59135
0.120892
0.581458
0.130714
0.570077
0.140972
0.55743
0.152854
0.54338
0.167481
0.528183
0.188486
0.512023
0.220046
0.496769
0.273049
0.484485
0.350644
0.477736
0.45883
0.472232
0.52811
0.445943
0.488892
0.387883
0.441457
-0.14723
-0.347239
-0.111701
-0.361525
-0.0665469
-0.448273
-0.0222108
-0.451804
0.0228685
-0.46519
0.0689908
-0.479023
0.112743
-0.462372
0.150931
-0.416078
0.183732
-0.369038
0.211953
-0.325938
0.235296
-0.279522
0.254678
-0.240315
0.271327
-0.210517
0.285812
-0.185392
0.298786
-0.166194
0.310818
-0.151625
0.322191
-0.140187
0.33316
-0.131418
0.343866
-0.124845
0.354398
-0.119626
0.364778
-0.115454
0.375033
-0.111478
0.385094
-0.10673
0.39476
-0.0983256
0.403642
-0.0862443
0.411585
-0.0739131
0.418515
-0.0617584
0.424397
-0.049927
0.429256
-0.0383217
0.433023
-0.0271197
0.43578
-0.01626
0.437509
-0.00587075
0.438229
0.00436076
0.438009
0.0145086
0.436683
0.0251589
0.434277
0.0383828
0.429818
0.0556996
0.42282
0.0908805
0.410076
0.154134
-0.183898
0.221097
-0.383515
0.258701
-0.389752
0.3018
-0.433028
0.338982
-0.382626
0.375254
-0.373154
0.410591
-0.359405
0.44217
-0.322651
0.471134
-0.295485
0.497534
-0.266638
0.52103
-0.235807
0.542321
-0.209495
0.561383
-0.183485
0.578416
-0.158624
0.593583
-0.135101
0.606807
-0.111343
0.618373
-0.0880638
0.628145
-0.0638625
0.636101
-0.039607
0.642161
-0.0142369
0.646099
0.0109713
0.647854
0.036743
0.647578
0.0606299
0.64533
0.082354
0.641118
0.098892
0.635351
0.109354
0.628179
0.118674
0.61942
0.129489
0.609606
0.140646
0.598216
0.152328
0.585446
0.16563
0.571232
0.181673
0.555835
0.203929
0.539472
0.236357
0.523973
0.288605
0.511144
0.36346
0.503332
0.466688
0.495857
0.535616
0.46952
0.515202
0.415069
0.495766
-0.147171
-0.383969
-0.109608
-0.399091
-0.0620659
-0.495819
-0.0153529
-0.498523
0.0320527
-0.512601
0.0805205
-0.527497
0.126543
-0.508401
0.166534
-0.456076
0.200818
-0.403331
0.230165
-0.355296
0.254307
-0.30368
0.274184
-0.26021
0.291137
-0.22749
0.305752
-0.200029
0.318745
-0.179208
0.330751
-0.16365
0.34207
-0.151521
0.352963
-0.142325
0.363643
-0.135542
0.374202
-0.130209
0.384664
-0.125937
0.39505
-0.121867
0.405333
-0.116992
0.415264
-0.10824
0.424451
-0.0954339
0.432723
-0.0821798
0.439995
-0.069025
0.446225
-0.0561578
0.451403
-0.0434783
0.455461
-0.0311958
0.458469
-0.0192566
0.460403
-0.00781162
0.461289
0.00344596
0.461171
0.014643
0.45989
0.026403
0.457446
0.0408626
0.452916
0.0601408
0.445928
0.0978402
0.43374
0.166243
-0.185923
0.225223
-0.422817
0.26485
-0.429382
0.310358
-0.478536
0.349494
-0.42176
0.387693
-0.411348
0.424974
-0.396673
0.458076
-0.355733
0.488476
-0.325854
0.516221
-0.294344
0.540808
-0.260351
0.562973
-0.231622
0.582863
-0.203355
0.600508
-0.176279
0.616322
-0.150967
0.630261
-0.125367
0.642359
-0.100246
0.652694
-0.0742317
0.661182
-0.0480514
0.667689
-0.020672
0.672143
0.00652246
0.674457
0.0343603
0.674669
0.0604182
0.672971
0.0841255
0.66929
0.102501
0.663988
0.114642
0.657217
0.125564
0.648644
0.1379
0.638928
0.150471
0.627602
0.163636
0.614747
0.178469
0.600426
0.19599
0.584829
0.219552
0.568332
0.252802
0.552533
0.304448
0.539139
0.376817
0.530373
0.475482
0.521139
0.544888
0.494287
0.541999
0.442447
0.547568
-0.147193
-0.422703
-0.107742
-0.438545
-0.0575408
-0.546025
-0.0083376
-0.547731
0.0415656
-0.56251
0.0926094
-0.578546
0.140938
-0.556735
0.182919
-0.498065
0.218745
-0.439167
0.249369
-0.385932
0.274388
-0.328714
0.294884
-0.280725
0.31221
-0.244837
0.327023
-0.214865
0.340089
-0.192294
0.352068
-0.175647
0.363321
-0.162788
0.374167
-0.153184
0.384795
-0.146188
0.395334
-0.140771
0.405841
-0.136464
0.416354
-0.132382
0.426819
-0.127435
0.43699
-0.118394
0.446482
-0.10493
0.455064
-0.0907583
0.462667
-0.0766199
0.469214
-0.062706
0.474711
-0.0489546
0.479053
-0.0355545
0.482331
-0.0225242
0.484507
-0.00999134
0.485544
0.00237521
0.485555
0.0146471
0.484332
0.0275921
0.481864
0.0433716
0.477286
0.0646425
0.470273
0.104815
0.458668
0.177764
-0.188294
0.229753
-0.464277
0.271509
-0.47114
0.319529
-0.526554
0.360729
-0.462957
0.401039
-0.45165
0.440269
-0.435889
0.47507
-0.390511
0.507019
-0.35777
0.536052
-0.323336
0.561725
-0.285981
0.584871
-0.25473
0.605619
-0.224085
0.624108
-0.194783
0.640527
-0.167442
0.655022
-0.139951
0.667669
-0.112978
0.67852
-0.085112
0.687528
-0.057008
0.694638
-0.0277042
0.699563
0.00160259
0.702324
0.0315251
0.703085
0.0596535
0.701877
0.0854118
0.698697
0.105612
0.693826
0.119489
0.687423
0.132091
0.679135
0.146028
0.669553
0.160153
0.658276
0.17491
0.645376
0.191333
0.630988
0.210394
0.615255
0.235288
0.59859
0.269424
0.582497
0.320564
0.568545
0.390711
0.55883
0.485198
0.548065
0.555694
0.520718
0.569268
0.470957
0.597391
-0.147402
-0.463598
-0.105806
-0.480144
-0.0528983
-0.598937
-0.00106113
-0.599573
0.051496
-0.615072
0.105237
-0.632292
0.156075
-0.60758
0.200144
-0.542141
0.237683
-0.476716
0.269645
-0.417907
0.295672
-0.354757
0.316829
-0.301902
0.334592
-0.26262
0.34966
-0.229954
0.362832
-0.205487
0.374831
-0.187663
0.386037
-0.174007
0.39681
-0.163971
0.407377
-0.156773
0.417891
-0.151308
0.428409
-0.147004
0.438992
-0.142965
0.449618
-0.138037
0.460039
-0.128796
0.469786
-0.114683
0.478658
-0.0996274
0.486575
-0.0845275
0.493444
-0.0695752
0.499256
-0.0547471
0.503908
-0.040223
0.507452
-0.0260585
0.509841
-0.0123799
0.511081
0.00109709
0.511206
0.0145338
0.510054
0.0287127
0.50758
0.045891
0.502963
0.0692
0.495989
0.11175
0.484974
0.188696
-0.190871
0.234551
-0.507958
0.278633
-0.515224
0.329329
-0.577248
0.37276
-0.506383
0.415224
-0.494105
0.456485
-0.477134
0.493133
-0.427134
0.526684
-0.391286
0.557091
-0.3537
0.583986
-0.31283
0.608248
-0.278954
0.629836
-0.245656
0.649068
-0.214034
0.666187
-0.184623
0.681252
-0.155108
0.694466
-0.126276
0.705824
-0.0964945
0.71536
-0.0664849
0.722898
-0.0351577
0.728336
-0.0038301
0.731554
0.028228
0.732749
0.0584518
0.73206
0.0861843
0.729358
0.108251
0.724956
0.123856
0.718917
0.138255
0.710904
0.153886
0.701487
0.169658
0.690298
0.186111
0.677408
0.204169
0.662978
0.22486
0.647127
0.251119
0.630348
0.286173
0.613976
0.336936
0.599466
0.405152
0.588678
0.495955
0.57658
0.567833
0.548955
0.596806
0.501109
0.645379
-0.147755
-0.506717
-0.103946
-0.523956
-0.048166
-0.654721
0.0065062
-0.65425
0.0618453
-0.670416
0.118407
-0.688859
0.171961
-0.66114
0.218231
-0.588419
0.257614
-0.51611
0.291032
-0.451338
0.318122
-0.381863
0.340034
-0.323833
0.358324
-0.280933
0.373699
-0.245351
0.387022
-0.218829
0.399082
-0.199739
0.410265
-0.185205
0.420979
-0.174698
0.431477
-0.167289
0.441931
-0.161787
0.452454
-0.157547
0.463089
-0.153599
0.473847
-0.148768
0.484453
-0.139384
0.494441
-0.12468
0.503603
-0.108788
0.511817
-0.0927296
0.519008
-0.0767661
0.525115
-0.060837
0.530065
-0.0451891
0.533879
-0.0298627
0.536529
-0.0150252
0.537944
-0.000360272
0.538196
0.0142892
0.537133
0.0297451
0.534658
0.0484152
0.530055
0.0737615
0.523113
0.118658
0.512637
0.199096
-0.193759
0.239839
-0.55404
0.286358
-0.561744
0.339743
-0.63063
0.385629
-0.552264
0.430262
-0.53873
0.473783
-0.520639
0.512276
-0.4656
0.547534
-0.426509
0.579472
-0.385593
0.607662
-0.340973
0.632899
-0.304154
0.655503
-0.268245
0.675479
-0.234034
0.693288
-0.2025
0.709054
-0.170969
0.722778
-0.140085
0.734682
-0.108417
0.744688
-0.0764242
0.752736
-0.0431158
0.758589
-0.00967661
0.762235
0.0244996
0.763916
0.0567615
0.763629
0.0865591
0.76139
0.110436
0.75739
0.127814
0.751725
0.144045
0.744027
0.161437
0.734806
0.178956
0.723789
0.197154
0.710916
0.216971
0.696483
0.23935
0.680533
0.267027
0.663651
0.303047
0.647027
0.353537
0.631923
0.420188
0.620076
0.507737
0.606668
0.581278
0.578916
0.624479
0.53307
0.691419
-0.148301
-0.552177
-0.10211
-0.57015
-0.0432455
-0.713589
0.0143406
-0.71184
0.0726765
-0.728756
0.132261
-0.748449
0.18857
-0.717456
0.237275
-0.637132
0.278581
-0.557427
0.313603
-0.486374
0.341867
-0.410145
0.364617
-0.346603
0.383483
-0.29982
0.39922
-0.26111
0.412752
-0.23238
0.424877
-0.21188
0.436079
-0.19642
0.446729
-0.185362
0.457155
-0.177734
0.467549
-0.172204
0.478044
-0.168061
0.488712
-0.164263
0.499582
-0.15961
0.510368
-0.150151
0.520583
-0.134904
0.529986
-0.118191
0.538476
-0.101205
0.545949
-0.0842379
0.552368
-0.0672409
0.5576
-0.0504369
0.561698
-0.0339524
0.564578
-0.0178944
0.566207
-0.00203593
0.566625
0.013874
0.565623
0.0307136
0.563207
0.050882
0.5586
0.0783448
0.551772
0.125466
0.541842
0.208959
-0.196874
0.245481
-0.602648
0.294473
-0.610736
0.350914
-0.687069
0.399115
-0.600459
0.446259
-0.585864
0.492042
-0.566404
0.53263
-0.506162
0.569615
-0.463456
0.603126
-0.419058
0.632638
-0.370439
0.659136
-0.330615
0.682654
-0.291752
0.703546
-0.254953
0.722085
-0.22111
0.738452
-0.187436
0.752767
-0.154484
0.76516
-0.120824
0.775619
-0.0868097
0.784067
-0.0514673
0.790362
-0.0159651
0.794462
0.0203151
0.796482
0.0547293
0.796626
0.0865079
0.794836
0.11218
0.79124
0.131361
0.785986
0.149421
0.7786
0.168682
0.769582
0.18804
0.758703
0.208072
0.745923
0.229668
0.731525
0.253823
0.715513
0.282978
0.698555
0.320027
0.681663
0.370389
0.666045
0.435752
0.653095
0.520599
0.638399
0.596006
0.610649
0.652168
0.566843
0.735437
-0.148946
-0.600106
-0.10025
-0.618847
-0.0381665
-0.775675
0.0224955
-0.772505
0.0839781
-0.790243
0.14676
-0.811236
0.206085
-0.776787
0.257279
-0.688336
0.30067
-0.60083
0.33736
-0.523079
0.366903
-0.439706
0.390578
-0.3703
0.410088
-0.319352
0.426262
-0.277305
0.440043
-0.24618
0.452297
-0.224149
0.463513
-0.20765
0.474135
-0.195998
0.484492
-0.188111
0.494842
-0.182578
0.505281
-0.178518
0.515974
-0.17495
0.526919
-0.170525
0.537862
-0.161074
0.548278
-0.145332
0.557896
-0.127811
0.566664
-0.109957
0.574414
-0.091986
0.581095
-0.0739092
0.586641
-0.0559982
0.590998
-0.0383014
0.594137
-0.0210184
0.595951
-0.0038986
0.596523
0.0132997
0.595653
0.0315459
0.593263
0.0533211
0.588723
0.082876
0.581982
0.132205
0.572596
0.218288
-0.200269
0.251496
-0.653875
0.30316
-0.662399
0.362651
-0.746557
0.413564
-0.651367
0.463149
-0.635439
0.511451
-0.614688
0.554054
-0.548737
0.592981
-0.502344
0.628179
-0.45421
0.659162
-0.401376
0.686824
-0.358242
0.711473
-0.316393
0.733226
-0.276738
0.752534
-0.240495
0.76952
-0.204524
0.784448
-0.169495
0.797325
-0.133712
0.808242
-0.0976471
0.817161
-0.0602861
0.823829
-0.0226257
0.82828
0.0157782
0.830693
0.0522996
0.83122
0.086078
0.829826