/*--------------------------------*- C++ -*----------------------------------*\
| =========                 |                                                 |
| \\      /  F ield         | OpenFOAM: The Open Source CFD Toolbox           |
|  \\    /   O peration     | Version:  2312                                  |
|   \\  /    A nd           | Website:  www.openfoam.com                      |
|    \\/     M anipulation  |                                                 |
\*---------------------------------------------------------------------------*/
FoamFile
{
    version     2.0;
    format      ascii;
    arch        "LSB;label=32;scalar=64";
    class       volScalarField;
    location    "150";
    object      turbulenceProperties:I;
}
// * * * * * * * * * * * * * * * * * * * * * * * * * * * * * * * * * * * * * //

dimensions      [0 0 0 0 0 0 0];

internalField   nonuniform List<scalar> 
10720
(
0.00470127
0.00436055
0.00440961
0.00449586
0.00465247
0.00486746
0.00515522
0.00552442
0.00601134
0.00666721
0.00756007
0.00882208
0.0106254
0.0133522
0.0176736
0.0250758
0.0363944
0.0555744
0.083565
0.115881
0.156307
0.21034
0.295045
0.389481
0.469948
0.531869
0.719627
0.919279
0.795345
0.540027
0.322144
0.133698
0.0640695
0.0293985
4.22942e-09
0.01761
0.132194
0.351568
0.927401
0.00592241
0.0064066
0.006119
0.00700032
0.00856865
0.0153707
0.0279427
0.0433518
0.0271143
0.0176205
0.0142243
0.01324
0.0133453
0.0144672
0.0161338
0.0200139
0.0228877
0.0342432
0.0401072
0.043727
0.0487117
0.057568
0.0667696
0.0774292
0.0883982
0.0987914
0.0941909
0.0736185
0.0474938
0.0248773
0.0087233
0.00139419
1.13922e-09
1.19309e-09
0.00237445
0.0197153
0.00274416
0.0674862
0.47344
0.00251412
0.00263841
0.00232744
0.00213916
0.00195155
0.00176758
0.00161129
0.00147484
0.00136682
0.00128119
0.00122054
0.00116431
0.00125473
0.00161626
0.00232271
0.00362858
0.00576995
0.00936305
0.0152771
0.0238891
0.0348882
0.0488108
0.0645156
0.105108
0.188335
0.251919
0.424793
0.601147
0.567832
0.455702
0.324578
0.202475
0.108452
0.0405182
0.00770456
0.00844474
0.0597782
0.293253
1
0.000592235
0.00281176
0.0034644
0.00548928
0.00706555
0.00701344
0.00623835
0.00645749
0.00574716
0.00441579
0.00343029
0.00322217
0.00259804
0.00593614
0.00664209
0.00830923
0.00962373
0.00269902
0.0051755
0.0188513
0.0213403
0.0127819
0.0128959
0.034449
0.0119088
0.0172178
0.00741133
0.00963169
0.00212077
0.00536564
0.00519422
0.000820654
9.37585e-10
9.3231e-10
0.000408261
0.00306309
0.000398343
0.0184482
0.184134
0.00172241
0.00103624
0.00121605
0.00114729
0.00113941
0.00113333
0.00112298
0.00111169
0.00110092
0.00109354
0.0010903
0.0010934
0.00110405
0.00100833
0.00128168
0.00185876
0.00280597
0.00452567
0.00743723
0.0117107
0.0170769
0.0236409
0.0306252
0.0506832
0.0804353
0.134645
0.260103
0.379844
0.374324
0.333914
0.265933
0.191459
0.119043
0.0538429
0.016305
0.00445001
0.174825
0.386758
1
0.00277043
0.00443375
0.00500001
0.00450838
0.00283153
0.0026753
0.00254784
0.00272288
0.00265937
0.00233044
0.00197889
0.00184639
0.000473674
0.00123776
0.00105986
0.000972425
0.000901781
0.00146259
0.00242849
0.000942626
0.000937141
0.00582855
0.00593755
0.000867617
0.00558378
0.00807977
0.00357437
0.00148963
0.00126382
0.00267896
0.00262427
0.000680459
0.000640905
0.000577711
0.000459392
0.00158441
9.69603e-10
0.0118051
0.107461
0.00341664
0.00312575
0.0028864
0.00264999
0.00249728
0.00236892
0.00225047
0.00214761
0.00206091
0.00198814
0.00192736
0.00187952
0.00184351
0.00181239
0.00178764
0.00177075
0.00168148
0.00125062
0.000687083
5.99272e-10
6.03957e-10
6.10989e-10
6.20697e-10
0.00677324
0.0317849
0.00121987
0.000477157
0.000769696
0.000997498
0.00161477
0.00417262
0.0193309
0.0486489
0.0484007
0.0295733
0.00655511
0.0312271
1
1
0.00410569
0.00354114
0.0018725
0.00187628
0.00203393
0.00273755
0.00440075
0.00476794
0.00470035
0.00430809
0.00382146
0.0034747
0.00301055
0.00262648
0.00245125
0.00230816
0.00221601
0.00217307
0.0022069
0.00222834
0.00218904
0.00218094
0.00213818
0.00196421
0.00194344
0.00181498
0.00163277
0.00161785
0.00153652
0.00152842
0.00150344
0.00145308
0.00136343
0.00122643
0.000975157
0.000672978
9.13459e-05
0.00985343
0.0844038
0.00320082
0.00280303
0.00255542
0.0023319
0.00214937
0.00200527
0.00186003
0.0017361
0.00164824
0.0015837
0.00153917
0.00150705
0.00148672
0.0014813
0.00148714
0.00150492
0.00154488
0.00159656
0.00147397
0.000529312
0.000380367
6.28773e-10
6.37945e-10
6.50146e-10
0.0148449
0.000571002
0.00022152
0.000353974
0.00045612
0.000735545
0.00189754
0.00881264
0.022321
0.000108992
0.0212016
0.0161025
0.01684
0.26481
0.455763
0.00218664
0.00154986
0.00150601
0.00235479
0.00426275
0.00542775
0.00612332
0.00653872
0.0066024
0.00634236
0.00591241
0.00545103
0.00504878
0.00473821
0.00440156
0.00407879
0.00386892
0.00369623
0.00354138
0.00339547
0.00325765
0.00312683
0.00300472
0.00289349
0.00279643
0.00271222
0.00263938
0.00257661
0.00252078
0.00247089
0.0024224
0.00236869
0.00230965
0.00225584
0.00213381
0.00213075
0.000296432
0.00855529
0.0708074
0.000857083
0.00113322
0.000720253
0.000311686
0.000865108
0.000824209
0.000782941
0.000741936
0.000725037
0.000731788
0.000721476
0.000705616
0.000704592
0.000708979
0.000717671
0.00073286
0.000160905
0.000473039
0.000694837
0.00085325
0.000895191
0.000505461
0.000440683
6.52647e-10
6.65863e-10
6.79856e-10
6.94095e-10
7.08813e-10
7.25042e-10
7.43762e-10
7.65786e-10
7.92278e-10
8.25728e-10
5.02874e-05
1.91016e-05
6.43263e-05
0.000248264
0.00242411
0.000897039
0.00125202
0.00153723
0.00319793
0.0039588
0.00416099
0.00409876
0.00437808
0.00466408
0.00480056
0.00477497
0.00463757
0.00445071
0.00425778
0.00407574
0.00393686
0.00382649
0.00372381
0.00360471
0.00348389
0.00336689
0.00325421
0.00314634
0.00304271
0.00294513
0.00285638
0.00277743
0.00270757
0.00264551
0.00259011
0.00254075
0.00249826
0.00244814
0.00240796
0.0024052
0.00233233
0.00236276
0.000336697
0.00701013
0.0565713
0.000621321
0.000903508
0.00107188
0.00108897
0.00108333
0.00106606
0.00105672
0.000995311
0.00101109
0.00111426
0.00108788
0.00101563
0.000999774
0.000984795
0.000972931
0.000965084
0.000958333
0.00093359
0.000921725
0.000963261
0.00105211
0.00106642
0.00102816
0.000708952
0.000400664
1.10486e-05
6.98643e-10
7.13458e-10
7.29833e-10
7.48376e-10
7.69526e-10
7.93705e-10
8.22214e-10
8.54088e-10
8.89702e-06
3.09287e-05
9.5627e-10
0.000933786
0.000323583
0.00243651
0.00325464
0.00332594
0.00268046
0.00191657
0.00125248
0.00127784
0.00141061
0.00157085
0.00170927
0.00181824
0.00190592
0.0019824
0.00204378
0.00210242
0.0021872
0.00222021
0.00218713
0.00212591
0.00205778
0.00198297
0.00190617
0.00182909
0.00176214
0.00170433
0.00165422
0.00161125
0.00157441
0.00154297
0.00151613
0.00149568
0.00149637
0.00151746
0.00156728
0.00160477
0.00184791
0.000269692
0.00507409
0.0398746
0.00271287
0.0025311
0.0024227
0.00234184
0.00222793
0.0021131
0.0020394
0.00197082
0.00190056
0.00184014
0.00179366
0.00175085
0.00171598
0.00168832
0.00166262
0.00164043
0.00162597
0.00161089
0.00157377
0.001527
0.00149633
0.00149401
0.00150678
0.00153458
0.000917307
2.50435e-05
5.61801e-06
7.16711e-10
7.32985e-10
7.51593e-10
7.72972e-10
7.97359e-10
8.2535e-10
8.54063e-10
8.84483e-10
9.07066e-10
9.32044e-10
2.08923e-08
1.81168e-07
0.00301904
0.00251395
0.00119141
0.00103033
0.000974907
0.000938438
0.000994889
0.00104514
0.00108282
0.00110564
0.00111111
0.00110884
0.00110676
0.00110424
0.00110628
0.00112144
0.00113952
0.00111545
0.00107155
0.00104657
0.00101948
0.000975459
0.00095265
0.00095055
0.000929915
0.000911614
0.000895915
0.000882517
0.000871183
0.000861593
0.000854327
0.000871011
0.000871608
0.00086057
0.000872479
0.000585106
0.000362293
0.00290743
0.0222526
0.00247847
0.00224242
0.00206926
0.00192505
0.00181157
0.00170333
0.00161054
0.00153323
0.00147053
0.00142124
0.00138332
0.00134909
0.00133622
0.00134465
0.00133989
0.00133746
0.00135511
0.00138703
0.00143042
0.00146484
0.00149122
0.00151137
0.00153553
0.00155391
0.00168908
9.01096e-05
2.05817e-05
7.20443e-10
7.36193e-10
7.54306e-10
7.75309e-10
7.99556e-10
8.27491e-10
8.56827e-10
8.82569e-10
8.96481e-10
9.16613e-10
9.41813e-10
8.38671e-08
0.0016588
0.00105933
0.000826414
0.000166436
0.00185947
0.00211388
0.00222881
0.00230314
0.00232916
0.00231385
0.00226406
0.00218819
0.00209656
0.00199934
0.00190315
0.00180877
0.00177783
0.00165723
0.00149116
0.00141981
0.00135556
0.00122608
0.0011973
0.00124612
0.00120941
0.00117609
0.00114636
0.00111994
0.00109652
0.00107568
0.00105656
0.00109931
0.00105164
0.000904364
0.000846799
0.000786397
0.000745485
0.00111859
0.00829771
0.000917288
0.000969688
0.000665105
0.000435053
0.000154608
0.000648156
0.000622836
0.000606926
0.000594608
0.000584279
0.000578443
0.000573394
0.00057553
0.000586108
4.70608e-05
0.000278747
0.0004132
0.000518602
0.000651828
0.000837412
0.00100972
0.00113141
0.00124105
0.0012812
0.00157766
0.000128085
2.97805e-05
7.24402e-10
7.39657e-10
7.57219e-10
7.7761e-10
8.0122e-10
8.28433e-10
8.577e-10
8.84151e-10
8.94224e-10
9.07033e-10
9.26914e-10
1.04562e-09
0.00081524
0.00101224
0.00191666
0.0026206
0.00290583
0.00302768
0.00314554
0.00324119
0.00329703
0.00331195
0.00329034
0.00323886
0.00316526
0.00307637
0.00297779
0.00287398
0.00276897
0.00267755
0.00258508
0.00249445
0.00240724
0.00232426
0.00223744
0.00215824
0.00208713
0.00202429
0.00196904
0.00192035
0.0018772
0.00183895
0.0018058
0.00177699
0.00173411
0.0016744
0.00157086
0.00148651
0.00147729
0.000549214
0.00403222
0.000858404
0.000712436
0.000686599
0.000653745
0.000242285
0.000399372
0.000480387
0.000534831
0.000570747
0.000591869
0.000604202
0.000611779
0.000615727
0.000618486
0.00062243
0.000630722
0.000644733
0.000651796
0.000648256
0.000699549
0.000799661
0.000903389
0.00102225
0.00106927
0.00138371
0.000173589
4.10716e-05
7.28581e-10
7.43337e-10
7.60363e-10
7.80148e-10
8.03024e-10
8.29266e-10
8.57438e-10
8.84506e-10
8.95846e-10
9.04046e-10
9.20646e-10
1.02527e-09
0.00137819
0.0022504
0.00242479
0.00230089
0.00225894
0.00231715
0.00238737
0.00245791
0.0025129
0.00254803
0.00256324
0.00256107
0.00254155
0.00250188
0.00244274
0.00237418
0.00230205
0.00222796
0.00215287
0.00207863
0.00200652
0.00193727
0.0018714
0.00180984
0.00175372
0.00170338
0.00165872
0.00161929
0.00158453
0.00155411
0.00152757
0.00150775
0.00149785
0.00148973
0.00147906
0.00145239
0.00148442
0.00106497
0.0001599
0.001815
0.00176787
0.0017567
0.00174707
0.00173519
0.0017189
0.00169528
0.00166754
0.00163758
0.00160648
0.00157559
0.0015457
0.00151727
0.00149089
0.00146691
0.00144567
0.00142759
0.00143833
0.00141192
0.00133345
0.00128481
0.00124741
0.00123961
0.00120074
0.00138672
0.00026858
6.46439e-05
7.32937e-10
7.47168e-10
7.63649e-10
7.82836e-10
8.05002e-10
8.3031e-10
8.57221e-10
8.83653e-10
8.97401e-10
9.05201e-10
9.21176e-10
1.01236e-09
0.00226551
0.00212124
0.00159191
0.000887224
0.000537529
0.000556282
0.000554966
0.000575001
0.00061809
0.000676219
0.000734095
0.000787878
0.000818897
0.000830657
0.000826234
0.000817317
0.000809477
0.000795745
0.000774492
0.000750872
0.000726594
0.000701788
0.000677114
0.000654264
0.000634378
0.000617194
0.000602652
0.00059068
0.000581352
0.000574682
0.000569082
0.00056558
0.000599185
0.000673567
0.000764651
0.000860722
0.000974834
0.00111354
0.000182746
0.00213271
0.00195881
0.00187141
0.00180057
0.00173184
0.00167033
0.00161721
0.00157017
0.00152949
0.00149488
0.00146547
0.00144086
0.00142075
0.00140543
0.00139407
0.00138672
0.00138577
0.00138536
0.00140118
0.001424
0.00141203
0.00138081
0.00136425
0.00131436
0.00142925
0.000419683
0.000102724
7.3749e-10
7.51164e-10
7.67071e-10
7.85636e-10
8.07087e-10
8.31496e-10
8.57319e-10
8.82657e-10
8.97911e-10
9.07347e-10
9.2536e-10
1.00544e-09
0.00173869
0.00086659
0.000661128
0.000556912
0.000526345
0.000541757
0.000561498
0.000574788
0.000584531
0.000592559
0.000594978
0.000595464
0.000593418
0.000587919
0.000580383
0.000573279
0.000567021
0.000560307
0.000552314
0.000543966
0.000535465
0.000526875
0.000518282
0.000509782
0.000501404
0.000493634
0.00048688
0.00048114
0.000476425
0.000472742
0.000468875
0.000466313
0.000471547
0.000481526
0.000505988
0.000515734
0.00052893
0.000479035
0.000137209
0.00120864
0.00117135
0.00104215
0.000959151
0.000883266
0.000820517
0.000774062
0.000740343
0.000719003
0.000708343
0.000705882
0.000710277
0.000720706
0.000738622
0.000758706
0.000781483
0.000820486
0.000865975
0.000910367
0.000979443
0.00106056
0.00112646
0.00118428
0.00119754
0.00133845
0.000592129
1.82915e-07
4.41527e-08
7.55329e-10
7.70639e-10
7.88554e-10
8.09268e-10
8.32775e-10
8.57621e-10
8.81969e-10
8.97924e-10
9.09014e-10
9.30059e-10
1.00231e-09
0.000748753
0.00047844
0.000725386
0.00118645
0.00125994
0.00127064
0.00131471
0.00134977
0.00136776
0.00137167
0.00136556
0.00135164
0.00133226
0.00130925
0.00128329
0.00125486
0.00122501
0.00119432
0.00116282
0.0011312
0.0010999
0.00106916
0.0010393
0.00101081
0.000984188
0.000959651
0.000937292
0.000917079
0.000898868
0.000882578
0.00086592
0.000852106
0.000832724
0.000790163
0.000765422
0.000673189
0.00050601
0.000514669
0.000580569
0.000447516
0.000443782
0.000437462
0.000427031
0.000419872
0.000415135
0.000405652
0.00039985
0.000395554
0.000391641
0.000390594
0.000391135
0.000393413
0.000398663
0.000405074
0.000412932
0.000426914
0.000450918
0.000465923
0.000483849
0.000204948
0.000486818
0.000680595
0.000797875
0.00101705
0.000676513
1.17337e-06
2.88049e-07
7.59669e-10
7.74361e-10
7.91605e-10
8.11558e-10
8.34155e-10
8.58049e-10
8.81563e-10
8.97965e-10
9.10233e-10
9.33685e-10
1.00065e-09
0.000600786
0.00102186
0.00162703
0.00180284
0.00184274
0.00188345
0.00193009
0.00197274
0.00199963
0.00201149
0.00201202
0.00200357
0.00198777
0.00196603
0.0019394
0.00190843
0.0018737
0.00183602
0.00179601
0.00175427
0.00171146
0.00166816
0.0016249
0.00158242
0.00154178
0.00150376
0.00146869
0.00143666
0.00140758
0.00138136
0.00135265
0.00133252
0.00130149
0.00126795
0.00124344
0.00117942
0.00110703
0.000979555
0.000879455
0.000357191
0.00039296
0.000540892
0.000657886
0.000710976
0.000748988
0.00076832
0.000776495
0.000777347
0.000772611
0.000764609
0.000754643
0.000743403
0.000731741
0.000720015
0.000708262
0.000698477
0.000718637
0.000700099
0.000634915
0.000591344
0.00057564
0.000614825
0.000665545
0.000799066
0.000735366
2.84021e-06
7.08976e-07
7.6418e-10
7.78238e-10
7.94792e-10
8.13967e-10
8.35654e-10
8.58606e-10
8.81346e-10
8.98162e-10
9.11405e-10
9.36114e-10
9.98925e-10
0.00136564
0.00170288
0.00160582
0.00137936
0.00137647
0.00142013
0.00145032
0.00148147
0.0015041
0.00151633
0.0015217
0.00152211
0.00151797
0.00150962
0.00149733
0.00148142
0.00146204
0.0014396
0.00141437
0.00138683
0.00135744
0.00132667
0.00129508
0.00126345
0.00123278
0.0012038
0.00117692
0.0011523
0.00112999
0.00111001
0.00109224
0.00107719
0.00107025
0.00107185
0.00107557
0.001078
0.00107165
0.00103036
0.000969786
0.00152124
0.0014762
0.00145957
0.00145244
0.00143995
0.00142178
0.00139878
0.00137271
0.00134509
0.00131716
0.00128996
0.00126405
0.00123961
0.00121683
0.00119586
0.00117676
0.00115957
0.00114422
0.00113072
0.00111678
0.00110105
0.00103971
0.000953527
0.000905944
0.000883468
0.000872561
6.18713e-06
1.5699e-06
7.68861e-10
7.82269e-10
7.98117e-10
8.16502e-10
8.37282e-10
8.59312e-10
8.81293e-10
8.98464e-10
9.12709e-10
9.37807e-10
9.96593e-10
0.00167836
0.00134625
0.000831223
0.000121257
0.000523563
0.000545033
0.000557965
0.000565353
0.000569307
0.000570578
0.000566669
0.00056206
6.27274e-05
0.000114245
0.000146707
0.000170762
0.00018915
0.000203303
0.000213838
0.000221339
0.000226092
0.00022864
0.000229768
0.000230507
0.000231492
0.000232564
0.00023388
0.000235434
0.000237439
0.000240109
0.000242979
0.000243501
0.000252111
0.000331699
0.00043571
0.00054815
0.000670387
0.000776797
0.00082048
0.00150075
0.00139841
0.00133459
0.00128655
0.00123752
0.0011901
0.00114869
0.00111238
0.00108157
0.0010561
0.00103489
0.00101712
0.00100232
0.000989989
0.000980014
0.000972395
0.000967034
0.000963995
0.000963792
0.000971502
0.00098547
0.000995984
0.000993245
0.0009682
0.000925863
0.000948223
1.14954e-05
2.96395e-06
7.73707e-10
7.86454e-10
8.01583e-10
8.19168e-10
8.39045e-10
8.60175e-10
8.81414e-10
8.9883e-10
9.14092e-10
9.3917e-10
9.93737e-10
0.00103058
0.000128114
0.000317173
0.000231287
0.000258472
0.000268829
0.000278046
0.000280929
0.000281077
0.000279966
0.000275662
0.000270331
0.000266731
0.000264396
0.000262628
0.00026183
0.000261374
0.000261362
0.00026159
0.000261878
0.000261983
0.000261918
0.000261703
0.0002611
0.000259785
0.000258202
0.000256767
0.000255542
0.000254596
0.000253988
0.000253606
0.00025291
0.000253398
0.000264537
0.000283922
0.000315297
0.00034908
0.000301841
0.00053657
0.000681455
0.000718233
0.000600416
0.00051592
0.000440655
0.00036922
0.000309029
0.000265234
0.000239857
0.000232299
0.000236496
0.000247645
0.000262765
0.000280727
0.000300537
0.000321584
0.000344154
0.000368468
0.000394777
0.000422906
0.000490068
0.000593393
0.000686261
0.000750661
0.000773135
0.000875078
1.85141e-05
4.84927e-06
7.78711e-10
7.90789e-10
8.0519e-10
8.21969e-10
8.40949e-10
8.61199e-10
8.8172e-10
8.99262e-10
9.15447e-10
9.40379e-10
9.90631e-10
0.00044087
0.000265159
0.000453791
0.000586292
0.000660889
0.000677317
0.000697478
0.000710109
0.00071683
0.000719535
0.000718394
0.000714251
0.000708424
0.000701393
0.00069332
0.000684558
0.000675177
0.000665169
0.000654596
0.0006435
0.0006319
0.000619867
0.000607545
0.000595204
0.000583006
0.0005711
0.000559738
0.000549088
0.000539225
0.000530202
0.000521937
0.000514336
0.000505827
0.000479655
0.000438395
0.00039999
0.000298949
0.000229427
0.000409805
0.000248019
0.000263785
0.000236959
0.000217593
0.000209427
0.000203608
0.000195928
0.000190422
0.000186438
0.000183678
0.000183114
0.00018366
0.000185136
0.00018801
0.000191936
0.000196861
0.000202831
0.000209942
0.000218258
0.000227557
0.000246883
0.000281038
0.000318985
0.000304335
0.000429079
0.00065235
2.53283e-05
6.73694e-06
7.83864e-10
7.9527e-10
8.08938e-10
8.24908e-10
8.42999e-10
8.62386e-10
8.82208e-10
8.99782e-10
9.16711e-10
9.41452e-10
9.87504e-10
0.000418351
0.000711256
0.00107388
0.00117452
0.00121659
0.00123896
0.00126149
0.00128016
0.00129191
0.00129781
0.00129911
0.00129678
0.00129177
0.0012846
0.00127551
0.00126471
0.00125226
0.00123816
0.00122245
0.00120514
0.0011863
0.00116604
0.00114456
0.00112226
0.00109975
0.00107761
0.00105626
0.00103603
0.00101708
0.000999531
0.000983408
0.000968739
0.00095594
0.000936131
0.000905179
0.000858488
0.00078925
0.000703584
0.000633576
0.00049497
0.000370298
0.000166002
0.000270184
0.000340616
0.000391203
0.000421042
0.000433934
0.000437359
0.000435535
0.000431197
0.000425655
0.000419406
0.000413288
0.000407646
0.000402247
0.000397155
0.000392461
0.000388182
0.000383628
0.000365798
0.000346973
0.000279966
0.000240386
0.000258681
0.000487384
3.67906e-05
9.93404e-06
7.89158e-10
7.9989e-10
8.12823e-10
8.27985e-10
8.45199e-10
8.63738e-10
8.82874e-10
9.00402e-10
9.17869e-10
9.42353e-10
9.84476e-10
0.00094073
0.00115407
0.00109622
0.00104552
0.00105842
0.00106992
0.00108119
0.00109398
0.00110283
0.00110737
0.00110896
0.00110839
0.00110599
0.00110207
0.00109677
0.00109007
0.00108197
0.00107245
0.00106145
0.00104893
0.00103492
0.00101945
0.00100264
0.000984751
0.000966428
0.00094826
0.000930579
0.000913647
0.000897659
0.000882761
0.000869003
0.000856525
0.00084762
0.000844734
0.000842755
0.000834546
0.000821119
0.000781531
0.000710882
0.00103591
0.000989112
0.000983429
0.000983238
0.000980276
0.000973938
0.000964097
0.000949576
0.000932686
0.000915728
0.000899243
0.000883423
0.000868059
0.00085382
0.000840771
0.000828548
0.000817129
0.000806518
0.000796824
0.000788262
0.000776925
0.000748627
0.000702726
0.000650003
0.00058966
0.000597937
7.74002e-05
2.12109e-05
7.9458e-10
8.04643e-10
8.16843e-10
8.31202e-10
8.4755e-10
8.65257e-10
8.83711e-10
9.01123e-10
9.18931e-10
9.43057e-10
9.81592e-10
0.00115813
0.00092529
0.000610307
0.000456612
0.000435027
0.000434154
0.000429565
0.000430003
0.000431356
0.000431137
0.000430123
0.000429081
0.000428144
0.000427203
0.000426157
0.000424924
0.000423434
0.000421675
0.00041959
0.000417145
0.000414309
0.000411101
0.000407539
0.000403665
0.000399589
0.000395396
0.000391149
0.000386939
0.000382863
0.000379034
0.000375433
0.00037154
0.00036922
0.000389633
0.000434976
0.000494052
0.000566604
0.000619437
0.000619928
0.00107111
0.00102054
0.000988489
0.000964556
0.000940755
0.00091758
0.000896468
0.00087441
0.000852515
0.0008336
0.000816693
0.000801426
0.000787021
0.000774601
0.000764348
0.000754949
0.000746543
0.000739193
0.000733064
0.000728904
0.000731446
0.00073505
0.000728825
0.000716456
0.000680672
0.000672681
0.000158536
4.40784e-05
8.00117e-10
8.0952e-10
8.20994e-10
8.34556e-10
8.50052e-10
8.66941e-10
8.84713e-10
9.0194e-10
9.19914e-10
9.43562e-10
9.78849e-10
0.000744041
0.000180584
0.000243261
0.000176184
0.000169216
0.00017084
0.000169287
0.00016772
0.000166337
0.000164603
0.000161494
0.00015838
0.000156138
0.000154085
0.000152671
0.000152143
0.000152106
0.0001527
0.000153798
0.000155259
0.000156935
0.000158773
0.000160704
0.000162292
0.000163145
0.000163605
0.000163956
0.000164226
0.000164452
0.00016467
0.000164875
0.000164845
0.000165409
0.000176158
0.000198365
0.000227152
0.000268999
0.000298809
0.000428738
0.000550916
0.000543738
0.000501265
0.000475284
0.000450285
0.000426897
0.00040605
0.000390014
0.000376619
0.000365698
0.000357094
0.000350451
0.000345745
0.000342248
0.000340279
0.000339895
0.000341054
0.000343815
0.000348305
0.000353468
0.000364825
0.00041047
0.000465076
0.000519467
0.000546796
0.000603009
0.000253889
7.2252e-05
8.05755e-10
8.14511e-10
8.25268e-10
8.38046e-10
8.52704e-10
8.68788e-10
8.85878e-10
9.02847e-10
9.20831e-10
9.43885e-10
9.76243e-10
0.000331587
0.000142543
0.000239545
0.000266337
0.000281833
0.000295171
0.000303085
0.000304718
0.000304021
0.0003024
0.000297612
0.000291881
0.000287085
0.00028209
0.000277992
0.000275421
0.000273685
0.000273078
0.000273392
0.000274382
0.000275762
0.000277393
0.000279135
0.00028014
0.000279626
0.000278324
0.000276941
0.000275504
0.000274081
0.000272717
0.000271449
0.000270307
0.000269409
0.000267286
0.000259745
0.000244284
0.00022038
0.000242044
0.000222931
0.000204105
0.000202977
0.000193583
0.000179933
0.000171486
0.000163737
0.000154414
0.000148124
0.000142834
0.000137997
0.000134716
0.000132233
0.000130594
0.000129785
0.000129653
0.000130317
0.000131693
0.0001338
0.00013665
0.000139814
0.000145437
0.000164752
0.000189411
8.04114e-05
0.000245229
0.000395616
0.000299182
2.378e-05
6.64403e-06
8.19602e-10
8.29658e-10
8.41665e-10
8.55503e-10
8.70795e-10
8.87198e-10
9.0384e-10
9.21693e-10
9.44053e-10
9.73766e-10
0.000234854
0.000339279
0.000613286
0.000680855
0.000713609
0.000737708
0.000755579
0.000767364
0.000774697
0.000779061
0.000781174
0.000781412
0.000780296
0.000778179
0.000775207
0.000771506
0.000767121
0.000762032
0.000756207
0.000749591
0.00074212
0.000733723
0.000724381
0.000714219
0.000703522
0.000692545
0.000681503
0.000670585
0.00065996
0.000649757
0.000640082
0.000631026
0.000622826
0.00061208
0.000589373
0.000549363
0.000491319
0.000427614
0.00038514
0.000311733
0.000251206
0.00025331
0.000243383
0.000240106
0.000237262
0.000230927
0.000226576
0.000222372
0.000217545
0.000213945
0.000210578
0.000207519
0.000205178
0.000203082
0.000201403
0.000199997
0.000198844
0.000197882
0.000197108
0.000196534
0.000191918
0.000181397
0.000170273
0.00018881
0.000134335
0.000256298
5.52849e-05
1.57592e-05
8.24782e-10
8.34154e-10
8.45407e-10
8.58445e-10
8.72956e-10
8.88668e-10
9.04915e-10
9.22512e-10
9.44095e-10
9.71419e-10
0.000557334
0.000792772
0.000805099
0.00080139
0.000811496
0.000820204
0.00082751
0.000832561
0.000835412
0.000836709
0.000836879
0.000835988
0.000834201
0.000831745
0.000828691
0.000825066
0.000820878
0.000816109
0.000810676
0.000804504
0.000797502
0.000789581
0.000780644
0.000770734
0.000760165
0.000749226
0.000738091
0.000726943
0.000715979
0.000705349
0.000695176
0.000685605
0.000677309
0.000671335
0.000663013
0.000647886
0.000621692
0.00057164
0.000507168
0.000674394
0.00067088
0.000654988
0.000643664
0.000632593
0.000622055
0.000612294
0.000603025
0.000594247
0.000585914
0.000577931
0.000570275
0.000562905
0.000555782
0.000548908
0.000542262
0.000535863
0.000529721
0.000523904
0.00051851
0.000513829
0.000499121
0.000469571
0.000431233
0.00039829
0.000345708
0.000340663
0.000143546
4.13714e-06
1.16182e-06
8.38745e-10
8.49265e-10
8.61522e-10
8.75266e-10
8.90281e-10
9.0607e-10
9.23299e-10
9.44039e-10
9.69202e-10
0.000830232
0.000721701
0.000561822
0.000503598
0.000482047
0.000469062
0.000460429
0.00045442
0.00044969
0.000445999
0.000443254
0.000441001
0.000438889
0.000436862
0.000434795
0.000432646
0.00043041
0.000427965
0.000425315
0.000422331
0.00041905
0.000415352
0.000411164
0.000406589
0.000401711
0.000396665
0.000391499
0.000386345
0.000381279
0.000376374
0.000371647
0.000367194
0.00036323
0.000365429
0.000385584
0.000416388
0.000448374
0.000468625
0.000464066
0.000795348
0.000754986
0.000734547
0.000714258
0.000696061
0.000679664
0.000665543
0.000652946
0.000641516
0.000631167
0.00062162
0.000612739
0.000604463
0.000596669
0.000589332
0.000582407
0.000575877
0.000569742
0.000564038
0.000558902
0.000555724
0.000553159
0.000544489
0.000529242
0.000508311
0.000465613
0.000437726
0.000283146
3.98583e-05
1.13549e-05
8.43419e-10
8.53229e-10
8.64726e-10
8.77716e-10
8.92031e-10
9.07304e-10
9.24066e-10
9.43917e-10
9.67122e-10
0.000635903
0.000313848
0.000243215
0.000197009
0.000190032
0.000187
0.000183727
0.000179254
0.000175082
0.000171533
0.000167056
0.000162617
0.000159049
0.000155557
0.000152718
0.000150922
0.000149753
0.000149392
0.000149777
0.000150744
0.000152126
0.000153879
0.000155842
0.000157436
0.000158052
0.000158166
0.000158196
0.000158175
0.000158126
0.000158056
0.000157961
0.000157889
0.000157939
0.000160604
0.000171209
0.000187247
6.1861e-05
0.000240996
0.000318939
0.00047828
0.000465628
0.000425981
0.000398261
0.000378159
0.00036221
0.000349875
0.000339967
0.000331579
0.000324504
0.000318436
0.000313148
0.000308558
0.000304629
0.000301254
0.000298477
0.000296267
0.000294678
0.000293749
0.000293467
0.000295448
0.000310172
0.000338098
0.000366248
0.000387141
0.000398139
0.000404515
0.000353951
9.2165e-05
2.6626e-05
8.48162e-10
8.57288e-10
8.68048e-10
8.80295e-10
8.93906e-10
9.08614e-10
9.24829e-10
9.43754e-10
9.65185e-10
0.000285893
0.000117318
0.000128534
0.000145538
0.000153857
0.00015785
0.000159328
0.000159641
0.000153462
0.000149219
0.000145862
0.000142515
0.000139737
0.000136802
0.000134304
0.000132675
0.000131536
0.000131135
0.00013142
0.000132294
0.000133576
0.000135239
0.000137176
0.00013877
0.000139377
0.000139461
0.00013947
0.000139401
0.000139277
0.000139108
0.00013892
0.000138743
0.00013858
0.000138178
0.00013222
0.000119728
0.0001094
0.000132513
0.000157027
0.000179418
0.000175833
0.000166306
0.000152203
0.000145229
0.00013994
0.000133783
0.00012961
0.000125991
0.000122386
0.000119786
0.000117527
0.000115624
0.000114316
0.000113312
0.000112704
0.000112421
0.000112456
0.000112788
0.000113379
0.000114807
0.000121072
0.000132441
0.000148911
0.000122804
0.000213198
0.000267685
0.00031185
0.000151107
4.55901e-05
8.52961e-10
8.61428e-10
8.71475e-10
8.82995e-10
8.959e-10
9.09999e-10
9.25598e-10
9.43579e-10
9.63397e-10
0.000122731
0.000223526
0.000326536
0.00036952
0.000387265
0.000392501
0.000395548
0.000400861
0.000390517
0.000384639
0.000384221
0.000384435
0.000384447
0.000384162
0.000383573
0.000382731
0.000381673
0.000380389
0.000378871
0.000377092
0.000375011
0.000372569
0.000369715
0.000366465
0.000362899
0.00035907
0.000355023
0.00035082
0.000346537
0.000342238
0.000337979
0.000333848
0.000329854
0.000325392
0.000308089
0.00027607
0.000241432
0.000168405
0.000130926
0.000189802
0.00014167
0.000140923
0.000135162
0.000134148
0.000133833
0.000131506
0.000130306
0.000129114
0.000127362
0.000126212
0.000125055
0.000123933
0.000123145
0.000122406
0.000121807
0.000121287
0.000120811
0.000120352
0.000119895
0.000119309
0.000117673
0.000111189
0.000101465
0.000102279
0.000115654
0.000136364
0.000166413
0.000161351
2.7173e-05
7.89423e-06
8.65636e-10
8.74995e-10
8.85804e-10
8.98003e-10
9.11458e-10
9.26387e-10
9.43414e-10
9.61765e-10
0.00032868
0.000532597
0.000568258
0.00057434
0.000580422
0.000583661
0.00058505
0.000589069
0.000586855
0.000584739
0.000586432
0.000586551
0.000585856
0.00058472
0.000583274
0.000581568
0.000579648
0.0005775
0.000575087
0.000572362
0.000569263
0.000565696
0.000561563
0.000556848
0.000551667
0.000546115
0.000540229
0.000534088
0.000527797
0.000521441
0.000515097
0.000508858
0.000502885
0.000497996
0.000481408
0.000463776
0.00044597
0.000407467
0.000352252
0.000415911
0.000375371
0.000361594
0.000354952
0.000351121
0.00034876
0.00034694
0.000345423
0.000344077
0.000342666
0.000341148
0.000339507
0.000337713
0.00033577
0.000333674
0.000331424
0.000329028
0.000326497
0.000323866
0.000321205
0.000318374
0.000313172
0.00029544
0.000269689
0.000239127
0.000207556
0.000175081
0.000170245
0.000197701
8.6829e-05
3.05406e-05
8.69898e-10
8.78596e-10
8.8871e-10
9.00204e-10
9.12989e-10
9.27207e-10
9.43281e-10
9.60293e-10
0.000597922
0.000546905
0.000446702
0.000439261
0.000436879
0.000438412
0.000438101
0.000437751
0.000443625
0.000444294
0.000443564
0.000442452
0.000441169
0.00043981
0.000438438
0.000436987
0.000435467
0.00043385
0.000432065
0.000430075
0.000427834
0.000425246
0.000422245
0.00041877
0.000414913
0.000410809
0.000406486
0.000401993
0.000397405
0.000392762
0.000388156
0.000383603
0.000379099
0.000376107
0.000378221
0.000384104
0.000389481
0.000386688
0.000363422
0.000584881
0.000547385
0.000532632
0.000522697
0.000514629
0.000506907
0.000499846
0.000492575
0.000485369
0.000478618
0.00047231
0.000466452
0.000461
0.000455857
0.000450987
0.000446342
0.000441895
0.000437627
0.00043355
0.000429711
0.000426283
0.00042416
0.000416082
0.000403449
0.000381644
0.000358136
0.000328796
0.000289893
0.000277277
0.000189155
4.15366e-05
1.23716e-05
8.82261e-10
8.91699e-10
9.02496e-10
9.14591e-10
9.28069e-10
9.43199e-10
9.58985e-10