/*--------------------------------*- C++ -*----------------------------------*\
| =========                 |                                                 |
| \\      /  F ield         | OpenFOAM: The Open Source CFD Toolbox           |
|  \\    /   O peration     | Version:  2312                                  |
|   \\  /    A nd           | Website:  www.openfoam.com                      |
|    \\/     M anipulation  |                                                 |
\*---------------------------------------------------------------------------*/
FoamFile
{
    version     2.0;
    format      ascii;
    arch        "LSB;label=32;scalar=64";
    class       volSymmTensorField;
    location    "150";
    object      turbulenceProperties:R;
}
// * * * * * * * * * * * * * * * * * * * * * * * * * * * * * * * * * * * * * //

dimensions      [0 2 -2 0 0 0 0];

internalField   nonuniform List<symmTensor> 
10720
(
(0.0185831 0.00837308 -6.59657e-21 0.0114641 -1.25743e-19 0.0154165)
(0.0221433 0.0129306 7.29221e-21 0.00864635 1.77173e-19 0.0157685)
(0.0301856 0.0167959 4.54005e-20 0.00663174 1.93101e-19 0.0193011)
(0.037366 0.0174583 2.47823e-19 0.00644424 1.75125e-18 0.022925)
(0.0434544 0.0151453 -6.92332e-19 0.0094479 -2.67563e-18 0.0273264)
(0.0502799 0.0123198 -6.29205e-19 0.0136516 -1.2703e-18 0.0329546)
(0.0590925 0.010105 1.66611e-19 0.0185285 1.36352e-20 0.0398061)
(0.0707795 0.00809154 7.86905e-20 0.0239296 1.24424e-19 0.0483859)
(0.0869757 0.00577278 1.90017e-19 0.0302598 -1.53489e-19 0.0598389)
(0.109819 0.00264584 -2.96341e-20 0.0387932 -2.97317e-20 0.075737)
(0.143081 -0.00227979 3.46248e-18 0.0513766 1.43751e-18 0.099005)
(0.195209 -0.0105508 -8.64465e-19 0.0718278 -6.63845e-19 0.135836)
(0.279467 -0.0252565 1.96761e-18 0.106335 -2.95351e-18 0.196046)
(0.428661 -0.0537985 1.13348e-18 0.170349 2.45762e-18 0.304124)
(0.716787 -0.114412 2.33725e-18 0.300436 -4.14372e-18 0.516074)
(1.35284 -0.260381 1.02803e-18 0.602734 2.05486e-17 0.99139)
(2.61741 -0.587627 1.4742e-16 1.24786 7.55839e-17 1.95873)
(5.48893 -1.40191 -5.07227e-17 2.81322 7.73082e-17 4.20482)
(10.904 -3.11579 -3.46936e-17 6.0362 -4.9954e-16 8.57706)
(18.0769 -5.70024 3.50225e-17 10.8476 -4.93397e-19 14.6364)
(28.0651 -9.67362 -7.70632e-16 18.339 -5.11321e-16 23.4702)
(44.2075 -16.5 1.61883e-15 31.5457 2.1344e-15 38.2976)
(80.8394 -32.3738 -1.02016e-15 63.0593 -2.41524e-15 72.7593)
(146.372 -62.0031 1.10381e-15 123.831 2.36937e-16 136.467)
(235.984 -103.731 -3.14176e-16 212.079 -1.54511e-17 225.682)
(321.911 -144.981 1.07685e-16 301.705 -2.13537e-15 314.136)
(604.579 -278.028 6.82383e-16 588.632 -2.10539e-16 601.538)
(937.253 -440.975 8.14701e-16 957.746 1.48686e-15 950.848)
(647.732 -309.204 1.82647e-14 699.7 4.87671e-16 671.308)
(279.704 -110.99 1.04183e-14 308.616 4.88657e-15 293.058)
(91.3892 -34.0723 -3.57967e-15 102.619 -7.77547e-16 96.813)
(13.7953 -4.19178 -7.49122e-16 15.4345 -3.35866e-16 14.601)
(2.47554 -0.669359 -2.95813e-17 2.76566 -1.1493e-16 2.61957)
(0.291166 -0.0775477 -2.21409e-17 0.324838 -2.34658e-17 0.307818)
(6.46438e-16 -1.12882e-16 1.49176e-32 6.86858e-16 4.84684e-32 6.66704e-16)
(0.00598527 -0.000135469 6.46346e-20 0.00592738 6.20085e-19 0.00595259)
(0.4158 0.0576729 -1.48615e-17 0.360041 1.48156e-18 0.390261)
(11.5802 4.26893 -2.07933e-16 8.31693 -9.44095e-15 9.77294)
(17.2867 7.12236 4.99872e-15 17.622 1.10714e-14 16.7167)
(0.0223212 0.00884016 3.8689e-21 0.0171079 -1.16911e-20 0.0198877)
(0.0198864 0.00826595 -2.40193e-20 0.0163 2.54653e-20 0.0184246)
(0.0128348 0.00564818 -9.6948e-20 0.0115343 -6.94694e-20 0.0123223)
(0.0106689 0.0123514 3.20784e-19 0.0100759 -4.09062e-19 0.0106379)
(0.00861848 0.00410307 -1.85228e-19 0.00895975 -6.43538e-20 0.00884019)
(0.0120308 0.00576073 -1.58812e-18 0.0126899 2.00386e-18 0.0122863)
(0.0124175 0.00594342 1.10206e-18 0.0122533 2.28161e-18 0.0119412)
(0.0137675 0.00624418 6.94119e-20 0.0110186 -4.54515e-18 0.0118188)
(0.0171431 0.00652501 1.97086e-18 0.0103254 -1.04505e-19 0.0134622)
(0.020928 0.00673341 -1.13733e-18 0.0105592 -3.38502e-19 0.0157768)
(0.0260959 0.00765824 8.06459e-19 0.0124988 1.93556e-18 0.0194403)
(0.0339137 0.00967243 1.41382e-18 0.0166179 -6.77886e-19 0.0254525)
(0.0451312 0.0129946 -1.29319e-18 0.0233238 -2.39983e-19 0.034485)
(0.0641544 0.0189343 2.61087e-19 0.0352273 3.47484e-19 0.0500659)
(0.0923218 0.0284622 3.95962e-18 0.0529929 5.62154e-19 0.0731585)
(0.159179 0.051503 4.45848e-18 0.0950581 -9.89973e-19 0.127956)
(0.234849 0.0891492 2.15459e-18 0.134527 3.03511e-18 0.185976)
(0.596225 0.283486 2.62568e-18 0.307458 6.58442e-18 0.455554)
(0.824134 0.331552 2.48797e-18 0.517727 -1.40283e-18 0.674787)
(1.02662 0.408305 3.61268e-18 0.685201 1.87318e-19 0.860341)
(1.34648 0.565834 -4.70788e-18 0.920348 -2.84744e-17 1.13919)
(1.96648 0.849322 -1.55255e-17 1.398 -1.92217e-19 1.69068)
(2.71921 1.11612 1.10416e-17 2.06959 1.69562e-17 2.40556)
(3.75939 1.55183 5.29272e-18 3.0065 -7.88391e-19 3.40013)
(4.98142 2.1082 1.62924e-16 4.17431 -2.67724e-17 4.60285)
(6.24968 2.7214 -5.12335e-19 5.4783 -9.25537e-18 5.89544)
(5.62833 2.29046 2.44079e-20 5.19903 8.99597e-19 5.43897)
(3.39317 1.25713 7.44118e-20 3.27222 -2.28609e-21 3.3458)
(1.38346 0.478161 7.68377e-20 1.37857 1.04058e-21 1.38579)
(0.367396 0.122751 2.99555e-18 0.376144 -9.52855e-20 0.372953)
(0.0430645 0.0145356 -1.31455e-20 0.0452242 -6.59249e-22 0.0442803)
(0.00102988 0.000366465 -1.07218e-21 0.00111119 2.64989e-21 0.00107385)
(6.30319e-16 2.44679e-16 -3.68602e-32 7.01601e-16 -3.96306e-33 6.68079e-16)
(6.18097e-16 2.67984e-16 -7.24828e-32 7.13774e-16 6.31248e-33 6.68129e-16)
(0.00211974 0.0010349 2.60347e-19 0.002554 1.92549e-20 0.00234485)
(0.121726 0.0668565 -1.03214e-19 0.153817 -3.46043e-19 0.138262)
(0.00184662 0.00111279 -2.83808e-21 0.00245592 -8.23815e-21 0.00215789)
(0.876038 0.569962 -4.52762e-18 1.22976 1.05742e-17 1.06472)
(67.895 35.3957 -1.22953e-14 94.8407 -1.03233e-15 81.6117)
(0.0139954 -0.00795988 -7.19367e-20 -0.00586387 -2.15914e-19 0.00258036)
(0.0150865 -0.0111424 1.37007e-19 -0.0043658 3.40757e-19 0.00338133)
(0.0123724 -0.0130109 6.05043e-21 -0.00209228 4.0317e-21 0.00270717)
(0.00781372 -0.00884667 1.95605e-19 0.00193392 2.69201e-20 0.00306585)
(0.00525047 -0.00531043 1.07343e-19 0.00372444 7.42392e-19 0.00328661)
(0.00395371 -0.00317033 3.61798e-19 0.00419845 6.41624e-19 0.00325239)
(0.00331306 -0.00211482 -1.2445e-19 0.00417654 2.0156e-20 0.00309416)
(0.0028801 -0.00156197 -9.04979e-20 0.00400923 -2.4944e-20 0.00286818)
(0.00257524 -0.00124583 -5.12593e-19 0.00386444 -5.62149e-19 0.0026597)
(0.00236333 -0.00104 -1.65539e-19 0.00373325 -5.67254e-20 0.00247603)
(0.00224748 -0.000902983 -1.57553e-18 0.00365696 -1.52584e-18 0.00234678)
(0.00215131 -0.00079848 -1.96104e-20 0.00352542 2.57283e-19 0.00220545)
(0.00265766 -0.000934393 -1.08221e-18 0.00425951 2.1459e-20 0.0026344)
(0.00473952 -0.00163338 1.3202e-18 0.00724031 7.80335e-19 0.00448059)
(0.0106701 -0.00370908 -5.9702e-18 0.0150103 -1.74364e-18 0.00948671)
(0.0287311 -0.0102256 3.26626e-17 0.0357412 7.82392e-18 0.0238386)
(0.0799421 -0.0290604 -7.29902e-17 0.085616 -6.15365e-17 0.0627779)
(0.226285 -0.0828222 -1.62307e-16 0.210517 -5.95904e-17 0.17341)
(0.626314 -0.229333 -3.98583e-16 0.52497 1.63938e-16 0.481401)
(1.5387 -0.56625 8.86295e-17 1.21591 1.64157e-19 1.20444)
(3.19412 -1.1925 7.51468e-16 2.47126 8.42122e-16 2.56169)
(5.89395 -2.24833 -1.30403e-15 4.59681 -2.18463e-15 4.83569)
(9.41747 -3.65345 1.23254e-16 7.48929 2.17126e-15 7.8156)
(21.7615 -8.48717 5.54362e-17 17.4785 -9.84355e-16 18.0892)
(55.8481 -13.403 -0 50.0425 -0 50.4224)
(84.8192 -9.23705 -4.52446e-17 84.4155 9.14309e-16 81.785)
(221.312 -9.52568 -1.25371e-15 228.087 2.56292e-16 217.98)
(423.079 -5.77009 -9.33985e-17 424.297 -9.84493e-16 420.665)
(359.115 -4.15674 -1.38939e-14 350.375 -6.02712e-15 357.295)
(220.918 -4.26069 -6.96937e-16 207.186 -2.3751e-14 218.705)
(104.949 -2.7626 1.04836e-15 99.3768 1.51086e-14 103.927)
(37.9301 -1.43398 2.83456e-16 37.3164 7.3819e-15 37.9328)
(10.1933 -0.849616 -1.5877e-15 10.3983 1.40789e-15 10.3403)
(1.32792 -0.295078 4.75457e-16 1.41458 7.14911e-16 1.3685)
(0.0249429 -0.0100033 -3.89521e-19 0.0280774 -4.17676e-18 0.0264526)
(0.00338754 -0.00158394 7.05072e-19 0.00394766 -3.82119e-19 0.00365347)
(0.231738 -0.0248502 9.33186e-19 0.222423 1.30154e-18 0.22876)
(5.42049 -0.748 2.16706e-15 5.80668 1.8027e-14 5.8773)
(14.2589 -3.17158 -8.12696e-15 22.2101 -1.87105e-14 18.6326)
(0.00149825 -0.00067661 1.01075e-20 -0.00107622 2.9819e-20 6.8137e-05)
(0.00428761 -0.000405145 -4.54491e-21 0.00168427 -1.40896e-19 0.00286052)
(0.00495932 -0.000132037 -1.07545e-19 0.0018483 -2.788e-19 0.00329051)
(0.00942851 0.0005832 6.62921e-20 0.00243893 1.06494e-18 0.00575205)
(0.00868219 0.00119304 5.01777e-19 0.00354277 -4.67883e-19 0.00604528)
(0.00446968 0.00102471 -9.7561e-20 0.00215386 -4.14224e-19 0.00331177)
(0.00174866 0.000614375 1.37756e-19 0.000982029 -4.946e-19 0.00137784)
(0.00122291 0.000574443 -3.55791e-19 0.000866524 -2.61044e-20 0.00106731)
(0.00115679 0.000615294 -2.28756e-19 0.00110936 4.79191e-19 0.0011585)
(0.00103669 0.000606372 -9.33596e-20 0.00134334 -1.32888e-20 0.00120185)
(0.000876391 0.000527715 -9.41186e-20 0.00147124 -3.12551e-19 0.00115917)
(0.00102465 0.000531719 2.35557e-20 0.00197655 -2.13923e-19 0.00144875)
(0.000814613 0.000380498 1.56129e-19 0.00177427 4.01702e-19 0.00122148)
(0.00518905 0.00194274 -1.11915e-18 0.0116484 -6.38682e-19 0.00780187)
(0.00757761 0.00241783 -1.04231e-18 0.0175703 -3.65811e-18 0.0114235)
(0.0135947 0.00376932 -8.96876e-18 0.0318811 -2.0309e-18 0.0202759)
(0.0206312 0.00518887 -2.45767e-18 0.0482411 7.47103e-20 0.0301724)
(0.00181487 0.000436092 -1.49076e-20 0.00419666 -1.40416e-19 0.00259302)
(0.00739194 0.00176696 -8.9953e-19 0.0168317 5.73313e-19 0.010309)
(0.151429 0.00632748 5.7356e-18 0.183531 -1.90428e-18 0.160785)
(0.211125 0.00828801 -5.56189e-17 0.250329 3.50866e-17 0.221747)
(0.0591512 0.0151242 -2.16713e-17 0.12672 4.2315e-18 0.0762032)
(0.06538 0.0165247 1.04111e-18 0.136995 -1.9699e-17 0.0816286)
(0.705713 0.00565558 4.03063e-17 0.729032 5.7327e-19 0.710115)
(0.0882651 0.00100942 -5.74358e-18 0.0918146 5.05113e-19 0.0887676)
(0.191621 0.00291302 -1.27331e-17 0.199588 1.98902e-18 0.192417)
(0.0365125 0.000835864 -2.74062e-20 0.0382518 -1.88483e-20 0.0366388)
(0.063046 0.00193104 -2.07249e-22 0.0662277 -1.08435e-20 0.0632531)
(0.00311977 0.00011656 -1.0436e-22 0.00327497 -1.41807e-24 0.00313202)
(0.0202976 0.00107948 2.69149e-20 0.0214726 7.59554e-20 0.0204248)
(0.0193518 0.00128854 2.87523e-21 0.0205253 -5.08504e-20 0.0195275)
(0.000489976 4.16746e-05 1.65942e-21 0.00052278 -4.90953e-21 0.000496552)
(6.45651e-16 7.09937e-17 2.76584e-31 6.95842e-16 1.59508e-32 6.58507e-16)
(6.3989e-16 9.2998e-17 2.47247e-31 7.01162e-16 -3.79511e-32 6.58948e-16)
(0.000121606 2.36672e-05 -4.45486e-20 0.000136656 -8.36987e-22 0.000127048)
(0.00668823 0.00178539 2.74853e-18 0.00781355 3.52006e-19 0.007138)
(0.000106153 3.94546e-05 -8.76622e-20 0.000131313 -1.26887e-20 0.000117467)
(0.215559 0.111264 -1.9361e-16 0.301545 -4.16293e-17 0.247734)
(17.5948 3.56396 -1.14963e-14 19.931 -3.10898e-15 18.5564)
(0.00296376 -0.00126442 -6.38309e-21 -5.19337e-05 -1.92209e-20 0.00160743)
(0.00197544 -0.00176938 -1.69895e-19 -0.00083651 -3.79437e-19 0.000784382)
(0.00189417 -0.00197309 1.23208e-19 5.73201e-06 2.69659e-19 0.00120129)
(0.00140812 -0.00206715 1.69067e-19 0.000521866 3.06333e-19 0.00127395)
(0.00101916 -0.00208091 3.17039e-19 0.00114835 4.55866e-19 0.00144743)
(0.000615438 -0.00199098 -1.0156e-18 0.00179197 -1.72347e-18 0.00163415)
(0.000204718 -0.00178564 7.5767e-19 0.00240006 1.45732e-18 0.00182024)
(-0.000166086 -0.00146188 1.07054e-18 0.00293855 9.66486e-19 0.00199435)
(-0.000466773 -0.00102286 -6.49697e-20 0.00337843 1.3518e-19 0.00215847)
(-0.000651104 -0.000506133 7.77435e-19 0.00368945 1.32679e-18 0.00231817)
(-0.000705084 4.38789e-05 -1.72961e-18 0.00387035 -1.10169e-19 0.00246826)
(-0.00062352 0.000591634 2.52664e-18 0.0039341 2.75141e-18 0.00261826)
(-0.000426655 0.00109013 1.24557e-18 0.00392891 5.22978e-19 0.00275919)
(-0.000533802 0.00149806 6.14204e-19 0.00343966 -5.82434e-19 0.00245424)
(0.000697885 0.00194803 1.9607e-18 0.00448737 1.9107e-18 0.00362584)
(0.00370714 0.00279042 -6.2795e-18 0.00796208 -6.32998e-18 0.00706356)
(0.0102328 0.0055037 2.85342e-18 0.01705 4.20762e-18 0.0156878)
(0.0281967 0.0149016 6.245e-17 0.0434786 1.80127e-17 0.0405362)
(0.0797229 0.0421305 5.21847e-17 0.115419 3.78631e-17 0.108778)
(0.206662 0.108385 -4.13396e-17 0.280608 -2.58227e-18 0.267721)
(0.461244 0.237624 1.04277e-16 0.579493 -2.346e-16 0.564403)
(0.9343 0.463468 3.90263e-17 1.0505 3.4082e-16 1.06954)
(1.68522 0.761975 1.326e-15 1.56511 -3.34102e-16 1.776)
(5.42286 1.58856 -3.44783e-15 3.0584 -1.42136e-15 4.80764)
(12.9133 -1.25217 2.17517e-16 7.49877 9.84341e-17 10.6372)
(31.7134 -6.70899 -8.59059e-15 20.6083 1.87134e-15 26.7136)
(93.8811 -7.73168 1.42526e-15 84.3554 1.71087e-16 89.6614)
(178.71 -4.73351 -3.966e-16 174.123 2.83407e-18 176.561)
(160.471 -2.32716 -6.32763e-15 158.995 3.51533e-15 159.431)
(118.395 -1.35529 -8.03786e-15 117.658 3.29674e-16 117.677)
(69.9805 -0.753214 1.4595e-14 69.3718 -3.95066e-15 69.3913)
(33.822 -0.0901033 8.1402e-15 33.3726 3.00967e-15 33.393)
(12.0222 0.136297 2.82161e-16 11.8709 1.64301e-15 11.9148)
(2.40898 0.0358347 4.79105e-16 2.36831 -2.33319e-16 2.38735)
(0.195782 -0.0170495 3.02603e-17 0.198683 -8.47825e-18 0.197315)
(0.00744724 -0.00217992 -1.57891e-18 0.00804036 -1.38479e-18 0.00772387)
(0.0571368 -0.025431 6.4038e-19 0.0675976 -8.99856e-18 0.0618231)
(4.54467 -1.34441 -1.6971e-15 5.48316 -5.76271e-15 5.09288)
(15.1122 -7.44529 1.59529e-15 29.2083 6.46186e-15 21.8524)
(0.0058286 -0.001402 -4.97876e-20 0.000590601 -1.12457e-19 0.00341433)
(0.0100172 -0.000984153 -4.34083e-20 0.00364029 -1.82632e-20 0.00700958)
(0.0102245 -0.000274395 4.62389e-19 0.00338042 6.92755e-19 0.00694353)
(0.00698456 0.00044057 -2.49238e-19 0.00118959 -2.04501e-20 0.00416108)
(0.00334847 0.000940359 4.49993e-20 -0.00110757 2.04595e-19 0.00115424)
(0.00247684 0.00140252 -6.48783e-20 -0.001135 8.07233e-19 0.000679915)
(0.00174647 0.00176477 -8.69179e-20 -0.000906447 6.80942e-19 0.000419447)
(0.0012055 0.00202265 2.36582e-18 -0.00042536 1.51747e-18 0.000401455)
(0.000670682 0.00218987 4.49201e-19 0.000150277 -4.66287e-19 0.000423546)
(0.000107111 0.00224442 1.43523e-18 0.00074533 1.75557e-19 0.000439555)
(-0.000379574 0.00203941 -1.4395e-18 0.00123016 -7.83243e-19 0.000450579)
(-0.000652863 0.00173357 -1.09951e-18 0.00163056 1.64489e-18 0.000541757)
(-5.62097e-05 9.9891e-05 1.12159e-19 0.000136737 -5.3951e-20 4.69976e-05)
(-0.000404755 0.000538434 6.18023e-19 0.00106307 -3.00749e-21 0.000404228)
(-0.000265861 0.000281775 -4.53474e-19 0.000826077 3.83801e-19 0.000357142)
(-0.000170135 0.000149332 -2.75309e-19 0.000704599 6.12432e-19 0.000350141)
(-8.72595e-05 6.54476e-05 6.82146e-19 0.000599521 -3.77817e-19 0.00034106)
(-6.35218e-05 4.09662e-05 1.67342e-18 0.00154759 -3.10884e-19 0.000994388)
(0.000270769 -0.00017104 1.86298e-18 0.00419959 -1.91549e-19 0.00298642)
(0.000105349 -6.08704e-05 -9.95428e-20 0.000625308 3.30565e-19 0.000484846)
(0.00016469 -9.14818e-05 1.47217e-18 0.000613886 1.12921e-19 0.000512664)
(0.0099548 -0.00388036 1.65187e-18 0.022971 -7.69654e-18 0.0204938)
(0.0120095 -0.00549595 -1.6329e-19 0.0242067 -5.44431e-19 0.0227893)
(0.00031154 -0.000147212 -2.31036e-20 0.000501865 -1.23642e-19 0.000519627)
(0.0156947 -0.00709427 -5.75755e-19 0.0191851 3.58543e-18 0.0230347)
(0.0390534 -0.0146808 1.96315e-16 0.0364116 -1.10171e-17 0.0505508)
(0.00862392 -0.00284744 -1.74946e-19 0.00646586 1.2989e-20 0.0103388)
(0.00162544 -0.000394519 -6.75462e-19 0.00109249 1.81799e-20 0.00180577)
(0.00122772 -0.000245354 -4.27335e-21 0.000788703 8.65153e-23 0.00129916)
(0.00575812 -0.00123218 -3.36447e-18 0.00342078 -1.19411e-19 0.00590639)
(0.00569097 -0.00142968 5.86786e-18 0.00322525 4.37546e-19 0.00567457)
(0.000379876 -9.78596e-05 -8.21462e-21 0.000235223 -1.97027e-22 0.000370138)
(0.000336051 -9.34219e-05 -8.23601e-19 0.000218014 3.86056e-20 0.000321385)
(0.000273235 -8.29231e-05 -9.89664e-22 0.000181606 4.5693e-20 0.000256733)
(0.000172938 -5.70893e-05 3.07483e-21 0.000116745 -2.91959e-20 0.000159995)
(0.00208875 -0.000743854 -1.87191e-19 0.00138684 1.72648e-19 0.00189132)
(7.72408e-16 -2.86737e-16 6.50941e-32 5.39058e-16 3.1783e-31 6.88534e-16)
(0.124643 -0.0358501 5.23134e-16 0.068675 1.39902e-16 0.105069)
(6.99086 2.82308 6.67861e-14 6.74755 1.51425e-14 7.08147)
(0.00966476 -0.00318694 -8.92632e-20 0.00178809 -1.5331e-19 0.00556437)
(0.00888682 -0.00378084 -1.82284e-19 0.00226636 -2.97469e-19 0.0053971)
(0.00801386 -0.00429055 3.56071e-19 0.00305435 5.08282e-19 0.00530386)
(0.00697672 -0.00465832 4.56704e-19 0.0038131 4.86275e-19 0.00511689)
(0.00612786 -0.00485454 5.53316e-20 0.00482903 -1.84141e-20 0.00514057)
(0.00526927 -0.00487765 -1.66087e-19 0.00590898 4.28051e-19 0.0051755)
(0.00440728 -0.00471577 3.85386e-18 0.00691333 3.85382e-18 0.00516204)
(0.00361932 -0.00439188 -3.77895e-18 0.00781938 -4.90498e-18 0.00512495)
(0.00293617 -0.00393846 1.02977e-18 0.00863238 2.68938e-19 0.0050728)
(0.00238128 -0.00340346 5.57019e-18 0.00931903 4.12147e-18 0.00500979)
(0.00195195 -0.00281789 4.787e-18 0.00988593 4.78912e-18 0.00492759)
(0.00165618 -0.0022105 5.63142e-18 0.0103561 1.68824e-18 0.00484236)
(0.00148763 -0.00160737 -6.89949e-18 0.010741 -5.19332e-18 0.00475766)
(0.00139145 -0.00101366 -4.93006e-18 0.0110181 -4.80017e-18 0.00464557)
(0.00137626 -0.000450669 5.78318e-19 0.0112192 -1.80868e-18 0.00451108)
(0.0014264 0.000134107 -1.54909e-17 0.0113787 1.00902e-18 0.00437971)
(0.00108682 0.000820413 -5.07948e-18 0.010884 -6.32334e-18 0.00377344)
(-0.000871118 0.00157367 -3.29711e-17 0.00824876 -2.53717e-17 0.00140199)
(-0.000414072 0.000954155 1.54513e-18 0.00276334 -2.11124e-18 0.000300513)
(-6.42501e-17 9.04307e-16 5.1609e-31 1.7629e-15 -1.21006e-30 3.01354e-16)
(1.11154e-16 1.17396e-15 -5.88378e-30 1.53625e-15 4.75399e-32 3.52597e-16)
(1.89174e-16 1.91941e-15 1.35434e-30 1.49267e-15 2.65427e-31 3.1816e-16)
(-1.73043e-15 2.73013e-14 -8.98436e-29 6.64674e-15 -1.69339e-29 -2.91631e-15)
(0.0783573 0.0352753 -4.08232e-17 0.0776999 4.37312e-17 0.0734469)
(1.90392 0.696182 2.82534e-16 1.33532 1.89066e-17 1.61255)
(0.00226207 1.17042e-09 8.67465e-24 0.00226206 2.57148e-24 0.00226207)
(0.000321722 -1.78987e-11 -3.74789e-27 0.000321722 3.90387e-27 0.000321722)
(0.000773693 -1.17504e-10 2.11716e-26 0.000773693 1.61154e-27 0.000773693)
(0.00120223 -5.71432e-10 1.17633e-24 0.00120223 -2.47705e-25 0.00120223)
(0.00290191 -5.78967e-09 -1.0548e-24 0.00290191 4.50921e-24 0.00290191)
(0.0177502 -3.84018e-07 -1.10046e-21 0.01775 -5.35108e-22 0.0177501)
(0.347726 -0.000352467 2.10456e-18 0.347563 -1.75859e-18 0.347653)
(2.0069 -0.071535 3.99466e-16 1.97067 -3.50866e-17 1.99155)
(1.81278 0.00975337 -1.3721e-16 1.76753 -7.53694e-16 1.79277)
(0.668102 0.000236788 -2.42903e-16 0.656776 -3.73597e-17 0.663237)
(0.0292129 -0.00774106 6.1763e-19 0.0299585 5.17707e-18 0.0295375)
(0.108774 -0.11266 -7.47483e-17 0.154936 1.1657e-18 0.129885)
(6.15099 -3.20749 -3.02217e-16 8.04424 -4.6826e-15 7.20457)
(16.6682 -8.80746 2.2643e-15 25.9679 -1.33629e-15 21.6561)
(0.0119281 -0.00267349 -5.05921e-20 0.0021529 -2.98984e-20 0.00692388)
(0.00865782 -0.00144489 1.45524e-19 0.000146061 7.04395e-19 0.00432034)
(0.00515466 -0.000505063 4.35596e-19 -0.00314995 8.90365e-19 0.000968905)
(0.00494934 0.000426858 5.34129e-19 -0.00338964 -2.67862e-19 0.000765718)
(0.00463087 0.00140156 -1.09817e-18 -0.00325494 -8.58142e-19 0.000692427)
(0.00443189 0.00236225 -1.75771e-19 -0.00256233 -1.35622e-18 0.000935155)
(0.00470516 0.00322834 -2.0375e-18 -0.000943884 -1.81116e-18 0.00187886)
(0.00385021 0.00386749 -3.04649e-18 -1.98518e-05 -5.56623e-20 0.00192414)
(0.00281025 0.00426772 -8.07557e-19 0.000990614 -5.51279e-19 0.00192349)
(0.00170135 0.00440586 1.28837e-18 0.00204694 -8.66001e-19 0.00190768)
(0.00064077 0.00430078 1.30649e-18 0.00304588 2.99503e-18 0.00187442)
(-0.000204585 0.00401549 3.27767e-18 0.00403745 -1.27661e-18 0.0019275)
(-0.00112142 0.00359657 -3.27885e-18 0.00467777 -3.2113e-18 0.00174958)
(-0.00173106 0.00295737 -4.79804e-19 0.00500329 1.3658e-18 0.00155305)
(-0.00157424 0.00209359 3.53395e-18 0.00492903 -8.18462e-19 0.00154059)
(-0.00129788 0.00143464 7.16971e-18 0.00471829 -6.26656e-19 0.00152616)
(-0.00100426 0.00097894 -4.7817e-18 0.00456037 -9.97456e-19 0.00154823)
(-0.000723427 0.000665233 -1.2966e-18 0.00451897 -1.86646e-18 0.00162226)
(-0.000469367 0.00045031 -6.48971e-19 0.00475909 3.68877e-19 0.00181072)
(-0.000185385 0.000249227 8.66272e-18 0.00492784 -3.13312e-18 0.00199102)
(9.62758e-05 5.55458e-05 1.42164e-18 0.00483061 -1.94026e-18 0.00206178)
(0.000369827 -0.00013934 -8.86838e-18 0.00485822 2.3646e-18 0.00219271)
(0.000641371 -0.00033683 -3.13175e-19 0.00470173 1.07097e-18 0.00224977)
(0.000829324 -0.000456898 -1.04885e-19 0.00393637 -5.88523e-19 0.00201589)
(0.00112401 -0.000558531 7.68926e-20 0.00378013 -6.39476e-21 0.00206608)
(0.00123429 -0.000519262 -5.23577e-18 0.00323272 -5.63835e-19 0.00185927)
(0.00117467 -0.000418709 -4.47119e-20 0.00256879 7.51501e-21 0.0015432)
(0.0012928 -0.000391433 9.00857e-19 0.00248877 -8.38773e-21 0.00154289)
(0.00127195 -0.000325086 -3.31215e-20 0.00221107 -5.74639e-22 0.00141474)
(0.00134007 -0.000286729 9.38575e-21 0.00215895 -6.27871e-20 0.00141645)
(0.0013599 -0.00024606 -2.2368e-18 0.0020546 1.64328e-20 0.00138565)
(0.0013185 -0.000210063 -5.04526e-20 0.00187888 -3.09019e-21 0.00130711)
(0.0011968 -0.000183141 3.55937e-20 0.00160834 -1.4244e-19 0.0011611)
(0.000996241 -0.000167604 4.32014e-18 0.00125414 5.73578e-19 0.000946502)
(0.000647819 -0.000133422 2.24327e-20 0.000754648 2.40037e-21 0.000602276)
(0.000321973 -9.40105e-05 -2.09427e-18 0.000335447 -2.48498e-19 0.000287453)
(6.22718e-06 -2.37129e-06 1.43838e-19 5.56282e-06 2.06957e-20 5.30123e-06)
(0.0768324 -0.0281322 1.11191e-17 0.0561415 -4.61764e-17 0.0622907)
(5.47824 1.66922 1.56975e-15 3.25498 -8.72015e-15 4.23382)
(0.0105732 -0.00472552 -1.9737e-19 -0.000932955 -2.72163e-19 0.00491786)
(0.00902061 -0.00561663 -3.72245e-19 -0.000600323 -5.05589e-19 0.0043533)
(0.00763965 -0.00645841 1.27875e-18 0.000362847 1.6304e-18 0.00416302)
(0.00607571 -0.00708543 -5.50988e-18 0.00149008 -7.24682e-18 0.00399684)
(0.00443271 -0.00742674 1.40246e-18 0.0027911 2.00259e-18 0.00388355)
(0.00274573 -0.00750472 3.16104e-18 0.00427035 3.25729e-18 0.00384176)
(0.000967403 -0.00723383 -2.87668e-18 0.00568346 -4.47206e-18 0.00374811)
(-0.000733919 -0.00662455 -1.82462e-18 0.00703428 2.85337e-19 0.00368026)
(-0.00222969 -0.0056912 -1.28407e-17 0.00833524 -1.19435e-17 0.00370777)
(-0.00347745 -0.00446716 -2.12649e-18 0.0094577 -5.12009e-18 0.00380348)
(-0.00441948 -0.0029949 3.92983e-19 0.0103427 -1.27351e-18 0.00395761)
(-0.00502608 -0.00133349 -8.25714e-18 0.0109092 -1.01356e-17 0.00414955)
(-0.00525468 0.000437004 4.29303e-18 0.0111211 5.00068e-18 0.00438097)
(-0.00507405 0.00222316 -1.88349e-17 0.0109964 -9.69133e-18 0.00466176)
(-0.00451055 0.00394486 4.27884e-18 0.0105459 2.3824e-18 0.00497345)
(-0.00360673 0.0055232 2.09921e-17 0.00984208 1.71727e-17 0.00530766)
(-0.00242891 0.00686999 -3.06882e-17 0.00911535 -8.61369e-18 0.0056753)
(-0.00109803 0.00800929 -6.08783e-18 0.00838146 2.73702e-17 0.00604204)
(-0.000594188 0.00895031 -2.29231e-18 0.00658632 -3.80412e-18 0.0053961)
(0.00012098 0.00115224 -3.54545e-18 0.000668125 -5.29195e-19 0.000673497)
(0.000163335 0.000545278 1.83487e-18 0.000254833 1.11077e-18 0.000328477)
(6.66275e-16 1.3427e-15 1.53149e-31 4.88953e-16 -2.40903e-31 8.44773e-16)
(8.66155e-16 1.28292e-15 3.90637e-30 3.12046e-16 1.06473e-30 8.21799e-16)
(1.05748e-15 1.54743e-15 3.82045e-30 1.20376e-16 1.23112e-30 8.22145e-16)
(0.375313 0.149195 -4.20324e-17 0.288097 -2.86157e-18 0.341336)
(0.000476563 2.19787e-09 6.75682e-26 0.000476561 7.66139e-26 0.000476562)
(6.88753e-05 3.87408e-16 2.92978e-31 6.88753e-05 -7.52574e-32 6.88753e-05)
(0.00016812 4.22185e-17 -7.53845e-31 0.00016812 -1.09002e-30 0.00016812)
(0.00026487 -7.74466e-15 -4.63769e-29 0.00026487 -2.53926e-31 0.00026487)
(0.000647554 -1.27016e-13 3.68592e-29 0.000647554 2.23458e-30 0.000647554)
(0.00400795 -4.96654e-12 -1.922e-27 0.00400795 3.88602e-28 0.00400795)
(0.0793572 -1.20474e-09 -6.17129e-24 0.0793572 -4.40675e-24 0.0793572)
(0.458783 -0.00020665 -7.98169e-20 0.458735 -3.14637e-19 0.458763)
(9.5925e-06 -6.6555e-12 -9.25779e-26 9.5925e-06 6.68572e-27 9.5925e-06)
(0.330623 -0.00600439 4.01807e-17 0.327761 1.1247e-16 0.32917)
(0.206882 -0.0253288 -6.30704e-21 0.194103 6.42159e-22 0.200647)
(0.104119 -0.0933945 -1.86738e-17 0.139614 1.01719e-16 0.120531)
(5.95362 -3.16183 4.94664e-16 7.80056 2.73918e-15 6.95807)
(11.182 -5.81126 -6.08831e-15 14.7473 5.14909e-15 13.3773)
(0.00838589 -0.00360072 3.62824e-19 -0.0045113 1.8264e-19 0.00204038)
(0.00635618 -0.00193865 -8.25863e-19 -0.00468116 -1.23458e-18 0.000881445)
(0.00514001 -0.000627783 -4.07123e-19 -0.00381469 6.49637e-19 0.000695573)
(0.00869196 0.000549377 2.94268e-18 -0.00602682 1.74324e-18 0.0013591)
(0.0106841 0.00223995 -1.04916e-18 -0.00362818 -5.58218e-18 0.00354517)
(0.0111512 0.00395448 -2.15711e-18 -0.00192208 1.93793e-18 0.00460406)
(0.0103314 0.0055116 5.82989e-18 -0.000558068 4.47012e-18 0.00487276)
(0.00897493 0.00677844 -2.25356e-18 0.00099475 -5.38139e-18 0.00498647)
(0.00730064 0.00766944 -5.49673e-18 0.00278492 -2.28228e-18 0.00505507)
(0.00546276 0.0081258 -4.63285e-18 0.00470379 1.83947e-18 0.00510334)
(0.00364647 0.00815912 6.15492e-18 0.0065886 8.5966e-21 0.00513954)
(0.00196629 0.00784398 -4.39704e-18 0.00832222 -3.46861e-18 0.0051692)
(0.000512485 0.00727725 -5.97732e-18 0.00989937 4.51216e-18 0.00524368)
(-0.000675195 0.00654203 6.82968e-18 0.0113507 2.59179e-18 0.00540444)
(-0.00185238 0.00569512 -1.26433e-17 0.0123939 2.31687e-18 0.00538546)
(-0.00240747 0.00446132 -2.95353e-18 0.0125907 -9.1167e-18 0.00527028)
(-0.00163306 0.0029375 3.57097e-18 0.0118063 4.56522e-18 0.00531763)
(-0.000818231 0.00180954 -1.46384e-17 0.0110056 9.55071e-19 0.00537752)
(-4.13441e-05 0.000968997 5.62481e-18 0.0102056 -2.08196e-19 0.00541163)
(0.000633949 0.000334647 -2.13054e-17 0.00944706 1.81033e-18 0.00540664)
(0.00120001 -0.000158736 -2.41955e-18 0.0087533 6.68317e-19 0.00536832)
(0.00168232 -0.000565725 1.61219e-17 0.00810573 8.63826e-19 0.00530213)
(0.00212201 -0.000918881 1.47229e-17 0.00748602 -3.07973e-18 0.00521491)
(0.00258124 -0.0012065 -1.21654e-17 0.00683498 9.43076e-19 0.00512305)
(0.00306505 -0.00136182 -1.50652e-19 0.00615514 7.40928e-20 0.00503709)
(0.0034902 -0.0013726 -1.08926e-17 0.00553175 2.4051e-18 0.00494046)
(0.00382164 -0.00130239 -1.41097e-19 0.00499086 2.7469e-21 0.00484822)
(0.00407452 -0.00119344 -2.82637e-22 0.00451797 -1.47923e-20 0.00476954)
(0.0042523 -0.00106313 7.3704e-21 0.00411019 -5.93229e-22 0.00468647)
(0.00436786 -0.000920714 3.57274e-18 0.0037538 1.29626e-19 0.00459969)
(0.00440662 -0.000777802 4.71402e-21 0.00344999 -2.52129e-19 0.00448683)
(0.00434981 -0.000638669 -9.17341e-20 0.00318969 -1.3983e-20 0.00432031)
(0.00421249 -0.000507328 -1.95712e-17 0.00296111 -2.12519e-18 0.00410888)
(0.00405085 -0.000395565 -1.70745e-17 0.00278035 -1.33749e-18 0.00389623)
(0.00361779 -0.000282571 4.86475e-20 0.00246476 1.42403e-20 0.00344391)
(0.00359686 -0.000260078 -2.53885e-17 0.00243171 -3.54732e-18 0.00336795)
(6.94099e-05 -4.56917e-06 1.16976e-20 4.53471e-05 -9.4766e-20 6.36814e-05)
(0.0612082 -0.00607917 1.1975e-18 0.0318371 3.54801e-19 0.0516735)
(4.12861 0.933692 -7.7533e-14 1.99495 -1.03081e-14 3.02588)
(0.00190049 -0.00127943 1.34957e-19 -0.00119771 1.47328e-19 0.000339109)
(0.0032981 -0.00300201 -1.96938e-19 -0.00191213 -2.05891e-19 0.000670704)
(0.00122947 -0.0015569 -1.19005e-21 -0.000591135 -8.65581e-21 0.000302931)
(0.000193656 -0.00035641 -8.01274e-21 -5.81497e-05 6.30943e-21 6.374e-05)
(0.00106729 -0.00317657 2.03605e-18 0.000108384 2.11207e-18 0.000546174)
(0.000452185 -0.00318246 -1.30927e-18 0.000747956 -1.60339e-18 0.000544658)
(-0.000140153 -0.00301281 -8.6921e-20 0.00134832 3.62574e-19 0.000536961)
(-0.000647873 -0.00268418 4.34198e-18 0.00184929 4.09085e-18 0.000520605)
(-0.00110239 -0.00239303 -9.7371e-19 0.00236508 9.04506e-20 0.000529346)
(-0.00154782 -0.00212632 -5.53068e-18 0.00295149 -3.68264e-18 0.000568492)
(-0.00181216 -0.00165652 1.7714e-18 0.00328985 1.46071e-18 0.000575146)
(-0.00190423 -0.0011266 -4.70752e-18 0.00342345 -1.52877e-18 0.000565855)
(-0.00193786 -0.000646049 -1.82049e-18 0.00355284 -6.9141e-19 0.000574496)
(-0.00187608 -0.000189581 -3.19537e-18 0.00360609 1.71729e-18 0.000585926)
(-0.00172659 0.000230029 2.83361e-19 0.00358687 1.56968e-19 0.000599953)
(-0.00151128 0.000602803 2.62461e-18 0.00352931 5.79816e-19 0.000622089)
(-5.57896e-05 4.2396e-05 1.77354e-19 0.000155803 2.54345e-19 3.00342e-05)
(-0.000317632 0.000448114 5.6562e-18 0.00119213 1.52483e-18 0.000265857)
(-0.000322346 0.0010733 -4.75486e-18 0.00220455 -1.96271e-19 0.000595721)
(3.78874e-05 0.00167517 6.36293e-18 0.00275935 2.76888e-18 0.000937274)
(0.000568823 0.0017966 9.98062e-19 0.00243306 -2.95806e-18 0.0010731)
(0.000324026 0.000521894 -3.10942e-19 0.000600693 5.64527e-19 0.000351923)
(0.000328061 0.000337941 -1.30919e-18 0.000346123 -7.39278e-19 0.000270634)
(8.19648e-16 5.90722e-16 1.02816e-31 5.94771e-16 -1.1811e-31 5.85581e-16)
(9.1448e-16 5.83481e-16 2.10973e-31 4.82386e-16 -4.45506e-32 6.03133e-16)
(6.66668e-16 2.05348e-21 4.66381e-36 6.66666e-16 -1.35685e-36 6.66666e-16)
(6.66667e-16 9.04475e-27 -7.70045e-42 6.66667e-16 -2.70478e-42 6.66667e-16)
(6.66667e-16 7.83517e-27 -7.46095e-42 6.66667e-16 -3.82294e-43 6.66667e-16)
(6.66667e-16 9.48547e-27 6.70231e-41 6.66667e-16 2.8463e-41 6.66667e-16)
(6.66667e-16 1.0726e-26 -2.40225e-41 6.66667e-16 -9.97698e-41 6.66667e-16)
(6.66667e-16 -1.36154e-26 -8.46276e-40 6.66667e-16 3.18848e-40 6.66667e-16)