/*--------------------------------*- C++ -*----------------------------------*\
| =========                 |                                                 |
| \\      /  F ield         | OpenFOAM: The Open Source CFD Toolbox           |
|  \\    /   O peration     | Version:  2312                                  |
|   \\  /    A nd           | Website:  www.openfoam.com                      |
|    \\/     M anipulation  |                                                 |
\*---------------------------------------------------------------------------*/
FoamFile
{
    version     2.0;
    format      ascii;
    arch        "LSB;label=32;scalar=64";
    class       volSymmTensorField;
    location    "150";
    object      turbulenceProperties:devReff;
}
// * * * * * * * * * * * * * * * * * * * * * * * * * * * * * * * * * * * * * //

dimensions      [0 2 -2 0 0 0 0];

internalField   nonuniform List<symmTensor> 
10720
(
(0.00388971 0.00949928 -7.48382e-21 -0.00418688 -1.42656e-19 0.000297161)
(0.00722405 0.0141021 7.95288e-21 -0.00749573 1.93225e-19 0.00027169)
(0.0122763 0.0179619 4.85521e-20 -0.0129126 2.06506e-19 0.000636269)
(0.0161266 0.0186195 2.64306e-19 -0.0168518 1.86772e-18 0.00072517)
(0.0179321 0.0162515 -7.42899e-19 -0.0185582 -2.87105e-18 0.000626088)
(0.0194315 0.013311 -6.7983e-19 -0.0201438 -1.37251e-18 0.000712307)
(0.021611 0.0109463 1.80482e-19 -0.02233 1.47704e-20 0.000718981)
(0.02493 0.00873967 8.49936e-20 -0.0256726 1.3439e-19 0.000742623)
(0.0299535 0.00618638 2.03631e-19 -0.0308259 -1.64486e-19 0.000872437)
(0.0371521 0.00280564 -3.14239e-20 -0.0381636 -3.15273e-20 0.00101148)
(0.0474431 -0.00238976 3.6295e-18 -0.0486845 1.50685e-18 0.00124141)
(0.0631239 -0.0109328 -8.95766e-19 -0.0647247 -6.87881e-19 0.00160083)
(0.0877048 -0.0259026 2.01794e-18 -0.0898555 -3.02905e-18 0.0021507)
(0.129745 -0.0546961 1.15239e-18 -0.132877 2.49862e-18 0.00313113)
(0.207723 -0.115544 2.36037e-18 -0.212747 -4.18471e-18 0.00502429)
(0.372427 -0.261723 1.03333e-18 -0.381543 2.06545e-17 0.00911594)
(0.677833 -0.589153 1.47803e-16 -0.695273 7.57802e-17 0.0174398)
(1.32152 -1.40358 -5.07834e-17 -1.35739 7.74008e-17 0.0358714)
(2.3996 -3.11759 -3.47136e-17 -2.47096 -4.99828e-16 0.0713615)
(3.55777 -5.70212 3.50341e-17 -3.67389 -4.93559e-19 0.116126)
(4.77461 -9.67555 -7.70786e-16 -4.95339 -5.11423e-16 0.178778)
(6.1913 -16.5019 1.61903e-15 -6.47202 2.13465e-15 0.280717)
(8.6206 -32.3757 -1.02023e-15 -9.16056 -2.41539e-15 0.539964)
(10.8154 -62.005 1.10385e-15 -11.726 2.36944e-16 0.910552)
(11.4028 -103.733 -3.14182e-16 -12.5031 -1.54514e-17 1.10025)
(9.32726 -144.983 1.07686e-16 -10.8791 -2.1354e-15 1.55187)
(6.32937 -278.03 6.82388e-16 -9.61749 -2.1054e-16 3.28812)
(-11.3623 -440.976 8.14705e-16 9.13041 1.48687e-15 2.23191)
(-25.1814 -309.206 1.82648e-14 26.7866 4.87674e-16 -1.60516)
(-14.0886 -110.991 1.04185e-14 14.8233 4.88664e-15 -0.734677)
(-5.55157 -34.074 -3.57985e-15 5.67909 -7.77586e-16 -0.127521)
(-0.815329 -4.19341 -7.49414e-16 0.824585 -3.35997e-16 -0.00925687)
(-0.145041 -0.670874 -2.96483e-17 0.145732 -1.1519e-16 -0.000691132)
(-0.0170594 -0.0788635 -2.25166e-17 0.0171844 -2.3864e-17 -0.000124983)
(-0.000134636 -0.000751322 9.92889e-20 0.00013439 3.22597e-19 2.45583e-07)
(4.76205e-05 -0.000213664 1.01943e-19 -4.3685e-05 9.78008e-19 -3.93546e-06)
(0.027251 0.0579951 -1.49445e-17 -0.0288199 1.48983e-18 0.00156885)
(1.69037 4.26939 -2.07955e-16 -1.57327 -9.44195e-15 -0.117103)
(0.0782777 7.12258 4.99888e-15 0.413532 1.10717e-14 -0.49181)
(0.0028597 0.0099179 4.34057e-21 -0.00298922 -1.31164e-20 0.000129517)
(0.00188881 0.00927809 -2.69605e-20 -0.00213677 2.85835e-20 0.000247956)
(0.000701573 0.00655672 -1.12543e-19 -0.000808167 -8.06439e-20 0.000106594)
(0.00022145 0.0131513 3.41559e-19 -0.000409913 -4.35555e-19 0.000188463)
(-0.000218544 0.00477835 -2.15713e-19 0.000178889 -7.49451e-20 3.96551e-05)
(-0.000333784 0.00630707 -1.73874e-18 0.000387852 2.1939e-18 -5.40678e-05)
(0.000229068 0.00637754 1.18256e-18 5.28904e-05 2.44826e-18 -0.000281958)
(0.00165804 0.00661163 7.34967e-20 -0.00125266 -4.81262e-18 -0.000405387)
(0.00368642 0.0068734 2.07609e-18 -0.00349538 -1.10085e-19 -0.000191042)
(0.0054574 0.00710311 -1.19978e-18 -0.00548069 -3.57087e-19 2.32904e-05)
(0.00712294 0.00808028 8.50902e-19 -0.00722351 2.04223e-18 0.00010057)
(0.00902611 0.0101686 1.48634e-18 -0.00915692 -7.12658e-19 0.000130815)
(0.0113033 0.0135776 -1.35121e-18 -0.0114827 -2.50751e-19 0.000179399)
(0.0148484 0.0196076 2.70371e-19 -0.0151073 3.5984e-19 0.000258969)
(0.0200179 0.0292219 4.06531e-18 -0.0203609 5.77158e-19 0.00034299)
(0.0323005 0.052344 4.53129e-18 -0.0328676 -1.00614e-18 0.000567068)
(0.0502426 0.0900647 2.17672e-18 -0.0511095 3.06628e-18 0.000866931)
(0.143643 0.28447 2.6348e-18 -0.146126 6.60726e-18 0.00248353)
(0.152398 0.332599 2.49583e-18 -0.154977 -1.40726e-18 0.0025788)
(0.169693 0.409411 3.62247e-18 -0.172653 1.87825e-19 0.0029602)
(0.211574 0.566996 -4.71755e-18 -0.215431 -2.85328e-17 0.00385717)
(0.281826 0.850538 -1.55477e-17 -0.287461 -1.92493e-19 0.0056349)
(0.321451 1.11739 1.10542e-17 -0.328902 1.69755e-17 0.00745172)
(0.37103 1.55315 5.29722e-18 -0.382498 -7.89061e-19 0.0114675)
(0.395477 2.10956 1.63029e-16 -0.412146 -2.67897e-17 0.0166698)
(0.375404 2.7228 -5.12598e-19 -0.396378 -9.26012e-18 0.0209746)
(0.206349 2.29188 2.4423e-20 -0.22322 9.00155e-19 0.0168703)
(0.0561699 1.25857 7.44968e-20 -0.0649173 -2.2887e-21 0.00874743)
(0.000855614 0.479606 7.70701e-20 -0.00405003 1.04373e-21 0.00319442)
(-0.00482485 0.124197 3.03084e-18 0.00402659 -9.64082e-20 0.000798256)
(-0.00123649 0.0159742 -1.44465e-20 0.00113689 -7.24494e-22 9.96041e-05)
(-0.000203909 0.0017896 -5.23591e-21 0.000193125 1.29405e-20 1.07837e-05)
(-0.000207927 0.0013997 -2.10861e-19 0.000199846 -2.26709e-20 8.08146e-06)
(-0.000247926 0.00136794 -3.69993e-19 0.00024046 3.22225e-20 7.4656e-06)
(-0.000501415 0.00236097 5.93941e-19 0.000489278 4.3927e-20 1.2137e-05)
(-0.0165182 0.0681301 -1.05181e-19 0.016185 -3.52635e-19 0.000333209)
(-0.000637617 0.00231228 -5.89726e-21 0.000628444 -1.71181e-20 9.17303e-06)
(-0.181162 0.571103 -4.53668e-18 0.173266 1.05953e-17 0.00789541)
(-13.5546 35.3968 -1.22957e-14 13.392 -1.03237e-15 0.162564)
(0.0108034 -0.00824898 -7.45494e-20 -0.00977715 -2.23756e-19 -0.00102623)
(0.0107118 -0.0114922 1.41308e-19 -0.00935106 3.51453e-19 -0.00136075)
(0.0082929 -0.0134146 6.23817e-21 -0.00662063 4.15679e-21 -0.00167227)
(0.00371378 -0.00927425 2.05059e-19 -0.00245021 2.82212e-20 -0.00126357)
(0.00125703 -0.00573833 1.15992e-19 -0.000391962 8.02212e-19 -0.00086507)
(0.000171836 -0.00357951 4.08494e-19 0.000448163 7.24436e-19 -0.00062)
(-0.000252729 -0.00248755 -1.46384e-19 0.000762934 2.37084e-20 -0.000510205)
(-0.000450197 -0.00188825 -1.09402e-19 0.0009148 -3.01544e-20 -0.000464603)
(-0.000559681 -0.00152278 -6.26544e-19 0.00101612 -6.87116e-19 -0.000456438)
(-0.000603599 -0.0012702 -2.02179e-19 0.00106955 -6.9281e-20 -0.000465947)
(-0.000608356 -0.00109228 -1.90581e-18 0.00109659 -1.84571e-18 -0.000488237)
(-0.000570435 -0.000956718 -2.34966e-20 0.00107599 3.08269e-19 -0.000505559)
(-0.00060364 -0.00107192 -1.24149e-18 0.00123397 2.46172e-20 -0.000630326)
(-0.00080473 -0.00175893 1.42168e-18 0.00188829 8.40318e-19 -0.00108356)
(-0.00108675 -0.00383066 -6.16589e-18 0.00339568 -1.8008e-18 -0.00230893)
(-0.000714581 -0.0103521 3.30669e-17 0.00638225 7.92075e-18 -0.00566767)
(0.00384885 -0.0292026 -7.33475e-17 0.00955054 -6.18377e-17 -0.0133994)
(0.0229276 -0.082991 -1.62638e-16 0.0071278 -5.97118e-17 -0.0300554)
(0.082159 -0.229539 -3.98941e-16 -0.0192755 1.64085e-16 -0.0628835)
(0.219116 -0.566502 8.86689e-17 -0.103823 1.6423e-19 -0.115293)
(0.451878 -1.1928 7.51657e-16 -0.271168 8.42333e-16 -0.18071)
(0.785253 -2.24866 -1.30423e-15 -0.51208 -2.18495e-15 -0.273173)
(1.17679 -3.6538 1.23266e-16 -0.751567 2.17146e-15 -0.425225)
(2.65189 -8.48746 5.54382e-17 -1.63129 -9.8439e-16 -1.02059)
(3.74385 -13.4032 -0 -2.06189 -0 -1.68196)
(1.14596 -9.23718 -4.52453e-17 0.742295 9.14322e-16 -1.88825)
(-1.14728 -9.52573 -1.25372e-15 5.62696 2.56294e-16 -4.47968)
(0.398839 -5.77012 -9.33991e-17 1.61689 -9.84498e-16 -2.01572)
(3.51972 -4.15677 -1.3894e-14 -5.2198 -6.02716e-15 1.70008)
(5.31509 -4.26071 -6.96941e-16 -8.41752 -2.37511e-14 3.10244)
(2.1985 -2.76262 1.04836e-15 -3.37423 1.51087e-14 1.17574)
(0.203696 -1.43402 2.83465e-16 -0.41006 7.38214e-15 0.206363)
(-0.117347 -0.849719 -1.58789e-15 0.0876627 1.40806e-15 0.0296846)
(-0.0424511 -0.295348 4.75893e-16 0.0442879 7.15565e-16 -0.00183686)
(-0.00163637 -0.0105738 -4.11736e-19 0.0016769 -4.41497e-18 -4.05282e-05)
(-0.000387043 -0.00222644 9.91072e-19 0.000400285 -5.3712e-19 -1.32422e-05)
(0.00411765 -0.0249705 9.37706e-19 -0.00524232 1.30785e-18 0.00112466)
(-0.281029 -0.748078 2.16728e-15 0.105199 1.80289e-14 0.175831)
(-4.10836 -3.17165 -8.12715e-15 3.84301 -1.87109e-14 0.265355)
(0.00175222 -0.000888154 1.32677e-20 -0.00162718 3.9142e-20 -0.000125035)
(0.00178016 -0.000536832 -6.02216e-21 -0.00166937 -1.86692e-19 -0.00011079)
(0.00202902 -0.000168147 -1.36958e-19 -0.00193283 -3.55048e-19 -9.61876e-05)
(0.00396061 0.000649677 7.38485e-20 -0.00382569 1.18633e-18 -0.000134923)
(0.00293469 0.00135072 5.68093e-19 -0.00288397 -5.29719e-19 -5.07189e-05)
(0.00141073 0.00124846 -1.18863e-19 -0.00141073 -5.04669e-19 3.38128e-09)
(0.000535233 0.000867282 1.94463e-19 -0.000546988 -6.98202e-19 1.17554e-05)
(0.000245062 0.000824857 -5.1089e-19 -0.000266686 -3.7484e-20 2.16234e-05)
(2.09697e-05 0.000846535 -3.14727e-19 -4.42848e-05 6.59281e-19 2.33151e-05)
(-0.000207824 0.000801273 -1.23367e-19 0.000197396 -1.75601e-20 1.04275e-05)
(-0.000375961 0.000678193 -1.20956e-19 0.000388504 -4.01675e-19 -1.25435e-05)
(-0.000553829 0.000642035 2.84428e-20 0.000595564 -2.58305e-19 -4.17348e-05)
(-0.000549767 0.000459235 1.88436e-19 0.000608475 4.84827e-19 -5.87083e-05)
(-0.00311084 0.0019985 -1.15127e-18 0.00353387 -6.57012e-19 -0.000423036)
(-0.00468957 0.00245803 -1.05964e-18 0.00546925 -3.71893e-18 -0.000779687)
(-0.00838898 0.0037994 -9.04034e-18 0.0100434 -2.04711e-18 -0.00165439)
(-0.0124409 0.00521282 -2.46901e-18 0.0152965 7.50551e-20 -0.00285561)
(-0.00110254 0.000456475 -1.56044e-20 0.00139057 -1.46979e-19 -0.000288029)
(-0.00416173 0.00178532 -9.08878e-19 0.00537614 5.79271e-19 -0.0012144)
(-0.0138575 0.00634478 5.75129e-18 0.0183328 -1.90949e-18 -0.00447533)
(-0.0166427 0.00830492 -5.57324e-17 0.0226416 3.51582e-17 -0.00599883)
(-0.0282376 0.0151406 -2.16948e-17 0.0394048 4.2361e-18 -0.0111672)
(-0.0293163 0.0165407 1.04211e-18 0.0423684 -1.9718e-17 -0.013052)
(-0.00926691 0.00567165 4.04208e-17 0.0141186 5.74899e-19 -0.00485171)
(-0.00137468 0.00102735 -5.84557e-18 0.00223789 5.14082e-19 -0.000863207)
(-0.0029426 0.0029346 -1.28274e-17 0.00508332 2.00375e-18 -0.00214072)
(-0.000641413 0.000862117 -2.82669e-20 0.00115258 -1.94403e-20 -0.000511163)
(-0.00114807 0.00196259 -2.10635e-22 0.00208565 -1.10206e-20 -0.000937581)
(-7.45614e-05 0.000155706 -1.39408e-22 0.000132758 -1.89431e-24 -5.81971e-05)
(-0.000454109 0.00112933 2.81577e-20 0.000775105 7.94628e-20 -0.000320996)
(-0.000472168 0.00135273 3.01846e-21 0.000759836 -5.33836e-20 -0.000287668)
(-3.91148e-05 0.000124181 4.94473e-21 5.8635e-05 -1.46294e-20 -1.95202e-05)
(-3.1121e-05 0.00010513 4.09574e-19 4.32035e-05 2.36205e-20 -1.20826e-05)
(-3.82093e-05 0.000132704 3.52811e-19 4.9223e-05 -5.41546e-20 -1.10136e-05)
(-5.47955e-05 0.00018985 -3.57353e-19 6.59357e-05 -6.71401e-21 -1.11403e-05)
(-0.000586067 0.00199297 3.06808e-18 0.000670077 3.92931e-19 -8.40097e-05)
(-9.06774e-05 0.000294265 -6.53812e-19 9.69714e-05 -9.46365e-20 -6.29396e-06)
(-0.0394921 0.11156 -1.94125e-16 0.0467228 -4.17402e-17 -0.00723063)
(-1.0993 3.5641 -1.14968e-14 1.23699 -3.10911e-15 -0.137694)
(0.00166636 -0.00144576 -7.29856e-21 -0.00178186 -2.19776e-20 0.000115498)
(0.00149891 -0.00198762 -1.90851e-19 -0.00165986 -4.26238e-19 0.000160951)
(0.00096712 -0.00221773 1.38484e-19 -0.00115546 3.03093e-19 0.000188337)
(0.000381951 -0.00232124 1.89849e-19 -0.000613242 3.43987e-19 0.000231292)
(-0.00020795 -0.00232871 3.54792e-19 -6.33712e-05 5.10152e-19 0.000271321)
(-0.000814456 -0.00221602 -1.13039e-18 0.000495056 -1.91827e-18 0.0003194)
(-0.00140407 -0.0019737 8.37464e-19 0.00102248 1.61079e-18 0.00038159)
(-0.00192615 -0.00160442 1.17493e-18 0.0014812 1.06072e-18 0.000444941)
(-0.00235136 -0.00111512 -7.08301e-20 0.00184068 1.47373e-19 0.000510681)
(-0.00264086 -0.000548561 8.42605e-19 0.00206354 1.43801e-18 0.000577319)
(-0.00278523 4.73157e-05 -1.86507e-18 0.00214857 -1.18798e-19 0.000636658)
(-0.00279105 0.000635156 2.7125e-18 0.00210184 2.95381e-18 0.000689206)
(-0.00268959 0.00116636 1.33267e-18 0.00197055 5.59548e-19 0.000719036)
(-0.00247881 0.00160026 6.56106e-19 0.00176573 -6.22169e-19 0.00071308)
(-0.00238028 0.00207081 2.08428e-18 0.00164805 2.03113e-18 0.000732227)
(-0.0026626 0.00292843 -6.59008e-18 0.00180278 -6.64306e-18 0.000859824)
(-0.00420175 0.00565306 2.93085e-18 0.00280046 4.32181e-18 0.00140129)
(-0.00930441 0.015059 6.31097e-17 0.00613894 1.8203e-17 0.00316546)
(-0.0216665 0.0422926 5.23856e-17 0.0141666 3.80088e-17 0.00749994)
(-0.0450685 0.108547 -4.14013e-17 0.0289872 -2.58613e-18 0.0160813)
(-0.0738509 0.237778 1.04345e-16 0.0444755 -2.34753e-16 0.0293755)
(-0.0838357 0.463604 3.90378e-17 0.0323964 3.4092e-16 0.0514393)
(0.00977673 0.76208 1.32618e-15 -0.11035 -3.34148e-16 0.100573)
(0.993255 1.58861 -3.44793e-15 -1.37127 -1.4214e-15 0.378019)
(2.5636 -1.25219 2.17521e-16 -2.85105 9.84358e-17 0.287447)
(5.36831 -6.70904 -8.59066e-15 -5.73683 1.87136e-15 0.368521)
(4.58183 -7.73173 1.42527e-15 -4.94392 1.71088e-16 0.362089)
(2.24531 -4.73355 -3.96604e-16 -2.34159 2.8341e-18 0.0962842)
(0.838845 -2.32719 -6.32773e-15 -0.637688 3.51539e-15 -0.201157)
(0.48519 -1.35532 -8.03801e-15 -0.252441 3.2968e-16 -0.232748)
(0.399342 -0.753229 1.45953e-14 -0.209411 -3.95074e-15 -0.189932)
(0.292821 -0.090106 8.14044e-15 -0.156608 3.00976e-15 -0.136213)
(0.086225 0.136312 2.82193e-16 -0.0650736 1.6432e-15 -0.0211514)
(0.0207806 0.0358614 4.79463e-16 -0.0199203 -2.33494e-16 -0.000860258)
(-0.00149251 -0.0172192 3.05615e-17 0.00143754 -8.56266e-18 5.49607e-05)
(-0.000355206 -0.00267084 -1.93449e-18 0.000371482 -1.69664e-18 -1.62762e-05)
(-0.00514479 -0.0259132 6.52523e-19 0.00551438 -9.16919e-18 -0.000369592)
(-0.495633 -1.34459 -1.69732e-15 0.442982 -5.76347e-15 0.0526518)
(-6.94549 -7.44539 1.59532e-15 7.15075 6.46196e-15 -0.205259)
(0.00279555 -0.00153656 -5.45657e-20 -0.00294514 -1.2325e-19 0.000149585)
(0.00339593 -0.00106839 -4.71237e-20 -0.0035268 -1.98264e-20 0.000130869)
(0.00365547 -0.000297198 5.00815e-19 -0.00375734 7.50324e-19 0.000101872)
(0.00314805 0.000482779 -2.73117e-19 -0.00320211 -2.24093e-20 5.40603e-05)
(0.0024659 0.00104605 5.00569e-20 -0.00249096 2.2759e-19 2.50584e-05)
(0.00200476 0.00155953 -7.21415e-20 -0.00201143 8.97602e-19 6.66884e-06)
(0.00146784 0.0019526 -9.61686e-20 -0.00146742 7.53415e-19 -4.14999e-07)
(0.000890681 0.00221963 2.59623e-18 -0.000899009 1.66526e-18 8.32847e-06)
(0.000277961 0.00237915 4.88027e-19 -0.000287425 -5.0659e-19 9.46423e-06)
(-0.00034734 0.00240941 1.54074e-18 0.000337797 1.88463e-19 9.54333e-06)
(-0.000865681 0.00217077 -1.53222e-18 0.000847738 -8.33692e-19 1.79428e-05)
(-0.00122467 0.00183126 -1.16146e-18 0.00118741 1.73758e-18 3.72614e-05)
(-0.000166487 0.000168465 1.89155e-19 0.000158916 -9.09879e-20 7.57129e-06)
(-0.000822861 0.000583786 6.70079e-19 0.000768598 -3.26081e-21 5.42626e-05)
(-0.000628663 0.000309879 -4.98704e-19 0.000572185 4.22081e-19 5.64782e-05)
(-0.000514202 0.000165132 -3.04438e-19 0.000453081 6.77229e-19 6.11208e-05)
(-0.000413441 7.27971e-05 7.58748e-19 0.000350463 -4.20245e-19 6.29777e-05)
(-0.000924939 4.25899e-05 1.73975e-18 0.000750036 -3.23206e-19 0.000174903)
(-0.0022448 -0.000173355 1.88819e-18 0.00173719 -1.94141e-19 0.000507603)
(-0.00032545 -6.60742e-05 -1.08053e-19 0.00023896 3.58825e-19 8.64898e-05)
(-0.000287805 -9.90837e-05 1.59451e-18 0.000198719 1.22304e-19 8.90852e-05)
(-0.00787091 -0.00388984 1.65591e-18 0.00517706 -7.71534e-18 0.00269385)
(-0.00767503 -0.00550746 -1.63632e-19 0.00454771 -5.45571e-19 0.00312732)
(-0.000144828 -0.000160541 -2.51954e-20 6.2729e-05 -1.34836e-19 8.20991e-05)
(-0.00361733 -0.00710843 -5.76904e-19 -0.00011998 3.59259e-18 0.00373731)
(-0.00295465 -0.0146946 1.965e-16 -0.00559894 -1.10274e-17 0.00855359)
(0.000148383 -0.00286017 -1.75728e-19 -0.00201933 1.3047e-20 0.00187094)
(0.000120902 -0.000405811 -6.94794e-19 -0.000427297 1.87002e-20 0.000306395)
(0.000127922 -0.000256157 -4.46151e-21 -0.000330428 9.03247e-23 0.000202506)
(0.000736719 -0.00124405 -3.39689e-18 -0.00162314 -1.20561e-19 0.000886422)
(0.000835762 -0.00144417 5.92735e-18 -0.00165495 4.41982e-19 0.000819191)
(6.11141e-05 -0.000116209 -9.75497e-21 -0.000110664 -2.33972e-22 4.95495e-05)
(5.50925e-05 -0.000116354 -1.02576e-18 -9.19185e-05 4.80819e-20 3.6826e-05)
(4.80557e-05 -0.00011056 -1.3195e-21 -7.41105e-05 6.09216e-20 2.60548e-05)
(3.57882e-05 -8.86575e-05 4.7751e-21 -5.14771e-05 -4.53402e-20 1.56889e-05)
(0.0003134 -0.000777646 -1.95695e-19 -0.000420401 1.80491e-19 0.000107002)
(1.09099e-05 -2.95842e-05 6.7161e-21 -1.3166e-05 3.27921e-20 2.25612e-06)
(0.0252042 -0.0358831 5.23615e-16 -0.0308157 1.40031e-16 0.00561146)
(0.0509046 2.82311 6.67869e-14 -0.192414 1.51427e-14 0.14151)
(0.00418166 -0.00333805 -9.34958e-20 -0.0040685 -1.6058e-19 -0.000113159)
(0.00353155 -0.00396202 -1.91018e-19 -0.00340616 -3.11723e-19 -0.000125393)
(0.00268011 -0.004498 3.73287e-19 -0.00251919 5.32858e-19 -0.00016092)
(0.00175534 -0.00488327 4.78758e-19 -0.00156104 5.09757e-19 -0.000194298)
(0.000798346 -0.00508584 5.79679e-20 -0.000562364 -1.92914e-20 -0.000235982)
(-0.000190433 -0.00510423 -1.73802e-19 0.000478996 4.47935e-19 -0.000288564)
(-0.00113576 -0.00492759 4.02697e-18 0.00148285 4.02692e-18 -0.000347093)
(-0.00198366 -0.0045807 -3.94141e-18 0.00239697 -5.11585e-18 -0.000413304)
(-0.00271724 -0.0040988 1.0717e-18 0.00321087 2.79887e-19 -0.000493629)
(-0.00331026 -0.00353315 5.78245e-18 0.00389186 4.27852e-18 -0.000581594)
(-0.00376471 -0.0029172 4.95571e-18 0.0044489 4.95791e-18 -0.000684192)
(-0.00408968 -0.00228172 5.81286e-18 0.00489053 1.74264e-18 -0.000800848)
(-0.00429583 -0.0016541 -7.10011e-18 0.00522655 -5.34432e-18 -0.000930723)
(-0.00440472 -0.00103989 -5.05764e-18 0.0054711 -4.92439e-18 -0.00106639)
(-0.00442418 -0.000460905 5.91453e-19 0.00564235 -1.84976e-18 -0.00121817)
(-0.00438575 0.000136722 -1.5793e-17 0.0057606 1.0287e-18 -0.00137485)
(-0.00423043 0.000834046 -5.16389e-18 0.00572959 -6.42841e-18 -0.00149916)
(-0.00385302 0.00159661 -3.34517e-17 0.0053998 -2.57415e-17 -0.00154678)
(-0.00134074 0.000986079 1.59682e-18 0.00194298 -2.18188e-18 -0.000602246)
(-3.31982e-05 4.10736e-05 2.34408e-20 4.97906e-05 -5.4961e-20 -1.65925e-05)
(-2.39659e-05 5.06467e-05 -2.53838e-19 3.75154e-05 2.05096e-21 -1.35496e-05)
(-1.45852e-05 5.86292e-05 4.13688e-20 2.52305e-05 8.10758e-21 -1.06453e-05)
(-5.42528e-06 6.17901e-05 -2.0334e-19 1.35345e-05 -3.8326e-20 -8.10922e-06)
(0.00185898 0.0353341 -4.08912e-17 0.00120057 4.38041e-17 -0.00305955)
(0.286671 0.696219 2.8255e-16 -0.281956 1.89076e-17 -0.00471462)
(2.56905e-05 8.02872e-06 5.95055e-20 -2.82409e-05 1.76396e-20 2.55037e-06)
(2.97524e-05 -1.91107e-05 -4.00169e-21 -3.37298e-05 4.16823e-21 3.97745e-06)
(2.50952e-05 -3.38206e-05 6.09371e-21 -2.82683e-05 4.63842e-22 3.17305e-06)
(1.82397e-05 -4.18008e-05 8.60496e-20 -1.92356e-05 -1.81198e-20 9.95908e-07)
(1.38536e-05 -4.68108e-05 -8.5283e-21 -1.43519e-05 3.6458e-20 4.98258e-07)
(1.08321e-05 -4.64428e-05 -1.33089e-19 -1.14944e-05 -6.47156e-20 6.62307e-07)
(8.71784e-05 -0.000393082 2.34707e-18 -9.37496e-05 -1.96123e-18 6.57118e-06)
(0.0172012 -0.0715678 3.99648e-16 -0.0190455 -3.51026e-17 0.00184435)
(0.0217576 0.00975769 -1.37271e-16 -0.0235044 -7.54028e-16 0.00174682)
(0.00540447 0.000237104 -2.43227e-16 -0.00593719 -3.74096e-17 0.000532719)
(-0.000366082 -0.00794386 6.33811e-19 0.000399068 5.3127e-18 -3.29864e-05)
(-0.0225237 -0.113161 -7.50804e-17 0.0238435 1.17088e-18 -0.0013198)
(-0.982383 -3.20784 -3.0225e-16 0.91107 -4.68312e-15 0.0713135)
(-4.76265 -8.80764 2.26435e-15 4.53727 -1.33631e-15 0.225382)
(0.00513667 -0.00278757 -5.27509e-20 -0.00505561 -3.11742e-20 -8.10592e-05)
(0.00450593 -0.00152007 1.53096e-19 -0.00444869 7.41044e-19 -5.72304e-05)
(0.00439026 -0.000532578 4.59326e-19 -0.00436675 9.38869e-19 -2.35136e-05)
(0.00439388 0.000449323 5.6224e-19 -0.00438397 -2.8196e-19 -9.91697e-06)
(0.00414044 0.00147234 -1.15363e-18 -0.00414357 -9.01475e-19 3.12585e-06)
(0.00366197 0.00247369 -1.84064e-19 -0.00366223 -1.42021e-18 2.59288e-07)
(0.002947 0.00336762 -2.12541e-18 -0.00294576 -1.8893e-18 -1.23613e-06)
(0.00200817 0.00401989 -3.16654e-18 -0.00201439 -5.78557e-20 6.2109e-06)
(0.000934099 0.00441896 -8.36177e-19 -0.000950019 -5.70817e-19 1.59201e-05)
(-0.000189698 0.00454302 1.32848e-18 0.000166648 -8.92962e-19 2.30497e-05)
(-0.00124542 0.00441601 1.34149e-18 0.00122413 3.07528e-18 2.12864e-05)
(-0.00217306 0.00410686 3.35226e-18 0.00216551 -1.30566e-18 7.54815e-06)
(-0.0029457 0.00366581 -3.34197e-18 0.00296513 -3.27312e-18 -1.94264e-05)
(-0.00339647 0.00300783 -4.87991e-19 0.00345279 1.3891e-18 -5.63228e-05)
(-0.00326068 0.00212928 3.59418e-18 0.00335344 -8.32413e-19 -9.27602e-05)
(-0.0029972 0.00145921 7.29249e-18 0.00312199 -6.37388e-19 -0.000124798)
(-0.00275138 0.000995464 -4.86241e-18 0.00290718 -1.01429e-18 -0.000155807)
(-0.00257036 0.000676016 -1.31761e-18 0.00275701 -1.89671e-18 -0.000186648)
(-0.00253966 0.000456932 -6.58515e-19 0.0027657 3.74301e-19 -0.000226036)
(-0.00246302 0.000252627 8.7809e-18 0.00271996 -3.17587e-18 -0.000256932)
(-0.00226327 5.62918e-05 1.44073e-18 0.00253464 -1.96632e-18 -0.00027137)
(-0.0021309 -0.000141137 -8.98278e-18 0.00241539 2.3951e-18 -0.000284498)
(-0.00191387 -0.000341159 -3.172e-19 0.00219867 1.08474e-18 -0.000284797)
(-0.00145221 -0.000463605 -1.06425e-19 0.00170044 -5.97162e-19 -0.000248233)
(-0.0012169 -0.000566681 7.80148e-20 0.00147798 -6.48808e-21 -0.000261085)
(-0.000888874 -0.000527815 -5.32201e-18 0.00114247 -5.73123e-19 -0.000253596)
(-0.000599415 -0.000427167 -4.56151e-20 0.000822862 7.66682e-21 -0.000223447)
(-0.000491935 -0.000399483 9.19385e-19 0.000728635 -8.56024e-21 -0.0002367)
(-0.000368907 -0.000332544 -3.38814e-20 0.000591754 -5.87822e-22 -0.000222847)
(-0.000305407 -0.000293441 9.60546e-21 0.000532647 -6.42568e-20 -0.00022724)
(-0.000246004 -0.000252062 -2.29136e-18 0.000465632 1.68336e-20 -0.000219629)
(-0.000187828 -0.000215604 -5.17836e-20 0.000387344 -3.17172e-21 -0.000199516)
(-0.000129091 -0.000188711 3.66763e-20 0.000294968 -1.46773e-19 -0.000165877)
(-7.20411e-05 -0.000174021 4.48552e-18 0.000195726 5.95536e-19 -0.000123685)
(-2.16936e-05 -0.000141684 2.38218e-20 9.17509e-05 2.549e-21 -7.00573e-05)
(7.94462e-06 -0.000106466 -2.37175e-18 2.32045e-05 -2.81422e-19 -3.11491e-05)
(4.18652e-06 -1.87275e-05 1.13597e-18 -1.06029e-06 1.63446e-19 -3.12623e-06)
(0.0117547 -0.0281572 1.1129e-17 -0.00895467 -4.62175e-17 -0.0028)
(1.1559 1.66923 1.56976e-15 -1.06737 -8.72019e-15 -0.0885286)
(0.00585931 -0.0048402 -2.0216e-19 -0.00592606 -2.78768e-19 6.67473e-05)
(0.00487889 -0.00575359 -3.81322e-19 -0.00497665 -5.17917e-19 9.77624e-05)
(0.00367101 -0.00661432 1.30961e-18 -0.00378146 1.66975e-18 0.000110449)
(0.00227413 -0.00725329 -5.64041e-18 -0.00242014 -7.4185e-18 0.00014601)
(0.000747118 -0.00759821 1.43484e-18 -0.000932396 2.04883e-18 0.000185278)
(-0.000892917 -0.0076711 3.23111e-18 0.000665506 3.3295e-18 0.000227411)
(-0.00255173 -0.00738671 -2.93748e-18 0.00226399 -4.56657e-18 0.000287737)
(-0.00414185 -0.00675679 -1.86104e-18 0.00378141 2.91033e-19 0.000360444)
(-0.0056035 -0.00579746 -1.30805e-17 0.00515869 -1.21664e-17 0.000444815)
(-0.00685555 -0.00454462 -2.16336e-18 0.00630391 -5.20888e-18 0.000551635)
(-0.00783662 -0.00304287 3.99277e-19 0.00716198 -1.2939e-18 0.000674636)
(-0.00849369 -0.00135315 -8.37887e-18 0.00767648 -1.0285e-17 0.000817209)
(-0.00878802 0.000442929 4.35124e-18 0.00780975 5.06848e-18 0.000978274)
(-0.00870952 0.00225093 -1.90701e-17 0.00756162 -9.81238e-18 0.0011479)
(-0.00827459 0.0039904 4.32824e-18 0.00695569 2.4099e-18 0.0013189)
(-0.00753434 0.00558243 2.12173e-17 0.00605869 1.73568e-17 0.00147565)
(-0.00661457 0.00693825 -3.09931e-17 0.0050444 -8.69927e-18 0.00157017)
(-0.00559041 0.00808238 -6.14339e-18 0.00397559 2.762e-17 0.00161482)
(-0.00442671 0.00902462 -2.31134e-18 0.0028134 -3.8357e-18 0.00161331)
(-0.000389698 0.00122499 -3.76931e-18 0.000191994 -5.62609e-19 0.000197704)
(-9.63884e-05 0.000614386 2.06742e-18 6.70523e-06 1.25154e-18 8.96832e-05)
(-1.86664e-08 6.39527e-05 7.29445e-21 -8.46449e-06 -1.14742e-20 8.48315e-06)
(8.89324e-06 5.71931e-05 1.74147e-19 -1.58091e-05 4.74661e-20 6.91586e-06)
(1.2781e-05 5.06065e-05 1.24943e-19 -1.78657e-05 4.02621e-20 5.08472e-06)
(0.0404093 0.149239 -4.20449e-17 -0.0468317 -2.86242e-18 0.00642242)
(1.29372e-05 3.49764e-05 1.07527e-21 -1.3689e-05 1.21922e-21 7.51864e-07)
(1.41269e-05 1.79483e-05 1.35734e-20 -1.45554e-05 -3.48661e-21 4.285e-07)
(1.4296e-05 3.4543e-07 -6.16793e-21 -1.43764e-05 -8.91853e-21 8.03402e-08)
(1.3784e-05 -1.44614e-05 -8.65984e-20 -1.38892e-05 -4.74149e-22 1.05189e-07)
(1.23097e-05 -2.79558e-05 8.11262e-21 -1.25839e-05 4.91826e-22 2.74242e-07)
(1.00407e-05 -3.9495e-05 -1.52841e-20 -1.04982e-05 3.09024e-21 4.57499e-07)
(7.81938e-06 -4.77276e-05 -2.44485e-19 -8.45932e-06 -1.7458e-19 6.39937e-07)
(2.90914e-05 -0.000260278 -1.0053e-19 -3.2281e-05 -3.9629e-19 3.18958e-06)
(2.48903e-06 -4.90498e-05 -6.82282e-19 -2.71122e-06 4.92725e-20 2.22189e-07)
(0.00144022 -0.00601055 4.0222e-17 -0.00142524 1.12585e-16 -1.49772e-05)
(0.00634872 -0.0253703 -6.31737e-21 -0.00645165 6.43211e-22 0.000102937)
(-0.0173601 -0.0937053 -1.87359e-17 0.0182533 1.02057e-16 -0.000893253)
(-0.950592 -3.16226 4.94732e-16 0.896602 2.73955e-15 0.0539903)
(-1.92031 -5.81153 -6.0886e-15 1.64519 5.14934e-15 0.275115)
(0.0065707 -0.00368856 3.71675e-19 -0.0066411 1.87095e-19 7.03973e-05)
(0.00567237 -0.00199795 -8.51122e-19 -0.00570255 -1.27234e-18 3.01845e-05)
(0.00464058 -0.000652269 -4.23002e-19 -0.00466338 6.74975e-19 2.27986e-05)
(0.0075221 0.000562199 3.01136e-18 -0.0075402 1.78393e-18 1.81025e-05)
(0.00730904 0.00228964 -1.07244e-18 -0.00732076 -5.70602e-18 1.17247e-05)
(0.00667554 0.00403635 -2.20177e-18 -0.0066684 1.97805e-18 -7.14183e-06)
(0.0055539 0.00561733 5.94173e-18 -0.00554445 4.55588e-18 -9.44438e-06)
(0.00405976 0.00689772 -2.29321e-18 -0.00406086 -5.47609e-18 1.10366e-06)
(0.00228963 0.0077915 -5.58422e-18 -0.00229796 -2.3186e-18 8.32343e-06)
(0.000378063 0.00824059 -4.6983e-18 -0.00039163 1.86546e-18 1.35666e-05)
(-0.00149662 0.00825968 6.23078e-18 0.00148177 8.70256e-21 1.48496e-05)
(-0.00322008 0.00792718 -4.44368e-18 0.00320328 -3.5054e-18 1.68026e-05)
(-0.00474847 0.00734288 -6.03124e-18 0.00472308 4.55286e-18 2.53941e-05)
(-0.00608093 0.00659163 6.88146e-18 0.00603613 2.61144e-18 4.48013e-05)
(-0.0072067 0.00573117 -1.27233e-17 0.00712974 2.33154e-18 7.69555e-05)
(-0.00760132 0.00448652 -2.97021e-18 0.00748154 -9.16818e-18 0.00011978)
(-0.00683563 0.00295433 3.59143e-18 0.00668074 4.59138e-18 0.000154885)
(-0.00604142 0.00182005 -1.47235e-17 0.00585108 9.60622e-19 0.000190337)
(-0.00526435 0.000974743 5.65816e-18 0.0050434 -2.09431e-19 0.000220952)
(-0.00455611 0.000336679 -2.14348e-17 0.00431054 1.82132e-18 0.00024557)
(-0.00393155 -0.000159726 -2.43463e-18 0.00366881 6.72483e-19 0.000262738)
(-0.00336921 -0.000569353 1.62253e-17 0.0030954 8.69366e-19 0.000273817)
(-0.0028376 -0.000924953 1.48202e-17 0.00256186 -3.10008e-18 0.000275741)
(-0.00228061 -0.00121472 -1.22482e-17 0.0020021 9.49499e-19 0.000278508)
(-0.00169921 -0.00137137 -1.51708e-19 0.00141255 7.46125e-20 0.000286658)
(-0.00117236 -0.00138253 -1.09714e-17 0.000883961 2.4225e-18 0.000288396)
(-0.000737391 -0.0013121 -1.42149e-19 0.000440545 2.76739e-21 0.000296846)
(-0.000382405 -0.0012026 -2.84806e-22 6.44524e-05 -1.49058e-20 0.000317953)
(-9.81209e-05 -0.00107151 7.42846e-21 -0.00024135 -5.97902e-22 0.000339471)
(0.000128441 -0.000928156 3.60162e-18 -0.000490583 1.30674e-19 0.000362142)
(0.000294571 -0.00078427 4.75321e-21 -0.000670016 -2.54225e-19 0.000375445)
(0.000399955 -0.000644168 -9.2524e-20 -0.000770159 -1.41034e-20 0.000370204)
(0.000455718 -0.000511883 -1.97469e-17 -0.000806895 -2.14427e-18 0.000351177)
(0.000479464 -0.000399251 -1.72336e-17 -0.000802869 -1.34995e-18 0.000323404)
(0.000446869 -0.000285488 4.91497e-20 -0.000718067 1.43873e-20 0.000271198)
(0.000469442 -0.00026274 -2.56484e-17 -0.000707629 -3.58363e-18 0.000238188)
(1.51116e-05 -6.95312e-06 1.78008e-20 -2.15059e-05 -1.4421e-19 6.39428e-06)
(0.0129766 -0.00608292 1.19823e-18 -0.0164126 3.5502e-19 0.00343602)
(1.0788 0.933696 -7.75334e-14 -1.05487 -1.03081e-14 -0.0239325)
(0.00166737 -0.00137349 1.44878e-19 -0.00165858 1.58158e-19 -8.79051e-06)
(0.00271004 -0.00311405 -2.04288e-19 -0.00269463 -2.13575e-19 -1.54103e-05)
(0.000991026 -0.00168494 -1.28792e-21 -0.00097931 -9.36767e-21 -1.1716e-05)
(0.000177001 -0.000495793 -1.11463e-20 -0.000173279 8.77688e-21 -3.72159e-06)
(0.000515823 -0.00332134 2.12885e-18 -0.000486782 2.20833e-18 -2.90405e-05)
(-0.000135268 -0.00332641 -1.3685e-18 0.000173881 -1.67592e-18 -3.86127e-05)
(-0.000754662 -0.00314971 -9.08707e-20 0.000801443 3.79049e-19 -4.67809e-05)
(-0.00127843 -0.0028084 4.54292e-18 0.0013343 4.28017e-18 -5.58739e-05)
(-0.00177574 -0.00250004 -1.01725e-18 0.00184678 9.44954e-20 -7.10405e-05)
(-0.00229539 -0.00221327 -5.75685e-18 0.00238792 -3.83323e-18 -9.25279e-05)
(-0.00259523 -0.00172208 1.8415e-18 0.00270868 1.51851e-18 -0.000113453)
(-0.00270137 -0.00117087 -4.89246e-18 0.00283562 -1.58884e-18 -0.000134248)
(-0.00276845 -0.000670452 -1.88926e-18 0.00292965 -7.17526e-19 -0.000161197)
(-0.00274366 -0.000196425 -3.31073e-18 0.00293643 1.77929e-18 -0.000192771)