/*--------------------------------*- C++ -*----------------------------------*\
| =========                 |                                                 |
| \\      /  F ield         | OpenFOAM: The Open Source CFD Toolbox           |
|  \\    /   O peration     | Version:  2312                                  |
|   \\  /    A nd           | Website:  www.openfoam.com                      |
|    \\/     M anipulation  |                                                 |
\*---------------------------------------------------------------------------*/
FoamFile
{
    version     2.0;
    format      ascii;
    arch        "LSB;label=32;scalar=64";
    class       volScalarField;
    location    "150";
    object      turbulenceProperties:k;
}
// * * * * * * * * * * * * * * * * * * * * * * * * * * * * * * * * * * * * * //

dimensions      [0 2 -2 0 0 0 0];

internalField   nonuniform List<scalar> 
10720
(
0.0227318
0.0232791
0.0280593
0.0333676
0.0401144
0.048443
0.0587135
0.0715475
0.0885372
0.112175
0.146731
0.201436
0.290924
0.451567
0.766649
1.47348
2.912
6.25348
12.7586
21.7804
34.9371
57.0254
108.329
203.335
336.872
468.876
897.374
1422.92
1009.37
440.689
145.411
21.9154
3.93039
0.461911
1e-15
0.00893262
0.583051
14.835
25.8127
0.0296584
0.0273055
0.0183457
0.0156913
0.0132092
0.0185035
0.018306
0.0183024
0.0204653
0.023632
0.0290175
0.0379921
0.05147
0.0747238
0.109237
0.191096
0.277676
0.679619
1.00832
1.28608
1.70301
2.52758
3.59718
5.08302
6.87929
8.81171
8.13317
5.0056
2.07391
0.558247
0.0662845
0.00160746
1e-15
1e-15
0.0035093
0.206903
0.00323022
1.58526
122.174
0.00535593
0.00705101
0.00649366
0.00640675
0.00613075
0.00570227
0.00529188
0.00487875
0.00454969
0.0042863
0.00412561
0.00394109
0.00477579
0.00823021
0.0175835
0.0441555
0.114168
0.305106
0.816343
1.97953
4.11354
7.66323
12.3612
28.6646
78.1565
125.51
333.689
634.021
533.393
323.405
154.126
56.5896
15.4659
2.05551
0.0397365
0.00549434
0.341461
8.55224
27.5508
0.000245085
0.0044162
0.00504906
0.00880975
0.00913512
0.00496765
0.00205427
0.00157837
0.00171233
0.00179094
0.0017534
0.00222497
0.00190518
0.0123196
0.0182857
0.0328758
0.0495223
0.00430228
0.0172663
0.247872
0.3416
0.131037
0.142002
1.07243
0.134424
0.291813
0.0557015
0.0962634
0.00476338
0.0310975
0.0297023
0.000754654
1e-15
1e-15
0.000192655
0.0108199
0.000177466
0.382419
28.0411
0.00225963
0.000961655
0.00155059
0.00160197
0.00180747
0.00202078
0.00221251
0.0023834
0.00253506
0.00267826
0.00281676
0.00296442
0.00313073
0.00268005
0.00440555
0.00936639
0.0214853
0.0561057
0.15196
0.377495
0.80257
1.52717
2.51316
6.64446
15.5247
39.5177
133.949
264.697
239.449
176.865
104.372
50.2938
17.9039
3.58232
0.29589
0.0116057
0.0932788
7.56035
33.0864
0.00491676
0.0103335
0.0102742
0.00616761
0.00169757
0.00101088
0.000629733
0.000590798
0.000622252
0.000645998
0.000650583
0.000759725
6.37624e-05
0.000531271
0.000458679
0.000442303
0.000426661
0.00123923
0.00372839
0.000607752
0.00064562
0.0267098
0.0295027
0.000666516
0.0289573
0.0630079
0.0127143
0.00226185
0.00165779
0.00754264
0.0072954
0.000492619
0.000437725
0.000355787
0.000224839
0.00268345
1e-15
0.149194
10.4099
0.00850861
0.00827514
0.00818603
0.00795335
0.00804873
0.00817687
0.00824132
0.00828182
0.00832068
0.00835505
0.00838274
0.00842732
0.00849312
0.00852758
0.00855329
0.00859239
0.00787214
0.00438982
0.00132489
1e-15
1e-15
1e-15
1e-15
0.114752
2.4259
0.0033931
0.000482583
0.00116054
0.00180335
0.00435286
0.0266251
0.521471
2.98456
2.68654
0.994058
0.0443544
0.196798
10.6999
32.1461
0.0105024
0.00656211
0.00148681
0.00116271
0.00103418
0.00140236
0.00282007
0.00287725
0.00286218
0.00282798
0.00278053
0.00288018
0.00265296
0.00241264
0.00244769
0.00247329
0.00255217
0.0027089
0.00305023
0.00336673
0.00349434
0.00371038
0.00379644
0.00339079
0.00348511
0.00316314
0.00264333
0.00266223
0.00244888
0.00245774
0.00240008
0.00225224
0.00198312
0.00159844
0.00100237
0.000472437
8.54561e-06
0.0976323
6.48352
0.00727904
0.00638679
0.00608276
0.00578132
0.00555369
0.00542892
0.00519949
0.00499031
0.00490666
0.00489186
0.00494041
0.00501632
0.00512367
0.00529203
0.0055044
0.00577151
0.00618087
0.00666273
0.00569411
0.000731301
0.000373322
1e-15
1e-15
1e-15
0.502373
0.000714843
0.000103313
0.00025218
0.000397305
0.000971332
0.00601193
0.119036
0.68814
1.43888e-05
0.493777
0.300816
0.182132
10.3561
19.6533
0.00295749
0.00127823
0.00101045
0.00201212
0.00530055
0.00691659
0.00732304
0.00747807
0.00757031
0.00763495
0.00768731
0.00772885
0.00782777
0.00803997
0.00796349
0.00772675
0.00774544
0.00778243
0.00778796
0.00774382
0.00766081
0.00754509
0.00741147
0.00726963
0.00712864
0.00698121
0.00683036
0.00668101
0.00652448
0.00636067
0.00617172
0.00592991
0.00564124
0.00536371
0.00476323
0.00469826
8.92192e-05
0.0723594
4.57472
0.000520947
0.00102834
0.000470634
9.9623e-05
0.000860923
0.0008724
0.000872563
0.000861011
0.000896019
0.000986077
0.00102642
0.00104254
0.00109474
0.00115797
0.00123012
0.00132006
6.50237e-05
0.000570175
0.00123896
0.00186725
0.00203749
0.000638321
0.000472409
1e-15
1e-15
1e-15
1e-15
1e-15
1e-15
1e-15
1e-15
1e-15
1e-15
3.34147e-06
4.20561e-07
4.79106e-06
5.90729e-05
0.00329716
0.000270221
0.000982846
0.00129978
0.00483302
0.00624058
0.00577979
0.00472852
0.00467134
0.00483838
0.00502177
0.00521353
0.00542196
0.00565058
0.00590095
0.0061556
0.00648624
0.00685171
0.00718251
0.00738014
0.00749747
0.00756304
0.00758652
0.00757643
0.00753323
0.00746299
0.00737153
0.00726105
0.00713553
0.00699849
0.00685126
0.00669576
0.00654181
0.00631846
0.00612112
0.00609096
0.00568776
0.00577607
0.000115124
0.0486418
2.92814
0.000275643
0.000649988
0.00102497
0.00118415
0.00130362
0.00139978
0.00151641
0.00147242
0.00165157
0.00216383
0.00220799
0.00204463
0.0020891
0.00212123
0.00215079
0.00218246
0.00220348
0.00212591
0.00209173
0.00228933
0.00271618
0.00275292
0.00250301
0.00115478
0.000355859
2.60348e-07
1e-15
1e-15
1e-15
1e-15
1e-15
1e-15
1e-15
1e-15
9.77796e-08
1.12347e-06
1e-15
0.000784905
6.47522e-05
0.00380053
0.00604984
0.00554483
0.00311569
0.00137682
0.000511665
0.000473475
0.000533627
0.000644507
0.000782077
0.000944356
0.00113605
0.00136331
0.00161345
0.00189706
0.00226956
0.00256846
0.00271897
0.00278432
0.00281113
0.00279852
0.00275922
0.00269849
0.00264655
0.00259926
0.0025518
0.00250482
0.00245855
0.00241314
0.00236792
0.00233013
0.00234707
0.00241827
0.00257411
0.00268123
0.00351946
7.36058e-05
0.0254328
1.45803
0.00532861
0.00511705
0.00520049
0.00539011
0.00538396
0.00533453
0.00544809
0.00554432
0.00558622
0.00563713
0.00572692
0.00579632
0.00587423
0.00595847
0.00601383
0.00605123
0.00610304
0.00610753
0.00590172
0.00558415
0.00534781
0.00527422
0.00526363
0.00531512
0.00183812
1.32154e-06
6.40068e-08
1e-15
1e-15
1e-15
1e-15
1e-15
1e-15
1e-15
1e-15
1e-15
1e-15
4.62028e-13
2.55053e-11
0.00598704
0.00375492
0.000752852
0.000497125
0.00039351
0.000324497
0.000330305
0.000340524
0.000355139
0.000374116
0.000394491
0.000419893
0.000453581
0.000493106
0.000541514
0.00060799
0.000683611
0.000710262
0.000707429
0.000725037
0.000736002
0.00071785
0.000726386
0.0007636
0.000767054
0.000768386
0.000768268
0.000766834
0.000764214
0.000760243
0.000756363
0.000791763
0.000794869
0.000773622
0.000790411
0.000351966
0.000132546
0.00833268
0.455084
0.00452391
0.0040467
0.00378809
0.00360656
0.00349856
0.00338443
0.00329896
0.00324287
0.00322002
0.00322878
0.00326446
0.00329467
0.00340905
0.00361876
0.00374311
0.00386031
0.00407519
0.00436137
0.00470616
0.00497181
0.00515199
0.00525082
0.0053355
0.00533832
0.00612547
1.68637e-05
8.48624e-07
1e-15
1e-15
1e-15
1e-15
1e-15
1e-15
1e-15
1e-15
1e-15
1e-15
1e-15
6.0675e-12
0.00185721
0.000692992
0.000381727
1.38923e-05
0.00155982
0.00182421
0.00186209
0.00187204
0.00185921
0.00183773
0.00181018
0.00177552
0.00173601
0.00169615
0.00165824
0.00161822
0.00168764
0.00157961
0.00137362
0.00133322
0.0012967
0.00112795
0.00113947
0.00130195
0.00128654
0.00126816
0.00124769
0.00122559
0.00120223
0.00117747
0.00115024
0.0012548
0.00115194
0.00085096
0.000741957
0.000633743
0.000559688
0.00123008
0.0633992
0.000631368
0.000764685
0.000392325
0.000183276
2.51813e-05
0.000481289
0.000481927
0.000494041
0.000509879
0.000526864
0.000549844
0.000572416
0.000607747
0.000660598
4.43847e-06
0.000161326
0.000365029
0.000588395
0.000944986
0.00157472
0.00229478
0.0028663
0.00340491
0.00355653
0.00525303
3.35786e-05
1.75446e-06
1e-15
1e-15
1e-15
1e-15
1e-15
1e-15
1e-15
1e-15
1e-15
1e-15
1e-15
1e-15
0.000461015
0.000656528
0.00215458
0.00366104
0.00410403
0.00408394
0.00409045
0.00411473
0.00413634
0.00415748
0.00417894
0.00419727
0.0042105
0.00421566
0.00420988
0.00419244
0.00416515
0.00416671
0.00414964
0.00411995
0.00408146
0.00403639
0.00395574
0.00387764
0.00380167
0.00372698
0.0036524
0.00357686
0.00349938
0.00341986
0.00334126
0.00326254
0.00311865
0.00290602
0.00254488
0.00225774
0.00219237
0.00029582
0.015004
0.000563612
0.00041776
0.000420149
0.000413069
6.13384e-05
0.000180206
0.000281277
0.000374685
0.000457018
0.000524239
0.000580196
0.000628994
0.000670588
0.00070867
0.000747923
0.000795986
0.000857224
0.000897639
0.000904106
0.00106499
0.00139786
0.00177917
0.00225547
0.00242592
0.00396895
6.07344e-05
3.29317e-06
1e-15
1e-15
1e-15
1e-15
1e-15
1e-15
1e-15
1e-15
1e-15
1e-15
1e-15
1e-15
0.00135301
0.00335923
0.00360338
0.00298016
0.00264719
0.00257923
0.00256201
0.00258627
0.00262859
0.0026827
0.00274532
0.00281394
0.00287942
0.0029249
0.00294076
0.00294196
0.00293618
0.00292243
0.00289952
0.00286973
0.00283487
0.00279595
0.00275369
0.00270948
0.00266466
0.0026189
0.00257224
0.00252469
0.00247619
0.00242705
0.00237727
0.00233677
0.00231619
0.00229118
0.00224822
0.00214851
0.00220767
0.00110966
2.3645e-05
0.00256809
0.00260547
0.00276826
0.00295114
0.00312948
0.00330299
0.00344919
0.00357084
0.00367425
0.00375933
0.00382987
0.00388914
0.00393779
0.00397811
0.0040112
0.00403797
0.0040603
0.00422675
0.00415258
0.00375265
0.00350631
0.00330357
0.0032382
0.00299514
0.00391376
0.000143107
8.04697e-06
1e-15
1e-15
1e-15
1e-15
1e-15
1e-15
1e-15
1e-15
1e-15
1e-15
1e-15
1e-15
0.0037501
0.00308236
0.00161651
0.000465239
0.000158753
0.00015874
0.000148855
0.000152843
0.000171926
0.000203832
0.000241702
0.000283842
0.000315943
0.000337735
0.000349299
0.000358949
0.000370954
0.000378428
0.000378815
0.000376313
0.000372198
0.000366311
0.000359106
0.000352136
0.000346374
0.000341369
0.000337073
0.000333549
0.00033106
0.000329784
0.00032804
0.000327118
0.000368953
0.000466497
0.000598761
0.000752187
0.000949584
0.00121048
3.09472e-05
0.00361191
0.00324048
0.00316487
0.00314063
0.0031073
0.00309369
0.00309929
0.00311325
0.00314014
0.00317867
0.00322633
0.00328314
0.00334826
0.00342362
0.00350567
0.00359421
0.00370166
0.00379606
0.00396304
0.00415269
0.00411644
0.00394244
0.00382881
0.00351252
0.00407984
0.00034375
2.00327e-05
1e-15
1e-15
1e-15
1e-15
1e-15
1e-15
1e-15
1e-15
1e-15
1e-15
1e-15
1e-15
0.00226238
0.000529994
0.000289158
0.000191503
0.000160172
0.000159509
0.00016236
0.000163338
0.000164647
0.000167379
0.00016919
0.000171857
0.000174717
0.000176883
0.000178854
0.000181921
0.00018622
0.00019077
0.000194819
0.000198803
0.000202699
0.000206398
0.000209807
0.000212793
0.000215106
0.000216916
0.000218476
0.000219774
0.000220853
0.00022176
0.000221397
0.000221204
0.000227439
0.000237424
0.000261232
0.000269183
0.00027881
0.000223536
1.74792e-05
0.0011807
0.00117377
0.000989207
0.000893802
0.00080685
0.000741891
0.000702658
0.000682282
0.000681641
0.000698843
0.000730914
0.000777176
0.000837658
0.000917962
0.00100694
0.00110629
0.00125747
0.00143776
0.0016227
0.00190768
0.00225824
0.00255606
0.0028167
0.00285334
0.00350986
0.000672844
6.25887e-11
3.53857e-12
1e-15
1e-15
1e-15
1e-15
1e-15
1e-15
1e-15
1e-15
1e-15
1e-15
1e-15
0.000429109
0.000166053
0.000359845
0.0009041
0.000960489
0.000923528
0.000941356
0.000955649
0.00095768
0.000952111
0.000943728
0.000933884
0.000924049
0.000915091
0.000906546
0.000897978
0.000889958
0.000882389
0.000874557
0.000866705
0.000858847
0.000850712
0.000842236
0.000833506
0.000824474
0.000814793
0.000804345
0.000793103
0.000780995
0.00076811
0.000750739
0.000734725
0.000705916
0.000636624
0.000595572
0.000457141
0.000254489
0.000257504
0.000313505
0.000164607
0.000170598
0.00017571
0.000177803
0.000182203
0.000189003
0.000191306
0.000196582
0.000203095
0.00020967
0.000219045
0.000230121
0.000243225
0.000260161
0.000278896
0.000299883
0.000330397
0.000378343
0.000412704
0.000452409
8.20487e-05
0.000465195
0.00090823
0.00123926
0.0019874
0.000863238
2.53673e-09
1.48622e-10
1e-15
1e-15
1e-15
1e-15
1e-15
1e-15
1e-15
1e-15
1e-15
1e-15
1e-15
0.000282131
0.000776951
0.00186604
0.00216318
0.0021401
0.00212391
0.00213236
0.00215158
0.00216015
0.00216003
0.00215744
0.00215436
0.00215106
0.00214764
0.00214383
0.00213897
0.00213259
0.00212481
0.00211542
0.00210413
0.00209088
0.00207543
0.00205748
0.00203703
0.00201437
0.00198962
0.00196276
0.00193387
0.0019029
0.00187001
0.00182131
0.00178718
0.00171609
0.00163225
0.00156579
0.00139852
0.0012148
0.000930995
0.000720597
0.000106537
0.000135378
0.000270774
0.000423684
0.000522489
0.000612978
0.000681308
0.000733492
0.000773588
0.000802426
0.000823255
0.000838174
0.000848037
0.000854385
0.000857779
0.000857984
0.000859614
0.00093384
0.000905694
0.000757627
0.000664969
0.00063405
0.000723709
0.000843598
0.00120274
0.00100212
1.46329e-08
8.88114e-10
1e-15
1e-15
1e-15
1e-15
1e-15
1e-15
1e-15
1e-15
1e-15
1e-15
1e-15
0.00148654
0.00220868
0.00186868
0.00130784
0.00123881
0.00125796
0.00125882
0.00127178
0.00128258
0.00128801
0.00129326
0.00130003
0.00130749
0.00131479
0.0013212
0.00132646
0.00133002
0.00133177
0.00133141
0.0013289
0.00132413
0.00131701
0.0013076
0.00129616
0.00128317
0.00126879
0.0012532
0.00123652
0.00121878
0.00120017
0.0011807
0.00116168
0.00115483
0.00116134
0.00116707
0.00116443
0.00113536
0.00102819
0.000877604
0.0019613
0.00193248
0.00198717
0.0020737
0.00214459
0.00220256
0.00224427
0.00227105
0.0022879
0.00229727
0.00230229
0.00230528
0.00230672
0.00230724
0.00230739
0.00230705
0.002306
0.00230349
0.00229871
0.00228158
0.00224568
0.00201719
0.00170003
0.00152921
0.00144117
0.00138582
6.83394e-08
4.29378e-09
1e-15
1e-15
1e-15
1e-15
1e-15
1e-15
1e-15
1e-15
1e-15
1e-15
1e-15
0.00228647
0.00141051
0.000513536
1.0408e-05
0.000185291
0.000192262
0.000193926
0.000193207
0.000191904
0.000190485
0.000187152
0.000184661
2.32002e-06
7.80056e-06
1.30927e-05
1.81229e-05
2.27966e-05
2.70849e-05
3.0906e-05
3.42384e-05
3.70174e-05
3.92882e-05
4.12189e-05
4.31023e-05
4.51175e-05
4.71534e-05
4.92329e-05
5.13222e-05
5.34916e-05
5.58259e-05
5.80995e-05
5.90452e-05
6.37689e-05
0.00011073
0.000190776
0.000300062
0.000443125
0.000583389
0.000629097
0.00193553
0.00175306
0.00167399
0.00163393
0.00158557
0.00153985
0.00150552
0.00147912
0.00146305
0.00145689
0.00145819
0.00146555
0.0014778
0.00149386
0.00151354
0.0015368
0.00156324
0.0015928
0.00162673
0.00168207
0.00175355
0.00180603
0.00180197
0.00170886
0.00155132
0.00160704
2.32093e-07
1.50859e-08
1e-15
1e-15
1e-15
1e-15
1e-15
1e-15
1e-15
1e-15
1e-15
1e-15
1e-15
0.00087678
1.30301e-05
7.65262e-05
3.88947e-05
4.65444e-05
4.8364e-05
4.99314e-05
4.95633e-05
4.86527e-05
4.77088e-05
4.60444e-05
4.43509e-05
4.34679e-05
4.31839e-05
4.32414e-05
4.37668e-05
4.45556e-05
4.5649e-05
4.69874e-05
4.85126e-05
5.0131e-05
5.1832e-05
5.36022e-05
5.53001e-05
5.67035e-05
5.79148e-05
5.9063e-05
6.01406e-05
6.11527e-05
6.21077e-05
6.29385e-05
6.33595e-05
6.41068e-05
7.01172e-05
8.0691e-05
9.89419e-05
0.000119834
8.79405e-05
0.000269417
0.000404291
0.000467193
0.000341272
0.000263847
0.000201284
0.000147956
0.000108465
8.34779e-05
7.12434e-05
6.96189e-05
7.50387e-05
8.54258e-05
9.9671e-05
0.000117676
0.000139231
0.000164207
0.000193243
0.000226978
0.000266127
0.000310809
0.000423016
0.000625799
0.000840617
0.00100515
0.00106017
0.00134372
5.92127e-07
3.97901e-08
1e-15
1e-15
1e-15
1e-15
1e-15
1e-15
1e-15
1e-15
1e-15
1e-15
1e-15
0.000162986
5.68514e-05
0.000160026
0.000256128
0.000312795
0.000316489
0.00032469
0.000327844
0.00032794
0.000326679
0.000324038
0.000320489
0.000316903
0.00031345
0.000310072
0.000306971
0.000304128
0.000301466
0.000298982
0.000296644
0.000294371
0.000292108
0.000289842
0.000287606
0.000285219
0.000282509
0.000279526
0.000276308
0.000272846
0.000269151
0.000265127
0.000260673
0.000254204
0.0002295
0.000191622
0.000158697
8.76583e-05
5.0728e-05
0.000157352
5.42057e-05
6.36254e-05
5.35202e-05
4.7124e-05
4.55265e-05
4.49323e-05
4.34243e-05
4.27458e-05
4.26567e-05
4.30347e-05
4.43814e-05
4.62581e-05
4.86202e-05
5.17775e-05
5.56231e-05
6.01963e-05
6.55948e-05
7.19559e-05
7.93995e-05
8.78266e-05
0.0001048
0.000137105
0.000177545
0.000161697
0.00032004
0.000733057
1.08975e-06
7.56528e-08
1e-15
1e-15
1e-15
1e-15
1e-15
1e-15
1e-15
1e-15
1e-15
1e-15
1e-15
0.000148909
0.000416044
0.000913912
0.00105124
0.00108699
0.00108877
0.00109439
0.00109964
0.00110043
0.0010983
0.00109479
0.00109062
0.00108641
0.00108228
0.00107806
0.00107379
0.00106938
0.00106467
0.00105958
0.001054
0.0010478
0.00104081
0.00103292
0.00102414
0.00101439
0.00100361
0.000991883
0.000979307
0.000965839
0.00095149
0.000936209
0.000919976
0.00090352
0.000870302
0.000813716
0.000728567
0.000609411
0.000476384
0.000376548
0.000218336
0.000126512
2.64367e-05
7.29395e-05
0.000120597
0.000165686
0.000199817
0.000220656
0.000232816
0.000239449
0.000243037
0.0002449
0.000245488
0.000245743
0.000246069
0.000246162
0.000246061
0.000245827
0.000245406
0.000243833
0.000224761
0.000204243
0.000133757
9.87591e-05
0.000114015
0.000401656
2.26059e-06
1.62004e-07
1e-15
1e-15
1e-15
1e-15
1e-15
1e-15
1e-15
1e-15
1e-15
1e-15
1e-15
0.000763164
0.00111264
0.000969698
0.000850373
0.000841929
0.000832806
0.000826218
0.000826552
0.000826132
0.000824096
0.000822045
0.000820506
0.000819298
0.000818363
0.000817526
0.000816561
0.000815336
0.000813766
0.000811708
0.000809048
0.000805713
0.000801553
0.000796475
0.00079042
0.000783538
0.000775943
0.000767622
0.000758597
0.000748862
0.000738445
0.000727306
0.000715573
0.000706971
0.000705541
0.000702587
0.000686192
0.000657955
0.000586973
0.000474554
0.00096641
0.000910245
0.000933479
0.000969546
0.00100025
0.00102597
0.00104427
0.00105089
0.00105076
0.00104835
0.00104479
0.00104078
0.00103573
0.00103132
0.00102778
0.00102414
0.00102028
0.00101602
0.00101137
0.00100654
0.000991266
0.000929795
0.000824541
0.000707105
0.00058077
0.000593417
9.836e-06
7.2726e-07
1e-15
1e-15
1e-15
1e-15
1e-15
1e-15
1e-15
1e-15
1e-15
1e-15
1e-15
0.00117118
0.000725661
0.000305617
0.000165304
0.000145279
0.000140357
0.000133731
0.000131123
0.000129885
0.000128424
0.000127128
0.000126348
0.000126055
0.00012611
0.000126401
0.000126857
0.000127426
0.000128098
0.000128847
0.000129655
0.000130503
0.000131391
0.000132309
0.000133222
0.000134077
0.00013479
0.000135303
0.000135593
0.000135652
0.000135502
0.000135084
0.000133986
0.000133516
0.000149452
0.00018644
0.000239691
0.000312514
0.000368261
0.000361246
0.00104333
0.000976606
0.000948484
0.000936311
0.000922467
0.000909915
0.000900231
0.000886627
0.000871718
0.000860968
0.000852488
0.000845816
0.000839322
0.000835504
0.000834903
0.000834675
0.000835076
0.000836133
0.000838032
0.00084224
0.000859666
0.000877147
0.000868245
0.000841552
0.000758809
0.000737285
4.05652e-05
3.09215e-06
1e-15
1e-15
1e-15
1e-15
1e-15
1e-15
1e-15
1e-15
1e-15
1e-15
1e-15
0.000489034
2.80127e-05
4.93072e-05
2.50453e-05
2.24145e-05
2.22035e-05
2.12534e-05
2.04389e-05
1.98049e-05
1.92029e-05
1.8384e-05
1.76526e-05
1.71802e-05
1.6797e-05
1.65899e-05
1.66072e-05
1.67635e-05
1.70939e-05
1.75793e-05
1.81986e-05
1.89277e-05
1.97632e-05
2.06964e-05
2.16134e-05
2.23853e-05
2.30718e-05
2.37308e-05
2.43532e-05
2.49323e-05
2.54634e-05
2.59314e-05
2.62511e-05
2.66743e-05
3.04184e-05
3.86252e-05
5.05039e-05
7.02692e-05
8.55893e-05
0.000172943
0.000278515
0.000279251
0.0002452
0.00022808
0.000211604
0.000196804
0.000184183
0.000175564
0.000169014
0.000164313
0.000161337
0.000159836
0.000159826
0.000160697
0.000162801
0.00016625
0.000171071
0.000177387
0.000185393
0.000193989
0.000209413
0.000267839
0.000346285
0.000433552
0.000480262
0.000581682
0.000102272
8.17917e-06
1e-15
1e-15
1e-15
1e-15
1e-15
1e-15
1e-15
1e-15
1e-15
1e-15
1e-15
9.81762e-05
1.76718e-05
4.84974e-05
5.81667e-05
6.33057e-05
6.76011e-05
6.95864e-05
6.89923e-05
6.77098e-05
6.63545e-05
6.39237e-05
6.13673e-05
5.94185e-05
5.75489e-05
5.61717e-05
5.55122e-05
5.52793e-05
5.55934e-05
5.63865e-05
5.75805e-05
5.908e-05
6.08485e-05
6.28421e-05
6.46716e-05
6.59044e-05
6.67953e-05
6.76271e-05
6.83717e-05
6.90213e-05
6.95623e-05
6.99818e-05
7.02668e-05
7.04488e-05
6.97385e-05
6.59787e-05
5.82238e-05
4.70541e-05
5.60951e-05
4.67982e-05
3.85505e-05
3.91778e-05
3.67502e-05
3.27881e-05
3.07269e-05
2.89316e-05
2.65671e-05
2.52126e-05
2.41601e-05
2.32136e-05
2.27443e-05
2.25047e-05
2.25166e-05
2.27864e-05
2.32742e-05
2.40362e-05
2.50598e-05
2.63693e-05
2.79886e-05
2.97525e-05
3.26128e-05
4.22802e-05
5.62898e-05
1.01853e-05
9.47709e-05
0.00024586
0.000139617
8.72205e-07
6.70363e-08
1e-15
1e-15
1e-15
1e-15
1e-15
1e-15
1e-15
1e-15
1e-15
1e-15
4.97431e-05
0.000101273
0.0003221
0.000385845
0.000412668
0.000430011
0.000441021
0.000446656
0.000449145
0.000450086
0.000450125
0.000449444
0.000448354
0.000447038
0.000445501
0.000443802
0.000441955
0.000439928
0.000437706
0.000435259
0.000432543
0.000429491
0.000426075
0.000422334
0.000418306
0.000413948
0.000409272
0.000404298
0.000399026
0.000393438
0.000387534
0.000381304
0.000374913
0.000364229
0.000338453
0.000293552
0.000233347
0.000174893
0.000139787
9.06296e-05
6.03844e-05
6.32131e-05
6.01571e-05
6.03019e-05
6.07057e-05
5.92721e-05
5.87473e-05
5.82195e-05
5.72629e-05
5.68503e-05
5.64765e-05
5.61821e-05
5.61982e-05
5.62772e-05
5.65153e-05
5.68329e-05
5.72149e-05
5.76148e-05
5.80143e-05
5.84046e-05
5.62562e-05
5.06253e-05
4.47969e-05
5.51364e-05
2.78434e-05
0.000100742
4.6409e-06
3.71823e-07
1e-15
1e-15
1e-15
1e-15
1e-15
1e-15
1e-15
1e-15
1e-15
1e-15
0.000282737
0.000558862
0.000561901
0.000542
0.000541917
0.000540587
0.000538651
0.000535912
0.00053273
0.000529718
0.000527167
0.000524853
0.000522653
0.000520598
0.000518594
0.000516582
0.000514527
0.000512398
0.00051012
0.000507646
0.000504907
0.00050183
0.00049831
0.000494313
0.000489936
0.000485185
0.00048002
0.00047445
0.000468495
0.00046215
0.000455408
0.000448309
0.000441576
0.000436458
0.000426799
0.000407065
0.000372809
0.000312236
0.000242578
0.000427234
0.000433183
0.000424422
0.00042183
0.000418974
0.000416988
0.00041572
0.000414493
0.000413474
0.000412467
0.00041133
0.000410115
0.000408749
0.000407205
0.000405505
0.000403612
0.000401534
0.000399246
0.000396774
0.000394177
0.000391803
0.00037334
0.000332857
0.000281979
0.000240888
0.000181169
0.000175021
3.0803e-05
2.5263e-08
1.95922e-09
1e-15
1e-15
1e-15
1e-15
1e-15
1e-15
1e-15
1e-15
1e-15
0.000632806
0.00046775
0.000276738
0.000216794
0.000193967
0.000179577
0.000169576
0.000162501
0.000157211
0.000153346
0.00015069
0.000148809
0.000147356
0.000146218
0.000145259
0.000144423
0.000143693
0.000142986
0.000142312
0.0001416
0.000140888
0.000140112
0.000139234
0.000138306
0.000137315
0.00013626
0.000135108
0.000133891
0.000132596
0.000131218
0.000129717
0.000128115
0.000126511
0.000128841
0.00014386
0.000167656
0.00019352
0.000209646
0.000203239
0.000598213
0.000551553
0.000535865
0.000520645
0.000507682
0.000497436
0.000490055
0.000484127
0.000479344
0.000475452
0.000472046
0.000469033
0.000466318
0.000463758
0.000461351
0.000459022
0.000456742
0.000454468
0.000452188
0.00045002
0.000450118
0.000450238
0.000439382
0.000417026
0.000385377
0.000322982
0.000284225
0.000118007
2.31176e-06
1.84768e-07
1e-15
1e-15
1e-15
1e-15
1e-15
1e-15
1e-15
1e-15
1e-15
0.0003742
8.92725e-05
5.2409e-05
3.3575e-05
3.05449e-05
2.89566e-05
2.74243e-05
2.57038e-05
2.42391e-05
2.30796e-05
2.17813e-05
2.05887e-05
1.96865e-05
1.88527e-05
1.82145e-05
1.78508e-05
1.76551e-05
1.76681e-05
1.78779e-05
1.82526e-05
1.8761e-05
1.94028e-05
2.01487e-05
2.08536e-05
2.13408e-05
2.17155e-05
2.20799e-05
2.24333e-05
2.27716e-05
2.30854e-05
2.33626e-05
2.36058e-05
2.38334e-05
2.47986e-05
2.82717e-05
3.38116e-05
3.67649e-06
5.53974e-05
9.60604e-05
0.000217668
0.000210834
0.000180861
0.000162214
0.000149951
0.000141169
0.000135131
0.000130768
0.000127416
0.000124879
0.000122926
0.000121414
0.000120283
0.000119521
0.000119061
0.000118943
0.000119149
0.00011972
0.000120681
0.000122006
0.000125042
0.000139088
0.000166427
0.0001962
0.000219671
0.000232175
0.000238813
0.000181599
1.21868e-05
1.00305e-06
1e-15
1e-15
1e-15
1e-15
1e-15
1e-15
1e-15
1e-15
1e-15
7.61949e-05
1.25804e-05
1.47804e-05
1.85264e-05
2.02696e-05
2.09112e-05
2.09237e-05
2.06996e-05
1.89187e-05
1.77492e-05
1.68771e-05
1.60715e-05
1.54412e-05
1.48111e-05
1.43033e-05
1.39997e-05
1.38136e-05
1.37952e-05
1.39351e-05
1.42177e-05
1.46115e-05
1.5119e-05
1.57262e-05
1.62962e-05
1.66662e-05
1.69294e-05
1.71846e-05
1.74247e-05
1.76474e-05
1.78472e-05
1.8022e-05
1.81717e-05
1.82881e-05
1.82962e-05
1.68099e-05
1.37884e-05
1.14774e-05
1.67361e-05
2.32994e-05
3.08071e-05
3.02028e-05
2.76564e-05
2.37368e-05
2.21288e-05
2.10548e-05
1.97144e-05
1.89401e-05
1.83077e-05
1.7655e-05
1.72675e-05
1.69569e-05
1.67271e-05
1.66507e-05
1.66458e-05
1.6742e-05
1.69207e-05
1.71819e-05
1.7519e-05
1.79202e-05
1.85704e-05
2.08353e-05
2.5103e-05
3.18812e-05
2.17307e-05
6.54786e-05
0.000102919
0.000138851
3.23016e-05
2.90341e-06
1e-15
1e-15
1e-15
1e-15
1e-15
1e-15
1e-15
1e-15
1e-15
1.41381e-05
4.60312e-05
9.62585e-05
0.000120661
0.000129891
0.000130915
0.0001307
0.000132375
0.000124321
0.000119715
0.00011889
0.000118723
0.000118637
0.000118524
0.000118348
0.000118121
0.000117857
0.000117546
0.000117188
0.000116778
0.000116302
0.000115741
0.000115078
0.000114325
0.000113496
0.000112571
0.00011154
0.000110409
0.000109182
0.000107856
0.000106431
0.000104923
0.000103299
0.000101151
9.10099e-05
7.31328e-05
5.58041e-05
2.70114e-05
1.62074e-05
3.46593e-05
1.96894e-05
1.99177e-05
1.87511e-05
1.88892e-05
1.92409e-05
1.90083e-05
1.90789e-05
1.91377e-05
1.90084e-05
1.9036e-05
1.9043e-05
1.9041e-05
1.91241e-05
1.92067e-05
1.93176e-05
1.94373e-05
1.9554e-05
1.96553e-05
1.9733e-05
1.97383e-05
1.93635e-05
1.74025e-05
1.45576e-05
1.48269e-05
1.89596e-05
2.62937e-05
3.89552e-05
3.63213e-05
1.01842e-06
8.46931e-08
1e-15
1e-15
1e-15
1e-15
1e-15
1e-15
1e-15
1e-15
0.000102042
0.000263251
0.000293976
0.000294283
0.000294885
0.000292863
0.000289523
0.00028965
0.000284618
0.000280565
0.000280894
0.0002803
0.000279378
0.000278379
0.000277355
0.000276306
0.000275253
0.000274176
0.00027305
0.000271851
0.000270553
0.000269098
0.000267434
0.000265558
0.00026351
0.000261272
0.000258805
0.000256115
0.000253216
0.000250097
0.000246749
0.000243177
0.000239449
0.000236265
0.000221627
0.000205933
0.000190114
0.000158037
0.000117387
0.000167242
0.000138764
0.000131492
0.000129512
0.000129448
0.000130546
0.00013202
0.000133626
0.000135303
0.000136827
0.000138147
0.000139267
0.000140146
0.000140788
0.000141193
0.00014135
0.00014126
0.000140919
0.00014034
0.000139556
0.000138422
0.000135015
0.00012092
0.000101207
7.97606e-05
6.0109e-05
4.26863e-05
4.01788e-05
5.37874e-05
1.02684e-05
1.25336e-06
1e-15
1e-15
1e-15
1e-15
1e-15
1e-15
1e-15
1e-15
0.000339676
0.000279477
0.000183081
0.00017367
0.000168721
0.000167031
0.000164246
0.000161929
0.000164726
0.0001641
0.00016283
0.000161607
0.000160505
0.000159535
0.000158698
0.00015792
0.000157194
0.000156497
0.00015578
0.000155029
0.000154226
0.000153322
0.000152291
0.000151099
0.000149779
0.000148375
0.000146872
0.000145271
0.000143582
0.000141788
0.00013991
0.000137914
0.000135752
0.000134426
0.000136475
0.00014097
0.0001448
0.000142256
0.000125022
0.000332231
0.000296131
0.000286011
0.000281221
0.00027814
0.00027552
0.000273459
0.000270852
0.000268076
0.000265495
0.000263094
0.00026093
0.000258953
0.000257078
0.000255282
0.000253518
0.000251754
0.00024996
0.000248124
0.000246267
0.00024455
0.00024397
0.000236184
0.000223014
0.000200044
0.000176249
0.000148319
0.000114845
0.000104384
4.81276e-05
2.29241e-06
2.00276e-07
1e-15
1e-15
1e-15
1e-15
1e-15
1e-15
1e-15
0.000224656
8.37241e-05
8.32652e-06
1.03393e-06
2.70549e-05
2.73026e-05
2.68962e-05
2.58872e-05
2.56037e-05
2.48197e-05
2.35285e-05
2.21891e-05
2.10976e-05
2.0017e-05
1.9129e-05
1.85411e-05
1.8134e-05
1.79769e-05
1.80625e-05
1.83672e-05
1.88528e-05
1.95246e-05
2.03634e-05
2.11454e-05
2.16196e-05
2.19399e-05
2.22647e-05
2.25817e-05
2.28912e-05
2.31798e-05
2.34489e-05
2.36924e-05
2.38966e-05
2.42392e-05
2.59337e-05
1.09744e-05
3.04262e-05
5.31884e-05
6.7021e-05
0.000158342
0.000159705
0.000149415
0.000143961
0.000140501
0.000136922
0.000133792
0.000131584
0.000130129
0.000129143
0.00012829
0.000127465
0.000126667
0.000125871
0.000125081
0.000124311
0.000123559
0.000122851
0.000122211
0.000121627
0.000121063
0.000122302
0.000129463
0.000137641
0.000143401
0.000144569
0.000141015
0.000130342
0.000117991
8.78574e-05
1.43199e-05
4.55225e-08
3.75902e-09
1e-15
1e-15
1e-15
1e-15
1e-15
1e-15
1.3134e-05
1.34145e-05
7.61485e-06
7.32574e-06
7.73712e-06
8.05661e-06
8.16616e-06
8.00748e-06
7.77721e-06
7.54861e-06
7.16899e-06
6.74707e-06
6.39415e-06
6.03543e-06
5.7276e-06
5.51424e-06
5.35571e-06
5.27777e-06
5.27838e-06
5.35327e-06
5.49147e-06
5.69696e-06
5.96986e-06
6.2406e-06
6.41637e-06
6.53799e-06
6.65781e-06
6.77516e-06
6.88944e-06
6.99684e-06
7.09546e-06
7.18547e-06
7.25979e-06
7.28468e-06
6.90225e-06
7.95897e-06
1.07164e-05
1.36698e-05
6.5563e-06
2.2771e-05
2.32237e-05
2.31779e-05
2.13378e-05
2.09778e-05
2.06374e-05
1.96831e-05
1.91793e-05
1.8769e-05
1.82684e-05
1.79733e-05
1.76889e-05
1.74327e-05
1.72887e-05
1.71698e-05
1.71109e-05
1.70926e-05
1.71059e-05
1.71433e-05
1.71916e-05
1.72196e-05
1.74506e-05
1.97112e-05
1.11925e-05
2.93822e-05
4.83778e-05
6.7416e-05
8.12306e-05
8.63386e-05
8.80866e-05
3.78535e-05
1.66567e-06
1.4172e-07
1e-15
1e-15
1e-15
1e-15
1e-15
1e-15
9.05432e-06
2.25148e-05
4.04695e-05
4.60476e-05
4.89816e-05
4.98691e-05
5.04805e-05
5.07477e-05
5.07533e-05
5.06976e-05
5.051e-05
5.01834e-05