/*--------------------------------*- C++ -*----------------------------------*\
| =========                 |                                                 |
| \\      /  F ield         | OpenFOAM: The Open Source CFD Toolbox           |
|  \\    /   O peration     | Version:  2312                                  |
|   \\  /    A nd           | Website:  www.openfoam.com                      |
|    \\/     M anipulation  |                                                 |
\*---------------------------------------------------------------------------*/
FoamFile
{
    version     2.0;
    format      ascii;
    arch        "LSB;label=32;scalar=64";
    class       volScalarField;
    location    "150";
    object      turbulenceProperties:L;
}
// * * * * * * * * * * * * * * * * * * * * * * * * * * * * * * * * * * * * * //

dimensions      [0 1 0 0 0 0 0];

internalField   nonuniform List<scalar> 
10720
(
0.0075262
0.00545381
0.00498581
0.00509496
0.00576935
0.00670254
0.00772578
0.00880988
0.00984686
0.010844
0.0118906
0.0131775
0.0148758
0.0173687
0.0207789
0.0247941
0.0268555
0.025641
0.0201133
0.0191161
0.0230541
0.0317525
0.048124
0.0710747
0.0942144
0.116005
0.298676
0.284926
0.0963614
0.0539332
0.0299408
0.0100029
0.00406891
0.00158323
8.53192e-11
0.000334666
0.00427999
0.0446141
0.117118
0.0135143
0.0244052
0.0266182
0.00477768
0.0133573
0.0125969
0.0100601
0.00868358
0.00836364
0.00835749
0.0085517
0.00897859
0.00961729
0.0106194
0.0109493
0.0108121
0.00804285
0.00648116
0.00575961
0.00594333
0.0068122
0.00844235
0.0100992
0.0114839
0.0122701
0.0123201
0.01032
0.00713687
0.00419266
0.00207406
0.000716526
0.000117262
9.90026e-11
1.10695e-10
0.000240527
0.002107
0.000298017
0.00724565
0.0702511
0.00686867
0.00692696
0.00816766
0.0102598
0.0133656
0.0172818
0.0213752
0.0252878
0.0288585
0.0320624
0.0352426
0.0379076
0.0454405
0.0645274
0.100993
0.168907
0.278563
0.490785
0.559226
0.24162
0.13026
0.106304
0.0969367
0.109722
0.133442
0.121004
0.165113
0.120911
0.114191
0.20292
0.181678
0.0757224
0.0383223
0.0139098
0.00160589
0.000607223
0.00645003
0.0597929
0.150632
0.00373006
0.102038
0.1323
0.0225026
0.0443197
0.039214
0.0260709
0.023701
0.0253293
0.0263812
0.0268026
0.0313813
0.0307132
0.0843325
0.115225
0.185608
0.321938
0.196394
42.9886
0.0134096
0.0153044
0.583114
0.129212
0.00620458
0.00280428
0.00456324
0.00246299
0.0036016
0.000787677
0.00224206
0.00212653
0.000335697
3.62671e-10
3.75374e-10
0.000187332
0.0015097
0.000212208
0.0110919
0.085889
0.0231504
0.013808
0.0178947
0.0184772
0.0197864
0.0209477
0.0217682
0.0223296
0.0226935
0.0229478
0.0231298
0.0233174
0.0235578
0.0214465
0.0270564
0.0387885
0.0577517
0.0918592
0.144081
0.248308
1.29256
0.222742
0.214286
0.255041
0.26817
0.364097
0.226973
0.122374
0.0790876
0.0748527
0.0901313
0.0863187
0.0382742
0.0129075
0.00337143
0.000752548
0.00315261
0.0507349
0.280544
0.0285732
0.052755
0.0486006
0.0335244
0.0178562
0.0140979
0.0112998
0.0110078
0.0112334
0.011287
0.0111129
0.0117549
0.00333061
0.00940409
0.00854707
0.00820512
0.0078711
0.0130849
0.0220954
0.00866285
0.00864695
0.0537019
0.0543058
0.0078108
0.0561188
0.084906
0.0362148
0.0134131
0.0101838
0.0218169
0.0210848
0.00438687
0.0035551
0.00290426
0.00220195
0.00775836
2.69429e-09
0.194668
0.481845
0.0414485
0.0409398
0.040998
0.0404444
0.0408245
0.0412361
0.0414345
0.0415577
0.0416302
0.0416257
0.0415307
0.0414054
0.0412642
0.0409791
0.0405981
0.0401638
0.0378654
0.0278087
0.0149916
3.68841e-09
3.74288e-09
4.07571e-09
5.09242e-09
0.949385
30.9737
4.56982e-08
7.78391e-10
1.86201e-09
5.87741e-09
3.42305e-08
9.32893e-07
0.000219408
0.0230878
0.0251137
0.0137082
0.00330904
0.00926327
0.0897812
0.46642
0.0446357
0.0381115
0.0181449
0.0160148
0.015109
0.0175297
0.0247812
0.0249328
0.0247507
0.0244646
0.0240932
0.0243195
0.0231108
0.0217837
0.0216505
0.0214373
0.02141
0.0216416
0.0224782
0.0230641
0.0229989
0.0232363
0.0230554
0.0213606
0.0211919
0.0197078
0.0175795
0.0172047
0.0160822
0.0157323
0.0152783
0.0145827
0.0134794
0.011929
0.00931258
0.00633972
0.000905462
0.132664
4.45392
0.040305
0.0377377
0.0367279
0.0356775
0.034873
0.0342862
0.0333701
0.0325004
0.0320134
0.0317322
0.0316358
0.0315998
0.0316293
0.0318012
0.032041
0.0323525
0.0329535
0.0336219
0.0304888
0.0106926
0.00745567
3.63706e-09
3.7083e-09
4.01454e-09
2.80362
4.29129e-08
3.87711e-14
1.40516e-13
4.90533e-13
2.66158e-12
2.96104e-11
1.33578e-09
8.48091e-05
6.53088e-10
0.0252984
0.0203281
0.0128544
0.106027
0.342096
0.0254515
0.0166964
0.0147258
0.0209618
0.0339835
0.0386604
0.0395466
0.0396708
0.039588
0.0394016
0.0391486
0.0388325
0.0386219
0.0386403
0.0379187
0.0367787
0.0362031
0.0356138
0.0348936
0.0341601
0.0334638
0.0327741
0.0320949
0.0314428
0.0308302
0.0302034
0.029611
0.029105
0.0286944
0.0283212
0.0279494
0.0275339
0.0270779
0.0267551
0.0256286
0.0260202
0.00370469
0.10997
12.3674
0.0108813
0.0152556
0.0102332
0.00467736
0.0136532
0.0136653
0.0136022
0.013445
0.0136393
0.0142176
0.0144003
0.0143924
0.0146085
0.0148618
0.0151283
0.0154484
0.00337357
0.00981319
0.0141804
0.0170184
0.0173261
0.00942896
0.0079442
3.59503e-09
3.73887e-09
5.35581e-14
2.65879e-19
2.736e-19
4.61442e-19
1.11315e-18
3.44931e-18
1.38735e-17
6.88944e-17
1.53175e-11
1.30838e-11
3.50788e-10
1.94503e-08
4.96622e-07
9.8717e-07
0.014924
0.0167631
0.0325554
0.0369037
0.035365
0.0318543
0.0315067
0.0318634
0.0322117
0.0325285
0.0328401
0.033157
0.0334809
0.0337558
0.0341678
0.0345828
0.0348153
0.034638
0.0342372
0.0338611
0.0334894
0.0331058
0.0326885
0.0322475
0.0317576
0.031226
0.0307387
0.0302946
0.0299235
0.0296746
0.0295263
0.0292858
0.0291189
0.029383
0.0286911
0.029186
0.00412596
0.0826643
1.08568
0.00795219
0.0121337
0.0151095
0.0161407
0.016849
0.0174071
0.0180596
0.0177252
0.0186795
0.0212482
0.0213034
0.0203214
0.0203367
0.0202606
0.0201382
0.0199866
0.0197489
0.0190421
0.0184991
0.0188909
0.020024
0.0196176
0.0182788
0.0121701
0.00674065
1.29794e-09
6.02242e-19
3.65585e-19
4.19779e-19
7.38886e-19
1.73485e-18
4.87449e-18
1.36692e-17
3.45338e-17
5.46958e-13
5.79306e-12
8.12447e-16
1.71815e-09
2.41373e-09
0.0290181
0.0363009
0.0350788
0.026139
0.0173354
0.0105433
0.0101029
0.0106614
0.0116273
0.0126949
0.0138127
0.0149883
0.0162307
0.0174369
0.0186501
0.0200928
0.021019
0.021226
0.0211274
0.0209546
0.020688
0.020357
0.0199675
0.0196169
0.0192689
0.0189313
0.0186536
0.018417
0.0182382
0.0181321
0.0181206
0.0183895
0.0189242
0.0198599
0.0206387
0.0241111
0.00353482
0.0650975
0.563303
0.0350773
0.0341092
0.0342662
0.0347264
0.0346412
0.0344356
0.034713
0.03489
0.034844
0.0347751
0.0347811
0.0346843
0.0345734
0.0344321
0.0341488
0.0337508
0.033329
0.032718
0.0314787
0.0298585
0.0284057
0.0275356
0.0268939
0.0264434
0.0152784
6.111e-09
1.11978e-14
5.64122e-19
4.68381e-19
6.23273e-19
1.15207e-18
2.54639e-18
5.52502e-18
1.00853e-17
1.56768e-17
3.25227e-17
8.79687e-17
4.29817e-15
1.22318e-13
0.0365083
0.0291127
0.0130068
0.0105491
0.00939317
0.00852208
0.0085686
0.00865053
0.00877128
0.00892962
0.00908646
0.00928122
0.00954158
0.00982945
0.0101642
0.0106112
0.0110667
0.0110786
0.0109053
0.0109219
0.0109086
0.0106929
0.010682
0.0108645
0.0107958
0.0107309
0.010682
0.0106462
0.0106352
0.0106501
0.0106999
0.0110639
0.0112339
0.011273
0.0116135
0.00792231
0.00495954
0.0399126
0.302676
0.0323332
0.0305636
0.0295245
0.0287594
0.0283344
0.0278474
0.0274309
0.0270965
0.0268632
0.0267312
0.026686
0.0265943
0.0268084
0.0273324
0.0274565
0.0274842
0.0277747
0.0281964
0.0286581
0.0287151
0.0285553
0.0281886
0.0277755
0.0271806
0.028573
4.87714e-08
9.70035e-14
9.58266e-19
5.97542e-19
6.17483e-19
9.17229e-19
1.66662e-18
3.05445e-18
4.96878e-18
7.17002e-18
1.21769e-17
2.6272e-17
5.27711e-17
1.14941e-14
0.0206635
0.0126917
0.00936517
0.00179288
0.0190385
0.0205753
0.0207224
0.0206727
0.0204736
0.0202077
0.0198877
0.0195099
0.0190884
0.0186465
0.0181965
0.0177145
0.0178006
0.0169687
0.0156454
0.015277
0.0149579
0.0138632
0.0138414
0.0146789
0.0144809
0.0142934
0.0141262
0.0139794
0.0138651
0.0137806
0.0137187
0.0144743
0.0140437
0.012266
0.011664
0.0110133
0.0105675
0.0160802
0.115074
0.0122238
0.0134799
0.00964329
0.00659817
0.00244826
0.0106997
0.0106871
0.0107868
0.0109125
0.0110366
0.0112083
0.0113576
0.0116086
0.0119844
0.00097064
0.00576962
0.00853771
0.0106368
0.0131879
0.016662
0.0197195
0.0215835
0.0230182
0.023014
0.0274148
1.59602e-07
3.39529e-13
1.74584e-18
8.42844e-19
6.92039e-19
8.38569e-19
1.27862e-18
2.04544e-18
3.05633e-18
4.19888e-18
6.33069e-18
1.18767e-17
2.15375e-17
4.32841e-17
0.0105047
0.0124978
0.0226696
0.0297086
0.0315153
0.0314305
0.0313898
0.0313639
0.0312843
0.0311589
0.0309883
0.0307665
0.0304916
0.0301529
0.0297412
0.0292563
0.0287442
0.0284326
0.028129
0.0278323
0.0275395
0.0272374
0.0267826
0.0263185
0.0258984
0.0255229
0.0252012
0.0249244
0.0247028
0.0245285
0.0244166
0.024358
0.0240937
0.0236058
0.0224672
0.0215886
0.0216989
0.00820738
0.0577969
0.0118048
0.0101651
0.0102041
0.010144
0.00391503
0.00671351
0.00837967
0.00965282
0.0106312
0.0113434
0.0118745
0.0122861
0.0125872
0.0128136
0.0130053
0.0132265
0.0135019
0.0135594
0.0133461
0.0142423
0.0160338
0.0177508
0.0195945
0.0198903
0.0249098
5.1371e-07
1.15926e-12
3.36637e-18
1.29129e-18
8.58506e-19
8.60138e-19
1.11418e-18
1.57791e-18
2.18799e-18
2.89756e-18
4.07121e-18
6.93951e-18
1.16012e-17
1.89142e-17
0.0183129
0.028786
0.0300706
0.0274897
0.0259676
0.0256514
0.0255417
0.025588
0.0256753
0.0257715
0.0258603
0.0259362
0.0259613
0.0258612
0.0256043
0.0252852
0.0250087
0.0247523
0.0244957
0.0242353
0.0239672
0.0236705
0.0233406
0.0230115
0.0227125
0.0224449
0.0222162
0.0220181
0.0218624
0.0217404
0.0216634
0.021666
0.0217961
0.0219664
0.022091
0.0219856
0.0226866
0.01655
0.00237777
0.0257791
0.0259436
0.0268319
0.0277898
0.0286773
0.0294928
0.0301332
0.030628
0.0310031
0.0312498
0.0313808
0.0314124
0.0313497
0.0311913
0.0309346
0.0305973
0.0301986
0.0303307
0.0296315
0.0277772
0.0264565
0.0252921
0.0246166
0.0232111
0.0259829
1.94677e-06
4.62623e-12
6.81764e-18
2.12098e-18
1.16145e-18
9.74989e-19
1.08373e-18
1.36871e-18
1.76671e-18
2.22949e-18
2.98885e-18
4.72913e-18
7.37164e-18
1.05129e-17
0.0310734
0.0283709
0.0207155
0.0111545
0.0065309
0.00653624
0.00632243
0.00638555
0.00673766
0.00728673
0.00787011
0.00845009
0.00882489
0.00902627
0.00908483
0.00913313
0.00922173
0.00926157
0.00922096
0.00914877
0.00905616
0.00893821
0.00880505
0.00868349
0.00858952
0.00851646
0.00846412
0.00843119
0.00842667
0.00844947
0.00848316
0.00854012
0.00915554
0.0104171
0.011962
0.0136236
0.015552
0.0180338
0.00282566
0.031165
0.0294864
0.0292527
0.0292323
0.029145
0.0291213
0.0291575
0.0292007
0.0292584
0.0293166
0.0293645
0.0294086
0.029448
0.0294827
0.0294902
0.029494
0.029598
0.0296525
0.0299541
0.0303225
0.0298724
0.0289038
0.0280913
0.0264418
0.0279388
7.68831e-06
1.91058e-11
1.44365e-17
3.70339e-18
1.69534e-18
1.20769e-18
1.16312e-18
1.317e-18
1.58281e-18
1.91511e-18
2.44055e-18
3.57833e-18
5.19742e-18
6.79473e-18
0.0247011
0.0121014
0.00895569
0.00730099
0.00669308
0.00668281
0.0067297
0.0067233
0.00671338
0.00672368
0.00670992
0.00671007
0.00671104
0.00670494
0.00670275
0.00672615
0.00677557
0.00683157
0.00687896
0.00692316
0.0069639
0.00700279
0.00704078
0.00707797
0.00711202
0.00714412
0.00717881
0.00721501
0.0072583
0.00730956
0.00735071
0.00740378
0.00757263
0.00782031
0.00830371
0.00855203
0.00882976
0.00810354
0.00221284
0.0181217
0.0180582
0.0166404
0.0158755
0.015126
0.0145328
0.0141571
0.0139447
0.0139079
0.0140278
0.0142706
0.0146241
0.0150783
0.0156725
0.0162942
0.0169596
0.0179612
0.0190652
0.0200891
0.0216106
0.0233224
0.0245755
0.0254767
0.0252258
0.0274408
2.83005e-05
9.07358e-14
1.89609e-15
6.83558e-18
2.64931e-18
1.6203e-18
1.36489e-18
1.39236e-18
1.55808e-18
1.80805e-18
2.18927e-18
2.96442e-18
4.70093e-18
5.89821e-18
0.0110107
0.00691012
0.0101476
0.0161096
0.0166522
0.0163512
0.0164938
0.0165749
0.0165302
0.016406
0.0162583
0.0161039
0.0159562
0.0158222
0.0156971
0.0155753
0.0154615
0.0153548
0.0152435
0.0151315
0.0150272
0.014928
0.0148324
0.0147448
0.0146683
0.0145957
0.0145261
0.0144575
0.0143977
0.0143508
0.0142723
0.0142231
0.0140554
0.0134806
0.0131859
0.0117067
0.00885197
0.0091078
0.00980055
0.00691028
0.00705545
0.00719451
0.00726862
0.00738002
0.00753326
0.00758864
0.00769062
0.00780325
0.00790546
0.00805058
0.00822029
0.00842173
0.00867934
0.00894888
0.00924059
0.00966208
0.010294
0.0106934
0.011135
0.00471387
0.0111334
0.0153787
0.0176872
0.0219788
8.70386e-05
1.59563e-12
2.82495e-14
1.32878e-17
4.40728e-18
2.33812e-18
1.73778e-18
1.60489e-18
1.67307e-18
1.85638e-18
2.14507e-18
3.42331e-18
3.99847e-17
6.94111e-16
0.00913564
0.0152166
0.0235598
0.0254813
0.025437
0.0253936
0.0254495
0.0255399
0.0255506
0.0254993
0.0254278
0.0253537
0.0252825
0.0252149
0.0251478
0.0250735
0.0249893
0.0248992
0.0248016
0.0246931
0.024576
0.024452
0.0243206
0.0241889
0.0240656
0.0239453
0.0238277
0.0237096
0.0236027
0.023516
0.0233429
0.0232923
0.023007
0.0226526
0.0224249
0.0214616
0.0202623
0.0181133
0.0155688
0.00571809
0.00647963
0.00920933
0.0115669
0.0128777
0.0139747
0.0147409
0.0152771
0.0156579
0.0159131
0.0160857
0.0162051
0.0162831
0.0163257
0.0163287
0.0162984
0.0162842
0.0169304
0.0166142
0.0151405
0.0141338
0.0137277
0.0145398
0.0154974
0.0181989
0.000262096
1.09027e-11
1.65239e-13
2.71431e-17
7.77408e-18
3.60877e-18
2.38492e-18
2.00359e-18
1.94775e-18
2.0614e-18
2.31657e-18
2.65276e-16
4.45004e-11
1.59165e-09
0.0215266
0.0262842
0.02422
0.0203776
0.019896
0.0200707
0.0200731
0.0201638
0.0202346
0.0202601
0.0202831
0.0203191
0.0203623
0.0204056
0.0204416
0.0204669
0.0204769
0.0204709
0.0204465
0.0204042
0.0203459
0.0202743
0.0201911
0.0201036
0.0200214
0.0199407
0.0198625
0.0197849
0.0197177
0.0196701
0.0196255
0.019611
0.0197107
0.0199531
0.0202129
0.0204394
0.020445
0.019846
0.0179865
0.0252176
0.0251093
0.0255602
0.0262024
0.0267016
0.0270839
0.0273308
0.0274623
0.0275376
0.0275842
0.0276183
0.0276523
0.0276855
0.0277029
0.027692
0.0276707
0.0276519
0.0276091
0.027527
0.0273693
0.02711
0.0256258
0.0234022
0.0219968
0.0210841
0.000877729
6.91913e-11
9.05209e-13
5.81894e-17
1.45012e-17
5.93301e-18
3.50914e-18
2.69292e-18
2.44458e-18
2.46496e-18
6.42668e-18
1.18341e-11
1.68814e-09
3.38133e-09
0.0273469
0.0215393
0.0130339
0.00186265
0.00787216
0.00802151
0.00805555
0.00804106
0.00801529
0.00798638
0.00791654
0.0078642
0.000881576
0.00161668
0.00209458
0.00246413
0.00276326
0.00301138
0.00321604
0.00338409
0.00351815
0.00362467
0.00371386
0.00380084
0.00389487
0.00399048
0.00408881
0.00418836
0.00429397
0.00441138
0.00452899
0.0046004
0.00481977
0.00641037
0.00850086
0.0107892
0.0132809
0.0155295
0.0158904
0.0255222
0.0243125
0.0238529
0.0236558
0.0233549
0.0230397
0.0227916
0.022601
0.022503
0.0224952
0.0225499
0.0226523
0.0227906
0.0229443
0.0231019
0.023281
0.023493
0.0237194
0.0239574
0.0243483
0.0248611
0.0252111
0.0251143
0.0243193
0.0229695
0.00265826
3.8735e-10
4.40522e-12
1.30845e-16
2.85557e-17
1.03582e-17
5.51203e-18
3.87659e-18
3.28969e-18
3.15807e-18
5.39047e-18
1.66665e-12
1.45902e-09
1.20098e-09
0.0172292
0.00211334
0.00513644
0.0036704
0.00402037
0.00410172
0.0041715
0.00416092
0.0041274
0.00409116
0.00402241
0.00395068
0.00391391
0.00390365
0.00390848
0.00393407
0.0039712
0.0040216
0.00408231
0.00415039
0.00422193
0.00429688
0.00437463
0.00445019
0.00451627
0.00457678
0.00463701
0.00469675
0.00475778
0.00482306
0.0048891
0.00494464
0.00501546
0.0052942
0.00573696
0.0064268
0.00716269
0.00624648
0.010814
0.0118164
0.0127136
0.0109198
0.00964476
0.00844791
0.0072584
0.00622801
0.0054774
0.00507559
0.00503378
0.0052416
0.00560716
0.00607042
0.00660657
0.00719122
0.00781477
0.00848901
0.00921202
0.00998139
0.0107949
0.0126125
0.0153519
0.017777
0.0193779
0.0197914
0.00623441
1.94814e-09
1.93748e-11
3.08551e-16
5.92889e-17
1.91581e-17
9.21056e-18
5.95053e-18
4.7224e-18
4.30902e-18
5.82136e-18
3.73934e-13
1.12674e-11
2.78231e-09
0.00753867
0.00449281
0.00755463
0.00957685
0.0106017
0.0106837
0.0108432
0.0109194
0.0109435
0.0109415
0.0109135
0.0108684
0.010821
0.0107745
0.0107278
0.0106847
0.0106459
0.0106107
0.0105792
0.0105507
0.0105244
0.0105005
0.0104785
0.0104605
0.0104457
0.0104297
0.0104129
0.0103965
0.0103821
0.0103749
0.0103733
0.0103718
0.0103326
0.00991149
0.00914956
0.00842292
0.00633915
0.004905
0.00857203
0.0043795
0.00475387
0.00438497
0.00413569
0.00407997
0.00406771
0.00401412
0.00399853
0.00401068
0.00404372
0.0041195
0.00421679
0.00433319
0.00447978
0.00464835
0.00484179
0.00506505
0.00531692
0.0055947
0.00589505
0.0064575
0.00740098
0.00842675
0.00803171
0.0112645
0.00940375
8.63912e-09
7.55114e-11
7.62915e-16
1.29676e-16
3.74661e-17
1.63243e-17
9.70209e-18
7.19829e-18
6.22976e-18
7.07297e-18
1.09752e-13
4.99473e-09
3.38948e-09
0.00732027
0.0123559
0.0183353
0.0197066
0.0200863
0.0201549
0.0202621
0.0203674
0.0204284
0.0204563
0.0204666
0.0204677
0.0204659
0.0204627
0.0204564
0.0204481
0.0204382
0.0204262
0.0204117
0.0203932
0.0203708
0.0203449
0.0203145
0.0202814
0.02025
0.0202169
0.0201818
0.0201471
0.0201143
0.0200927
0.0200849
0.0200814
0.0200842
0.0199061
0.0194506
0.0186206
0.0172485
0.0155042
0.01372
0.00891334
0.00680429
0.003129
0.00522639
0.00675056
0.00794914
0.00877062
0.00925756
0.00954851
0.00971854
0.00981993
0.00988271
0.00991894
0.00994594
0.00996978
0.00999164
0.010019
0.0100456
0.0100631
0.0100585
0.00969319
0.00926888
0.00751422
0.00645841
0.00693081
0.0104429
4.22737e-08
3.26121e-10
1.97738e-15
2.9847e-16
7.73306e-17
3.06047e-17
1.67442e-17
1.1604e-17
9.4999e-18
9.56466e-18
3.99927e-14
1.30786e-09
2.09593e-09
0.0168588
0.0205346
0.0191796
0.0180029
0.0179619
0.0179138
0.0178935
0.0179498
0.0179969
0.0180234
0.0180475
0.0180758
0.0181062
0.0181383
0.01817
0.0181986
0.0182238
0.0182452
0.018261
0.0182701
0.018273
0.0182705
0.0182621
0.0182487
0.0182363
0.0182238
0.0182098
0.0181958
0.0181828
0.0181779
0.0181852
0.0181988
0.0182629
0.0184307
0.0185913
0.0185923
0.018444
0.0177066
0.0158939
0.0190529
0.0185465
0.0188925
0.0193686
0.0197726
0.0201251
0.020399
0.0205472
0.0206208
0.0206628
0.0206845
0.0206995
0.0207078
0.0207217
0.0207379
0.0207593
0.0207968
0.0208337
0.0208551
0.0208772
0.0208102
0.0202346
0.0191077
0.0177208
0.0160638
0.015166
3.11629e-07
2.13027e-09
5.37077e-15
7.22268e-16
1.68165e-16
6.05402e-17
3.04909e-17
1.97081e-17
1.52157e-17
1.39626e-17
1.70709e-14
4.64629e-10
3.06131e-09
0.0212508
0.0168503
0.0109384
0.00806418
0.00757937
0.00746782
0.00730785
0.00725645
0.00724309
0.00722316
0.00720762
0.00720655
0.00721917
0.00724152
0.00727017
0.00730299
0.00733869
0.00737713
0.00741745
0.00745929
0.00750271
0.00754918
0.00759907
0.00765217
0.0077088
0.00776584
0.00782088
0.00787395
0.00792511
0.00797719
0.00803105
0.00807274
0.00813968
0.00870291
0.00982887
0.0112799
0.0130516
0.0143977
0.0142738
0.0201203
0.0195139
0.0193435
0.0193396
0.0192975
0.0192569
0.0192339
0.0191547
0.0190531
0.0189914
0.0189512
0.0189339
0.0189253
0.0189487
0.0190047
0.0190698
0.0191573
0.0192549
0.0193517
0.019478
0.0197768
0.0200698
0.0200383
0.019775
0.0188032
0.0181957
2.32845e-06
1.41479e-08
1.52799e-14
1.83543e-15
3.84703e-16
1.26075e-16
5.84182e-17
3.51374e-17
2.54994e-17
2.16447e-17
8.25446e-15
4.66405e-11
1.02774e-09
0.0139565
0.00336231
0.00446295
0.00318789
0.00302202
0.00301326
0.00295438
0.00290478
0.00286766
0.00283236
0.00278015
0.00273322
0.00270531
0.00268377
0.00267577
0.00268555
0.0027064
0.0027411
0.00278782
0.00284454
0.00290932
0.00298217
0.00306253
0.00314221
0.0032129
0.00327912
0.00334484
0.00340979
0.00347371
0.00353706
0.00360015
0.00365754
0.00372567
0.00402205
0.0045842
0.00530659
0.00634396
0.00711344
0.0101441
0.0105531
0.0105851
0.00997858
0.00968675
0.00937881
0.00908374
0.00881966
0.00863777
0.00850085
0.00840787
0.00835832
0.00834916
0.00838265
0.00844074
0.00852988
0.00865588
0.0088231
0.0090287
0.00927019
0.00952504
0.00995061
0.0113122
0.0129157
0.0144959
0.0152896
0.0167672
1.41632e-05
7.74155e-08
4.55247e-14
4.89392e-15
9.24689e-16
2.75795e-16
1.17469e-16
6.55802e-17
4.45827e-17
3.52132e-17
4.42014e-15
8.21039e-12
2.06521e-10
0.00634446
0.0027098
0.00449216
0.0049285
0.00514911
0.00532827
0.0054164
0.00540731
0.00537309
0.00533655
0.00525622
0.00516865
0.00510443
0.00504166
0.0049986
0.00498626
0.00499254
0.00502322
0.00507524
0.00514496
0.00522842
0.00532489
0.00543304
0.00553663
0.00561865
0.00568998
0.00576192
0.00583366
0.00590481
0.00597549
0.00604719
0.0061205
0.00619521
0.00623324
0.00613393
0.00583405
0.00531598
0.00589545
0.00541124
0.00397895
0.00401635
0.00391466
0.00372224
0.00362135
0.00352794
0.00339238
0.0033153
0.00325618
0.00320322
0.00318284
0.00317934
0.00319479
0.003229
0.00327813
0.00334688
0.00343534
0.00354261
0.00366704
0.00379928
0.00400119
0.00458201
0.00531146
0.0022674
0.00693497
0.0111785
6.58665e-05
8.88733e-08
1.16263e-09
1.36877e-14
2.33252e-15
6.33018e-16
2.47416e-16
1.27835e-16
8.11216e-17
5.96947e-17
2.59269e-15
1.74193e-12
4.30799e-11
0.00457514
0.00657557
0.0117347
0.0128596
0.0133126
0.0136064
0.0138076
0.0139355
0.0140217
0.0140883
0.0141442
0.0141901
0.0142294
0.0142641
0.0142936
0.0143188
0.0143405
0.0143585
0.0143726
0.0143828
0.0143899
0.0143962
0.0144035
0.0144135
0.0144284
0.0144464
0.0144647
0.0144844
0.0145043
0.0145247
0.0145495
0.014581
0.014621
0.0145774
0.0142199
0.0134094
0.0121182
0.0106523
0.00958148
0.00617516
0.00504703
0.00519863
0.00510541
0.00513654
0.00517422
0.0051315
0.00512723
0.00512415
0.00510346
0.00510779
0.00511507
0.00512718
0.00515365
0.00518229
0.00521923
0.00526304
0.00531049
0.00535635
0.00540332
0.00545568
0.00538798
0.00513753
0.00485203
0.00539953
0.00384481
0.00022847
7.53169e-07
8.94023e-09
4.01182e-14
6.1718e-15
1.52238e-15
5.45197e-16
2.59986e-16
1.53373e-16
1.05054e-16
1.67639e-15
4.26766e-13
1.2251e-09
0.0110421
0.0156448
0.0156938
0.0154255
0.0154375
0.0154407
0.0154507
0.0154633
0.0154779
0.0154998
0.0155314
0.0155667
0.015602
0.0156371
0.01567
0.0157004
0.0157289
0.0157558
0.0157806
0.015803
0.015824
0.015846
0.0158698
0.0158956
0.0159259
0.0159597
0.0159932
0.016027
0.0160607
0.0160937
0.0161298
0.0161724
0.0162353
0.0163318
0.0163462
0.0161657
0.0156808
0.0145655
0.0129268
0.0135653
0.0136818
0.0136381
0.0136885
0.0137103
0.0137368
0.0137731
0.0138113
0.0138577
0.0139084
0.0139589
0.0140097
0.0140595
0.0141057
0.0141474
0.0141887
0.0142353
0.0142799
0.0143146
0.014349
0.0144016
0.0141535
0.0134398
0.0124247
0.0115232
0.0100176
0.00119529
7.44575e-06
7.9628e-09
1.72331e-10
1.7113e-14
3.83503e-15
1.25593e-15
5.51086e-16
3.01185e-16
1.91565e-16
1.23248e-15
1.2292e-13
1.25648e-10
0.016723
0.0144908
0.0111475
0.00987183
0.00934674
0.0090102
0.00878233
0.00863151
0.00852859
0.0084643
0.00843306
0.00842207
0.00842105
0.00842665
0.00843505
0.00844524
0.00845774
0.00847079
0.00848526
0.00849949
0.00851574
0.00853389
0.00855412
0.00857815
0.00860576
0.00863638
0.0086674
0.00870029
0.00873456
0.00876948
0.00880575
0.00884516
0.00889268
0.00908314
0.00971677
0.0106236
0.0115689
0.012218
0.0121194
0.0162467
0.0156329
0.0155215
0.0154062
0.0152947
0.0152134
0.0151727
0.0151543
0.0151575
0.0151772
0.0152047
0.015238
0.0152756
0.0153142
0.015354
0.0153998
0.0154566
0.0155165
0.0155704
0.015628
0.0157398
0.0158559
0.0157602
0.015429
0.014888
0.0136661
0.00490513
5.82739e-05
2.72178e-07
5.37484e-09
4.96759e-14
1.01057e-14
3.0228e-15
1.21709e-15
6.14097e-16
3.61755e-16
1.08621e-15
4.38593e-14
2.01496e-11
0.0130243
0.00641044
0.00491171
0.00393345
0.00375671
0.00366668
0.00358154
0.00348351
0.00340041
0.00333638
0.00325939
0.00318625
0.00313184
0.00307975
0.00304098
0.00302349
0.00301958
0.00303351
0.00306469
0.00311059
0.00316875
0.00323958
0.00332092
0.00340076
0.00346501
0.00352236
0.00358068
0.00364023
0.00370093
0.0037618
0.00382281
0.00388459
0.00394979
0.00407914
0.00441046
0.00488575
0.00163311
0.00643135
0.00853655
0.00992647
0.00979351
0.00913935
0.0087192
0.00843271
0.00822708
0.00809278
0.00800405
0.00794515
0.00791082
0.00789353
0.007889
0.00789559
0.00791318
0.00794055
0.00798259
0.00804159
0.00811561
0.00820074
0.00829935
0.0084637
0.00899459
0.00990421
0.0108111
0.0114872
0.0118443
0.00895184
0.000297179
2.3327e-06
4.20331e-08
1.50739e-13
2.78315e-14
7.59105e-15
2.79987e-15
1.3e-15
7.07346e-16
1.18803e-15
2.02341e-14
4.30303e-12
0.00595602
0.00243828
0.00264329
0.00296175
0.00310356
0.00316187
0.00317646
0.00317604
0.0030539
0.00297591
0.00291958
0.00286579
0.00282458
0.00278065
0.00274571
0.00272877
0.00272261
0.00273291
0.0027593
0.00280046
0.00285347
0.00291892
0.00299566
0.00307052
0.00312834
0.00317799
0.00322841
0.00327927
0.0033307
0.00338196
0.00343369
0.00348609
0.00353943
0.00358528
0.00348088
0.00319413
0.00295448
0.00361948
0.00430748
0.00378523
0.00375799
0.00362458
0.00338467
0.00328944
0.00322818
0.00314213
0.00309752
0.00306327
0.00302613
0.00301054
0.00300087
0.00299761
0.0030076
0.00302415
0.00305139
0.00308872
0.00313491
0.00318741
0.00324592
0.00332931
0.00355453
0.00392906
0.00445344
0.00369355
0.00643235
0.0075567
0.00104379
1.47708e-05
2.5044e-07
4.77421e-13
7.99795e-14
1.98687e-14
6.69942e-15
2.85593e-15
1.43155e-15
1.5818e-15
1.21094e-14
1.20229e-12
0.00260148
0.00472987
0.00684367
0.00767189
0.00797833
0.00803812
0.00807033
0.00816874
0.00796581
0.00786748
0.00789102
0.00793424
0.00797729
0.0080166
0.00805094
0.0080815
0.00810994
0.00813699
0.00816352
0.00818999
0.00821693
0.00824504
0.00827489
0.00830646
0.00833937
0.00837223
0.00840363
0.00843442
0.00846572
0.00849663
0.0085289
0.00856308
0.00859983
0.00862026
0.00828412
0.00752597
0.00666633
0.00470593
0.00367954
0.00407162
0.00307746
0.00312133
0.00305483
0.00308808
0.00313718
0.0031376
0.00316219
0.00318617
0.00319491
0.00321703
0.00323753
0.00325706
0.0032836
0.00331038
0.00334135
0.00337594
0.00341184
0.00344585
0.00347767
0.00350512
0.00350005
0.00334246
0.00307591
0.0031196
0.00354043
0.00412659
0.00182902
6.30884e-05
5.40894e-07
1.44922e-08
2.39202e-13
5.40857e-14
1.66521e-14
6.50266e-15
2.99605e-15
2.44867e-15
9.27911e-15
4.33512e-13
0.00709047
0.0114818
0.0121471
0.0121748
0.0122205
0.0122261
0.0122195
0.0122974
0.0122706
0.0122655
0.0123554
0.0124213
0.0124751
0.0125225
0.0125647
0.0126031
0.01264
0.0126766
0.0127135
0.0127512
0.0127907
0.0128327
0.0128778
0.0129253
0.0129746
0.0130241
0.0130715
0.013118
0.0131659
0.0132137
0.0132639
0.0133164
0.0133752
0.0134607
0.0132113
0.0129098
0.0125808
0.0116413
0.0101356
0.00907406
0.00828979
0.00814269
0.00815722
0.00821811
0.00831001
0.00841088
0.00851367
0.0086197
0.00872289
0.00882167
0.00891555
0.00900185
0.00907992
0.00915097
0.00921849
0.00928543
0.00934835
0.00940168
0.00944652
0.0094825
0.00944312
0.0090043
0.00829103
0.00739932
0.00644898
0.00544025
0.00383754
0.000312683
6.50605e-06
1.91073e-07
7.43122e-13
1.52768e-13
4.29035e-14
1.53214e-14
6.47714e-15
4.22543e-15
8.97643e-15
2.00093e-13
0.013133
0.0120201
0.00974448
0.0095108
0.00940212
0.00939348
0.00936569
0.00935927
0.00950456
0.00955308
0.00958216
0.00960896
0.00963516
0.00966143
0.00968816
0.00971422
0.00974076
0.00976812
0.00979575
0.00982396
0.00985326
0.00988378
0.00991624
0.00994919
0.00998228
0.0100161
0.0100492
0.0100825
0.010118
0.0101544
0.0101944
0.0102368
0.0102807
0.0103665
0.0105869
0.0109101
0.0112171
0.0112866
0.0106975
0.0129823
0.0122952
0.0122008
0.01222
0.0122513
0.0122809
0.0123164
0.0123344
0.0123483
0.0123689
0.0123966
0.0124318
0.0124711
0.0125107
0.0125516
0.0125978
0.012653
0.0127128
0.0127694
0.0128223
0.0128806
0.0129745
0.0128646
0.0125846
0.0119855
0.0112986
0.0104002
0.00851767
0.0016453
5.51417e-05
9.18645e-07
3.38562e-08
4.46812e-13
1.14323e-13
3.72847e-14
1.44397e-14
7.88755e-15
1.0647e-14
1.16331e-13
0.010852
0.00669029
0.00211369
0.000746505
0.00383019
0.00386389
0.00385662
0.00380876
0.00381471
0.00378306
0.00370972
0.00362704
0.00355919
0.00348754
0.00342844
0.00339344
0.00337355
0.00337638
0.00340221
0.00344927
0.00351425
0.00359795
0.00369887
0.00379658
0.00386861
0.00392883
0.00399123
0.00405514
0.00412142
0.00418871
0.0042582
0.00432936
0.00440145
0.00449242
0.00471056
0.00310764
0.00525001
0.00704783
0.00800416
0.00910478
0.00917497
0.00896646
0.00889433
0.00886022
0.00881113
0.00876953
0.00875293
0.00876089
0.00878662
0.00881997
0.00885674
0.00889466
0.00893115
0.008967
0.00900623
0.00905208
0.00910382
0.00915744
0.00921097
0.00926548
0.00939332
0.00974052
0.0101126
0.0103822
0.0104726
0.0103848
0.00986849
0.00486014
0.00029676
8.44748e-06
5.37627e-08
2.61879e-09
3.14432e-13
9.35405e-14
3.31482e-14
1.56126e-14
1.48539e-14
8.33727e-14
0.00266881
0.00272538
0.00205687
0.00202178
0.0020839
0.00213551
0.00216235
0.0021559
0.00214023
0.00212434
0.0020856
0.00203755
0.00199665
0.00195187
0.00191254
0.00188702
0.00186976
0.00186602
0.00187611
0.00189964
0.00193484
0.00198255
0.00204286
0.00210375
0.00214963
0.00218758
0.00222628
0.00226584
0.00230662
0.00234792
0.00238998
0.00243287
0.00247561
0.00251326
0.00248026
0.00270137
0.00318065
0.00364768
0.0025572
0.00351108
0.00355883
0.00359408
0.00348613
0.00348609
0.00348384
0.00342644
0.0034049
0.00339094
0.00336891
0.00336641
0.00336567
0.00336743
0.00337921
0.00339291
0.0034133
0.00343992
0.00347166
0.00350612
0.00354121
0.00357417
0.00362961
0.00388845
0.00295075
0.00480981
0.00620216
0.00735331
0.00807901
0.0069399
0.00113478
5.20939e-05
1.11929e-06
5.01698e-08
8.91343e-13
2.41574e-13
7.82314e-14
3.23626e-14
2.34193e-14
7.25959e-14
0.00225631
0.00359593
0.00482736
0.00515907
0.00533586
0.00540687
0.00547192
0.00552506
0.00556717
0.00560742
0.00564031
0.00566342
0.0056835
0.00570059
0.00571434
0.00572747
0.00574107
0.00575485
0.00577001
0.00578719
0.00580692
0.00582994
0.00585878
0.00589469
0.0059332
0.00597009
0.00600566
0.00604057
0.00607583
0.00611102
0.0061465
0.00618243
0.00621653
0.00623628
0.00608194
0.00564101
0.00515085
0.00395803
0.00354876
0.0029891
0.00214937
0.00226567
0.002287
0.00235857
0.00243032
0.00243316
0.00243693
0.00245024
0.00244263
0.00244682
0.0024486
0.00244317
0.00244247
0.00244515
0.00245419
0.00246863
0.00248701
0.00250673
0.00252627
0.00254014
0.0025504
0.00246924
0.00255668
0.00277274
0.00304371
0.00352896