/*--------------------------------*- C++ -*----------------------------------*\
| =========                 |                                                 |
| \\      /  F ield         | OpenFOAM: The Open Source CFD Toolbox           |
|  \\    /   O peration     | Version:  2312                                  |
|   \\  /    A nd           | Website:  www.openfoam.com                      |
|    \\/     M anipulation  |                                                 |
\*---------------------------------------------------------------------------*/
FoamFile
{
    version     2.0;
    format      ascii;
    arch        "LSB;label=32;scalar=64";
    class       volVectorField;
    location    "61.166272627609345";
    object      U;
}
// * * * * * * * * * * * * * * * * * * * * * * * * * * * * * * * * * * * * * //

dimensions      [0 1 -1 0 0 0 0];

internalField   nonuniform List<vector> 
21039
(
(0.913779 0.047462 0)
(1.02606 0.0665025 0)
(1.00449 0.0294758 0)
(1.00177 0.0188909 0)
(1.00121 0.0138779 0)
(1.0008 0.0104924 0)
(1.00055 0.00816082 0)
(1.0004 0.00651263 0)
(1.00031 0.00529678 0)
(1.00024 0.00436937 0)
(1.00019 0.00364492 0)
(1.00015 0.00306844 0)
(1.00012 0.00260293 0)
(1.0001 0.00222281 0)
(1.00008 0.00190998 0)
(1.00007 0.00165133 0)
(1.00005 0.00143719 0)
(1.00004 0.0012603 0)
(1.00003 0.00111505 0)
(1.00003 0.000996911 0)
(1.00002 0.000902095 0)
(1.00002 0.000828609 0)
(1.00001 0.00077814 0)
(1.00001 0.000732996 0)
(1.00001 0.000698336 0)
(1.00001 0.00067073 0)
(1.00001 0.000645774 0)
(1.00001 0.000613466 0)
(1.00002 0.00055189 0)
(0.794588 0.0730772 0)
(1.07451 0.121692 0)
(1.03989 0.0708197 0)
(1.01812 0.0496835 0)
(1.0113 0.0382518 0)
(1.00766 0.0294545 0)
(1.0054 0.0231407 0)
(1.00397 0.018547 0)
(1.00302 0.0150729 0)
(1.00235 0.012377 0)
(1.00187 0.0102429 0)
(1.00151 0.00852373 0)
(1.00123 0.00711878 0)
(1.00101 0.00595764 0)
(1.00084 0.00499005 0)
(1.0007 0.00417951 0)
(1.00058 0.0034991 0)
(1.00048 0.00292869 0)
(1.00039 0.00245301 0)
(1.00032 0.00206023 0)
(1.00025 0.00174058 0)
(1.0002 0.0014878 0)
(1.00015 0.00130591 0)
(1.00012 0.00116672 0)
(1.00011 0.00107671 0)
(1.00011 0.00101749 0)
(1.00011 0.000974522 0)
(1.00012 0.000928358 0)
(1.00013 0.000848826 0)
(0.667346 0.0572842 0)
(1.08305 0.124816 0)
(1.08438 0.0902895 0)
(1.04632 0.0676499 0)
(1.0291 0.0541116 0)
(1.02029 0.0431292 0)
(1.01473 0.0347997 0)
(1.01104 0.0283937 0)
(1.00849 0.0233382 0)
(1.00667 0.0193014 0)
(1.00534 0.0160378 0)
(1.00434 0.0133649 0)
(1.00358 0.0111513 0)
(1.00297 0.0093017 0)
(1.00248 0.00774607 0)
(1.00208 0.00643246 0)
(1.00175 0.00532207 0)
(1.00146 0.00438562 0)
(1.00121 0.0036009 0)
(1.00099 0.00295088 0)
(1.00079 0.00242174 0)
(1.00062 0.00200344 0)
(1.00047 0.00170171 0)
(1.00036 0.00148441 0)
(1.0003 0.0013529 0)
(1.00027 0.00127212 0)
(1.00026 0.00121759 0)
(1.00027 0.00116401 0)
(1.00028 0.00107796 0)
(0.541029 0.0352706 0)
(1.05078 0.110855 0)
(1.11596 0.0970465 0)
(1.07617 0.0762814 0)
(1.0493 0.0620947 0)
(1.03534 0.0509613 0)
(1.0265 0.0422607 0)
(1.02033 0.0352054 0)
(1.01592 0.0293922 0)
(1.01269 0.0245955 0)
(1.01027 0.020611 0)
(1.00843 0.0172745 0)
(1.00699 0.0144617 0)
(1.00585 0.012077 0)
(1.00492 0.0100475 0)
(1.00415 0.00831701 0)
(1.00349 0.0068427 0)
(1.00293 0.00559171 0)
(1.00244 0.00453883 0)
(1.002 0.00366477 0)
(1.00161 0.00295409 0)
(1.00125 0.00239455 0)
(1.00093 0.00199327 0)
(1.00069 0.00171599 0)
(1.00055 0.00155581 0)
(1.00046 0.0014626 0)
(1.00043 0.00140357 0)
(1.00043 0.00134851 0)
(1.00043 0.00125944 0)
(0.444176 0.0186741 0)
(0.997722 0.0919209 0)
(1.12905 0.0957287 0)
(1.10151 0.0795235 0)
(1.06832 0.065449 0)
(1.04986 0.0547449 0)
(1.03836 0.0463326 0)
(1.03016 0.0392694 0)
(1.02408 0.0332657 0)
(1.01951 0.0281721 0)
(1.01601 0.0238299 0)
(1.01328 0.0201109 0)
(1.01112 0.0169149 0)
(1.00937 0.0141614 0)
(1.00793 0.011786 0)
(1.00672 0.00973794 0)
(1.00569 0.00797732 0)
(1.0048 0.00647301 0)
(1.004 0.00520085 0)
(1.00329 0.00414231 0)
(1.00264 0.00328282 0)
(1.00204 0.0026099 0)
(1.0015 0.00213257 0)
(1.00108 0.00181541 0)
(1.00081 0.00164195 0)
(1.00066 0.00154898 0)
(1.00058 0.00149667 0)
(1.00057 0.00145021 0)
(1.00055 0.00136482 0)
(0.378593 0.00810902 0)
(0.93961 0.0719113 0)
(1.127 0.0884192 0)
(1.12092 0.0787395 0)
(1.0856 0.0659579 0)
(1.06317 0.0559442 0)
(1.04942 0.048052 0)
(1.03962 0.0412766 0)
(1.03221 0.0353834 0)
(1.02651 0.0302679 0)
(1.02205 0.0258098 0)
(1.01851 0.0219146 0)
(1.01564 0.018507 0)
(1.0133 0.0155248 0)
(1.01133 0.012917 0)
(1.00967 0.0106427 0)
(1.00822 0.00866892 0)
(1.00695 0.00697008 0)
(1.00582 0.00552607 0)
(1.00478 0.00432167 0)
(1.00383 0.00334529 0)
(1.00294 0.00258623 0)
(1.00213 0.0020565 0)
(1.0015 0.00172021 0)
(1.00108 0.00155046 0)
(1.00082 0.0014723 0)
(1.0007 0.00143975 0)
(1.00065 0.0014135 0)
(1.00062 0.00134051 0)
(0.333339 0.00233893 0)
(0.883217 0.0539174 0)
(1.114 0.0780095 0)
(1.13397 0.0749799 0)
(1.10102 0.0644026 0)
(1.07545 0.0552995 0)
(1.05962 0.0480584 0)
(1.04851 0.0417462 0)
(1.04004 0.036138 0)
(1.03341 0.0311621 0)
(1.02813 0.0267376 0)
(1.02387 0.0228015 0)
(1.02038 0.0193016 0)
(1.01746 0.0161934 0)
(1.01499 0.0134399 0)
(1.01287 0.0110113 0)
(1.011 0.00888388 0)
(1.00934 0.00703893 0)
(1.00783 0.00546245 0)
(1.00644 0.0041443 0)
(1.00514 0.00307755 0)
(1.00392 0.00225505 0)
(1.0028 0.00169292 0)
(1.00191 0.00135542 0)
(1.00131 0.00120469 0)
(1.00094 0.00115487 0)
(1.00074 0.00115468 0)
(1.00065 0.00116061 0)
(1.00058 0.00111022 0)
(0.301002 -0.000189309 0)
(0.831366 0.0396543 0)
(1.09372 0.0671303 0)
(1.14066 0.0695931 0)
(1.11403 0.0615472 0)
(1.08668 0.053435 0)
(1.06901 0.0468498 0)
(1.0568 0.0410643 0)
(1.04748 0.0358293 0)
(1.04009 0.0310854 0)
(1.03413 0.0267854 0)
(1.02925 0.0228939 0)
(1.0252 0.0193794 0)
(1.02177 0.0162139 0)
(1.01882 0.0133744 0)
(1.01625 0.0108422 0)
(1.01396 0.00860287 0)
(1.0119 0.00664578 0)
(1.01 0.00496395 0)
(1.00823 0.00355353 0)
(1.00655 0.00241349 0)
(1.00497 0.00154155 0)
(1.00348 0.000959072 0)
(1.0023 0.000631695 0)
(1.00148 0.000510552 0)
(1.00096 0.000499172 0)
(1.00068 0.000541854 0)
(1.00052 0.000591891 0)
(1.00039 0.000577392 0)
(0.277991 -0.000983938 0)
(0.785571 0.0291592 0)
(1.06943 0.0571396 0)
(1.14181 0.0636144 0)
(1.12435 0.0580581 0)
(1.09674 0.0509259 0)
(1.0776 0.0449016 0)
(1.06445 0.0395954 0)
(1.05446 0.0347349 0)
(1.04648 0.0302505 0)
(1.03997 0.0261145 0)
(1.03457 0.022311 0)
(1.03003 0.0188246 0)
(1.02614 0.0156414 0)
(1.02276 0.0127505 0)
(1.01976 0.0101437 0)
(1.01707 0.00781558 0)
(1.0146 0.00576385 0)
(1.0123 0.00398893 0)
(1.01013 0.00249399 0)
(1.00805 0.00128501 0)
(1.00605 0.000365874 0)
(1.00417 -0.000237485 0)
(1.00264 -0.000553462 0)
(1.00157 -0.000640822 0)
(1.00088 -0.000613215 0)
(1.00048 -0.000526435 0)
(1.00024 -0.000422523 0)
(1.00003 -0.000364063 0)
(0.261517 -0.00102793 0)
(0.746226 0.0217255 0)
(1.04368 0.0484535 0)
(1.13874 0.0576022 0)
(1.13212 0.0543155 0)
(1.1057 0.0481356 0)
(1.08546 0.042566 0)
(1.07151 0.0376425 0)
(1.061 0.0331024 0)
(1.05256 0.028855 0)
(1.04561 0.0248794 0)
(1.03979 0.0211704 0)
(1.03484 0.0177234 0)
(1.03055 0.014535 0)
(1.02677 0.0116039 0)
(1.02338 0.00893074 0)
(1.02029 0.00651828 0)
(1.01743 0.00437186 0)
(1.01473 0.00249945 0)
(1.01214 0.000911576 0)
(1.00963 -0.000378748 0)
(1.0072 -0.00136057 0)
(1.00486 -0.00199782 0)
(1.00295 -0.0023151 0)
(1.00159 -0.00237842 0)
(1.00069 -0.00230761 0)
(1.00013 -0.00216901 0)
(0.999778 -0.0020208 0)
(0.999461 -0.00195398 0)
(0.249262 -0.000808103 0)
(0.712845 0.0165651 0)
(1.01809 0.0410946 0)
(1.13268 0.0518373 0)
(1.13767 0.0504999 0)
(1.11367 0.0452342 0)
(1.09276 0.0400427 0)
(1.07811 0.0354066 0)
(1.06716 0.031115 0)
(1.05836 0.0270578 0)
(1.05107 0.0232123 0)
(1.04491 0.0195785 0)
(1.03962 0.0161582 0)
(1.03498 0.0129548 0)
(1.03086 0.00997408 0)
(1.02711 0.00722341 0)
(1.02365 0.00471258 0)
(1.02041 0.00245379 0)
(1.0173 0.000462041 0)
(1.01429 -0.00124618 0)
(1.01134 -0.00264978 0)
(1.00843 -0.00372801 0)
(1.00561 -0.00443403 0)
(1.00326 -0.00478397 0)
(1.00155 -0.00484673 0)
(1.00039 -0.00474809 0)
(0.999635 -0.00456378 0)
(0.999114 -0.00436375 0)
(0.99865 -0.00426688 0)
(0.239708 -0.000548063 0)
(0.684598 0.0129929 0)
(0.99359 0.0349418 0)
(1.12462 0.046464 0)
(1.14132 0.046713 0)
(1.12074 0.0423028 0)
(1.09964 0.0374384 0)
(1.08438 0.0330098 0)
(1.07304 0.0288951 0)
(1.06396 0.0249736 0)
(1.05641 0.0212164 0)
(1.04998 0.0176241 0)
(1.0444 0.0142017 0)
(1.03948 0.0109573 0)
(1.03505 0.0079009 0)
(1.03098 0.00504522 0)
(1.02718 0.00240544 0)
(1.02357 -8.03144e-07 0)
(1.02007 -0.00215376 0)
(1.01664 -0.00402923 0)
(1.01322 -0.0055972 0)
(1.00981 -0.006828 0)
(1.00646 -0.00766345 0)
(1.00363 -0.00810483 0)
(1.00152 -0.00821515 0)
(1.00004 -0.00812653 0)
(0.999016 -0.00792204 0)
(0.998264 -0.0076839 0)
(0.997591 -0.00755635 0)
(0.231981 -0.000338274 0)
(0.66066 0.010472 0)
(0.970659 0.029818 0)
(1.1153 0.0415421 0)
(1.14338 0.0430224 0)
(1.127 0.039391 0)
(1.10617 0.0348179 0)
(1.09043 0.0305325 0)
(1.07874 0.0265288 0)
(1.06943 0.0226879 0)
(1.06167 0.0189725 0)
(1.05503 0.0153807 0)
(1.04924 0.0119186 0)
(1.04407 0.00859607 0)
(1.03939 0.00542616 0)
(1.03504 0.00242484 0)
(1.03094 -0.000389746 0)
(1.02698 -0.00299624 0)
(1.02311 -0.00536872 0)
(1.01926 -0.00747581 0)
(1.01538 -0.00928074 0)
(1.01145 -0.0107457 0)
(1.00754 -0.0118014 0)
(1.00417 -0.0124279 0)
(1.0016 -0.0126693 0)
(0.99973 -0.01266 0)
(0.998365 -0.0124887 0)
(0.997298 -0.0122505 0)
(0.996334 -0.0121134 0)
(0.225573 -0.000196804 0)
(0.640305 0.00862845 0)
(0.949522 0.025542 0)
(1.10531 0.0370756 0)
(1.14416 0.0394705 0)
(1.13252 0.0365322 0)
(1.11242 0.0322248 0)
(1.09634 0.0280339 0)
(1.08436 0.024084 0)
(1.07486 0.0202715 0)
(1.06695 0.0165513 0)
(1.06015 0.0129164 0)
(1.05419 0.0093718 0)
(1.04885 0.00592753 0)
(1.04395 0.00259744 0)
(1.03938 -0.000602073 0)
(1.03501 -0.00365113 0)
(1.03076 -0.00652426 0)
(1.02654 -0.00919015 0)
(1.02228 -0.0116119 0)
(1.01794 -0.0137473 0)
(1.01349 -0.015553 0)
(1.009 -0.0169514 0)
(1.00507 -0.0178974 0)
(1.002 -0.0184007 0)
(0.999664 -0.018588 0)
(0.997857 -0.0185474 0)
(0.996362 -0.0183855 0)
(0.994997 -0.0182905 0)
(0.220161 -0.00011381 0)
(0.622923 0.00723215 0)
(0.930236 0.021982 0)
(1.09505 0.0330704 0)
(1.14389 0.0360978 0)
(1.13734 0.0337512 0)
(1.11838 0.0296839 0)
(1.10213 0.0255519 0)
(1.0899 0.0216097 0)
(1.08026 0.0177798 0)
(1.07224 0.014011 0)
(1.06534 0.0102907 0)
(1.05927 0.00662051 0)
(1.05379 0.00300868 0)
(1.04875 -0.000532857 0)
(1.044 -0.00398864 0)
(1.03942 -0.00733724 0)
(1.03491 -0.0105503 0)
(1.03038 -0.0135924 0)
(1.02575 -0.0164219 0)
(1.02096 -0.0189926 0)
(1.01601 -0.021258 0)
(1.01097 -0.0231399 0)
(1.00652 -0.0245783 0)
(1.00298 -0.0255386 0)
(1.00017 -0.0261259 0)
(0.997851 -0.0264074 0)
(0.995813 -0.0264811 0)
(0.99391 -0.0265328 0)
(0.215905 -5.89698e-05 0)
(0.609095 0.00622667 0)
(0.914069 0.0192173 0)
(1.08569 0.0297559 0)
(1.14303 0.033175 0)
(1.14133 0.0312961 0)
(1.12374 0.0274335 0)
(1.1075 0.0233372 0)
(1.09509 0.0193744 0)
(1.08535 0.0154979 0)
(1.07728 0.0116527 0)
(1.07034 0.00781885 0)
(1.06422 0.00399356 0)
(1.0587 0.000180717 0)
(1.05358 -0.0036119 0)
(1.04873 -0.00737095 0)
(1.04402 -0.0110757 0)
(1.03933 -0.0146973 0)
(1.03457 -0.0181985 0)
(1.02964 -0.0215327 0)
(1.02449 -0.0246466 0)
(1.01909 -0.0274869 0)
(1.01358 -0.0299706 0)
(1.00872 -0.032028 0)
(1.00483 -0.0336043 0)
(1.00166 -0.0348053 0)
(0.998875 -0.0356661 0)
(0.996215 -0.0362275 0)
(0.993575 -0.0366066 0)
(0.212765 -2.64321e-05 0)
(0.598926 0.00554035 0)
(0.901695 0.0172268 0)
(1.07804 0.0272526 0)
(1.14196 0.0308985 0)
(1.14436 0.0293627 0)
(1.12811 0.0256582 0)
(1.11199 0.0215826 0)
(1.09948 0.0175915 0)
(1.08969 0.0136637 0)
(1.08162 0.00973989 0)
(1.0747 0.00579308 0)
(1.06859 0.00181471 0)
(1.06307 -0.00219668 0)
(1.05796 -0.00623849 0)
(1.05309 -0.0103019 0)
(1.04834 -0.0143699 0)
(1.04357 -0.0184175 0)
(1.03868 -0.0224091 0)
(1.03357 -0.0262963 0)
(1.02815 -0.0300184 0)
(1.02243 -0.0335096 0)
(1.01655 -0.0366605 0)
(1.01141 -0.039361 0)
(1.00737 -0.0415537 0)
(1.00412 -0.0434261 0)
(1.00123 -0.045095 0)
(0.998293 -0.0465875 0)
(0.995194 -0.0477477 0)
(0.210331 2.02044e-05 0)
(0.591127 0.00507196 0)
(0.891926 0.015778 0)
(1.07167 0.0253498 0)
(1.14079 0.0291257 0)
(1.14667 0.0278503 0)
(1.13171 0.0242788 0)
(1.11576 0.0202275 0)
(1.1032 0.0162173 0)
(1.09338 0.0122481 0)
(1.08533 0.00825751 0)
(1.07845 0.00421225 0)
(1.07239 9.82706e-05 0)
(1.06692 -0.00409167 0)
(1.06186 -0.00836076 0)
(1.05703 -0.0127063 0)
(1.0523 -0.0171186 0)
(1.04753 -0.0215798 0)
(1.0426 -0.026061 0)
(1.03739 -0.0305177 0)
(1.03182 -0.034887 0)
(1.02586 -0.0390934 0)
(1.01969 -0.0429862 0)
(1.01429 -0.0463346 0)
(1.01013 -0.0489924 0)
(1.00698 -0.0512138 0)
(1.00447 -0.0533605 0)
(1.00228 -0.0558227 0)
(0.999853 -0.0580371 0)
(0.208767 1.18907e-05 0)
(0.585746 0.00470654 0)
(0.884959 0.0147423 0)
(1.06702 0.0239981 0)
(1.13994 0.0278493 0)
(1.14847 0.0267227 0)
(1.13454 0.0232175 0)
(1.11879 0.0191772 0)
(1.10623 0.0151586 0)
(1.09643 0.0111629 0)
(1.08842 0.00712013 0)
(1.08161 0.00299254 0)
(1.07563 -0.00123754 0)
(1.07024 -0.0055825 0)
(1.06526 -0.0100521 0)
(1.06052 -0.0146512 0)
(1.05588 -0.0193797 0)
(1.05118 -0.0242303 0)
(1.04631 -0.0291849 0)
(1.04114 -0.0342101 0)
(1.03556 -0.0392524 0)
(1.02956 -0.0442487 0)
(1.02332 -0.0490389 0)
(1.01784 -0.05324 0)
(1.01363 -0.056478 0)
(1.01053 -0.0587814 0)
(1.00829 -0.0601698 0)
(1.00692 -0.0613392 0)
(1.00727 -0.0662464 0)
(1.00002 0.000557151 0)
(1.00002 0.000555292 0)
(1.00002 0.000548742 0)
(1.00001 0.000543255 1.00424e-21)
(1.00001 0.000539866 5.011e-21)
(1.00001 0.0005384 -9.01872e-21)
(1.00001 0.000538699 5.00979e-21)
(1.00001 0.00054064 -3.99439e-21)
(1.00001 0.000544085 5.08902e-22)
(1.00001 0.00054904 3.99411e-21)
(1 0.000555345 0)
(1 0.00056299 -4.4712e-21)
(1 0.000571851 5.06353e-22)
(0.999999 0.000581815 3.9715e-21)
(0.999998 0.000592857 0)
(0.999997 0.000604814 0)
(0.999995 0.000617656 -3.94139e-21)
(0.999994 0.000631239 3.94387e-21)
(0.999993 0.000645411 0)
(0.999992 0.000660175 -1.95884e-21)
(0.999991 0.000675345 2.08204e-21)
(0.99999 0.000690811 1.82789e-21)
(0.999989 0.000706523 -2.92318e-21)
(0.999988 0.0007223 9.42464e-22)
(0.999987 0.000738052 3.02369e-23)
(0.999986 0.000753711 -6.04441e-23)
(0.999986 0.000769109 8.41671e-22)
(0.999985 0.000784201 -9.62035e-22)
(0.999985 0.000798796 0)
(0.999985 0.000812753 0)
(0.999985 0.000826162 -2.37814e-22)
(0.999984 0.000838905 -2.36962e-22)
(0.999984 0.000850873 -4.00693e-21)
(0.999985 0.000862054 3.2977e-21)
(0.999985 0.000872323 -4.21073e-21)
(0.999985 0.000881626 4.20563e-21)
(0.999985 0.000889933 -3.24753e-21)
(0.999986 0.000897115 3.24591e-21)
(0.999987 0.000903176 4.61006e-22)
(0.999988 0.000908016 4.59071e-22)
(0.999988 0.000911618 -4.571e-22)
(0.99999 0.000913962 0)
(0.999991 0.000914963 0)
(0.999992 0.000914673 0)
(0.999993 0.000912988 0)
(0.999995 0.000910044 0)
(0.999996 0.000905885 1.77793e-21)
(0.999997 0.00089953 -1.7751e-21)
(0.999999 0.00088688 0)
(1.00012 0.000847097 0)
(1.0001 0.000839387 2.02478e-21)
(1.00009 0.000829099 -2.01917e-21)
(1.00007 0.000822984 -1.00814e-21)
(1.00006 0.000822163 -1.00855e-21)
(1.00004 0.000826035 -3.01759e-21)
(1.00003 0.000834357 5.03727e-21)
(1.00001 0.000847075 0)
(0.999999 0.000863696 -5.01806e-22)
(0.999986 0.000884355 -1.00294e-21)
(0.999973 0.000908577 0)
(0.999961 0.000936273 4.99679e-22)
(0.99995 0.000967267 -4.48578e-21)
(0.999939 0.00100111 3.99042e-21)
(0.999929 0.00103781 0)
(0.999919 0.00107694 9.93717e-22)
(0.99991 0.00111832 0)
(0.999902 0.00116179 0)
(0.999895 0.00120683 0)
(0.999888 0.00125342 -1.96765e-21)
(0.999882 0.00130124 1.84555e-21)
(0.999877 0.00134991 -1.2281e-22)
(0.999872 0.0013993 0)
(0.999869 0.00144908 -4.56711e-22)
(0.999866 0.00149896 4.79645e-22)
(0.999864 0.00154874 9.10196e-23)
(0.999863 0.00159811 1.20929e-22)
(0.999862 0.00164682 0)
(0.999863 0.00169465 -1.92081e-21)
(0.999864 0.00174131 1.92038e-21)
(0.999866 0.00178657 -3.5777e-21)
(0.999869 0.00183022 7.85665e-21)
(0.999872 0.00187199 -3.56455e-21)
(0.999877 0.00191166 4.72632e-22)
(0.999881 0.00194898 4.70868e-22)
(0.999887 0.00198382 4.69583e-22)
(0.999894 0.00201599 -4.67174e-22)
(0.999901 0.00204523 4.18262e-21)
(0.999909 0.00207147 -3.24978e-21)
(0.999918 0.00209438 -1.38487e-21)
(0.999927 0.00211391 5.05013e-21)
(0.999937 0.0021299 -3.66709e-21)
(0.999948 0.00214194 -1.82299e-21)
(0.99996 0.00215001 3.62351e-21)
(0.999972 0.00215384 -7.22653e-21)
(0.999984 0.00215359 3.60203e-21)
(0.999997 0.00214905 1.7871e-21)
(1.00001 0.00213942 -3.22865e-24)
(1.00003 0.00211973 0)
(1.00025 0.00106431 3.04536e-21)
(1.00021 0.00105243 -1.01683e-21)
(1.00017 0.00104363 -4.05351e-21)
(1.00012 0.00104193 2.0221e-21)
(1.00008 0.00104849 -2.02217e-21)
(1.00004 0.0010625 0)
(0.999999 0.00108366 -2.01447e-21)
(0.99996 0.00111209 -6.03514e-21)
(0.999924 0.00114672 6.03737e-21)
(0.999888 0.00118798 1.00293e-21)
(0.999855 0.00123497 0)
(0.999823 0.00128753 -6.00215e-21)
(0.999793 0.00134554 9.39849e-24)
(0.999766 0.00140804 3.99457e-21)
(0.99974 0.00147523 0)
(0.999716 0.00154633 -9.93109e-22)
(0.999694 0.00162099 -9.9347e-22)
(0.999674 0.00169916 0)
(0.999656 0.0017798 -9.89385e-22)
(0.999641 0.00186289 -1.96912e-21)
(0.999627 0.00194806 1.96973e-21)
(0.999616 0.00203455 -2.46191e-22)
(0.999607 0.0021222 -2.45039e-22)
(0.999601 0.00221057 0)
(0.999596 0.00229903 3.79833e-23)
(0.999594 0.00238734 -2.12538e-22)
(0.999594 0.00247507 0)
(0.999596 0.00256167 0)
(0.9996 0.00264684 -1.92134e-21)
(0.999607 0.00273019 1.92097e-21)
(0.999616 0.00281123 -3.81724e-21)
(0.999626 0.00288964 3.81597e-21)
(0.999639 0.00296502 0)
(0.999654 0.00303699 0)
(0.999671 0.00310516 0)
(0.999689 0.00316923 -9.38116e-22)
(0.99971 0.0032288 -1.87075e-21)
(0.999733 0.0032835 0)
(0.999757 0.00333313 -9.26943e-22)
(0.999784 0.00337716 -9.16868e-22)
(0.999812 0.00341548 2.76455e-21)
(0.999842 0.00344771 0)
(0.999874 0.0034734 3.6399e-21)
(0.999908 0.00349257 -5.44971e-21)
(0.999943 0.0035045 0)
(0.99998 0.00350939 0)
(1.00002 0.00350667 0)
(1.00006 0.00349551 -1.78233e-21)
(1.0001 0.00347196 -1.77252e-21)
(1.00038 0.00123651 -2.0343e-21)
(1.0003 0.00122638 4.07183e-21)
(1.00022 0.00122598 4.06588e-21)
(1.00013 0.00123538 6.08254e-21)
(1.00005 0.00125603 -2.03174e-21)
(0.999971 0.00128698 -4.04154e-21)
(0.999894 0.00132794 8.08281e-21)
(0.99982 0.00137922 -3.17115e-24)
(0.99975 0.00143906 -2.01284e-21)
(0.999682 0.0015083 2.01567e-21)
(0.999619 0.00158548 0)
(0.999559 0.00167043 2.0036e-21)
(0.999503 0.00176313 -1.99406e-21)
(0.999451 0.00186194 7.99795e-21)
(0.999403 0.00196737 -7.98305e-21)
(0.999359 0.00207821 5.98497e-21)
(0.999319 0.00219389 -9.99607e-22)
(0.999283 0.00231461 9.94023e-22)
(0.999252 0.0024386 9.88554e-22)
(0.999224 0.00256594 -9.89733e-22)
(0.999201 0.00269623 0)
(0.999182 0.00282819 -1.47246e-21)
(0.999168 0.00296171 1.22934e-21)
(0.999158 0.00309621 9.79217e-22)
(0.999152 0.00323069 4.56927e-23)
(0.999151 0.00336486 9.09544e-23)
(0.999154 0.00349821 1.45349e-21)
(0.999161 0.00362979 -9.67834e-22)
(0.999173 0.00375928 1.92352e-21)
(0.999188 0.00388617 -1.9232e-21)
(0.999208 0.00400965 0)
(0.999232 0.00412934 4.7621e-21)
(0.99926 0.0042447 -3.80603e-21)
(0.999293 0.00435509 3.77898e-21)
(0.999329 0.00446007 -3.77758e-21)
(0.999368 0.00455918 0)
(0.999412 0.0046518 3.73172e-21)
(0.99946 0.0047375 -1.86801e-21)
(0.999511 0.00481594 0)
(0.999566 0.00488637 3.69007e-21)
(0.999625 0.00494868 -3.68486e-21)
(0.999687 0.00500223 1.83155e-21)
(0.999753 0.00504652 1.82302e-21)
(0.999822 0.00508152 5.44352e-21)
(0.999894 0.00510618 5.93514e-24)
(0.99997 0.0051208 3.60219e-21)
(1.00005 0.00512437 1.7865e-21)
(1.00013 0.00511607 1.77655e-21)
(1.00022 0.00509341 1.7738e-21)
(1.00047 0.00133823 0)
(1.00035 0.00133833 -4.07693e-21)
(1.00021 0.00135559 -4.06923e-21)
(1.00008 0.00138524 0)
(0.999942 0.00142925 -4.06188e-21)
(0.999811 0.00148655 8.11203e-24)
(0.999685 0.0015568 8.12622e-21)
(0.999564 0.00164067 -2.03488e-21)
(0.99945 0.0017355 -8.36885e-24)
(0.999341 0.00184271 -6.05852e-21)
(0.999238 0.0019602 0)
(0.999142 0.00208775 -6.0411e-21)
(0.999051 0.00222553 2.018e-21)
(0.998968 0.00237106 0)
(0.998891 0.00252529 -2.00794e-21)
(0.99882 0.00268648 9.30201e-24)
(0.998757 0.00285381 -1.9941e-21)
(0.998701 0.00302785 6.96843e-21)
(0.998651 0.00320588 -1.02549e-23)
(0.998609 0.00338817 -1.00062e-21)
(0.998574 0.00357432 -9.88402e-22)
(0.998545 0.00376239 1.96888e-21)
(0.998525 0.00395239 -1.96917e-21)
(0.998511 0.00414359 -2.43786e-22)
(0.998505 0.00433452 5.04786e-22)
(0.998506 0.00452489 -2.72854e-22)
(0.998514 0.0047141 9.71713e-22)
(0.998529 0.00490076 -9.70002e-22)
(0.998551 0.00508449 9.67248e-22)
(0.99858 0.00526471 1.92069e-21)
(0.998617 0.00544022 -5.7474e-21)
(0.99866 0.00561061 -9.4063e-22)
(0.99871 0.00577518 5.71808e-21)
(0.998766 0.005933 1.89813e-21)
(0.998829 0.00608362 -3.76923e-21)
(0.998899 0.00622638 3.76695e-21)
(0.998975 0.00636043 7.31448e-24)
(0.999057 0.00648531 5.59527e-21)
(0.999146 0.00660051 -3.72915e-21)
(0.999241 0.00670509 -9.25018e-21)
(0.999341 0.00679897 3.68196e-21)
(0.999448 0.00688122 1.83347e-21)
(0.999561 0.00695129 7.28783e-21)
(0.999679 0.00700915 -3.63471e-21)
(0.999802 0.0070534 -7.03675e-24)
(0.999932 0.00708454 -7.57123e-24)
(1.00007 0.00710108 0)
(1.00021 0.00710234 -3.56251e-21)
(1.00037 0.00708804 -3.54043e-21)
(1.00049 0.00131757 0)
(1.00031 0.00133849 -6.15967e-21)
(1.00012 0.00138462 6.1522e-21)
(0.999916 0.00144578 0)
(0.999717 0.00152468 0)
(0.999522 0.00162008 -4.07689e-21)
(0.999335 0.00173163 -2.62447e-24)
(0.999156 0.00186043 -4.0787e-21)
(0.998985 0.00200273 -8.38957e-24)
(0.998823 0.00216074 0)
(0.998671 0.00233153 0)
(0.998528 0.00251488 2.01821e-21)
(0.998394 0.00271121 0)
(0.998271 0.00291702 0)
(0.998157 0.00313382 -2.01269e-21)
(0.998054 0.00335923 4.03286e-21)
(0.997962 0.00359216 2.01086e-21)
(0.997879 0.00383363 0)
(0.997808 0.0040798 1.98304e-21)
(0.997747 0.00433118 -4.98376e-21)
(0.997697 0.00458738 -1.98547e-21)
(0.997658 0.00484569 -1.97673e-21)
(0.99763 0.00510626 1.97693e-21)
(0.997613 0.00536821 1.35459e-24)
(0.997606 0.00562954 1.53759e-23)
(0.997611 0.00588992 2.44286e-22)
(0.997627 0.00614868 -4.88205e-22)
(0.997653 0.00640393 0)
(0.997691 0.00665522 -9.66036e-22)
(0.997739 0.00690191 0)
(0.997797 0.00714235 0)
(0.997866 0.00737609 -1.9187e-21)
(0.997946 0.00760228 -7.62145e-21)
(0.998035 0.00781964 2.08609e-23)
(0.998135 0.00802773 1.89511e-21)
(0.998244 0.00822569 0)
(0.998363 0.0084124 -1.8725e-21)
(0.998492 0.00858739 -3.73848e-21)
(0.99863 0.00874997 3.71232e-21)
(0.998777 0.008899 7.39964e-21)
(0.998932 0.00903444 -7.36408e-21)
(0.999097 0.00915507 3.65462e-24)
(0.999271 0.0092603 -3.64633e-21)
(0.999453 0.00935012 1.00721e-24)
(0.999643 0.00942278 0)
(0.999842 0.009479 -3.59353e-21)
(1.00005 0.00951674 -1.78364e-21)
(1.00027 0.00953565 1.78231e-21)
(1.00051 0.00953887 3.5418e-21)
(1.0004 0.00110031 0)
(1.00016 0.00115474 4.11644e-21)
(0.999887 0.00124252 -1.23679e-20)
(0.999608 0.0013483 0)
(0.999329 0.00147584 0)
(0.999057 0.00162356 -8.22195e-21)
(0.998794 0.00179106 8.19587e-21)
(0.998542 0.00197992 -4.10942e-21)
(0.998303 0.00218516 -8.57619e-24)
(0.998075 0.00240991 4.08752e-21)
(0.997861 0.00265026 0)
(0.99766 0.002906 0)
(0.997473 0.00317784 4.07967e-21)
(0.9973 0.00346108 0)
(0.997142 0.00375792 0)
(0.996998 0.00406522 -4.04179e-21)
(0.996869 0.00438155 1.47606e-23)
(0.996755 0.00470849 0)
(0.996657 0.00504088 1.99969e-21)
(0.996573 0.00537954 5.00477e-21)
(0.996506 0.00572405 -2.00546e-21)
(0.996454 0.00607085 0)
(0.996418 0.00642022 -9.90512e-22)
(0.996397 0.00677112 1.23769e-21)
(0.996392 0.00712092 -5.3995e-22)
(0.996403 0.00746927 -2.46472e-22)
(0.99643 0.0078154 4.86144e-22)
(0.996472 0.00815685 -9.77169e-22)
(0.99653 0.00849307 0)
(0.996603 0.00882333 -3.87458e-21)
(0.996692 0.0091455 5.78108e-21)
(0.996795 0.00945906 1.90124e-21)
(0.996913 0.00976298 -6.67058e-24)
(0.997046 0.0100556 1.89977e-21)
(0.997192 0.0103364 -1.90698e-21)
(0.997353 0.0106045 -3.76611e-21)
(0.997528 0.0108582 7.51223e-21)
(0.997716 0.0110973 -3.74428e-21)
(0.997917 0.0113207 7.4536e-21)
(0.998132 0.0115271 7.8087e-24)
(0.998358 0.0117166 7.36932e-21)
(0.998597 0.0118875 -3.66303e-21)
(0.998848 0.0120393 0)
(0.999111 0.0121721 1.53664e-24)
(0.999385 0.0122836 7.22038e-21)
(0.999672 0.0123749 0)
(0.999972 0.0124433 0)
(1.00029 0.012489 6.21402e-21)
(1.00062 0.01252 8.85345e-22)
(1.00015 0.000593494 1.03901e-21)
(0.999832 0.000695149 7.2992e-21)
(0.999472 0.000837462 8.2699e-21)
(0.999098 0.00100207 -8.32374e-21)
(0.998724 0.00119378 0)
(0.998357 0.00141028 -1.1003e-23)
(0.998002 0.00165097 -4.16506e-21)
(0.997662 0.00191791 -4.15516e-21)
(0.997337 0.00220468 1.2386e-20)
(0.997029 0.00251545 -4.11872e-21)
(0.996739 0.00284514 0)
(0.996468 0.00319361 8.22212e-21)
(0.996215 0.00356182 -8.17736e-21)
(0.995981 0.00394371 2.37354e-23)
(0.995767 0.00434228 8.15834e-21)
(0.995573 0.00475348 -2.04804e-21)
(0.9954 0.00517553 -1.99846e-21)
(0.995247 0.00561056 4.05601e-21)
(0.995116 0.00605198 0)
(0.995006 0.00650092 -2.00717e-21)
(0.994917 0.00695689 2.00978e-21)
(0.99485 0.00741539 1.99995e-21)
(0.994804 0.00787682 -1.99991e-21)
(0.994781 0.00833989 2.49846e-22)
(0.994779 0.00880133 3.08767e-23)
(0.994799 0.00926067 7.39264e-22)
(0.994841 0.009717 -2.5545e-24)
(0.994904 0.0101673 0)
(0.994989 0.0106107 0)
(0.995095 0.0110465 -1.85465e-24)
(0.995222 0.011472 -1.92454e-21)
(0.99537 0.0118864 3.86426e-21)
(0.995539 0.0122887 -3.83993e-21)
(0.995727 0.0126766 3.81185e-21)
(0.995935 0.0130496 -7.62474e-21)
(0.996162 0.0134066 1.76754e-23)
(0.996408 0.0137455 3.77347e-21)
(0.996673 0.014066 3.73817e-21)
(0.996955 0.014367 -7.47107e-21)
(0.997254 0.0146467 -7.42036e-21)
(0.99757 0.0149055 -3.69737e-21)
(0.997903 0.0151412 -3.67591e-21)
(0.998251 0.0153533 0)
(0.998615 0.0155419 -3.62534e-21)
(0.998994 0.0157044 4.70174e-25)
(0.99939 0.0158422 7.17135e-21)
(0.999803 0.0159518 -8.90676e-21)
(1.00024 0.0160342 1.76675e-21)
(1.0007 0.0161045 0)
(0.999693 -0.000303262 0)
(0.999272 -0.000158568 -8.35291e-21)
(0.998815 4.92317e-05 0)
(0.99833 0.000288793 8.33468e-21)
(0.99784 0.00056297 4.17566e-21)
(0.997359 0.000867702 -8.34765e-21)
(0.996892 0.00120193 1.24819e-20)
(0.996442 0.00156831 4.146e-21)
(0.996014 0.00195879 -4.14285e-21)
(0.995607 0.00237873 0)
(0.995224 0.00282167 4.14411e-21)
(0.994865 0.0032875 -8.26808e-21)
(0.99453 0.00377746 4.15484e-21)
(0.994222 0.00428397 -4.10669e-21)
(0.993939 0.00481092 2.72407e-23)
(0.993683 0.0053532 4.11181e-21)
(0.993455 0.00590863 -8.19967e-21)
(0.993255 0.0064799 0)
(0.993082 0.00705886 4.06989e-21)
(0.992939 0.00764698 -4.06988e-21)
(0.992824 0.00824357 -1.00813e-21)
(0.992739 0.00884312 0)
(0.992683 0.00944611 1.01135e-21)
(0.992656 0.0100509 2.50808e-22)
(0.992659 0.0106535 -5.31655e-22)
(0.992692 0.0112533 7.46402e-22)
(0.992754 0.011849 4.92489e-22)
(0.992845 0.0124371 -9.88669e-22)
(0.992966 0.0130163 0)
(0.993115 0.0135858 -1.95179e-21)
(0.993293 0.0141421 3.9056e-21)
(0.993499 0.0146844 0)
(0.993732 0.0152113 1.9224e-21)
(0.993992 0.0157199 0)
(0.994279 0.0162097 3.80754e-21)
(0.994591 0.0166792 -7.59493e-21)
(0.994928 0.017126 3.76595e-21)
(0.995289 0.0175496 -1.94018e-23)
(0.995674 0.0179486 3.70777e-21)
(0.996081 0.018321 -3.72361e-21)
(0.99651 0.0186673 3.68751e-21)
(0.99696 0.0189848 7.34649e-21)
(0.997431 0.0192731 0)
(0.997921 0.0195323 0)
(0.998431 0.0197593 -7.21109e-21)
(0.998961 0.0199561 -1.43288e-20)
(0.999513 0.0201181 1.42397e-20)
(1.00009 0.0202476 -7.96699e-21)
(1.00071 0.0203686 7.90713e-21)
(0.999003 -0.00183663 0)
(0.998452 -0.00151938 8.4988e-21)
(0.997849 -0.0012114 8.48797e-21)
(0.997224 -0.000928784 1.27184e-20)
(0.996601 -0.000559723 -1.27092e-20)
(0.995987 -0.000144979 -4.21615e-21)
(0.995384 0.000305252 1.26957e-20)
(0.994802 0.000795561 -4.20604e-21)
(0.994246 0.00131565 4.20859e-21)
(0.993717 0.00187196 0)
(0.993218 0.0024565 8.43576e-21)
(0.99275 0.00306925 0)
(0.992314 0.00371157 -4.15497e-21)
(0.991911 0.00437428 -4.19647e-21)
(0.991543 0.00506221 4.84377e-23)
(0.991209 0.00576907 0)
(0.990912 0.00649222 4.15013e-21)
(0.990651 0.00723479 8.28819e-21)
(0.990427 0.00798708 0)
(0.990242 0.00875082 2.04912e-21)
(0.990094 0.00952493 -2.04849e-21)
(0.989986 0.0103029 -2.03481e-21)
(0.989917 0.0110852 2.04573e-21)
(0.989887 0.0118695 -3.94825e-24)
(0.989896 0.0126513 -5.04773e-22)
(0.989946 0.0134294 -2.2205e-22)
(0.990034 0.0142023 -5.00448e-22)
(0.990162 0.0149655 9.99481e-22)
(0.990329 0.0157175 0)
(0.990534 0.0164569 1.96475e-21)
(0.990777 0.0171797 -3.91536e-21)
(0.991058 0.0178845 0)
(0.991375 0.0185696 0)
(0.991728 0.0192314 3.84491e-21)
(0.992116 0.0198691 -7.66945e-21)
(0.992537 0.020481 3.82226e-21)
(0.992992 0.021064 3.79942e-21)
(0.993477 0.0216174 0)
(0.993993 0.0221396 1.12346e-20)
(0.994538 0.0226281 -7.44184e-21)
(0.99511 0.0230837 -3.69795e-21)
(0.995709 0.0235031 1.72235e-23)
(0.996333 0.0238857 -7.30759e-21)
(0.996982 0.024232 -7.25124e-21)
(0.997654 0.0245384 -7.20599e-21)
(0.998352 0.0248072 3.86417e-24)
(0.999076 0.0250329 -9.1809e-24)
(0.999833 0.0252192 0)
(1.00064 0.025402 -1.40226e-20)
(0.998052 -0.00411558 0)
(0.997343 -0.00373961 2.21224e-21)
(0.996557 -0.00330399 -1.06259e-20)
(0.995756 -0.00281874 -8.50303e-21)
(0.994953 -0.00228665 8.4987e-21)
(0.99416 -0.00176383 4.31881e-21)
(0.99339 -0.0012035 -4.2207e-21)
(0.992648 -0.000566535 0)
(0.991933 0.000111842 0)
(0.991252 0.00083526 8.55662e-21)
(0.990607 0.00159451 -8.44103e-21)
(0.990001 0.00238922 4.23635e-21)
(0.989436 0.00322049 -4.23295e-21)
(0.988913 0.00407757 4.23034e-21)
(0.988435 0.00496624 4.23778e-21)
(0.988001 0.00587894 -4.20661e-21)
(0.987615 0.00681248 -4.16616e-21)
(0.987276 0.00777026 -4.15246e-21)
(0.986985 0.00874106 4.15996e-21)
(0.986745 0.00972675 -4.159e-21)
(0.986555 0.0107256 0)
(0.986416 0.0117301 2.07564e-21)
(0.986329 0.0127402 -2.04504e-21)
(0.986294 0.0137532 1.53237e-21)
(0.986312 0.0147637 0)
(0.986383 0.0157695 1.01365e-21)
(0.986506 0.0167687 0)
(0.986681 0.017756 -9.97993e-22)
(0.986908 0.0187291 1.71272e-23)
(0.987186 0.0196858 1.02245e-23)
(0.987515 0.0206214 3.96488e-21)