/*--------------------------------*- C++ -*----------------------------------*\
| =========                 |                                                 |
| \\      /  F ield         | OpenFOAM: The Open Source CFD Toolbox           |
|  \\    /   O peration     | Version:  2312                                  |
|   \\  /    A nd           | Website:  www.openfoam.com                      |
|    \\/     M anipulation  |                                                 |
\*---------------------------------------------------------------------------*/
FoamFile
{
    version     2.0;
    format      ascii;
    arch        "LSB;label=32;scalar=64";
    class       volVectorField;
    location    "73.929491155642054";
    object      U;
}
// * * * * * * * * * * * * * * * * * * * * * * * * * * * * * * * * * * * * * //

dimensions      [0 1 -1 0 0 0 0];

internalField   nonuniform List<vector> 
21039
(
(0.913726 0.0473961 0)
(1.02609 0.0664933 0)
(1.00449 0.0295508 0)
(1.00176 0.0189286 0)
(1.0012 0.0139276 0)
(1.0008 0.0105547 0)
(1.00055 0.00823432 0)
(1.0004 0.00659783 0)
(1.0003 0.00539445 0)
(1.00023 0.00448028 0)
(1.00018 0.00376985 0)
(1.00015 0.00320817 0)
(1.00012 0.00275821 0)
(1.00009 0.00239438 0)
(1.00008 0.00209855 0)
(1.00006 0.00185757 0)
(1.00005 0.0016617 0)
(1.00004 0.0015036 0)
(1.00003 0.00137757 0)
(1.00002 0.00127898 0)
(1.00001 0.00120393 0)
(1.00001 0.0011503 0)
(1.00001 0.00111942 0)
(1 0.00109244 0)
(1 0.00107289 0)
(1.00001 0.00105773 0)
(1.00001 0.00104282 0)
(1.00001 0.00101878 0)
(1.00001 0.00096535 0)
(0.794435 0.0730394 0)
(1.07452 0.121748 0)
(1.03988 0.0709837 0)
(1.01808 0.0498144 0)
(1.01127 0.0384216 0)
(1.00762 0.0296616 0)
(1.00537 0.0233839 0)
(1.00394 0.0188295 0)
(1.00298 0.0153971 0)
(1.00231 0.0127455 0)
(1.00182 0.010658 0)
(1.00146 0.00898784 0)
(1.00118 0.00763431 0)
(1.00096 0.00652689 0)
(1.00079 0.0056152 0)
(1.00064 0.00486258 0)
(1.00052 0.00424191 0)
(1.00042 0.00373281 0)
(1.00033 0.00331971 0)
(1.00026 0.00299039 0)
(1.00019 0.00273468 0)
(1.00014 0.00254598 0)
(1.00009 0.00242741 0)
(1.00006 0.00234622 0)
(1.00005 0.00230401 0)
(1.00005 0.00228378 0)
(1.00005 0.00227214 0)
(1.00006 0.00225126 0)
(1.00007 0.00219417 0)
(0.667135 0.0572949 0)
(1.08297 0.124929 0)
(1.08432 0.0905116 0)
(1.04623 0.0678764 0)
(1.029 0.0543988 0)
(1.02019 0.0434771 0)
(1.01462 0.0352102 0)
(1.01092 0.0288721 0)
(1.00837 0.0238887 0)
(1.00654 0.0199281 0)
(1.00521 0.0167449 0)
(1.0042 0.0141565 0)
(1.00343 0.0120315 0)
(1.00281 0.0102744 0)
(1.00232 0.008815 0)
(1.00191 0.00760114 0)
(1.00157 0.00659364 0)
(1.00128 0.00576282 0)
(1.00103 0.00508591 0)
(1.00081 0.00454527 0)
(1.00061 0.00412635 0)
(1.00044 0.00381838 0)
(1.00029 0.00362582 0)
(1.00018 0.00350812 0)
(1.00013 0.00345849 0)
(1.0001 0.00344423 0)
(1.0001 0.00344329 0)
(1.00011 0.0034331 0)
(1.00012 0.0033845 0)
(0.540725 0.0352921 0)
(1.05053 0.11099 0)
(1.1158 0.0973103 0)
(1.07601 0.0765934 0)
(1.0491 0.0624819 0)
(1.03513 0.0514307 0)
(1.02627 0.0428187 0)
(1.0201 0.0358589 0)
(1.01567 0.0301468 0)
(1.01242 0.0254569 0)
(1.00999 0.0215851 0)
(1.00814 0.0183671 0)
(1.00668 0.0156785 0)
(1.00553 0.0134237 0)
(1.00458 0.0115294 0)
(1.0038 0.00993914 0)
(1.00314 0.00860969 0)
(1.00257 0.00750757 0)
(1.00207 0.00660685 0)
(1.00163 0.00588735 0)
(1.00123 0.00533259 0)
(1.00088 0.00492921 0)
(1.00056 0.00468267 0)
(1.00033 0.0045465 0)
(1.00019 0.00450239 0)
(1.00012 0.00450348 0)
(1.00009 0.00452061 0)
(1.0001 0.00452745 0)
(1.00011 0.00449103 0)
(0.443754 0.0186926 0)
(0.997269 0.0920533 0)
(1.12874 0.096012 0)
(1.10124 0.0798951 0)
(1.068 0.0659099 0)
(1.04951 0.0553059 0)
(1.03799 0.0470048 0)
(1.02976 0.0400611 0)
(1.02366 0.0341838 0)
(1.01906 0.0292238 0)
(1.01554 0.0250226 0)
(1.01279 0.0214521 0)
(1.0106 0.0184119 0)
(1.00883 0.0158214 0)
(1.00737 0.0136161 0)
(1.00614 0.0117448 0)
(1.0051 0.0101671 0)
(1.00418 0.0088512 0)
(1.00338 0.00777199 0)
(1.00266 0.00690989 0)
(1.002 0.00624899 0)
(1.00141 0.00577537 0)
(1.00087 0.005496 0)
(1.00047 0.00535969 0)
(1.00022 0.00533526 0)
(1.00007 0.00536351 0)
(1.00002 0.0054093 0)
(1.00001 0.00544269 0)
(1.00001 0.00542444 0)
(0.378072 0.00812564 0)
(0.938954 0.0720271 0)
(1.1265 0.0886916 0)
(1.1205 0.0791323 0)
(1.08514 0.0664574 0)
(1.06265 0.0565585 0)
(1.04886 0.0487944 0)
(1.03903 0.042157 0)
(1.03159 0.0364098 0)
(1.02585 0.0314488 0)
(1.02135 0.027154 0)
(1.01777 0.0234308 0)
(1.01488 0.0202042 0)
(1.01249 0.0174118 0)
(1.0105 0.0150025 0)
(1.0088 0.012935 0)
(1.00733 0.011176 0)
(1.00604 0.00969894 0)
(1.00488 0.00848287 0)
(1.00383 0.00751129 0)
(1.00287 0.00677109 0)
(1.00199 0.00624984 0)
(1.00119 0.00595719 0)
(1.00058 0.00583808 0)
(1.00018 0.00584782 0)
(0.999949 0.00591589 0)
(0.999848 0.00600191 0)
(0.999823 0.00607221 0)
(0.999805 0.00607944 0)
(0.332738 0.00235518 0)
(0.882382 0.0540063 0)
(1.11329 0.0782407 0)
(1.13337 0.0753503 0)
(1.10039 0.0648979 0)
(1.07475 0.0559214 0)
(1.05886 0.048819 0)
(1.0477 0.0426563 0)
(1.03919 0.0372066 0)
(1.0325 0.0323986 0)
(1.02718 0.0281516 0)
(1.02287 0.024403 0)
(1.01932 0.0211009 0)
(1.01636 0.0182008 0)
(1.01385 0.0156659 0)
(1.01168 0.013466 0)
(1.00978 0.011577 0)
(1.00808 0.00997938 0)
(1.00654 0.00865828 0)
(1.00513 0.00760221 0)
(1.00382 0.00680261 0)
(1.00261 0.0062504 0)
(1.00149 0.00595915 0)
(1.00063 0.00587085 0)
(1.00005 0.00592681 0)
(0.999715 0.00604589 0)
(0.999553 0.0061829 0)
(0.999494 0.00630035 0)
(0.999446 0.00634088 0)
(0.300339 -0.00017374 0)
(0.830398 0.0397105 0)
(1.09281 0.0672955 0)
(1.13985 0.0698986 0)
(1.11321 0.0619912 0)
(1.08578 0.0540143 0)
(1.06804 0.047572 0)
(1.05576 0.0419397 0)
(1.04638 0.0368672 0)
(1.03893 0.0322955 0)
(1.03291 0.028178 0)
(1.02797 0.02448 0)
(1.02384 0.0211705 0)
(1.02035 0.0182219 0)
(1.01734 0.0156112 0)
(1.01471 0.0133199 0)
(1.01237 0.0113333 0)
(1.01026 0.00964008 0)
(1.00832 0.00823247 0)
(1.00652 0.0071053 0)
(1.00483 0.0062559 0)
(1.00324 0.00568012 0)
(1.00176 0.0053967 0)
(1.0006 0.00534598 0)
(0.999823 0.00545555 0)
(0.999348 0.00563396 0)
(0.999103 0.00583128 0)
(0.998991 0.00600562 0)
(0.998897 0.00608779 0)
(0.277287 -0.000970432 0)
(0.784528 0.0291806 0)
(1.06836 0.0572226 0)
(1.1408 0.0638194 0)
(1.12332 0.0584046 0)
(1.09564 0.0514113 0)
(1.07641 0.0455276 0)
(1.06319 0.0403697 0)
(1.05313 0.0356664 0)
(1.04507 0.0313488 0)
(1.03847 0.0273903 0)
(1.033 0.0237759 0)
(1.02837 0.0204911 0)
(1.0244 0.0175228 0)
(1.02094 0.0148606 0)
(1.01786 0.0124967 0)
(1.0151 0.0104257 0)
(1.01256 0.00864485 0)
(1.01021 0.00715402 0)
(1.00799 0.00595514 0)
(1.00589 0.00505251 0)
(1.00388 0.0044483 0)
(1.002 0.00416791 0)
(1.0005 0.00415212 0)
(0.999472 0.00431577 0)
(0.998828 0.00455695 0)
(0.998472 0.00482068 0)
(0.998282 0.00506001 0)
(0.998119 0.00519194 0)
(0.260797 -0.00101868 0)
(0.745175 0.0217118 0)
(1.04251 0.0484468 0)
(1.13754 0.0576811 0)
(1.13089 0.0545241 0)
(1.1044 0.0484785 0)
(1.08407 0.0430403 0)
(1.07004 0.0382516 0)
(1.05943 0.0338535 0)
(1.0509 0.0297573 0)
(1.04386 0.0259434 0)
(1.03794 0.0224084 0)
(1.03288 0.0191489 0)
(1.02849 0.0161628 0)
(1.02461 0.0134497 0)
(1.02112 0.0110109 0)
(1.01794 0.00884994 0)
(1.01499 0.00697204 0)
(1.01221 0.00538482 0)
(1.00956 0.00409799 0)
(1.00701 0.00312372 0)
(1.00455 0.00247166 0)
(1.00222 0.00217511 0)
(1.00033 0.00217871 0)
(0.999005 0.00238648 0)
(0.998153 0.00268568 0)
(0.997645 0.00301638 0)
(0.997339 0.00332519 0)
(0.997075 0.0035143 0)
(0.248554 -0.000805441 0)
(0.711848 0.0165172 0)
(1.0169 0.0409985 0)
(1.13135 0.0517759 0)
(1.13626 0.0505396 0)
(1.11218 0.0453925 0)
(1.0912 0.0403149 0)
(1.07645 0.0357912 0)
(1.0654 0.0316167 0)
(1.0565 0.0276848 0)
(1.04909 0.0239751 0)
(1.04282 0.0204895 0)
(1.0374 0.0172319 0)
(1.03264 0.0142076 0)
(1.02838 0.0114238 0)
(1.02451 0.00888928 0)
(1.02093 0.00661485 0)
(1.01757 0.00461356 0)
(1.01436 0.00290079 0)
(1.01126 0.00149378 0)
(1.00824 0.000412321 0)
(1.00528 -0.000325415 0)
(1.00245 -0.000675658 0)
(1.00011 -0.000684454 0)
(0.998442 -0.000454643 0)
(0.997329 -0.000120609 0)
(0.996626 0.000265657 0)
(0.996157 0.000649151 0)
(0.995747 0.000907425 0)
(0.239039 -0.000553782 0)
(0.683713 0.0129123 0)
(0.992454 0.0347628 0)
(1.12322 0.04626 0)
(1.13976 0.046565 0)
(1.11911 0.042244 0)
(1.09793 0.0374663 0)
(1.08258 0.0331189 0)
(1.07113 0.029087 0)
(1.06193 0.0252551 0)
(1.05425 0.0215976 0)
(1.04768 0.0181177 0)
(1.04196 0.0148234 0)
(1.03688 0.0117249 0)
(1.03229 0.00883483 0)
(1.02807 0.00616788 0)
(1.02412 0.00374119 0)
(1.02036 0.00157433 0)
(1.01672 -0.000311658 0)
(1.01316 -0.00189229 0)
(1.00964 -0.00313825 0)
(1.00616 -0.00402125 0)
(1.00277 -0.00448596 0)
(0.999929 -0.00456544 0)
(0.997848 -0.00436029 0)
(0.996412 -0.00400946 0)
(0.99545 -0.0035872 0)
(0.994758 -0.0031613 0)
(0.994144 -0.00286527 0)
(0.23138 -0.000353395 0)
(0.659936 0.0103609 0)
(0.969658 0.0295666 0)
(1.11392 0.0412026 0)
(1.14175 0.0426804 0)
(1.12526 0.039094 0)
(1.10436 0.0345698 0)
(1.08853 0.0303258 0)
(1.07673 0.0263616 0)
(1.0673 0.0225653 0)
(1.05939 0.0189042 0)
(1.05259 0.0153799 0)
(1.04662 0.0120019 0)
(1.04128 0.00878335 0)
(1.0364 0.00574049 0)
(1.03186 0.0028924 0)
(1.02756 0.000260022 0)
(1.02342 -0.00213281 0)
(1.01936 -0.00425777 0)
(1.01534 -0.00608188 0)
(1.01131 -0.00756757 0)
(1.00726 -0.00867714 0)
(1.00328 -0.00934341 0)
(0.999875 -0.00958013 0)
(0.997321 -0.0094752 0)
(0.995485 -0.00916868 0)
(0.994176 -0.00874711 0)
(0.993171 -0.00829448 0)
(0.992273 -0.00796936 0)
(0.225069 -0.000221698 0)
(0.63978 0.00848925 0)
(0.948728 0.0252304 0)
(1.10404 0.0366149 0)
(1.14254 0.0389396 0)
(1.13075 0.0359886 0)
(1.11057 0.031681 0)
(1.09442 0.0274827 0)
(1.08232 0.0235209 0)
(1.07269 0.0197 0)
(1.06461 0.0159804 0)
(1.05764 0.0123598 0)
(1.05148 0.00884711 0)
(1.04592 0.00545689 0)
(1.0408 0.00220675 0)
(1.03599 -0.000883449 0)
(1.03138 -0.00378944 0)
(1.02688 -0.00648162 0)
(1.02242 -0.00892495 0)
(1.01794 -0.0110793 0)
(1.01339 -0.0129 0)
(1.00876 -0.0143416 0)
(1.00413 -0.0153276 0)
(1.00013 -0.0158483 0)
(0.997034 -0.0159648 0)
(0.994714 -0.0158136 0)
(0.992948 -0.0154824 0)
(0.991507 -0.015068 0)
(0.990201 -0.0147514 0)
(0.219782 -0.000148948 0)
(0.622628 0.00706635 0)
(0.929713 0.0216218 0)
(1.09399 0.0325069 0)
(1.14238 0.0353925 0)
(1.13562 0.0329645 0)
(1.11658 0.028837 0)
(1.10027 0.0246403 0)
(1.08793 0.0206275 0)
(1.07813 0.0167287 0)
(1.06993 0.0128997 0)
(1.06283 0.00913271 0)
(1.05653 0.0054347 0)
(1.05081 0.00182 0)
(1.04549 -0.0016974 0)
(1.04046 -0.00509684 0)
(1.03558 -0.0083485 0)
(1.03076 -0.0114196 0)
(1.02593 -0.0142695 0)
(1.021 -0.0168515 0)
(1.01593 -0.0191142 0)
(1.01071 -0.021007 0)
(1.00545 -0.0224505 0)
(1.00085 -0.0234209 0)
(0.997228 -0.023943 0)
(0.994392 -0.0241376 0)
(0.992087 -0.0240746 0)
(0.990082 -0.0238435 0)
(0.988223 -0.0236264 0)
(0.215663 -0.000103552 0)
(0.609029 0.00603813 0)
(0.913836 0.0188221 0)
(1.0849 0.0291161 0)
(1.14171 0.0323286 0)
(1.13974 0.0302989 0)
(1.12206 0.0263131 0)
(1.10576 0.0220931 0)
(1.09325 0.0180003 0)
(1.08335 0.0139944 0)
(1.07509 0.0100275 0)
(1.06793 0.00608589 0)
(1.06155 0.00217236 0)
(1.05574 -0.00170399 0)
(1.05031 -0.00553016 0)
(1.04512 -0.00928554 0)
(1.04005 -0.0129414 0)
(1.03499 -0.0164623 0)
(1.02985 -0.0198037 0)
(1.02454 -0.022912 0)
(1.019 -0.0257266 0)
(1.01325 -0.0281876 0)
(1.00742 -0.0302082 0)
(1.00231 -0.031755 0)
(0.998256 -0.0328383 0)
(0.994993 -0.0335847 0)
(0.99217 -0.0340361 0)
(0.989505 -0.0342281 0)
(0.986883 -0.0342805 0)
(0.212654 -7.82965e-05 0)
(0.599063 0.00533495 0)
(0.901728 0.0168102 0)
(1.07752 0.0265641 0)
(1.14087 0.0299514 0)
(1.14295 0.0282039 0)
(1.12661 0.0243186 0)
(1.11043 0.0200656 0)
(1.09782 0.0158914 0)
(1.08787 0.0117801 0)
(1.07959 0.00767977 0)
(1.07242 0.00357005 0)
(1.06603 -0.000551666 0)
(1.0602 -0.00468145 0)
(1.05473 -0.00880949 0)
(1.04948 -0.0129181 0)
(1.04431 -0.0169821 0)
(1.03911 -0.0209678 0)
(1.03376 -0.0248306 0)
(1.02817 -0.0285131 0)
(1.02229 -0.0319454 0)
(1.0161 -0.035053 0)
(1.0098 -0.0377212 0)
(1.00431 -0.0398769 0)
(1.00001 -0.0415314 0)
(0.996592 -0.0428952 0)
(0.993582 -0.0440925 0)
(0.990583 -0.045145 0)
(0.987458 -0.0459089 0)
(0.210341 -3.70402e-05 0)
(0.591436 0.00485448 0)
(0.89219 0.0153489 0)
(1.07141 0.0246318 0)
(1.13995 0.0281091 0)
(1.14548 0.0265705 0)
(1.13039 0.0227676 0)
(1.11439 0.0184918 0)
(1.10172 0.0142522 0)
(1.09175 0.0100525 0)
(1.08348 0.00583733 0)
(1.07634 0.00158032 0)
(1.06998 -0.00272618 0)
(1.06417 -0.00708308 0)
(1.05872 -0.0114855 0)
(1.05346 -0.015921 0)
(1.04826 -0.0203707 0)
(1.04299 -0.0248064 0)
(1.03753 -0.0291885 0)
(1.03178 -0.0334611 0)
(1.02565 -0.0375506 0)
(1.01914 -0.0413713 0)
(1.01244 -0.0447663 0)
(1.00658 -0.0475443 0)
(1.00208 -0.049633 0)
(0.998657 -0.0513107 0)
(0.995934 -0.052942 0)
(0.99358 -0.0548992 0)
(0.991013 -0.0566441 0)
(0.208882 -4.87568e-05 0)
(0.5862 0.00448076 0)
(0.885418 0.0143064 0)
(1.067 0.0232625 0)
(1.13932 0.0267839 0)
(1.14749 0.025351 0)
(1.13342 0.0215709 0)
(1.11761 0.0172656 0)
(1.10495 0.0129778 0)
(1.09499 0.00871074 0)
(1.08676 0.00440169 0)
(1.07967 2.01163e-05 0)
(1.07337 -0.00444523 0)
(1.06762 -0.00899992 0)
(1.06222 -0.0136445 0)
(1.05702 -0.0183737 0)
(1.05185 -0.0231769 0)
(1.0466 -0.0280349 0)
(1.04113 -0.0329169 0)
(1.03534 -0.0377762 0)
(1.02912 -0.0425467 0)
(1.02247 -0.0471531 0)
(1.0156 -0.0514284 0)
(1.00957 -0.055033 0)
(1.00492 -0.0576764 0)
(1.00146 -0.0594218 0)
(0.998918 -0.0603108 0)
(0.997286 -0.0610326 0)
(0.99741 -0.0654471 0)
(1.00001 0.000975425 0)
(1.00001 0.000978079 0)
(1.00001 0.000975999 0)
(1.00001 0.000974802 1.03014e-21)
(1.00001 0.000975539 5.13554e-21)
(1.00001 0.000978035 -9.23924e-21)
(1.00001 0.000982112 5.13032e-21)
(1 0.000987679 -4.08535e-21)
(1 0.000994565 5.23079e-22)
(1 0.00100279 4.08229e-21)
(1 0.00101219 0)
(1 0.00102274 -4.56064e-21)
(0.999998 0.00103433 5.19175e-22)
(0.999997 0.00104683 4.04787e-21)
(0.999996 0.00106022 0)
(0.999995 0.00107434 0)
(0.999994 0.00108913 -4.00539e-21)
(0.999993 0.00110448 4.00792e-21)
(0.999992 0.00112022 0)
(0.999991 0.00113634 -1.9861e-21)
(0.99999 0.00115268 2.11097e-21)
(0.999989 0.00116911 1.85039e-21)
(0.999988 0.00118558 -2.95845e-21)
(0.999987 0.00120192 9.53346e-22)
(0.999987 0.00121804 3.05367e-23)
(0.999986 0.00123385 -6.10313e-23)
(0.999986 0.00124922 8.48586e-22)
(0.999986 0.00126404 -9.70009e-22)
(0.999985 0.00127824 0)
(0.999985 0.00129173 0)
(0.999985 0.00130433 -2.39182e-22)
(0.999985 0.00131594 -2.38125e-22)
(0.999985 0.0013266 -4.02169e-21)
(0.999986 0.00133623 3.30998e-21)
(0.999986 0.00134472 -4.2192e-21)
(0.999987 0.00135205 4.2137e-21)
(0.999987 0.00135815 -3.24824e-21)
(0.999988 0.00136293 3.24701e-21)
(0.999989 0.00136641 4.60528e-22)
(0.99999 0.00136846 4.58203e-22)
(0.999991 0.0013691 -4.55848e-22)
(0.999992 0.00136828 0)
(0.999994 0.00136591 0)
(0.999995 0.00136204 0)
(0.999997 0.0013566 0)
(0.999998 0.00134971 0)
(1 0.00134119 1.76308e-21)
(1 0.0013304 -1.76003e-21)
(1 0.00131354 0)
(1.00007 0.00220819 0)
(1.00006 0.00221465 2.07926e-21)
(1.00004 0.0022184 -2.0713e-21)
(1.00003 0.00222584 -1.03345e-21)
(1.00001 0.00223807 -1.03355e-21)
(0.999999 0.00225452 -3.08933e-21)
(0.999986 0.00227486 5.15743e-21)
(0.999974 0.00229911 0)
(0.999962 0.0023267 -5.129e-22)
(0.999951 0.00235777 -1.02458e-21)
(0.999941 0.00239185 0)
(0.999931 0.00242878 5.09665e-22)
(0.999921 0.00246845 -4.57089e-21)
(0.999912 0.00251035 4.06597e-21)
(0.999904 0.00255448 0)
(0.999897 0.00260045 1.01076e-21)
(0.99989 0.00264798 0)
(0.999884 0.00269698 0)
(0.999879 0.00274694 0)
(0.999875 0.00279773 -1.99436e-21)
(0.999871 0.00284911 1.87066e-21)
(0.999868 0.00290069 -1.24343e-22)
(0.999866 0.00295228 0)
(0.999864 0.00300362 -4.61429e-22)
(0.999864 0.00305437 4.84617e-22)
(0.999864 0.00310432 9.18511e-23)
(0.999865 0.00315321 1.21932e-22)
(0.999867 0.00320074 0)
(0.99987 0.00324668 -1.93276e-21)
(0.999873 0.00329082 1.93233e-21)
(0.999878 0.00333288 -3.59384e-21)
(0.999883 0.00337262 7.88902e-21)
(0.999889 0.00340985 -3.57786e-21)
(0.999895 0.00344432 4.73824e-22)
(0.999903 0.00347579 4.717e-22)
(0.999911 0.00350414 4.69957e-22)
(0.999919 0.00352909 -4.67262e-22)
(0.999929 0.00355047 4.17824e-21)
(0.999939 0.00356818 -3.24652e-21)
(0.99995 0.00358188 -1.38147e-21)
(0.999961 0.00359158 5.03174e-21)
(0.999973 0.00359703 -3.65306e-21)
(0.999986 0.00359801 -1.81331e-21)
(1 0.00359458 3.60004e-21)
(1.00001 0.0035863 -7.17672e-21)
(1.00003 0.00357342 3.5757e-21)
(1.00004 0.00355567 1.77106e-21)
(1.00006 0.00353238 -4.23313e-24)
(1.00007 0.00349907 0)
(1.0001 0.00339832 3.12859e-21)
(1.00006 0.00341119 -1.04455e-21)
(1.00003 0.00342689 -4.16006e-21)
(0.999986 0.00344883 2.07311e-21)
(0.999948 0.00347816 -2.07259e-21)
(0.999912 0.00351412 0)
(0.999877 0.00355629 -2.06127e-21)
(0.999844 0.00360487 -6.17098e-21)
(0.999813 0.00365871 6.17179e-21)
(0.999784 0.00371819 1.02414e-21)
(0.999756 0.00378246 0)
(0.999731 0.00385121 -6.11987e-21)
(0.999707 0.00392444 1.25353e-23)
(0.999686 0.00400109 4.06921e-21)
(0.999666 0.00408132 0)
(0.999649 0.00416443 -1.0097e-21)
(0.999634 0.00424987 -1.00949e-21)
(0.999621 0.00433777 0)
(0.99961 0.00442702 -1.00376e-21)
(0.999601 0.00451747 -1.99517e-21)
(0.999595 0.0046089 1.99578e-21)
(0.999591 0.00470047 -2.4919e-22)
(0.999589 0.00479194 -2.47794e-22)
(0.999589 0.00488299 0)
(0.999592 0.00497294 3.83327e-23)
(0.999596 0.00506147 -2.14402e-22)
(0.999603 0.00514828 0)
(0.999612 0.00523275 0)
(0.999624 0.00531452 -1.93236e-21)
(0.999637 0.00539332 1.932e-21)
(0.999653 0.00546861 -3.83262e-21)
(0.999671 0.00554004 3.83135e-21)
(0.99969 0.00560731 0)
(0.999712 0.00566995 0)
(0.999736 0.00572763 0)
(0.999761 0.00578012 -9.38316e-22)
(0.999789 0.00582689 -1.86919e-21)
(0.999818 0.00586773 0)
(0.999849 0.00590242 -9.24758e-22)
(0.999882 0.0059304 -9.12423e-22)
(0.999916 0.00595168 2.7545e-21)
(0.999953 0.00596575 0)
(0.999991 0.00597233 3.61745e-21)
(1.00003 0.00597143 -5.4141e-21)
(1.00007 0.0059623 0)
(1.00011 0.00594526 0)
(1.00016 0.00591963 0)
(1.0002 0.00588475 -1.76455e-21)
(1.00025 0.00583734 -1.7526e-21)
(1.00007 0.00450743 -2.08949e-21)
(1 0.00453335 4.18197e-21)
(0.999928 0.00456869 4.17338e-21)
(0.999853 0.00461254 6.23649e-21)
(0.999781 0.00466636 -2.0838e-21)
(0.999711 0.0047293 -4.13741e-21)
(0.999645 0.00480088 8.27163e-21)
(0.999582 0.00488158 -4.51286e-24)
(0.999523 0.00496945 -2.05661e-21)
(0.999468 0.00506532 2.05889e-21)
(0.999417 0.00516776 0)
(0.99937 0.0052764 2.04277e-21)
(0.999327 0.00539137 -2.02991e-21)
(0.999288 0.0055109 8.14331e-21)
(0.999253 0.00563545 -8.12192e-21)
(0.999223 0.00576388 6.08627e-21)
(0.999196 0.0058954 -1.01584e-21)
(0.999174 0.00603041 1.00908e-21)
(0.999157 0.00616705 1.00249e-21)
(0.999144 0.00630522 -1.00308e-21)
(0.999135 0.00644471 0)
(0.99913 0.00658415 -1.48891e-21)
(0.99913 0.00672332 1.24392e-21)
(0.999135 0.00686179 9.8944e-22)
(0.999143 0.00699848 4.60991e-23)
(0.999156 0.00713301 9.16941e-23)
(0.999174 0.00726503 1.46389e-21)
(0.999196 0.00739353 -9.74616e-22)
(0.999222 0.00751806 1.93363e-21)
(0.999252 0.00763831 -1.93332e-21)
(0.999286 0.0077534 0)
(0.999325 0.0078629 4.77492e-21)
(0.999367 0.00796643 -3.816e-21)
(0.999413 0.0080632 3.78216e-21)
(0.999463 0.00815291 -3.78078e-21)
(0.999517 0.00823514 0)
(0.999574 0.00830913 3.72539e-21)
(0.999635 0.00837466 -1.86576e-21)
(0.9997 0.00843135 0)
(0.999768 0.00847843 3.67281e-21)
(0.999839 0.00851597 -3.66832e-21)
(0.999913 0.00854317 1.82044e-21)
(0.999991 0.00855971 1.81115e-21)
(1.00007 0.00856557 5.40159e-21)
(1.00016 0.00855969 6.39935e-24)
(1.00024 0.00854255 3.57016e-21)
(1.00033 0.00851297 1.7675e-21)
(1.00043 0.00847031 1.75488e-21)
(1.00053 0.0084128 1.75315e-21)
(0.999945 0.00544844 0)
(0.999839 0.00549631 -4.18581e-21)
(0.999721 0.00556109 -4.17523e-21)
(0.999601 0.00563655 0)
(0.999484 0.00572466 -4.16193e-21)
(0.999371 0.00582449 1.1142e-23)
(0.999264 0.0059355 8.32044e-21)
(0.999163 0.00605854 -2.08364e-21)
(0.999068 0.0061907 -1.15268e-23)
(0.998979 0.00633343 -6.18868e-21)
(0.998897 0.00648461 0)
(0.998822 0.00664379 -6.15956e-21)
(0.998753 0.00681134 2.05829e-21)
(0.998691 0.00698457 0)
(0.998637 0.00716439 -2.04332e-21)
(0.998589 0.00734913 1.02423e-23)
(0.998549 0.00753769 -2.02416e-21)
(0.998516 0.00773089 7.07244e-21)
(0.99849 0.00792588 -1.37327e-23)
(0.998472 0.00812272 -1.01647e-21)
(0.998461 0.00832125 -1.00132e-21)
(0.998457 0.00851939 1.99065e-21)
(0.998461 0.00871702 -1.99094e-21)
(0.998472 0.0089136 -2.45926e-22)
(0.99849 0.00910757 5.0946e-22)
(0.998515 0.00929849 -2.74814e-22)
(0.998548 0.00948599 9.78372e-22)
(0.998588 0.00966858 -9.76424e-22)
(0.998634 0.00984576 9.72318e-22)
(0.998688 0.0100172 1.92818e-21)
(0.998749 0.0101815 -5.76631e-21)
(0.998816 0.0103384 -9.39554e-22)
(0.99889 0.0104872 5.72883e-21)
(0.99897 0.0106269 1.89918e-21)
(0.999057 0.0107572 -3.76659e-21)
(0.99915 0.0108775 3.76434e-21)
(0.999249 0.0109868 8.94991e-24)
(0.999354 0.0110849 5.57813e-21)
(0.999464 0.0111712 -3.71703e-21)
(0.999581 0.0112448 -9.20638e-21)
(0.999703 0.0113058 3.65961e-21)
(0.99983 0.0113531 1.81959e-21)
(0.999963 0.0113864 7.22945e-21)
(1.0001 0.0114056 -3.60774e-21)
(1.00024 0.0114095 -9.68897e-24)
(1.00039 0.0113986 -1.06119e-23)
(1.00055 0.0113714 0)
(1.00071 0.0113273 -3.52054e-21)
(1.00088 0.0112666 -3.49268e-21)
(0.9997 0.0061172 0)
(0.999547 0.00619793 -6.33088e-21)
(0.999375 0.00630398 6.32029e-21)
(0.999199 0.00642287 0)
(0.999026 0.00655732 0)
(0.998858 0.00670626 -4.17614e-21)
(0.998699 0.00686915 -3.0939e-24)
(0.998548 0.00704731 -4.17468e-21)
(0.998407 0.00723668 -8.71408e-24)
(0.998276 0.00743952 0)
(0.998154 0.00765283 0)
(0.998043 0.00787615 2.05807e-21)
(0.997942 0.00811012 0)
(0.997852 0.00835095 0)
(0.997773 0.00860015 -2.04679e-21)
(0.997704 0.00885537 4.10286e-21)
(0.997646 0.00911523 2.04321e-21)
(0.997599 0.009381 0)
(0.997563 0.00964868 2.00878e-21)
(0.997539 0.00991855 -5.05145e-21)
(0.997526 0.0101905 -2.00992e-21)
(0.997523 0.0104616 -1.99836e-21)
(0.997532 0.0107319 1.99855e-21)
(0.997552 0.0110007 1.41136e-24)
(0.997583 0.0112659 1.55099e-23)
(0.997626 0.0115271 2.4595e-22)
(0.997679 0.0117838 -4.91739e-22)
(0.997742 0.0120339 0)
(0.997817 0.012277 -9.70773e-22)
(0.997902 0.0125125 0)
(0.997997 0.0127389 0)
(0.998103 0.0129556 -1.92235e-21)
(0.998219 0.0131619 -7.62756e-21)
(0.998344 0.0133564 2.39808e-23)
(0.998479 0.0135388 1.89566e-21)
(0.998623 0.0137084 0)
(0.998777 0.0138639 -1.8676e-21)
(0.998939 0.0140051 -3.72325e-21)
(0.99911 0.0141313 3.69557e-21)
(0.99929 0.0142413 7.35701e-21)
(0.999478 0.0143353 -7.31452e-21)
(0.999674 0.014412 9.99607e-25)
(0.999877 0.0144711 -3.61615e-21)
(1.00009 0.0145125 -1.98459e-24)
(1.00031 0.0145345 0)
(1.00053 0.0145381 -3.55377e-21)
(1.00077 0.0145211 -1.76065e-21)
(1.00102 0.0144833 1.75936e-21)
(1.00127 0.0144279 3.49293e-21)
(0.999296 0.00639991 0)
(0.999085 0.00652672 4.23123e-21)
(0.998848 0.00668795 -1.27133e-20)
(0.998603 0.00686427 0)
(0.99836 0.0070595 0)
(0.998125 0.00727235 -8.4317e-21)
(0.997901 0.00750231 8.39751e-21)
(0.997689 0.00775124 -4.20954e-21)
(0.99749 0.00801373 -8.80161e-24)
(0.997305 0.00829305 4.17991e-21)
(0.997134 0.00858515 0)
(0.996978 0.0088896 0)
(0.996836 0.00920732 4.16157e-21)
(0.99671 0.00953325 0)
(0.996599 0.00986964 0)
(0.996504 0.0102133 -4.11067e-21)
(0.996424 0.0105626 1.61605e-23)
(0.99636 0.0109192 0)
(0.996312 0.0112779 2.02778e-21)
(0.99628 0.0116392 5.07082e-21)
(0.996263 0.012003 -2.03161e-21)
(0.996263 0.0123654 0)
(0.996279 0.0127268 -1.00041e-21)
(0.996311 0.0130861 1.24972e-21)
(0.996359 0.0134407 -5.44795e-22)
(0.996423 0.01379 -2.48345e-22)
(0.996502 0.0141336 4.88833e-22)
(0.996597 0.0144687 -9.83087e-22)
(0.996707 0.0147949 0)
(0.996833 0.0151116 -3.88722e-21)
(0.996973 0.0154165 5.79479e-21)
(0.997128 0.0157092 1.90044e-21)
(0.997297 0.0159888 -8.71032e-24)
(0.99748 0.0162535 1.89652e-21)
(0.997677 0.016503 -1.90563e-21)
(0.997887 0.0167364 -3.75451e-21)
(0.99811 0.0169521 7.48528e-21)
(0.998345 0.0171499 -3.72595e-21)
(0.998593 0.0173289 7.41202e-21)
(0.998853 0.0174878 4.89991e-24)
(0.999124 0.0176269 7.31231e-21)
(0.999406 0.0177445 -3.6326e-21)
(0.999699 0.0178402 0)
(1 0.0179143 -2.23072e-24)
(1.00032 0.0179644 7.13113e-21)
(1.00064 0.0179921 0)
(1.00098 0.0179945 0)
(1.00133 0.0179716 6.11775e-21)
(1.0017 0.0179312 8.71871e-22)
(0.998688 0.00617734 1.07012e-21)
(0.998406 0.00636572 7.52093e-21)
(0.998089 0.00659786 8.50311e-21)
(0.997761 0.00684762 -8.56311e-21)
(0.997433 0.00712038 0)
(0.997115 0.00741449 -1.1958e-23)
(0.996811 0.00772947 -4.27552e-21)
(0.996523 0.00806781 -4.26114e-21)
(0.996252 0.00842254 1.26846e-20)
(0.996001 0.00879814 -4.21535e-21)
(0.995768 0.0091893 0)
(0.995556 0.00959566 8.39726e-21)
(0.995363 0.0100184 -8.34387e-21)
(0.995191 0.0104511 2.8022e-23)
(0.995041 0.0108968 8.30914e-21)
(0.994911 0.0113513 -2.08654e-21)
(0.994803 0.0118126 -2.02745e-21)
(0.994717 0.0122831 4.12127e-21)
(0.994653 0.0127559 0)
(0.994611 0.0132319 -2.03406e-21)
(0.994591 0.0137109 2.03522e-21)
(0.994593 0.0141881 2.02218e-21)
(0.994618 0.0146639 -2.02212e-21)
(0.994665 0.015137 2.52273e-22)
(0.994734 0.0156041 3.11373e-23)
(0.994824 0.0160646 7.44521e-22)
(0.994937 0.0165178 -2.84272e-24)
(0.995071 0.0169605 0)
(0.995226 0.0173919 0)
(0.995402 0.0178114 -6.7096e-25)
(0.995599 0.0182162 -1.92551e-21)
(0.995816 0.0186056 3.87044e-21)
(0.996052 0.0189787 -3.83971e-21)
(0.996308 0.0193331 3.80547e-21)
(0.996582 0.0196687 -7.60874e-21)
(0.996875 0.0199841 1.83538e-23)
(0.997185 0.0202776 3.75892e-21)
(0.997512 0.0205489 3.71551e-21)
(0.997856 0.0207969 -7.42548e-21)
(0.998215 0.02102 -7.36685e-21)
(0.99859 0.0212188 -3.66646e-21)
(0.99898 0.0213911 -3.6416e-21)
(0.999383 0.0215365 0)
(0.999801 0.0216555 -3.58371e-21)
(1.00023 0.0217454 -9.37736e-24)
(1.00068 0.021808 7.06371e-21)
(1.00114 0.0218397 -8.76372e-21)
(1.00162 0.0218413 1.72747e-21)
(1.00212 0.0218264 0)
(0.997833 0.00532329 0)
(0.997463 0.005591 -8.60611e-21)
(0.997048 0.00591115 0)
(0.996618 0.00625214 8.57427e-21)
(0.996187 0.00662155 4.29348e-21)
(0.995767 0.00701704 -8.57942e-21)
(0.995364 0.00743814 1.28139e-20)
(0.994981 0.00788795 4.25119e-21)
(0.994621 0.00835775 -4.24428e-21)
(0.994285 0.00885342 0)
(0.993975 0.00936815 4.23844e-21)
(0.993691 0.00990171 -8.45193e-21)
(0.993434 0.0104556 4.24587e-21)
(0.993204 0.0110216 -4.18816e-21)
(0.993002 0.0116038 3.2028e-23)
(0.992829 0.012197 4.18911e-21)
(0.992685 0.0127986 -8.34169e-21)
(0.99257 0.0134116 0)
(0.992484 0.0140275 4.12958e-21)
(0.992429 0.0146475 -4.1295e-21)
(0.992403 0.0152713 -1.02104e-21)
(0.992407 0.0158929 0)
(0.992442 0.0165128 1.02255e-21)
(0.992506 0.0171294 2.53015e-22)
(0.9926 0.0177386 -5.3653e-22)
(0.992724 0.0183397 7.51749e-22)
(0.992877 0.0189317 4.94787e-22)
(0.99306 0.0195107 -9.94408e-22)
(0.993271 0.0200757 0)
(0.993511 0.0206256 -1.95637e-21)
(0.993778 0.0211574 3.91327e-21)
(0.994073 0.02167 0)
(0.994394 0.0221623 1.92171e-21)
(0.994741 0.0226313 0)
(0.995112 0.0230766 3.79751e-21)
(0.995508 0.0234971 -7.56326e-21)
(0.995928 0.0238902 3.7437e-21)
(0.996369 0.0242556 -2.37685e-23)
(0.996833 0.0245923 3.67664e-21)
(0.997317 0.0248981 -3.69284e-21)
(0.99782 0.0251738 3.65259e-21)
(0.998343 0.025417 7.25841e-21)
(0.998883 0.0256272 0)
(0.999441 0.0258051 0)
(1.00002 0.0259473 -7.11026e-21)
(1.00061 0.0260564 -1.40998e-20)
(1.00122 0.0261279 1.39956e-20)
(1.00186 0.0261634 -7.82782e-21)
(1.00252 0.0261844 7.7469e-21)
(0.996687 0.00370199 0)
(0.996207 0.00406921 8.79075e-21)
(0.995671 0.00449522 8.76944e-21)
(0.995114 0.00494643 1.31216e-20)
(0.994555 0.00543337 -1.31041e-20)
(0.994008 0.00595269 -4.33846e-21)
(0.993481 0.00650392 1.30677e-20)
(0.992979 0.00709075 -4.32007e-21)
(0.992506 0.00770247 4.32251e-21)
(0.992064 0.00834648 0)
(0.991655 0.0090142 8.65016e-21)
(0.99128 0.00970559 0)
(0.990939 0.0104223 -4.24612e-21)
(0.990635 0.0111543 -4.28951e-21)
(0.990367 0.0119068 5.43493e-23)
(0.990136 0.0126732 0)
(0.989944 0.0134504 4.2284e-21)
(0.98979 0.014242 8.43424e-21)
(0.989674 0.0150376 0)
(0.989599 0.0158389 2.07829e-21)
(0.989564 0.016645 -2.0776e-21)
(0.989568 0.0174488 -2.05897e-21)
(0.989613 0.018251 2.07046e-21)
(0.989697 0.0190493 -4.38973e-24)
(0.989821 0.0198388 -5.09532e-22)
(0.989986 0.0206184 -2.24054e-22)
(0.990189 0.0213867 -5.03958e-22)
(0.990432 0.0221391 1.00459e-21)
(0.990713 0.0228742 0)
(0.991032 0.0235904 1.9687e-21)
(0.991388 0.0242841 -3.92233e-21)
(0.99178 0.0249538 0)
(0.992208 0.0255979 0)
(0.992669 0.026213 3.83297e-21)
(0.993164 0.0267982 -7.6407e-21)
(0.993689 0.0273523 3.80962e-21)
(0.994246 0.0278721 3.77785e-21)
(0.994831 0.0283571 0)
(0.995445 0.0288062 1.11265e-20)
(0.996084 0.0292168 -7.36592e-21)
(0.996748 0.0295899 -3.64654e-21)
(0.997436 0.0299226 4.4872e-24)
(0.998146 0.0302143 -7.1975e-21)
(0.998877 0.0304661 -7.1323e-21)
(0.999629 0.030674 -7.07817e-21)
(1.0004 0.0308414 1.93661e-23)
(1.0012 0.0309626 -2.5296e-23)
(1.00202 0.0310405 0)
(1.00289 0.0311069 -1.3718e-20)
(0.995213 0.00117247 0)
(0.994587 0.00165535 2.31599e-21)
(0.993905 0.00219776 -1.09986e-20)
(0.993192 0.00277683 -8.78486e-21)
(0.992471 0.00340455 8.76743e-21)
(0.991762 0.00407359 4.46669e-21)
(0.991078 0.00478323 -4.33963e-21)
(0.990424 0.00553726 0)
(0.989807 0.00632279 0)
(0.989227 0.00714896 8.79979e-21)
(0.988689 0.00800518 -8.6565e-21)
(0.988195 0.00889159 4.34088e-21)
(0.987745 0.00980983 -4.33725e-21)
(0.987341 0.0107481 4.33047e-21)
(0.986985 0.0117128 4.33274e-21)
(0.986677 0.0126955 -4.29567e-21)
(0.986419 0.0136929 -4.24465e-21)
(0.986211 0.0147086 -4.22582e-21)
(0.986054 0.0157306 4.22784e-21)
(0.98595 0.0167608 -4.22675e-21)
(0.985898 0.0177975 0)
(0.985898 0.0188326 2.10362e-21)
(0.985952 0.0198664 -2.06828e-21)
(0.986059 0.0208959 1.54902e-21)
(0.986219 0.0219153 0)
(0.986433 0.0229229 1.02159e-21)
(0.986698 0.0239165 0)
(0.987015 0.0248909 -1.00312e-21)
(0.987385 0.0258436 1.82894e-23)
(0.987803 0.0267728 1.30008e-23)
(0.988271 0.0276737 3.96943e-21)
(0.988788 0.0285443 0)
(0.98935 0.0293824 0)
(0.989957 0.0301838 0)
(0.990608 0.0309471 0)
(0.991299 0.031671 -7.61251e-21)
(0.99203 0.0323512 3.79079e-21)
(0.992798 0.0329871 0)
(0.993602 0.0335773 -3.71765e-21)
(0.994438 0.0341186 -3.70045e-21)