/*--------------------------------*- C++ -*----------------------------------*\
| =========                 |                                                 |
| \\      /  F ield         | OpenFOAM: The Open Source CFD Toolbox           |
|  \\    /   O peration     | Version:  2312                                  |
|   \\  /    A nd           | Website:  www.openfoam.com                      |
|    \\/     M anipulation  |                                                 |
\*---------------------------------------------------------------------------*/
FoamFile
{
    version     2.0;
    format      ascii;
    arch        "LSB;label=32;scalar=64";
    class       surfaceScalarField;
    location    "70.537731540658783";
    object      phi;
}
// * * * * * * * * * * * * * * * * * * * * * * * * * * * * * * * * * * * * * //

dimensions      [0 3 -1 0 0 0 0];

oriented        oriented;

internalField   nonuniform List<scalar> 
41713
(
0.00736238
0.0568841
0.00362737
0.0679814
0.00211539
0.0657584
0.00148216
0.0648797
0.00109569
0.0646329
0.000840826
0.0645013
0.000664931
0.0644223
0.000537085
0.0643743
0.000440676
0.0643428
0.000366047
0.0643211
0.000307074
0.0643054
0.000259702
0.0642938
0.000221164
0.064285
0.000189524
0.0642781
0.00016339
0.0642726
0.000141741
0.0642681
0.00012382
0.0642644
0.000109046
0.0642612
9.69676e-05
0.0642585
8.72105e-05
0.0642562
7.94239e-05
0.0642542
7.32558e-05
0.0642526
6.84327e-05
0.0642513
6.48657e-05
0.0548147
6.18762e-05
0.045679
5.92009e-05
0.038066
5.68071e-05
0.0317218
5.46908e-05
0.026435
0.0220293
5.28028e-05
0.00999335
0.0468907
0.00842507
0.0695497
0.00571186
0.0684716
0.00411692
0.0664746
0.00311469
0.0656351
0.00242156
0.0651944
0.0019218
0.0649221
0.00154996
0.0647461
0.00126573
0.0646271
0.00104333
0.0645435
0.000865808
0.0644829
0.000721792
0.0644378
0.000603436
0.0644033
0.000505204
0.0643763
0.000423113
0.0643547
0.000354254
0.0643369
0.000296465
0.0643221
0.000248121
0.0643096
0.000207975
0.0642987
0.000175053
0.0642891
0.000148569
0.0642807
0.000127837
0.0642733
0.000112167
0.0642669
0.00010193
0.054825
9.50418e-05
0.0456859
9.00608e-05
0.038071
8.61306e-05
0.0317258
8.28041e-05
0.0264383
0.0220321
8.00215e-05
0.0085947
0.038296
0.00970431
0.0684401
0.00746434
0.0707116
0.00569335
0.0682456
0.00450269
0.0668258
0.00361479
0.0660823
0.00292948
0.0656074
0.00239517
0.0652804
0.00197318
0.0650491
0.00163495
0.0648817
0.00136003
0.0647578
0.00113382
0.064664
0.000945755
0.0645914
0.000788151
0.0645339
0.000655348
0.0644875
0.000543143
0.0644491
0.000448386
0.0644169
0.000368695
0.0643892
0.00030225
0.0643651
0.000247645
0.0643437
0.000203772
0.0643246
0.00016972
0.0643074
0.000144575
0.0642921
0.000128956
0.0548406
0.000119208
0.0456956
0.000112721
0.0380775
0.000107932
0.0317305
0.000104039
0.0264422
0.0220352
0.00010085
0.00677337
0.0315226
0.00947082
0.0657427
0.00811393
0.0720685
0.0064318
0.0699277
0.00523821
0.0680194
0.00432986
0.0669907
0.00359528
0.066342
0.0029951
0.0658806
0.00250216
0.065542
0.00209443
0.0652894
0.00175464
0.0650976
0.00146941
0.0649493
0.00122843
0.0648324
0.00102381
0.0647385
0.000849545
0.0646617
0.00070102
0.0645977
0.000574716
0.0645432
0.000467939
0.064496
0.000378617
0.0644544
0.000305148
0.0644172
0.000246285
0.0643834
0.000201008
0.0643527
0.000168214
0.0643249
0.000148566
0.0548602
0.000136933
0.0457072
0.000129654
0.0380847
0.000124584
0.0317356
0.000120679
0.0264461
0.0220383
0.000117652
0.00506355
0.0264591
0.00856591
0.0622403
0.00817542
0.072459
0.00672918
0.071374
0.00557124
0.0691773
0.00469234
0.0678696
0.00397098
0.0670633
0.00336332
0.0664883
0.00284842
0.0660569
0.00241033
0.0657275
0.00203609
0.0654719
0.0017152
0.0652702
0.00143918
0.0651084
0.00120128
0.0649764
0.00099613
0.0648669
0.000819504
0.0647743
0.000668096
0.0646946
0.000539336
0.0646248
0.000431235
0.0645625
0.000342253
0.0645062
0.000271194
0.0644545
0.000217067
0.0644068
0.000178688
0.0643632
0.000156627
0.0548823
0.000144404
0.0457195
0.000137423
0.0380917
0.000133039
0.03174
0.000129986
0.0264492
0.0220404
0.000127878
0.00361699
0.0228421
0.00730864
0.0585487
0.00777895
0.0719886
0.00671799
0.0724349
0.00565477
0.0702406
0.00482667
0.0686977
0.00414264
0.0677474
0.00355428
0.0670766
0.00304369
0.0665675
0.00259932
0.0661719
0.00221164
0.0658595
0.00187281
0.065609
0.00157635
0.0654048
0.00131703
0.0652358
0.00109055
0.0650934
0.000893486
0.0649714
0.000723118
0.064865
0.000577314
0.0647706
0.00045443
0.0646854
0.000353209
0.0646074
0.000272692
0.064535
0.000212068
0.0644674
0.000170227
0.0644051
0.000147498
0.054905
0.000136147
0.0457308
0.000130731
0.0380971
0.000128153
0.0317426
0.000126944
0.0264504
0.0220407
0.000126615
0.00252185
0.0203202
0.0060182
0.0550523
0.00709749
0.0709094
0.00646697
0.0730654
0.00555353
0.071154
0.00479621
0.069455
0.00416448
0.0683791
0.00361109
0.06763
0.00312005
0.0670585
0.00268371
0.0666082
0.00229576
0.0662475
0.00195078
0.065954
0.00164421
0.0657114
0.00137228
0.0655077
0.00113188
0.0653338
0.000920511
0.0651827
0.000736204
0.0650493
0.000577443
0.0649293
0.0004431
0.0648198
0.000332367
0.0647181
0.000244676
0.0646227
0.000179542
0.0645326
0.00013606
0.0644486
0.000114199
0.0549269
0.000105048
0.04574
0.000102393
0.0380998
0.000102741
0.0317422
0.000104421
0.0264487
0.0220383
0.000106822
0.00175802
0.0185622
0.00488994
0.0519204
0.00632486
0.0694745
0.00607813
0.0733122
0.00533313
0.071899
0.00465205
0.070136
0.0040762
0.068955
0.00356491
0.0681413
0.00310199
0.0675215
0.00268228
0.0670279
0.00230224
0.0666275
0.00195867
0.0662976
0.00164879
0.0660213
0.00137022
0.0657863
0.00112102
0.065583
0.000899641
0.0654041
0.000704925
0.065244
0.000536053
0.0650982
0.000392515
0.0649633
0.000274066
0.0648366
0.000180651
0.0647161
0.00011223
0.064601
6.82301e-05
0.0644926
4.82684e-05
0.0549469
4.22883e-05
0.0457459
4.3352e-05
0.0380987
4.76047e-05
0.031738
5.31945e-05
0.0264431
0.0220321
5.93615e-05
0.00124775
0.0173145
0.00397183
0.0491963
0.00557468
0.0678716
0.00563474
0.0732521
0.00505375
0.07248
0.00444386
0.0707459
0.00391694
0.0694819
0.00344554
0.0686127
0.00301219
0.0679548
0.00261231
0.0674278
0.00224406
0.0669958
0.00190593
0.0666357
0.00159656
0.0663307
0.0013148
0.066068
0.00105977
0.065838
0.000830819
0.0656331
0.000627595
0.0654472
0.000450003
0.0652758
0.000298209
0.0651151
0.000172612
0.0649622
7.3788e-05
0.064815
2.30295e-06
0.0646725
-4.19419e-05
0.0645368
-5.9862e-05
0.0549648
-6.23634e-05
0.0457484
-5.71448e-05
0.0380935
-4.86601e-05
0.0317295
-3.90291e-05
0.0264335
0.0220221
-2.89564e-05
0.000913982
0.0164005
0.00324462
0.0468657
0.00488975
0.0662265
0.00517998
0.0729619
0.00474997
0.07291
0.00420528
0.0712906
0.00371765
0.0699695
0.00327893
0.0690514
0.00287151
0.0683622
0.0024902
0.0678091
0.00213388
0.0673521
0.00180203
0.0669675
0.0014943
0.0666384
0.00121048
0.0663518
0.000950526
0.066098
0.0007146
0.065869
0.00050308
0.0656587
0.000316577
0.0654623
0.000155954
0.0652757
2.22625e-05
0.0650959
-8.32784e-05
0.0649205
-0.000159436
0.0647486
-0.000205668
0.064583
-0.000222491
0.0549816
-0.00022196
0.0457479
-0.000212536
0.0380841
-0.000199054
0.031716
-0.000184069
0.0264185
0.0220069
-0.000168888
0.000696918
0.0157036
0.00267485
0.0448877
0.00428218
0.0646191
0.00473434
0.0725097
0.00443756
0.0732068
0.0039532
0.071775
0.0034969
0.0704258
0.00308302
0.0694653
0.00269596
0.0687493
0.00232959
0.0681755
0.00198285
0.0676988
0.00165578
0.0672946
0.00134865
0.0669455
0.00106187
0.0666386
0.000796055
0.0663638
0.000552002
0.066113
0.000330732
0.06588
0.000133504
0.0656595
-3.8231e-05
0.0654474
-0.000182749
0.0652404
-0.000298036
0.0650358
-0.000381999
0.0648326
-0.000433226
0.0646343
-0.000451492
0.0549999
-0.000449678
0.0457461
-0.000437068
0.0380715
-0.00041917
0.0316981
-0.000399011
0.0263983
0.0219861
-0.000378255
0.000552965
0.0151506
0.00222836
0.0432123
0.00375127
0.0630962
0.00430902
0.071952
0.00412509
0.0733907
0.0036962
0.0722039
0.00326511
0.0708569
0.00286904
0.0698614
0.0024965
0.0691218
0.00214057
0.0685314
0.0017999
0.0680395
0.00147471
0.0676198
0.00116562
0.0672546
0.000873475
0.0669308
0.000599322
0.0666379
0.00034446
0.0663679
0.000110401
0.0661141
-0.000101121
0.0658711
-0.00028805
0.0656344
-0.000447906
0.0654002
-0.000577852
0.0651657
-0.000674968
0.0649297
-0.000736954
0.0646963
-0.00076163
0.0550245
-0.000762441
0.0457469
-0.000749494
0.0380585
-0.000729043
0.0316777
-0.000704827
0.0263741
0.0219605
-0.000679186
0.000452877
0.0146977
0.00187498
0.0417902
0.00328996
0.0616812
0.00390975
0.0713322
0.00381821
0.0734823
0.00343956
0.0725825
0.00302897
0.0712675
0.00264468
0.0702457
0.00228105
0.0694855
0.00193085
0.0688816
0.00159219
0.0683782
0.00126523
0.0679468
0.000950722
0.0675691
0.000649731
0.0672318
0.000363607
0.066924
9.39258e-05
0.0666376
-0.000157495
0.0663655
-0.000388454
0.066102
-0.000596259
0.0658422
-0.000777757
0.0655817
-0.000929436
0.0653174
-0.00104763
0.0650479
-0.00112924
0.0647779
-0.00116863
0.0550639
-0.00117918
0.0457575
-0.00117153
0.0380509
-0.00115263
0.0316588
-0.00112712
0.0263486
0.0219317
-0.00109831
0.000378973
0.0143188
0.00159094
0.0405783
0.00288901
0.0603832
0.00353846
0.0706827
0.00352049
0.0735003
0.0031868
0.0729162
0.0027932
0.0716611
0.0024158
0.0706231
0.00205601
0.0698452
0.00170696
0.0692307
0.00136612
0.068719
0.00103339
0.0682795
0.00070947
0.0678931
0.000395464
0.0675458
9.27707e-05
0.0672267
-0.000196954
0.0669273
-0.000471599
0.0666401
-0.000728494
0.0663589
-0.000964442
0.0660781
-0.00117576
0.065793
-0.00135837
0.0655
-0.00150813
0.0651976
-0.0016216
0.0648913
-0.00168806
0.0551304
-0.00171995
0.0457894
-0.00172761
0.0380585
-0.00171822
0.0316494
-0.00169734
0.0263277
0.021904
-0.00166963
0.000321215
0.0139975
0.00136059
0.0395389
0.0025424
0.0592014
0.00319726
0.0700279
0.00323483
0.0734627
0.00294007
0.073211
0.00256063
0.0720405
0.00218642
0.0709973
0.00182623
0.0702054
0.00147416
0.0695828
0.00112717
0.069066
0.000784714
0.0686219
0.000447267
0.0682305
0.000115754
0.0678773
-0.000208604
0.0675511
-0.000524104
0.0672428
-0.00082838
0.0669444
-0.00111847
0.066649
-0.00139078
0.0663504
-0.00164116
0.0660434
-0.00186509
0.065724
-0.00205837
0.0653909
-0.00221842
0.0650514
-0.00232878
0.0552407
-0.00240051
0.0458611
-0.00244203
0.0381
-0.00245855
0.0316659
-0.00245488
0.026324
0.0218859
-0.00243684
0.000235697
0.0137618
0.000998986
0.0387756
0.00190868
0.0582917
0.00245314
0.0694834
0.00251721
0.0733986
0.00229475
0.0734334
0.00198433
0.072351
0.00166955
0.071312
0.00136335
0.0705116
0.00106179
0.0698843
0.000761888
0.0693659
0.000462741
0.0689211
0.000164422
0.0685288
-0.000132692
0.0681744
-0.000427794
0.0678462
-0.000719509
0.0675345
-0.0010059
0.0672308
-0.00128439
0.0669275
-0.00155172
0.0666178
-0.00180391
0.0662956
-0.00203652
0.0659566
-0.00224557
0.0656
-0.00242952
0.0652353
-0.00256997
0.0553812
-0.00267757
0.0459687
-0.0027589
0.0381814
-0.00281501
0.031722
-0.00284568
0.0263547
0.0218947
-0.00285449
0.000176401
0.0135854
0.00074463
0.0382074
0.00144551
0.0575908
0.00188983
0.0690391
0.00196111
0.0733273
0.00179163
0.0736029
0.0015387
0.0726039
0.00127623
0.0715745
0.00101857
0.0707693
0.000763084
0.0701398
0.000506958
0.069622
0.000249047
0.069179
-1.09864e-05
0.0687889
-0.000273133
0.0684365
-0.000537036
0.0681101
-0.000801833
0.0677993
-0.00106618
0.0674952
-0.00132814
0.0671895
-0.00158499
0.0668746
-0.0018332
0.0665438
-0.00206844
0.0661918
-0.00228633
0.0658179
-0.00248448
0.0654335
-0.0026419
0.0555386
-0.00277159
0.0460984
-0.00288471
0.0382945
-0.00298573
0.031823
-0.00307217
0.0264411
0.0219528
-0.00313024
0.000136181
0.0134493
0.000568016
0.0377756
0.00111435
0.0570445
0.00147599
0.0686774
0.00154546
0.0732579
0.00141456
0.0737338
0.00120807
0.0728104
0.000989598
0.071793
0.000773294
0.0709856
0.000557471
0.0703556
0.000339562
0.0698399
0.000118322
0.0694002
-0.000106875
0.0690141
-0.000336334
0.068666
-0.000570033
0.0683438
-0.000807662
0.0680369
-0.0010485
0.067736
-0.0012913
0.0674323
-0.00153412
0.0671174
-0.00177414
0.0667839
-0.00200754
0.0664252
-0.00222966
0.06604
-0.00243585
0.0656397
-0.00259857
0.0557013
-0.00272872
0.0462285
-0.0028429
0.0384087
-0.00295541
0.0319355
-0.00308444
0.0265702
0.0221089
-0.0032405
0.000104465
0.0133448
0.000440729
0.0374393
0.000875212
0.05661
0.00117164
0.068381
0.0012339
0.0731956
0.00112918
0.0738385
0.000958872
0.0729807
0.000777049
0.0719748
0.000596077
0.0711666
0.00041445
0.0705372
0.000229828
0.0700246
4.09812e-05
0.0695891
-0.000152804
0.0692078
-0.000352025
0.0688652
-0.000557009
0.0685488
-0.00076789
0.0682478
-0.000984517
0.0679526
-0.00120633
0.0676541
-0.00143219
0.0673433
-0.0016603
0.067012
-0.00188802
0.0666529
-0.00211185
0.0662638
-0.00232685
0.0658547
-0.00249834
0.0558728
-0.00262561
0.0463558
-0.00271502
0.0384981
-0.00277628
0.0319968
-0.00282722
0.0266211
-0.00300545
0.0222871
9.71583e-05
0.021983
0.000139005
0.0219855
0.000171914
0.0219944
0.000202488
0.0219968
0.00022725
0.0220026
0.000247487
0.0220071
0.000264701
0.0220101
0.000275602
0.0220165
0.000284504
0.0220185
0.000288389
0.0220235
0.000289211
0.0220265
0.000287513
0.0220291
0.000281373
0.0220335
0.000273636
0.0220351
0.00026265
0.0220383
0.000249362
0.0220406
0.000234741
0.022042
0.000217141
0.022045
0.000198479
0.022046
0.000178578
0.0220473
0.000157111
0.0220488
0.00013503
0.0220494
0.000112278
0.0220501
8.90138e-05
0.0220506
6.56392e-05
0.0220507
4.23204e-05
0.0220507
1.94414e-05
0.0220502
-2.9987e-06
0.0220498
-2.46791e-05
0.022049
-4.49595e-05
0.0220476
-6.43345e-05
0.0220467
-8.19745e-05
0.022045
-9.75754e-05
0.022043
-0.000111902
0.0220417
-0.000122917
0.0220384
-0.000131943
0.0220364
-0.000138675
0.0220341
-0.000141219
0.0220299
-0.000141965
0.0220281
-0.000138024
0.0220234
-0.000130908
0.0220202
-0.00012065
0.0220171
-0.000104574
0.0220113
-8.6318e-05
0.0220091
-6.13243e-05
0.0220024
-3.28667e-05
0.0219989
4.1911e-07
0.0219941
4.00805e-05
0.0219877
0.0219852
8.22632e-05
0.000123699
0.0219393
0.000165101
0.0219441
0.000197799
0.0219617
0.000228411
0.0219662
0.000253467
0.0219775
0.000274253
0.0219863
0.00029226
0.0219921
0.000304192
0.0220045
0.000314346
0.0220083
0.000319696
0.0220181
0.000322183
0.022024
0.000322334
0.0220289
0.000318219
0.0220376
0.000312664
0.0220406
0.000304008
0.022047
0.000293184
0.0220515
0.000281145
0.022054
0.000266238
0.0220599
0.000250359
0.0220619
0.000233321
0.0220643
0.000214787
0.0220674
0.000195689
0.0220685
0.000175961
0.0220698
0.000155752
0.0220708
0.000135444
0.022071
0.000115193
0.0220709
9.53754e-05
0.0220701
7.59713e-05
0.0220692
5.72911e-05
0.0220677
3.99648e-05
0.022065
2.34745e-05
0.0220632
8.64092e-06
0.0220598
-4.24684e-06
0.0220558
-1.59737e-05
0.0220534
-2.45026e-05
0.0220469
-3.11774e-05
0.0220431
-3.57019e-05
0.0220386
-3.61863e-05
0.0220304
-3.50463e-05
0.022027
-2.93926e-05
0.0220178
-2.07605e-05
0.0220116
-9.19865e-06
0.0220055
7.96509e-06
0.0219941
2.70636e-05
0.02199
5.26566e-05
0.0219768
8.14412e-05
0.0219701
0.000114766
0.0219607
0.000154156
0.0219483
0.0219436
0.000195734
0.000144228
0.0218959
0.000185555
0.0219028
0.000218441
0.0219289
0.000249504
0.0219351
0.000275274
0.0219518
0.000297027
0.0219646
0.000316243
0.0219729
0.000329618
0.0219911
0.000341435
0.0219965
0.000348658
0.0220109
0.000353215
0.0220195
0.000355618
0.0220265
0.00035393
0.0220393
0.000350959
0.0220436
0.000345036
0.0220529
0.000337077
0.0220594
0.000328019
0.0220631
0.000316206
0.0220717
0.000303511
0.0220746
0.000289735
0.0220781
0.000274533
0.0220826
0.000258817
0.0220843
0.000242509
0.0220861
0.000225749
0.0220876
0.000208898
0.0220879
0.000192102
0.0220877
0.000175728
0.0220864
0.000159734
0.0220852
0.000144421
0.022083
0.000130409
0.022079
0.000117159
0.0220765
0.000105486
0.0220715
9.5665e-05
0.0220657
8.689e-05
0.0220622
8.11971e-05
0.0220526
7.72154e-05
0.022047
7.52281e-05
0.0220406
7.71212e-05
0.0220285
8.045e-05
0.0220236
8.81061e-05
0.0220101
9.85327e-05
0.0220012
0.000111668
0.0219924
0.000130184
0.0219756
0.000150382
0.0219698
0.000176828
0.0219503
0.000206188
0.0219408
0.000239801
0.0219271
0.000279176
0.0219089
0.0219024
0.000320397
0.000161366
0.0218522
0.000203234
0.0218609
0.000236903
0.0218952
0.000269009
0.021903
0.000296086
0.0219247
0.000319405
0.0219413
0.000340438
0.0219519
0.000355875
0.0219757
0.00036998
0.0219824
0.000379713
0.0220012
0.000386982
0.0220122
0.000392289
0.0220212
0.000393686
0.0220379
0.000393962
0.0220433
0.00039144
0.0220554
0.000387018
0.0220638
0.000381616
0.0220685
0.000373574
0.0220797
0.000364741
0.0220834
0.000354905
0.0220879
0.000343713
0.0220937
0.000332053
0.0220959
0.000319837
0.0220984
0.000307193
0.0221002
0.000294463
0.0221006
0.000281777
0.0221004
0.000269496
0.0220987
0.000257554
0.0220971
0.000246239
0.0220943
0.000236166
0.022089
0.000226769
0.0220859
0.000218856
0.0220794
0.000212688
0.0220718
0.000207437
0.0220674
0.00020514
0.0220549
0.000204402
0.0220478
0.000205491
0.0220395
0.000210294
0.0220237
0.000216335
0.0220176
0.00022651
0.0219999
0.000239238
0.0219885
0.000254445
0.0219772
0.000274805
0.0219552
0.000296584
0.021948
0.000324359
0.0219225
0.000354764
0.0219103
0.000389128
0.0218928
0.000428955
0.0218691
0.021861
0.000470283
0.000172778
0.0218073
0.000216027
0.0218177
0.000251313
0.0218599
0.000285293
0.021869
0.00031451
0.0218955
0.000340236
0.0219155
0.000363934
0.0219282
0.00038229
0.0219574
0.000399553
0.0219651
0.000412674
0.021988
0.000423548
0.0220013
0.000432658
0.0220121
0.000438053
0.0220325
0.000442495
0.0220389
0.000444301
0.0220536
0.000444352
0.0220638
0.000443548
0.0220693
0.000440224
0.022083
0.000436203
0.0220874
0.000431258
0.0220929
0.00042503
0.0221
0.000418379
0.0221026
0.000411206
0.0221055
0.000403626
0.0221078
0.000395958
0.0221083
0.000388319
0.022108
0.000381061
0.022106
0.000374091
0.0221041
0.000367684
0.0221008
0.000362449
0.0220943
0.00035779
0.0220905
0.000354509
0.0220827
0.000352855
0.0220735
0.000351969
0.0220683
0.0003539
0.022053
0.000357217
0.0220445
0.000362178
0.0220345
0.000370674
0.0220152
0.000380189
0.0220081
0.000393634
0.0219865
0.000409401
0.0219727
0.000427401
0.0219592
0.000450317
0.0219323
0.000474375
0.021924
0.000504174
0.0218927
0.000536313
0.0218782
0.000572116
0.021857
0.000613081
0.0218281
0.0218189
0.0006552
0.000173724
0.0217602
0.000219384
0.021772
0.00025732
0.021822
0.000294217
0.0218321
0.000326628
0.0218631
0.000355829
0.0218863
0.000383281
0.0219007
0.000405662
0.021935
0.000427209
0.0219436
0.000444862
0.0219704
0.000460502
0.0219857
0.000474597
0.021998
0.000485185
0.0220219
0.000495007
0.0220291
0.000502368
0.0220463
0.000508131
0.022058
0.000513174
0.0220642
0.000515827
0.0220804
0.000517884
0.0220854
0.000519104
0.0220916
0.000519114
0.0221
0.000518749
0.0221029
0.000517893
0.0221064
0.000516652
0.0221091
0.000515313
0.0221096
0.000513981
0.0221094
0.000512997
0.0221069
0.000512237
0.0221049
0.000511965
0.022101
0.000512778
0.0220935
0.000514049
0.0220893
0.000516575
0.0220802
0.000520589
0.0220695
0.0005252
0.0220637
0.000532468
0.0220457
0.000540926
0.022036
0.00055082
0.0220247
0.000564046
0.022002
0.000578047
0.0219941
0.00059575
0.0219688
0.000615518
0.0219529
0.000637248
0.0219375
0.000663638
0.0219059
0.000690867
0.0218967
0.000723568
0.02186
0.000758295
0.0218435
0.000796373
0.0218189
0.000839298
0.0217852
0.0217752
0.000883005
0.000157324
0.0217097
0.0002066
0.0217227
0.000248414
0.0217802
0.000289486
0.0217911
0.000326377
0.0218262
0.00036037
0.0218523
0.000392922
0.0218682
0.000420705
0.0219072
0.000447945
0.0219163
0.000471572
0.0219468
0.000493449
0.0219638
0.000514029
0.0219774
0.000531335
0.0220046
0.000548087
0.0220123
0.000562575
0.0220318
0.000575644
0.022045
0.000588146
0.0220517
0.000598404
0.0220701
0.00060818
0.0220756
0.000617213
0.0220826
0.000625121
0.0220921
0.000632703
0.0220953
0.000639829
0.0220993
0.000646588
0.0221023
0.000653236
0.022103
0.000659858
0.0221028
0.000666785
0.0221
0.000673857
0.0220978
0.000681319
0.0220936
0.000689763
0.022085
0.000698519
0.0220805
0.000708379
0.0220703
0.000719559
0.0220583
0.000731129
0.0220521
0.000745164
0.0220317
0.000760155
0.022021
0.000776333
0.0220085
0.000795603
0.0219827
0.000815358
0.0219743
0.000838549
0.0219456
0.000863504
0.021928
0.000890107
0.0219109
0.000921077
0.021875
0.000952538
0.0218653
0.000989165
0.0218234
0.00102747
0.0218052
0.00106877
0.0217776
0.00111457
0.0217394
0.0217291
0.00116074
0.000114557
0.0216545
0.000168821
0.0216685
0.000215925
0.0217331
0.000262622
0.0217444
0.0003055
0.0217833
0.000345846
0.021812
0.000385115
0.0218289
0.000419965
0.0218723
0.000454618
0.0218817
0.000485983
0.0219154
0.000515911
0.0219339
0.000544833
0.0219485
0.000570757
0.0219787
0.000596379
0.0219867
0.000619972
0.0220082
0.000642356
0.0220226
0.000664358
0.0220297
0.000684287
0.0220502
0.000703872
0.022056
0.000722829
0.0220636
0.000740758
0.0220741
0.000758421
0.0220777
0.000775666
0.022082
0.000792565
0.0220854
0.000809332
0.0220862
0.000826031
0.0220861
0.000842978
0.0220831
0.000859967
0.0220808
0.000877225
0.0220763
0.000895331
0.0220669
0.000913566
0.0220623
0.000932714
0.0220512
0.000952969
0.022038
0.000973356
0.0220318
0.000995967
0.022009
0.00101924
0.0219977
0.00104339
0.0219843
0.00107034
0.0219557
0.00109741
0.0219472
0.00112759
0.0219154
0.00115917
0.0218964
0.00119201
0.021878
0.00122886
0.0218381
0.00126579
0.0218283
0.00130752
0.0217817
0.0013505
0.0217622
0.00139607
0.021732
0.00144573
0.0216898
0.0216795
0.00149528
3.2729e-05
0.0215928
9.40711e-05
0.0216071
0.000148239
0.0216789
0.000202442
0.0216902
0.000253194
0.0217325
0.000301788
0.0217634
0.00034972
0.021781
0.000393644
0.0218284
0.000437788
0.0218375
0.000479034
0.0218742
0.000519222
0.0218937
0.000558765
0.0219089
0.000595644
0.0219418
0.000632537
0.0219498
0.00066769
0.021973
0.000701899
0.0219884
0.000735961
0.0219957
0.000768163
0.022018
0.000800199
0.022024
0.000831754
0.0220321
0.000862403
0.0220435
0.000892869
0.0220472
0.000922968
0.0220519
0.000952744
0.0220556
0.000982368
0.0220566
0.00101187
0.0220566
0.00104154
0.0220534
0.00107113
0.0220512
0.00110083
0.0220466
0.0011312
0.0220365
0.00116146
0.022032
0.00119238
0.0220202
0.00122414
0.0220063
0.00125568
0.0220002
0.00128914
0.0219756
0.00132288
0.021964
0.00135709
0.0219501
0.00139372
0.0219191
0.00143
0.021911
0.00146898
0.0218764
0.00150887
0.0218565
0.00154955
0.0218373
0.00159378
0.0217939
0.00163756
0.0217846
0.00168568
0.0217336
0.00173454
0.0217133
0.00178547
0.0216811
0.00183999
0.0216352
0.0216257
0.00189381
-0.000100651
0.0215246
-3.22394e-05
0.0215387
3.097e-05
0.0216157
9.49317e-05
0.0216262
0.000155791
0.0216717
0.000214797
0.0217044
0.000273701
0.0217221
0.000329075
0.021773
0.000385174
0.0217814
0.000438859
0.0218205
0.000491972
0.0218406
0.000544903
0.021856
0.000595595
0.0218911
0.00064672
0.0218987
0.000696481
0.0219233
0.000745649
0.0219392
0.000794988
0.0219463
0.000842748
0.0219702
0.000890587
0.0219762
0.000938148
0.0219845
0.000984974
0.0219967
0.00103173
0.0220005
0.0010782
0.0220054
0.00112439
0.0220094
0.0011704
0.0220106
0.00121622
0.0220107
0.00126212
0.0220075
0.00130776
0.0220056
0.0013533
0.0220011
0.00139928
0.0219906
0.00144484
0.0219864
0.00149073
0.0219743
0.00153707
0.0219599
0.00158275
0.0219545
0.00162992
0.0219284
0.00167685
0.0219171
0.00172372
0.0219032
0.00177247
0.0218704
0.00182027
0.0218632
0.00187019
0.0218265
0.00192041
0.0218063
0.00197076
0.021787
0.00202406
0.0217406
0.00207622
0.0217324
0.00213212
0.0216777
0.00218808
0.0216574
0.00224545
0.0216237
0.00230578
0.0215749
0.0215668
0.00236468
-0.000300318
0.0214467
-0.000221695
0.0214601
-0.000149261
0.0215432
-7.55601e-05
0.0215525
-3.51072e-06
0.0215996
6.83948e-05
0.0216325
0.00014092
0.0216495
0.000210405
0.0217036
0.000281336
0.0217105
0.000350497
0.0217513
0.00041972
0.0217714
0.000489378
0.0217864
0.000557362
0.0218231
0.000626354
0.0218297
0.000694501
0.0218551
0.000762548
0.0218712
0.000831217
0.0218777
0.000898701
0.0219028
0.000966621
0.0219082
0.00103456
0.0219166
0.00110201
0.0219292
0.00116958
0.0219329
0.00123697
0.0219381
0.00130415
0.0219423
0.00137114
0.0219436
0.00143787
0.021944
0.00150455
0.0219408
0.00157076
0.0219394
0.00163659
0.0219352
0.00170253
0.0219246
0.00176763
0.0219214
0.00183259
0.0219094
0.00189749
0.0218951
0.00196111
0.0218909
0.00202561
0.0218639
0.00208917
0.0218535
0.00215192
0.0218405
0.00221582
0.0218065
0.00227793
0.0218011
0.00234136
0.0217631
0.00240422
0.0217434
0.00246632
0.0217249
0.00253057
0.0216763
0.00259273
0.0216703
0.00265782
0.0216126
0.00272205
0.0215932
0.00278684
0.0215589
0.00285375
0.021508
0.0215023
0.00291829
-0.000591084
0.0213586
-0.000501003
0.02137
-0.000415564
0.0214578
-0.000327801
0.0214647
-0.000241562
0.0215134
-0.000155575
0.0215465
-6.78879e-05
0.0215619
1.8325e-05
0.0216173
0.000107083
0.0216217
0.000194976
0.0216634
0.000283887
0.0216825
0.000374177
0.0216961
0.000463662
0.0217336
0.000555028
0.0217383
0.000646312
0.0217638
0.000738208
0.0217793
0.000831393
0.0217845
0.000923965
0.0218102
0.0010175
0.0218147
0.0011115
0.0218226
0.00120537
0.0218353
0.00129965
0.0218386
0.00139396
0.0218437
0.00148817
0.021848
0.00158221
0.0218495
0.00167591
0.0218503
0.00176941
0.0218473
0.00186215
0.0218466
0.00195414
0.0218432
0.0020458
0.021833
0.00213603
0.0218311
0.00222547
0.0218199
0.00231412
0.0218064
0.00240062
0.0218044
0.00248713
0.0217774
0.0025717
0.0217689
0.00265439
0.0217578
0.00273719
0.0217237
0.00281699
0.0217213
0.00289698
0.0216831
0.00297518
0.0216652
0.00305138
0.0216487
0.00312856
0.0215991
0.00320235
0.0215965
0.00327794
0.021537
0.00335144
0.0215197
0.00342432
0.0214861
0.00349819
0.0214341
0.021432
0.00356846
-0.000999379
0.0212596
-0.00089703
0.0212677
-0.000798129
0.0213589
-0.000695355
0.0213619
-0.000592417
0.0214105
-0.00048799
0.0214421
-0.000380609
0.0214545
-0.000274082
0.0215108
-0.00016372
0.0215114
-5.29023e-05
0.0215526
6.0213e-05
0.0215694
0.00017593
0.0215803
0.000292119
0.0216175
0.000411549
0.0216189
0.00053202
0.0216434
0.000654192
0.0216571
0.000778634
0.02166
0.000903285
0.0216855
0.00102967
0.0216883
0.00115719
0.0216951
0.00128513
0.0217074
0.00141394
0.0217098
0.00154311
0.0217146
0.0016724
0.0217188
0.0018016
0.0217204
0.00193039
0.0217215
0.00205881
0.0217189
0.0021861
0.0217193
0.00231215
0.0217172
0.00243726
0.0217079
0.0025601
0.0217083
0.00268125
0.0216988
0.00280054
0.0216871
0.00291644
0.0216885
0.00303109
0.0216628
0.00314234
0.0216577
0.00325016
0.02165
0.00335655
0.0216173
0.00345819
0.0216196
0.00355838
0.0215829
0.00365501
0.0215686
0.00374783
0.0215559
0.00383996
0.021507
0.00392687
0.0215096
0.00401397
0.0214499
0.00409727
0.0214364
0.00417832
0.021405
0.00425886
0.0213536
0.0213567
0.00433416
-0.00156087
0.0211509
-0.00144645
0.0211532
-0.0013336
0.0212461
-0.00121471
0.0212431
-0.00109365
0.0212894
-0.000968913
0.0213173
-0.000838824
0.0213244
-0.00070723
0.0213792
-0.000569544
0.0213737
-0.000429453
0.0214125
-0.000285078
0.021425
-0.000136267
0.0214315
1.41153e-05
0.0214671
0.000168629
0.0214644
0.000325635
0.0214864
0.000486468
0.0214963
0.000650833
0.0214957
0.000816625
0.0215197
0.000985302
0.0215196
0.00115611
0.0215243
0.00132823
0.0215353
0.00150195
0.0215361
0.00167662
0.0215399
0.00185183
0.0215435
0.00202718
0.021545
0.00220214
0.0215465
0.00237657
0.0215445
0.00254944
0.0215465
0.00272042
0.0215462
0.00288962
0.0215387
0.0030554
0.0215425
0.00321816
0.021536
0.00337753
0.0215278
0.00353167
0.0215344
0.0036827
0.0215117
0.00382818
0.0215122
0.00396791
0.0215103
0.0041039
0.0214813
0.00423256
0.021491
0.00435727
0.0214582
0.00447578
0.0214501
0.00458781
0.0214438
0.00469665
0.0213982
0.00479757
0.0214086
0.00489633
0.0213511
0.00498884
0.0213439
0.00507683
0.021317
0.00516226
0.0212681
0.0212787
0.00524025
-0.00232176
0.0210358
-0.00219749
0.021029
-0.00207209
0.0211207
-0.00193731
0.0211083
-0.0017969
0.021149
-0.00164901
0.0211694
-0.00149189
0.0211673
-0.00132973
0.0212171
-0.00115796
0.0212019
-0.000980755
0.0212353
-0.000796534
0.0212408
-0.000605372
0.0212404
-0.000409927
0.0212716
-0.000207541
0.021262
-1.31808e-06
0.0212801
0.000207828
0.0212871
0.000422704
0.0212808
0.000641112
0.0213013
0.000864194
0.0212966
0.00109107
0.0212974
0.00132071
0.0213056
0.00155325
0.0213036
0.00178782
0.0213053
0.00202383
0.0213075
0.00226054
0.0213083
0.00249714
0.0213099
0.00273319
0.0213084
0.00296724
0.0213124
0.00319857
0.0213149
0.00342697
0.0213103
0.00365031
0.0213192
0.00386868
0.0213177
0.00408135
0.0213151
0.00428605
0.0213297
0.00448478
0.021313
0.00467467
0.0213223
0.00485532
0.0213296
0.00502871
0.0213079
0.00519083
0.0213288
0.00534523
0.0213038
0.00548942
0.0213059
0.00562307
0.0213102
0.0057497
0.0212715
0.00586438
0.021294
0.00597338
0.0212421
0.00607256
0.0212447
0.00616402
0.0212255
0.00625007
0.0211821
0.021203
0.00632575
-0.00276443
0.0209457
-0.00266376
0.0209283
-0.00255743
0.0210143
-0.00243582
0.0209867
-0.00230176
0.0210149
-0.00215415
0.0210218
-0.00199258
0.0210057
-0.00182196
0.0210465
-0.00163943
0.0210194
-0.0014496
0.0210455
-0.00125177
0.0210429
-0.00104656
0.0210352
-0.000836751
0.0210618
-0.000620141
0.0210454
-0.000398624
0.0210586
-0.00017108
0.0210596
6.10963e-05
0.0210486
0.000296258
0.0210662
0.000538548
0.0210543
0.000785575
0.0210504
0.00103674
0.0210545
0.00129211
0.0210482
0.00155086
0.0210466
0.00181229
0.0210461
0.00207546
0.0210451
0.0023393
0.0210461
0.00260304
0.0210447
0.00286488
0.0210506
0.0031237
0.0210561
0.00337885
0.0210551
0.00362787
0.0210701
0.00387041
0.0210751
0.00410539
0.0210801
0.00433033
0.0211047
0.0045468
0.0210965
0.00475189
0.0211172
0.00494504
0.0211365
0.00512795
0.021125
0.00529681
0.02116
0.00545481
0.0211458
0.0055996
0.0211611
0.00573083
0.021179
0.00585163
0.0211507
0.00595747
0.0211881
0.00605401
0.0211456
0.00613763
0.0211611
0.0062106
0.0211526
0.00627563
0.021117
0.0211496
0.00632904
-0.00306316
0.0208787
-0.00299558
0.0208607
-0.00291879
0.0209375
-0.00281587
0.0208838
-0.00268879
0.0208879
-0.00253938
0.0208724
-0.00237086
0.0208372
-0.00219058
0.0208662
-0.0019982
0.020827
-0.00179905
0.0208463
-0.00159316
0.020837
-0.00138129
0.0208233
-0.00116577
0.0208463
-0.00094454
0.0208242
-0.000719192
0.0208333