/*--------------------------------*- C++ -*----------------------------------*\
| =========                 |                                                 |
| \\      /  F ield         | OpenFOAM: The Open Source CFD Toolbox           |
|  \\    /   O peration     | Version:  2312                                  |
|   \\  /    A nd           | Website:  www.openfoam.com                      |
|    \\/     M anipulation  |                                                 |
\*---------------------------------------------------------------------------*/
FoamFile
{
    version     2.0;
    format      ascii;
    arch        "LSB;label=32;scalar=64";
    class       volVectorField;
    location    "71.076863609044267";
    object      U;
}
// * * * * * * * * * * * * * * * * * * * * * * * * * * * * * * * * * * * * * //

dimensions      [0 1 -1 0 0 0 0];

internalField   nonuniform List<vector> 
21039
(
(0.913795 0.0474848 0)
(1.02605 0.0665107 0)
(1.00449 0.0294621 0)
(1.00177 0.0188942 0)
(1.00121 0.0138818 0)
(1.0008 0.0104972 0)
(1.00055 0.00816744 0)
(1.0004 0.00652117 0)
(1.00031 0.00530724 0)
(1.00024 0.00438179 0)
(1.00019 0.00365934 0)
(1.00015 0.0030849 0)
(1.00012 0.00262145 0)
(1.0001 0.00224343 0)
(1.00008 0.00193274 0)
(1.00006 0.00167627 0)
(1.00005 0.00146433 0)
(1.00004 0.00128966 0)
(1.00003 0.00114663 0)
(1.00003 0.00103069 0)
(1.00002 0.000938034 0)
(1.00001 0.00086666 0)
(1.00001 0.000818316 0)
(1.00001 0.000774876 0)
(1.00001 0.000741524 0)
(1.00001 0.000714922 0)
(1.00001 0.000690709 0)
(1.00001 0.000658731 0)
(1.00002 0.000596787 0)
(0.794635 0.073096 0)
(1.07449 0.121685 0)
(1.03988 0.070786 0)
(1.01812 0.0496772 0)
(1.0113 0.038244 0)
(1.00765 0.0294472 0)
(1.0054 0.0231354 0)
(1.00397 0.0185435 0)
(1.00301 0.0150709 0)
(1.00235 0.0123765 0)
(1.00186 0.0102437 0)
(1.0015 0.00852577 0)
(1.00123 0.00712202 0)
(1.00101 0.00596203 0)
(1.00084 0.00499557 0)
(1.00069 0.00418614 0)
(1.00058 0.00350682 0)
(1.00048 0.00293747 0)
(1.00039 0.00246285 0)
(1.00031 0.00207107 0)
(1.00025 0.00175237 0)
(1.00019 0.00150045 0)
(1.00014 0.00131953 0)
(1.00011 0.00118086 0)
(1.0001 0.00109118 0)
(1.0001 0.00103214 0)
(1.00011 0.000989284 0)
(1.00012 0.000942974 0)
(1.00012 0.000862436 0)
(0.667403 0.0572855 0)
(1.08304 0.124788 0)
(1.08437 0.0902362 0)
(1.04631 0.067619 0)
(1.0291 0.0540761 0)
(1.02028 0.0430912 0)
(1.01473 0.0347606 0)
(1.01103 0.0283522 0)
(1.00848 0.0232938 0)
(1.00667 0.0192537 0)
(1.00534 0.0159864 0)
(1.00434 0.0133093 0)
(1.00357 0.0110913 0)
(1.00297 0.00923689 0)
(1.00248 0.00767624 0)
(1.00208 0.00635739 0)
(1.00174 0.00524157 0)
(1.00145 0.00429956 0)
(1.0012 0.00350915 0)
(1.00098 0.00285336 0)
(1.00079 0.00231838 0)
(1.00062 0.00189416 0)
(1.00046 0.00158674 0)
(1.00036 0.00136393 0)
(1.0003 0.00122788 0)
(1.00027 0.00114326 0)
(1.00026 0.00108567 0)
(1.00027 0.00102953 0)
(1.00028 0.000940448 0)
(0.541109 0.0352652 0)
(1.05081 0.110813 0)
(1.11594 0.0969684 0)
(1.07616 0.0762133 0)
(1.04929 0.0620195 0)
(1.03534 0.0508785 0)
(1.0265 0.0421696 0)
(1.02034 0.0351043 0)
(1.01592 0.02928 0)
(1.01269 0.0244714 0)
(1.01028 0.020474 0)
(1.00844 0.0171238 0)
(1.007 0.0142963 0)
(1.00586 0.0118964 0)
(1.00493 0.009851 0)
(1.00416 0.00810407 0)
(1.0035 0.00661286 0)
(1.00294 0.0053446 0)
(1.00245 0.00427417 0)
(1.00201 0.00338238 0)
(1.00162 0.00265391 0)
(1.00126 0.00207652 0)
(1.00094 0.00165775 0)
(1.00071 0.00136432 0)
(1.00056 0.00119091 0)
(1.00048 0.00108679 0)
(1.00044 0.00101903 0)
(1.00044 0.000957131 0)
(1.00045 0.000861727 0)
(0.444296 0.0186684 0)
(0.99782 0.0918686 0)
(1.12907 0.0956234 0)
(1.10151 0.079411 0)
(1.06833 0.065326 0)
(1.04987 0.0546075 0)
(1.03839 0.0461772 0)
(1.03018 0.0390935 0)
(1.02411 0.0330677 0)
(1.01954 0.0279503 0)
(1.01604 0.0235827 0)
(1.01332 0.0198368 0)
(1.01116 0.0166125 0)
(1.00941 0.0138295 0)
(1.00797 0.0114235 0)
(1.00677 0.00934376 0)
(1.00574 0.00755065 0)
(1.00484 0.00601316 0)
(1.00405 0.00470731 0)
(1.00333 0.00361476 0)
(1.00268 0.00272115 0)
(1.00209 0.00201409 0)
(1.00154 0.00150306 0)
(1.00113 0.00115502 0)
(1.00086 0.000956227 0)
(1.0007 0.000842403 0)
(1.00063 0.00077342 0)
(1.00061 0.000714507 0)
(1.0006 0.000619425 0)
(0.378757 0.0081038 0)
(0.939798 0.0718538 0)
(1.12707 0.0882905 0)
(1.12094 0.0785831 0)
(1.08564 0.065784 0)
(1.06322 0.0557479 0)
(1.04947 0.0478267 0)
(1.03968 0.0410185 0)
(1.03228 0.03509 0)
(1.02659 0.0299368 0)
(1.02213 0.0254385 0)
(1.01859 0.0215009 0)
(1.01574 0.0180489 0)
(1.01339 0.0150203 0)
(1.01143 0.0123644 0)
(1.00977 0.0100403 0)
(1.00833 0.00801551 0)
(1.00706 0.00626454 0)
(1.00592 0.0047676 0)
(1.00489 0.00350974 0)
(1.00394 0.00247972 0)
(1.00305 0.00166697 0)
(1.00224 0.00108386 0)
(1.00161 0.00069871 0)
(1.00118 0.000488813 0)
(1.00093 0.000377103 0)
(1.0008 0.000317076 0)
(1.00075 0.000271612 0)
(1.00071 0.000189973 0)
(0.333543 0.00233404 0)
(0.883508 0.05386 0)
(1.11415 0.0778671 0)
(1.13403 0.0747879 0)
(1.10108 0.0641811 0)
(1.07555 0.0550464 0)
(1.05973 0.0477649 0)
(1.04864 0.0414068 0)
(1.04017 0.0357491 0)
(1.03355 0.0307204 0)
(1.02829 0.0262398 0)
(1.02403 0.0222447 0)
(1.02055 0.0186829 0)
(1.01764 0.01551 0)
(1.01518 0.0126895 0)
(1.01306 0.0101917 0)
(1.0112 0.00799301 0)
(1.00954 0.00607529 0)
(1.00803 0.00442484 0)
(1.00664 0.00303196 0)
(1.00534 0.00189021 0)
(1.00413 0.000992697 0)
(1.00299 0.000355764 0)
(1.00211 -5.21954e-05 0)
(1.0015 -0.000259643 0)
(1.00113 -0.000356183 0)
(1.00093 -0.000397971 0)
(1.00084 -0.000422246 0)
(1.00076 -0.000487809 0)
(0.301244 -0.000194015 0)
(0.831766 0.0396019 0)
(1.09398 0.0669864 0)
(1.14079 0.0693794 0)
(1.11415 0.0612883 0)
(1.08683 0.0531337 0)
(1.0692 0.0464969 0)
(1.057 0.0406525 0)
(1.0477 0.0353538 0)
(1.04032 0.0305421 0)
(1.03438 0.0261701 0)
(1.02952 0.0222029 0)
(1.02547 0.018609 0)
(1.02205 0.0153607 0)
(1.01912 0.0124351 0)
(1.01656 0.00981387 0)
(1.01428 0.00748292 0)
(1.01222 0.00543208 0)
(1.01032 0.0036548 0)
(1.00855 0.00214782 0)
(1.00688 0.000910896 0)
(1.00529 -5.91987e-05 0)
(1.0038 -0.000739062 0)
(1.00261 -0.00115552 0)
(1.00179 -0.00135062 0)
(1.00127 -0.00142317 0)
(1.00099 -0.00143391 0)
(1.00083 -0.00142969 0)
(1.0007 -0.0014839 0)
(0.278267 -0.000988613 0)
(0.786075 0.0291157 0)
(1.06981 0.057007 0)
(1.14204 0.063397 0)
(1.12454 0.0577782 0)
(1.09697 0.050591 0)
(1.07787 0.0445042 0)
(1.06475 0.039127 0)
(1.05479 0.0341897 0)
(1.04683 0.0296235 0)
(1.04034 0.0254009 0)
(1.03496 0.0215062 0)
(1.03043 0.0179241 0)
(1.02656 0.014641 0)
(1.02319 0.0116462 0)
(1.02021 0.00893175 0)
(1.01753 0.00649274 0)
(1.01507 0.00432719 0)
(1.01278 0.00243612 0)
(1.01061 0.000823366 0)
(1.00853 -0.000504801 0)
(1.00654 -0.00154482 0)
(1.00464 -0.00226651 0)
(1.00311 -0.00269099 0)
(1.00204 -0.00287014 0)
(1.00134 -0.0029126 0)
(1.00094 -0.00288301 0)
(1.0007 -0.00283865 0)
(1.00048 -0.00286946 0)
(0.261822 -0.00103247 0)
(0.746818 0.0216939 0)
(1.04419 0.0483442 0)
(1.13908 0.0574006 0)
(1.13241 0.0540354 0)
(1.10602 0.0477869 0)
(1.08584 0.0421444 0)
(1.07193 0.0371395 0)
(1.06145 0.0325113 0)
(1.05304 0.0281702 0)
(1.04612 0.0240955 0)
(1.04032 0.0202822 0)
(1.03539 0.0167256 0)
(1.03113 0.0134227 0)
(1.02737 0.0103721 0)
(1.024 0.00757497 0)
(1.02093 0.00503438 0)
(1.01808 0.00275619 0)
(1.01539 0.000749055 0)
(1.01281 -0.000977087 0)
(1.01031 -0.00240828 0)
(1.00787 -0.00353116 0)
(1.00553 -0.00430755 0)
(1.00361 -0.00475293 0)
(1.00224 -0.00492379 0)
(1.00133 -0.00493816 0)
(1.00076 -0.0048669 0)
(1.0004 -0.00477626 0)
(1.00007 -0.00477476 0)
(0.249589 -0.000811999 0)
(0.713501 0.0165479 0)
(1.01872 0.0410186 0)
(1.13316 0.0516702 0)
(1.13807 0.0502424 0)
(1.1141 0.0448952 0)
(1.09326 0.0396212 0)
(1.07866 0.0348955 0)
(1.06774 0.0305073 0)
(1.05899 0.0263475 0)
(1.05173 0.0223937 0)
(1.04561 0.0186455 0)
(1.04034 0.015105 0)
(1.03574 0.0117756 0)
(1.03164 0.00866323 0)
(1.02792 0.00577547 0)
(1.02449 0.00312246 0)
(1.02126 0.000716994 0)
(1.01817 -0.00142703 0)
(1.01517 -0.00329185 0)
(1.01223 -0.00485428 0)
(1.00932 -0.00609231 0)
(1.00649 -0.00695697 0)
(1.00413 -0.00745406 0)
(1.00241 -0.00764009 0)
(1.00124 -0.00764197 0)
(1.00047 -0.00753792 0)
(0.999931 -0.00740378 0)
(0.99945 -0.00736866 0)
(0.240046 -0.000550615 0)
(0.68529 0.012992 0)
(0.994315 0.0349062 0)
(1.12523 0.046348 0)
(1.14185 0.0465012 0)
(1.1213 0.041999 0)
(1.10026 0.0370443 0)
(1.08506 0.0325206 0)
(1.07377 0.0283042 0)
(1.06474 0.024275 0)
(1.05723 0.0204038 0)
(1.05085 0.0166912 0)
(1.04531 0.013142 0)
(1.04043 0.00976421 0)
(1.03603 0.00656795 0)
(1.03201 0.00356595 0)
(1.02824 0.000773768 0)
(1.02465 -0.00179227 0)
(1.02118 -0.00411144 0)
(1.01776 -0.00615734 0)
(1.01435 -0.00789955 0)
(1.01094 -0.00930699 0)
(1.00759 -0.0103191 0)
(1.00474 -0.0109253 0)
(1.00262 -0.0111742 0)
(1.00112 -0.0111999 0)
(1.00008 -0.0110882 0)
(0.999308 -0.0109264 0)
(0.998613 -0.0108656 0)
(0.232319 -0.000338778 0)
(0.661356 0.0104887 0)
(0.971449 0.0298276 0)
(1.11603 0.0414903 0)
(1.14406 0.0428776 0)
(1.1277 0.0391482 0)
(1.10693 0.0344797 0)
(1.09125 0.030097 0)
(1.07963 0.0259905 0)
(1.07038 0.0220409 0)
(1.06267 0.0182105 0)
(1.05608 0.014497 0)
(1.05034 0.010906 0)
(1.04523 0.00744731 0)
(1.04059 0.00413372 0)
(1.03629 0.000981196 0)
(1.03222 -0.00199324 0)
(1.02831 -0.0047683 0)
(1.02447 -0.007316 0)
(1.02064 -0.00960418 0)
(1.01677 -0.0115958 0)
(1.01284 -0.0132516 0)
(1.00893 -0.0145002 0)
(1.00555 -0.0153082 0)
(1.00297 -0.0157031 0)
(1.00108 -0.0158214 0)
(0.999691 -0.0157546 0)
(0.9986 -0.0156029 0)
(0.99761 -0.0155395 0)
(0.225897 -0.000194785 0)
(0.640973 0.00866366 0)
(0.950339 0.0255984 0)
(1.10614 0.0370969 0)
(1.14498 0.0394104 0)
(1.13336 0.0363747 0)
(1.11332 0.0319709 0)
(1.09731 0.0276841 0)
(1.0854 0.0236347 0)
(1.07597 0.0197173 0)
(1.06812 0.0158858 0)
(1.06139 0.0121327 0)
(1.05549 0.00846208 0)
(1.0502 0.00488354 0)
(1.04537 0.00141079 0)
(1.04085 -0.00194129 0)
(1.03654 -0.0051533 0)
(1.03234 -0.00819842 0)
(1.02816 -0.0110447 0)
(1.02394 -0.0136549 0)
(1.01961 -0.0159866 0)
(1.01517 -0.0179949 0)
(1.01069 -0.0196006 0)
(1.00675 -0.0207441 0)
(1.00366 -0.021416 0)
(1.00131 -0.0217442 0)
(0.999476 -0.02182 0)
(0.997953 -0.0217549 0)
(0.996556 -0.0217409 0)
(0.220456 -0.000108654 0)
(0.623529 0.00728638 0)
(0.931036 0.0220854 0)
(1.09595 0.0331696 0)
(1.14484 0.0361359 0)
(1.13832 0.0337003 0)
(1.11941 0.0295413 0)
(1.10324 0.0253194 0)
(1.09108 0.0212857 0)
(1.08151 0.0173598 0)
(1.07356 0.0134888 0)
(1.06674 0.00965873 0)
(1.06074 0.00587044 0)
(1.05534 0.00213118 0)
(1.05037 -0.00154809 0)
(1.04569 -0.00515293 0)
(1.04118 -0.008662 0)
(1.03674 -0.0120462 0)
(1.03226 -0.0152703 0)
(1.02768 -0.0182925 0)
(1.02293 -0.0210661 0)
(1.01799 -0.0235438 0)
(1.01297 -0.025646 0)
(1.00852 -0.0272973 0)
(1.00496 -0.0284422 0)
(1.00214 -0.0291855 0)
(0.999795 -0.0295971 0)
(0.997726 -0.0297799 0)
(0.995788 -0.0299215 0)
(0.21616 -5.07636e-05 0)
(0.609617 0.00629823 0)
(0.914815 0.0193623 0)
(1.08661 0.029928 0)
(1.14406 0.033311 0)
(1.14242 0.0313581 0)
(1.12489 0.0274134 0)
(1.10872 0.0232374 0)
(1.09639 0.0191949 0)
(1.08673 0.0152349 0)
(1.07874 0.0113 0)
(1.07189 0.0073687 0)
(1.06586 0.00343664 0)
(1.06042 -0.000493586 0)
(1.05539 -0.0044154 0)
(1.05063 -0.00831632 0)
(1.04601 -0.0121759 0)
(1.0414 -0.0159654 0)
(1.03671 -0.0196479 0)
(1.03184 -0.0231767 0)
(1.02674 -0.0264982 0)
(1.02137 -0.0295585 0)
(1.01589 -0.0322734 0)
(1.01104 -0.034558 0)
(1.00715 -0.0363348 0)
(1.00396 -0.0377079 0)
(1.00116 -0.0387145 0)
(0.998464 -0.0393989 0)
(0.995785 -0.0398789 0)
(0.212976 -1.61009e-05 0)
(0.59936 0.00562536 0)
(0.902368 0.0174043 0)
(1.07895 0.0274848 0)
(1.14304 0.0311199 0)
(1.14553 0.029528 0)
(1.12935 0.0257541 0)
(1.1133 0.0216108 0)
(1.10087 0.017553 0)
(1.09116 0.0135556 0)
(1.08318 0.00955605 0)
(1.07635 0.00552512 0)
(1.07034 0.00145242 0)
(1.06493 -0.00266502 0)
(1.05992 -0.00682602 0)
(1.05516 -0.0110229 0)
(1.0505 -0.0152393 0)
(1.04583 -0.0194507 0)
(1.04103 -0.0236221 0)
(1.03599 -0.027705 0)
(1.03064 -0.0316383 0)
(1.02497 -0.0353559 0)
(1.01913 -0.038747 0)
(1.01401 -0.0416863 0)
(1.00999 -0.0440927 0)
(1.00674 -0.0461521 0)
(1.00383 -0.0479833 0)
(1.00086 -0.0496171 0)
(0.997729 -0.0508911 0)
(0.210499 3.19687e-05 0)
(0.591474 0.00516705 0)
(0.892518 0.0159801 0)
(1.07255 0.0256298 0)
(1.14189 0.0294189 0)
(1.1479 0.0281062 0)
(1.133 0.0244794 0)
(1.11712 0.020373 0)
(1.10464 0.0163096 0)
(1.09491 0.0122848 0)
(1.08696 0.00823225 0)
(1.08018 0.00411621 0)
(1.07423 -7.95443e-05 0)
(1.06888 -0.004364 0)
(1.06393 -0.00874214 0)
(1.05922 -0.0132127 0)
(1.0546 -0.0177669 0)
(1.04995 -0.0223879 0)
(1.04512 -0.0270474 0)
(1.04001 -0.0317006 0)
(1.03452 -0.0362846 0)
(1.02863 -0.0407233 0)
(1.02251 -0.0448639 0)
(1.01715 -0.0484596 0)
(1.01302 -0.0513402 0)
(1.00988 -0.0537594 0)
(1.00736 -0.0560827 0)
(1.00517 -0.0587018 0)
(1.0027 -0.061048 0)
(0.208895 2.43779e-05 0)
(0.586015 0.004809 0)
(0.885472 0.0149632 0)
(1.06786 0.0243161 0)
(1.14104 0.0282022 0)
(1.14973 0.0270567 0)
(1.13588 0.0235101 0)
(1.12019 0.0194274 0)
(1.10771 0.0153684 0)
(1.098 0.0113302 0)
(1.0901 0.00723882 0)
(1.08339 0.00305307 0)
(1.07753 -0.00124706 0)
(1.07227 -0.00567587 0)
(1.06743 -0.0102452 0)
(1.06282 -0.0149617 0)
(1.0583 -0.0198267 0)
(1.05373 -0.024834 0)
(1.04898 -0.0299663 0)
(1.04392 -0.0351901 0)
(1.03844 -0.0404519 0)
(1.03252 -0.0456878 0)
(1.02634 -0.0507355 0)
(1.02093 -0.0551943 0)
(1.01676 -0.0586654 0)
(1.0137 -0.0611759 0)
(1.01147 -0.0627456 0)
(1.01007 -0.0640825 0)
(1.01042 -0.0691246 0)
(1.00002 0.000602742 0)
(1.00002 0.000601474 0)
(1.00002 0.000595355 0)
(1.00001 0.000590258 1.00848e-21)
(1.00001 0.000587241 5.0313e-21)
(1.00001 0.00058613 -9.05458e-21)
(1.00001 0.000586765 5.02934e-21)
(1.00001 0.000589023 -4.00901e-21)
(1.00001 0.000592765 5.1125e-22)
(1 0.000598 4.00822e-21)
(1 0.000604564 0)
(1 0.000612449 -4.48526e-21)
(1 0.000621531 5.08443e-22)
(0.999999 0.000631694 3.98343e-21)
(0.999998 0.000642918 0)
(0.999996 0.000655035 0)
(0.999995 0.000668016 -3.95107e-21)
(0.999994 0.000681718 3.95356e-21)
(0.999993 0.000695987 0)
(0.999992 0.000710827 -1.96283e-21)
(0.999991 0.00072605 2.08627e-21)
(0.99999 0.000741548 1.83109e-21)
(0.999989 0.000757269 -2.92816e-21)
(0.999988 0.000773034 9.43982e-22)
(0.999987 0.000788749 3.02768e-23)
(0.999986 0.000804352 -6.05216e-23)
(0.999986 0.000819664 8.42531e-22)
(0.999985 0.00083466 -9.63038e-22)
(0.999985 0.000849137 0)
(0.999985 0.000862944 0)
(0.999985 0.000876188 -2.37945e-22)
(0.999985 0.00088875 -2.37058e-22)
(0.999985 0.000900522 -4.00772e-21)
(0.999985 0.000911489 3.29837e-21)
(0.999985 0.00092152 -4.21035e-21)
(0.999985 0.000930559 4.20518e-21)
(0.999986 0.000938578 -3.24624e-21)
(0.999986 0.000945447 3.24469e-21)
(0.999987 0.000951171 4.60724e-22)
(0.999988 0.00095565 4.58722e-22)
(0.999989 0.000958868 -4.56687e-22)
(0.99999 0.000960809 0)
(0.999991 0.000961383 0)
(0.999992 0.000960651 0)
(0.999994 0.000958518 0)
(0.999995 0.00095512 0)
(0.999997 0.000950471 1.77467e-21)
(0.999998 0.000943612 -1.77182e-21)
(1 0.000930369 0)
(1.00012 0.000861182 0)
(1.0001 0.000853977 2.03389e-21)
(1.00009 0.00084401 -2.02785e-21)
(1.00007 0.000838189 -1.01232e-21)
(1.00006 0.000837657 -1.01269e-21)
(1.00004 0.000841802 -3.02939e-21)
(1.00003 0.000850384 5.05703e-21)
(1.00001 0.000863346 0)
(0.999998 0.000880194 -5.03616e-22)
(0.999985 0.000901068 -1.00644e-21)
(0.999973 0.000925487 0)
(0.999961 0.000953371 5.01284e-22)
(0.999949 0.000984534 -4.49933e-21)
(0.999939 0.00101853 4.00244e-21)
(0.999928 0.00105537 0)
(0.999919 0.00109462 9.96372e-22)
(0.99991 0.00113611 0)
(0.999902 0.00117966 0)
(0.999895 0.00122478 0)
(0.999888 0.00127142 -1.97166e-21)
(0.999882 0.00131926 1.84932e-21)
(0.999877 0.00136794 -1.23032e-22)
(0.999872 0.00141733 0)
(0.999869 0.00146708 -4.57377e-22)
(0.999866 0.00151689 4.80348e-22)
(0.999864 0.0015666 9.11326e-23)
(0.999863 0.00161588 1.21062e-22)
(0.999863 0.00166446 0)
(0.999863 0.00171215 -1.92222e-21)
(0.999865 0.00175864 1.92179e-21)
(0.999867 0.00180373 -3.57927e-21)
(0.99987 0.00184718 7.85957e-21)
(0.999873 0.00188873 -3.56561e-21)
(0.999877 0.00192815 4.72668e-22)
(0.999882 0.00196521 4.70836e-22)
(0.999888 0.0019998 4.69458e-22)
(0.999895 0.00203172 -4.67006e-22)
(0.999902 0.00206069 4.18021e-21)
(0.99991 0.00208665 -3.24793e-21)
(0.999919 0.00210927 -1.38374e-21)
(0.999929 0.0021285 5.04506e-21)
(0.999939 0.00214415 -3.66334e-21)
(0.99995 0.00215593 -1.8207e-21)
(0.999961 0.00216377 3.61829e-21)
(0.999974 0.00216725 -7.21561e-21)
(0.999986 0.00216666 3.59633e-21)
(0.999999 0.00216182 1.78378e-21)
(1.00001 0.00215184 -3.39692e-24)
(1.00003 0.00213164 0)
(1.00025 0.000925678 3.05969e-21)
(1.00021 0.000913179 -1.02164e-21)
(1.00017 0.000903587 -4.07178e-21)
(1.00013 0.000901135 2.03085e-21)
(1.00008 0.000906989 -2.03075e-21)
(1.00004 0.000920305 0)
(1 0.000940826 -2.02243e-21)
(0.999962 0.00096863 -6.05806e-21)
(0.999925 0.00100267 6.06003e-21)
(0.99989 0.00104338 1.00651e-21)
(0.999857 0.00108984 0)
(0.999825 0.00114193 -6.02172e-21)
(0.999795 0.00119949 9.97802e-24)
(0.999767 0.00126157 4.00694e-21)
(0.999741 0.00132838 0)
(0.999717 0.00139913 -9.95836e-22)
(0.999695 0.00147348 -9.96062e-22)
(0.999675 0.00155137 0)
(0.999657 0.00163174 -9.91681e-22)
(0.999642 0.00171462 -1.97327e-21)
(0.999628 0.0017996 1.97387e-21)
(0.999617 0.00188592 -2.46652e-22)
(0.999608 0.00197345 -2.45464e-22)
(0.999601 0.00206171 0)
(0.999597 0.00215009 3.80363e-23)
(0.999594 0.00223836 -2.12817e-22)
(0.999594 0.00232607 0)
(0.999596 0.00241266 0)
(0.999601 0.00249788 -1.92285e-21)
(0.999607 0.00258129 1.92248e-21)
(0.999616 0.00266243 -3.81911e-21)
(0.999626 0.00274097 3.81784e-21)
(0.999639 0.00281651 0)
(0.999654 0.00288869 0)
(0.99967 0.0029571 0)
(0.999689 0.00302145 -9.37968e-22)
(0.99971 0.00308135 -1.87009e-21)
(0.999732 0.00313642 0)
(0.999757 0.00318648 -9.26389e-22)
(0.999783 0.00323098 -9.15942e-22)
(0.999811 0.00326982 2.76228e-21)
(0.999841 0.0033026 0)
(0.999873 0.00332891 3.63538e-21)
(0.999907 0.00334876 -5.44256e-21)
(0.999942 0.00336138 0)
(0.999979 0.003367 0)
(1.00002 0.00336508 0)
(1.00006 0.00335472 -1.77896e-21)
(1.0001 0.00333177 -1.76879e-21)
(1.0004 0.000835027 -2.04417e-21)
(1.00032 0.000822034 4.09135e-21)
(1.00023 0.000818578 4.08493e-21)
(1.00015 0.000825093 6.10984e-21)
(1.00007 0.000843039 -2.04095e-21)
(0.999986 0.000871402 -4.05846e-21)
(0.999908 0.000909919 8.11612e-21)
(0.999833 0.000958879 -3.44499e-24)
(0.999762 0.00101651 -2.02056e-21)
(0.999694 0.0010837 2.0232e-21)
(0.99963 0.00115894 0)
(0.99957 0.0012421 2.01048e-21)
(0.999513 0.00133313 -2.00034e-21)
(0.99946 0.00143039 8.02324e-21)
(0.999411 0.00153442 -8.00716e-21)
(0.999366 0.00164397 6.00248e-21)
(0.999326 0.00175852 -1.00234e-21)
(0.999289 0.00187824 9.96594e-22)
(0.999257 0.00200131 9.90968e-22)
(0.999229 0.00212791 -9.91999e-22)
(0.999205 0.00225757 0)
(0.999185 0.00238901 -1.47525e-21)
(0.99917 0.00252218 1.23183e-21)
(0.999159 0.00265642 9.80954e-22)
(0.999153 0.00279077 4.5761e-23)
(0.999151 0.00292496 9.1081e-23)
(0.999153 0.00305844 1.45522e-21)
(0.99916 0.00319028 -9.6897e-22)
(0.999171 0.00332017 1.92519e-21)
(0.999186 0.00344757 -1.92488e-21)
(0.999205 0.0035717 0)
(0.999228 0.00369219 4.76413e-21)
(0.999255 0.00380845 -3.80762e-21)
(0.999287 0.00391991 3.77942e-21)
(0.999322 0.00402609 -3.77802e-21)
(0.999361 0.00412651 0)
(0.999404 0.00422061 3.73059e-21)
(0.999451 0.00430791 -1.8676e-21)
(0.999502 0.0043881 0)
(0.999556 0.00446042 3.68702e-21)
(0.999614 0.00452476 -3.68196e-21)
(0.999675 0.0045805 1.8296e-21)
(0.99974 0.00462708 1.82098e-21)
(0.999809 0.00466453 5.43628e-21)
(0.999881 0.00469175 5.98674e-24)
(0.999956 0.00470906 3.5967e-21)
(1.00004 0.00471548 1.78325e-21)
(1.00012 0.0047101 1.77285e-21)
(1.00021 0.00469007 1.77028e-21)
(1.00052 0.00058604 0)
(1.00039 0.000579497 -4.09709e-21)
(1.00026 0.000589781 -4.08884e-21)
(1.00012 0.000613091 0)
(0.999984 0.000651276 -4.08026e-21)
(0.999851 0.000703052 8.70057e-24)
(0.999724 0.000768129 8.16176e-21)
(0.999601 0.00084709 -2.04375e-21)
(0.999485 0.000937278 -8.9709e-24)
(0.999374 0.00104017 -6.08245e-21)
(0.999269 0.00115357 0)
(0.99917 0.00127736 -6.06275e-21)
(0.999078 0.00141162 2.02534e-21)
(0.998992 0.0015539 0)
(0.998913 0.00170519 -2.01436e-21)
(0.998841 0.00186366 9.34697e-24)
(0.998775 0.00202861 -1.99958e-21)
(0.998717 0.00220052 6.98757e-21)
(0.998665 0.00237664 -1.08823e-23)
(0.998621 0.00255737 -1.00351e-21)
(0.998583 0.0027422 -9.9083e-22)
(0.998553 0.00292921 1.97294e-21)
(0.99853 0.00311847 -1.97324e-21)
(0.998514 0.00330916 -2.442e-22)
(0.998506 0.00349986 5.05669e-22)
(0.998504 0.00369032 -2.73241e-22)
(0.99851 0.00387985 9.72996e-22)
(0.998523 0.0040671 -9.71255e-22)
(0.998543 0.00425175 9.6824e-22)
(0.998571 0.00443311 1.92228e-21)
(0.998605 0.00461007 -5.75155e-21)
(0.998646 0.0047822 -9.40625e-22)
(0.998693 0.00494875 5.72079e-21)
(0.998748 0.00510887 1.89857e-21)
(0.998809 0.00526206 -3.76941e-21)
(0.998876 0.00540762 3.76713e-21)
(0.99895 0.00554482 7.57655e-24)
(0.99903 0.00567308 5.59329e-21)
(0.999117 0.00579195 -3.72766e-21)
(0.99921 0.00590049 -9.24433e-21)
(0.999308 0.00599855 3.67878e-21)
(0.999413 0.00608531 1.83138e-21)
(0.999523 0.0061601 7.27925e-21)
(0.999639 0.00622297 -3.63087e-21)
(0.999761 0.00627248 -7.49564e-24)
(0.999889 0.00630911 -8.0949e-24)
(1.00002 0.00633143 0)
(1.00017 0.00633862 -3.55612e-21)
(1.00032 0.00632993 -3.53304e-21)
(1.00059 0.000158433 0)
(1.00041 0.000164916 -6.19195e-21)
(1.00021 0.000197449 6.18392e-21)
(1.00001 0.000247122 0)
(0.999805 0.000315821 0)
(0.999607 0.000401725 -4.09577e-21)
(0.999416 0.000504428 -2.66503e-24)
(0.999233 0.000624862 -4.09684e-21)
(0.999058 0.000759298 -8.24861e-24)
(0.998892 0.000909967 0)
(0.998735 0.00107383 0)
(0.998588 0.00125079 2.02593e-21)
(0.99845 0.00144114 0)
(0.998322 0.00164143 0)
(0.998205 0.00185322 -2.01922e-21)
(0.998097 0.002074 4.04625e-21)
(0.998 0.00230286 2.01707e-21)
(0.997913 0.00254067 0)
(0.997837 0.00278358 1.98824e-21)
(0.997771 0.00303227 -4.99712e-21)
(0.997717 0.00328618 -1.99035e-21)
(0.997673 0.00354266 -1.98113e-21)
(0.99764 0.00380193 1.98133e-21)
(0.997619 0.00406299 1.34663e-24)
(0.997608 0.00432388 1.54036e-23)
(0.997608 0.00458437 2.44648e-22)
(0.997619 0.00484365 -4.8898e-22)
(0.997641 0.00509988 0)
(0.997674 0.0053527 -9.67212e-22)
(0.997717 0.00560131 0)
(0.997771 0.00584417 0)
(0.997836 0.00608084 -1.91995e-21)
(0.99791 0.00631036 -7.62524e-21)
(0.997995 0.00653159 2.12793e-23)
(0.99809 0.00674399 1.89595e-21)
(0.998195 0.00694667 0)
(0.99831 0.00713865 -1.87241e-21)
(0.998434 0.0073193 -3.73723e-21)
(0.998567 0.00748801 3.71096e-21)
(0.99871 0.00764363 7.39528e-21)
(0.998862 0.00778605 -7.35856e-21)
(0.999022 0.00791417 3.11053e-24)
(0.999192 0.00802725 -3.64273e-21)
(0.99937 0.00812536 4.34106e-25)
(0.999556 0.00820673 0)
(0.999751 0.00827201 -3.58832e-21)
(0.999957 0.00831927 -1.78051e-21)
(1.00017 0.00834797 1.77918e-21)
(1.00041 0.00836062 3.53505e-21)
(1.00057 -0.000488054 0)
(1.00032 -0.000447633 4.13893e-21)
(1.00005 -0.000398149 -1.24352e-20)
(0.99977 -0.000311412 0)
(0.999486 -0.000199347 0)
(0.999207 -6.59067e-05 -8.26274e-21)
(0.998938 8.827e-05 8.23557e-21)
(0.998679 0.000264578 -4.12883e-21)
(0.998432 0.000458026 -8.41946e-24)
(0.998197 0.000671748 4.10573e-21)
(0.997975 0.000901684 0)
(0.997767 0.0011478 0)
(0.997572 0.00141064 4.09574e-21)
(0.997392 0.00168554 0)
(0.997225 0.00197478 0)
(0.997074 0.00227507 -4.05573e-21)
(0.996937 0.0025852 1.48108e-23)
(0.996815 0.00290656 0)
(0.996708 0.00323397 2.00563e-21)
(0.996617 0.00356849 5.01862e-21)
(0.996541 0.00390947 -2.01089e-21)
(0.996481 0.00425342 0)
(0.996436 0.00460073 -9.92717e-22)
(0.996408 0.00495019 1.24038e-21)
(0.996395 0.00529926 -5.41058e-22)
(0.996397 0.00564766 -2.46909e-22)
(0.996416 0.00599448 4.86882e-22)
(0.99645 0.00633732 -9.78694e-22)
(0.996499 0.00667573 0)
(0.996564 0.00700881 -3.87874e-21)
(0.996644 0.00733453 5.78655e-21)
(0.996739 0.0076524 1.90223e-21)
(0.996849 0.00796126 -7.01891e-24)
(0.996974 0.00825958 1.90024e-21)
(0.997113 0.00854682 -1.90776e-21)
(0.997266 0.00882188 -3.76631e-21)
(0.997433 0.00908345 7.512e-21)
(0.997613 0.00933088 -3.74328e-21)
(0.997807 0.00956338 7.45085e-21)
(0.998013 0.00977955 7.17946e-24)
(0.998232 0.00997937 7.36413e-21)
(0.998464 0.0101614 -3.66018e-21)
(0.998708 0.0103248 0)
(0.998964 0.0104698 8.31451e-25)
(0.999231 0.0105942 7.20984e-21)
(0.999511 0.0106989 0)
(0.999805 0.0107813 0)
(1.00011 0.0108414 6.20186e-21)
(1.00045 0.0108865 8.83649e-22)
(1.00044 -0.00148166 1.04434e-21)
(1.0001 -0.00135631 7.34013e-21)
(0.999724 -0.00122503 8.31622e-21)
(0.999342 -0.00111001 -8.37154e-21)
(0.998965 -0.000947984 0)
(0.998592 -0.000752539 -1.09703e-23)
(0.998228 -0.000531289 -4.18662e-21)
(0.997877 -0.000282314 -4.17584e-21)
(0.997541 -1.22931e-05 1.24457e-20)
(0.997222 0.000282884 -4.13818e-21)
(0.996921 0.00059795 0)
(0.996637 0.000932893 8.25741e-21)
(0.996372 0.00128847 -8.21161e-21)
(0.996126 0.00165867 2.42404e-23)
(0.9959 0.00204657 8.18956e-21)
(0.995694 0.00244792 -2.05589e-21)
(0.995508 0.0028612 -2.00509e-21)
(0.995343 0.00328834 4.06984e-21)
(0.995198 0.00372271 0)
(0.995075 0.00416573 -2.01319e-21)
(0.994973 0.00461664 2.01543e-21)
(0.994893 0.00507102 2.00506e-21)
(0.994835 0.00552941 -2.00502e-21)
(0.994798 0.00599032 2.5041e-22)
(0.994783 0.0064506 3.09432e-23)
(0.99479 0.00690985 7.40668e-22)
(0.994818 0.007367 -2.58166e-24)
(0.994868 0.00781906 0)
(0.99494 0.00826543 0)
(0.995033 0.00870501 -1.58165e-24)
(0.995147 0.0091353 -1.92609e-21)
(0.995282 0.00955564 3.86805e-21)
(0.995438 0.00996467 -3.84265e-21)
(0.995613 0.0103604 3.81357e-21)
(0.995808 0.0107422 -7.62752e-21)
(0.996023 0.0111088 1.76511e-23)
(0.996256 0.0114585 3.77385e-21)
(0.996508 0.0117906 3.73725e-21)
(0.996778 0.0121041 -7.46913e-21)
(0.997066 0.0123973 -7.41724e-21)
(0.99737 0.0126703 -3.69509e-21)
(0.997691 0.0129212 -3.67308e-21)
(0.998028 0.0131493 0)
(0.998381 0.0133547 -3.62139e-21)
(0.99875 0.0135349 -1.27089e-24)
(0.999135 0.0136911 7.15936e-21)
(0.999538 0.0138198 -8.89043e-21)
(0.999962 0.013922 1.76173e-21)
(1.00042 0.0140117 0)
(1.00013 -0.00285448 0)
(0.99969 -0.00269255 -8.39269e-21)
(0.999195 -0.00248464 0)
(0.998688 -0.0022384 8.38023e-21)
(0.998183 -0.00197649 4.1992e-21)
(0.997688 -0.00172394 -8.39472e-21)
(0.997211 -0.0014284 1.25496e-20)
(0.996757 -0.00108842 4.16753e-21)
(0.996314 -0.000722284 -4.16368e-21)
(0.995891 -0.000324157 0)
(0.995491 9.87913e-05 4.16334e-21)
(0.995115 0.000546307 -8.30603e-21)
(0.994763 0.0010193 4.17316e-21)
(0.994437 0.00151016 -4.12392e-21)
(0.994136 0.00202282 2.77814e-23)
(0.993862 0.00255196 4.12807e-21)
(0.993616 0.00309561 -8.22992e-21)
(0.993397 0.00365627 0)
(0.993205 0.00422575 4.08307e-21)
(0.993043 0.00480581 -4.08308e-21)
(0.992909 0.00539549 -1.01115e-21)
(0.992804 0.00598939 0)
(0.992729 0.00658813 1.01395e-21)
(0.992683 0.00718985 2.51361e-22)
(0.992666 0.00779074 -5.32891e-22)
(0.992679 0.00839017 7.47877e-22)
(0.992722 0.00898681 4.93273e-22)
(0.992793 0.00957708 -9.90428e-22)
(0.992894 0.01016 0)
(0.993024 0.0107343 -1.95418e-21)
(0.993182 0.0112969 3.91004e-21)
(0.993369 0.0118469 0)
(0.993583 0.0123826 1.92402e-21)
(0.993824 0.0129014 0)
(0.994092 0.0134027 3.80936e-21)
(0.994385 0.0138849 -7.59643e-21)
(0.994704 0.0143458 3.76568e-21)
(0.995047 0.0147845 -2.00776e-23)
(0.995414 0.0151999 3.70621e-21)
(0.995804 0.01559 -3.72197e-21)
(0.996216 0.0159549 3.6853e-21)
(0.996649 0.0162924 7.33886e-21)
(0.997103 0.0166016 0)
(0.997577 0.0168828 0)
(0.998071 0.0171329 -7.20168e-21)
(0.998586 0.0173536 -1.43055e-20)
(0.999124 0.0175406 1.4214e-20)
(0.99969 0.0176957 -7.95224e-21)
(1.00029 0.0178425 7.88901e-21)
(0.999609 -0.0047303 0)
(0.99904 -0.004504 8.53396e-21)
(0.998411 -0.00421427 8.52381e-21)
(0.99776 -0.0038894 1.27755e-20)
(0.9971 -0.00353041 -1.27716e-20)
(0.996454 -0.00312991 -4.23867e-21)
(0.99583 -0.00267128 1.27688e-20)
(0.995228 -0.00222517 -4.22852e-21)
(0.994653 -0.00177574 4.23113e-21)
(0.99411 -0.00125173 0)
(0.993589 -0.000693206 8.47827e-21)
(0.993099 -0.000104452 0)
(0.992639 0.000516061 -4.17398e-21)
(0.992212 0.00115872 -4.21519e-21)
(0.991819 0.00182828 4.88244e-23)
(0.99146 0.00251821 0)
(0.991138 0.00322609 4.1666e-21)
(0.990851 0.00395487 8.31905e-21)
(0.990601 0.00469481 0)
(0.990389 0.00544796 2.05567e-21)
(0.990215 0.00621297 -2.05504e-21)
(0.990079 0.00698347 -2.04053e-21)
(0.989983 0.00775998 2.05141e-21)
(0.989926 0.00854016 -3.98382e-24)
(0.989908 0.00931951 -5.05993e-22)
(0.98993 0.0100969 -2.22552e-22)
(0.989991 0.0108707 -5.01467e-22)
(0.990091 0.0116366 1.00115e-21)
(0.990231 0.0123931 0)
(0.990409 0.0131385 1.96721e-21)
(0.990625 0.0138692 -3.92022e-21)
(0.990878 0.0145836 0)
(0.991169 0.0152798 0)
(0.991495 0.0159546 3.84671e-21)
(0.991857 0.0166067 -7.67226e-21)
(0.992252 0.0172348 3.82406e-21)
(0.992681 0.0178355 3.79969e-21)
(0.993141 0.0184081 0)
(0.993632 0.0189511 1.12285e-20)
(0.994152 0.019462 -7.43729e-21)
(0.994701 0.0199412 -3.69342e-21)
(0.995277 0.0203857 1.49433e-23)
(0.995878 0.0207948 -7.29761e-21)
(0.996504 0.0211689 -7.2399e-21)
(0.997156 0.0215043 -7.19331e-21)
(0.997832 0.0218033 6.37637e-24)
(0.998538 0.0220604 -1.17396e-23)
(0.999276 0.0222789 0)
(1.00006 0.0224944 -1.39897e-20)
(0.998833 -0.0072816 0)
(0.998103 -0.0069636 2.22544e-21)
(0.997305 -0.00656956 -1.06674e-20)
(0.996479 -0.00613975 -8.53391e-21)
(0.995645 -0.0056614 8.5287e-21)
(0.994821 -0.00513546 4.33679e-21)
(0.994014 -0.00456662 -4.23908e-21)
(0.993229 -0.00395365 0)
(0.992484 -0.00328573 0)
(0.991776 -0.00260107 8.60308e-21)
(0.991102 -0.00190532 -8.48468e-21)
(0.990469 -0.00114589 4.2573e-21)
(0.989873 -0.000342569 -4.25392e-21)
(0.989319 0.000488816 4.25039e-21)
(0.988808 0.00135407 4.2567e-21)
(0.988341 0.00224523 -4.22486e-21)
(0.987921 0.00315926 -4.1829e-21)
(0.987547 0.0040994 -4.16832e-21)
(0.987222 0.0050544 4.17455e-21)
(0.986946 0.00602644 -4.17363e-21)
(0.98672 0.00701351 0)
(0.986545 0.00800829 2.08178e-21)
(0.986422 0.00901096 -2.05067e-21)
(0.98635 0.0100185 1.53646e-21)
(0.986331 0.0110255 0)
(0.986365 0.0120302 1.01585e-21)
(0.98645 0.0130303 0)