/*--------------------------------*- C++ -*----------------------------------*\
| =========                 |                                                 |
| \\      /  F ield         | OpenFOAM: The Open Source CFD Toolbox           |
|  \\    /   O peration     | Version:  2312                                  |
|   \\  /    A nd           | Website:  www.openfoam.com                      |
|    \\/     M anipulation  |                                                 |
\*---------------------------------------------------------------------------*/
FoamFile
{
    version     2.0;
    format      ascii;
    arch        "LSB;label=32;scalar=64";
    class       surfaceScalarField;
    location    "85.604710588245908";
    object      phi;
}
// * * * * * * * * * * * * * * * * * * * * * * * * * * * * * * * * * * * * * //

dimensions      [0 3 -1 0 0 0 0];

oriented        oriented;

internalField   nonuniform List<scalar> 
41713
(
0.00736107
0.0568854
0.00362824
0.0679793
0.00211698
0.0657577
0.00148395
0.0648795
0.00109795
0.0646324
0.000843686
0.0645007
0.000668422
0.0644217
0.000541233
0.0643736
0.000445508
0.0643422
0.000371592
0.0643204
0.000313356
0.0643047
0.000266747
0.064293
0.000229
0.0642842
0.000198174
0.0642773
0.000172878
0.0642717
0.000152089
0.0642672
0.000135045
0.0642635
0.000121162
0.0642603
0.000109983
0.0642576
0.000101127
0.0642553
9.42326e-05
0.0642533
8.89373e-05
0.0642517
8.49604e-05
0.0642504
8.20835e-05
0.054814
7.96369e-05
0.0456784
7.73881e-05
0.0380656
7.53316e-05
0.0317215
7.34817e-05
0.0264347
0.0220291
7.18017e-05
0.00999292
0.0468924
0.00842485
0.0695473
0.00571314
0.0684694
0.00411948
0.0664731
0.00311851
0.0656334
0.00242668
0.0651925
0.00192825
0.0649201
0.0015578
0.0647441
0.001275
0.064625
0.00105407
0.0645413
0.00087807
0.0644807
0.000735624
0.0644355
0.000618887
0.0644009
0.000522325
0.0643738
0.000441953
0.0643521
0.000374856
0.0643343
0.000318868
0.0643195
0.000272354
0.0643068
0.000234059
0.0642959
0.000202994
0.0642864
0.000178356
0.064278
0.000159444
0.0642706
0.000145545
0.0642643
0.000136759
0.0548228
0.000131022
0.0456842
0.000126952
0.0380696
0.000123739
0.0317247
0.000120977
0.0264375
0.0220314
0.00011864
0.00859307
0.0382994
0.00970207
0.0684383
0.00746357
0.0707079
0.00569427
0.0682424
0.00450505
0.0668226
0.00361856
0.066079
0.00293469
0.065604
0.00240184
0.0652769
0.00198134
0.0650455
0.00164462
0.064878
0.00137126
0.064754
0.00114664
0.0646601
0.00096022
0.0645873
0.000804305
0.0645297
0.00067324
0.0644832
0.000562821
0.0644447
0.000469892
0.0644124
0.000392065
0.0643847
0.00032751
0.0643605
0.000274805
0.0643391
0.000232828
0.0643199
0.000200647
0.0643028
0.000177327
0.0642876
0.000163202
0.054837
0.00015464
0.0456927
0.000149089
0.0380752
0.000145035
0.0317288
0.000141718
0.0264408
0.0220341
0.000138983
0.00677117
0.0315282
0.0094657
0.0657438
0.00810925
0.0720644
0.00642874
0.0699229
0.00523632
0.0680151
0.00432891
0.0669864
0.00359523
0.0663377
0.00299593
0.0658762
0.00250385
0.0655375
0.00209695
0.0652849
0.00175799
0.065093
0.00147359
0.0649445
0.00123345
0.0648275
0.00102971
0.0647335
0.000856341
0.0646565
0.000708746
0.0645923
0.000583407
0.0645377
0.000477625
0.0644904
0.000389325
0.0644488
0.000316897
0.0644115
0.00025908
0.0643778
0.000214841
0.0643471
0.000183061
0.0643194
0.000164235
0.0548558
0.000153245
0.0457037
0.000146463
0.038082
0.000141777
0.0317334
0.000138167
0.0264444
0.0220369
0.000135363
0.00506082
0.0264674
0.00855759
0.062247
0.00816538
0.0724566
0.00672003
0.0713683
0.00556271
0.0691724
0.00468385
0.0678653
0.0039623
0.0670592
0.00335433
0.0664842
0.002839
0.0660529
0.00240039
0.0657235
0.00202555
0.0654678
0.001704
0.0652661
0.00142729
0.0651042
0.00118866
0.0649721
0.000982779
0.0648624
0.000805421
0.0647697
0.000653293
0.0646899
0.000523832
0.0646199
0.000415055
0.0645575
0.000325425
0.0645011
0.000253743
0.0644494
0.000199004
0.0644018
0.000160014
0.0643584
0.000137457
0.0548783
0.000124804
0.0457164
0.000117442
0.0380893
0.000112733
0.0317381
0.000109424
0.0264477
0.0220392
0.000107119
0.00361381
0.0228536
0.00729736
0.0585635
0.00776306
0.0719909
0.00670139
0.0724299
0.00563787
0.0702359
0.0048086
0.0686946
0.00412284
0.067745
0.00353246
0.0670746
0.00301964
0.0665657
0.00257283
0.0661703
0.00218254
0.0658581
0.00184095
0.0656077
0.00154163
0.0654035
0.00127934
0.0652344
0.00104983
0.0650919
0.000849694
0.0649698
0.000676233
0.0648633
0.000527335
0.0647688
0.000401378
0.0646835
0.000297124
0.0646054
0.000213629
0.0645329
0.000150088
0.0644653
0.000105306
0.0644032
8.02592e-05
0.0549034
6.69431e-05
0.0457297
5.98791e-05
0.0380964
5.59005e-05
0.0317421
5.35054e-05
0.0264501
0.0220405
5.2257e-05
0.00251841
0.0203352
0.00600478
0.0550771
0.00707629
0.0709194
0.00644264
0.0730636
0.00552745
0.0711511
0.00476748
0.0694545
0.00413218
0.0683803
0.0035747
0.0676321
0.00307921
0.0670612
0.0026381
0.0666114
0.0022451
0.0662511
0.00189482
0.0659579
0.00158274
0.0657156
0.00130513
0.065512
0.00105891
0.0653381
0.000841627
0.0651871
0.000651343
0.0650536
0.00048658
0.0649336
0.00034625
0.0648238
0.000229585
0.064722
0.000136068
0.0646265
6.53019e-05
0.0645361
1.64105e-05
0.0644521
-1.03729e-05
0.0549302
-2.35769e-05
0.0457429
-2.96109e-05
0.0381024
-3.21178e-05
0.0317446
-3.28617e-05
0.0264508
0.0220402
-3.25228e-05
0.00175455
0.0185806
0.0048755
0.0519562
0.00629979
0.0694951
0.00604694
0.0733164
0.00529814
0.0718999
0.00461266
0.07014
0.00403121
0.0689617
0.00351355
0.0681497
0.00304373
0.067531
0.00261667
0.0670385
0.00222887
0.0666389
0.00187719
0.0663096
0.00155889
0.0660339
0.00127163
0.0657993
0.00101354
0.0655962
0.000783105
0.0654175
0.000579221
0.0652575
0.000401126
0.0651117
0.000248373
0.0649766
0.000120777
0.0648496
1.83197e-05
0.0647289
-5.90782e-05
0.0646135
-0.000111937
0.0645049
-0.000139285
0.0549575
-0.000151365
0.045755
-0.00015539
0.0381065
-0.000155426
0.0317447
-0.00015347
0.0264489
0.022037
-0.000150355
0.00124443
0.0173362
0.00395763
0.049243
0.00554779
0.0679049
0.00559858
0.0732657
0.00501122
0.0724872
0.00439491
0.0707563
0.00386027
0.0694964
0.00338014
0.0686298
0.00293736
0.0679738
0.00252747
0.0674484
0.0021487
0.0670177
0.00179958
0.0666587
0.0014788
0.0663547
0.00118528
0.0660928
0.000918194
0.0658633
0.000676957
0.0656588
0.000461281
0.0654732
0.00027115
0.0653018
0.0001068
0.0651409
-3.13507e-05
0.0649878
-0.000142723
0.0648403
-0.000226639
0.0646974
-0.000283045
0.0645613
-0.000310998
0.0549855
-0.000321658
0.0457656
-0.000323087
0.0381079
-0.000319908
0.0317415
-0.000314464
0.0264434
0.0220304
-0.000307819
0.000910987
0.0164252
0.00323189
0.0469221
0.0048634
0.0662734
0.00514153
0.0729875
0.00470227
0.0729265
0.00414887
0.0713097
0.0036514
0.0699939
0.00320166
0.0690796
0.00278237
0.0683931
0.0023885
0.0678422
0.00201899
0.0673872
0.00167339
0.0670043
0.0013514
0.0666767
0.00105286
0.0663913
0.000777812
0.0661384
0.000526486
0.0659101
0.000299349
0.0657003
9.70765e-05
0.0655041
-7.94633e-05
0.0653175
-0.000229144
0.0651375
-0.000350555
0.0649617
-0.000442263
0.0647891
-0.000503609
0.0646227
-0.000532982
0.0550148
-0.000542644
0.0457753
-0.000541506
0.0381067
-0.000534786
0.0317348
-0.000525268
0.0264339
0.0220195
-0.000514382
0.000694472
0.0157307
0.00266467
0.0449519
0.00425873
0.0646794
0.00469672
0.0725495
0.00438782
0.0732354
0.00389233
0.0718052
0.0034241
0.0704621
0.00299712
0.0695066
0.00259599
0.0687942
0.00221476
0.0682235
0.00185246
0.0677495
0.00150917
0.0673476
0.00118521
0.0670006
0.000881068
0.0666955
0.000597421
0.066422
0.000335159
0.0661724
9.53568e-05
0.0659401
-0.000120735
0.0657202
-0.000311562
0.0655083
-0.00047518
0.0653011
-0.000609367
0.0650959
-0.000711864
0.0648916
-0.000781192
0.064692
-0.000814482
0.0550481
-0.000824894
0.0457857
-0.000822249
0.0381041
-0.000812466
0.031725
-0.0007989
0.0264204
0.0220041
-0.000783487
0.000551295
0.0151794
0.00222161
0.0432815
0.00373286
0.0631681
0.00427546
0.0720069
0.00407693
0.0734339
0.00363453
0.0722476
0.00318959
0.070907
0.00277862
0.0699175
0.00239018
0.0691827
0.00201752
0.0685961
0.00165933
0.0681077
0.00131589
0.0676911
0.00098786
0.0673287
0.000676144
0.0670072
0.000381872
0.0667163
0.000106376
0.0664479
-0.000148842
0.0661953
-0.000381948
0.0659533
-0.000590661
0.065717
-0.000772294
0.0654827
-0.000923842
0.0652474
-0.0010422
0.06501
-0.00112497
0.0647748
-0.00116696
0.0550901
-0.00118189
0.0458006
-0.00118043
0.0381026
-0.00116932
0.0317139
-0.00115267
0.0264037
0.0219846
-0.00113313
0.000452201
0.0147272
0.00187227
0.0418615
0.00327834
0.061762
0.00388325
0.071402
0.00377541
0.0735418
0.00338118
0.0726419
0.00295507
0.0713331
0.0025545
0.0703181
0.00217363
0.0695635
0.00180532
0.0689644
0.00144774
0.0684653
0.00110106
0.0680378
0.000766059
0.0676637
0.000443856
0.0673294
0.000135821
0.0670243
-0.000156494
0.0667402
-0.00043119
0.06647
-0.000685852
0.0662079
-0.000917592
0.0659488
-0.00112309
0.0656882
-0.00129863
0.065423
-0.00144037
0.0651517
-0.00154508
0.0648795
-0.00160377
0.0551488
-0.00163007
0.0458269
-0.00163524
0.0381078
-0.00162675
0.0317054
-0.00160964
0.0263866
0.0219625
-0.00158762
0.000379451
0.0143478
0.00159266
0.0406483
0.00288543
0.0604693
0.00352161
0.0707658
0.00348668
0.0735767
0.00313593
0.0729926
0.00272556
0.0717435
0.00233098
0.0707127
0.0019532
0.0699413
0.0015853
0.0693323
0.00122476
0.0688258
0.000871472
0.068391
0.000526123
0.068009
0.000189848
0.0676657
-0.000136033
0.0673502
-0.000449801
0.0670539
-0.000749175
0.0667694
-0.00103131
0.0664901
-0.00129283
0.0662103
-0.00152988
0.0659253
-0.00173816
0.0656313
-0.00191334
0.0653269
-0.00205184
0.065018
-0.00213929
0.0552363
-0.00218833
0.045876
-0.00220993
0.0381294
-0.00221182
0.0317073
-0.00220004
0.0263748
0.0219422
-0.00217968
0.000323015
0.0140248
0.00136694
0.0396043
0.00254765
0.0592886
0.00319205
0.0701214
0.00321328
0.0735554
0.00290084
0.0733051
0.00250402
0.0721403
0.00211233
0.0711044
0.00173406
0.0703196
0.0013631
0.0697033
0.000996335
0.0691926
0.000633161
0.0687542
0.000274019
0.0683681
-8.02478e-05
0.0680199
-0.00042841
0.0676984
-0.000768671
0.0673942
-0.00109852
0.0670993
-0.00141485
0.0668064
-0.00171389
0.0665093
-0.00199126
0.0662026
-0.00224224
0.0658822
-0.00246242
0.0655471
-0.0026491
0.0652047
-0.00278192
0.0553691
-0.00287207
0.0459661
-0.00292859
0.0381859
-0.00295723
0.0317359
-0.00296331
0.0263809
0.0219319
-0.00295308
0.000238329
0.0137864
0.00100795
0.0388347
0.00192019
0.0583763
0.00245879
0.0695828
0.00251052
0.0735037
0.00227348
0.0735421
0.00194849
0.0724653
0.00161926
0.0714336
0.00129827
0.0706406
0.000981285
0.0700203
0.000665171
0.0695087
0.00034894
0.0690704
3.25579e-05
0.0686845
-0.000283645
0.0683361
-0.000598853
0.0680136
-0.000911617
0.067707
-0.00121991
0.0674075
-0.00152104
0.0671075
-0.00181155
0.0667998
-0.00208729
0.0664784
-0.0023436
0.0661385
-0.00257631
0.0657798
-0.00278381
0.0654122
-0.00294426
0.0555295
-0.00306839
0.0460902
-0.00316327
0.0382808
-0.00323032
0.031803
-0.00326978
0.0264204
0.0219478
-0.00328566
0.000179334
0.0136071
0.000754508
0.0382595
0.00146001
0.0576708
0.00190194
0.0691409
0.00196457
0.0734411
0.0017837
0.073723
0.0015191
0.0727299
0.00124513
0.0717076
0.000975796
0.0709099
0.000708142
0.0702879
0.000439158
0.0697777
0.000167583
0.069342
-0.000107046
0.0689592
-0.000384795
0.0686139
-0.000665252
0.068294
-0.000947549
0.0679893
-0.00123028
0.0676903
-0.00151136
0.0673886
-0.00178796
0.0670764
-0.00205634
0.0667467
-0.00231196
0.0663942
-0.00255027
0.0660181
-0.00276879
0.0656307
-0.00294362
0.0557044
-0.00308788
0.0462345
-0.00321308
0.038406
-0.00332404
0.0319139
-0.00341856
0.0265149
0.0220122
-0.00348296
0.000139108
0.013468
0.000577811
0.0378208
0.00112974
0.0571189
0.00149134
0.0687793
0.00155508
0.0733773
0.00141558
0.0738625
0.00119995
0.0729455
0.000972501
0.071935
0.000747139
0.0711353
0.000521856
0.0705132
0.000293875
0.0700056
6.18075e-05
0.0695741
-0.00017508
0.069196
-0.000417145
0.0688559
-0.000664395
0.0685413
-0.000916507
0.0682414
-0.00117271
0.0679465
-0.00143165
0.0676475
-0.00169125
0.067336
-0.00194852
0.067004
-0.00219941
0.0666451
-0.00243909
0.0662578
-0.00266278
0.0658544
-0.00284043
0.055882
-0.00298319
0.0463773
-0.00310808
0.0385309
-0.00322959
0.0320354
-0.00336597
0.0266512
0.0221748
-0.00352856
0.000107217
0.0133608
0.000449899
0.0374782
0.000890237
0.0566785
0.0011881
0.0684814
0.00124682
0.0733186
0.00113572
0.0739736
0.000958388
0.0731229
0.000769637
0.0721238
0.000581706
0.0713232
0.000392787
0.0707021
0.000200323
0.0701981
2.93117e-06
0.0697715
-0.000200178
0.0693992
-0.000409585
0.0690653
-0.000625665
0.0687574
-0.000848548
0.0684643
-0.00107804
0.068176
-0.00131351
0.067883
-0.0015537
0.0675762
-0.00179663
0.0672469
-0.00203945
0.0668879
-0.00227847
0.0664968
-0.00250865
0.0660846
-0.00269316
0.0560665
-0.00283156
0.0465157
-0.00293054
0.0386299
-0.00300004
0.0321049
-0.00305749
0.0267087
-0.00324099
0.0223583
0.000116318
0.0219828
0.000158316
0.0219854
0.000191371
0.0219943
0.000222083
0.0219966
0.000246976
0.0220025
0.000267339
0.022007
0.000284671
0.02201
0.000295685
0.0220163
0.000304691
0.0220183
0.000308676
0.0220234
0.000309591
0.0220264
0.000307978
0.022029
0.000301917
0.0220334
0.000294252
0.022035
0.000283332
0.0220383
0.000270102
0.0220406
0.000255533
0.0220419
0.000237979
0.0220449
0.000219354
0.022046
0.000199484
0.0220472
0.000178041
0.0220488
0.000155976
0.0220494
0.000133233
0.0220501
0.000109972
0.0220506
8.65934e-05
0.0220507
6.32632e-05
0.0220507
4.03668e-05
0.0220503
1.7902e-05
0.0220498
-3.81035e-06
0.0220491
-2.41302e-05
0.0220477
-4.35537e-05
0.0220468
-6.12503e-05
0.0220451
-7.6916e-05
0.022043
-9.13158e-05
0.0220418
-0.000102411
0.0220385
-0.000111525
0.0220365
-0.000118351
0.0220342
-0.000120994
0.02203
-0.000121847
0.0220282
-0.000118017
0.0220235
-0.00011102
0.0220204
-0.000100887
0.0220172
-8.49433e-05
0.0220114
-6.68269e-05
0.0220092
-4.19798e-05
0.0220025
-1.36766e-05
0.0219991
1.94478e-05
0.0219942
5.89411e-05
0.0219879
0.0219853
0.000100948
0.000162676
0.0219388
0.000204421
0.0219436
0.000237451
0.0219613
0.00026838
0.0219657
0.00029374
0.0219771
0.000314816
0.0219859
0.000333098
0.0219917
0.000345292
0.0220041
0.000355692
0.0220079
0.000361275
0.0220178
0.00036398
0.0220237
0.000364332
0.0220286
0.000360405
0.0220373
0.000355021
0.0220404
0.000346523
0.0220468
0.000335839
0.0220513
0.000323922
0.0220538
0.000309124
0.0220597
0.000293336
0.0220618
0.000276372
0.0220642
0.000257898
0.0220673
0.000238841
0.0220685
0.000219137
0.0220698
0.000198935
0.0220708
0.000178617
0.0220711
0.000158338
0.022071
0.000138477
0.0220701
0.000119011
0.0220693
0.000100251
0.0220678
8.28306e-05
0.0220651
6.62294e-05
0.0220634
5.127e-05
0.02206
3.82421e-05
0.022056
2.63588e-05
0.0220536
1.7659e-05
0.0220472
1.07951e-05
0.0220433
6.06297e-06
0.0220389
5.35471e-06
0.0220307
6.25174e-06
0.0220273
1.16469e-05
0.0220181
2.0004e-05
0.022012
3.12754e-05
0.022006
4.81364e-05
0.0219946
6.69182e-05
0.0219905
9.21844e-05
0.0219772
0.000120629
0.0219706
0.000153603
0.0219613
0.000192629
0.0219488
0.0219441
0.00023383
0.000182804
0.021895
0.000224557
0.0219019
0.000257851
0.021928
0.000289307
0.0219343
0.000315455
0.021951
0.000337569
0.0219638
0.00035713
0.0219722
0.000370834
0.0219904
0.000382961
0.0219958
0.000390479
0.0220103
0.000395312
0.0220189
0.000397972
0.022026
0.000396524
0.0220388
0.000393772
0.0220432
0.00038805
0.0220525
0.000380271
0.022059
0.000371373
0.0220627
0.0003597
0.0220714
0.000347123
0.0220743
0.000333444
0.0220779
0.000318318
0.0220824
0.000302656
0.0220841
0.000286381
0.0220861
0.00026963
0.0220876
0.000252767
0.0220879
0.000235936
0.0220878
0.000219505
0.0220865
0.000203433
0.0220854
0.000188018
0.0220832
0.000173884
0.0220792
0.000160491
0.0220768
0.000148653
0.0220718
0.000138647
0.0220661
0.000129666
0.0220626
0.000123747
0.0220531
0.000119521
0.0220476
0.000117271
0.0220412
0.000118883
0.0220291
0.000121914
0.0220243
0.000129255
0.0220108
0.00013935
0.0220019
0.000152137
0.0219932
0.000170288
0.0219764
0.000190106
0.0219706
0.000216157
0.0219512
0.000245107
0.0219417
0.000278296
0.0219281
0.000317232
0.0219099
0.0219034
0.000357999
0.000179485
0.0218509
0.000221746
0.0218596
0.000255788
0.0218939
0.000288256
0.0219018
0.000315679
0.0219235
0.000339333
0.0219401
0.000360689
0.0219508
0.00037643
0.0219747
0.000390829
0.0219814
0.000400839
0.0220003
0.000408371
0.0220114
0.000413925
0.0220204
0.00041555
0.0220372
0.000416039
0.0220427
0.00041371
0.0220548
0.000409463
0.0220633
0.00040422
0.022068
0.000396312
0.0220793
0.000387595
0.0220831
0.000377856
0.0220876
0.000366737
0.0220935
0.000355131
0.0220957
0.000342948
0.0220983
0.000330312
0.0221002
0.00031757
0.0221007
0.000304851
0.0221005
0.000292512
0.0220989
0.000280493
0.0220974
0.000269081
0.0220947
0.000258886
0.0220894
0.000249349
0.0220863
0.000241275
0.0220799
0.000234927
0.0220724
0.000229478
0.0220681
0.000226963
0.0220556
0.00022599
0.0220485
0.00022683
0.0220403
0.000231364
0.0220246
0.000237124
0.0220185
0.000247002
0.0220009
0.00025942
0.0219895
0.000274305
0.0219783
0.000294326
0.0219564
0.000315758
0.0219492
0.000343172
0.0219238
0.000373205
0.0219116
0.000407187
0.0218941
0.000446617
0.0218705
0.0218625
0.000487539
0.000152275
0.0218057
0.000195762
0.0218161
0.000231243
0.0218585
0.000265431
0.0218676
0.000294849
0.0218941
0.000320774
0.0219142
0.000344674
0.0219269
0.000363215
0.0219562
0.000380668
0.021964
0.000393966
0.021987
0.000405011
0.0220003
0.00041429
0.0220111
0.000419833
0.0220316
0.000424423
0.0220381
0.00042636
0.0220529
0.00042653
0.0220631
0.000425841
0.0220687
0.000422605
0.0220825
0.000418666
0.022087
0.000413792
0.0220925
0.00040761
0.0220997
0.000400997
0.0221024
0.000393845
0.0221054
0.000386266
0.0221078
0.000378587
0.0221083
0.000370923
0.0221082
0.000363616
0.0221062
0.000356588
0.0221044
0.000350109
0.0221011
0.000344779
0.0220948
0.000340018
0.0220911
0.000336619
0.0220833
0.000334831
0.0220742
0.000333808
0.0220691
0.000335579
0.0220538
0.000338731
0.0220454
0.000343521
0.0220355
0.000351828
0.0220163
0.000361156
0.0220092
0.000374399
0.0219877
0.00038996
0.0219739
0.000407753
0.0219605
0.000430448
0.0219337
0.000454292
0.0219254
0.000483864
0.0218942
0.000515777
0.0218797
0.000551352
0.0218585
0.00059208
0.0218297
0.0218206
0.000633962
9.94995e-05
0.0217585
0.000145071
0.0217705
0.000182971
0.0218206
0.000219851
0.0218307
0.000252208
0.0218618
0.000281363
0.0218851
0.000308795
0.0218995
0.000331147
0.0219338
0.00035269
0.0219424
0.000370335
0.0219693
0.000385977
0.0219847
0.000400088
0.021997
0.000410677
0.022021
0.000420518
0.0220282
0.00042789
0.0220455
0.000433664
0.0220573
0.000438732
0.0220636
0.000441385
0.0220799
0.000443452
0.0220849
0.000444683
0.0220913
0.000444686
0.0220997
0.000444322
0.0221027
0.000443462
0.0221063
0.000442203
0.022109
0.00044085
0.0221097
0.000439502
0.0221095
0.000438485
0.0221072
0.000437698
0.0221052
0.000437396
0.0221014
0.000438165
0.022094
0.000439402
0.0220898
0.000441887
0.0220808
0.000445854
0.0220702
0.000450432
0.0220645
0.00045765
0.0220466
0.000466068
0.022037
0.000475931
0.0220257
0.000489114
0.0220031
0.000503092
0.0219952
0.000520764
0.02197
0.000540512
0.0219542
0.000562235
0.0219388
0.000588613
0.0219073
0.000615856
0.0218981
0.000648563
0.0218615
0.000683314
0.021845
0.000721426
0.0218204
0.000764384
0.0217868
0.0217768
0.000808139
1.71647e-05
0.0217088
6.64114e-05
0.0217213
0.00010825
0.0217787
0.000148924
0.02179
0.000185535
0.0218251
0.000219264
0.0218513
0.000251552
0.0218672
0.000279029
0.0219063
0.000306008
0.0219154
0.000329379
0.0219459
0.000351026
0.021963
0.000371406
0.0219766
0.000388506
0.0220039
0.000405092
0.0220116
0.000419416
0.0220312
0.000432337
0.0220444
0.000444725
0.0220512
0.000454851
0.0220697
0.000464526
0.0220753
0.000473478
0.0220823
0.000481295
0.0220919
0.000488816
0.0220952
0.000495894
0.0220992
0.000502601
0.0221023
0.000509222
0.0221031
0.000515834
0.0221029
0.000522745
0.0221003
0.000529828
0.0220981
0.000537319
0.0220939
0.000545788
0.0220855
0.000554601
0.022081
0.000564528
0.0220709
0.000575783
0.022059
0.000587467
0.0220528
0.000601609
0.0220325
0.000616737
0.0220218
0.00063308
0.0220093
0.000652514
0.0219836
0.000672479
0.0219752
0.000695882
0.0219466
0.000721081
0.021929
0.00074796
0.0219119
0.000779212
0.0218761
0.000811005
0.0218663
0.000847967
0.0218245
0.000886641
0.0218063
0.000928341
0.0217787
0.000974547
0.0217406
0.0217302
0.00102116
-9.63456e-05
0.0216548
-4.35326e-05
0.0216685
2.11181e-06
0.0217331
4.85051e-05
0.0217437
9.11127e-05
0.0217825
0.00013117
0.0218113
0.000169837
0.0218285
0.000204145
0.021872
0.000238299
0.0218813
0.000269133
0.0219151
0.000298546
0.0219336
0.000327
0.0219482
0.000352453
0.0219785
0.000377667
0.0219864
0.000400866
0.022008
0.00042289
0.0220224
0.000444591
0.0220295
0.000464208
0.0220501
0.000483539
0.0220559
0.000502283
0.0220636
0.000520004
0.0220742
0.000537515
0.0220777
0.000554642
0.0220821
0.000571437
0.0220855
0.000588152
0.0220864
0.000604839
0.0220862
0.000621784
0.0220834
0.000638828
0.0220811
0.000656181
0.0220766
0.000674395
0.0220673
0.0006928
0.0220626
0.000712148
0.0220516
0.000732632
0.0220385
0.000753316
0.0220321
0.000776231
0.0220095
0.000799866
0.0219982
0.000824431
0.0219848
0.000851808
0.0219563
0.000879384
0.0219477
0.00091009
0.0219159
0.000942246
0.0218968
0.000975725
0.0218784
0.00101324
0.0218385
0.0010509
0.0218287
0.00109338
0.0217821
0.00113718
0.0217625
0.00118361
0.0217323
0.00123415
0.02169
0.0216797
0.00128463
-0.00024824
0.0215952
-0.000188917
0.0216092
-0.000136294
0.0216804
-8.40764e-05
0.0216914
-3.5249e-05
0.0217337
1.168e-05
0.0217644
5.88738e-05
0.0217813
0.000102053
0.0218288
0.000145408
0.0218379
0.000185746
0.0218748
0.000225087
0.0218943
0.000263836
0.0219094
0.000299911
0.0219424
0.000336085
0.0219503
0.000370551
0.0219735
0.000404128
0.0219888
0.000437644
0.021996
0.000469304
0.0220185
0.000500883
0.0220243
0.000532049
0.0220324
0.000562336
0.0220439
0.000592525
0.0220475
0.000622408
0.0220522
0.000652005
0.0220559
0.000681534
0.0220568
0.000711008
0.0220568
0.00074069
0.0220537
0.000770372
0.0220514
0.000800234
0.0220467
0.000830806
0.0220367
0.000861365
0.0220321
0.000892645
0.0220203
0.000924809
0.0220063
0.00095687
0.0220001
0.000990868
0.0219755
0.00102524
0.0219638
0.00106016
0.0219498
0.00109754
0.0219189
0.00113468
0.0219105
0.00117455
0.021876
0.00121543
0.0218559
0.00125717
0.0218367
0.00130252
0.0217932
0.00134751
0.0217837
0.00139689
0.0217327
0.00144708
0.0217123
0.00149942
0.0216799
0.00155539
0.0216341
0.0216244
0.00161074
-0.000447859
0.0215287
-0.000381151
0.0215424
-0.000320629
0.0216199
-0.000259274
0.0216301
-0.000200702
0.0216751
-0.00014368
0.0217073
-8.70871e-05
0.0217248
-3.39436e-05
0.0217757
2.03732e-05
0.0217836
7.27048e-05
0.0218224
0.00012458
0.0218424
0.000176181
0.0218578
0.000225623
0.021893
0.000275632
0.0219003
0.00032433
0.0219248
0.000372512
0.0219406
0.000420986
0.0219475
0.000467907
0.0219715
0.000515028
0.0219772
0.000561973
0.0219854
0.000608234
0.0219976
0.000654551
0.0220012
0.000700672
0.0220061
0.000746576
0.02201
0.000792425
0.022011
0.00083819
0.022011
0.000884095
0.0220078
0.00092987
0.0220056
0.000975651
0.0220009
0.00102194
0.0219904
0.00106793
0.0219861
0.00111435
0.0219739
0.0011613
0.0219594
0.00120774
0.0219536
0.00125572
0.0219276
0.00130359
0.021916
0.00135151
0.0219019
0.00140138
0.021869
0.00145044
0.0218615
0.00150169
0.0218248
0.00155335
0.0218043
0.00160526
0.0217848
0.00166019
0.0217383
0.00171412
0.0217297
0.00177184
0.021675
0.00182974
0.0216544
0.00188914
0.0216205
0.00195156
0.0215716
0.0215633
0.00201265
-0.00070862
0.0214538
-0.000632748
0.0214666
-0.000562417
0.0215496
-0.000490614
0.0215583
-0.000420896
0.0216054
-0.000351878
0.0216383
-0.000282024
0.0216549
-0.000214959
0.0217086
-0.00014644
0.0217151
-7.98222e-05
0.0217558
-1.30162e-05
0.0217756
5.4776e-05
0.02179
0.000120952
0.0218268
0.000188264
0.0218329
0.000254841
0.0218583
0.000321457
0.021874
0.000388872
0.0218801
0.000455162
0.0219053
0.000522048
0.0219103
0.000589092
0.0219184
0.000655734
0.021931
0.000722653
0.0219343
0.000789535
0.0219392
0.000856304
0.0219433
0.000923048
0.0219442
0.000989672
0.0219444
0.00105635
0.0219411
0.00112272
0.0219392
0.00118886
0.0219348
0.00125522
0.0219241
0.0013209
0.0219204
0.00138658
0.0219082
0.00145232
0.0218936
0.00151696
0.021889
0.00158257
0.021862
0.00164741
0.0218511
0.00171158
0.0218377
0.00177701
0.0218036
0.00184082
0.0217977
0.00190606
0.0217595
0.00197087
0.0217395
0.00203508
0.0217205
0.00210153
0.0216718
0.00216606
0.0216652
0.00223361
0.0216074
0.00230045
0.0215876
0.00236795
0.021553
0.00243766
0.0215019
0.0214958
0.00250512
-0.00104883
0.0213695
-0.000962411
0.0213802
-0.000880592
0.0214678
-0.0007962
0.0214739
-0.000712915
0.0215221
-0.00062938
0.0215548
-0.000544088
0.0215696
-0.000460619
0.0216252
-0.000374476
0.021629
-0.000289067
0.0216704
-0.000202545
0.0216891
-0.000114769
0.0217023
-2.77901e-05
0.0217398
6.1178e-05
0.021744
0.000150127
0.0217693
0.000240177
0.021784
0.000331669
0.0217886
0.000422646
0.0218143
0.000514786
0.0218182
0.000607567
0.0218256
0.000700354
0.0218382
0.000793745
0.0218409
0.000887342
0.0218456
0.00098099
0.0218496
0.00107467
0.0218505
0.0011682
0.0218508
0.00126167
0.0218476
0.0013546
0.0218463
0.00144697
0.0218424
0.00153916
0.0218319
0.00163013
0.0218294
0.00172049
0.0218178
0.00181022
0.0218039
0.00189802
0.0218012
0.00198597
0.021774
0.00207218
0.0217649
0.00215671
0.0217532
0.00224148
0.0217188
0.00232346
0.0217157
0.00240578
0.0216772
0.00248649
0.0216588
0.00256538
0.0216417
0.00264537
0.0215918
0.00272219
0.0215884
0.00280092
0.0215287
0.00287772
0.0215108
0.00295405
0.0214767
0.00303148
0.0214245
0.0214219
0.00310545
-0.00149328
0.0212752
-0.00139526
0.0212821
-0.00130053
0.021373
-0.00120173
0.0213751
-0.00110268
0.0214231
-0.00100196
0.0214541
-0.000898012
0.0214657
-0.00079457
0.0215217
-0.000687057
0.0215214
-0.00057899
0.0215623
-0.000468415
0.0215785
-0.000354995
0.0215888
-0.000241128
0.0216259
-0.000124008
0.0216269
-5.78793e-06
0.0216511
0.000113498
0.0216647
0.000235446
0.0216667
0.000357897
0.0216918
0.00048238
0.0216937
0.000608254
0.0216997
0.000734761
0.0217117
0.000862384
0.0217133
0.000990601
0.0217174
0.00111914
0.0217211
0.00124785
0.0217218
0.00137639
0.0217223
0.00150475
0.0217193
0.00163225
0.0217188
0.00175874
0.0217159
0.00188449
0.0217061
0.00200825
0.0217057
0.00213052
0.0216956
0.00225116
0.0216833
0.00236866
0.0216837
0.0024851
0.0216576
0.00259838
0.0216516
0.00270847
0.0216431
0.0028173
0.02161
0.00292163
0.0216113
0.00302469
0.0215742
0.00312441
0.021559
0.00322054
0.0215455
0.00331613
0.0214962
0.00340673
0.0214978
0.00349768
0.0214377
0.00358502
0.0214234
0.00367028
0.0213914
0.00375517
0.0213396
0.0213421
0.00383497
-0.00207626
0.0211717
-0.00196694
0.0211728
-0.00185901
0.0212651
-0.00174475
0.0212608
-0.00162809
0.0213064
-0.00150755
0.0213335
-0.00138146
0.0213396
-0.00125376
0.021394
-0.00111974
0.0213874
-0.000983173
0.0214258
-0.000842172
0.0214375
-0.000696572
0.0214432
-0.000548943
0.0214783
-0.000396532
0.0214744
-0.000241627
0.0214962
-8.32942e-05
0.0215064
7.83232e-05
0.0215051
0.000241303
0.0215288
0.000407718
0.0215273
0.000576526
0.0215309
0.000746886
0.0215413
0.000919141
0.021541
0.00109262
0.0215439
0.0012669
0.0215468
0.00144161
0.0215471
0.00161623
0.0215477
0.00179057
0.0215449
0.00196367
0.0215457
0.00213516
0.0215445
0.00230513
0.0215362
0.002472
0.0215388
0.00263612
0.0215314
0.00279712
0.0215223
0.0029532
0.0215276
0.00310639
0.0215044
0.00325431
0.0215037
0.00339677
0.0215007
0.0035357
0.0214711
0.00366758
0.0214795
0.00379573
0.021446
0.00391793
0.0214368
0.0040339
0.0214296
0.00414686
0.0213833
0.00425217
0.0213925
0.0043555
0.0213344
0.00445279
0.0213261
0.00454577
0.0212985
0.00463633
0.0212491
0.0212587
0.00471965
-0.00284406
0.0210627
-0.00272558
0.0210543
-0.0026058
0.0211453
-0.00247638
0.0211314
-0.00234112
0.0211712
-0.00219814
0.0211905
-0.00204569
0.0211871
-0.00188801
0.0212363
-0.00172047
0.0212199
-0.00154731
0.0212526
-0.00136692
0.0212571
-0.00117941
0.0212557
-0.000987685
0.0212866
-0.000789106
0.0212759
-0.0005862
0.0212933
-0.000378423
0.0212986
-0.000165107
0.0212917
5.10128e-05
0.0213127
0.000271086
0.0213072
0.000495594
0.0213064
0.000723098
0.0213138
0.000953821
0.0213103
0.00118691
0.0213108
0.00142175
0.021312
0.00165765
0.0213112
0.0018938
0.0213115
0.00212972
0.021309
0.00236401
0.0213114
0.00259594
0.0213125
0.00282526
0.0213069
0.00304989
0.0213142
0.00326987
0.0213114
0.00348449
0.0213077
0.00369148
0.0213206
0.00389279
0.0213031
0.00408558
0.0213109
0.00426944
0.0213168
0.0044463
0.0212942
0.0046122
0.0213136
0.00477062
0.0212876
0.00491911
0.0212884
0.00505732
0.0212913
0.00518875
0.0212518
0.0053085
0.0212727
0.00542277
0.0212201
0.00552746
0.0212214
0.00562465
0.0212013
0.00571662
0.0211571
0.0211769
0.00579842
-0.00320138
0.0209784
-0.00310621
0.0209592
-0.00300518
0.0210443
-0.00288859
0.0210148
-0.00275933
0.0210419
-0.00261627
0.0210475
-0.00245901
0.0210299
-0.00229251
0.0210699
-0.00211388
0.0210412
-0.00192777
0.0210665
-0.00173348
0.0210628
-0.00153154
0.0210538
-0.00132476
0.0210798
-0.00111091
0.021062
-0.000892192
0.0210746
-0.000668046
0.0210744
-0.000437936
0.0210616
-0.00020355
0.0210783
3.6525e-05
0.0210672
0.000280508
0.0210624
0.000529265
0.0210651
0.000782649
0.0210569
0.00103979
0.0210537
0.00129997
0.0210518
0.00156227
0.0210489
0.00182561
0.0210482
0.00208919
0.0210454
0.00235126
0.0210494
0.00261066
0.0210531
0.00286674
0.0210508
0.00311705
0.0210638
0.00336121
0.0210673
0.00359814
0.0210707
0.00382536
0.0210934
0.00404439
0.021084
0.00425235
0.021103
0.00444865
0.0211205
0.00463494
0.0211079
0.00480747
0.021141
0.00496935
0.0211257
0.00511827
0.0211394
0.00525387
0.0211557
0.00537923
0.0211265
0.00548987
0.0211621
0.0055914
0.0211186
0.00568026
0.0211326
0.00575865
0.0211229
0.00582929
0.0210864
0.0211177
0.00588849
-0.00342091
0.0209164
-0.00335832
0.0208966
-0.00328636
0.0209723
-0.00318792
0.0209164
-0.00306502
0.020919
-0.0029195
0.020902
-0.00275465
0.020865
-0.0025779
0.0208931
-0.00238888
0.0208522