/*--------------------------------*- C++ -*----------------------------------*\
| =========                 |                                                 |
| \\      /  F ield         | OpenFOAM: The Open Source CFD Toolbox           |
|  \\    /   O peration     | Version:  2312                                  |
|   \\  /    A nd           | Website:  www.openfoam.com                      |
|    \\/     M anipulation  |                                                 |
\*---------------------------------------------------------------------------*/
FoamFile
{
    version     2.0;
    format      ascii;
    arch        "LSB;label=32;scalar=64";
    class       volScalarField;
    location    "5.055944710928427";
    object      p;
}
// * * * * * * * * * * * * * * * * * * * * * * * * * * * * * * * * * * * * * //

dimensions      [0 2 -2 0 0 0 0];

internalField   nonuniform List<scalar> 
21039
(
0.621654
0.486997
0.445664
0.417355
0.396053
0.380023
0.367615
0.357725
0.349671
0.343003
0.337403
0.332642
0.32855
0.324997
0.321881
0.319123
0.316657
0.31443
0.312399
0.310525
0.308779
0.307134
0.305566
0.304136
0.302897
0.301799
0.300795
0.299842
0.298924
0.473754
0.436392
0.422885
0.404381
0.387709
0.374496
0.363776
0.354937
0.347585
0.341409
0.336165
0.331669
0.327779
0.324384
0.321393
0.318736
0.316353
0.314195
0.312221
0.310395
0.308687
0.307072
0.305527
0.30411
0.30287
0.301767
0.300757
0.299801
0.298877
0.384599
0.382623
0.384895
0.378075
0.369765
0.362041
0.354817
0.348299
0.342554
0.337522
0.333115
0.329247
0.325839
0.322821
0.320132
0.31772
0.31554
0.313552
0.311722
0.310019
0.308417
0.306891
0.305421
0.304061
0.302858
0.301778
0.300782
0.299844
0.29893
0.346745
0.348979
0.353574
0.352566
0.35009
0.346936
0.343168
0.339266
0.335489
0.331936
0.328656
0.325659
0.322935
0.320464
0.318219
0.316173
0.314299
0.312571
0.310964
0.309456
0.308025
0.30665
0.305313
0.304065
0.302946
0.30193
0.300984
0.300076
0.299191
0.32167
0.325701
0.331812
0.333714
0.33408
0.33344
0.331962
0.330062
0.327955
0.325768
0.323599
0.321507
0.319524
0.317663
0.315928
0.314312
0.312806
0.311396
0.310069
0.308808
0.307599
0.306425
0.305272
0.304175
0.303178
0.302257
0.301385
0.30053
0.299681
0.302014
0.307311
0.314944
0.319082
0.321294
0.322227
0.322243
0.321723
0.320848
0.319743
0.318514
0.317232
0.315945
0.314683
0.313465
0.312299
0.311188
0.310128
0.309114
0.308137
0.307188
0.306252
0.305321
0.304416
0.30357
0.302768
0.301986
0.301199
0.300395
0.289352
0.29437
0.301764
0.307043
0.310518
0.312625
0.313761
0.314272
0.314336
0.314087
0.313632
0.313045
0.312379
0.311671
0.310949
0.310228
0.309518
0.308824
0.308145
0.307477
0.306814
0.306149
0.305475
0.304797
0.304131
0.30347
0.302798
0.302093
0.301344
0.282252
0.286296
0.292335
0.297674
0.301683
0.304471
0.306359
0.307622
0.30841
0.308848
0.309033
0.309039
0.308919
0.308715
0.308457
0.308164
0.307852
0.307527
0.307193
0.306852
0.306499
0.306132
0.305746
0.305326
0.30487
0.304376
0.303835
0.303226
0.302544
0.278011
0.281112
0.285766
0.290701
0.294747
0.297786
0.300074
0.301813
0.303114
0.304074
0.304773
0.305275
0.30563
0.305877
0.306045
0.306158
0.306229
0.30627
0.306286
0.306281
0.306256
0.306208
0.306138
0.306007
0.30579
0.305488
0.305099
0.304604
0.303999
0.275001
0.277309
0.280903
0.285351
0.289248
0.29233
0.294802
0.296816
0.298455
0.299792
0.300888
0.301794
0.302551
0.303194
0.303749
0.304238
0.304675
0.305073
0.305437
0.305772
0.306083
0.30637
0.306637
0.306821
0.30687
0.306785
0.306569
0.306205
0.305689
0.272554
0.274216
0.277034
0.281007
0.284702
0.287756
0.290311
0.292488
0.294352
0.29596
0.29736
0.298591
0.299686
0.300674
0.301577
0.302413
0.303197
0.303937
0.304642
0.305316
0.305964
0.306592
0.307207
0.307726
0.308061
0.308216
0.308193
0.307976
0.307559
0.270393
0.271565
0.273813
0.27734
0.280816
0.283806
0.286391
0.288663
0.290681
0.292491
0.294128
0.295624
0.297006
0.298296
0.299512
0.30067
0.30178
0.302849
0.303883
0.304887
0.305865
0.306826
0.307786
0.308641
0.309273
0.309681
0.309866
0.309807
0.309495
0.268399
0.269211
0.27104
0.274161
0.277411
0.280311
0.282884
0.285205
0.287326
0.289285
0.29111
0.292826
0.294452
0.296009
0.297512
0.298972
0.300393
0.301779
0.30313
0.304449
0.305737
0.307006
0.308281
0.309443
0.310354
0.311008
0.311402
0.311501
0.311294
0.266536
0.26708
0.268588
0.271332
0.274344
0.277129
0.279658
0.28199
0.284175
0.286243
0.288217
0.290117
0.291953
0.293757
0.295529
0.297277
0.299001
0.300697
0.302358
0.303977
0.305548
0.307075
0.308588
0.309965
0.31107
0.311907
0.312465
0.312692
0.312567
0.264784
0.265137
0.266372
0.268737
0.271479
0.274115
0.276572
0.278889
0.281108
0.283252
0.285344
0.287399
0.289436
0.291466
0.293496
0.295526
0.297553
0.299565
0.301543
0.303462
0.305291
0.307013
0.308637
0.310035
0.311118
0.311943
0.312518
0.31277
0.312663
0.263257
0.26347
0.264476
0.266515
0.268999
0.271477
0.273848
0.276134
0.278366
0.280565
0.282752
0.284943
0.287154
0.289392
0.291665
0.293972
0.296305
0.298645
0.300957
0.303192
0.305276
0.307128
0.308685
0.309737
0.310286
0.310533
0.310613
0.310508
0.310192
0.262057
0.262186
0.263029
0.264815
0.267086
0.269427
0.271727
0.27399
0.276236
0.278488
0.280764
0.283081
0.28545
0.287884
0.29039
0.292969
0.295614
0.2983
0.300983
0.303587
0.305988
0.308014
0.309457
0.309889
0.309278
0.307983
0.306418
0.304915
0.303814
0.261134
0.261212
0.261939
0.263523
0.265621
0.267865
0.27013
0.272396
0.274677
0.276993
0.279363
0.281805
0.284336
0.286968
0.289712
0.292575
0.295551
0.29862
0.301734
0.304801
0.307662
0.310045
0.311572
0.311476
0.309332
0.305334
0.300026
0.294255
0.289553
0.260442
0.26061
0.261295
0.262674
0.264553
0.266688
0.268943
0.271246
0.273587
0.275985
0.278465
0.281048
0.283754
0.2866
0.289601
0.292769
0.296109
0.299606
0.303225
0.306864
0.310381
0.313422
0.315484
0.315588
0.312501
0.305493
0.294225
0.278182
0.258349
0.298026
0.297124
0.296231
0.295348
0.294471
0.2936
0.292735
0.291875
0.291019
0.290167
0.289317
0.288469
0.287622
0.286776
0.28593
0.285084
0.284236
0.283388
0.282537
0.281685
0.280831
0.279974
0.279116
0.278255
0.277392
0.276527
0.27566
0.274792
0.273923
0.273052
0.272181
0.271311
0.27044
0.269572
0.268705
0.267842
0.266982
0.266127
0.265277
0.264433
0.263596
0.262768
0.261947
0.261137
0.260337
0.259548
0.258771
0.258006
0.257254
0.297977
0.297082
0.296197
0.29532
0.294451
0.293588
0.29273
0.291878
0.291029
0.290184
0.289341
0.2885
0.28766
0.286821
0.28598
0.285139
0.284297
0.283452
0.282605
0.281755
0.280903
0.280048
0.279189
0.278328
0.277464
0.276598
0.275729
0.274857
0.273984
0.273108
0.272232
0.271356
0.270479
0.269603
0.268729
0.267858
0.26699
0.266125
0.265266
0.264412
0.263566
0.262726
0.261895
0.261074
0.260263
0.259464
0.258676
0.257902
0.25714
0.298047
0.297171
0.296305
0.295446
0.294594
0.293747
0.292906
0.292069
0.291235
0.290404
0.289573
0.288743
0.287912
0.28708
0.286246
0.285409
0.284569
0.283726
0.282878
0.282027
0.281171
0.28031
0.279445
0.278576
0.277702
0.276824
0.275941
0.275056
0.274167
0.273275
0.272381
0.271486
0.27059
0.269694
0.268799
0.267905
0.267014
0.266127
0.265244
0.264366
0.263495
0.26263
0.261774
0.260927
0.26009
0.259264
0.25845
0.257649
0.256861
0.298338
0.297492
0.296652
0.295816
0.294977
0.294157
0.29334
0.292523
0.291707
0.290889
0.290071
0.28925
0.288427
0.2876
0.286769
0.285933
0.285092
0.284244
0.28339
0.282528
0.281661
0.280787
0.279906
0.279018
0.278124
0.277223
0.276317
0.275405
0.274489
0.273569
0.272645
0.271718
0.27079
0.26986
0.268931
0.268002
0.267074
0.26615
0.265229
0.264312
0.263401
0.262497
0.2616
0.260712
0.259834
0.258966
0.258109
0.257264
0.256433
0.298861
0.29805
0.297242
0.296439
0.29564
0.294843
0.294047
0.293248
0.292447
0.291644
0.290836
0.290023
0.289204
0.28838
0.287547
0.286706
0.285857
0.284998
0.28413
0.283252
0.282365
0.281468
0.280562
0.279646
0.278722
0.277789
0.276848
0.2759
0.274946
0.273985
0.27302
0.27205
0.271076
0.270101
0.269124
0.268146
0.26717
0.266194
0.265222
0.264253
0.263289
0.262331
0.26138
0.260436
0.259502
0.258577
0.257663
0.25676
0.255869
0.299622
0.298857
0.29809
0.297324
0.296557
0.295787
0.295015
0.294238
0.293455
0.292665
0.291867
0.29106
0.290243
0.289416
0.288577
0.287726
0.286863
0.285987
0.285098
0.284196
0.283281
0.282353
0.281412
0.28046
0.279495
0.27852
0.277534
0.276539
0.275534
0.274522
0.273503
0.272477
0.271447
0.270413
0.269376
0.268337
0.267298
0.266259
0.265222
0.264188
0.263158
0.262132
0.261113
0.260101
0.259097
0.258102
0.257117
0.256142
0.25518
0.300625
0.299915
0.299196
0.298472
0.297742
0.297005
0.29626
0.295505
0.29474
0.293963
0.293173
0.292369
0.291551
0.290717
0.289867
0.289
0.288117
0.287217
0.286299
0.285365
0.284413
0.283445
0.282461
0.281461
0.280447
0.279418
0.278376
0.277322
0.276256
0.27518
0.274095
0.273002
0.271902
0.270797
0.269687
0.268574
0.26746
0.266344
0.26523
0.264117
0.263007
0.261902
0.260802
0.259708
0.258621
0.257543
0.256474
0.255416
0.254371
0.301889
0.301241
0.300575
0.299897
0.299209
0.298507
0.297791
0.297059
0.296311
0.295545
0.294761
0.293957
0.293132
0.292287
0.291421
0.290532
0.289623
0.28869
0.287736
0.286761
0.285764
0.284747
0.283709
0.282653
0.281578
0.280485
0.279376
0.278253
0.277114
0.275963
0.274801
0.273628
0.272446
0.271257
0.270061
0.268862
0.267659
0.266454
0.265248
0.264043
0.262841
0.261642
0.260448
0.259259
0.258077
0.256903
0.255737
0.254582
0.253442
0.303416
0.302835
0.302227
0.301601
0.300955
0.30029
0.299604
0.298894
0.298162
0.297405
0.296622
0.295815
0.29498
0.294119
0.29323
0.292314
0.291371
0.2904
0.289403
0.28838
0.28733
0.286256
0.285157
0.284035
0.282891
0.281725
0.28054
0.279336
0.278115
0.276877
0.275626
0.274362
0.273086
0.271801
0.270507
0.269208
0.267902
0.266594
0.265284
0.263973
0.262664
0.261357
0.260054
0.258757
0.257465
0.256182
0.254905
0.253641
0.252392
0.305185
0.304677
0.304131
0.303557
0.302956
0.302326
0.301669
0.30098
0.300261
0.29951
0.298727
0.297913
0.297064
0.296183
0.295269
0.294321
0.293342
0.292328
0.291285
0.290209
0.289102
0.287966
0.286801
0.285608
0.284389
0.283143
0.281874
0.280583
0.27927
0.277937
0.276587
0.27522
0.273839
0.272445
0.27104
0.269627
0.268205
0.266779
0.265349
0.263916
0.262484
0.261053
0.259626
0.258203
0.256785
0.255376
0.253973
0.252584
0.251213
0.307143
0.306707
0.306222
0.305701
0.305144
0.30455
0.303919
0.303249
0.302543
0.301797
0.301013
0.30019
0.299328
0.298429
0.29749
0.296513
0.295499
0.294446
0.293357
0.292232
0.29107
0.289874
0.288644
0.28738
0.286086
0.284759
0.283403
0.282021
0.28061
0.279176
0.277719
0.276239
0.274741
0.273226
0.271695
0.270152
0.268597
0.267035
0.265466
0.263892
0.262317
0.260741
0.259168
0.257599
0.256035
0.254479
0.25293
0.251395
0.249884
0.309173
0.308805
0.308378
0.307906
0.307389
0.306829
0.306224
0.305574
0.304882
0.304145
0.303366
0.302544
0.301678
0.300771
0.29982
0.298828
0.297793
0.296715
0.295597
0.294436
0.293234
0.291992
0.290708
0.289385
0.288024
0.286623
0.285186
0.283715
0.282206
0.280666
0.279096
0.277494
0.275868
0.274216
0.272541
0.270849
0.269138
0.267415
0.265681
0.263938
0.262191
0.260441
0.258692
0.256947
0.255206
0.253475
0.251751
0.250044
0.248368
0.311065
0.31075
0.31037
0.30994
0.30946
0.308931
0.308356
0.307734
0.30707
0.306359
0.305606
0.30481
0.303968
0.303085
0.302155
0.301182
0.300162
0.299095
0.297985
0.296824
0.295615
0.29436
0.293053
0.291698
0.290295
0.288839
0.287337
0.285788
0.284188
0.282544
0.280856
0.279124
0.277354
0.275546
0.273703
0.271833
0.269933
0.268011
0.266072
0.264117
0.262155
0.260184
0.258214
0.256247
0.254284
0.252334
0.250392
0.248474
0.246594
0.312412
0.312118
0.311761
0.311362
0.310915
0.31043
0.309907
0.309345
0.308751
0.308117
0.307448
0.306739
0.305987
0.305196
0.304356
0.303473
0.302539
0.301553
0.300521
0.299428
0.298279
0.297074
0.295802
0.294469
0.293072
0.291604
0.29007
0.28847
0.286795
0.285055
0.283249
0.281374
0.279441
0.277446
0.275395
0.273299
0.271154
0.268973
0.266762
0.264523
0.26227
0.260003
0.257735
0.25547
0.253213
0.250973
0.248748
0.246557
0.244419
0.312531
0.312185
0.311806
0.311424
0.311032
0.310641
0.310248
0.309843
0.30943
0.308989
0.308524
0.308021
0.307477
0.306897
0.306264
0.305587
0.304855
0.304065
0.303224
0.302311
0.30133
0.30028
0.299143
0.297924
0.296616
0.295208
0.293704
0.2921
0.290385
0.288567
0.286645
0.284615
0.282487
0.280259
0.27794
0.275543
0.273063
0.270522
0.267926
0.265284
0.262615
0.259923
0.257228
0.254538
0.251866
0.249224
0.246612
0.244055
0.241581
0.309924
0.309358
0.308907
0.308622
0.308465
0.308418
0.308427
0.308454
0.308474
0.308449
0.308384
0.308257
0.308074
0.307843
0.30755
0.307211
0.306813
0.306356
0.305849
0.305261
0.304597
0.30385
0.302993
0.302028
0.30094
0.299709
0.298336
0.296812
0.295119
0.293264
0.291244
0.28905
0.286697
0.284182
0.281516
0.278719
0.275787
0.272748
0.269615
0.266404
0.263143
0.259842
0.256532
0.253234
0.24997
0.246766
0.243629
0.240597
0.237709
0.303211
0.302197
0.301844
0.302153
0.302864
0.303774
0.304698
0.305536
0.306248
0.306801
0.307225
0.307524
0.307728
0.30787
0.307946
0.30799
0.30799
0.30795
0.307882
0.307742
0.307531
0.307233
0.306806
0.306244
0.30552
0.304599
0.303478
0.302139
0.300552
0.298724
0.296645
0.294303
0.291718
0.288885
0.285822
0.282553
0.279081
0.275443
0.271659
0.26775
0.263755
0.25969
0.255598
0.25151
0.247466
0.243515
0.239686
0.236052
0.23268
0.28638
0.285311
0.287381
0.290901
0.294533
0.297731
0.300293
0.30224
0.303684
0.304716
0.305474
0.30603
0.306469
0.306861
0.307223
0.307609
0.308011
0.308435
0.308891
0.30932
0.309711
0.310032
0.310215
0.310237
0.310052
0.309602
0.308873
0.307838
0.306454
0.30472
0.302617
0.300131
0.297289
0.294088
0.290559
0.286736
0.28263
0.278294
0.273753
0.269042
0.264202
0.259249
0.254231
0.249171
0.244114
0.239121
0.234257
0.229689
0.22566
0.244005
0.254557
0.268716
0.280492
0.288958
0.294686
0.298411
0.300789
0.302309
0.303265
0.303908
0.304365
0.304758
0.305181
0.305665
0.306279
0.307017
0.307886
0.308891
0.309949
0.311033
0.312086
0.313004
0.31374
0.314218
0.314349
0.314101
0.313447
0.312376
0.310813
0.308739
0.306136
0.303043
0.299462
0.295439
0.291029
0.286253
0.281186
0.275871
0.270351
0.26468
0.258873
0.252969
0.246966
0.240863
0.234657
0.228327
0.221955
0.215973
0.256525
0.255793
0.255043
0.254272
0.253472
0.252645
0.251824
0.251122
0.250612
0.250309
0.250263
0.250499
0.251055
0.251976
0.253314
0.255132
0.257508
0.260541
0.264356
0.269121
0.275063
0.282493
0.29186
0.30384
0.319533
0.340584
0.368723
0.409965
0.544603
0.256399
0.255652
0.254886
0.254094
0.253267
0.252407
0.251546
0.250799
0.250241
0.249897
0.249798
0.249974
0.250463
0.251303
0.252544
0.254242
0.256466
0.259303
0.26286
0.267277
0.272734
0.279469
0.287792
0.298091
0.310973
0.327402
0.345741
0.359183
0.396531
0.256094
0.255315
0.254509
0.253665
0.252796
0.251858
0.250906
0.250058
0.249393
0.248934
0.248707
0.24874
0.249062
0.249707
0.250711
0.252119
0.253978
0.256346
0.259289
0.262884
0.267211
0.272353
0.27837
0.285187
0.292595
0.30068
0.307363
0.305069
0.307038
0.255621
0.254791
0.253925
0.253011
0.252035
0.250992
0.249907
0.248906
0.248077
0.247441
0.24702
0.246835
0.246907
0.247259
0.247914
0.248896
0.250228
0.251933
0.254027
0.256516
0.259385
0.262582
0.266004
0.269387
0.27225
0.274533
0.275455
0.270886
0.268635
0.254995
0.254094
0.253145
0.252133
0.251038
0.24985
0.24859
0.247393
0.246357
0.2455
0.244839
0.244388
0.244159
0.244165
0.244415
0.244914
0.245664
0.246658
0.247878
0.249286
0.25082
0.252378
0.253829
0.254956
0.25534
0.254825
0.252901
0.246854
0.242777
0.254231
0.253242
0.25219
0.251058
0.249818
0.248454
0.246984
0.245554
0.244277
0.243169
0.242239
0.241495
0.240944
0.240587
0.240422
0.240442
0.240634
0.240973
0.241423
0.241932
0.242425
0.242793
0.242906
0.242581
0.241436
0.239131
0.235039
0.227507
0.222131
0.253331
0.252238
0.251065
0.249789
0.248378
0.246809
0.245096
0.243403
0.24186
0.240477
0.239261
0.238215
0.237337
0.236622
0.236061
0.235636
0.235327
0.235098
0.234908
0.234696
0.234385
0.233864
0.232997
0.231604
0.229341
0.225838
0.220675
0.213411
0.208285
0.252299
0.251083
0.249769
0.248326
0.246717
0.244915
0.242929
0.240946
0.239115
0.237445
0.235936
0.234588
0.233393
0.232341
0.231415
0.230594
0.229848
0.229141
0.228425
0.227639
0.226705
0.225521
0.223963
0.221877
0.218996
0.21503
0.209873
0.203981
0.1998
0.25113
0.249774
0.248296
0.246663
0.244829
0.242763
0.240476
0.23818
0.236047
0.234083
0.232285
0.230647
0.229156
0.227796
0.226548
0.225384
0.224273
0.223177
0.222046
0.220825
0.219445
0.21782
0.215852
0.213432
0.210365
0.20643
0.201736
0.197228
0.193968
0.249816
0.248297
0.246632
0.24478
0.242691
0.240332
0.237715
0.235087
0.232645
0.23039
0.228314
0.226406
0.224649
0.223022
0.221501
0.220057
0.218655
0.217259
0.215824
0.214299
0.212628
0.210744
0.208575
0.206039
0.202993
0.199268
0.195106
0.191647
0.189159
0.248332
0.246624
0.244742
0.24264
0.240262
0.237577
0.234603
0.231629
0.228877
0.226342
0.22401
0.221864
0.21988
0.218034
0.216296
0.214635
0.213018
0.211406
0.209762
0.208039
0.206193
0.204171
0.201916
0.199362
0.196404
0.19293
0.18927
0.186566
0.184708
0.246633
0.244703
0.242568
0.240175
0.23747
0.234423
0.231068
0.227741
0.224688
0.221896
0.219343
0.217
0.21484
0.212829
0.210934
0.209123
0.207359
0.205608
0.203833
0.201994
0.200053
0.197968
0.195692
0.193171
0.190327
0.187101
0.183886
0.181717
0.18034
0.244638
0.242442
0.240007
0.237276
0.234198
0.230755
0.227
0.223327
0.22
0.216991
0.214265
0.211784
0.209507
0.207395
0.205409
0.203514
0.201672
0.199848
0.198007
0.196117
0.194142
0.192048
0.189796
0.18734
0.184617
0.181617
0.178771
0.176977
0.175953
0.242187
0.239667
0.236874
0.23375
0.230254
0.226387
0.222236
0.218248
0.2147
0.211541
0.208716
0.206171
0.203854
0.201715
0.199711
0.1978
0.195945
0.194111
0.192266
0.190377
0.188416
0.186354
0.184158
0.181785
0.179182
0.176378
0.17383
0.172311
0.171545
0.238996
0.23608
0.232861
0.22929
0.225346
0.221059
0.216554
0.21233
0.208656
0.205449
0.202628
0.200118
0.197854
0.195776
0.193833
0.19198
0.190178
0.188393
0.186594
0.184754
0.182846
0.180846
0.178724
0.176443
0.173964
0.171348
0.169059
0.167756
0.167185
0.23471
0.231354
0.227698
0.223709
0.219392
0.214806
0.210106
0.20582
0.202187
0.199087
0.19641
0.194061
0.191959
0.190036
0.188234
0.186509
0.184819
0.183134
0.181424
0.179666
0.177836
0.175914
0.173877
0.171692
0.16933
0.166869
0.164779
0.163652
0.163237
0.229227
0.225448
0.221461
0.217236
0.212769
0.208122
0.203465
0.199328
0.195911
0.193064
0.19065
0.188558
0.186694
0.184986
0.183375
0.181814
0.180267
0.178704
0.1771
0.175434
0.173688
0.171843
0.169884
0.167787
0.165529
0.163195
0.161253
0.160261
0.159968
0.221826
0.217888
0.214011
0.209967
0.205685
0.201241
0.196844
0.193031
0.189966
0.187475
0.185404
0.183627
0.182045
0.180583
0.179184
0.177803
0.176407
0.174972
0.173476
0.171902
0.170234
0.168456
0.166555
0.16452
0.162345
0.160128
0.158329
0.157462
0.157264
0.211518
0.208605
0.205717
0.202323
0.198494
0.194435
0.190445
0.187068
0.184438
0.182363
0.180673
0.179236
0.177949
0.176739
0.175552
0.174348
0.173099
0.171784
0.170389
0.168899
0.167298
0.165569
0.163709
0.161736
0.159693
0.157671
0.156044
0.155241
0.155045
0.259586
0.259559
0.26011
0.261517
0.263525
0.265782
0.26811
0.270462
0.272862
0.275345
0.277943
0.280677
0.283568
0.286636
0.289899
0.293376
0.297075
0.300989
0.305106
0.309293
0.313475
0.317203
0.319766
0.320374
0.316985
0.307494
0.290021
0.260745
0.212661
0.258708
0.258856
0.259523
0.260866
0.262739
0.264894
0.267184
0.269564
0.272042
0.274643
0.277392
0.280312
0.283422
0.286746
0.290307
0.294125
0.298223
0.302577
0.307269
0.312061
0.317072
0.321942
0.32544
0.327965
0.327801
0.321959
0.312147
0.29452
0.285612
0.257749
0.258024
0.258781
0.26008
0.26184
0.263891
0.266128
0.268512
0.271046
0.273745
0.276625
0.279709
0.283021
0.286585
0.29043
0.294578
0.2991
0.303878
0.30927
0.314835
0.320885
0.32792
0.333129
0.340028
0.346781
0.35296
0.361114
0.369729
0.389927
0.256675
0.256958
0.257708
0.258984
0.260714
0.262736
0.264956
0.26735
0.269927
0.272701
0.27569
0.278917
0.282408
0.286189
0.290304
0.294736
0.299727
0.304819
0.310945
0.317502
0.324398
0.333202
0.343065
0.355393
0.37036
0.388312
0.410678
0.436362
0.470546
0.255479
0.255754
0.256474
0.257717
0.259424
0.261431
0.263647
0.266057
0.268673
0.271512
0.274595
0.277949
0.281605
0.285578
0.289975
0.294568
0.300155
0.305364
0.312136
0.319758
0.328314
0.339008
0.352455
0.369871
0.3914
0.417417
0.447759
0.481542
0.523373
0.254152
0.254438
0.255144
0.256348
0.258007
0.259978
0.26218
0.264598
0.267245
0.270138
0.273298
0.276757
0.280562
0.284674
0.289441
0.293911
0.299782
0.306046
0.313301
0.32173
0.331586
0.343877
0.359876
0.380906
0.406624
0.437176
0.47138
0.508115
0.550906
0.252679
0.252983
0.253684
0.25485
0.256449
0.258369
0.260541
0.262953
0.265614
0.268543
0.271757
0.275286
0.279229
0.283353
0.288185
0.293334
0.299347
0.306094
0.313843
0.322818
0.333569
0.347003
0.364627
0.387576
0.415038
0.446748
0.480972
0.516336
0.554525
0.251048
0.251365
0.252061
0.253189
0.254727
0.256588
0.258719
0.261108
0.263765
0.266705
0.269945
0.2735
0.277449
0.281838
0.286749
0.292175
0.298377
0.305348
0.31342
0.322786
0.334045
0.348065
0.366251
0.389379
0.416167
0.445956
0.477043
0.508388
0.540021
0.249251
0.249578
0.250265
0.251354
0.252829
0.254625
0.256703
0.259053
0.261683
0.264612
0.267839
0.271431
0.275421
0.279884
0.284864
0.290385
0.296679
0.303791
0.311996
0.321527
0.332881
0.346833
0.364503
0.38623
0.410418
0.436201
0.462298
0.488346
0.513213
0.247284
0.247619
0.248293
0.249341
0.250748
0.252471
0.254483
0.256776
0.259358
0.262244
0.265461
0.269044
0.273029
0.277461
0.282434
0.287976
0.294263
0.301387
0.309539
0.318947
0.329987
0.343263
0.359538
0.378727
0.399163
0.419927
0.440211
0.460316
0.478717
0.245144
0.245482
0.246139
0.247142
0.24848
0.250123
0.252056
0.254275
0.256789
0.259615
0.262777
0.266299
0.270221
0.274584
0.279479
0.284954
0.291133
0.29811
0.306023
0.315044
0.325434
0.337592
0.351913
0.36797
0.38421
0.39978
0.414249
0.428335
0.440718
0.242831
0.243172
0.243807
0.244763
0.246027
0.247582
0.249421
0.251548
0.253975
0.256712
0.259778
0.263196
0.267006
0.271252
0.276002
0.281313
0.287274
0.293965
0.301474
0.309911
0.319417
0.330195
0.342314
0.355107
0.367253
0.378066
0.387413
0.396178
0.403452
0.240358
0.240695
0.241311
0.242214
0.243394
0.244847
0.246578
0.248595
0.25091
0.253527
0.256462
0.259738
0.263387
0.267453
0.271987
0.277042
0.282683
0.288967
0.295942
0.30365
0.312129
0.321415
0.331325
0.341069
0.349615
0.356516
0.361877
0.366589
0.370148
0.237724
0.238051
0.238638
0.239483
0.240576
0.241921
0.243532
0.245424
0.247603
0.250072
0.252842
0.255934
0.259375
0.2632
0.267451
0.272171
0.277405
0.283188
0.289529
0.296417
0.30381
0.311619
0.319503
0.326664
0.332388
0.336477
0.33919
0.341368
0.342853
0.234939
0.235258
0.235813
0.236592
0.237588
0.238816
0.240297
0.242047
0.244068
0.246362
0.248936
0.251807
0.254994
0.258526
0.262436
0.266756
0.271514
0.276723
0.282365
0.288391
0.294706
0.30115
0.307303
0.312459
0.316212
0.31858
0.319892
0.320953
0.321895
0.232018
0.232328
0.232847
0.233552
0.234444
0.235545
0.236884
0.238475
0.240317
0.242411
0.244759
0.247373
0.250267
0.253461
0.256979
0.260843
0.265065
0.269643
0.274542
0.27969
0.28497
0.290191
0.294931
0.298636
0.301173
0.302736
0.303643
0.304685
0.306229
0.228969
0.229267
0.229743
0.230369
0.231152
0.232123
0.23331
0.234727
0.236373
0.238244
0.240341
0.242669
0.245235
0.248053
0.251137
0.254498
0.258139
0.262045
0.266175
0.270448
0.274748
0.27889
0.282501
0.285221
0.287143
0.288568
0.289729
0.291418
0.294191
0.225808
0.226095
0.226524
0.227066
0.227735
0.228567
0.229593
0.230823
0.232258
0.23389
0.235715
0.237732
0.239944
0.242356
0.244972
0.247797
0.250824
0.254032
0.257376
0.260784
0.264154
0.267333
0.270036
0.27211
0.273816
0.275494
0.277219
0.279788
0.283928
0.222551
0.222828
0.223211
0.223664
0.224211
0.224897
0.225751
0.226786
0.227997
0.229375
0.230911
0.232599
0.234435
0.236417
0.238542
0.240805
0.243193
0.245681
0.248228
0.250772
0.253241
0.255525
0.257447
0.259067
0.260769
0.262863
0.265212
0.26859
0.273895
0.219209
0.219474
0.219806
0.220167
0.220591
0.221128
0.221807
0.22264
0.22362
0.224734
0.225971
0.227317
0.228763
0.230299
0.231916
0.233601
0.235335
0.237091
0.23883
0.240506
0.242077
0.243486
0.24467
0.245919
0.247711
0.250261
0.253164
0.257126
0.263206
0.215797
0.216052
0.216333
0.216601
0.216899
0.217285
0.217786
0.218413
0.219158
0.220005
0.220936
0.221934
0.222984
0.224069
0.225172
0.226274
0.227351
0.228371
0.2293
0.230103
0.230764
0.231276
0.231692
0.232542
0.234409
0.237371
0.240728
0.245066
0.25159
0.212331
0.212577
0.212807
0.212983
0.213154
0.213386
0.213709
0.214131
0.214641
0.21522
0.215845
0.216495
0.217149
0.217783
0.218375
0.218898
0.219321
0.21961
0.21973
0.219653
0.219379
0.218939
0.218485
0.218796
0.220612
0.223889
0.227613
0.232247
0.239123
0.208824
0.209065
0.209249
0.209331
0.209374
0.209452
0.209599
0.209819
0.210097
0.210411
0.210734
0.211041
0.211304
0.211495
0.211584
0.211538
0.21132
0.210891
0.210213
0.209255
0.208018
0.206549
0.205063
0.204566
0.206055
0.209448
0.213438
0.21843
0.225914
0.205289
0.205521
0.205655
0.205645
0.205564
0.205497
0.205476
0.205502
0.205556
0.205613
0.205642
0.205615
0.205498
0.205258
0.20486
0.204263
0.203426
0.202301
0.200845
0.199019
0.196809
0.194246
0.191558
0.189922
0.19067
0.193806
0.197789
0.203171
0.211693
0.201741
0.201968
0.202055
0.201951
0.201748
0.201542
0.201362
0.201205
0.201047
0.200859
0.200608
0.20026
0.19978
0.199129
0.198266
0.197146
0.195719
0.193934
0.191738
0.189082
0.185923
0.182247
0.178222
0.175096
0.174553
0.176785
0.180064
0.185511
0.195406
0.198189
0.198402
0.198428
0.19823
0.19792
0.197594
0.197275
0.196953
0.196598
0.19618
0.195664
0.195014
0.194191
0.193152
0.191852
0.190238
0.188258
0.185851
0.18296
0.179525
0.175479
0.170747
0.165392
0.160616
0.15833
0.15885
0.160176
0.164761
0.176035
0.194674
0.194937
0.194933
0.194618
0.194168
0.193707
0.193252
0.192777
0.192243
0.191616
0.190859
0.189933
0.188796
0.187403
0.185702
0.183639
0.181154
0.178184
0.174669
0.17055
0.16573
0.160026
0.153316
0.146768
0.142542
0.140985
0.139259
0.140476
0.149638
0.18634
0.176429
0.164144
0.151836
0.14256
0.138287
0.138701
0.142116
0.146144
0.148284
0.146512
0.139827
0.128748
0.115508
0.103391
0.0952994
0.0925706
0.0946212
0.0981826
0.191511
0.182854
0.169757
0.155283
0.141784
0.131269
0.123619
0.117482
0.110947
0.102063
0.089413
0.0727388
0.0533414
0.0339874
0.0178474
0.00717026
0.00237335
0.00220041
0.00381544
0.186043
0.177569
0.165097
0.149749
0.133037
0.117079
0.101894
0.086436
0.0693492
0.0494024
0.0258885
-0.000680902
-0.028373
-0.0539532
-0.074601
-0.0883575
-0.0953854
-0.0973581
-0.0971829
0.175149
0.166865
0.155117
0.13899
0.119101
0.0976496
0.0748419
0.0499852
0.0223336
-0.00857392
-0.0428923
-0.0793796
-0.115579
-0.14769
-0.172465
-0.188695
-0.19732
-0.200573
-0.201464
0.162129
0.153735
0.141979
0.124515
0.101014
0.0736719
0.0429592
0.00855928
-0.0296546
-0.0711002
-0.115645
-0.162134
-0.205966
-0.243046
-0.270732
-0.288632
-0.298446
-0.302781
-0.304525
0.146627
0.137092
0.124205
0.104711
0.0772841
0.0439628
0.00546544
-0.0382353
-0.0864768
-0.136527
-0.19288
-0.248093
-0.298233
-0.339615
-0.370115
-0.390049
-0.401702
-0.407899
-0.411323
0.127998
0.11612
0.100899
0.0785171
0.0467943
0.00754148
-0.0383611
-0.0906725
-0.146203
-0.208805
-0.273276
-0.334665
-0.388905
-0.432222
-0.463149
-0.482879
-0.494349
-0.500555
-0.504031
0.106418
0.0913306
0.0727578
0.0465187
0.00993878
-0.0352766
-0.0881279
-0.147807
-0.212341
-0.283715
-0.354403
-0.420471
-0.477315
-0.521444
-0.552269
-0.57174
-0.583147
-0.589431
-0.593052
0.0825951
0.0638128
0.041159
0.0101585
-0.0319491
-0.0833226
-0.143036
-0.209051
-0.282802
-0.359853
-0.435238
-0.504363
-0.562154
-0.605732
-0.635419
-0.653814
-0.664482
-0.670325
-0.673622
0.0574647
0.034782
0.00759224
-0.0288281
-0.0770331
-0.134798
-0.201444
-0.27342
-0.354068
-0.436191
-0.515648
-0.587056
-0.645393
-0.688572
-0.717722
-0.73591
-0.746835
-0.75335
-0.757456
0.0321259
0.00548974
-0.0264983
-0.0687354
-0.12343
-0.187691
-0.260469
-0.340168
-0.425477
-0.511731
-0.593758
-0.665392
-0.72201
-0.762465
-0.788751
-0.804456
-0.813419
-0.818458
-0.821435
0.00796914
-0.0225149
-0.0593493
-0.107478
-0.168742
-0.239612
-0.318568
-0.40441
-0.494351
-0.584122
-0.667634
-0.738575
-0.793028
-0.830801
-0.854591
-0.868278
-0.875645
-0.879421
-0.881384
-0.0134992
-0.0475976
-0.0891315
-0.142947
-0.210526
-0.287744
-0.372645
-0.463811
-0.558431
-0.651641
-0.736845
-0.807837
-0.861355
-0.897944
-0.920778
-0.933902
-0.941054
-0.944954
-0.947192
-0.0310046
-0.0684374
-0.114425
-0.173595
-0.24709
-0.330254
-0.420815
-0.517124
-0.616035
-0.712303
-0.798647
-0.869047
-0.920878
-0.955428
-0.976384
-0.988016
-0.994061
-0.997165
-0.998796
-0.0435028
-0.0839514
-0.134043
-0.198104
-0.276972
-0.365542
-0.461318
-0.562473
-0.665454
-0.764358
-0.851951
-0.922202
-0.973092
-1.00662
-1.02681
-1.03799
-1.04384
-1.04684
-1.04839
-0.0504241
-0.093563
-0.147334
-0.215741
-0.299352
-0.392714
-0.493185
-0.598846
-0.705885
-0.808004
-0.89763
-0.969101
-1.02075
-1.05501
-1.07611
-1.08846
-1.09568
-1.1001
-1.10293
-0.0518677
-0.0974074
-0.154436
-0.226665
-0.314453
-0.412081
-0.516803
-0.62662
-0.737457
-0.842616
-0.934224
-1.00669
-1.05894
-1.09363
-1.11511
-1.12824
-1.13644
-1.14174
-1.14531
-0.0482395
-0.0959119
-0.15576
-0.23128
-0.322682
-0.424046
-0.532575
-0.646227
-0.76072
-0.869033
-0.963103
-1.03745
-1.09131
-1.12771
-1.15118
-1.16597
-1.17589
-1.18267
-1.18734
-0.0403516
-0.0899137
-0.152174
-0.230514
-0.325069
-0.429741
-0.54174
-0.659084
-0.77743
-0.889544
-0.987157
-1.06477
-1.12177
-1.16124
-1.18734
-1.20519
-1.21806
-1.22735
-1.23403
-0.0294438
-0.0807236
-0.145108
-0.225989
-0.323504
-0.431319
-0.546631
-0.667499
-0.789488
-0.905107
-1.00581
-1.08601
-1.1452
-1.18668
-1.21457
-1.23397
-1.24832
-1.2588
-1.26629
-0.0165537
-0.0694594
-0.13579
-0.219086
-0.319543
-0.430458
-0.548989
-0.673251
-0.798766
-0.917835
-1.02164
-1.10446
-1.16587
-1.20925
-1.23868
-1.25951
-1.27491
-1.28606
-1.29392
-0.0027664
-0.057372
-0.125639
-0.211405
-0.31498
-0.429066
-0.550754
-0.678224
-0.806979
-0.929114
-1.03547
-1.1201
-1.18256