/*--------------------------------*- C++ -*----------------------------------*\
| =========                 |                                                 |
| \\      /  F ield         | OpenFOAM: The Open Source CFD Toolbox           |
|  \\    /   O peration     | Version:  2312                                  |
|   \\  /    A nd           | Website:  www.openfoam.com                      |
|    \\/     M anipulation  |                                                 |
\*---------------------------------------------------------------------------*/
FoamFile
{
    version     2.0;
    format      ascii;
    arch        "LSB;label=32;scalar=64";
    class       volScalarField;
    location    "200";
    object      magR;
}
// * * * * * * * * * * * * * * * * * * * * * * * * * * * * * * * * * * * * * //

dimensions      [0 2 -2 0 0 0 0];

internalField   nonuniform List<scalar> 
10720
(
0.0240653
0.0288608
0.0383091
0.0450717
0.0498219
0.0564119
0.0662548
0.0796921
0.0982113
0.124225
0.161648
0.219638
0.314717
0.4649
0.763112
1.44914
2.67624
5.41306
10.2376
15.8744
22.7766
35.7368
66.9813
141.752
283.354
414.775
904.018
1548.85
1077.35
443.157
132.936
15.6864
3.56905
0.437536
1.16507e-15
1.15573e-15
0.0291795
2.09715
95.0324
0.0358031
0.0373186
0.0278298
0.0241982
0.0122881
0.0219377
0.0244921
0.0253511
0.0280579
0.0319735
0.038457
0.0492591
0.0660127
0.0959851
0.140643
0.242687
0.356901
0.907309
1.28526
1.63715
2.20989
3.26115
4.56695
6.41066
8.66272
11.0912
10.1923
6.24645
2.59069
0.703433
0.087055
0.00501433
0.00140799
0.000529828
1.23014e-15
0.142395
9.09885
2.32479
164.143
0.0223642
0.0243583
0.0228157
0.0157838
0.0112626
0.00904689
0.00801929
0.00737053
0.00694337
0.00664734
0.00644959
0.00627607
0.00691075
0.00993985
0.0180558
0.0435936
0.107947
0.277636
0.724926
1.67491
3.32912
5.75427
10.5258
14.5631
47.4957
78.5239
267.495
594.047
504.025
305.378
144.392
52.5007
14.215
1.94528
0.0384824
1.23048e-15
0.0485941
3.38166
49.3685
0.00604149
0.00535549
0.00471647
0.0100043
0.0122446
0.0112644
0.00684406
0.00646128
0.00665643
0.00679675
0.00681752
0.00668282
0.00638768
0.00601339
0.0049777
0.0426741
0.0622498
0.153735
0.236187
0.0312953
0.402354
0.0339461
0.187174
0.045979
0.0468425
0.0518089
0.0915428
0.0828839
0.0680713
0.0473048
0.0266856
0.0126614
0.00607739
0.0022567
4.44316e-05
0.00917986
0.570129
0.517807
35.3961
0.0033556
0.000278231
0.00311547
0.00304131
0.00303657
0.00307733
0.00317725
0.00331567
0.00350233
0.00366301
0.00379004
0.00397882
0.00422001
0.00419973
0.00486067
0.0102769
0.0211997
0.0520019
0.135414
0.319851
0.64978
1.14681
2.13986
3.26047
5.11913
4.98005
68.2081
203.93
200.381
153.585
93.0994
46.2054
16.8246
3.46251
0.30018
0.0591478
0.0424109
2.76347
31.7724
0.00472918
0.0110544
0.0141769
0.0117581
0.00703428
0.00368089
0.00141111
0.00274769
0.00321444
0.00342264
0.00373578
0.00411651
0.00456947
0.00503874
0.00548766
0.00592039
0.0056165
0.00555306
0.00182434
0.00703795
0.00023906
0.00719602
0.0382134
0.0103411
0.000659774
0.0121359
0.0213446
0.0194031
0.0161375
0.0115718
0.00685398
0.00346174
0.00186612
0.000912083
0.000403945
0.000216705
0.138436
0.195885
13.165
0.0107755
0.0110915
0.011398
0.0117145
0.0119656
0.0121945
0.0123915
0.0125547
0.013096
0.0131323
0.0127139
0.0127638
0.0128102
0.0128464
0.0128886
0.0129868
0.0125098
0.0100475
0.00526413
0.00201303
2.36414e-15
3.38766e-15
4.60685e-14
1.6049e-14
1.12823
1.0132
0.000109388
0.000612616
0.00119167
0.00311704
0.0200647
0.425104
2.63421
2.44619
1.0207
0.25843
0.0330532
1.77653
24.8124
0.0155171
0.0136681
0.00806588
0.00352911
0.00599983
0.00539186
0.00429646
0.00409582
0.00393082
0.00372505
0.00350014
0.00330765
0.00314642
0.00296298
0.00279134
0.00265312
0.00249084
0.000283858
0.000871867
0.00136702
0.00152176
0.00194307
0.00175059
0.0015252
0.00172992
0.00177024
0.00176133
0.00174239
0.00179106
0.00185042
0.00185968
0.00178215
0.00169055
0.001544
0.0017293
0.000923842
1.7105e-05
0.139308
9.24468
0.0166616
0.0154877
0.0152051
0.015038
0.0148728
0.0147995
0.0147816
0.0148082
0.0148805
0.0150349
0.0152149
0.0154287
0.0156772
0.015971
0.0163219
0.0167621
0.0172344
0.0178849
0.0183398
0.0127894
0.00329619
0.00159419
2.21481e-15
2.66686e-15
1.55995e-14
1.1547e-15
2.34182e-05
0.000133119
0.000262543
0.000695561
0.00453059
0.0970537
0.000596682
1.48923e-05
0.316474
0.365658
0.0324359
1.5147
20.1876
0.0129574
0.00638698
0.00545158
0.00556689
0.00949727
0.011738
0.012029
0.0121146
0.0122225
0.0123468
0.0124923
0.0126873
0.0116789
0.00993999
0.00848595
0.00734499
0.00680355
0.0059223
0.00501305
0.00468379
0.00438945
0.0041354
0.00392132
0.00373375
0.00357145
0.00343088
0.00331275
0.00321304
0.00312693
0.00304349
0.00293457
0.00282381
0.00273266
0.0027077
0.00235383
0.00322494
6.13504e-05
0.108737
7.03287
0.0157446
0.0163706
0.0151584
0.0132479
0.0115829
0.0102336
0.00927487
0.00854312
0.00799931
0.00763583
0.00742875
0.00736296
0.00740626
0.00753919
0.00776817
0.00811712
0.00839055
0.00891647
0.010071
0.010846
0.0106761
0.00645089
0.00137253
0.00076535
1.45634e-15
1.1547e-15
1.1547e-15
1.1547e-15
1.1547e-15
1.1547e-15
1.1547e-15
1.1547e-15
0.000136838
3.45168e-06
1.44858e-07
1.93113e-06
2.38645e-05
0.00133201
0.0384422
0.00594373
0.00378952
0.00793769
0.017602
0.0184416
0.0188674
0.0190273
0.0192274
0.019476
0.0197722
0.0201127
0.0205263
0.0195477
0.017522
0.0157852
0.0144542
0.0133697
0.0125391
0.0118343
0.0112644
0.0107919
0.0103791
0.00999744
0.00962125
0.00924995
0.00890707
0.00860182
0.0083258
0.00806925
0.00783036
0.00759491
0.0072612
0.00684226
0.00644138
0.00562711
0.00556887
0.000110946
0.0752182
4.73631
0.00244304
0.00275459
0.00276209
0.00267982
0.00272236
0.00279662
0.00281827
0.00284724
0.00286366
0.00286529
0.0028729
0.00287758
0.00288052
0.00289037
0.00291133
0.00295353
0.00299458
0.00313974
0.000507723
0.00215764
0.00400842
0.00552946
0.00575798
0.00419478
0.00159412
1.43696e-06
1.1547e-15
1.1547e-15
1.1547e-15
1.1547e-15
1.1547e-15
1.1547e-15
1.1547e-15
1.1547e-15
3.36791e-08
4.52836e-07
1.1547e-15
0.00031709
0.00921176
0.00492951
0.0162019
0.0250832
0.0252658
0.0192497
0.0144002
0.0140428
0.0136929
0.0132727
0.0128162
0.0123052
0.011729
0.0112598
0.0108657
0.0104927
0.0101862
0.00977225
0.00929927
0.00885008
0.00845096
0.00809897
0.00778427
0.00749504
0.00722118
0.00695989
0.00671995
0.00650576
0.00631286
0.00613575
0.00596915
0.00582559
0.00571227
0.00559202
0.00544982
0.00519508
0.00565841
0.000118465
0.0417082
2.45514
0.00750326
0.00736117
0.00844034
0.00940595
0.0103993
0.0113662
0.0120699
0.0125036
0.0127259
0.0127777
0.0126746
0.0124331
0.0120719
0.0116232
0.0111159
0.0105648
0.00993998
0.00923028
0.0087667
0.00741353
0.00601238
0.00592586
0.00626494
0.00610188
0.00683139
7.2941e-06
3.53278e-07
1.1547e-15
1.1547e-15
1.1547e-15
1.1547e-15
1.1547e-15
1.1547e-15
1.1547e-15
1.1547e-15
1.1547e-15
1.1547e-15
1.1547e-15
1.1547e-15
0.0203104
0.0234834
0.0152398
0.00591136
0.000709568
0.00178558
0.00170822
0.00169372
7.47573e-05
0.000437962
0.000681191
0.000920756
0.0011607
0.0014146
0.00172242
0.00202271
0.00215405
0.00216606
0.00212769
0.0020676
0.00199601
0.00191909
0.00184026
0.00176462
0.0016957
0.00163383
0.00158061
0.00153632
0.00150072
0.00146934
0.0014454
0.00148315
0.0016003
0.00179696
0.00198002
0.00305073
0.000135662
0.0144259
0.81257
0.0187884
0.0167044
0.0168363
0.0168282
0.0168571
0.016945
0.0168687
0.0166048
0.0163122
0.0160132
0.0156732
0.0152686
0.0148065
0.0143477
0.0138784
0.0133615
0.0127255
0.0123401
0.0120329
0.0110286
0.00976242
0.00873148
0.00805863
0.00704223
0.00856647
2.02333e-05
1.01819e-06
1.1547e-15
1.1547e-15
1.1547e-15
1.1547e-15
1.1547e-15
1.1547e-15
1.1547e-15
1.1547e-15
1.1547e-15
1.1547e-15
1.1547e-15
1.1547e-15
0.0171978
0.0071897
0.00262389
0.000973233
0.000648215
0.0005704
0.000536563
0.000552532
0.000556096
0.000533125
0.000539979
0.000558887
0.000573949
0.00059054
0.000618612
0.000652829
0.000666979
0.00066725
0.00066235
0.000655776
0.000648176
0.000640092
0.000631569
0.000622848
0.000614055
0.00060568
0.000598513
0.000592648
0.000587971
0.000583357
0.000579032
0.000583796
0.000597232
0.000646844
0.000656716
6.46913e-06
0.000308661
0.0012061
0.0634828
0.00987304
0.00918795
0.00821457
0.00745244
0.00665026
0.00620542
0.00600579
0.0057449
0.00560056
0.00557975
0.00557844
0.00557603
0.00556775
0.00568045
0.00586804
0.00598513
0.00611042
0.00634451
0.00679956
0.0072937
0.00752383
0.00743004
0.00729881
0.00659518
0.00788575
4.16096e-05
2.17408e-06
1.1547e-15
1.1547e-15
1.1547e-15
1.1547e-15
1.1547e-15
1.1547e-15
1.1547e-15
1.1547e-15
1.1547e-15
1.1547e-15
1.1547e-15
1.1547e-15
0.00274466
0.00120919
0.00110719
0.00197661
0.00364768
0.00358105
0.00333336
0.00346462
0.00346137
0.00303597
0.00290739
0.00283958
0.00270792
0.00254878
0.00238052
0.00222317
0.00208152
0.00195881
0.00185481
0.00176731
0.00169283
0.00162868
0.00157194
0.00152126
0.00147563
0.00143392
0.00139573
0.00136041
0.00132692
0.00129382
0.00125848
0.00120487
0.00111049
0.00110117
0.000921247
0.000513343
0.000803254
9.62006e-05
0.0148747
0.000183326
0.000531801
0.00105915
0.000924916
0.000885374
0.000920624
0.000968783
0.000986807
0.00101332
0.00104424
0.00107798
0.00110737
0.00113208
0.00120293
0.00123685
0.00123243
0.00127602
0.00134986
0.000132027
0.0010986
0.0021433
0.00302497
0.00383348
0.00400791
0.00579659
7.18386e-05
3.89526e-06
1.1547e-15
1.1547e-15
1.1547e-15
1.1547e-15
1.1547e-15
1.1547e-15
1.1547e-15
1.1547e-15
1.1547e-15
1.1547e-15
1.1547e-15
1.1547e-15
0.000815962
0.000718665
0.00587585
0.00780536
0.00820993
0.00820624
0.00791681
0.00777192
0.00765215
0.00715935
0.00691708
0.0067983
0.0065023
0.00619544
0.0058878
0.00559452
0.00532827
0.00508812
0.00487278
0.00467997
0.00450662
0.00434866
0.0042031
0.00406825
0.0039429
0.00382675
0.00371967
0.00362043
0.00352674
0.00343594
0.00334686
0.00325727
0.00311699
0.00292715
0.00266812
0.00237039
0.00212505
0.000351598
7.54807e-06
0.00106345
0.000761793
0.000142252
0.00042928
0.000664227
0.0011128
0.0015883
0.00183167
0.00202845
0.0021695
0.00226187
0.00231364
0.00232612
0.0024958
0.00234837
0.00201162
0.00195501
0.00189699
0.00181058
0.00168546
0.00176101
0.00206131
0.0025547
0.0026579
0.0042987
0.000132803
7.46759e-06
1.1547e-15
1.1547e-15
1.1547e-15
1.1547e-15
1.1547e-15
1.1547e-15
1.1547e-15
1.1547e-15
1.1547e-15
1.1547e-15
1.1547e-15
1.1547e-15
0.00305515
0.00692299
0.00743334
0.00549579
0.00493726
0.00466065
0.00453891
0.00432159
0.00422955
0.00424422
0.00412685
0.00404178
0.00392282
0.00379063
0.00365526
0.00352361
0.00339617
0.00327396
0.00315755
0.00304731
0.00294278
0.00284361
0.00274949
0.00266119
0.00257927
0.0025036
0.00243412
0.00237036
0.00231146
0.00225559
0.00220303
0.0021663
0.00215708
0.00214365
0.00210986
0.00205529
0.00206983
0.00175892
0.000159157
0.00478325
0.00495627
0.00550847
0.00608549
0.00660832
0.00696253
0.00725034
0.00747685
0.00764533
0.00774663
0.00778127
0.00776103
0.00769538
0.0075845
0.00746432
0.00730553
0.00731936
0.00706038
0.00656885
0.00605101
0.0053564
0.00471486
0.00430696
0.00372351
0.00450355
0.000330128
1.92389e-05
1.1547e-15
1.1547e-15
1.1547e-15
1.1547e-15
1.1547e-15
1.1547e-15
1.1547e-15
1.1547e-15
1.1547e-15
1.1547e-15
1.1547e-15
1.1547e-15
0.00687254
0.00566596
0.0022448
0.000613301
0.000330945
0.000186084
0.000177102
0.000191902
0.000220897
0.000258821
0.000271505
0.000281914
0.000292402
0.000302641
0.000311316
0.000317931
0.000321747
0.000322658
0.000320586
0.000315806
0.000308547
0.000299503
0.000289438
0.000279911
0.000271963
0.00026527
0.000259883
0.000255916
0.000253573
0.000252162
0.000250624
0.000252484
0.000308115
0.000409946
0.000543389
0.00073846
0.000946367
0.00126491
0.000536816
0.00575367
0.00512225
0.00499748
0.00501882
0.00501772
0.00502276
0.00503543
0.00506149
0.0051166
0.00517146
0.00520849
0.005243
0.00528553
0.00533437
0.00538407
0.00543315
0.00548469
0.00552677
0.00556436
0.00558979
0.005556
0.00536865
0.00499482
0.00436362
0.00471427
0.000760642
4.26981e-10
2.41348e-11
1.1547e-15
1.1547e-15
1.1547e-15
1.1547e-15
1.1547e-15
1.1547e-15
1.1547e-15
1.1547e-15
1.1547e-15
1.1547e-15
1.1547e-15
0.00370018
0.000650373
0.000367022
0.000217524
0.000203276
0.000211082
0.00021473
0.000211805
0.000208755
0.000207248
0.000200422
0.000193894
0.000189623
0.000186216
0.000184051
0.000183289
0.000183067
0.000183409
0.000184074
0.000184853
0.000185561
0.000186223
0.000186832
0.000187241
0.000187215
0.000186979
0.00018685
0.000186859
0.000187028
0.00018714
0.000186945
0.000186734
0.000193246
0.000204337
0.000227789
0.000246509
0.000269011
0.000356199
0.000436324
0.00169122
0.00164609
0.00126412
0.00104622
0.000873803
0.000740769
0.000648944
0.00060209
0.000615648
0.000651316
0.000686054
0.000746318
0.000843279
0.000962168
0.00109709
0.00124615
0.00141254
0.00156894
0.00171515
0.00202013
0.00251449
0.00293924
0.00324733
0.00328485
0.00378625
0.00126405
4.70419e-09
2.75609e-10
1.1547e-15
1.1547e-15
1.1547e-15
1.1547e-15
1.1547e-15
1.1547e-15
1.1547e-15
1.1547e-15
1.1547e-15
1.1547e-15
1.1547e-15
0.00064212
0.000188379
0.000455695
0.000909595
0.00102966
0.00116866
0.00118968
0.00117853
0.00115446
0.00112696
0.00109761
0.00106727
0.00103768
0.0010089
0.000980677
0.000953417
0.000927143
0.000901898
0.000877863
0.000855086
0.00083359
0.000813342
0.00079431
0.000776502
0.000759718
0.000743603
0.00072811
0.000713222
0.000698767
0.000684311
0.000669667
0.000652567
0.00061253
0.00054588
0.000503962
0.000373344
0.000202432
0.000262134
0.000420356
0.00022603
0.000254697
0.000263476
0.000258035
0.000265898
0.000274868
0.000275225
0.000280437
0.000290593
0.000300011
0.00030975
0.000321849
0.000338861
0.000359934
0.000383547
0.000410224
0.000440762
0.000471101
0.0005003
0.00057054
0.000645001
0.000154432
0.000709736
0.00116589
0.00180867
0.00123347
1.6776e-08
1.01819e-09
1.1547e-15
1.1547e-15
1.1547e-15
1.1547e-15
1.1547e-15
1.1547e-15
1.1547e-15
1.1547e-15
1.1547e-15
1.1547e-15
1.15713e-15
0.000345164
0.00081169
0.00237608
0.0029372
0.00292563
0.00294866
0.00292898
0.00288524
0.00283511
0.00278479
0.0027357
0.00268732
0.00263974
0.00259215
0.00254379
0.00249465
0.00244466
0.00239383
0.00234253
0.00229109
0.00223987
0.00218914
0.00213915
0.00209032
0.00204294
0.00199709
0.00195287
0.00191041
0.00186941
0.00182926
0.00178951
0.00175057
0.00169777
0.00161064
0.00148812
0.00131491
0.00112956
0.000858675
0.000699545
0.000148459
0.00036485
0.000644754
0.000863378
0.00104477
0.00119298
0.00129727
0.00136963
0.00142115
0.00145745
0.00147921
0.00148938
0.00149198
0.00148733
0.00147545
0.00145884
0.00143975
0.00141879
0.00139187
0.00144879
0.00124886
0.000955072
0.000925633
0.00101284
0.00120595
0.00122518
5.91985e-08
3.71946e-09
1.1547e-15
1.1547e-15
1.1547e-15
1.1547e-15
1.1547e-15
1.1547e-15
1.1547e-15
1.1547e-15
1.1547e-15
1.15705e-15
1.20229e-15
0.00183251
0.00276123
0.0026804
0.00202474
0.00191644
0.00186088
0.00182674
0.00179321
0.00176328
0.00173702
0.00171505
0.00169578
0.00167747
0.00165924
0.00164041
0.00162028
0.00159868
0.00157545
0.00155058
0.00152419
0.00149645
0.00146765
0.00143798
0.00140804
0.00137853
0.00134983
0.00132199
0.00129512
0.00126924
0.0012439
0.00121924
0.00119921
0.00119369
0.00119622
0.00119115
0.00117308
0.00112725
0.000987106
0.000828096
0.00253002
0.00258803
0.00280312
0.00300023
0.00314127
0.00324571
0.0033163
0.00336023
0.00338787
0.00340403
0.00341169
0.00341302
0.00340813
0.00339695
0.00337894
0.0033549
0.00332536
0.00328841
0.00324271
0.00318604
0.00302336
0.00283693
0.00244011
0.00200912
0.0017449
0.00158009
2.3719e-07
1.54172e-08
1.1547e-15
1.1547e-15
1.1547e-15
1.1547e-15
1.1547e-15
1.1547e-15
1.1547e-15
1.1547e-15
1.1547e-15
1.15595e-15
1.15585e-15
0.00284527
0.00194037
0.000662993
0.000262553
0.000207548
0.000163506
0.000146772
0.000138517
0.000133228
0.000130594
0.000129982
0.000130912
0.00013278
0.00013521
0.000137904
0.000140671
0.000143296
0.000145705
0.000147738
0.000149338
0.000150421
0.000151039
0.000151251
0.000151302
0.000151363
0.000151386
0.000151382
0.000151358
0.000151449
0.000151456
0.000151088
0.000150417
0.000164331
0.000216134
0.000295264
0.000411959
0.000544972
0.000629941
0.000633512
0.00231852
0.00213366
0.00207836
0.00206781
0.00203255
0.00199438
0.00196601
0.00194625
0.00193837
0.0019415
0.00195144
0.00196622
0.00198383
0.00200308
0.00202289
0.00204325
0.00206426
0.00208496
0.00210523
0.00214541
0.00222781
0.00227817
0.00225094
0.00216408
0.00191846
0.0017557
7.71867e-07
5.18684e-08
1.1547e-15
1.1547e-15
1.1547e-15
1.1547e-15
1.1547e-15
1.1547e-15
1.1547e-15
1.1547e-15
1.1547e-15
1.1547e-15
1.16849e-15
0.00111774
8.15509e-05
0.000102966
5.16858e-05
4.93365e-05
5.01762e-05
5.29757e-05
5.29581e-05
5.16129e-05
5.01984e-05
4.82429e-05
4.64699e-05
4.53567e-05
4.45058e-05
4.40766e-05
4.41861e-05
4.46009e-05
4.53515e-05
4.63648e-05
4.75837e-05
4.89117e-05
5.03355e-05
5.18374e-05
5.32651e-05
5.4403e-05
5.53514e-05
5.62472e-05
5.70994e-05
5.79275e-05
5.86782e-05
5.92795e-05
5.96244e-05
6.24242e-05
6.98482e-05
8.56942e-05
0.000100198
0.000126003
0.000172187
0.000323151
0.000424276
0.000467683
0.00031115
0.000222844
0.000152888
9.52006e-05
5.35601e-05
2.90229e-05
1.95632e-05
2.19885e-05
3.19398e-05
4.67275e-05
6.50917e-05
8.73081e-05
0.000113222
0.000142379
0.000175512
0.00021316
0.000253999
0.00030362
0.000419712
0.00063235
0.000897352
0.00114007
0.00121458
0.00143741
1.92538e-06
1.33664e-07
1.1547e-15
1.1547e-15
1.1547e-15
1.1547e-15
1.1547e-15
1.1547e-15
1.1547e-15
1.1547e-15
1.1547e-15
2.67286e-15
1.18338e-15
0.000192471
6.17238e-05
0.000159284
9.4742e-05
0.000124274
0.00016252
0.000193868
0.000207378
0.000210218
0.000208908
0.000205694
0.000201564
0.000197566
0.000193784
0.000190058
0.000186627
0.000183459
0.000180477
0.000177689
0.000175107
0.000172686
0.000170381
0.000168268
0.000166386
0.000164544
0.000162539
0.000160425
0.000158286
0.000156125
0.000153893
0.000151542
0.000148483
0.000142825
0.00012022
0.000109351
5.05917e-05
0.000113093
4.80315e-05
0.000170886
6.1366e-05
7.01866e-05
6.0551e-05
5.31439e-05
5.09577e-05
5.00737e-05
4.83621e-05
4.76591e-05
4.77832e-05
4.85082e-05
5.03252e-05
5.26896e-05
5.54965e-05
5.91522e-05
6.35474e-05
6.86248e-05
7.45001e-05
8.12433e-05
8.86451e-05
9.74296e-05
0.000114914
0.00014913
0.000185371
7.93006e-05
0.000272124
0.000756164
3.44824e-06
2.47117e-07
1.1547e-15
1.1547e-15
1.1547e-15
1.1547e-15
1.1547e-15
1.1547e-15
1.1547e-15
1.1547e-15
1.1547e-15
1.15502e-15
1.15764e-15
0.000169017
0.000372158
0.000985888
0.00114379
0.00113991
0.00114924
0.00116951
0.00117372
0.00116467
0.00115211
0.00114055
0.00113031
0.00112113
0.00111247
0.00110378
0.00109488
0.00108555
0.00107557
0.00106484
0.00105327
0.00104079
0.00102736
0.00101305
0.000998019
0.000982459
0.000966499
0.000950258
0.000933905
0.000917453
0.000900853
0.000884053
0.000867002
0.000850633
0.000811355
0.000744254
0.000646118
0.000525894
0.000404411
0.000331001
4.23147e-05
5.76337e-05
0.000109671
0.000158433
0.000205574
0.000249519
0.000282883
0.000301956
0.000312491
0.000318074
0.000321073
0.000322811
0.000323455
0.000323918
0.000324618
0.000324907
0.000324773
0.000324015
0.000322497
0.000319234
0.000302651
0.000289689
0.000187996
0.000101038
9.25694e-05
0.00040998
7.36714e-06
5.44716e-07
1.1547e-15
1.1547e-15
1.1547e-15
1.1547e-15
1.1547e-15
1.1547e-15
1.1547e-15
1.1547e-15
1.1547e-15
1.15472e-15
1.16497e-15
0.000926338
0.00127529
0.00123333
0.00105896
0.00106733
0.00104661
0.0010367
0.00103007
0.00101805
0.00100593
0.000997406
0.000991681
0.000987151
0.000983002
0.000978756
0.000974051
0.000968719
0.000962631
0.000955637
0.000947649
0.000938597
0.000928446
0.00091714
0.000904795
0.000891764
0.000878317
0.000864511
0.000850456
0.000836222
0.000821734
0.000807038
0.000792339
0.000783075
0.000777049
0.000758058
0.000734466
0.000681603
0.000563339
0.000448973
0.00121954
0.00117663
0.00121634
0.00126102
0.00129328
0.00131858
0.00133841
0.0013473
0.00135052
0.00135243
0.0013535
0.00135403
0.00135294
0.00135196
0.001351
0.00134877
0.00134507
0.00133939
0.00133125
0.0013209
0.00130752
0.00123682
0.00110273
0.000941407
0.000776971
0.000740107
3.70361e-05
2.88011e-06
1.1547e-15
1.1547e-15
1.1547e-15
1.1547e-15
1.1547e-15
1.1547e-15
1.1547e-15
1.1547e-15
1.1547e-15
1.1547e-15
1.15494e-15
0.00140408
0.000909198
0.000396226
0.000282371
0.000278821
0.000263635
0.000247754
0.000241161
0.000235614
0.000230636
0.000227673
0.000226214
0.000225282
0.00022446
0.000223679
0.000222866
0.000222025
0.000221175
0.000220291
0.000219373
0.000218421
0.000217429
0.000216396
0.000215305
0.000214109
0.000212794
0.00021137
0.000209704
0.000207924
0.000205901
0.000203621
0.000200612
0.000200853
0.000221354
0.000265244
0.000319682
0.000371503
0.00040109
0.000377383
0.00125136
0.0011986
0.00117519
0.00116709
0.00115394
0.00114079
0.00113335
0.00112366
0.00111336
0.00110801
0.00110492
0.00110323
0.00110086
0.00110075
0.00110337
0.00110521
0.00110668
0.0011077
0.00110804
0.00110816
0.00112016
0.00113867
0.00112674
0.00109422
0.000999332
0.000940609
0.000148793
3.30627e-07
2.46427e-08
1.1547e-15
1.1547e-15
1.1547e-15
1.1547e-15
1.1547e-15
1.1547e-15
1.1547e-15
1.1547e-15
1.1547e-15
1.15471e-15
0.000581075
6.40859e-05
6.62454e-05
4.22927e-05
4.25302e-05
4.12376e-05
3.89388e-05
3.71627e-05
3.5509e-05
3.40647e-05
3.2488e-05
3.11389e-05
3.02059e-05
2.93461e-05
2.87534e-05
2.8529e-05
2.85196e-05
2.87931e-05
2.93124e-05
3.00419e-05
3.09356e-05
3.19829e-05
3.31627e-05
3.42815e-05
3.51233e-05
3.58157e-05
3.64858e-05
3.71003e-05
3.76715e-05
3.81708e-05
3.85902e-05
3.8829e-05
3.96659e-05
4.45664e-05
5.4395e-05
6.83e-05
3.57065e-05
0.000138949
0.000210001
0.00031538
0.000313309
0.000283993
0.000271987
0.000258469
0.000244909
0.000233664
0.000227515
0.000223238
0.000220527
0.000219235
0.000219199
0.000220412
0.000222152
0.000224961
0.000229001
0.000234439
0.000241364
0.000249767
0.000258526
0.000274479
0.000336003
0.000427216
0.000533321
0.000604043
0.000697212
0.000294913
2.73323e-06
2.10072e-07
1.1547e-15
1.1547e-15
1.1547e-15
1.1547e-15
1.1547e-15
1.1547e-15
1.1547e-15
1.1547e-15
1.1547e-15
1.1547e-15
0.000113918
2.02283e-05
4.89136e-05
5.6089e-05
5.93559e-05
6.43318e-05
6.78065e-05
6.85467e-05
6.81414e-05
6.72429e-05
6.49529e-05
6.23647e-05
6.03201e-05
5.8305e-05
5.6772e-05
5.59746e-05
5.5598e-05
5.57861e-05
5.64796e-05
5.7592e-05
5.90224e-05
6.07396e-05
6.27072e-05
6.44989e-05
6.56366e-05
6.64326e-05
6.71673e-05
6.78276e-05
6.84009e-05
6.887e-05
6.92294e-05
6.94809e-05
6.96564e-05
6.80293e-05
6.24272e-05
5.32938e-05
5.11156e-05
6.29366e-05
6.7781e-05
4.33395e-05
4.36094e-05
4.2203e-05
3.87264e-05
3.71407e-05
3.55965e-05
3.32841e-05
3.22348e-05
3.14479e-05
3.0663e-05
3.03806e-05
3.03033e-05
3.04537e-05
3.08567e-05
3.14738e-05
3.23707e-05
3.35579e-05
3.504e-05
3.68144e-05
3.87043e-05
4.17196e-05
5.17679e-05
6.66395e-05
9.3673e-05
0.000104115
0.00024204
0.000269444
1.09987e-05
8.71055e-07
1.1547e-15
1.1547e-15
1.1547e-15
1.1547e-15
1.1547e-15
1.1547e-15
1.1547e-15
1.1547e-15
1.1547e-15
1.1549e-15
5.35875e-05
8.27951e-05
0.00031966
0.00036632
0.000381184
0.000403413
0.000423968
0.000438202
0.000446769
0.000451344
0.00045332
0.000453671
0.000453144
0.000452157
0.000450804
0.000449174
0.00044732
0.000445205
0.000442821
0.000440131
0.000437113
0.000433709
0.000429895
0.000425718
0.000421222
0.000416403
0.000411249
0.000405813
0.000400091
0.00039409
0.000387795
0.00038126
0.000374698
0.000358982
0.000323366
0.000271148
0.000218071
0.000150056
0.000122499
0.000105484
7.0048e-05
7.15353e-05
6.70964e-05
6.66641e-05
6.6807e-05
6.51871e-05
6.4757e-05
6.4434e-05
6.36857e-05
6.35583e-05
6.34629e-05
6.3431e-05
6.37125e-05
6.40454e-05
6.45071e-05
6.50299e-05
6.55729e-05
6.60856e-05
6.65281e-05
6.68975e-05
6.47863e-05
5.81984e-05
4.90607e-05
5.8508e-05
7.93537e-05
0.000104463
2.12098e-05
1.98247e-06
1.1547e-15
1.1547e-15
1.1547e-15
1.1547e-15
1.1547e-15
1.1547e-15
1.1547e-15
1.1547e-15
1.1547e-15
1.1547e-15
0.000321889
0.00065524
0.000686997
0.000664483
0.000657957
0.000656365
0.000657024
0.000656684
0.00065434
0.000650298
0.000645698
0.000641147
0.000636868
0.000632991
0.000629366
0.000625857
0.000622411
0.000618901
0.000615232
0.000611302
0.000607058
0.000602365
0.0005971
0.000591269
0.000584966
0.000578232
0.000571039
0.000563451
0.0005555
0.000547177
0.000538488
0.000529623
0.000521831
0.000512976
0.000493901
0.000464145
0.000413647
0.000323933
0.000248353
0.000498293
0.00049628
0.000474251
0.000464614
0.000457364
0.000453152
0.000451598
0.000451398
0.00045227
0.000453618
0.000454985
0.000456254
0.000457204
0.00045776
0.000457859
0.000457479
0.000456604
0.000455173
0.00045314
0.00045057
0.000447867
0.000429718
0.000383066
0.000321438
0.000272668
0.000193404
0.000169478
8.53256e-05
1.51216e-06
1.2086e-07
1.1547e-15
1.1547e-15
1.1547e-15
1.1547e-15
1.1547e-15
1.1547e-15
1.1547e-15
1.1547e-15
1.1547e-15
0.000775306
0.000602498
0.000362916
0.000342253
0.000326984
0.00030963
0.000294793
0.000283219
0.000274246
0.000266538
0.000260117
0.00025507
0.000251056
0.000247871
0.000245246
0.000242935
0.000240832
0.000238851
0.00023685
0.000234826
0.000232692
0.000230402
0.000227944
0.00022529
0.000222551
0.000219753
0.000216882
0.000213942
0.000210996
0.000207976
0.00020492
0.000201711
0.000199414
0.000204216
0.000220797
0.000244294
0.000263709
0.000264198
0.000239308
0.00074782
0.000694166
0.000682339
0.000670662
0.000661989
0.000655888
0.000652584
0.000650833
0.000650105
0.000649931
0.000649786
0.000649558
0.000649117
0.000648379
0.000647314
0.000645925
0.000644187
0.00064203
0.000639362
0.000636288
0.000634652
0.000631932
0.000611735
0.000576094
0.000527816
0.000445267
0.000358119
0.000247874
1.85612e-05
1.59771e-06
1.1547e-15
1.1547e-15
1.1547e-15
1.1547e-15
1.1547e-15
1.1547e-15
1.1547e-15
1.1547e-15
1.1547e-15
0.000496913
0.000141751
7.11421e-05
5.28707e-05
5.13627e-05
4.97997e-05
4.75502e-05
4.46694e-05
4.21432e-05
3.99598e-05
3.74136e-05
3.50642e-05
3.32663e-05
3.16291e-05
3.03603e-05
2.95823e-05
2.9086e-05
2.89624e-05
2.91639e-05
2.96536e-05
3.03638e-05
3.12815e-05
3.2382e-05
3.33895e-05
3.40115e-05
3.44481e-05
3.48761e-05
3.52858e-05
3.56826e-05
3.60449e-05
3.63799e-05
3.66593e-05
3.70736e-05
3.88141e-05
4.28749e-05
5.07227e-05
4.23532e-05
0.000101906
0.000137051
0.000310495
0.00031242
0.000290702
0.000280305
0.000275082
0.000271445
0.000269121
0.000267567
0.000266286
0.00026521
0.000264127
0.000263127
0.000262228
0.000261432
0.000260821
0.000260421
0.000260271
0.000260424
0.000260854
0.000261512
0.000263489
0.000275599
0.00030301
0.000331991
0.000353846
0.000360796
0.00034351
0.000311989
6.96318e-05
4.20502e-07
3.39539e-08
1.1547e-15
1.1547e-15
1.1547e-15
1.1547e-15
1.1547e-15
1.1547e-15
1.1547e-15
1.1547e-15
7.92142e-06
2.08157e-05
6.12033e-06
9.94116e-06
1.21093e-05
1.38192e-05
1.49103e-05
1.52606e-05
1.52778e-05
1.51727e-05
1.46874e-05
1.40646e-05
1.35405e-05
1.29842e-05
1.25195e-05
1.2235e-05
1.20533e-05
1.20269e-05
1.21473e-05
1.24057e-05
1.27763e-05
1.32639e-05
1.386e-05
1.44335e-05
1.48193e-05
1.50968e-05
1.53608e-05
1.56076e-05
1.58368e-05
1.60415e-05
1.6219e-05
1.6366e-05
1.64376e-05
1.61803e-05
1.43339e-05
1.11469e-05
1.62583e-05
2.57262e-05
2.71876e-05
4.39104e-05
4.47034e-05
4.43866e-05
4.09327e-05
4.049e-05
4.03624e-05
3.91144e-05
3.85811e-05
3.80608e-05
3.72624e-05
3.68416e-05
3.64486e-05
3.61335e-05
3.60518e-05
3.60562e-05
3.62126e-05
3.64788e-05
3.6856e-05
3.73149e-05
3.78199e-05
3.84954e-05
4.0576e-05
4.65387e-05
1.61213e-05
6.90256e-05
0.000125538
0.000171931
0.000213821
0.000123048
4.71961e-06
3.92491e-07
1.1547e-15
1.1547e-15
1.1547e-15
1.1547e-15
1.1547e-15
1.1547e-15
1.1547e-15
1.1547e-15
6.70015e-06
4.08465e-05
3.95702e-05
6.42994e-05
7.7088e-05
8.59725e-05
9.25856e-05
9.70483e-05
9.98944e-05
0.000101898
0.000103116
0.000103717
0.000104032
0.000104134
0.00010408
0.000103971
0.000103827
0.000103666
0.0001035
0.000103336
0.000103169
0.00010298
0.000102778
0.00010255
0.000102214
0.000101706
0.000101043
0.000100243
9.93118e-05
9.82498e-05
9.70618e-05
9.57407e-05
9.40389e-05
9.05608e-05
7.852e-05
5.97812e-05
4.08703e-05
1.83498e-05
2.21009e-05
2.28784e-05
1.54512e-05
1.56024e-05
1.46669e-05
1.47861e-05
1.51396e-05
1.49894e-05
1.50545e-05
1.51017e-05
1.49751e-05
1.49686e-05
1.49426e-05
1.49057e-05
1.4939e-05
1.49723e-05
1.50323e-05
1.51019e-05
1.51761e-05
1.52407e-05
1.52908e-05
1.52872e-05
1.51072e-05
1.32051e-05
1.27448e-05
1.8343e-05
2.3667e-05
5.18642e-07
5.61412e-05
9.31985e-05
1.55905e-05
1.50561e-06
1.1547e-15
1.1547e-15
1.1547e-15
1.1547e-15
1.1547e-15
1.1547e-15
1.1547e-15
1.1547e-15
4.00677e-05
0.000263581
0.000285006
0.000307719
0.000319001
0.000323337
0.000325437
0.000326282
0.000326157
0.000325556
0.000324718
0.000323662
0.00032256
0.000321444
0.00032027
0.000319097
0.000317919
0.000316692
0.000315413
0.000314052
0.000312568
0.0003109
0.000309031
0.000306952
0.00030459
0.000301881
0.000298884
0.00029565
0.000292179
0.000288461
0.000284491
0.000280263
0.000275748
0.000271025
0.000259116
0.000238581
0.000206733
0.00016661
0.000125214
0.000131097
0.000108251
0.000102394
0.000100717
0.000100752
0.000102138
0.000103544
0.000104897
0.000106244
0.000107315
0.000108192
0.000108905
0.000109405
0.000109734
0.000109895
0.000109894
0.000109732
0.000109416
0.000108952
0.00010836
0.00010751
0.000105764
9.22513e-05
7.26785e-05
5.66832e-05
3.18803e-05
1.44806e-05
2.42088e-05
6.18983e-05
3.75199e-05
1.04755e-06
9.88059e-08
1.1547e-15
1.1547e-15
1.1547e-15
1.1547e-15
1.1547e-15
1.1547e-15
1.1547e-15
0.000373954
0.000381389
0.000314448
0.000278294
0.000269986
0.000262822
0.000256791
0.000252245
0.000248558
0.000245431
0.000243006
0.000241088
0.00023945
0.000238058
0.000236826
0.000235667
0.000234545
0.000233422
0.000232252
0.000230995
0.00022961
0.00022806
0.000226276
0.000224245
0.000222049
0.000219734
0.000217304
0.000214743
0.000212057
0.000209244
0.000206287
0.000203189
0.000199944
0.000198189
0.000199893
0.000201283
0.000196995
0.000183112
0.000156221
0.000399127
0.000356547
0.000343661
0.000339745
0.000338171
0.000338077
0.000338368
0.000338531
0.000338612
0.000338418
0.00033797
0.000337354
0.000336508
0.000335469
0.000334251
0.000332841
0.000331257
0.000329485
0.00032751
0.000325318
0.00032291
0.000320607
0.000308536
0.000287099