/*--------------------------------*- C++ -*----------------------------------*\
| =========                 |                                                 |
| \\      /  F ield         | OpenFOAM: The Open Source CFD Toolbox           |
|  \\    /   O peration     | Version:  2312                                  |
|   \\  /    A nd           | Website:  www.openfoam.com                      |
|    \\/     M anipulation  |                                                 |
\*---------------------------------------------------------------------------*/
FoamFile
{
    version     2.0;
    format      ascii;
    arch        "LSB;label=32;scalar=64";
    class       volVectorField;
    location    "200";
    object      momentError;
}
// * * * * * * * * * * * * * * * * * * * * * * * * * * * * * * * * * * * * * //

dimensions      [0 1 -2 0 0 0 0];

internalField   nonuniform List<vector> 
10720
(
(1.08298 -1.39757 -8.8389e-16)
(0.92604 -0.863033 -1.53407e-15)
(0.332909 0.272195 -1.88855e-14)
(0.30296 0.796514 7.87798e-14)
(0.424444 1.15577 5.92574e-14)
(0.592491 1.4131 -1.45746e-13)
(0.798066 1.56594 -1.18599e-13)
(0.97441 1.62855 -9.3105e-14)
(1.11673 1.64739 1.80648e-14)
(1.2281 1.63898 4.95412e-15)
(1.28301 1.56325 -1.59956e-14)
(1.294 1.44595 6.16665e-14)
(1.20513 1.28392 -2.02773e-13)
(0.994777 1.05669 -3.7214e-13)
(0.734608 0.711336 6.89981e-14)
(0.39681 0.312175 -9.89933e-14)
(-0.0731557 0.0101968 1.07803e-13)
(-0.473459 -0.299233 8.47424e-13)
(-0.809258 -0.616797 2.29193e-13)
(-1.24921 -0.590829 -4.70211e-13)
(-1.51374 -0.12787 -2.12353e-13)
(-1.03878 0.479534 6.38404e-14)
(0.469779 0.802447 4.17156e-13)
(2.43995 0.277947 -3.14487e-13)
(2.61467 -0.282214 5.78052e-14)
(1.25512 -0.278362 -3.39432e-14)
(0.242342 -0.203395 -4.97881e-14)
(-0.872737 -0.33759 1.9415e-14)
(-1.08781 -0.269221 -3.04865e-15)
(-1.57511 0.110481 1.3005e-13)
(-2.07667 0.293541 6.26271e-14)
(-2.25804 0.314362 -1.08792e-13)
(-1.61361 0.315295 -8.17144e-14)
(-2.45954 0.284298 -2.19927e-13)
(-19.1969 1.9845 -1.01354e-13)
(11.6813 -3.20369 4.71209e-14)
(31.0535 -4.29617 1.85501e-14)
(-24.1997 7.77196 -7.59648e-14)
(-37.8978 -1.63727 1.6885e-13)
(0.940984 -1.57868 1.15046e-14)
(0.704007 -1.49504 -2.39493e-14)
(0.590012 -1.48807 2.70062e-14)
(0.522085 -1.38716 1.14825e-13)
(0.410208 -1.14977 5.07071e-14)
(0.196241 -0.738249 -3.03885e-13)
(0.0344323 -0.349096 -1.06626e-13)
(0.128469 -0.263861 1.21978e-13)
(0.240163 -0.293375 -7.13873e-14)
(0.375806 -0.341334 6.08287e-14)
(0.376 -0.250956 -7.22291e-14)
(0.284885 -0.144081 -1.29099e-13)
(0.201491 -0.0859415 3.25848e-14)
(0.171824 -0.0677142 6.48873e-14)
(0.165495 -0.0537471 -1.06087e-13)
(0.126093 -0.0534512 -9.14506e-14)
(0.0616129 -0.0251489 -6.42513e-14)
(-0.0288356 -0.115083 -7.72051e-14)
(-0.0581283 -0.0693907 -2.8059e-14)
(-0.0349335 0.00634429 -1.79569e-15)
(-0.0348059 0.0104543 2.50548e-14)
(0.197218 0.562073 4.9761e-14)
(-0.0605283 -0.0207067 -2.17835e-14)
(0.0105528 0.212862 -1.60169e-14)
(-0.120055 -0.0814546 1.62923e-14)
(-0.0434284 0.0171375 -3.34473e-15)
(-0.0195003 0.00994077 4.35513e-16)
(0.00994084 0.0304719 4.79694e-16)
(0.0991279 0.0337166 -5.3451e-16)
(0.0107678 0.0352045 1.10116e-15)
(0.0218422 0.0347694 3.75691e-15)
(0.0342468 0.0332424 -1.87992e-15)
(0.00946838 0.0176723 -3.00553e-15)
(0.0521468 0.0134586 -4.35783e-14)
(-0.120459 -0.00859 -3.94484e-14)
(-0.146207 0.00137368 2.23407e-14)
(-0.482117 -0.0651209 3.15585e-17)
(-0.580228 -0.0682028 -5.153e-15)
(-1.81757 0.030686 -1.75953e-14)
(-0.687789 -1.02495 -4.84153e-15)
(-0.76423 -0.719896 3.76729e-15)
(-0.992786 0.0861017 -2.2215e-15)
(-1.06998 0.650909 -5.8987e-15)
(-0.963065 0.999438 7.65788e-15)
(-0.784189 1.28007 5.37028e-14)
(-0.575827 1.45573 6.66461e-14)
(-0.355724 1.52712 2.43781e-14)
(-0.133235 1.55648 -7.54602e-14)
(0.0789679 1.53743 -3.34119e-14)
(0.272354 1.46302 -2.3277e-13)
(0.424863 1.32985 -4.22e-13)
(0.549183 1.22173 -2.06585e-14)
(0.664448 1.13753 -1.794e-14)
(0.740523 1.03722 -7.91728e-14)
(0.743537 0.938988 8.23248e-14)
(0.716736 0.821593 3.60331e-13)
(0.571662 0.715877 -6.62205e-13)
(0.501215 0.593394 -5.28568e-13)
(1.0025 0.350031 -3.48521e-13)
(1.92398 0.0588792 2.40526e-13)
(2.15777 -0.119432 2.04097e-13)
(0.992368 -0.2543 -3.17718e-13)
(-1.22916 -0.0424869 5.46993e-14)
(-2.43655 0.187355 -2.16133e-15)
(-1.14432 0.5833 -2.42761e-14)
(-0.413238 0.660338 -1.2972e-15)
(-0.525318 0.271341 1.06133e-14)
(-1.57393 0.270546 -1.52427e-14)
(-2.0934 0.387893 5.3212e-14)
(-0.868927 0.227424 2.69351e-14)
(-1.50365 0.232182 3.84112e-15)
(1.04314 0.16547 -1.0617e-13)
(-3.46533 1.01156 -1.59211e-13)
(-27.4898 3.84015 1.6179e-13)
(9.50159 -2.18742 7.85445e-14)
(27.7428 -2.0764 6.27853e-14)
(-81.6614 17.9573 -6.00706e-14)
(-7.74744 -6.5199 8.41216e-14)
(-0.757676 -1.1166 -1.80861e-14)
(-0.713268 -1.10575 1.66346e-13)
(-0.570489 -1.12098 -5.1118e-14)
(-0.408831 -1.08101 -1.25058e-13)
(-0.298912 -0.902128 7.48825e-14)
(-0.251682 -0.650082 8.50314e-14)
(-0.171258 -0.411729 -7.95919e-14)
(0.000360529 -0.328159 1.7002e-13)
(0.197205 -0.348969 9.43265e-14)
(0.319564 -0.276115 -6.93092e-14)
(0.355199 -0.125525 6.71564e-14)
(0.32937 0.00348316 -9.51605e-14)
(0.280122 0.0700076 2.37539e-14)
(0.248884 0.0929181 9.17985e-15)
(0.221974 0.123133 2.11887e-14)
(0.194532 0.178803 2.32998e-14)
(0.124273 0.207445 4.27436e-14)
(0.110225 0.273887 -1.23901e-14)
(0.0765073 0.190098 2.61228e-15)
(-0.00487475 0.0429297 -5.81591e-15)
(0.00338145 -0.0303369 1.51213e-14)
(-0.401297 -0.618208 4.35423e-14)
(-0.104614 -0.0115603 -1.81158e-15)
(-0.224224 -0.218415 -1.15403e-14)
(-0.0448475 0.0846267 -1.05244e-14)
(-0.0612145 -0.0174466 1.08882e-14)
(-0.0411808 -0.0229599 2.04119e-15)
(-0.0335052 -0.0321435 -6.17563e-16)
(-0.0699766 0.00763438 4.68524e-17)
(0.0128678 -0.0226987 -8.58561e-17)
(-0.00405917 -0.0464978 -2.15284e-16)
(0.00317204 -0.043827 -5.51359e-15)
(-0.00318849 -0.0258202 8.46731e-15)
(-0.0594007 -0.00971786 3.43337e-14)
(-0.0169569 -0.017626 6.66029e-15)
(-0.140562 -0.0353658 -1.2664e-14)
(-0.0481802 -0.0314174 5.0522e-15)
(-0.400443 -0.0695865 4.90759e-16)
(-3.31039 -0.552089 2.28412e-16)
(-0.112058 -0.612382 1.88745e-15)
(-0.140088 -0.406407 3.36755e-15)
(-0.301688 0.10732 4.52673e-16)
(-0.369036 0.472227 -5.85305e-15)
(-0.285633 0.658453 4.34655e-14)
(-0.157857 0.825489 -5.26649e-14)
(-0.0260698 0.931338 -6.76498e-14)
(0.10744 0.971917 1.29976e-13)
(0.237007 0.99393 5.56517e-14)
(0.355161 0.992763 8.01102e-14)
(0.454356 0.927284 1.76676e-14)
(0.524995 0.837096 3.42174e-15)
(0.553077 0.701189 3.20157e-13)
(0.549322 0.52002 9.41199e-15)
(0.496464 0.339948 2.03909e-13)
(0.40587 0.164795 -5.19432e-15)
(0.291509 0.00706797 -6.4126e-13)
(0.206739 -0.138571 3.92902e-13)
(0.177821 -0.220452 8.8243e-13)
(0.175662 -0.166181 1.62746e-13)
(0.285318 -0.0537558 -5.03312e-14)
(0.500442 -0.00310054 -2.24795e-14)
(0.557039 0.0254824 1.28738e-13)
(0.307993 -0.0330953 1.16099e-13)
(-0.0949379 -0.118934 -9.20348e-14)
(-1.20457 -0.442065 -1.58578e-14)
(-1.46705 -0.143372 -4.15747e-14)
(-0.845502 0.0659233 1.51586e-14)
(-0.905055 0.108422 -3.12379e-14)
(-1.45668 0.181396 -8.819e-14)
(-1.41878 0.247153 1.75963e-14)
(-2.16925 0.279222 1.52834e-13)
(0.805962 0.276861 2.20486e-14)
(0.510369 1.09743 1.30017e-13)
(-11.9604 1.54545 1.38852e-13)
(20.0747 -6.30703 1.11393e-14)
(5.09002 0.829247 -8.8782e-14)
(-102.958 23.017 1.29576e-13)
(6.53798 -13.811 2.40613e-13)
(-0.221463 -0.682434 2.72356e-14)
(-0.331814 -0.683843 -4.22897e-14)
(-0.370378 -0.700768 -5.50293e-14)
(-0.352701 -0.728132 -8.97385e-15)
(-0.326149 -0.653066 6.29695e-15)
(-0.286767 -0.531534 -1.0097e-13)
(-0.194216 -0.419335 3.29445e-14)
(-0.0461169 -0.363738 -1.66696e-13)
(0.13164 -0.343144 -1.2556e-13)
(0.248479 -0.26143 -1.11246e-13)
(0.28683 -0.154252 1.11155e-13)
(0.277437 -0.0652679 1.08391e-13)
(0.2424 -0.010444 -6.20649e-14)
(0.21003 0.0250673 -1.40474e-13)
(0.185179 0.0652333 3.91817e-14)
(0.151964 0.11174 6.53773e-14)
(0.101415 0.120091 -1.75035e-14)
(0.0360106 0.110405 -8.26105e-14)
(-0.00502637 0.0529384 -2.34295e-14)
(-0.0181678 -0.0048235 2.59776e-15)
(-0.0291627 -0.0180896 -1.65201e-14)
(0.0361073 -0.0235194 -3.43551e-14)
(-0.0894141 -0.072301 7.48376e-15)
(-0.0722285 -0.00325326 -6.84449e-16)
(-0.126386 -0.0424078 5.8025e-16)
(-0.0725586 -0.0177542 -3.84106e-15)
(-0.0387423 -0.0226559 -7.23304e-15)
(-0.0168203 -0.0127901 1.30856e-15)
(0.000302418 -0.0297042 1.19095e-16)
(0.018757 -0.00508582 -1.52041e-15)
(0.0248815 0.0178861 9.08404e-17)
(0.0336397 0.0316244 5.79812e-15)
(0.0121886 0.0191031 -5.96035e-15)
(-0.0252952 0.0027049 -9.60727e-15)
(-0.0185041 0.00691266 1.26387e-15)
(-0.073023 -0.0090451 -1.20867e-16)
(-0.0722207 -0.0156028 2.96754e-15)
(-0.114318 -0.0224678 7.01743e-15)
(-5.18632 -0.853891 -2.40592e-14)
(-0.0538547 -0.416946 1.17424e-14)
(-0.0648527 -0.239934 4.63399e-15)
(-0.14009 0.151583 -3.0195e-16)
(-0.177288 0.394727 -5.43867e-15)
(-0.123955 0.496921 -9.10461e-16)
(-0.0488677 0.620729 -1.14847e-14)
(0.0302178 0.706486 8.54153e-14)
(0.117145 0.743618 2.15939e-14)
(0.206836 0.76908 -2.14417e-13)
(0.306786 0.765977 7.24508e-14)
(0.386511 0.721621 2.39826e-13)
(0.443928 0.646202 3.04907e-13)
(0.476028 0.539182 6.98818e-14)
(0.465129 0.426101 -3.52821e-13)
(0.419409 0.306337 -8.87133e-14)
(0.344657 0.164814 -8.57037e-14)
(0.202187 0.0298834 -1.65403e-13)
(0.000216314 -0.0617746 -3.52297e-13)
(-0.15018 -0.105124 -6.09794e-13)
(-0.110594 -0.116649 1.52848e-13)
(0.115804 -0.0758588 -1.16556e-13)
(0.419958 -0.0467666 -1.7936e-13)
(0.40961 0.0209709 -1.60394e-15)
(0.225378 0.142764 -2.3372e-13)
(0.112386 0.189333 -4.16703e-14)
(0.301431 0.185352 3.85505e-14)
(-0.17461 0.139272 4.43783e-14)
(-0.467054 0.0475736 -1.88449e-14)
(-0.668671 0.00395869 2.49706e-14)
(-1.05713 0.13357 4.72591e-14)
(-1.15 0.251928 -4.68158e-14)
(-1.54171 0.209144 1.87721e-14)
(-0.607082 0.412886 1.50115e-13)
(-0.280238 1.17848 1.06446e-13)
(-8.02179 0.497402 -2.13087e-14)
(10.6552 -5.51205 -9.75947e-14)
(-4.42319 3.44335 5.20817e-15)
(-108.659 27.4592 -1.50326e-14)
(11.4893 -13.9859 -6.44265e-13)
(-0.141286 -0.480971 -3.18643e-15)
(-0.25461 -0.490557 -4.03797e-14)
(-0.298368 -0.508419 -3.67723e-14)
(-0.288856 -0.543281 -3.57706e-14)
(-0.287915 -0.502716 1.31131e-13)
(-0.270549 -0.432044 1.97455e-13)
(-0.184548 -0.394712 1.35863e-14)
(-0.0538522 -0.385325 1.50573e-13)
(0.0864157 -0.364182 -7.44949e-15)
(0.181554 -0.295767 -3.88556e-14)
(0.225052 -0.210855 -8.12621e-14)
(0.231346 -0.132267 -3.13444e-14)
(0.213924 -0.0676369 -2.14929e-14)
(0.189847 -0.0166677 7.19996e-14)
(0.165861 0.0211047 -3.83683e-14)
(0.136745 0.0438713 -1.20726e-13)
(0.0995493 0.0428072 -1.65575e-14)
(0.0543677 0.017371 7.71626e-14)
(0.0124341 -0.0275053 -2.76299e-15)
(-0.019897 -0.0599863 -2.13911e-14)
(-0.0439604 -0.0999677 -5.60551e-14)
(-0.0697022 -0.0793168 2.23199e-14)
(-0.103937 -0.061016 2.88256e-14)
(-0.11831 -0.0671936 -5.30066e-15)
(-0.113303 -0.0489987 -1.80104e-15)
(-0.0822108 -0.0582502 2.75995e-15)
(-0.051945 -0.0664353 3.67315e-15)
(-0.0359515 -0.0668628 -5.70674e-16)
(-0.0157177 -0.0462067 2.01295e-16)
(-0.000741531 -0.048841 5.78966e-16)
(-0.0029937 -0.0644028 -1.49541e-15)
(0.00859704 -0.0476543 -2.84981e-15)
(-0.00586684 -0.0313316 -1.50134e-15)
(-0.0302714 -0.0242149 3.91198e-15)
(-0.0443467 -0.0260824 8.45048e-15)
(-0.107675 -0.0413817 -4.7315e-15)
(-0.126039 -0.0146334 -5.37816e-15)
(-0.310645 -0.220086 -2.43661e-16)
(-5.5649 -2.15368 -2.7943e-14)
(-0.0368757 -0.290309 -1.00751e-14)
(-0.0225139 -0.162755 7.01418e-15)
(-0.0640666 0.148681 -4.44089e-16)
(-0.0793088 0.331474 -8.88492e-15)
(-0.0398798 0.389372 -2.21587e-15)
(0.00677455 0.481266 2.20035e-14)
(0.0534412 0.549979 -1.33195e-14)
(0.109845 0.581295 1.59443e-14)
(0.172469 0.609226 -8.15297e-14)
(0.228066 0.610672 -2.50361e-13)
(0.274506 0.586716 -9.33368e-15)
(0.309418 0.53934 -1.15662e-13)
(0.320962 0.467449 -7.19264e-14)
(0.303209 0.375109 -1.56443e-14)
(0.257463 0.264732 -3.00122e-13)
(0.171712 0.139699 2.79953e-13)
(0.0455955 0.000955646 1.58031e-13)
(-0.0957905 -0.122714 -3.51089e-13)
(-0.198845 -0.175845 1.19122e-13)
(-0.157397 -0.148922 -1.92025e-13)
(0.128954 -0.0917188 -1.2842e-13)
(0.432104 0.00667289 2.43483e-13)
(0.431566 0.0468038 1.40528e-14)
(0.114845 0.0622357 2.12403e-13)
(-0.0272741 0.0185558 9.49512e-14)
(0.096184 -0.00369737 -2.05331e-14)
(0.0587606 0.0815125 5.51288e-15)
(-0.0874946 0.0661056 2.16188e-14)
(-0.256755 0.00525802 -2.71332e-14)
(-0.663723 0.150018 -4.79621e-14)
(-0.871861 0.271293 2.13873e-14)
(-1.0686 0.180603 -4.46494e-14)
(-0.813829 0.537765 -3.69496e-14)
(-2.99298 1.25247 -1.2313e-13)
(-4.83987 -0.267171 -2.0546e-13)
(14.9614 -4.9114 3.67789e-14)
(-16.8794 9.24392 -5.72071e-15)
(-97.9394 27.364 -5.8903e-14)
(12.2147 -4.09685 7.09895e-13)
(-0.112614 -0.36495 2.12111e-14)
(-0.201362 -0.389533 3.95047e-14)
(-0.238513 -0.383903 -4.60126e-14)
(-0.271505 -0.40653 -2.58266e-14)
(-0.299049 -0.387198 5.76826e-14)
(-0.282088 -0.349514 -1.45482e-13)
(-0.200598 -0.366197 -1.00923e-13)
(-0.0843998 -0.38804 1.74541e-13)
(0.0295964 -0.370818 1.91038e-13)
(0.110649 -0.317165 -1.3155e-15)
(0.157649 -0.249837 -5.18094e-14)
(0.177349 -0.184671 -3.75769e-14)
(0.176013 -0.12976 1.14445e-13)
(0.163606 -0.0853025 -5.10645e-14)
(0.146852 -0.0540127 -1.18703e-14)
(0.125554 -0.0356982 8.94805e-14)
(0.0971475 -0.0288523 -4.03925e-14)
(0.0631966 -0.0376783 3.57963e-14)
(0.027868 -0.0518938 2.24085e-14)
(-0.00427847 -0.0672664 3.19315e-15)
(-0.0324976 -0.0767826 5.87469e-14)
(-0.0626269 -0.0709537 -2.13269e-14)
(-0.0951692 -0.0576638 -3.80128e-14)
(-0.116226 -0.0430858 -6.57745e-15)
(-0.109524 -0.0285132 1.41504e-14)
(-0.0769675 -0.0231505 -1.59818e-16)
(-0.0468775 -0.0223111 4.91859e-15)
(-0.0332202 -0.0166904 -9.24654e-16)
(-0.0133955 -0.00404238 -2.03303e-16)
(0.000498158 0.00351648 4.97936e-16)
(-0.00118332 0.00831947 9.05628e-16)
(0.0069872 0.00984522 1.56236e-15)
(-0.00783614 0.00889131 -2.85769e-15)
(-0.0336249 -0.00101003 -1.13448e-14)
(-0.0487046 -0.00288243 -4.3122e-15)
(-0.119479 -0.0146128 -1.46432e-15)
(-0.112576 -0.0255094 -4.84688e-15)
(-0.491162 -0.0737004 -1.70769e-14)
(-5.30899 -2.29758 -2.30467e-15)
(0.0112317 -0.266823 1.81165e-15)
(0.0435308 -0.137726 -3.87616e-16)
(0.0294599 0.10595 2.21557e-15)
(0.0227644 0.243402 -1.8352e-15)
(0.0491364 0.277799 5.42649e-15)
(0.0794394 0.351013 -5.13856e-15)
(0.110033 0.407079 -3.07388e-14)
(0.1487 0.43462 6.40178e-14)
(0.194012 0.462755 1.41696e-13)
(0.234519 0.470913 -8.99621e-14)
(0.264226 0.452329 -9.23101e-14)
(0.283924 0.418079 5.89413e-14)
(0.284813 0.361901 -1.30821e-13)
(0.260502 0.284379 -1.91189e-14)
(0.208795 0.192038 -4.1141e-14)
(0.126569 0.0852635 2.05951e-14)
(0.00829771 -0.0235786 4.04308e-14)
(-0.146581 -0.0996571 4.17246e-13)
(-0.270111 -0.119791 3.37938e-13)
(-0.221535 -0.0697093 -1.46039e-13)
(0.0648703 0.0459436 2.08139e-13)
(0.391739 0.129243 1.96892e-14)
(0.407592 0.153401 -6.24674e-14)
(0.0877158 0.113336 -1.21344e-13)
(-0.0832022 0.0439372 9.56849e-15)
(-0.0341359 0.0500349 2.84072e-14)
(-0.140838 0.14273 3.54462e-14)
(-0.221499 0.0970186 -3.31859e-14)
(-0.293277 0.0280763 7.66906e-15)
(-0.55917 0.18086 6.61021e-14)
(-0.617496 0.282765 -2.67867e-14)
(-0.930044 0.192442 -1.47194e-13)
(-0.119806 0.718672 -7.29266e-14)
(-2.89633 1.08695 -7.62534e-14)
(-2.14609 -1.01677 5.7036e-14)
(12.3683 -2.23838 5.06432e-14)
(-38.7479 17.2302 1.02501e-14)
(-111.31 28.206 -1.19938e-14)
(-10.4659 20.1187 -7.46325e-13)
(-0.0670023 -0.316833 -9.25009e-15)
(-0.154243 -0.275446 -1.3243e-14)
(-0.229586 -0.240171 1.96053e-15)
(-0.266587 -0.296796 3.72352e-14)
(-0.275611 -0.332438 4.34588e-14)
(-0.224571 -0.325506 -1.96373e-13)
(-0.148935 -0.341263 -1.19375e-13)
(-0.0534622 -0.365405 -1.62814e-13)
(0.0344897 -0.346534 3.43151e-14)
(0.0980087 -0.300606 2.12672e-14)
(0.139902 -0.244709 -5.56168e-14)
(0.161286 -0.187362 4.78366e-15)
(0.164672 -0.138205 -2.37766e-14)
(0.156721 -0.100578 -4.22169e-14)
(0.143028 -0.0715238 -1.34715e-13)
(0.125178 -0.050515 -1.23399e-14)
(0.102364 -0.0364031 7.97177e-14)
(0.0736226 -0.0304936 -1.23865e-14)
(0.0412028 -0.0347623 1.55404e-14)
(0.00848826 -0.0423247 -2.70362e-14)
(-0.0240396 -0.0481771 -4.06534e-14)
(-0.0592216 -0.0462157 -2.91667e-15)
(-0.0953497 -0.0390339 1.37381e-14)
(-0.118312 -0.0313114 1.48101e-14)
(-0.112116 -0.026941 -1.19976e-15)
(-0.0794081 -0.0290503 -5.50733e-15)
(-0.0497845 -0.0315116 -9.31434e-15)
(-0.0372502 -0.0275457 1.78447e-15)
(-0.0174395 -0.0164376 1.64717e-16)
(-0.00233425 -0.00996085 -4.88096e-16)
(-0.00460187 -0.0139813 -8.6796e-16)
(0.00331556 -0.00490653 -1.45683e-15)
(-0.0107042 0.000604833 2.65162e-15)
(-0.0358164 -0.00700476 1.00126e-14)
(-0.0507137 -0.0168963 3.21624e-15)
(-0.120949 -0.0352089 2.57208e-16)
(-0.114514 -0.0535543 6.15904e-15)
(-0.444819 -0.15029 1.0903e-14)
(-4.02983 -0.704784 -1.61236e-14)
(0.0273633 -0.191696 7.21972e-16)
(0.0393898 -0.107899 -3.32474e-16)
(0.0372433 0.093529 -1.22524e-15)
(0.0324118 0.202317 3.23916e-15)
(0.0495132 0.236482 -1.45228e-15)
(0.0741144 0.309144 -1.25499e-14)
(0.102074 0.363998 3.56397e-14)
(0.137025 0.393244 -1.117e-14)
(0.17823 0.42159 4.68916e-14)
(0.214581 0.43088 8.90109e-14)
(0.240388 0.415341 1.67763e-14)
(0.256041 0.38374 2.83148e-14)
(0.254119 0.330438 1.90404e-13)
(0.229243 0.256089 3.31698e-13)
(0.178511 0.166506 2.9998e-13)
(0.0972027 0.0653353 -5.46715e-15)
(-0.0182951 -0.0397645 3.70123e-13)
(-0.159805 -0.136016 1.31201e-14)
(-0.270908 -0.178139 -1.10132e-13)
(-0.224544 -0.122612 1.49505e-13)
(0.046965 -0.00455227 -2.49702e-13)
(0.378321 0.101909 1.0288e-13)
(0.404754 0.126126 1.14511e-13)
(0.0772472 0.0884265 3.91842e-14)
(-0.102702 0.0329929 1.12594e-13)
(-0.0235418 0.0209432 -4.52699e-14)
(-0.147076 0.0872256 -3.78523e-14)
(-0.280732 0.0638223 5.33032e-15)
(-0.366967 0.0129238 2.40693e-14)
(-0.637536 0.159291 -6.15884e-14)
(-0.647471 0.263041 -5.96761e-14)
(-1.00824 0.183782 1.14759e-13)
(0.0885607 0.797412 2.42551e-14)
(-1.39701 0.767797 -4.07571e-14)
(-1.94835 -1.48594 6.80382e-15)
(6.62356 2.29051 -1.1092e-13)
(-63.262 25.4356 -2.78718e-14)
(-130.963 22.7761 1.53711e-14)
(-3.90434 -7.53631 5.6483e-13)
(-0.0585323 -0.170619 -6.55519e-15)
(-0.153412 -0.161991 -1.08114e-14)
(-0.205848 -0.218794 6.85648e-15)
(-0.199974 -0.324757 7.84649e-14)
(-0.179954 -0.33797 3.50934e-14)
(-0.140331 -0.323664 8.74741e-15)
(-0.0741909 -0.332894 1.6769e-13)
(0.00364386 -0.342839 -8.93345e-14)
(0.0737455 -0.320713 -1.41237e-13)
(0.121948 -0.278473 4.44347e-14)
(0.155169 -0.229125 9.45628e-14)
(0.172575 -0.1781 -2.15566e-14)
(0.174345 -0.130263 6.29541e-14)
(0.165169 -0.0922223 6.65726e-15)
(0.151386 -0.0640191 3.27047e-14)
(0.134092 -0.0429891 1.38847e-14)
(0.112577 -0.0285112 -3.48001e-14)
(0.0858013 -0.0214317 2.95094e-14)
(0.0544145 -0.0222811 -2.20616e-14)
(0.0201833 -0.0286009 2.8552e-15)
(-0.0163003 -0.0348225 5.59502e-14)
(-0.05623 -0.0357082 -1.91585e-14)
(-0.0961111 -0.0322463 -2.51372e-14)
(-0.121297 -0.0282411 5.33887e-15)
(-0.115771 -0.0279653 -8.99667e-16)
(-0.0828304 -0.032604 1.48149e-15)
(-0.0536047 -0.0366429 4.91737e-15)
(-0.0419582 -0.0350257 -8.18169e-16)
(-0.0221427 -0.0272515 1.22746e-16)
(-0.00578539 -0.0229915 5.32624e-17)
(-0.00718038 -0.0265079 -1.95044e-15)
(0.000820821 -0.0186875 3.07514e-16)
(-0.0118361 -0.014524 3.66524e-15)
(-0.0357373 -0.0231457 -4.1001e-16)
(-0.0507293 -0.0285771 -4.99834e-16)
(-0.116665 -0.0394331 9.68728e-16)
(-0.133642 -0.054354 -1.0127e-15)
(-0.317396 -0.149013 1.86395e-15)
(-2.64843 -0.0966884 -1.35135e-14)
(-0.00807849 -0.10731 3.19315e-15)
(0.00707644 -0.0534295 -3.45821e-15)
(0.0105075 0.113164 1.9258e-15)
(0.011583 0.197994 -5.05246e-15)
(0.0334981 0.224565 2.67732e-15)
(0.06411 0.286836 3.52473e-15)
(0.0989367 0.330463 6.49798e-15)
(0.138607 0.350411 -9.1262e-14)
(0.181556 0.371235 -8.70083e-15)
(0.218076 0.37461 1.41469e-13)
(0.242593 0.355606 -5.88637e-14)
(0.255183 0.32243 -1.33191e-13)
(0.248497 0.268896 -2.64438e-13)
(0.218979 0.197502 -2.23609e-13)
(0.164969 0.113624 -1.53942e-13)
(0.0814349 0.0195427 -5.87643e-14)
(-0.0318071 -0.0767787 -2.08468e-13)
(-0.165251 -0.157729 -2.85478e-13)
(-0.269781 -0.181832 -1.39648e-13)
(-0.223874 -0.1168 3.41088e-13)
(0.0453783 0.0122063 3.16448e-13)
(0.376796 0.118222 -2.77116e-14)
(0.39726 0.129623 -4.66901e-14)
(0.0600828 0.0735417 -1.53239e-13)
(-0.117816 0.0175446 -8.58662e-14)
(-0.0234144 0.0190581 3.94419e-14)
(-0.142167 0.0768694 2.94761e-14)
(-0.28777 0.0580147 3.27471e-15)
(-0.37224 0.0231983 -1.7148e-14)
(-0.657525 0.172464 6.37951e-14)
(-0.687183 0.280506 1.34944e-13)
(-1.03494 0.197439 -3.32603e-15)
(-0.203528 0.854525 1.7905e-14)
(-0.547631 0.571144 3.4842e-14)
(-2.77224 -1.6765 -1.62317e-14)
(4.68611 6.48011 1.2277e-13)
(-61.7742 28.2392 4.53435e-14)
(-73.2999 0.527295 -9.51356e-14)
(108.379 -66.0655 -3.22025e-13)
(-0.0605777 -0.149278 1.71053e-14)
(-0.122719 -0.235979 2.11703e-14)
(-0.137526 -0.289659 5.54362e-15)
(-0.141246 -0.320534 1.07397e-13)
(-0.153107 -0.293815 -1.77792e-13)
(-0.133772 -0.300834 8.28831e-14)
(-0.0763812 -0.328594 1.48332e-13)
(-0.00900661 -0.338813 7.54849e-14)
(0.0495142 -0.322422 -3.28362e-14)
(0.0924227 -0.287986 -3.32473e-14)
(0.124286 -0.248946 2.27329e-14)
(0.143901 -0.207559 3.51031e-14)
(0.151117 -0.166799 -8.30092e-14)
(0.150157 -0.129799 6.30064e-14)
(0.143685 -0.0987502 1.50686e-14)
(0.131854 -0.0737883 -1.16117e-14)
(0.115092 -0.0548157 -5.32643e-14)
(0.0926854 -0.0423378 -5.32693e-14)
(0.0645858 -0.0366113 4.3894e-14)
(0.0315382 -0.0361195 1.29855e-14)
(-0.00615731 -0.0367052 4.48454e-15)
(-0.0485534 -0.0341825 4.36461e-14)
(-0.0906314 -0.029211 1.70401e-14)
(-0.117305 -0.0254207 -2.03826e-15)
(-0.112601 -0.0266128 4.70117e-15)
(-0.0802762 -0.0321139 -3.02826e-15)
(-0.0522513 -0.0361738 -5.97777e-15)
(-0.0421035 -0.0350217 9.77655e-16)
(-0.0230253 -0.0284132 -5.53705e-16)
(-0.00617129 -0.0238408 2.75223e-16)
(-0.00765672 -0.026938 1.85709e-15)
(-0.000767165 -0.0232506 -1.85501e-15)
(-0.0129135 -0.019483 -7.25551e-15)
(-0.0359702 -0.0302642 -6.08849e-15)
(-0.0523173 -0.0407821 -3.54143e-15)
(-0.110795 -0.0537209 -2.03594e-16)
(-0.166283 -0.0805046 -9.21415e-16)
(-0.168883 -0.190683 9.25327e-15)
(-1.71971 0.0917941 2.00899e-14)
(-0.00959162 -0.15518 7.78707e-16)
(0.0175798 -0.0683813 1.90889e-15)
(0.0265444 0.0739383 -1.81083e-15)
(0.0258016 0.146145 -7.29515e-16)
(0.0443488 0.165924 -1.23137e-14)
(0.0741068 0.216907 1.25487e-14)
(0.106386 0.25289 -1.24555e-14)
(0.141404 0.267795 -1.55377e-14)
(0.178822 0.28468 -2.91576e-14)
(0.208226 0.287713 -3.82511e-14)
(0.224273 0.270958 1.64997e-14)
(0.227891 0.242328 1.57391e-13)
(0.212228 0.196364 2.12173e-13)
(0.175079 0.135898 3.4512e-14)
(0.115712 0.065999 8.04156e-15)
(0.0298057 -0.0121712 1.32931e-14)
(-0.0825879 -0.0900618 -3.92064e-14)
(-0.210837 -0.15052 1.2064e-13)
(-0.307709 -0.167127 1.08523e-13)
(-0.252025 -0.0988215 -2.65031e-13)
(0.0293197 0.0320693 -2.86585e-14)
(0.365165 0.133203 5.70846e-14)
(0.385766 0.132811 -6.76857e-14)
(0.0435889 0.0684599 7.96991e-14)
(-0.132953 0.0191276 2.6733e-16)
(-0.0274737 0.0180962 -1.3255e-14)
(-0.142397 0.057363 -3.78566e-14)
(-0.292608 0.0489208 1.74663e-15)
(-0.360566 0.0290453 -1.36927e-16)
(-0.634957 0.176406 3.32532e-14)
(-0.686028 0.291883 1.37794e-14)
(-0.979886 0.221037 -6.26696e-14)
(-0.424623 0.876563 -1.99403e-14)
(-0.350972 0.486088 1.30387e-13)
(-3.29879 -1.66004 1.50434e-14)
(5.54143 8.94746 -6.74268e-14)
(-31.8052 24.5198 -2.47384e-14)
(32.9114 -19.9947 4.30476e-14)
(101.762 -19.1843 7.34299e-13)
(-0.041431 -0.241145 3.82883e-15)
(-0.0832759 -0.271597 -4.99667e-14)
(-0.121717 -0.247437 1.96962e-14)
(-0.153666 -0.255844 2.5049e-14)
(-0.17773 -0.248532 4.72834e-14)
(-0.153381 -0.283695 -1.64423e-14)
(-0.0989351 -0.320047 -2.96504e-14)
(-0.041848 -0.331767 -5.09398e-15)
(0.00788567 -0.324274 -7.06685e-15)
(0.0497403 -0.302177 1.05112e-14)
(0.0826233 -0.273677 3.54786e-14)
(0.106569 -0.241312 6.15975e-14)
(0.120382 -0.206734 -2.00082e-15)
(0.12679 -0.173146 -1.29574e-13)
(0.12746 -0.142072 2.42033e-14)
(0.12209 -0.114214 7.05814e-14)
(0.111259 -0.0909035 5.35787e-14)
(0.09421 -0.072825 2.4488e-14)
(0.0704977 -0.0602835 -1.90009e-14)
(0.0400971 -0.0523986 -4.54625e-15)
(0.00289877 -0.0463144 -1.99052e-14)
(-0.0404058 -0.0391021 -3.64793e-14)
(-0.0835811 -0.0315777 1.46938e-14)
(-0.111042 -0.0271384 1.38836e-14)
(-0.106868 -0.0288452 2.20065e-15)
(-0.0753049 -0.0346918 1.16829e-14)
(-0.0486477 -0.0386457 3.57707e-15)
(-0.0401073 -0.0378201 -7.78645e-16)
(-0.0219832 -0.0320647 3.51564e-16)
(-0.00486407 -0.0276367 -4.60414e-16)
(-0.00652819 -0.0305386 9.02778e-16)
(-0.000528165 -0.024769 1.00723e-15)
(-0.0121764 -0.0202635 3.12373e-15)
(-0.0343801 -0.0313794 2.35222e-15)
(-0.0529307 -0.042022 -3.9392e-15)
(-0.102476 -0.0551377 3.88346e-16)
(-0.191867 -0.0854611 4.12246e-15)
(-0.102045 -0.183529 -5.52376e-15)
(-1.0866 0.0867055 -6.17614e-15)
(0.0153058 -0.198543 3.77444e-15)
(0.0331558 -0.106466 -1.12496e-15)
(0.0432894 0.0253895 -4.91443e-15)
(0.0387455 0.0875343 -1.81461e-15)
(0.0531883 0.108305 1.18824e-14)
(0.0806541 0.154503 -1.3642e-14)
(0.110798 0.186132 -2.44321e-15)
(0.143958 0.201522 2.65016e-14)
(0.179062 0.217903 1.57959e-14)
(0.205652 0.219632 3.20384e-14)
(0.218384 0.203394 6.90519e-14)
(0.217866 0.175301 5.79481e-14)
(0.197452 0.131552 -1.35125e-13)
(0.155753 0.0750189 -2.1829e-13)
(0.0932699 0.0097925 3.70623e-14)
(0.00576495 -0.0611637 2.81049e-13)
(-0.106129 -0.129408 5.98336e-14)
(-0.229593 -0.181204 -1.61035e-13)
(-0.320763 -0.186693 -2.71041e-14)
(-0.264917 -0.105269 3.37468e-14)
(0.0158879 0.0377567 -6.73988e-14)
(0.350178 0.14185 -8.22494e-14)
(0.369711 0.137388 5.92142e-15)
(0.0244572 0.0715707 6.10972e-14)
(-0.150844 0.0327323 5.5806e-14)
(-0.0340979 0.0324336 -2.99306e-15)
(-0.146949 0.0565242 3.20121e-14)
(-0.301156 0.0532981 5.6969e-15)
(-0.354744 0.0442891 5.37544e-14)
(-0.613416 0.188221 -4.12695e-14)
(-0.677657 0.306263 -1.37908e-13)
(-0.923885 0.253317 -4.64868e-14)
(-0.46112 0.877981 2.75549e-14)
(-0.269594 0.434079 2.27342e-14)
(-3.6441 -1.41624 -1.58651e-14)
(5.59007 9.91683 -1.03819e-14)
(-4.60277 18.3663 9.12812e-15)
(89.0879 -29.4045 1.05906e-13)
(90.2021 -18.4761 -4.449e-13)
(-0.0288104 -0.231042 -8.62541e-15)
(-0.0819302 -0.221111 -8.12771e-15)
(-0.135976 -0.203984 -1.27235e-14)
(-0.162658 -0.227806 -2.23556e-14)
(-0.165192 -0.233502 3.21751e-14)
(-0.139711 -0.27155 -4.10371e-14)
(-0.0926981 -0.307051 -1.95518e-14)
(-0.0447222 -0.318366 6.34824e-14)
(-0.00145231 -0.315205 -3.40475e-14)
(0.0344372 -0.299814 6.70221e-14)
(0.0649583 -0.278259 6.62857e-14)
(0.0882693 -0.253205 4.38466e-14)
(0.103512 -0.224524 2.94356e-14)
(0.11263 -0.195259 4.61951e-14)
(0.116755 -0.166994 -1.31418e-14)
(0.114998 -0.140149 3.66313e-15)
(0.107796 -0.116136 3.30267e-14)
(0.0944065 -0.0958067 2.46581e-14)
(0.0740403 -0.079548 -2.43109e-15)
(0.0459381 -0.0667813 -4.95176e-14)
(0.0094994 -0.0558354 -9.43031e-15)
(-0.034145 -0.0449672 2.26045e-16)
(-0.0778693 -0.0354602 -3.15853e-14)
(-0.105722 -0.0307741 3.40605e-15)
(-0.101902 -0.0331949 -4.23336e-15)
(-0.0710472 -0.0394797 -9.25454e-15)
(-0.0456738 -0.043429 7.48317e-16)
(-0.0385539 -0.0429314 7.17592e-17)
(-0.0212884 -0.0380182 5.99234e-18)
(-0.00383455 -0.0335988 2.96569e-16)
(-0.00550548 -0.0364252 -7.74798e-16)
(-0.000294396 -0.032585 -1.7554e-15)
(-0.0112127 -0.0285012 1.86276e-15)
(-0.0322787 -0.040412 4.65099e-15)
(-0.0524434 -0.0520485 2.40329e-15)
(-0.0967237 -0.067188 1.56204e-15)
(-0.192511 -0.100264 -9.00217e-15)
(-0.125555 -0.193781 -3.16935e-15)
(-0.892832 0.0186365 1.58524e-14)
(-0.00454621 -0.172675 -2.91948e-15)
(0.00310723 -0.101025 8.68615e-16)
(0.0135675 0.0215111 5.11206e-15)
(0.0111601 0.0766163 5.72387e-15)
(0.0263184 0.0988483 2.48918e-15)
(0.0560801 0.143658 3.3528e-15)
(0.0882869 0.17323 -1.2287e-14)
(0.123188 0.188418 -4.0023e-14)
(0.160884 0.204103 -3.79185e-14)
(0.189785 0.20455 -1.01777e-14)
(0.204 0.187313 -5.24316e-14)
(0.203833 0.157729 -1.63782e-14)
(0.183599 0.112777 1.25744e-13)
(0.142943 0.0562959 6.28644e-14)
(0.0810857 -0.00736744 -4.02006e-15)
(-0.00619932 -0.0754178 -2.16875e-13)
(-0.11598 -0.138997 -5.88532e-14)
(-0.233809 -0.183769 1.99403e-13)
(-0.314663 -0.180004 9.50924e-14)
(-0.2633 -0.0981829 -4.58246e-14)
(0.0116594 0.0441135 -3.60179e-15)
(0.339532 0.143958 4.60916e-14)
(0.35675 0.133035 1.18596e-14)
(0.00984745 0.0684699 -8.40859e-14)
(-0.16572 0.0436821 -1.41783e-13)
(-0.0418514 0.0437925 4.16568e-14)
(-0.150662 0.0523897 -7.66644e-15)
(-0.307172 0.0546422 -8.54295e-15)
(-0.349167 0.0554622 -3.00153e-14)
(-0.594857 0.196511 -2.55502e-14)
(-0.670589 0.31911 4.12897e-14)
(-0.886792 0.28609 1.40187e-13)
(-0.448846 0.874145 3.94501e-14)
(-0.120526 0.398419 -1.05519e-13)
(-3.84662 -1.02881 1.16426e-14)
(4.62665 9.95802 -3.4944e-14)
(7.51048 13.0562 6.95696e-16)
(74.3933 -27.8431 -5.07999e-14)
(66.0269 -15.8754 2.45491e-14)
(-0.0473567 -0.188983 8.40273e-15)
(-0.0966766 -0.192764 2.67348e-14)
(-0.12957 -0.191211 -6.02565e-14)
(-0.142128 -0.220864 -6.08184e-15)
(-0.134205 -0.237559 -1.21445e-13)
(-0.107487 -0.270031 7.59337e-15)
(-0.0679296 -0.297881 3.26561e-14)
(-0.0279494 -0.306874 -1.30022e-13)
(0.00841814 -0.303594 2.61877e-14)
(0.0385666 -0.291388 -1.20026e-14)
(0.0655109 -0.273796 -6.2747e-14)
(0.0871306 -0.252454 -7.51727e-14)
(0.10162 -0.227711 -9.91579e-16)
(0.110912 -0.201484 5.55543e-14)
(0.115759 -0.17539 2.29641e-14)
(0.115006 -0.150079 -2.2285e-14)
(0.10918 -0.126737 -3.14623e-14)
(0.0974526 -0.10575 -8.39409e-15)
(0.0786815 -0.0875693 1.6079e-14)
(0.0516559 -0.0718318 4.19616e-14)
(0.015465 -0.0575956 4.19707e-14)
(-0.0285332 -0.0441875 3.74379e-14)
(-0.0726529 -0.0335207 -1.54261e-15)
(-0.100807 -0.0292437 -3.39255e-14)
(-0.0973745 -0.0328789 3.11805e-15)
(-0.0674269 -0.0401843 -1.00083e-14)
(-0.0433989 -0.0447525 -5.60847e-15)
(-0.0376204 -0.0450882 -7.37936e-16)
(-0.0211747 -0.0413789 3.56305e-16)
(-0.00334798 -0.0374518 -2.52698e-17)
(-0.00490394 -0.0404464 4.54584e-16)
(-0.000416033 -0.0366451 1.55526e-15)
(-0.0104185 -0.0326709 -1.74162e-15)
(-0.0302667 -0.0451019 -1.69526e-15)
(-0.0510496 -0.057099 2.37042e-15)
(-0.0940116 -0.0749341 -2.62835e-15)
(-0.184114 -0.107643 8.02086e-15)