/*--------------------------------*- C++ -*----------------------------------*\
| =========                 |                                                 |
| \\      /  F ield         | OpenFOAM: The Open Source CFD Toolbox           |
|  \\    /   O peration     | Version:  2312                                  |
|   \\  /    A nd           | Website:  www.openfoam.com                      |
|    \\/     M anipulation  |                                                 |
\*---------------------------------------------------------------------------*/
FoamFile
{
    version     2.0;
    format      ascii;
    arch        "LSB;label=32;scalar=64";
    class       volScalarField;
    location    "200";
    object      p;
}
// * * * * * * * * * * * * * * * * * * * * * * * * * * * * * * * * * * * * * //

dimensions      [0 2 -2 0 0 0 0];

internalField   nonuniform List<scalar> 
10720
(
-5.52437
-72.17
-151.034
-229.925
-304.221
-380.527
-449.335
-508.347
-560.518
-602.522
-635.856
-661.49
-680.148
-693.015
-700.465
-702.053
-698.645
-689.245
-675.076
-655.282
-631.165
-601.843
-566.768
-523.187
-470.538
-426.082
-397.889
-349.158
-292.392
-257.798
-230.045
-197.568
-160.132
-121.664
-96.2515
-66.7009
-11.5806
-37.449
-104.793
60.0458
119.322
180.972
237.346
283.998
316.655
332.018
334.492
326.837
308.19
284.002
258.898
234.281
210.885
189.445
169.581
151.143
133.58
116.609
99.7082
82.8363
65.6863
48.4118
31.486
16.8061
5.58499
-3.27127
-10.3358
-15.7044
-19.319
-21.2692
-21.5776
-20.4539
-17.9721
-14.1838
-9.23174
-2.49194
7.45621
24.68
79.8202
29.4744
-27.4728
-88.5727
-151.909
-217.261
-281.327
-342.064
-398.711
-449.519
-494.037
-532.173
-563.996
-589.542
-608.76
-621.271
-627.557
-627.545
-622.078
-610.901
-594.533
-571.71
-540.947
-499.247
-450.272
-406.06
-368.13
-334.705
-302.032
-268.295
-233.489
-198.084
-159.956
-121.469
-96.0544
-66.5321
-11.2832
-38.385
-107.109
124.768
167.224
209.03
248.581
282.388
307.693
321.665
325.091
318.739
303.768
283.896
262.035
239.571
217.405
196.284
176.307
157.442
139.391
121.907
104.659
87.5633
70.3969
53.2352
36.5744
21.9699
10.3513
0.938218
-6.67865
-12.5056
-16.5056
-18.8119
-19.4645
-18.6675
-16.4908
-12.9744
-8.1501
-1.65328
9.26656
26.3249
89.7819
44.658
-6.63357
-63.6168
-123.21
-184.877
-247.082
-307.302
-363.984
-416.077
-462.315
-502.282
-535.598
-562.051
-581.879
-595.384
-602.861
-604.229
-599.846
-589.669
-573.859
-551.767
-522.637
-484.688
-440.523
-398.397
-360.88
-331.124
-300.735
-266.661
-231.478
-196.265
-159.02
-121.251
-95.495
-65.6471
-10.2279
-39.8602
-108.522
130.13
168.797
206.719
242.005
271.589
293.756
306.932
311.286
307.129
295.552
278.898
259.388
238.553
217.446
196.856
177.124
158.316
140.292
122.853
105.731
88.7836
71.8754
55.0724
38.7451
24.1539
12.2435
2.57577
-5.24208
-11.2312
-15.3817
-17.8442
-18.6392
-17.9584
-15.8772
-12.4037
-7.61588
-0.950487
10.0081
27.0014
105.289
67.4443
23.8836
-24.3449
-75.3348
-129.11
-184.102
-238.618
-291.389
-341.275
-387.161
-428.335
-464.242
-494.585
-519.181
-538.151
-551.409
-558.641
-559.853
-554.96
-543.899
-526.225
-501.48
-468.682
-430.035
-391.326
-357.539
-328.367
-297.323
-263.736
-229.396
-194.829
-158.345
-121.153
-94.9007
-64.4494
-9.17325
-42.0286
-109.328
138.954
170.936
202.622
232.65
258.177
277.861
290.422
295.564
293.338
284.639
271.123
254.518
236.146
216.99
197.792
178.98
160.73
143.039
125.791
108.806
91.9714
75.209
58.5789
42.4577
27.8902
15.7628
5.84793
-2.22547
-8.48972
-12.9357
-15.7045
-16.7917
-16.3782
-14.5384
-11.2652
-6.61712
-0.0308549
10.9372
28.3324
107.685
74.0612
35.182
-8.12664
-54.0215
-102.964
-153.657
-204.58
-254.78
-303.13
-348.516
-390.143
-427.308
-459.46
-486.218
-507.422
-522.683
-531.976
-535.152
-532.219
-523.085
-507.48
-485.09
-455.48
-420.163
-383.98
-351.847
-322.984
-292.468
-260.053
-226.791
-193.082
-157.414
-120.985
-94.5127
-63.4445
-8.47847
-44.8492
-110.439
137.661
165.988
194.16
220.893
243.686
261.615
273.698
279.44
278.792
272.482
261.69
247.731
231.68
214.413
196.639
178.826
161.24
143.985
127.036
110.298
93.6911
77.177
60.8355
45.0139
30.5677
18.3076
8.17807
-0.128231
-6.63906
-11.336
-14.3377
-15.6373
-15.404
-13.7169
-10.555
-5.97248
0.61172
11.5401
28.9747
107.974
78.2036
43.6301
5.15379
-35.6033
-79.3681
-124.943
-171.117
-217.202
-262.181
-305.119
-345.267
-381.884
-414.34
-442.164
-465.01
-482.543
-494.65
-501.059
-501.561
-495.899
-483.765
-464.935
-439.3
-408.118
-375.175
-344.807
-316.777
-287.229
-255.968
-223.707
-190.893
-156.188
-120.764
-94.1832
-62.6445
-8.30021
-48.1353
-112.268
134.533
159.557
184.639
208.63
229.22
245.764
257.422
263.575
264.151
259.747
251.243
239.659
225.853
210.568
194.441
177.919
161.303
144.762
128.345
112.025
95.769
79.5785
63.5512
48.0154
33.6984
21.3424
11.0232
2.50828
-4.22774
-9.16061
-12.4028
-13.9419
-13.9349
-12.457
-9.47045
-5.02078
1.48393
12.296
28.7441
105.278
78.4344
47.1889
12.3991
-24.3668
-64.0401
-105.559
-147.867
-190.513
-232.601
-273.329
-312.032
-347.97
-380.486
-409.037
-433.15
-452.408
-466.416
-474.843
-477.405
-473.853
-463.964
-447.665
-425.094
-397.24
-366.997
-338.211
-311.053
-282.336
-252.04
-220.719
-188.768
-155.021
-120.58
-93.8746
-61.9469
-8.90732
-51.8772
-113.908
129.26
151.797
174.518
196.361
215.203
230.637
241.897
248.304
249.824
246.934
240.319
230.789
219.019
205.619
191.135
175.967
160.417
144.696
128.908
113.088
97.2514
81.4377
65.7626
50.5393
36.3969
24.0116
13.5506
4.85573
-2.08896
-7.25226
-10.735
-12.5088
-12.7123
-11.4178
-8.5771
-4.22709
2.20892
12.9159
28.4357
101.401
77.042
48.6429
17.058
-16.2179
-52.2236
-89.9825
-128.577
-167.717
-206.644
-244.669
-281.241
-315.685
-347.367
-375.714
-400.2
-420.317
-435.659
-445.874
-450.604
-449.489
-442.255
-428.853
-409.528
-385.048
-357.638
-330.714
-304.694
-276.959
-247.755
-217.507
-186.502
-153.778
-120.324
-93.6576
-61.3871
-10.7031
-56.1669
-114.192
123.207
143.665
164.416
184.473
201.87
216.368
227.239
233.788
236.02
234.321
229.247
221.46
211.496
199.847
186.969
173.199
158.82
144.054
129.036
113.845
98.5379
83.1857
67.9214
53.0455
39.1199
26.7626
16.2041
7.35897
0.228795
-5.14681
-8.85417
-10.8548
-11.2726
-10.1762
-7.50542
-3.2878
3.03786
13.5785
28.3139
96.7052
74.4077
48.3927
19.4903
-10.855
-43.7338
-78.2613
-113.611
-149.626
-185.65
-221.109
-255.561
-288.402
-319.044
-346.931
-371.509
-392.233
-408.639
-420.265
-426.668
-427.419
-422.271
-411.233
-394.641
-373.097
-348.27
-323.136
-298.251
-271.497
-243.376
-214.198
-184.132
-152.438
-119.963
-93.5613
-61.2106
-13.7898
-60.6237
-112.281
116.704
135.446
154.559
173.117
189.291
202.98
213.474
220.086
222.844
222.08
218.259
211.934
203.541
193.475
182.108
169.713
156.537
142.792
128.625
114.144
99.4367
84.6035
69.7906
55.2915
41.6177
29.3389
18.7263
9.7611
2.46683
-3.10685
-7.03276
-9.25871
-9.89
-8.98754
-6.48125
-2.39124
3.82373
14.1686
28.2738
91.6439
71.112
47.1502
20.57
-7.23979
-37.3866
-69.0463
-101.472
-134.603
-167.862
-200.782
-233.012
-264.02
-293.296
-320.312
-344.511
-365.348
-382.312
-394.919
-402.708
-405.18
-402.057
-393.348
-379.406
-360.686
-338.396
-315.121
-291.501
-265.825
-238.828
-210.748
-181.65
-151.008
-119.522
-93.5201
-61.5539
-17.7242
-63.6704
-107.5
110.098
127.378
145.092
162.362
177.486
190.453
200.582
207.194
210.336
210.304
207.499
202.391
195.349
186.689
176.714
165.637
153.664
140.98
127.73
114.034
100.003
85.753
71.4447
57.3635
43.9854
31.8404
21.2249
12.177
4.747
-1.00367
-5.13286
-7.57477
-8.4161
-7.71056
-5.3782
-1.43232
4.64885
14.7509
28.2622
86.4326
67.4251
45.2413
20.6729
-4.93613
-32.6992
-61.8405
-91.68
-122.211
-152.933
-183.469
-213.549
-242.71
-270.51
-296.473
-320.072
-340.766
-358.036
-371.351
-380.234
-384.118
-382.706
-376.018
-364.411
-348.22
-328.285
-306.834
-284.528
-259.978
-234.118
-207.152
-179.049
-149.483
-119.007
-93.4383
-62.3045
-21.9325
-64.5652
-100.184
103.553
119.574
136.075
152.223
166.432
178.746
188.514
195.086
198.503
199.043
197.056
192.961
187.07
179.644
170.93
161.09
150.283
138.666
126.367
113.508
100.207
86.5947
72.8349
59.2073
46.1636
34.2011
23.6294
14.5345
6.9953
1.0872
-3.23234
-5.88348
-6.93179
-6.4223
-4.26536
-0.468699
5.46765
15.3023
28.2377
81.2285
63.5574
42.9349
20.1336
-3.54668
-29.2077
-56.1141
-83.6381
-111.818
-140.212
-168.509
-196.512
-223.823
-250.07
-274.826
-297.606
-317.893
-335.174
-348.898
-358.587
-363.65
-363.754
-358.906
-349.444
-335.59
-317.891
-298.252
-277.32
-253.951
-229.25
-203.417
-176.334
-147.859
-118.42
-93.2657
-63.2498
-26.0404
-63.6457
-91.5413
97.1819
112.103
127.538
142.694
156.096
167.812
177.225
183.722
187.329
188.314
186.99
183.732
178.817
172.465
164.878
156.177
146.48
135.91
124.575
112.586
100.06
87.1315
73.963
60.828
48.1591
36.4282
25.9497
16.8481
9.23094
3.18967
-1.30228
-4.15124
-5.40036
-5.08642
-3.1098
0.526749
6.29949
15.8357
28.1893
76.1258
59.6341
40.3943
19.1571
-2.81909
-26.616
-51.5341
-76.986
-103.046
-129.321
-155.547
-181.588
-207.106
-231.789
-255.269
-277.104
-296.815
-313.902
-327.819
-338.077
-344.089
-345.472
-342.229
-334.668
-322.922
-307.304
-289.428
-269.898
-247.752
-224.228
-199.54
-173.501
-146.127
-117.753
-93.0078
-64.2276
-29.8942
-61.5897
-82.8282
91.0437
104.997
119.481
133.754
146.43
157.596
166.666
173.058
176.791
178.119
177.33
174.764
170.674
165.25
158.661
150.994
142.336
132.776
122.397
111.291
99.5687
87.3576
74.8169
62.2107
49.9549
38.5005
28.1623
19.0939
11.4303
5.2806
0.634527
-2.40086
-3.8444
-3.72427
-1.9306
1.53817
7.13201
16.343
28.1199
71.1823
55.7413
37.7373
17.8966
-2.56094
-24.6936
-47.8337
-71.4246
-95.5705
-119.913
-144.23
-168.431
-192.231
-215.372
-237.542
-258.348
-277.344
-294.064
-307.974
-318.579
-325.326
-327.786
-325.946
-320.078
-310.24
-296.557
-280.389
-262.274
-241.388
-219.054
-195.524
-170.547
-144.283
-116.995
-92.6909
-65.1599
-33.4615
-59.0017
-74.6894
85.1745
98.2631
111.898
125.373
137.391
148.047
156.785
163.053
166.858
168.451
168.092
166.098
162.704
158.078
152.366
145.63
137.93
129.327
119.878
109.653
98.748
87.2792
75.3967
63.3519
51.5452
40.4102
30.2582
21.2641
13.588
7.35698
2.57781
-0.629698
-2.25905
-2.32994
-0.722003
2.56993
7.96824
16.8268
28.0374
66.432
51.9361
35.0442
16.4601
-2.63613
-23.2751
-44.8145
-66.7308
-89.1426
-111.722
-134.284
-156.773
-178.949
-200.601
-221.464
-241.194
-259.388
-275.612
-289.36
-300.137
-307.424
-310.765
-310.126
-305.741
-297.608
-285.709
-271.175
-254.472
-234.869
-213.737
-191.369
-167.474
-142.325
-116.136
-92.3348
-66.0207
-36.7472
-56.3105
-67.2274
79.5914
91.9021
104.769
117.52
128.936
139.115
147.533
153.659
157.499
159.29
159.278
157.756
154.948
151.008
146.062
140.158
133.333
125.624
117.066
107.705
97.6171
86.9051
75.7035
64.2473
52.9219
42.1458
32.2235
23.3447
15.6904
9.40649
4.51659
1.15264
-0.652911
-0.910999
0.509369
3.61648
8.8038
17.2868
27.9411
61.8947
48.2563
32.3719
14.9263
-2.94234
-22.2309
-42.3231
-62.7247
-83.5626
-104.534
-125.486
-146.389
-167.038
-187.264
-206.847
-225.485
-242.819
-258.452
-271.91
-282.705
-290.36
-294.407
-294.782
-291.687
-285.069
-274.806
-261.823
-246.514
-228.208
-208.283
-187.081
-164.281
-140.253
-115.166
-91.9432
-66.8019
-39.7514
-53.8101
-60.4903
74.3001
85.9066
98.0719
110.162
121.023
130.755
138.864
144.839
148.68
150.619
150.885
149.754
147.439
144.085
139.807
134.64
128.607
121.726
114.008
105.481
96.2004
86.248
75.7413
64.8962
54.0815
43.6998
34.0479
25.3243
17.7273
11.42
6.44361
2.9409
0.970447
0.53027
1.76185
4.67644
9.63756
17.7248
27.8274
57.5827
44.7249
29.7586
13.351
-3.40438
-21.4658
-40.2458
-59.2711
-78.6767
-98.1839
-117.658
-137.091
-156.312
-175.186
-193.53
-211.083
-227.528
-242.505
-255.573
-266.266
-274.136
-278.729
-279.948
-277.958
-272.674
-263.898
-252.376
-238.425
-221.418
-202.701
-182.663
-160.968
-138.062
-114.081
-91.5082
-67.4972
-42.4669
-51.6168
-54.601
69.2992
80.2647
91.7863
103.268
113.615
122.924
130.736
136.552
140.37
142.415
142.903
142.094
140.195
137.344
133.646
129.131
123.809
117.685
110.753
103.022
94.5261
85.3265
75.5202
65.3018
55.0211
45.0655
35.7214
27.1916
19.687
13.3869
8.34941
4.72718
2.60448
1.98853
3.03094
5.74612
10.467
18.1413
27.6935
53.4995
41.3564
27.2337
11.7737
-3.9639
-20.9083
-38.4904
-56.2628
-74.3614
-92.5281
-110.646
-128.723
-146.615
-164.216
-181.373
-197.862
-213.408
-227.685
-240.288
-250.779
-258.735
-263.732
-265.637
-264.584
-260.467
-253.033
-242.875
-230.236
-214.517
-197.002
-178.121
-157.538
-135.751
-112.876
-91.0168
-68.0975
-44.8831
-49.7431
-49.6131
64.5833
74.9606
85.8894
96.8093
106.676
115.586
123.11
128.762
132.538
134.657
135.322
134.779
133.231
130.81
127.615
123.672
118.985
113.549
107.346
100.366
92.6237
84.1613
75.0531
65.4702
55.7418
46.239
37.2362
28.9365
21.559
15.2971
10.2249
6.50391
4.24297
3.45894
4.31271
6.82242
11.2897
18.5371
27.5387
49.6438
38.1593
24.8123
10.2259
-4.58107
-20.5003
-36.987
-53.6122
-70.5166
-87.4553
-104.327
-121.153
-137.81
-154.214
-170.243
-185.703
-200.356
-213.909
-225.994
-236.205
-244.139
-249.414
-251.866
-251.596
-248.486
-242.255
-233.359
-221.974
-207.523
-191.198
-173.464
-153.993
-133.32
-111.549
-90.4542
-68.5925
-46.9918
-48.1737
-45.4742
60.144
69.9787
80.3592
90.7565
100.173
108.706
115.951
121.437
125.156
127.322
128.126
127.803
126.552
124.499
121.74
118.299
114.178
109.363
103.828
97.5491
90.5244
82.7753
74.3547
65.41
56.2474
47.2189
38.5864
30.5501
23.3333
17.1402
12.0605
8.26276
5.87883
4.93573
5.60244
7.90149
12.1032
18.9123
27.3623
46.0119
35.1369
22.507
8.72673
-5.22264
-20.2003
-35.6794
-51.2537
-67.0621
-82.8736
-98.5977
-114.269
-129.779
-145.063
-160.025
-174.499
-188.275
-201.098
-212.63
-222.499
-230.325
-235.769
-238.642
-239.014
-236.768
-231.605
-223.868
-213.672
-200.456
-185.303
-168.699
-150.336
-130.77
-110.096
-89.8071
-68.9708
-48.7906
-46.881
-42.0737
55.9708
65.3031
75.174
85.0831
94.0758
102.251
109.227
114.545
118.197
120.388
121.302
121.161
120.16
118.423
116.042
113.042
109.422
105.165
100.238
94.6089
88.2597
81.1943
73.4446
65.1339
56.5433
48.0051
39.7678
32.025
25.0005
18.9065
13.8466
9.99514
7.50451
6.41277
6.89507
8.97941
12.9049
19.2673
27.1637
42.5973
32.2884
20.3247
7.29178
-5.866
-19.9738
-34.5252
-49.1321
-63.9321
-78.7064
-93.3758
-107.98
-122.427
-136.667
-150.623
-164.155
-177.082
-189.175
-200.134
-209.616
-217.264
-222.784
-225.967
-226.859
-225.343
-221.122
-214.441
-205.362
-193.337
-179.331
-163.837
-146.575
-128.102
-108.516
-89.0638
-69.2214
-50.2831
-45.8236
-39.2829
52.0532
60.9175
70.3125
79.7636
88.3575
96.1925
102.909
108.06
111.635
113.835
114.833
114.844
114.054
112.588
110.534
107.92
104.743
100.986
96.6113
91.579
85.8605
79.4445
72.3433
64.6555
56.6374
48.6005
40.7779
33.3549
26.5522
20.5865
15.5737
11.6921
9.11205
7.88335
8.18517
10.0519
13.6921
19.6024
26.9434
39.3924
29.611
18.2674
5.93006
-6.49351
-19.7963
-33.4895
-47.2039
-61.0724
-74.8912
-88.5873
-102.207
-115.668
-128.936
-141.949
-154.586
-166.695
-178.071
-188.446
-197.509
-204.928
-210.443
-213.842
-215.143
-214.238
-210.84
-205.112
-197.073
-186.19
-173.299
-158.89
-142.713
-125.319
-106.807
-88.2139
-69.3341
-51.4787
-44.9539
-36.9863
48.3786
56.8057
65.7542
74.7747
82.9919
90.504
96.9693
101.955
105.448
107.643
108.705
108.84
108.23
106.997
105.228
102.95
100.165
96.8535
92.977
88.4904
83.3569
77.5522
71.0714
63.9904
56.5402
49.0101
41.6168
34.5357
27.9812
22.1714
17.2323
13.3447
10.6932
9.3403
9.46687
11.1144
14.4622
19.9174
26.7027
36.3886
27.0997
16.336
4.64789
-7.09451
-19.6483
-32.5462
-45.4341
-58.4428
-71.3774
-84.1746
-96.8827
-109.43
-121.792
-133.922
-145.715
-157.04
-167.719
-177.51
-186.133
-193.282
-198.727
-202.26
-203.877
-203.475
-200.788
-195.915
-188.836
-179.037
-167.224
-153.87
-138.761
-122.425
-104.968
-87.2494
-69.3001
-52.3917
-44.2263
-35.0962
44.9344
52.953
61.4816
70.0955
77.9566
85.1608
91.3839
96.2057
99.6116
101.791
102.902
103.139
102.682
101.65
100.127
98.1452
95.7055
92.7903
89.3612
85.371
80.7767
75.5433
69.6516
63.1567
56.2641
49.2406
42.2864
35.5647
29.2815
23.6533
18.8134
14.9436
12.2397
10.7761
10.734
12.1623
15.2125
20.2124
26.4433
33.5769
24.7494
14.5288
3.44827
-7.65857
-19.5154
-31.6736
-43.795
-56.0062
-68.1239
-80.089
-91.9534
-103.653
-115.171
-126.474
-137.473
-148.053
-158.057
-167.271
-175.443
-182.294
-187.616
-191.214
-193.063
-193.069
-190.992
-186.88
-180.68
-171.903
-161.123
-148.791
-134.725
-119.425
-103.003
-86.1642
-69.1131
-53.0394
-43.6021
-33.5481
41.709
49.3432
57.4767
65.7071
73.2303
80.14
86.1294
90.7901
94.1072
96.2635
97.4088
97.7301
97.4034
96.5439
95.2364
93.5132
91.378
88.815
85.787
82.2463
78.1457
73.443
68.1066
62.1727
55.8229
49.3009
42.79
36.4412
30.4489
25.0248
20.3085
16.48
13.7426
12.1827
11.9802
13.1905
15.9405
20.4875
26.1676
30.9474
22.5539
12.8435
2.33247
-8.17977
-19.386
-30.8547
-42.263
-53.7343
-65.0938
-76.2877
-87.3692
-98.282
-109.017
-119.547
-129.798
-139.671
-149.028
-157.678
-165.395
-171.929
-177.086
-180.693
-182.704
-183.034
-181.475
-178.033
-172.633
-164.81
-155.016
-143.666
-130.616
-116.325
-100.913
-84.9548
-68.7695
-53.4417
-43.0518
-32.2928
38.6904
45.9628
53.723
61.59
68.7918
75.4204
81.185
85.6887
88.9149
91.041
92.21
92.601
92.3853
91.6758
90.5557
89.0594
87.1928
84.9423
82.2727
79.1374
75.4872
71.2741
66.4575
61.0571
55.231
49.2012
43.1335
37.1659
31.4801
26.2807
21.7098
17.945
15.1935
13.5522
13.1986
14.1942
16.6437
20.7425
25.8785
28.4913
20.5068
11.2765
1.30049
-8.65464
-19.2522
-30.0768
-40.8207
-51.6032
-62.258
-72.7366
-83.0912
-93.2729
-103.279
-113.088
-122.637
-131.842
-140.581
-148.683
-155.949
-162.152
-167.116
-170.684
-172.796
-173.38
-172.253
-169.398
-164.719
-157.779
-148.919
-138.512
-126.445
-113.133
-98.7032
-83.6191
-68.2698
-53.6192
-42.5529
-31.2874
35.8674
42.7978
50.205
57.7269
64.623
70.9833
76.5307
80.8815
84.0166
86.1078
87.2917
87.7399
87.6193
87.0398
86.0836
84.7864
83.1567
81.1832
78.8337
76.0631
72.8219
69.0582
64.7249
59.8277
54.5037
48.9527
43.3237
37.7413
32.3736
27.4157
23.0102
19.3304
16.584
14.8765
14.3823
15.1682
17.3193
20.9776
25.5791
26.2001
18.601
9.82404
0.351521
-9.0804
-19.1071
-29.3294
-39.4527
-49.5932
-59.5918
-69.4053
-79.0849
-88.5876
-97.9144
-107.051
-115.942
-124.517
-132.667
-140.243
-147.065
-152.931
-157.679
-161.171
-163.334
-164.108
-163.341
-160.996
-156.961
-150.833
-142.851
-133.343
-122.222
-109.857
-96.3786
-82.159
-67.6164
-53.5934
-42.0885
-30.492
33.2287
39.8358
46.9086
54.103
60.7073
66.8113
72.1495
76.351
79.3951
81.4481
82.6399
83.1351
83.0957
82.6295
81.8171
80.6953
79.2747
77.5469
75.4826
73.039
70.1675
66.8149
62.9288
58.5039
53.6571
48.5677
43.3686
38.1715
33.1297
28.4267
24.2038
20.6285
17.9055
16.1475
15.5245
16.1072
17.965
21.1927
25.2728
24.0645
16.8303
8.481
-0.515883
-9.45617
-18.9466
-28.6038
-38.1476
-47.6883
-57.0755
-66.2697
-75.3219
-84.1922
-92.887
-101.395
-109.671
-117.652
-125.245
-132.315
-138.705
-144.234
-148.751
-152.138
-154.311
-155.222
-154.75
-152.842
-149.38
-143.991
-136.83
-128.173
-117.959
-106.507
-93.9467
-80.576
-66.8145
-53.3855
-41.6436
-29.8694
30.7641
37.0652
43.8209
50.7031
57.0293
62.888
68.0246
72.0809
75.0349
77.047
78.2414
78.7751
78.806
78.4386
77.7524
76.785
75.5491
74.0391
72.2286
70.0779
67.5397
64.5616
61.0874
57.1025
52.7064
48.0588
43.2777
38.4617
33.7494
29.3114
25.2858
21.8323
19.1502
17.3573
16.6182
17.0062
18.578
21.388
24.963
22.0763
15.1876
7.24313
-1.30438
-9.78154
-18.7678
-27.8943
-36.8949
-45.8748
-54.6916
-63.3079
-71.7756
-80.058
-88.1632
-96.0857
-103.786
-111.21
-118.275
-124.864
-130.835
-136.029
-140.308
-143.565
-145.716
-146.72
-146.485
-144.95
-141.993
-137.273
-130.873
-123.019
-113.668
-103.09
-91.4153
-78.8746
-65.8704
-53.0131
-41.2054
-29.3838
28.4638
34.4746
40.9287
47.5135
53.5743
59.1979
64.1407
68.0559
70.9209
72.8905
74.083
74.6483
74.7398
74.4592
73.8838
73.0528
71.9804
70.6634
69.0789
67.19
64.9522
62.3136
59.2166
55.6398
51.6665
47.4389
43.0608
38.6185
34.2357
30.0694
26.2523
22.9359
20.311
18.4985
17.6565
17.8599
19.1559
21.5634
24.6529
20.2274
13.6662
6.10563
-2.01692
-10.057
-18.5677
-27.1955
-35.6861
-44.1411
-52.4243
-60.5019
-68.4243
-76.1587
-83.7151
-91.0911
-98.2529
-105.154
-111.722
-117.853
-123.422
-128.288
-132.323
-135.435
-137.537
-138.599
-138.551
-137.331
-134.815
-130.695
-124.995
-117.893
-109.36
-99.6183
-88.7917
-77.0599
-64.7911
-52.4944
-40.7607
-29.0014
26.3184
32.0532
38.2204
44.5218
50.329
55.7272
60.4835
64.2618
67.0395
68.9653
70.1523
70.7435
70.8871
70.6832
70.2059
69.4955
68.5681
67.4221
66.0384
64.3834
62.4152
60.0837
57.3313
54.1309
50.5522
46.7211
42.7286
38.6492
34.5925
30.7011
27.101
23.9343
21.3813
19.5638
18.6328
18.6634
19.6957
21.7188
24.3453
18.5099
12.2597
5.06334
-2.65643
-10.2836
-18.3459
-26.504
-34.5157
-42.4783
-50.2626
-57.8367
-65.2503
-72.4736
-79.5179
-86.384
-93.0427
-99.4544
-105.554
-111.252
-116.436
-120.982
-124.773
-127.729
-129.762
-130.852
-130.949
-129.992
-127.859
-124.274
-119.214
-112.811
-105.047
-96.1003
-86.0853
-75.1375
-63.5841
-51.8428
-40.298
-28.6929
24.3191
29.7915
35.6852
41.7162
47.2807
52.4628
57.0393
60.6856
63.3777
65.2593
66.4376
67.0498
67.2391
67.1022
66.7118
66.1084
65.3095
64.3155
63.1104
61.6641
59.9377
57.8832
55.4441
52.5895
49.3772
45.9182
42.2917
38.562
34.8248
31.2082
27.8304
24.8235
22.3555
20.547
19.5411
19.4118
20.1945
21.854
24.0424
16.9164
10.9618
4.11143
-3.2264
-10.4631
-18.1017
-25.8171
-33.3787
-40.8793
-48.1957
-55.2992
-62.2374
-68.9838
-75.5503
-81.9407
-88.1297
-94.0826
-99.7432
-105.031
-109.849
-114.086
-117.636
-120.427
-122.376
-123.47
-123.677
-122.937
-121.134
-118.021
-113.542
-107.787
-100.742
-92.5471
-83.3046
-73.1141
-62.2571
-51.0703
-39.8058
-28.4315
22.4572
27.6801
33.3129
39.0851
44.4177
49.3925
53.7959
57.3145
59.923
61.7601
62.9277
63.557
63.7859
63.7081
63.3948
62.8866
62.2016
61.3428
60.2966
59.0363
57.5263
55.7212
53.5663
51.0281
48.154
45.042
41.7609
38.3653
34.9383
31.5936
28.4407
25.601
23.229
21.4424
20.3757
20.1007
20.6496
21.9682
23.7463
15.4396
9.76628
3.24493
-3.73035
-10.5972
-17.8351
-25.1326
-32.2701
-39.3365
-46.2143
-52.8775
-59.3716
-65.6727
-71.794
-77.7401
-83.4902
-89.014
-94.2626
-99.1647
-103.634
-107.574
-110.888
-113.511
-115.366
-116.445
-116.731
-116.169
-114.648
-111.95
-107.993
-102.834
-96.4579
-88.97
-80.4598
-70.9976
-60.8173
-50.1869
-39.2742
-28.1962
20.7247
25.7098
31.0936
36.6185
41.729
46.505
50.742
54.1367
56.6639
58.4567
59.6118
60.2544
60.5176
60.4927
60.2478
59.8241
59.2406
58.5017
57.597
56.5026
55.186
53.6051
51.7071
49.4573
46.8943
44.104
41.1467
38.0681
34.9396
31.8612
28.9328
26.2652
23.9984
22.2452
21.1316
20.7258
21.0582
22.0606
23.458
14.0727
8.66712
2.4589
-4.17188
-10.6881
-17.547
-24.4495
-31.1875
-37.8451
-44.3113
-50.5618
-56.6404
-62.5256
-68.2312
-73.7634
-79.1039
-84.2269
-89.0896
-93.6285
-97.7691
-101.424
-104.508
-106.961
-108.714
-109.765
-110.106
-109.688
-108.407
-106.07
-102.582
-97.9654
-92.2076
-85.3813
-77.5622
-68.7969
-59.2743
-49.2013
-38.6958
-27.9721
19.1141
23.8725
29.0184
34.3068
39.2044
43.7896
47.8661
51.1414
53.5894
55.338
56.4792
57.1322
57.4254
57.447
57.2633
56.9149
56.4216
55.7897
55.0108
54.0641
52.9204
51.5403
49.874
47.8862
45.6081
43.1151
40.4592
37.6794
34.8359
32.0156
29.3089
26.8157
24.6613
22.9518
21.8048
21.2836
21.4176
22.13
23.1778
12.809
7.65855
1.74856
-4.55471
-10.7384
-17.2381
-23.7675
-30.1283
-36.4014
-42.4808
-48.3443
-54.0343
-59.5309
-64.8483
-69.9938
-74.9522
-79.7008
-84.2023
-88.4009
-92.2307
-95.6148
-98.4766
-100.761
-102.408
-103.418
-103.794
-103.491
-102.413
-100.39
-97.3175
-93.1952
-88.0049
-81.7944
-74.6245
-66.5234
-57.6375
-48.1235
-38.0669
-27.746
17.6179
22.1599
27.0785
32.1405
36.8341
41.236
45.1582
48.3182
50.6891
52.3938
53.5201
54.1809
54.5003
54.5635
54.4342
54.1527
53.74
53.2033
52.5362
51.7211
50.7314
49.5312
48.0735
46.3229
44.3048
42.0849
39.7084
37.208
34.6343
32.0622
29.5723
27.2534
25.2166
23.5601
22.392
21.771
21.7255
22.1749
22.9053
11.6422
6.73506
1.10915
-4.88247
-10.7503
-16.9096
-23.0857
-29.0907
-35.0016
-40.7172
-46.2178
-51.5437
-56.6768
-61.632
-66.417
-71.0189
-75.418
-79.582
-83.4616
-86.9989
-90.1258
-92.7737
-94.893
-96.4313
-97.3924
-97.7867
-97.575
-96.6675
-94.915
-92.2114
-88.5353
-83.8639
-78.2239
-71.6611
-64.1901
-55.9191
-46.9635
-37.3866
-27.5088
16.2292
20.5647
25.2659
30.111
34.6092
38.8349
42.6084
45.6568
47.953
49.6145
50.7251
51.3915
51.7336
51.8334
51.7528
51.5313
51.1903
50.7382
50.1707
49.4726
48.6202
47.5808
46.3104
44.7743
42.9923
41.0223
38.9033
36.6625
34.3427
32.0071
29.7267
27.5802
25.6644
24.0687
22.891
22.1856
21.9799
22.1934
22.6393
10.5663
5.89128
0.53613
-5.15889
-10.7267
-16.5631
-22.4048
-28.0737
-33.6429
-39.0164
-44.176
-49.161
-53.9542
-58.5709
-63.0195
-67.289
-71.3625
-75.2115
-78.7927
-82.0553
-84.9388
-87.3819
-89.3402
-90.7693
-91.6755
-92.0751
-91.9336
-91.1689
-89.6498
-87.2716
-83.9971
-79.7982
-74.6844
-68.6876
-61.8118
-54.1329
-45.7322
-36.6576
-27.2547
14.9416
19.0796
23.5728
28.2102
32.5208
36.5773
40.2076
43.1483
45.3717
46.9907
48.0847
48.755
49.1168
49.2493
49.2118
49.0439
48.7668
48.3901
47.9111
47.3171
46.5869
45.691
44.5883
43.2454
41.6774
39.935
38.0521
36.0516
33.9685
31.8564
29.7771
27.799
26.0056
24.477
23.3005
22.526
22.1793
22.1838
22.3778
9.57561
5.12211
0.0250841
-5.38737
-10.6702
-16.2
-21.7251
-27.0761
-32.3228
-37.3744
-42.2141
-46.8793
-51.3547
-55.6551
-59.79
-63.7495
-67.5196
-71.075
-74.3775
-77.3824
-80.0365
-82.2847
-84.0875
-85.4077
-86.2543
-86.6486
-86.5605
-85.9146
-84.596
-82.504
-79.5901
-75.8205
-71.1908
-65.7199
-59.4048
-52.2943
-44.4424
-35.8844
-26.9807
13.7484
17.698
21.9918
26.4302
30.5609
34.4547
37.947
40.7837
42.9365
44.5137
45.5903
46.2627
46.6415
46.8029
46.8041
46.684
46.4639
46.1542
45.7538
45.2521
44.6308
43.8625
42.9099
41.7406
40.3659
38.8301
37.1628
35.3829
33.5195
31.617
29.7287
27.9135
26.2424
24.7859
23.6204
22.7912
22.3228
22.1443
22.118
8.66461
4.42243
-0.428202
-5.57145
-10.5834
-15.822
-21.0471
-26.0974
-31.04
-35.7884
-40.3274
-44.6928
-48.8706
-52.876
-56.718
-60.3887
-63.8762
-67.1582
-70.2009
-72.9648
-75.4029
-77.4662
-79.1196
-80.3325
-81.1168
-81.4973
-81.4477
-80.9003
-79.7535
-77.9128
-75.3218
-71.9416
-67.7565
-62.7738
-56.9855
-50.4186
-43.1067
-35.0735
-26.6859
12.6438
16.4132
20.5163
24.7636
28.7217
32.4592
35.8185
38.5545
40.6389
42.1749
43.2337
43.9067
44.2999
44.4868
44.5225
44.4449
44.2756
44.0255
43.695
43.2752
42.7503
42.0956
41.2769
40.2632
39.0626
37.7137
36.2423
34.6642
33.0031
31.2958
29.5874
27.9283
26.3779
24.997
23.8513
22.9814
22.41
22.0734
21.8569
7.82806
3.78773
-0.827912
-5.71459
-10.4688
-15.431
-20.3714
-25.1374
-29.7928
-34.2556
-38.5117
-42.5961
-46.4955
-50.2251
-53.7941
-57.1959
-60.4204
-63.448
-66.2487
-68.7877
-71.0231
-72.9118
-74.4225
-75.5308
-76.251
-76.6104
-76.5874
-76.1205
-75.1207
-73.4999
-71.1977
-68.1702
-64.393
-59.8633
-54.569
-48.5211
-41.7372
-34.2311
-26.3689
11.6223
15.2193
19.1397
23.2039
26.9961
30.5833
33.8144
36.4532
38.471
39.9663
41.0068
41.679
42.0844
42.2938
42.3601
42.3203
42.1962
41.9989
41.7302
41.3831
40.9435
40.3898
39.6902
38.8155
37.7713
36.5909
35.297
33.9024
32.4266
30.8997
29.3596
27.8486
26.4159
25.1129
23.9948
23.0973
22.4408
21.9697
21.5912
7.06102
3.21345
-1.17787
-5.82002
-10.3292
-15.0286
-19.6991
-24.1962
-28.5801
-32.7737
-36.7643
-40.5848
-44.2236
-47.6954
-51.0098
-54.1612
-57.1411
-59.9323
-62.5081
-64.8375
-66.8836
-68.6078
-69.983
-70.9899
-71.6452
-71.9783
-71.9714
-71.5693
-70.6943
-69.2655
-67.2209
-64.5126
-61.1094
-56.9998
-52.1686
-46.6148
-40.3441
-33.3617
-26.0272
10.6784
14.1104
17.856
21.7443
25.3774
28.8198
31.9273
34.472
36.4251
37.8805
38.9023
39.5723
39.9878
40.2168
40.3101
40.3039
40.2198
40.0693
39.8553
39.5723
39.2082
38.7437
38.1499
37.3994
36.4952
35.4663
34.3324
33.104
31.7969
30.4357
29.0518
27.6802
26.3612
25.137
24.0533
23.1403
22.416
21.8325
21.318
6.35877
2.69538
-1.48182
-5.89086
-10.1667
-14.6166
-19.031
-23.2735
-27.4012
-31.341
-35.0817
-38.6547
-42.0495
-45.2805
-48.3575
-51.2759
-54.0284
-56.6
-58.967
-61.1017
-62.9711
-64.5411
-65.7884
-66.6979
-67.2885
-67.5911
-67.5916
-67.2406
-66.4706
-65.2085
-63.3927
-60.9728
-57.9123
-54.192
-49.7944
-44.7097
-38.9349
-32.4678
-25.6565
9.80699
13.0812
16.6591
20.3787
23.8588
27.162
30.1503
32.6041
34.4941
35.9102
36.9128
37.5793
38.003
38.249
38.3661
38.3895
38.3407
38.2316
38.0658
37.8391
37.5416
37.1559
36.6559
36.0157
35.2367
34.3436
33.3535
32.2751
31.1209
29.9109
28.6708
27.4295
26.2191
25.0738
24.03
23.1126
22.3369
21.6615
21.0347
5.71694
2.22941
-1.74323
-5.93012
-9.98381
-14.1967
-18.3683
-22.3696
-26.2551
-29.9557
-33.4612
-36.8021
-39.9684
-42.9745
-45.8302
-48.5317
-51.0732
-53.4411
-55.6144
-57.5684
-59.2736
-60.6998
-61.8267
-62.6435
-63.1704
-63.4395
-63.44
-63.1283
-62.4457
-61.3273
-59.7137
-57.5533
-54.8056
-51.4459
-47.4536
-42.8129
-37.5143
-31.5492
-25.2504
9.00329
12.1265
15.5436
19.1015
22.4346
25.6037
28.477
30.8425
32.6711
34.0485
35.0316
35.6933
36.1233
36.3838
36.5217
36.5712
36.5535
36.4806
36.3571
36.1801
35.9409
35.6245
35.2073
34.6651
33.9975
33.2258
32.3646
31.4209
30.4048
29.332
28.2237
27.1031
25.9957
24.9282
23.9288
23.017
22.2049
21.4571
20.7395
5.13128
1.81184
-1.96555
-5.94054
-9.78296
-13.7704
-17.7116
-21.4846
-25.1413
-28.6164
-31.9009
-35.0237
-37.9762
-40.7722
-43.4215
-45.9213
-48.2667
-50.4458
-52.4399
-54.2266
-55.7795
-57.0721
-58.0866
-58.8159
-59.281
-59.5146
-59.5092
-59.2266
-58.6159
-57.6202
-56.1838
-54.2555
-51.7923
-48.7651
-45.1507
-40.9287
-36.0847
-30.6041
-24.8015
8.2628
11.2413
14.5046
17.9069
21.0986
24.1387
26.9009
29.181
30.9498
32.2888
33.252
33.908
34.3425
34.6152
34.771
34.8432
34.8527
34.8116
34.7249
34.5912
34.4031
34.1475
33.8032
33.3476
32.779
32.1154
31.3694
30.5465
29.6544
28.7057
27.7173
26.7079
25.6973
24.7059
23.7542
22.8569
22.0225
21.22
20.4316
4.59785
1.43905
-2.15192
-5.92482
-9.56618
-13.3393
-17.0619
-20.6188
-24.0592
-27.3218
-30.3982
-33.3164
-36.0687
-38.6685
-41.1257
-43.4379
-45.6014
-47.6056
-49.4338
-51.0658
-52.4783
-53.6471
-54.5573
-55.2044
-55.6104
-55.808
-55.7923
-55.53
-54.9776
-54.0856
-52.8032
-51.0808
-48.8747
-46.1526
-42.8889
-39.0598
-34.6468
-29.63
-24.303