/*--------------------------------*- C++ -*----------------------------------*\
| =========                 |                                                 |
| \\      /  F ield         | OpenFOAM: The Open Source CFD Toolbox           |
|  \\    /   O peration     | Version:  2312                                  |
|   \\  /    A nd           | Website:  www.openfoam.com                      |
|    \\/     M anipulation  |                                                 |
\*---------------------------------------------------------------------------*/
FoamFile
{
    version     2.0;
    format      ascii;
    arch        "LSB;label=32;scalar=64";
    class       volScalarField;
    location    "200";
    object      turbulenceProperties:nuEff;
}
// * * * * * * * * * * * * * * * * * * * * * * * * * * * * * * * * * * * * * //

dimensions      [0 2 -1 0 0 0 0];

internalField   nonuniform List<scalar> 
10720
(
7.94865e-05
0.000118816
0.000153453
0.000159542
0.000144751
0.000130309
0.000124153
0.000126653
0.000138823
0.000161483
0.000197708
0.000256525
0.000355236
0.000512954
0.000829205
0.00156205
0.00288672
0.00588859
0.0113281
0.0180353
0.0267959
0.043839
0.0855696
0.186532
0.376428
0.556107
1.21177
2.10271
1.45458
0.516645
0.150592
0.0154941
0.00341217
0.000483777
1e-05
1e-05
8.30248e-05
0.00676856
0.461506
9.20898e-05
0.000102665
8.84167e-05
0.00016775
5.76643e-05
0.000114583
0.00015949
0.000192055
0.000202266
0.000194317
0.000192541
0.00020525
0.000233712
0.000295471
0.000392744
0.000628804
0.000982693
0.00287009
0.0032024
0.00375657
0.00502336
0.00707441
0.00893265
0.0119407
0.0157083
0.0197937
0.0165376
0.00904179
0.00345279
0.000904303
0.000120971
1.66976e-05
1.20403e-05
1.0853e-05
1e-05
0.000300038
0.0183548
0.00577661
0.337139
0.000336863
0.000358763
0.000337032
0.00022041
0.000137207
9.129e-05
7.20016e-05
6.49633e-05
6.39523e-05
6.61556e-05
7.04662e-05
7.5581e-05
9.05875e-05
0.000138889
0.000267561
0.000671135
0.00162416
0.00373809
0.00813061
0.0151887
0.0245157
0.0357476
0.0597835
0.0842347
0.321259
0.395956
1.14309
1.35278
1.18192
1.63346
1.0016
0.250491
0.0654873
0.00879074
0.000150949
1e-05
0.000259362
0.0313932
0.670988
7.41507e-05
4.06718e-05
3.8084e-05
9.3942e-05
9.34667e-05
9.53067e-05
6.864e-05
7.25929e-05
8.29803e-05
9.58657e-05
0.000110118
0.000124119
0.000136858
0.000149134
0.0001441
0.00134371
0.00224751
0.00628779
0.010848
0.000408344
0.00499252
0.00196542
0.0111687
0.000140655
0.000179914
0.000217543
0.00046297
0.000466121
0.000378245
0.000294926
0.000165903
8.31868e-05
4.53836e-05
2.35936e-05
1.02808e-05
7.17736e-05
0.00416952
0.00415278
0.270048
7.88372e-05
1.70447e-05
9.01219e-05
9.07829e-05
9.31233e-05
9.7313e-05
0.000103607
0.000111152
0.000119606
0.000128117
0.000136441
0.000144734
0.000152162
0.000157324
0.000164128
0.000201883
0.000317819
0.000731879
0.00190309
0.00460739
0.00996434
0.0198193
0.046355
0.104576
0.163004
0.131024
0.629105
0.726861
0.485651
0.409959
0.389511
0.266739
0.0721974
0.0112105
0.000890199
0.000202538
0.000215258
0.0237459
0.731281
0.000107219
0.00011405
0.000141386
0.0001348
0.000110913
0.000100957
5.25789e-05
0.000101415
0.000127138
0.000148658
0.000181304
0.000227456
0.00029112
0.000377918
0.000493208
0.000643487
0.000734937
0.000781269
0.000273544
0.00104256
4.49598e-05
0.00104486
0.00504243
0.00141399
0.000107222
0.00184323
0.0030865
0.00249474
0.00185217
0.00132573
0.000767382
0.000318537
0.000152974
7.30733e-05
3.65241e-05
2.43469e-05
0.0110866
0.0143269
0.907569
0.000217113
0.000217383
0.000217481
0.000220368
0.000224088
0.000230177
0.000238425
0.000249312
0.000265649
0.000282889
0.000301548
0.000328402
0.000361738
0.000403991
0.000457484
0.000529208
0.000619963
0.000708554
0.000514433
0.000210024
1e-05
1e-05
1e-05
1e-05
0.0443445
1.0377e-05
1e-05
1e-05
1.00001e-05
1.00008e-05
1.00544e-05
7.12665e-05
0.0166913
0.0177876
0.00666535
0.00192512
0.00033552
0.0226869
0.952717
0.000252639
0.000223429
0.00020182
0.000123152
0.00021015
0.00020121
0.000173544
0.000178858
0.000188147
0.000199364
0.000212374
0.000228465
0.000247047
0.00026344
0.000278598
0.000293662
0.00030117
4.56596e-05
0.000125672
0.000198743
0.000226326
0.000292286
0.000268797
0.000238984
0.000272564
0.000279178
0.000276396
0.000270728
0.000274155
0.000278913
0.000277584
0.000264134
0.000248452
0.000225016
0.000246855
0.00013368
1.23758e-05
0.0132769
3.85611
0.000441296
0.000436167
0.000439852
0.000447807
0.000458796
0.000476738
0.000499518
0.000528241
0.000563833
0.000606296
0.000655515
0.000711217
0.000772465
0.000837858
0.000906385
0.000975834
0.0010512
0.00114253
0.00126017
0.00109687
0.000306024
0.000160974
1e-05
1e-05
1e-05
1e-05
1e-05
1e-05
1e-05
1e-05
1e-05
1.00002e-05
1.00289e-05
1e-05
0.00540209
0.0064112
0.000468683
0.0231908
0.565303
0.000431125
0.000260566
0.000226872
0.000236737
0.000410465
0.000490419
0.000527701
0.000573867
0.00063407
0.000713608
0.000816858
0.000948171
0.000991217
0.00095015
0.000909881
0.000875157
0.000887446
0.000831465
0.000743465
0.000721942
0.000695145
0.000667141
0.00064025
0.000615638
0.000594321
0.000574176
0.000555759
0.000539615
0.000526103
0.000512902
0.000496055
0.000480229
0.000469097
0.000471351
0.000418039
0.000581333
2.12096e-05
0.0201783
2.95027
0.000754104
0.00077565
0.000723635
0.000635775
0.000562074
0.00050506
0.000467922
0.000443326
0.000429548
0.000426649
0.000434402
0.000453049
0.000481927
0.000521262
0.000573003
0.000640957
0.000714253
0.000824779
0.00101256
0.00117838
0.00124082
0.000796255
0.000186122
0.000115158
1e-05
1e-05
1e-05
1e-05
1e-05
1e-05
1e-05
1e-05
1e-05
1e-05
1e-05
1e-05
1e-05
1.00055e-05
1.1095e-05
0.000293317
0.000192595
0.00039934
0.000863471
0.000904687
0.000956171
0.00101792
0.00109663
0.00119991
0.00133427
0.00150599
0.00172092
0.00182096
0.00179599
0.00177208
0.00176193
0.00174878
0.00173568
0.0017098
0.00168281
0.00165427
0.00162302
0.00158878
0.00155228
0.00151306
0.00147202
0.00143295
0.00139556
0.00136124
0.00133292
0.0013073
0.00126611
0.00120903
0.00115429
0.00102176
0.00102201
3.01977e-05
0.0133161
1.35591
0.000151058
0.000168354
0.000168595
0.000164187
0.000167729
0.000174047
0.000178259
0.000184063
0.00019037
0.000197021
0.000205423
0.000215029
0.000225852
0.000238471
0.000253072
0.000270399
0.000287925
0.000314871
6.13892e-05
0.000237411
0.000450108
0.00064349
0.000701516
0.000541445
0.000225447
1e-05
1e-05
1e-05
1e-05
1e-05
1e-05
1e-05
1e-05
1e-05
1e-05
1e-05
1e-05
1e-05
1.00013e-05
0.000296519
0.000961068
0.00149391
0.00154769
0.00121931
0.000949729
0.000966523
0.000990048
0.001017
0.00104906
0.00108335
0.00111586
0.00116012
0.00121242
0.00126446
0.00131779
0.00134537
0.00134738
0.00133634
0.00131928
0.00129797
0.00127333
0.001246
0.00121672
0.00118514
0.00115317
0.00112394
0.00109656
0.0010721
0.00105145
0.00103683
0.00102982
0.00102315
0.00101495
0.000985681
0.00109353
3.29725e-05
0.00798036
0.522216
0.000526049
0.00051292
0.00058443
0.000649079
0.000718151
0.000788905
0.000845621
0.000888704
0.000922295
0.000948821
0.000969264
0.000983927
0.000993028
0.000997824
0.0009991
0.000996476
0.000985288
0.000964128
0.000966462
0.000861435
0.000732603
0.000752503
0.000826292
0.000836582
0.000973104
1e-05
1e-05
1e-05
1e-05
1e-05
1e-05
1e-05
1e-05
1e-05
1e-05
1e-05
1e-05
1e-05
1e-05
0.00141756
0.00165708
0.00109521
0.000440011
6.30479e-05
0.000148029
0.000147039
0.000151804
1.65761e-05
5.0715e-05
7.72731e-05
0.000106942
0.000140517
0.000179898
0.000230466
0.00028457
0.000317854
0.00033301
0.000338972
0.000339412
0.000335884
0.000329608
0.000321506
0.00031258
0.000303819
0.000295703
0.000288627
0.000282728
0.000278465
0.000275285
0.000273876
0.00028444
0.000310716
0.000353981
0.000396655
0.000619202
3.76291e-05
0.00297809
0.166351
0.00153042
0.00135271
0.00135648
0.00135165
0.00135403
0.00136547
0.00136822
0.00136129
0.00135744
0.0013585
0.00136182
0.0013649
0.00136743
0.00137401
0.00138207
0.00138632
0.00137707
0.00139127
0.0014092
0.00133772
0.0012259
0.00113485
0.00108403
0.000982319
0.00123629
1.00001e-05
1e-05
1e-05
1e-05
1e-05
1e-05
1e-05
1e-05
1e-05
1e-05
1e-05
1e-05
1e-05
1e-05
0.00141464
0.000604189
0.000229809
9.32272e-05
6.68335e-05
6.14917e-05
6.00252e-05
6.34481e-05
6.60864e-05
6.62959e-05
6.99218e-05
7.53448e-05
8.07975e-05
8.68572e-05
9.4812e-05
0.000103945
0.000110196
0.000114086
0.000116813
0.000118814
0.00012017
0.000120996
0.000121289
0.000121115
0.000120683
0.000120181
0.000119765
0.000119491
0.000119493
0.000119626
0.000119982
0.000122286
0.000126511
0.000138365
0.000142788
1.13361e-05
7.50692e-05
0.000269751
0.0134112
0.00093726
0.000866863
0.000771219
0.00069752
0.000622189
0.000581338
0.000564471
0.000543613
0.000535219
0.000540254
0.000549369
0.000560692
0.000573763
0.000601721
0.000640633
0.000675089
0.000713095
0.000766298
0.000849872
0.000943846
0.00100796
0.00102861
0.00104226
0.000971149
0.00119308
1.00005e-05
1e-05
1e-05
1e-05
1e-05
1e-05
1e-05
1e-05
1e-05
1e-05
1e-05
1e-05
1e-05
1e-05
0.000270564
0.000125984
0.000117667
0.000206056
0.000380119
0.00038275
0.000366901
0.000392974
0.000406309
0.000371068
0.000370073
0.000376822
0.000375202
0.000368873
0.000359502
0.000349423
0.000339363
0.00033044
0.000322695
0.000315926
0.000309782
0.00030401
0.000298052
0.000292086
0.000286603
0.000281409
0.000276545
0.000271953
0.000267735
0.000263693
0.00025945
0.000251776
0.000235896
0.000237658
0.000203867
0.00012021
0.000185868
3.16058e-05
0.00328441
2.9769e-05
6.69099e-05
0.000122582
0.000107804
0.000103289
0.000106825
0.00011192
0.00011413
0.000117577
0.000121885
0.000126971
0.000132111
0.00013729
0.000148346
0.000155881
0.000159392
0.000169211
0.000183453
2.74748e-05
0.000159893
0.000311247
0.000447523
0.000580272
0.000622509
0.000918629
1.00022e-05
1e-05
1e-05
1e-05
1e-05
1e-05
1e-05
1e-05
1e-05
1e-05
1e-05
1e-05
1e-05
1e-05
9.8871e-05
8.9054e-05
0.000665845
0.000897569
0.000963082
0.000984402
0.000973634
0.000982384
0.000996028
0.00096174
0.000960153
0.000975859
0.000965929
0.000952411
0.000935912
0.000918295
0.000902543
0.000888049
0.000874283
0.000860777
0.000847122
0.000832438
0.000816514
0.000800402
0.000784934
0.000770136
0.000756226
0.000742947
0.000730612
0.000718734
0.000707706
0.000696849
0.00067542
0.000644001
0.000597131
0.000541016
0.000494482
9.22152e-05
1.17242e-05
0.000140161
0.00010249
2.71578e-05
6.14821e-05
8.92925e-05
0.000142397
0.000198643
0.000227663
0.000251757
0.000269979
0.000283294
0.000292676
0.000298212
0.000324454
0.000311584
0.000273875
0.000272401
0.000270959
0.000265743
0.000254778
0.000272995
0.000326449
0.00041269
0.000439277
0.000719584
1.00103e-05
1e-05
1e-05
1e-05
1e-05
1e-05
1e-05
1e-05
1e-05
1e-05
1e-05
1e-05
1e-05
1e-05
0.000387265
0.000875167
0.000952137
0.000718483
0.000658449
0.000634422
0.000631292
0.000615428
0.000617049
0.000634658
0.000633374
0.000636904
0.000634903
0.000630234
0.000624358
0.000618624
0.000612742
0.000606469
0.00059958
0.000591867
0.000583068
0.000573119
0.000562443
0.000551876
0.000541915
0.000532484
0.000523593
0.000515151
0.000507487
0.000500225
0.000493867
0.000491055
0.00049454
0.00049792
0.000497164
0.000492253
0.000503326
0.000439308
4.77756e-05
0.000666635
0.000684874
0.000755266
0.000828443
0.000894162
0.000937519
0.000972832
0.00100151
0.00102424
0.00104002
0.00104932
0.00105383
0.00105483
0.00105215
0.00105029
0.00104511
0.00106726
0.00105199
0.00100176
0.000945876
0.000859748
0.000777311
0.000728384
0.000645184
0.000793469
1.00649e-05
1e-05
1e-05
1e-05
1e-05
1e-05
1e-05
1e-05
1e-05
1e-05
1e-05
1e-05
1e-05
1e-05
0.000962559
0.000805966
0.000329034
9.84751e-05
5.85442e-05
3.77718e-05
3.69144e-05
3.97248e-05
4.48873e-05
5.16961e-05
5.46409e-05
5.73281e-05
6.01369e-05
6.305e-05
6.58385e-05
6.83739e-05
7.04722e-05
7.20461e-05
7.30048e-05
7.3323e-05
7.29985e-05
7.217e-05
7.10065e-05
6.9858e-05
6.89692e-05
6.82614e-05
6.77519e-05
6.74734e-05
6.75303e-05
6.77931e-05
6.80407e-05
6.9093e-05
8.28936e-05
0.000108168
0.000141835
0.000191794
0.000246306
0.000332866
0.000142852
0.000885734
0.000783616
0.000760137
0.00075903
0.000754891
0.000752041
0.000750957
0.000752727
0.000759656
0.000767629
0.000774403
0.000782472
0.000793583
0.000807777
0.000824354
0.000843364
0.000865378
0.000888126
0.000911987
0.000936166
0.000952277
0.000942084
0.000896819
0.000800514
0.000878781
1.03936e-05
1e-05
1e-05
1e-05
1e-05
1e-05
1e-05
1e-05
1e-05
1e-05
1e-05
1e-05
1e-05
1e-05
0.00057974
0.000111374
6.77292e-05
4.46745e-05
4.28913e-05
4.46825e-05
4.58413e-05
4.59267e-05
4.59869e-05
4.6316e-05
4.572e-05
4.51688e-05
4.5026e-05
4.50541e-05
4.53302e-05
4.58914e-05
4.65745e-05
4.73783e-05
4.82369e-05
4.90988e-05
4.99312e-05
5.07331e-05
5.14988e-05
5.22005e-05
5.27874e-05
5.32897e-05
5.37745e-05
5.42449e-05
5.47379e-05
5.52252e-05
5.56311e-05
5.60538e-05
5.81548e-05
6.1503e-05
6.81165e-05
7.37441e-05
8.04874e-05
0.000105232
0.000123015
0.000292952
0.00028378
0.000219128
0.000182183
0.000153048
0.000130653
0.000115222
0.000107259
0.000109166
0.000114745
0.000120342
0.000130293
0.00014654
0.000166873
0.000190512
0.000217428
0.000248482
0.000279241
0.000309619
0.000369904
0.000467572
0.000556347
0.000625897
0.000644305
0.000752182
1.17762e-05
1e-05
1e-05
1e-05
1e-05
1e-05
1e-05
1e-05
1e-05
1e-05
1e-05
1e-05
1e-05
1e-05
0.000118756
4.2219e-05
8.86113e-05
0.000169019
0.000192484
0.000219985
0.000226748
0.000227747
0.000226313
0.000224177
0.000221641
0.000218868
0.000216209
0.000213702
0.000211285
0.000209002
0.000206842
0.000204791
0.000202844
0.000200964
0.00019914
0.00019737
0.000195652
0.000194028
0.000192481
0.000190865
0.000189161
0.000187357
0.000185519
0.000183644
0.000181607
0.000178961
0.00017022
0.000154374
0.00014485
0.000111187
6.55721e-05
8.33211e-05
0.000124166
5.13276e-05
5.63741e-05
5.77477e-05
5.6534e-05
5.76956e-05
5.90425e-05
5.88524e-05
5.95367e-05
6.11258e-05
6.26434e-05
6.43017e-05
6.64829e-05
6.96629e-05
7.37149e-05
7.83901e-05
8.38442e-05
9.029e-05
9.70168e-05
0.000103845
0.000118894
0.000135504
4.06516e-05
0.000153563
0.000249856
0.000387394
1.4844e-05
1e-05
1e-05
1e-05
1e-05
1e-05
1e-05
1e-05
1e-05
1e-05
1e-05
1e-05
1e-05
1e-05
7.38214e-05
0.000161336
0.000456997
0.000569707
0.000574274
0.000585332
0.000588167
0.000586272
0.000583003
0.0005796
0.000576415
0.00057336
0.000570514
0.000567776
0.000564946
0.000561981
0.000558805
0.000555335
0.000551536
0.00054737
0.000542875
0.000538089
0.000533036
0.000527855
0.000522661
0.000517284
0.000511727
0.000505988
0.000500261
0.000494676
0.000488842
0.000483317
0.000473774
0.000454826
0.000425733
0.000381982
0.000333682
0.000260498
0.000209043
3.94261e-05
8.19878e-05
0.00013664
0.000178802
0.000213195
0.000240708
0.000259451
0.000271985
0.000280704
0.000286858
0.000290672
0.00029277
0.000293941
0.000294207
0.000293508
0.000292424
0.000291463
0.00029062
0.000288956
0.000304776
0.000268515
0.000211358
0.000208697
0.000231035
0.000276952
2.36981e-05
1e-05
1e-05
1e-05
1e-05
1e-05
1e-05
1e-05
1e-05
1e-05
1e-05
1e-05
1e-05
1e-05
0.000376542
0.000566914
0.000555369
0.00042646
0.000408122
0.000400299
0.000396929
0.000393666
0.000391106
0.000389263
0.000388321
0.000387982
0.000387904
0.000387936
0.000387924
0.000387698
0.000387214
0.000386398
0.0003852
0.000383571
0.000381518
0.000379078
0.000376239
0.000373136
0.000369948
0.000366646
0.000363223
0.000359684
0.000356184
0.000352814
0.000349455
0.000347406
0.000349331
0.000353756
0.000356175
0.000355127
0.000345925
0.00030927
0.000256078
0.000546975
0.000556518
0.000599793
0.000638902
0.000665404
0.000683618
0.000694703
0.000700623
0.000703918
0.000705706
0.000706608
0.000707084
0.000707231
0.000706958
0.000706069
0.000705097
0.000704441
0.00070344
0.000701544
0.000698383
0.000673253
0.000642712
0.000563318
0.000472823
0.000417738
5.95896e-05
1e-05
1e-05
1e-05
1e-05
1e-05
1e-05
1e-05
1e-05
1e-05
1e-05
1e-05
1e-05
1e-05
0.000618612
0.000429114
0.000154363
6.7681e-05
5.59851e-05
4.65358e-05
4.3088e-05
4.15099e-05
4.05796e-05
4.02404e-05
4.03627e-05
4.08488e-05
4.15683e-05
4.24413e-05
4.34015e-05
4.44069e-05
4.54089e-05
4.63901e-05
4.73087e-05
4.81442e-05
4.88705e-05
4.94953e-05
5.00242e-05
5.05162e-05
5.10154e-05
5.14939e-05
5.19494e-05
5.23812e-05
5.28378e-05
5.32869e-05
5.36418e-05
5.39201e-05
5.84898e-05
7.44696e-05
9.90563e-05
0.000135749
0.000178467
0.000207954
0.000205963
0.000531187
0.000487531
0.000474136
0.00047061
0.000461085
0.000450769
0.000442809
0.000437086
0.000434366
0.000434408
0.000436241
0.000439464
0.000443719
0.000448752
0.000454317
0.000460726
0.000468282
0.000476661
0.000485736
0.000500318
0.000526046
0.000545517
0.000547082
0.000533946
0.000480947
0.000149839
1e-05
1e-05
1e-05
1e-05
1e-05
1e-05
1e-05
1e-05
1e-05
1e-05
1e-05
1e-05
1e-05
0.000263378
2.86951e-05
3.37682e-05
2.20231e-05
2.15648e-05
2.18552e-05
2.26204e-05
2.27212e-05
2.24989e-05
2.22516e-05
2.18643e-05
2.15147e-05
2.13243e-05
2.1198e-05
2.11787e-05
2.12995e-05
2.15051e-05
2.18066e-05
2.21874e-05
2.26344e-05
2.31236e-05
2.36528e-05
2.42165e-05
2.4772e-05
2.52582e-05
2.56957e-05
2.61202e-05
2.65334e-05
2.69426e-05
2.73404e-05
2.77086e-05
2.80095e-05
2.90608e-05
3.1564e-05
3.67544e-05
4.1658e-05
5.03168e-05
6.59691e-05
0.000113788
0.000110252
0.000120177
8.32431e-05
6.23876e-05
4.58537e-05
3.22657e-05
2.24975e-05
1.67591e-05
1.45494e-05
1.51077e-05
1.74133e-05
2.08417e-05
2.51083e-05
3.02878e-05
3.63591e-05
4.32569e-05
5.12139e-05
6.04022e-05
7.05545e-05
8.30975e-05
0.00011226
0.000166087
0.000234469
0.00029899
0.0003219
0.000236341
1e-05
1e-05
1e-05
1e-05
1e-05
1e-05
1e-05
1e-05
1e-05
1e-05
1e-05
1e-05
1e-05
5.59579e-05
2.49082e-05
4.8686e-05
3.31686e-05
4.06091e-05
5.03292e-05
5.84782e-05
6.22522e-05
6.33581e-05
6.33988e-05
6.29353e-05
6.22197e-05
6.15259e-05
6.0882e-05
6.02505e-05
5.96989e-05
5.92256e-05
5.88143e-05
5.84688e-05
5.81916e-05
5.79713e-05
5.77976e-05
5.76871e-05
5.76468e-05
5.76223e-05
5.75398e-05
5.74074e-05
5.72513e-05
5.70734e-05
5.68807e-05
5.66708e-05
5.62409e-05
5.49776e-05
4.82884e-05
4.52281e-05
2.64969e-05
4.73538e-05
2.61121e-05
6.68464e-05
2.51684e-05
2.73203e-05
2.49462e-05
2.31155e-05
2.25612e-05
2.23275e-05
2.18926e-05
2.17067e-05
2.17248e-05
2.18907e-05
2.23247e-05
2.28966e-05
2.35853e-05
2.44921e-05
2.55918e-05
2.68839e-05
2.84138e-05
3.02025e-05
3.22009e-05
3.46102e-05
3.93351e-05
4.85119e-05
5.84414e-05
3.0972e-05
8.28333e-05
0.000181633
1e-05
1e-05
1e-05
1e-05
1e-05
1e-05
1e-05
1e-05
1e-05
1e-05
1e-05
1e-05
1e-05
5.23064e-05
0.000104137
0.000260468
0.000302401
0.000303351
0.000307761
0.000315092
0.000318275
0.000317918
0.000316532
0.000315331
0.000314434
0.000313792
0.000313298
0.000312816
0.000312315
0.000311767
0.000311123
0.000310364
0.000309452
0.000308379
0.000307145
0.000305741
0.000304185
0.00030252
0.000300691
0.000298688
0.000296571
0.00029434
0.00029208
0.000289868
0.000287582
0.000285475
0.000275809
0.000256705
0.000226831
0.000188815
0.000149645
0.000123741
2.09011e-05
2.48343e-05
3.82557e-05
5.08542e-05
6.30071e-05
7.43178e-05
8.28807e-05
8.77301e-05
9.03651e-05
9.17207e-05
9.24186e-05
9.28256e-05
9.30105e-05
9.32045e-05
9.35065e-05
9.37956e-05
9.41142e-05
9.4376e-05
9.45103e-05
9.42871e-05
9.06616e-05
8.80041e-05
6.11584e-05
3.77915e-05
3.57419e-05
0.000119164
1.00003e-05
1e-05
1e-05
1e-05
1e-05
1e-05
1e-05
1e-05
1e-05
1e-05
1e-05
1e-05
1e-05
0.000251913
0.000346104
0.000336223
0.000291688
0.000295584
0.00029166
0.000290631
0.000290488
0.00028884
0.000287103
0.000286312
0.000286276
0.000286569
0.000286982
0.000287391
0.000287702
0.000287889
0.000287926
0.000287771
0.000287401
0.00028681
0.000286016
0.000284996
0.00028376
0.000282407
0.000280939
0.000279321
0.000277593
0.000275761
0.000273859
0.000271998
0.000270194
0.000270196
0.000271272
0.000267972
0.000263102
0.000248049
0.000209795
0.000168962
0.00033613
0.000324412
0.000335559
0.000348137
0.00035706
0.00036391
0.000369126
0.000371247
0.000371801
0.000372032
0.000372112
0.000372229
0.000372178
0.000372381
0.000372758
0.000373114
0.000373585
0.000373881
0.000373716
0.000373326
0.000372685
0.000356246
0.000321625
0.000278603
0.00023389
0.000222107
1.00064e-05
1e-05
1e-05
1e-05
1e-05
1e-05
1e-05
1e-05
1e-05
1e-05
1e-05
1e-05
1e-05
0.000390601
0.000258503
0.00011865
8.78137e-05
8.72112e-05
8.33489e-05
7.92685e-05
7.77727e-05
7.65612e-05
7.54978e-05
7.49989e-05
7.49262e-05
7.50053e-05
7.51193e-05
7.5249e-05
7.5375e-05
7.55027e-05
7.56402e-05
7.57819e-05
7.59304e-05
7.6092e-05
7.62771e-05
7.64904e-05
7.67249e-05
7.6968e-05
7.71985e-05
7.74051e-05
7.75455e-05
7.76532e-05
7.76942e-05
7.76855e-05
7.74713e-05
7.83736e-05
8.62713e-05
0.000102524
0.000122944
0.000143047
0.000155857
0.000147367
0.000355771
0.000340896
0.00033522
0.00033385
0.000330633
0.000327111
0.000325003
0.000322151
0.000319139
0.000317569
0.000316725
0.000316437
0.000316173
0.000316697
0.000318085
0.000319475
0.00032113
0.000322918
0.000324644
0.000326614
0.00033252
0.000340602
0.000339915
0.00033315
0.000307761
0.000291645
1.00988e-05
1e-05
1e-05
1e-05
1e-05
1e-05
1e-05
1e-05
1e-05
1e-05
1e-05
1e-05
1e-05
0.000172662
2.8086e-05
2.87515e-05
2.20207e-05
2.21351e-05
2.18108e-05
2.11993e-05
2.07382e-05
2.03106e-05
1.99407e-05
1.9529e-05
1.91804e-05
1.89514e-05
1.8742e-05
1.86104e-05
1.85885e-05
1.86321e-05
1.87635e-05
1.89729e-05
1.92514e-05
1.95872e-05
1.99804e-05
2.04275e-05
2.0869e-05
2.12366e-05
2.15676e-05
2.19001e-05
2.22232e-05
2.25396e-05
2.28401e-05
2.31262e-05
2.33651e-05
2.38227e-05
2.57234e-05
2.94324e-05
3.47162e-05
2.30994e-05
6.17521e-05
8.84534e-05
9.96333e-05
9.89683e-05
9.09088e-05
8.77512e-05
8.40161e-05
8.01824e-05
7.69756e-05
7.52145e-05
7.4001e-05
7.32567e-05
7.29411e-05
7.30168e-05
7.34883e-05
7.41384e-05
7.51143e-05
7.64881e-05
7.83445e-05
8.06952e-05
8.35184e-05
8.65359e-05
9.18466e-05
0.000110976
0.000139382
0.000172765
0.000195817
0.000225992
1.07798e-05
1.00001e-05
1e-05
1e-05
1e-05
1e-05
1e-05
1e-05
1e-05
1e-05
1e-05
1e-05
1e-05
4.27879e-05
1.58711e-05
2.42336e-05
2.63743e-05
2.7381e-05
2.88989e-05
2.99968e-05
3.03058e-05
3.02833e-05
3.01162e-05
2.95309e-05
2.88496e-05
2.83255e-05
2.78039e-05
2.74238e-05
2.72665e-05
2.72389e-05
2.7389e-05
2.77017e-05
2.81535e-05
2.87176e-05
2.93909e-05
3.01677e-05
3.09138e-05
3.14731e-05
3.19408e-05
3.24029e-05
3.28552e-05
3.32905e-05
3.37019e-05
3.40943e-05
3.44723e-05
3.48443e-05
3.45706e-05
3.28347e-05
2.97482e-05
2.92026e-05
3.39974e-05
3.59624e-05
2.26216e-05
2.26938e-05
2.2335e-05
2.13636e-05
2.09217e-05
2.04802e-05
1.9808e-05
1.95068e-05
1.92851e-05
1.90666e-05
1.89989e-05
1.8995e-05
1.90622e-05
1.92075e-05
1.94188e-05
1.97196e-05
2.01186e-05
2.06157e-05
2.12076e-05
2.18487e-05
2.28605e-05
2.60774e-05
3.08462e-05
3.95094e-05
4.30331e-05
8.73238e-05
1.29091e-05
1.00018e-05
1e-05
1e-05
1e-05
1e-05
1e-05
1e-05
1e-05
1e-05
1e-05
1e-05
1e-05
2.58053e-05
3.46313e-05
0.000105293
0.000119472
0.000124203
0.00013123
0.000137903
0.000142809
0.000146087
0.000148202
0.000149552
0.000150408
0.00015098
0.000151394
0.000151678
0.000151866
0.000151988
0.000152042
0.000152033
0.000151956
0.000151823
0.000151646
0.000151435
0.000151203
0.000150959
0.000150676
0.000150315
0.000149891
0.000149386
0.000148788
0.000148127
0.000147438
0.0001468
0.000142747
0.00013112
0.000112893
9.38935e-05
6.8575e-05
5.80866e-05
4.13965e-05
3.08515e-05
3.13972e-05
3.0159e-05
3.00828e-05
3.01646e-05
2.97102e-05
2.96155e-05
2.95585e-05
2.93776e-05
2.93885e-05
2.94128e-05
2.94606e-05
2.96076e-05
2.97729e-05
2.99876e-05
3.02392e-05
3.05087e-05
3.07718e-05
3.1027e-05
3.12881e-05
3.07676e-05
2.87862e-05
2.59409e-05
2.91339e-05
3.61137e-05
1.44723e-05
1.00135e-05
1e-05
1e-05
1e-05
1e-05
1e-05
1e-05
1e-05
1e-05
1e-05
1e-05
1e-05
0.000107073
0.000209304
0.00021928
0.000212813
0.000211292
0.000211437
0.00021248
0.00021338
0.00021375
0.000213634
0.000213351
0.000213056
0.000212799
0.000212619
0.000212473
0.000212335
0.000212215
0.000212089
0.000211945
0.000211763
0.000211553
0.000211313
0.000211029
0.000210694
0.000210327
0.000209907
0.00020938
0.000208767
0.000208062
0.000207236
0.000206331
0.000205437
0.000205043
0.000204242
0.000199468
0.000190409
0.000173
0.00013949
0.000109912
0.000161351
0.000160858
0.000154947
0.000152715
0.000150963
0.000150057
0.000149954
0.000150275
0.000150966
0.000151836
0.000152726
0.000153595
0.000154378
0.000155045
0.000155581
0.000156034
0.000156446
0.000156748
0.000156853
0.000156848
0.000156961
0.000152041
0.000137493
0.000117661
0.000101877
7.55359e-05
3.31789e-05
1.02171e-05
1.00001e-05
1e-05
1e-05
1e-05
1e-05
1e-05
1e-05
1e-05
1e-05
1e-05
1e-05
0.000248736
0.000197065
0.00012281
0.000116567
0.000112059
0.000106976
0.000102752
9.9592e-05
9.72611e-05
9.5324e-05
9.37786e-05
9.26424e-05
9.1804e-05
9.12019e-05
9.07535e-05
9.03889e-05
9.0086e-05
8.98275e-05
8.95737e-05
8.93307e-05
8.90799e-05
8.8821e-05
8.85606e-05
8.82835e-05
8.80204e-05
8.77694e-05
8.75102e-05
8.72467e-05
8.69993e-05
8.67327e-05
8.64778e-05
8.61936e-05
8.63029e-05
8.91815e-05
9.67495e-05
0.000107267
0.000116454
0.000118179
0.000108684
0.000241605
0.000225281
0.000222884
0.000220438
0.000218592
0.000217438
0.000217133
0.000217307
0.000217841
0.000218578
0.000219326
0.000220042
0.000220684
0.000221228
0.000221684
0.000222139
0.000222652
0.000223123
0.000223413
0.000223634
0.000224549
0.000225213
0.000219777
0.00020879
0.000193183
0.000165336
0.000105514
1.25928e-05
1.00059e-05
1e-05
1e-05
1e-05
1e-05
1e-05
1e-05
1e-05
1e-05
1e-05
1e-05
0.000166092
5.48844e-05
3.25514e-05
2.67888e-05
2.63538e-05
2.59169e-05
2.5274e-05
2.44325e-05
2.37018e-05
2.30761e-05
2.23223e-05
2.16206e-05
2.10899e-05
2.06027e-05
2.02307e-05
2.00188e-05
1.98998e-05
1.99077e-05
2.00293e-05
2.02547e-05
2.05636e-05
2.09555e-05
2.14257e-05
2.1878e-05
2.22063e-05
2.24789e-05
2.27571e-05
2.30382e-05
2.33252e-05
2.36084e-05
2.38935e-05
2.41705e-05
2.45172e-05
2.54042e-05
2.72458e-05
3.068e-05
2.75098e-05
5.27354e-05
6.79272e-05
0.000108
0.00010878
0.000102521
9.97963e-05
9.85723e-05
9.77994e-05
9.74238e-05
9.72792e-05
9.72287e-05
9.72506e-05
9.72674e-05
9.73063e-05
9.73712e-05
9.74646e-05
9.76275e-05
9.79065e-05
9.83436e-05
9.8927e-05
9.96028e-05
0.00010038
0.000101697
0.000106631
0.000116987
0.000127956
0.000136433
0.000139551
0.000126484
2.31015e-05
1.00858e-05
1e-05
1e-05
1e-05
1e-05
1e-05
1e-05
1e-05
1e-05
1e-05
1e-05
1.25367e-05
1.67195e-05
1.19783e-05
1.32199e-05
1.3934e-05
1.45082e-05
1.48903e-05
1.50364e-05
1.50755e-05
1.50749e-05
1.49458e-05
1.47667e-05
1.4617e-05
1.44525e-05
1.43162e-05
1.42398e-05
1.4198e-05
1.42104e-05
1.42752e-05
1.43908e-05
1.45494e-05
1.47546e-05
1.50053e-05
1.5255e-05
1.54427e-05
1.55959e-05
1.57483e-05
1.58991e-05
1.60487e-05
1.61938e-05
1.63346e-05
1.64697e-05
1.65825e-05
1.65682e-05
1.58984e-05
1.46504e-05
1.68793e-05
2.10436e-05
2.17734e-05
2.41169e-05
2.44011e-05
2.44035e-05
2.3382e-05
2.33158e-05
2.33436e-05
2.29942e-05
2.2876e-05
2.27612e-05
2.25525e-05
2.24698e-05
2.23956e-05
2.23461e-05
2.23749e-05
2.24344e-05
2.25532e-05
2.27213e-05
2.29359e-05
2.31805e-05
2.34449e-05
2.37816e-05
2.4637e-05
2.69073e-05
1.58941e-05
3.5379e-05
5.63796e-05
7.30337e-05
3.95668e-05
1.0611e-05
1.00012e-05
1e-05
1e-05
1e-05
1e-05
1e-05
1e-05
1e-05
1e-05
1e-05
1.21863e-05
2.3442e-05
2.30447e-05
3.12471e-05
3.55568e-05
3.86283e-05
4.10045e-05
4.27107e-05
4.39025e-05
4.4826e-05
4.54879e-05
4.59309e-05
4.62638e-05
4.65113e-05
4.66924e-05
4.68463e-05
4.69858e-05
4.71218e-05
4.72629e-05
4.74149e-05
4.75814e-05
4.7762e-05
4.79664e-05
4.81885e-05
4.83919e-05
4.85479e-05
4.86571e-05
4.87282e-05
4.8767e-05
4.87678e-05
4.87394e-05
4.86762e-05
4.84812e-05
4.75696e-05
4.30267e-05
3.54991e-05
2.76842e-05
1.80572e-05
1.97985e-05
1.74891e-05
1.50694e-05
1.51605e-05
1.48918e-05
1.49643e-05
1.51125e-05
1.50887e-05
1.51362e-05
1.51778e-05
1.51607e-05
1.51854e-05
1.5204e-05
1.52186e-05
1.52573e-05
1.52965e-05
1.53479e-05
1.54073e-05
1.54714e-05
1.55322e-05
1.55879e-05
1.56267e-05
1.56033e-05
1.49331e-05
1.47919e-05
1.69362e-05
1.89924e-05
1.01975e-05
2.58255e-05
1.18846e-05
1.0015e-05
1.00001e-05
1e-05
1e-05
1e-05
1e-05
1e-05
1e-05
1e-05
1e-05
2.33203e-05
9.84393e-05
0.00010583
0.000113737
0.000117909
0.000119872
0.000121229
0.000122267
0.000123022
0.00012363
0.000124145
0.000124543
0.000124876
0.000125161
0.000125384
0.000125581
0.000125765
0.000125933
0.000126097
0.000126255
0.000126405
0.000126546
0.000126689
0.000126826
0.000126912
0.000126905
0.000126816
0.00012667
0.000126484
0.000126237
0.000125949
0.000125612
0.000125219
0.000124819
0.000121315
0.000113958
0.000101397
8.47689e-05
6.67857e-05
5.36892e-05
4.61692e-05
4.45174e-05
4.42638e-05
4.45221e-05
4.52153e-05
4.59033e-05
4.65645e-05
4.72299e-05
4.78113e-05
4.83389e-05
4.88199e-05
4.92283e-05
4.9573e-05
4.98592e-05
5.01033e-05
5.0319e-05
5.04976e-05
5.06183e-05
5.0685e-05
5.06624e-05
5.03156e-05
4.54212e-05
3.8089e-05
3.20336e-05
2.24526e-05
1.56804e-05
1.88866e-05
1.47232e-05
1.01415e-05
1.00003e-05
1e-05
1e-05
1e-05
1e-05
1e-05
1e-05
1e-05
1e-05
0.000136683
0.000140501
0.000117836
0.000105691
0.00010315
0.000101091
9.95277e-05
9.85489e-05
9.78905e-05
9.74281e-05
9.71965e-05
9.71076e-05
9.70779e-05
9.7101e-05
9.71504e-05
9.72047e-05
9.72616e-05
9.73162e-05
9.73586e-05
9.73813e-05
9.73779e-05
9.73496e-05
9.72854e-05
9.71776e-05
9.70441e-05
9.68923e-05
9.67163e-05
9.65143e-05
9.63005e-05
9.60655e-05
9.58175e-05
9.55527e-05
9.52715e-05
9.57019e-05
9.76612e-05
9.95457e-05
9.89307e-05
9.39255e-05
8.24127e-05
0.000145448
0.000131353
0.0001281
0.000127901
0.000128245
0.00012899
0.000129811
0.000130542
0.000131248
0.00013189
0.000132485
0.000133053
0.000133542
0.000133942
0.000134265
0.000134553
0.000134856
0.000135145
0.000135349
0.000135442
0.000135455
0.000135556
0.000131723
0.000124019
0.000113198
9.90035e-05
8.55095e-05
6.83098e-05
3.4816e-05
1.14455e-05
1.00176e-05
1e-05
1e-05
1e-05
1e-05
1e-05
1e-05
1e-05
1e-05
0.000132974
6.22383e-05
3.85009e-05
3.30543e-05
2.97702e-05
2.79582e-05
2.64423e-05
2.52469e-05
2.43378e-05
2.36208e-05
2.30443e-05
2.25859e-05
2.22082e-05
2.18896e-05
2.16245e-05
2.13919e-05
2.11896e-05
2.10085e-05
2.08487e-05
2.07037e-05
2.05826e-05
2.04844e-05
2.04139e-05
2.03714e-05
2.03504e-05
2.03584e-05
2.03852e-05
2.0421e-05
2.04661e-05
2.05152e-05
2.05621e-05
2.06011e-05
2.04967e-05
2.06253e-05
2.45263e-05
3.20144e-05
4.2487e-05
5.37656e-05
5.81142e-05