/*--------------------------------*- C++ -*----------------------------------*\
| =========                 |                                                 |
| \\      /  F ield         | OpenFOAM: The Open Source CFD Toolbox           |
|  \\    /   O peration     | Version:  2312                                  |
|   \\  /    A nd           | Website:  www.openfoam.com                      |
|    \\/     M anipulation  |                                                 |
\*---------------------------------------------------------------------------*/
FoamFile
{
    version     2.0;
    format      ascii;
    arch        "LSB;label=32;scalar=64";
    class       surfaceScalarField;
    location    "25.295410451773513";
    object      phi;
}
// * * * * * * * * * * * * * * * * * * * * * * * * * * * * * * * * * * * * * //

dimensions      [0 3 -1 0 0 0 0];

oriented        oriented;

internalField   nonuniform List<scalar> 
41713
(
0.00736209
0.0568843
0.00362796
0.0679806
0.00211675
0.0657576
0.00148411
0.0648791
0.00109841
0.0646321
0.000844426
0.0645004
0.000669484
0.0644214
0.000542662
0.0643733
0.00044735
0.0643417
0.000373893
0.0643199
0.000316166
0.0643042
0.000270114
0.0642925
0.000232974
0.0642836
0.000202804
0.0642766
0.000178211
0.064271
0.000158172
0.0642665
0.000141923
0.0642627
0.000128877
0.0642595
0.000118572
0.0642567
0.000110623
0.0642544
0.000104664
0.0642524
0.000100327
0.0642508
9.73249e-05
0.0642494
9.52874e-05
0.0548132
9.35439e-05
0.0456777
9.18826e-05
0.038065
9.03153e-05
0.031721
8.88712e-05
0.0264343
0.0220287
8.7528e-05
0.00999232
0.046892
0.00842516
0.0695477
0.005714
0.0684688
0.00412097
0.0664721
0.00312083
0.0656323
0.00243003
0.0651912
0.00193277
0.0649186
0.00156362
0.0647424
0.00128228
0.0646231
0.00106295
0.0645392
0.000888695
0.0644784
0.00074814
0.064433
0.000633441
0.0643983
0.000539058
0.064371
0.000461006
0.0643491
0.000396362
0.0643311
0.000342954
0.0643161
0.000299135
0.0643033
0.000263637
0.0642922
0.000235457
0.0642826
0.000213772
0.0642741
0.000197858
0.0642667
0.000186984
0.0642603
0.000180775
0.0548194
0.000177168
0.0456813
0.000174849
0.0380673
0.000173072
0.0317228
0.000171485
0.0264359
0.0220301
0.000170109
0.00859219
0.0382998
0.00970171
0.0684382
0.00746438
0.0707061
0.00569637
0.0682401
0.00450867
0.06682
0.00362397
0.0660759
0.00294212
0.0656005
0.00241153
0.065273
0.00199352
0.0650411
0.00165954
0.0648732
0.00138915
0.0647488
0.00116774
0.0646544
0.000984773
0.0645812
0.000832548
0.0645232
0.000705406
0.0644762
0.000599131
0.0644374
0.000510556
0.0644047
0.000437273
0.0643766
0.00037743
0.0643521
0.000329581
0.0643304
0.000292568
0.0643111
0.000265423
0.0642938
0.000247168
0.0642786
0.000237346
0.0548292
0.000232328
0.0456863
0.000229685
0.0380699
0.00022801
0.0317244
0.000226641
0.0264373
0.0220312
0.000225504
0.00676948
0.0315303
0.00946372
0.065744
0.00810864
0.0720612
0.0064301
0.0699186
0.00523987
0.0680102
0.00433492
0.0669809
0.003604
0.0663314
0.00300778
0.0658692
0.0025191
0.0655298
0.00211593
0.0652764
0.00178102
0.0650837
0.001501
0.0649345
0.00126557
0.0648167
0.00106687
0.0647219
0.000898869
0.0646442
0.000756954
0.0645793
0.00063759
0.064524
0.000538056
0.0644761
0.000456245
0.0644339
0.000390509
0.0643962
0.000339545
0.0643621
0.000302266
0.0643311
0.000277488
0.0643033
0.000264616
0.0548421
0.000258533
0.0456924
0.000255779
0.0380727
0.000254391
0.0317258
0.000253479
0.0264382
0.0220318
0.000252893
0.00505837
0.026472
0.00855315
0.0622492
0.00816181
0.0724526
0.00671892
0.0713615
0.00556435
0.0691648
0.00468846
0.0678568
0.00397023
0.0670496
0.00336595
0.0664735
0.0028547
0.066041
0.00242056
0.0657105
0.00205061
0.0654537
0.00173435
0.0652507
0.00146336
0.0650877
0.00123087
0.0649544
0.00103154
0.0648436
0.00086115
0.0647497
0.000716373
0.0646688
0.000594626
0.0645979
0.000493887
0.0645346
0.000412573
0.0644775
0.00034943
0.0644252
0.000303399
0.0643771
0.00027321
0.0643335
0.00025813
0.0548572
0.000251661
0.0456989
0.000249395
0.038075
0.000248864
0.0317264
0.000248957
0.0264381
0.0220314
0.000249418
0.00361055
0.0228614
0.00728972
0.05857
0.00775487
0.0719874
0.00669572
0.0724207
0.0056354
0.0702251
0.00480943
0.0686827
0.00412727
0.0677318
0.00354091
0.0670599
0.00303254
0.0665494
0.00259064
0.0661524
0.00220574
0.0658386
0.00187002
0.0655864
0.00157707
0.0653806
0.00132167
0.0652098
0.00109956
0.0650657
0.00090734
0.0649419
0.00074228
0.0648339
0.000602247
0.0647379
0.000485578
0.0646513
0.000390983
0.0645721
0.000317445
0.0644987
0.000264083
0.0644305
0.000229718
0.0643679
0.000213468
0.0548734
0.000207504
0.0457049
0.000206527
0.0380759
0.000207604
0.0317253
0.000209416
0.0264363
0.0220292
0.000211577
0.00251422
0.0203472
0.00599326
0.055091
0.00706187
0.0709188
0.00643012
0.0730524
0.00551834
0.0711369
0.0047618
0.0694393
0.0041301
0.0683635
0.00357661
0.0676133
0.00308558
0.0670404
0.00264942
0.0665886
0.0022619
0.0662261
0.00191765
0.0659307
0.00161219
0.0656861
0.0013418
0.0654802
0.00110342
0.065304
0.000894585
0.0651508
0.000713356
0.0650151
0.000558229
0.064893
0.000428078
0.0647815
0.000322079
0.0646781
0.000239628
0.0645812
0.00018013
0.06449
0.000142644
0.0644054
0.00012625
0.0548898
0.00012164
0.0457095
0.000122739
0.0380748
0.000126175
0.0317219
0.000130454
0.026432
0.0220246
0.000135106
0.00174928
0.0185979
0.00485964
0.0519806
0.00627781
0.0695006
0.00602534
0.0733049
0.00527974
0.0718825
0.00459759
0.0701214
0.00401943
0.0689417
0.00350535
0.0681274
0.00303956
0.0675062
0.00261706
0.0670111
0.00223439
0.0666088
0.00188845
0.0662766
0.00157654
0.065998
0.00129638
0.0657604
0.00104609
0.0655543
0.000824192
0.0653727
0.000629584
0.0652097
0.000461487
0.0650611
0.000319427
0.0649235
0.000203187
0.0647943
0.000112751
0.0646716
4.80893e-05
0.0645547
8.40543e-06
0.0644451
-8.12664e-06
0.0549064
-1.10134e-05
0.0457124
-7.35069e-06
0.0380712
-1.08936e-06
0.0317156
5.89457e-06
0.026425
0.0220174
1.30898e-05
0.00123793
0.01736
0.00393715
0.0492814
0.00551728
0.0679205
0.005566
0.0732562
0.00498099
0.0724675
0.00436759
0.0707348
0.00383561
0.0694736
0.00335826
0.0686048
0.00291866
0.0679458
0.00251248
0.0674173
0.00213801
0.0669832
0.00179385
0.0666208
0.00147876
0.0663131
0.00119172
0.0660474
0.000931929
0.0658141
0.00069886
0.0656057
0.000492238
0.0654163
0.000312057
0.0652413
0.000158544
0.065077
3.20878e-05
0.0649208
-6.6834e-05
0.0647705
-0.000137659
0.0646255
-0.000180493
0.0644879
-0.000196336
0.0549222
-0.000196885
0.0457129
-0.000189903
0.0380642
-0.000179711
0.0317054
-0.000168395
0.0264137
0.0220059
-0.000156922
0.00090314
0.0164568
0.00320672
0.0469778
0.0048238
0.0663034
0.00509652
0.0729835
0.00465798
0.072906
0.00410665
0.0712862
0.00361088
0.0699694
0.00316273
0.0690529
0.00274534
0.0683632
0.00235387
0.0678087
0.00198736
0.0673497
0.00164547
0.0669627
0.00132798
0.0666306
0.00103482
0.0663406
0.0007661
0.0660828
0.000522114
0.0658497
0.000303386
0.0656351
0.000110608
0.0654341
-5.53597e-05
0.065243
-0.000193399
0.0650588
-0.000302136
0.0648793
-0.000380226
0.0647036
-0.000427144
0.0645348
-0.000443698
0.0549388
-0.000442443
0.0457117
-0.000432137
0.0380539
-0.000417785
0.031691
-0.000401932
0.0263978
0.0219897
-0.000385774
0.000685173
0.0157717
0.00263486
0.0450281
0.00420991
0.0647284
0.00463836
0.072555
0.00432771
0.0732167
0.0038329
0.071781
0.00336505
0.0704373
0.00293809
0.0694799
0.00253716
0.0687641
0.00215659
0.0681893
0.00179555
0.0677108
0.00145425
0.067304
0.00113314
0.0669517
0.000832826
0.0666409
0.000554087
0.0663616
0.000297921
0.0661059
6.54509e-05
0.0658675
-0.000142039
0.0656416
-0.000322921
0.0654239
-0.000475213
0.0652111
-0.000596705
0.0650008
-0.000685213
0.0647921
-0.00073936
0.064589
-0.000758954
0.0549584
-0.000757551
0.0457102
-0.000744867
0.0380412
-0.000726628
0.0316728
-0.000705969
0.0263772
0.0219684
-0.000684626
0.000540492
0.0152312
0.00218732
0.0433813
0.00367497
0.0632407
0.00420333
0.0720267
0.00399977
0.0734202
0.00355603
0.0722247
0.00310974
0.0708836
0.00269689
0.0698927
0.00230657
0.0691545
0.00193239
0.0685635
0.00157329
0.0680699
0.0012297
0.0676476
0.000902442
0.0672789
0.000592569
0.0669507
0.000301378
0.0666528
3.02765e-05
0.066377
-0.000219147
0.066117
-0.000444905
0.0658673
-0.000644581
0.0656235
-0.000815423
0.0653819
-0.000954397
0.0651398
-0.00105844
0.0648961
-0.00112523
0.0646558
-0.0011525
0.0549856
-0.00115452
0.0457123
-0.00114197
0.0380286
-0.0011214
0.0316522
-0.00109675
0.0263525
0.0219421
-0.00107047
0.000439882
0.0147913
0.0018337
0.0419875
0.00321176
0.0618627
0.0037974
0.071441
0.0036805
0.0735371
0.00328225
0.072623
0.00285264
0.0713132
0.00244793
0.0702974
0.00206273
0.0695397
0.00169038
0.0689358
0.00132932
0.0684309
0.000979943
0.0679969
0.000643226
0.0676156
0.000320494
0.0672735
1.32316e-05
0.06696
-0.000276864
0.0666671
-0.000547663
0.0663878
-0.000796515
0.0661162
-0.00102038
0.0658474
-0.0012158
0.0655773
-0.00137897
0.0653029
-0.00150602
0.0650232
-0.00159382
0.0647436
-0.0016365
0.0550283
-0.0016485
0.0457243
-0.00164118
0.0380213
-0.00162193
0.031633
-0.00159565
0.0263262
0.0219123
-0.00156583
0.000365646
0.0144257
0.00155003
0.0408031
0.00281067
0.060602
0.00342241
0.0708293
0.00337384
0.0735857
0.00301576
0.072981
0.00259928
0.0717297
0.00219797
0.0706987
0.00181309
0.0699245
0.00143826
0.0693107
0.00107132
0.0687979
0.000712415
0.0683559
0.000362491
0.0679656
2.28221e-05
0.0676131
-0.000305063
0.0672879
-0.000619154
0.0669812
-0.000916834
0.0666854
-0.00119501
0.0663944
-0.00145007
0.0661025
-0.00167792
0.0658052
-0.00187412
0.0654991
-0.00203418
0.0651832
-0.0021546
0.064864
-0.0022244
0.0550981
-0.0022573
0.0457572
-0.00226455
0.0380286
-0.00225392
0.0316224
-0.00223133
0.0263036
0.0218827
-0.00220171
0.000307717
0.0141179
0.0013204
0.0397904
0.0024652
0.0594572
0.00308013
0.0702144
0.00308277
0.0735831
0.00275912
0.0733047
0.00235311
0.0721357
0.00195176
0.0711001
0.00156331
0.070313
0.00118221
0.0696918
0.000805766
0.0691743
0.000433695
0.0687279
6.66484e-05
0.0683326
-0.000294333
0.0679741
-0.000647687
0.0676413
-0.00099116
0.0673246
-0.00132192
0.0670162
-0.00163649
0.0667089
-0.00193079
0.0663968
-0.00220009
0.0660745
-0.00243939
0.0657384
-0.00264404
0.0653879
-0.00281127
0.0650312
-0.00292442
0.0552113
-0.00299606
0.0458288
-0.00303574
0.0380683
-0.00304939
0.031636
-0.00304236
0.0262966
0.0218611
-0.00302083
0.000224284
0.0138937
0.00096585
0.0390489
0.0018452
0.0585779
0.00235521
0.0697044
0.00238729
0.073551
0.00213747
0.0735545
0.00180206
0.0724711
0.00146219
0.07144
0.00113004
0.0706451
0.000801806
0.07002
0.000474759
0.0695014
0.000148219
0.0690545
-0.000177744
0.0686586
-0.000502476
0.0682989
-0.000824741
0.0679635
-0.00114276
0.0676427
-0.00145413
0.0673276
-0.00175578
0.0670106
-0.00204389
0.0666849
-0.00231391
0.0663445
-0.00256082
0.0659853
-0.00278019
0.0656073
-0.00297025
0.0652213
-0.00311245
0.0553535
-0.00321888
0.0459352
-0.00329714
0.0381465
-0.00334904
0.0316879
-0.003375
0.0263226
0.0218653
-0.00337915
0.000166931
0.0137267
0.000717621
0.0384982
0.00139408
0.0579014
0.00180968
0.0692888
0.00185309
0.0735076
0.00165909
0.0737485
0.00138377
0.0727464
0.00109909
0.0717246
0.000818544
0.0709257
0.000539507
0.070299
0.000259321
0.0697816
-2.30501e-05
0.0693368
-0.00030783
0.0689434
-0.000594817
0.0685858
-0.000883259
0.068252
-0.00117194
0.0679313
-0.00145909
0.0676147
-0.00174224
0.0672937
-0.00201815
0.0669608
-0.00228269
0.0666091
-0.00253093
0.0662336
-0.00275804
0.0658344
-0.00296139
0.0654246
-0.00311998
0.0555121
-0.00324816
0.0460634
-0.00335788
0.0382562
-0.00345421
0.0317842
-0.00353514
0.0264035
0.0219174
-0.0035873
0.000128372
0.0135983
0.000545965
0.0380806
0.00107264
0.0573747
0.00141066
0.0689507
0.00145641
0.0734618
0.00130417
0.0739007
0.00107814
0.0729724
0.000840417
0.0719624
0.000604333
0.0711618
0.000368102
0.0705353
0.000129263
0.0700204
-0.000113403
0.0695795
-0.000360395
0.0691903
-0.000611785
0.0688372
-0.000867303
0.0685075
-0.0011263
0.0681903
-0.00138766
0.0678761
-0.00164964
0.0675557
-0.00190975
0.0672209
-0.00216459
0.0668639
-0.00240974
0.0664787
-0.00264009
0.0660647
-0.00285074
0.0656353
-0.00301424
0.0556756
-0.00314292
0.0461921
-0.00325421
0.0383675
-0.00336254
0.0318926
-0.00348585
0.0265268
0.0220671
-0.00363552
9.80466e-05
0.0135003
0.000422722
0.0377559
0.000841322
0.0569561
0.00111838
0.0686737
0.00116072
0.0734195
0.00103774
0.0740237
0.000850705
0.0731595
0.000652441
0.0721606
0.00045458
0.0713596
0.00025547
0.0707344
5.28226e-05
0.070223
-0.000154554
0.0697869
-0.000367269
0.0694031
-0.000585667
0.0690556
-0.000809859
0.0687317
-0.00103968
0.0684202
-0.0012746
0.068111
-0.00151362
0.0677947
-0.00175508
0.0674624
-0.0019966
0.0671054
-0.00223494
0.0667171
-0.00246613
0.0662959
-0.00268512
0.0658543
-0.00285741
0.0558479
-0.00298389
0.0463186
-0.00307208
0.0384557
-0.0031322
0.0319527
-0.00318164
0.0265762
-0.00335683
0.0222423
0.000132288
0.0219826
0.000174521
0.0219851
0.000207807
0.0219941
0.000238744
0.0219964
0.000263857
0.0220022
0.000284434
0.0220068
0.000301974
0.0220098
0.000313192
0.0220161
0.000322396
0.0220182
0.000326573
0.0220232
0.000327675
0.0220263
0.000326242
0.0220288
0.000320358
0.0220332
0.000312861
0.0220349
0.000302105
0.0220381
0.000289033
0.0220404
0.000274613
0.0220418
0.000257204
0.0220448
0.000238718
0.0220458
0.000218979
0.0220471
0.000197662
0.0220487
0.000175716
0.0220493
0.000153085
0.02205
0.000129931
0.0220505
0.000106652
0.0220506
8.34144e-05
0.0220506
6.06062e-05
0.0220502
3.82226e-05
0.0220497
1.6585e-05
0.022049
-3.66591e-06
0.0220476
-2.30302e-05
0.0220467
-4.06758e-05
0.022045
-5.62987e-05
0.022043
-7.06659e-05
0.0220417
-8.17349e-05
0.0220384
-9.08319e-05
0.0220365
-9.76491e-05
0.0220342
-0.00010029
0.02203
-0.000101148
0.0220282
-9.73308e-05
0.0220235
-9.03536e-05
0.0220204
-8.0251e-05
0.0220173
-6.4344e-05
0.0220114
-4.62755e-05
0.0220093
-2.14839e-05
0.0220026
6.75374e-06
0.0219991
3.98039e-05
0.0219943
7.9216e-05
0.0219879
0.0219854
0.000121132
0.000214854
0.0219379
0.00025729
0.0219427
0.000291004
0.0219604
0.000322599
0.0219648
0.000348611
0.0219762
0.000370324
0.0219851
0.000389223
0.0219909
0.000402023
0.0220033
0.000413007
0.0220072
0.000419161
0.022017
0.000422415
0.022023
0.000423297
0.0220279
0.000419885
0.0220367
0.000414992
0.0220397
0.000406967
0.0220461
0.000396736
0.0220507
0.000385248
0.0220533
0.000370865
0.0220591
0.000355467
0.0220612
0.000338871
0.0220637
0.000320746
0.0220668
0.000302014
0.022068
0.000282613
0.0220694
0.000262695
0.0220704
0.000242635
0.0220707
0.000222592
0.0220706
0.000202946
0.0220698
0.00018367
0.022069
0.000165076
0.0220676
0.000147801
0.0220649
0.000131318
0.0220632
0.000116456
0.0220599
0.000103502
0.0220559
9.16657e-05
0.0220536
8.29944e-05
0.0220471
7.61328e-05
0.0220433
7.13773e-05
0.0220389
7.06261e-05
0.0220307
7.14508e-05
0.0220274
7.67535e-05
0.0220182
8.49927e-05
0.0220121
9.61209e-05
0.0220061
0.00011282
0.0219947
0.000131412
0.0219907
0.000156471
0.0219775
0.000184683
0.0219709
0.000217401
0.0219616
0.000256152
0.0219492
0.0219445
0.000297052
0.000270523
0.0218928
0.000313445
0.0218998
0.000347897
0.0219259
0.00038048
0.0219322
0.000407732
0.021949
0.000430925
0.0219619
0.000451531
0.0219703
0.00046626
0.0219886
0.000479375
0.0219941
0.000487855
0.0220085
0.000493616
0.0220172
0.000497169
0.0220244
0.000496587
0.0220372
0.000494661
0.0220417
0.000489733
0.0220511
0.000482713
0.0220577
0.000474531
0.0220614
0.000463548
0.0220701
0.000451618
0.0220732
0.000438546
0.0220768
0.000423996
0.0220813
0.000408866
0.0220832
0.000393082
0.0220852
0.00037679
0.0220867
0.000360341
0.0220871
0.000343883
0.0220871
0.000327791
0.0220859
0.000312012
0.0220848
0.000296849
0.0220827
0.000282932
0.0220788
0.000269709
0.0220764
0.000258002
0.0220716
0.00024809
0.0220658
0.000239154
0.0220625
0.000233249
0.022053
0.000228991
0.0220476
0.000226666
0.0220413
0.00022817
0.0220292
0.000231043
0.0220245
0.000238194
0.0220111
0.000248056
0.0220023
0.000260569
0.0219936
0.000278414
0.0219769
0.00029788
0.0219712
0.000323549
0.0219518
0.000352076
0.0219424
0.000384806
0.0219289
0.00042325
0.0219107
0.0219043
0.000463484
0.000298724
0.021847
0.000342655
0.0218558
0.00037835
0.0218902
0.000412428
0.0218982
0.00044143
0.02192
0.000466625
0.0219367
0.000489477
0.0219475
0.000506684
0.0219714
0.000522497
0.0219782
0.000533883
0.0219972
0.000542742
0.0220084
0.000549573
0.0220175
0.000552436
0.0220344
0.000554104
0.02204
0.000552909
0.0220523
0.000549745
0.0220608
0.000545523
0.0220657
0.000538597
0.0220771
0.000530801
0.022081
0.000521924
0.0220856
0.000511621
0.0220916
0.000500767
0.022094
0.000489279
0.0220967
0.000477288
0.0220987
0.000465127
0.0220993
0.000452929
0.0220993
0.000441061
0.0220978
0.000429448
0.0220964
0.00041838
0.0220938
0.00040848
0.0220887
0.00039917
0.0220857
0.000391268
0.0220795
0.000385036
0.0220721
0.000379636
0.0220679
0.000377122
0.0220555
0.000376087
0.0220486
0.000376802
0.0220405
0.000381165
0.0220249
0.000386685
0.022019
0.000396274
0.0220015
0.000408345
0.0219902
0.000422824
0.0219791
0.000442394
0.0219573
0.00046331
0.0219503
0.000490167
0.021925
0.000519587
0.021913
0.000552905
0.0218955
0.000591627
0.021872
0.0218642
0.000631783
0.000296798
0.0217996
0.000342476
0.0218102
0.000380145
0.0218525
0.000416457
0.0218619
0.000447956
0.0218885
0.00047591
0.0219087
0.00050178
0.0219216
0.000522251
0.0219509
0.000541566
0.0219589
0.000556675
0.021982
0.00056947
0.0219956
0.000580431
0.0220066
0.000587605
0.0220272
0.00059375
0.0220339
0.000597182
0.0220488
0.00059878
0.0220592
0.000599439
0.022065
0.000597497
0.022079
0.000594771
0.0220837
0.000591033
0.0220894
0.000585924
0.0220968
0.000580301
0.0220996
0.000574065
0.0221029
0.000567332
0.0221054
0.000560415
0.0221062
0.000553434
0.0221063
0.000546742
0.0221045
0.000540242
0.0221029
0.000534212
0.0220998
0.000529263
0.0220936
0.000524795
0.0220902
0.000521616
0.0220827
0.000519973
0.0220737
0.000519007
0.0220689
0.000520772
0.0220537
0.000523835
0.0220455
0.000528456
0.0220359
0.00053653
0.0220168
0.000545539
0.02201
0.0005584
0.0219886
0.000573504
0.0219751
0.000590763
0.0219619
0.000612866
0.0219352
0.000636037
0.0219271
0.000664882
0.0218961
0.000695998
0.0218818
0.00073071
0.0218608
0.000770521
0.0218322
0.0218233
0.000811415
0.00026143
0.0217498
0.000309774
0.0217618
0.000350333
0.021812
0.000389821
0.0218224
0.00042478
0.0218535
0.000456482
0.021877
0.000486385
0.0218917
0.000511156
0.0219262
0.000535036
0.021935
0.000554957
0.0219621
0.000572798
0.0219777
0.000589024
0.0219903
0.000601663
0.0220146
0.000613463
0.0220221
0.000622717
0.0220396
0.000630288
0.0220517
0.000637056
0.0220582
0.000641338
0.0220747
0.000644934
0.0220801
0.0006476
0.0220867
0.000648955
0.0220954
0.00064984
0.0220988
0.000650134
0.0221026
0.000649939
0.0221056
0.000649548
0.0221066
0.000649061
0.0221068
0.000648816
0.0221047
0.000648695
0.022103
0.000648959
0.0220996
0.000650206
0.0220924
0.000651811
0.0220886
0.000654571
0.0220799
0.000658719
0.0220696
0.000663371
0.0220642
0.00067058
0.0220465
0.000678888
0.0220372
0.000688541
0.0220263
0.000701434
0.0220039
0.000715018
0.0219964
0.000732218
0.0219714
0.000751401
0.0219559
0.000772468
0.0219408
0.000798117
0.0219096
0.000824535
0.0219007
0.00085635
0.0218643
0.000890124
0.0218481
0.000927182
0.0218238
0.000969021
0.0217904
0.0217807
0.00101157
0.000188428
0.0216964
0.000240538
0.0217097
0.000285189
0.0217673
0.000329069
0.0217785
0.000368694
0.0218139
0.000405374
0.0218403
0.000440583
0.0218565
0.000470966
0.0218958
0.000500767
0.0219052
0.000526888
0.021936
0.000551199
0.0219534
0.00057415
0.0219674
0.000593743
0.021995
0.000612717
0.0220031
0.000629338
0.022023
0.000644455
0.0220366
0.000658926
0.0220438
0.000671044
0.0220626
0.000682594
0.0220685
0.000693307
0.022076
0.000702782
0.0220859
0.000711838
0.0220897
0.000720333
0.0220941
0.000728349
0.0220976
0.000736152
0.0220988
0.000743824
0.0220991
0.000751685
0.0220968
0.000759589
0.0220951
0.000767779
0.0220914
0.000776835
0.0220833
0.000786107
0.0220793
0.000796376
0.0220696
0.000807858
0.0220581
0.000819641
0.0220524
0.000833779
0.0220324
0.000848782
0.0220222
0.000864883
0.0220102
0.000883976
0.0219848
0.000903478
0.0219769
0.000926323
0.0219486
0.000950854
0.0219314
0.00097696
0.0219147
0.00100735
0.0218792
0.00103817
0.0218699
0.00107408
0.0218284
0.0011116
0.0218105
0.00115207
0.0217833
0.00119696
0.0217455
0.0217355
0.00124216
7.141e-05
0.0216381
0.000129083
0.021652
0.000179542
0.0217169
0.000229239
0.0217288
0.000275153
0.021768
0.000318508
0.021797
0.000360714
0.0218143
0.000398381
0.0218581
0.000435803
0.0218678
0.000469867
0.0219019
0.000502441
0.0219209
0.000533958
0.0219359
0.000562385
0.0219665
0.000590457
0.021975
0.000616409
0.021997
0.000641069
0.0220119
0.000665277
0.0220196
0.000687291
0.0220406
0.000708881
0.022047
0.00072975
0.0220551
0.000749471
0.0220662
0.000768837
0.0220703
0.00078768
0.0220753
0.000806054
0.0220792
0.000824202
0.0220807
0.000842174
0.0220811
0.000860269
0.0220787
0.00087831
0.0220771
0.000896514
0.0220732
0.000915443
0.0220644
0.00093441
0.0220604
0.000954181
0.0220499
0.00097495
0.0220373
0.000995769
0.0220316
0.00101869
0.0220095
0.0010422
0.0219987
0.00106649
0.0219859
0.00109348
0.0219578
0.00112053
0.0219499
0.00115059
0.0219185
0.00118198
0.0219
0.00121457
0.0218821
0.00125109
0.0218427
0.00128764
0.0218334
0.00132891
0.0217871
0.00137139
0.0217681
0.0014164
0.0217383
0.00146544
0.0216964
0.0216866
0.00151432
-9.31031e-05
0.0215743
-2.98294e-05
0.0215888
2.68264e-05
0.0216602
8.44597e-05
0.0216712
0.000138735
0.0217137
0.000190856
0.0217449
0.000241815
0.0217633
0.000288766
0.0218112
0.000335962
0.0218206
0.000380167
0.0218577
0.000423236
0.0218778
0.000465601
0.0218935
0.000505204
0.0219269
0.000544781
0.0219354
0.000582523
0.0219593
0.000619241
0.0219752
0.00065575
0.0219831
0.000690267
0.0220061
0.000724545
0.0220127
0.000758252
0.0220214
0.000790927
0.0220335
0.000823334
0.0220379
0.00085527
0.0220433
0.000886756
0.0220478
0.000917998
0.0220494
0.000949012
0.0220501
0.000980068
0.0220477
0.00101095
0.0220462
0.00104183
0.0220423
0.00107326
0.022033
0.0011045
0.0220291
0.00113629
0.0220181
0.00116881
0.0220048
0.00120104
0.0219994
0.00123507
0.0219755
0.0012693
0.0219645
0.00130393
0.0219512
0.00134086
0.0219209
0.00137741
0.0219133
0.00141655
0.0218794
0.00145656
0.02186
0.00149729
0.0218414
0.00154151
0.0217985
0.00158524
0.0217896
0.00163325
0.0217391
0.00168195
0.0217194
0.00173269
0.0216876
0.00178696
0.0216422
0.0216331
0.00184051
-0.000313922
0.0215025
-0.000241867
0.0215167
-0.000176141
0.0215945
-0.000110234
0.0216052
-4.72978e-05
0.0216508
1.4122e-05
0.0216834
7.65891e-05
0.0217008
0.000135568
0.0217522
0.000195231
0.021761
0.000252028
0.0218009
0.000308235
0.0218216
0.000364256
0.0218375
0.000417938
0.0218733
0.00047201
0.0218814
0.000524617
0.0219067
0.000576548
0.0219232
0.000628594
0.021931
0.000678917
0.0219557
0.000729253
0.0219623
0.000779222
0.0219715
0.000828321
0.0219844
0.000877274
0.021989
0.000925831
0.0219948
0.000973973
0.0219996
0.00102185
0.0220015
0.00106944
0.0220025
0.00111697
0.0220002
0.00116416
0.021999
0.00121115
0.0219953
0.00125844
0.0219857
0.00130524
0.0219823
0.00135226
0.021971
0.00139962
0.0219574
0.00144627
0.0219527
0.00149428
0.0219275
0.00154199
0.0219168
0.00158957
0.0219037
0.00163893
0.0218715
0.00168731
0.0218649
0.00173772
0.021829
0.00178838
0.0218093
0.00183914
0.0217906
0.00189279
0.0217448
0.00194528
0.0217371
0.00200146
0.021683
0.00205767
0.0216631
0.00211528
0.02163
0.00217579
0.0215817
0.021574
0.00223487
-0.00060363
0.0214215
-0.000521686
0.0214348
-0.000445282
0.0215181
-0.000367334
0.0215273
-0.000291477
0.0215749
-0.000216439
0.0216084
-0.000141333
0.0216257
-6.92242e-05
0.0216801
4.40006e-06
0.0216873
7.69934e-05
0.0217283
0.00014968
0.0217489
0.000222718
0.0217644
0.000293907
0.0218021
0.000366096
0.0218092
0.000437358
0.0218354
0.00050845
0.0218522
0.000580107
0.0218594
0.000650429
0.0218854
0.000721122
0.0218916
0.000791745
0.0219008
0.000861737
0.0219144
0.000931765
0.0219189
0.00100152
0.021925
0.00107091
0.0219302
0.00114004
0.0219324
0.00120879
0.0219338
0.00127736
0.0219316
0.00134537
0.021931
0.0014129
0.0219278
0.00148042
0.0219182
0.00154701
0.0219157
0.00161337
0.0219047
0.00167955
0.0218913
0.00174441
0.0218879
0.00181003
0.0218618
0.00187465
0.0218522
0.0019384
0.0218399
0.00200321
0.0218067
0.00206621
0.0218019
0.00213045
0.0217647
0.0021941
0.0217457
0.00225697
0.0217277
0.00232192
0.0216799
0.00238481
0.0216742
0.00245057
0.0216172
0.00251549
0.0215982
0.00258095
0.0215645
0.00264851
0.0215141
0.0215088
0.0027137
-0.00097895
0.0213299
-0.000885344
0.0213411
-0.000796369
0.0214291
-0.0007049
0.0214358
-0.000614605
0.0214846
-0.000524097
0.0215179
-0.000431823
0.0215335
-0.00034144
0.0215897
-0.000248541
0.0215944
-0.000156957
0.0216368
-6.44777e-05
0.0216564
2.93192e-05
0.0216706
0.000122247
0.0217091
0.00021693
0.0217145
0.000311632
0.0217407
0.00040687
0.0217569
0.000503356
0.0217629
0.000599102
0.0217897
0.000695738
0.021795
0.000792736
0.0218038
0.000889458
0.0218177
0.000986494
0.0218219
0.00108344
0.0218281
0.00118015
0.0218335
0.00127659
0.021836
0.00137258
0.0218378
0.00146821
0.021836
0.001563
0.0218362
0.00165693
0.0218338
0.00175039
0.0218247
0.00184235
0.0218238
0.00193341
0.0218136
0.00202357
0.0218011
0.00211154
0.0217999
0.0021994
0.021774
0.00228527
0.0217663
0.00236921
0.021756
0.00245316
0.0217228
0.00253412
0.021721
0.0026152
0.0216836
0.00269447
0.0216664
0.00277175
0.0216505
0.00284995
0.0216016
0.00292482
0.0215994
0.00300145
0.0215406
0.00307602
0.0215237
0.00314997
0.0214905
0.00322492
0.0214392
0.0214374
0.00329629
-0.00146301
0.0212271
-0.0013565
0.0212346
-0.00125326
0.0213259
-0.00114599
0.0213286
-0.00103851
0.0213771
-0.00092944
0.0214088
-0.000817272
0.0214213
-0.000705739
0.0214782
-0.000590264
0.021479
-0.000474365
0.0215209
-0.000356163
0.0215382
-0.000235383
0.0215499
-0.000114452
0.0215882
9.44823e-06
0.0215906
0.000133627
0.0216165
0.000259255
0.0216313
0.000387403
0.0216347
0.000515575
0.0216615
0.000645417
0.0216652
0.000776294
0.021673
0.000907448
0.0216866
0.00103935
0.02169
0.00117148
0.0216959
0.00130357
0.0217014
0.00143544
0.0217041
0.00156678
0.0217064
0.00169756
0.0217052
0.00182712
0.0217067
0.0019553
0.0217057
0.00208239
0.0216976
0.00220713
0.021699
0.00233005
0.0216907
0.002451
0.0216802
0.0025685
0.0216824
0.00268462
0.0216579
0.0027973
0.0216536
0.00290651
0.0216468
0.00301419
0.0216151
0.00311713
0.021618
0.00321856
0.0215822
0.00331643
0.0215685
0.00341051
0.0215564
0.00350387
0.0215083
0.00359207
0.0215112
0.00368045
0.0214522
0.00376509
0.021439
0.00384752
0.0214081
0.00392946
0.0213572
0.0213607
0.00400621
-0.00208818
0.0211136
-0.00196867
0.0211151
-0.0018505
0.0212077
-0.00172599
0.021204
-0.0015991
0.0212502
-0.00146838
0.0212781
-0.00133224
0.0212851
-0.00119462
0.0213405
-0.00105086
0.0213352
-0.000904775
0.0213748
-0.000754509
0.0213879
-0.000599904
0.0213953
-0.000443574
0.0214319
-0.000282807
0.0214298
-0.000119629
0.0214533
4.62233e-05
0.0214654
0.000214627
0.0214663
0.00038454
0.0214916
0.000557263
0.0214924
0.000731954
0.0214983
0.000907752
0.0215108
0.00108499
0.0215128
0.00126299
0.0215179
0.00144133
0.0215231
0.00161963
0.0215258
0.00179736
0.0215287
0.00197435
0.0215282
0.00214963
0.0215314
0.00232284
0.0215324
0.00249409
0.0215264
0.0026618
0.0215313
0.00282634
0.0215262
0.00298735
0.0215191
0.00314306
0.0215267
0.00329552
0.0215054
0.00344235
0.0215068
0.00358339
0.0215057
0.00372061
0.0214779
0.00385049
0.0214882
0.00397638
0.0214563
0.00409608
0.0214488
0.00420933
0.0214431
0.00431938
0.0213982
0.00442159
0.021409
0.00452168
0.0213521
0.00461559
0.0213451
0.00470506
0.0213186
0.00479201
0.0212703
0.0212811
0.00487163
-0.00289947
0.0209922
-0.00276852
0.0209842
-0.00263613
0.0210753
-0.00249405
0.021062
-0.0023461
0.0211023
-0.00219049
0.0211225
-0.00202553
0.0211202
-0.00185549
0.0211705
-0.00167581
0.0211555
-0.00149078
0.0211897
-0.00129883
0.021196
-0.00110012
0.0211966
-0.000897586
0.0212293
-0.000688656
0.0212209
-0.000475886
0.0212406
-0.000258708
0.0212483
-3.64147e-05
0.021244
0.000187453
0.0212677
0.000415491
0.0212644
0.000647045
0.0212667
0.000881048
0.0212768
0.00111767
0.0212761
0.00135605
0.0212796
0.00159556
0.0212836
0.00183549
0.0212859
0.00207505
0.0212891
0.00231377
0.0212895
0.00255024
0.0212949
0.00278375
0.0212989
0.00301408
0.0212961
0.00323916
0.0213062
0.00345907
0.0213063
0.0036731
0.0213051
0.00387901
0.0213208
0.00407881
0.0213056
0.00426967
0.0213159
0.0044512
0.0213242
0.00462539
0.0213037
0.0047883
0.0213253
0.00494345
0.0213012
0.0050884
0.0213039
0.00522285
0.0213087
0.00535032
0.0212708
0.00546594
0.0212933
0.00557593
0.0212421
0.00567623
0.0212448
0.00576893
0.0212259
0.00585634
0.0211829
0.0212039
0.0059335
-0.00328211
0.0208952
-0.00317394
0.020876
-0.00305969
0.0209611
-0.00292981
0.0209321
-0.00278724
0.0209597
-0.00263097
0.0209662
-0.00246062
0.0209498
-0.00228123
0.0209911
-0.00208995
0.0209642
-0.00189147
0.0209913
-0.00168513
0.0209897
-0.00147153
0.020983
-0.00125348
0.0210113
-0.00102884
0.0209963
-0.000799836
0.0210116
-0.00056601
0.0210144
-0.000326874
0.0210049
-8.39168e-05
0.0210248
0.000163228
0.0210173
0.000414807
0.0210151
0.000670256
0.0210213
0.000929626
0.0210168
0.001192
0.0210172
0.00145667
0.0210189
0.00172273
0.0210198
0.00198911
0.0210228
0.00225505
0.0210235
0.00251877
0.0210312
0.00277918
0.0210385
0.00303563
0.0210396
0.00328569
0.0210562
0.00352904
0.0210629
0.00376462
0.0210695
0.00398997
0.0210954
0.0042067
0.0210889
0.00441192
0.0211107
0.0046051
0.021131
0.00478795
0.0211208
0.00495673
0.0211565
0.00511462
0.0211433
0.00525933
0.0211592
0.00539052
0.0211775
0.00551135
0.0211499
0.00561733
0.0211874
0.00571413
0.0211453
0.00579818
0.0211608
0.00587173
0.0211524
0.00593751
0.0211171
0.0211496
0.00599181
-0.00351244
0.0208203
-0.00343643
0.0208
-0.0033508
0.0208754
-0.00323872
0.02082
-0.00310231
0.0208233
-0.00294349
0.0208074
-0.00276555
0.0207719
-0.00257591
0.0208015
-0.00237425
0.0207626
-0.00216597
0.020783
-0.00195115
0.0207748
-0.00173058
0.0207624
-0.00150669
0.0207874