/*--------------------------------*- C++ -*----------------------------------*\
| =========                 |                                                 |
| \\      /  F ield         | OpenFOAM: The Open Source CFD Toolbox           |
|  \\    /   O peration     | Version:  2312                                  |
|   \\  /    A nd           | Website:  www.openfoam.com                      |
|    \\/     M anipulation  |                                                 |
\*---------------------------------------------------------------------------*/
FoamFile
{
    version     2.0;
    format      ascii;
    arch        "LSB;label=32;scalar=64";
    class       volScalarField;
    location    "500";
    object      div(phi);
}
// * * * * * * * * * * * * * * * * * * * * * * * * * * * * * * * * * * * * * //

dimensions      [0 0 -1 0 0 0 0];

internalField   nonuniform List<scalar> 
10720
(
0.00102259
-0.00468819
-0.000847987
-0.00237382
-0.00296216
-0.00306091
-0.00303163
-0.00288832
-0.00269996
-0.00252797
-0.0023335
-0.0021817
-0.00204683
-0.00190267
-0.00175551
-0.00146258
-0.00108346
-0.000688
-0.000223268
0.000235604
0.000479389
0.000729716
0.000790302
-0.00140374
0.00108631
-0.000735618
1.43322e-06
0.000136447
0.000727296
0.00124103
0.000369703
-0.0025249
0.0193024
0.0356893
-0.0848143
-0.107382
0.198622
-0.10321
0.193123
-0.00807978
-0.000276301
-0.00143358
-0.00193427
-0.00149662
-5.42799e-05
-1.5326e-05
0.00415908
0.00718261
0.00472203
0.00428077
0.00425163
0.00426621
0.00442191
0.00467582
0.00487019
0.00488219
0.00467857
0.00438823
0.00383897
0.00344113
0.00294682
0.00177389
0.00204663
0.00155619
0.00121518
0.000722748
0.000411536
0.0001002
-3.70676e-05
-9.30893e-05
6.35793e-05
0.000386773
0.00108825
0.00184602
0.00121284
-0.00181547
-0.00523355
-0.00464133
-0.00350291
-0.00618106
-0.00259978
-0.00402312
-0.00458163
-0.00477748
-0.00484199
-0.00478133
-0.0047417
-0.00471373
-0.00470576
-0.00470197
-0.00463445
-0.00447631
-0.00412046
-0.00361414
-0.0030104
-0.00244351
-0.00213751
-0.00204811
-0.00158505
-0.000612161
0.000778882
0.00515625
0.00176118
0.00264869
0.00188925
0.00111018
-0.000179446
-0.00143517
0.0159387
0.029416
-0.04756
-0.0284898
0.104934
-0.00925274
0.0337734
0.0465779
-0.0149761
-0.00622126
-0.00096455
-0.00112081
-0.000924404
0.000125471
0.00203767
0.0064769
0.00972513
0.0082542
0.00798431
0.0083958
0.00872326
0.00904346
0.00938619
0.00965473
0.00974578
0.00956996
0.00908475
0.00835292
0.00768291
0.00690889
0.00631313
0.00560006
0.00425447
0.00383299
0.00297914
0.00248649
0.00190125
0.00153517
0.00149886
0.00166579
0.00241727
0.00350444
0.00341869
0.00107932
-0.000273139
0.00412957
0.00181024
0.00484273
-0.00306536
-0.00391874
-0.00427863
-0.00487201
-0.00484106
-0.00462927
-0.00439851
-0.00413508
-0.00391901
-0.0037245
-0.00354718
-0.00340835
-0.00329757
-0.00316623
-0.00288773
-0.00243914
-0.00205383
-0.00182018
-0.00153721
-0.00116576
-0.000933594
-0.000412946
-7.96598e-05
-0.00146117
-0.00103226
0.000898478
0.000793969
0.000796268
0.00066994
-9.14513e-05
0.0106806
0.0203872
-0.025054
-0.00224642
0.00690583
0.00520062
-0.0802395
-0.0349267
-0.118583
-0.00452565
-0.00363355
-0.00288285
-0.00178038
-0.00020232
0.00123024
0.00369398
0.00549023
0.00545014
0.00564933
0.00586285
0.00606167
0.00635095
0.00672866
0.00705329
0.00721893
0.00709441
0.00685664
0.00630904
0.00579396
0.00544244
0.00444645
0.00464903
0.00416263
0.00328422
0.00272311
0.00203223
0.00154849
0.00116819
0.00111734
0.00128393
0.00192971
0.00281084
0.00278566
0.0012475
0.000290944
0.00239301
-0.000572818
0.00353879
-0.000704359
-0.00353261
-0.00328335
-0.00364416
-0.00348459
-0.0033064
-0.00320124
-0.00308085
-0.0030001
-0.00293998
-0.00288808
-0.00287452
-0.00285282
-0.00273397
-0.00247849
-0.00204123
-0.00158566
-0.00126747
-0.00102362
-0.000721241
-0.000284195
0.000603367
0.00166361
0.00139349
0.00299466
0.000860439
0.000624616
0.00117785
0.00103965
-0.000107655
0.0117647
0.0197891
-0.0211009
0.00310563
-0.00923301
-0.00886913
-0.0460182
-0.0128724
-0.0983601
-0.00426365
-0.00218543
-0.00123418
-0.000376399
0.000581585
0.00151219
0.00264838
0.00325647
0.00342698
0.0037444
0.00417475
0.00466784
0.00521903
0.00578803
0.00623858
0.00647099
0.00643895
0.00619396
0.005786
0.00536676
0.00501179
0.00460505
0.00406964
0.00367188
0.0031767
0.00261084
0.00200208
0.00159574
0.00123333
0.00115901
0.00127169
0.00185746
0.00271013
0.00266928
0.00104954
9.56246e-05
0.00224708
-0.00120183
0.00224821
-0.00132196
-0.00444487
-0.00297273
-0.00323839
-0.00303262
-0.00288871
-0.00284385
-0.00274902
-0.00266668
-0.00258225
-0.00248151
-0.00240355
-0.00232646
-0.00219209
-0.00192901
-0.00155163
-0.00121513
-0.00103165
-0.00090432
-0.000735569
-0.000497019
-9.21981e-05
0.000214526
0.000433308
0.00122567
0.00166808
0.00163974
0.00191015
0.00118101
-0.000952467
0.0168764
0.0231995
-0.0218155
0.00370952
-0.0102904
-0.0110204
-0.0248404
0.0168708
-0.0323234
-0.00489488
-0.00159386
-0.000619493
3.63549e-05
0.000659774
0.00125065
0.00188338
0.00220209
0.00246581
0.00291709
0.00353812
0.00424209
0.00494321
0.00556736
0.00599123
0.00613355
0.00602786
0.00571483
0.00530818
0.00490347
0.00447068
0.00411208
0.00366279
0.00323142
0.00282147
0.00232903
0.00185543
0.00146468
0.00115861
0.00112837
0.00127938
0.00190229
0.00277832
0.0027531
0.0011417
0.000102057
0.00214501
-0.00154668
0.000849073
-0.00230077
-0.00464006
-0.00282097
-0.00307551
-0.00289889
-0.00279225
-0.00277962
-0.00269389
-0.00261011
-0.00252031
-0.00240887
-0.00232218
-0.00223217
-0.00207182
-0.00176978
-0.00133711
-0.000899988
-0.00060308
-0.000401618
-0.000187191
9.88087e-05
0.000546894
0.000919609
0.00124813
0.00108301
0.00156038
0.00193583
0.00216393
0.00119255
-0.00143163
0.0180338
0.0234689
-0.0209635
0.00409075
-0.0073735
-0.00878161
-0.0136989
0.0145504
0.00702214
-0.00495831
-0.00153604
-0.000631402
-7.6697e-05
0.000480343
0.00099089
0.0014655
0.00175718
0.00209364
0.00260661
0.00327534
0.00400632
0.00468568
0.00523421
0.00554869
0.00559001
0.00541949
0.00508653
0.00469147
0.00432563
0.00393476
0.00360858
0.00323674
0.00286145
0.00247451
0.00203632
0.00158322
0.00124464
0.000971915
0.000956118
0.00111626
0.00171177
0.00257302
0.00257016
0.00100289
3.17182e-05
0.00190428
-0.000764511
-3.37879e-06
-0.0026139
-0.00406352
-0.00258521
-0.00285006
-0.00273645
-0.00268363
-0.0027144
-0.00266544
-0.00261373
-0.002555
-0.00247085
-0.00240309
-0.00232148
-0.00216008
-0.00185433
-0.00141289
-0.0009928
-0.000738079
-0.000574489
-0.000366217
-5.56534e-05
0.000373178
0.000697332
0.00102485
0.00123243
0.00146391
0.00169968
0.00188589
0.00101719
-0.00154617
0.0165985
0.021681
-0.0186566
0.00489155
-0.00536338
-0.00809579
-0.00825933
0.00368643
0.0115658
-0.0042658
-0.00144331
-0.000676281
-0.000199484
0.000314284
0.000808016
0.00122669
0.00155349
0.00195145
0.00245583
0.00308586
0.00375132
0.00434892
0.00481497
0.00506332
0.00507352
0.00491152
0.00462734
0.00429847
0.00399007
0.00364908
0.00334897
0.00300866
0.0026528
0.00228266
0.00187469
0.00145278
0.00113963
0.00089164
0.000888043
0.00105681
0.0016571
0.00251154
0.00250978
0.000951666
-6.77087e-05
0.00169345
-0.000959202
-0.000401224
-0.00231418
-0.00314069
-0.00216789
-0.00244066
-0.00240175
-0.00240547
-0.00248659
-0.0024945
-0.00250046
-0.00250242
-0.00247699
-0.00246273
-0.00242436
-0.0022958
-0.00202029
-0.00160636
-0.00120962
-0.000959078
-0.000775767
-0.000518969
-0.000159136
0.000281597
0.000639415
0.000929453
0.00117258
0.00138796
0.00159077
0.00178976
0.000988779
-0.00153847
0.0155829
0.020494
-0.0169262
0.00579058
-0.0047646
-0.00773909
-0.00779262
-0.00678288
0.0106985
-0.00322494
-0.00116235
-0.0005856
-0.000199011
0.000255961
0.000719256
0.00112768
0.00149887
0.00191365
0.00238597
0.00295548
0.00354175
0.00405903
0.00446393
0.0046798
0.00469314
0.00456101
0.00432856
0.0040551
0.0037838
0.00347387
0.00317844
0.00284955
0.00249658
0.0021307
0.00174077
0.00134147
0.00105099
0.000828287
0.000841133
0.00102674
0.00163462
0.00250002
0.00253569
0.00105055
3.99271e-05
0.00175937
-0.000695208
-0.000136551
-0.00174933
-0.00224209
-0.00167954
-0.00194635
-0.00196492
-0.00200818
-0.00212051
-0.0021752
-0.00222784
-0.00228034
-0.00231145
-0.00234844
-0.00235481
-0.00226445
-0.00202373
-0.00163988
-0.00125867
-0.00101579
-0.00082757
-0.00053789
-0.000151387
0.000258655
0.000609436
0.000850331
0.00109918
0.00131345
0.00149123
0.00170188
0.000959711
-0.00151473
0.0145332
0.0193014
-0.0157525
0.00636849
-0.00451844
-0.00659821
-0.00646934
-0.00735751
0.0205743
-0.00221847
-0.000839843
-0.000431456
-0.000118455
0.00029467
0.000716167
0.00109274
0.00147216
0.0018834
0.00232089
0.00283211
0.00334711
0.00379786
0.00415744
0.00435549
0.00438364
0.0042888
0.00410663
0.00388631
0.00365019
0.0033703
0.00308264
0.00276297
0.00241337
0.00205
0.00167178
0.00128694
0.00100865
0.000799583
0.000815893
0.00100561
0.00159905
0.00244353
0.00247519
0.00100517
-4.9893e-05
0.00151392
-0.000668639
0.0014291
-0.00122045
-0.00153724
-0.00123782
-0.00147528
-0.00152058
-0.00157779
-0.00169735
-0.00177529
-0.00185528
-0.00194276
-0.00201988
-0.00210529
-0.00216133
-0.00212323
-0.0019382
-0.00161314
-0.00128957
-0.001094
-0.000925596
-0.000607929
-0.000181795
0.000223309
0.000594793
0.000821079
0.0010629
0.00127923
0.00144534
0.00166242
0.000966267
-0.00142982
0.0135447
0.0180994
-0.0145998
0.00671007
-0.00404424
-0.00523056
-0.00355137
-0.00307128
0.0194222
-0.00145355
-0.00058606
-0.000268029
-1.33008e-06
0.000352338
0.0007089
0.00103918
0.0014044
0.00179539
0.00219479
0.00265438
0.00310754
0.00350088
0.00382338
0.00401269
0.00405888
0.00400409
0.00387568
0.00370957
0.00351575
0.00327274
0.0030025
0.0026981
0.00235848
0.00200248
0.00163592
0.00126414
0.000993644
0.000793358
0.000807744
0.000996583
0.00157967
0.00241022
0.00245564
0.00102842
-4.6538e-05
0.00137328
-0.000403819
0.00303864
-0.000813451
-0.00104128
-0.000886383
-0.00108049
-0.00112388
-0.00117601
-0.00128417
-0.00136475
-0.00144987
-0.00155053
-0.00165221
-0.00176767
-0.00185864
-0.00186179
-0.00172728
-0.00146289
-0.00119942
-0.0010534
-0.000920228
-0.000601384
-0.000165846
0.000215217
0.00058381
0.000793802
0.00102163
0.00124668
0.00140789
0.00163081
0.000985662
-0.00129737
0.0126458
0.0169367
-0.0133699
0.00690512
-0.00340581
-0.00426308
-0.00136421
-0.000249475
0.00925985
-0.000956566
-0.000384895
-0.00012734
9.59541e-05
0.000391191
0.000682158
0.000967249
0.00130905
0.00166903
0.00202928
0.00244059
0.0028406
0.0031832
0.00347053
0.00364771
0.00370798
0.00368698
0.00360506
0.0034902
0.00333859
0.00313284
0.00288711
0.00260314
0.00227964
0.00193545
0.00158263
0.00122423
0.0009608
0.000767681
0.00077869
0.000965572
0.00153179
0.00234737
0.00240251
0.0010131
-9.53983e-05
0.00115428
-0.000333737
0.00356248
-0.000536511
-0.000727024
-0.000638973
-0.000793429
-0.000824463
-0.000862114
-0.000949636
-0.00101757
-0.00109298
-0.00118923
-0.00129542
-0.00142
-0.00152709
-0.0015564
-0.00146029
-0.00124924
-0.00104592
-0.000959301
-0.000872651
-0.000566854
-0.000134217
0.0002248
0.00058564
0.000785475
0.000992504
0.00122364
0.00137996
0.00159899
0.00100364
-0.00114372
0.0117972
0.0158012
-0.0121496
0.00696275
-0.00276576
-0.00379882
-0.000774067
-0.000152979
-0.00146207
-0.000667616
-0.000240442
-2.72578e-05
0.000168642
0.000417003
0.000654885
0.000904463
0.00121621
0.00154175
0.00186537
0.00223335
0.00258561
0.00288201
0.00313351
0.00329464
0.00335888
0.00336145
0.00331631
0.00324332
0.00313185
0.00296367
0.00274686
0.00248851
0.00218739
0.00186132
0.00152638
0.0011853
0.000931606
0.00074834
0.000758426
0.000945178
0.00149888
0.00230538
0.00238018
0.00104464
-9.45247e-05
0.000995532
-0.000288772
0.00334779
-0.000385514
-0.000554321
-0.000494329
-0.000618092
-0.000635799
-0.000657834
-0.000723552
-0.000773233
-0.000831006
-0.000912181
-0.00100895
-0.00112715
-0.00123259
-0.00126958
-0.00119594
-0.00102368
-0.000869493
-0.000831992
-0.000782974
-0.000496293
-7.96418e-05
0.000250637
0.00059061
0.000778111
0.000957413
0.00118996
0.00134328
0.00155401
0.0010085
-0.000984914
0.0109712
0.0146715
-0.0109851
0.00688736
-0.00217535
-0.00368118
-0.00103627
-0.00121849
-0.00664769
-0.000507928
-0.000146097
3.99593e-05
0.000219258
0.000431475
0.000629177
0.000849966
0.00113311
0.00142749
0.00171813
0.00204853
0.00236007
0.00261629
0.00283363
0.00297374
0.00303602
0.00305203
0.00303328
0.00299306
0.00291596
0.00278198
0.00259466
0.00236466
0.00208871
0.00178448
0.0014698
0.00114757
0.000904455
0.00073057
0.00073865
0.000923456
0.00146183
0.00225529
0.00234734
0.00106907
-0.00010561
0.00082058
-0.000310941
0.00287288
-0.000311916
-0.000462747
-0.000414231
-0.000517083
-0.00052495
-0.00053442
-0.000581374
-0.000613692
-0.000653695
-0.000717161
-0.00079844
-0.000901553
-0.000995801
-0.00102936
-0.000965282
-0.000819658
-0.000702893
-0.000702937
-0.000684861
-0.000419746
-1.98078e-05
0.000285743
0.000601733
0.00077811
0.000926114
0.00115268
0.00130384
0.00150361
0.00100979
-0.000815106
0.0101678
0.0135533
-0.00987676
0.00669912
-0.0016364
-0.00371728
-0.00126739
-0.00252597
-0.00786039
-0.000408748
-9.20595e-05
7.60421e-05
0.000244018
0.000430121
0.000597148
0.000795114
0.00105333
0.0013203
0.00158355
0.00188287
0.00216106
0.00238248
0.00256933
0.00268835
0.00274273
0.00276514
0.0027642
0.00274817
0.00269862
0.00259381
0.00243535
0.0022338
0.00198554
0.00170588
0.00141397
0.00111314
0.000882524
0.000719402
0.000726072
0.000908646
0.00143122
0.00221058
0.00232185
0.00110644
-0.000103393
0.000662391
-0.000361832
0.00237577
-0.000268552
-0.000405366
-0.000362764
-0.00045188
-0.000453918
-0.000454699
-0.000488323
-0.000507719
-0.000533496
-0.000581375
-0.000646893
-0.000732803
-0.000810589
-0.000834006
-0.000770853
-0.000641627
-0.000551639
-0.00057869
-0.000585699
-0.000344585
3.63286e-05
0.000320886
0.000612377
0.000779324
0.000896746
0.00111227
0.00126238
0.0014513
0.00101157
-0.000633603
0.00938959
0.0124535
-0.00881816
0.00642627
-0.00114629
-0.00375863
-0.00107347
-0.00380543
-0.00756406
-0.0003462
-6.69142e-05
8.9967e-05
0.000247282
0.000411554
0.000555422
0.000734439
0.000971238
0.00121475
0.00145471
0.00172789
0.00197791
0.0021712
0.0023313
0.00243008
0.00247527
0.00249787
0.00250675
0.00250693
0.00247778
0.00239682
0.00226394
0.00208978
0.00186935
0.00161603
0.00134885
0.00107202
0.000856752
0.000706557
0.000713719
0.000894767
0.00140182
0.00216664
0.00229839
0.00115087
-9.26178e-05
0.000521051
-0.000439182
0.00188971
-0.000238569
-0.000363271
-0.000325473
-0.000405989
-0.000405047
-0.000401143
-0.00042709
-0.000438403
-0.000454809
-0.000491178
-0.000542668
-0.000611624
-0.000671731
-0.000681236
-0.000614379
-0.000494308
-0.000422096
-0.000467018
-0.000493136
-0.000273622
8.75556e-05
0.000352605
0.000619815
0.000778611
0.000868121
0.00106969
0.00121914
0.00139717
0.00101289
-0.000446545
0.00863472
0.0113756
-0.00781385
0.00609137
-0.000709588
-0.00371749
-0.000533421
-0.00489045
-0.00659715
-0.000307151
-5.43968e-05
9.1525e-05
0.000237017
0.000381987
0.000508412
0.000672555
0.000890209
0.00111392
0.00133394
0.00158493
0.00181144
0.00198091
0.0021179
0.00219895
0.00223264
0.00225311
0.00226528
0.00227494
0.00225893
0.00219568
0.00208416
0.00193423
0.00174041
0.00151322
0.00127195
0.00102085
0.000823375
0.000688334
0.000698162
0.000878753
0.00137105
0.00212071
0.00227622
0.00120384
-6.70693e-05
0.000407877
-0.000524623
0.00144288
-0.000217013
-0.000332537
-0.000299563
-0.000374818
-0.000373397
-0.000368324
-0.000391255
-0.000398937
-0.000410294
-0.000439227
-0.000479763
-0.00053394
-0.000577628
-0.000573047
-0.000499873
-0.000384204
-0.000322238
-0.000376433
-0.000414446
-0.000212472
0.000129841
0.000376116
0.000620271
0.000772043
0.00083675
0.00102209
0.00117175
0.00133933
0.00101054
-0.000262062
0.00789967
0.0103234
-0.00687025
0.00570989
-0.000330254
-0.00355936
0.000150876
-0.00562272
-0.00530842
-0.000279896
-4.75558e-05
8.66883e-05
0.000219874
0.000348715
0.000462691
0.000615022
0.000815854
0.00102198
0.00122491
0.00145652
0.00166317
0.00181314
0.00193097
0.00199626
0.00201971
0.00203527
0.00204756
0.00206043
0.00205177
0.00199992
0.00190427
0.00177473
0.00160481
0.0014023
0.00118595
0.000961067
0.000782759
0.000664236
0.000678431
0.000859184
0.00133735
0.00207026
0.00225137
0.0012621
-2.67285e-05
0.000324102
-0.00060534
0.001047
-0.000202297
-0.000309646
-0.000281486
-0.000353367
-0.000353051
-0.000349416
-0.000372421
-0.000380015
-0.000390137
-0.000415384
-0.000448305
-0.00049111
-0.000520627
-0.000503597
-0.00042424
-0.000310706
-0.000254102
-0.000310684
-0.000353539
-0.000165959
0.000158186
0.000388458
0.000612269
0.000758075
0.000801782
0.000969039
0.00111904
0.00127667
0.00100241
-8.65396e-05
0.00718408
0.00929883
-0.00599552
0.0052907
-1.12038e-05
-0.00328531
0.000812569
-0.0059071
-0.00393727
-0.000257856
-4.40334e-05
7.99647e-05
0.000200757
0.000317337
0.000422477
0.000563372
0.000749339
0.000940224
0.00112821
0.00134301
0.00153269
0.00166621
0.00176857
0.00182101
0.00183588
0.00184622
0.00185661
0.00186897
0.00186266
0.00181766
0.00173319
0.00161951
0.00146975
0.00128943
0.00109635
0.000896834
0.000738021
0.000636327
0.000655877
0.000836744
0.00129992
0.00201319
0.00222298
0.0013242
2.95068e-05
0.000272976
-0.000668731
0.000706602
-0.00019043
-0.000290178
-0.000265851
-0.00033505
-0.000336953
-0.000336024
-0.000361108
-0.000370784
-0.000382359
-0.000406688
-0.000434983
-0.000469327
-0.000488199
-0.000461446
-0.000378072
-0.000266796
-0.000212948
-0.000267624
-0.000310095
-0.000135899
0.000170695
0.000388595
0.000595426
0.000736769
0.000763867
0.00091196
0.00106169
0.00120964
0.000987981
7.5039e-05
0.00649089
0.00830872
-0.00519434
0.00484056
0.000244504
-0.00291959
0.00137957
-0.00573835
-0.00262686
-0.000237518
-4.209e-05
7.28908e-05
0.000183074
0.000289142
0.000386283
0.000517067
0.000689346
0.000866664
0.00104118
0.00124072
0.00141544
0.00153566
0.00162535
0.00166841
0.00167689
0.00168307
0.00169079
0.00170108
0.00169413
0.00165215
0.00157522
0.00147375
0.00134105
0.00117978
0.00100785
0.000832051
0.00069223
0.000607043
0.000632256
0.000812804
0.00125889
0.00195028
0.00219196
0.00138781
0.000101828
0.000254413
-0.000704879
0.000429561
-0.00017841
-0.000271074
-0.000250031
-0.000316616
-0.000321022
-0.000323278
-0.000351123
-0.000363972
-0.000378072
-0.000403135
-0.000428932
-0.00045754
-0.000468695
-0.000435527
-0.000350579
-0.000242638
-0.000190512
-0.000240418
-0.000279457
-0.000118015
0.000171337
0.000378509
0.000570995
0.000709116
0.000724111
0.000852673
0.00100073
0.00113893
0.000966565
0.000219084
0.00582251
0.00735874
-0.00446804
0.00436612
0.00043535
-0.00249445
0.00183319
-0.00519254
-0.00145126
-0.000219636
-4.13234e-05
6.59406e-05
0.000166645
0.00026335
0.000353142
0.000474384
0.00063429
0.000799
0.000961012
0.00114642
0.00130789
0.00141646
0.00149644
0.00153232
0.00153682
0.00154036
0.00154564
0.00155296
0.00154428
0.00150325
0.00143099
0.00133858
0.00121986
0.00107527
0.000921713
0.00076763
0.000645821
0.000576192
0.000607216
0.000786672
0.00121496
0.00188304
0.00215688
0.0014504
0.000189083
0.000267963
-0.00070659
0.000218507
-0.000167037
-0.000252432
-0.000234135
-0.000298411
-0.000305085
-0.000310468
-0.000340996
-0.000357071
-0.000374056
-0.000400584
-0.000425121
-0.000449774
-0.000455613
-0.000418665
-0.000334456
-0.000231188
-0.000180813
-0.000224265
-0.000258014
-0.000108834
0.000162989
0.000360625
0.000540904
0.000676058
0.00068291
0.000792153
0.000937093
0.00106541
0.000937996
0.000342344
0.00518269
0.00645558
-0.00381827
0.00387357
0.000562451
-0.00204551
0.00217265
-0.00439006
-0.000434315
-0.000203895
-4.00865e-05
5.94872e-05
0.000151394
0.000239718
0.000322819
0.000435139
0.000583378
0.000736208
0.000886289
0.00105825
0.00120766
0.00130618
0.00137795
0.00140893
0.00141098
0.0014134
0.00141715
0.00142151
0.00141045
0.00136899
0.00130011
0.00121432
0.00110698
0.000976415
0.00083882
0.000704052
0.000598847
0.000543514
0.000579918
0.00075718
0.00116703
0.00181059
0.00211555
0.0015082
0.000289282
0.000311039
-0.000669523
7.4601e-05
-0.000156368
-0.000235058
-0.000219496
-0.000281422
-0.000290228
-0.000298305
-0.000331191
-0.000350152
-0.000369777
-0.000397848
-0.000421675
-0.000443613
-0.000445993
-0.000407478
-0.000326396
-0.000229079
-0.000180784
-0.000217045
-0.000244499
-0.000106742
0.000147652
0.000336698
0.000506973
0.000639102
0.000641183
0.000731588
0.000871489
0.000989727
0.000901949
0.000442791
0.00457479
0.0056044
-0.00324347
0.00337038
0.000628349
-0.00160688
0.00239621
-0.00345022
0.000420089
-0.000189214
-3.81143e-05
5.39164e-05
0.000137994
0.000218696
0.000295621
0.000399465
0.000536722
0.000678496
0.000817468
0.000976747
0.00111437
0.00120413
0.00126903
0.0012964
0.00129762
0.0012997
0.00130231
0.00130454
0.0012909
0.00124877
0.00118204
0.00110151
0.0010035
0.000884992
0.000760954
0.00064305
0.000552731
0.000509933
0.000550926
0.000724567
0.00111504
0.0017321
0.00206607
0.00155803
0.000399073
0.000379653
-0.000591885
-4.72989e-06
-0.000146614
-0.000218738
-0.000205881
-0.000265597
-0.000276212
-0.000286577
-0.000321273
-0.000342612
-0.000364524
-0.000393875
-0.000417302
-0.000437266
-0.000437597
-0.000399348
-0.000322951
-0.000232924
-0.000187226
-0.00021614
-0.00023689
-0.000109874
0.000127143
0.000308653
0.000470777
0.000600027
0.000600024
0.000672423
0.00080539
0.00091319
0.000858944
0.000518992
0.00400148
0.00481078
-0.00274498
0.00286314
0.000637607
-0.0012083
0.00250296
-0.00248392
0.00111282
-0.000174643
-3.54105e-05
4.95597e-05
0.000126646
0.000200472
0.000271615
0.000367689
0.00049469
0.000625958
0.000754333
0.000901675
0.00102857
0.00111021
0.00116938
0.00119386
0.00119479
0.0011973
0.00119945
0.00119984
0.00118405
0.00114156
0.00107661
0.0010005
0.000910504
0.000802393
0.000689866
0.000586477
0.000509123
0.000476894
0.000521403
0.000689847
0.00105955
0.00164805
0.00200755
0.00159686
0.000514523
0.000467946
-0.000476906
-2.37634e-05
-0.000136981
-0.000202868
-0.000192579
-0.000250015
-0.000262256
-0.000274541
-0.000310462
-0.000333568
-0.000357199
-0.000387496
-0.000410463
-0.000428957
-0.000428084
-0.000391491
-0.000321033
-0.000239209
-0.000196724
-0.000218894
-0.000233001
-0.00011621
0.000103937
0.000278221
0.000433573
0.000559998
0.000560533
0.000616452
0.000740344
0.000836951
0.000809661
0.00057082
0.00346611
0.00407655
-0.0023154
0.00236091
0.000594872
-0.000874196
0.0024943
-0.00157779
0.0016389
-0.000159838
-3.22085e-05
4.62161e-05
0.000117154
0.000184713
0.000250457
0.000339178
0.000456721
0.000578178
0.000696733
0.000832821
0.000949519
0.0010237
0.00107758
0.00110001
0.00110132
0.00110435
0.00110645
0.00110548
0.00108826
0.00104576
0.00098298
0.000910983
0.000827979
0.000729249
0.000626823
0.000535515
0.000469412
0.000445946
0.000492557
0.000654145
0.00100202
0.00155981
0.00193981
0.00162257
0.00063076
0.000569341
-0.000330419
9.12767e-06
-0.000127072
-0.000186984
-0.000179274
-0.000234449
-0.000247975
-0.000261836
-0.00029844
-0.000322842
-0.000347587
-0.000378274
-0.000400646
-0.000417809
-0.00041643
-0.000382315
-0.00031851
-0.000245384
-0.000206605
-0.000222893
-0.000231046
-0.000123497
7.9427e-05
0.000247162
0.000396801
0.000520305
0.000523205
0.000564474
0.000677452
0.000762462
0.000755055
0.000599338
0.00296871
0.00340678
-0.00195603
0.0018717
0.000506123
-0.000620414
0.00237568
-0.000798185
0.00198518
-0.000145344
-2.84404e-05
4.38294e-05
0.000109025
0.000170904
0.000231614
0.000313544
0.000422042
0.000534389
0.0006437
0.000769237
0.000876551
0.000944076
0.000993198
0.00101378
0.0010154
0.00101935
0.00102146
0.00101944
0.00100143
0.000959826
0.000899493
0.000831491
0.000755331
0.000665174
0.00057152
0.000490775
0.00043408
0.000417397
0.00046506
0.000618314
0.000942599
0.00146724
0.00186282
0.00163261
0.000742704
0.000676335
-0.000161343
8.3133e-05
-0.000117044
-0.000171249
-0.000166073
-0.000218916
-0.000233518
-0.000248614
-0.0002855
-0.000310663
-0.000336122
-0.000366739
-0.000388366
-0.000404239
-0.000402608
-0.000371342
-0.000314607
-0.000250164
-0.000215532
-0.000226742
-0.000229626
-0.000130884
5.49944e-05
0.000216387
0.000360772
0.000481238
0.000488069
0.000517098
0.000617867
0.000690984
0.000696903
0.000605989
0.00251346
0.00280133
-0.00165863
0.00140563
0.000379967
-0.000455233
0.00215921
-0.000186804
0.00215261
-0.000131106
-2.41605e-05
4.20289e-05
0.000101832
0.000158582
0.000214619
0.000290029
0.000390294
0.000494115
0.000594816
0.000710466
0.000808969
0.000870337
0.000915187
0.000934234
0.000936187
0.000940715
0.00094291
0.000940374
0.000921828
0.000881606
0.000824299
0.000761009
0.000691081
0.000609231
0.000523472
0.000451638
0.00040294
0.000391479
0.000438703
0.000582373
0.000882405
0.00137188
0.00177581
0.00162583
0.000844622
0.000781683
2.01525e-05
0.000186371
-0.000107032
-0.000155819
-0.000153167
-0.000203612
-0.000219058
-0.000235105
-0.000271919
-0.000297557
-0.000323279
-0.000353484
-0.000374176
-0.000388862
-0.000387191
-0.000359079
-0.00030916
-0.000253314
-0.000222815
-0.000230083
-0.00022836
-0.000138042
3.15888e-05
0.000186133
0.000325636
0.00044297
0.000454894
0.000474074
0.000562054
0.000623233
0.000636455
0.00059319
0.00209833
0.00226118
-0.00142054
0.000970474
0.000223605
-0.000376449
0.00186058
0.00023621
0.00215163
-0.000117195
-1.94956e-05
4.06117e-05
9.56106e-05
0.000147747
0.000199306
0.000268654
0.000361155
0.000456944
0.000549619
0.000656087
0.000746524
0.000802252
0.000843297
0.000861058
0.00086324
0.000868238
0.000870465
0.00086734
0.000848967
0.00081078
0.00075707
0.000698227
0.00063485
0.000560729
0.000482429
0.000417968
0.000375858
0.000368113
0.000413935
0.000546704
0.000821531
0.00127435
0.00167934
0.00160061
0.000931731
0.000878149
0.000203052
0.000306232
-9.71326e-05
-0.000140893
-0.000140707
-0.00018867
-0.000204748
-0.000221475
-0.000257894
-0.000283707
-0.000309358
-0.000338899
-0.000358519
-0.00037201
-0.000370506
-0.000345388
-0.000302259
-0.00025442
-0.000228125
-0.000232296
-0.000226949
-0.000144577
9.35606e-06
0.000156623
0.000291237
0.000405599
0.000423126
0.000435251
0.000509919
0.000559577
0.000574945
0.000564272
0.00172661
0.0017852
-0.00123206
0.000574327
4.69461e-05
-0.000375107
0.00150153
0.000471651
0.00200456
-0.000103581
-1.45691e-05
3.97635e-05
9.03393e-05
0.000138166
0.000185381
0.0002491
0.000334356
0.000422656
0.000507869
0.000605813
0.000688887
0.000739646
0.000777136
0.00079366
0.00079617
0.000801308
0.000803488
0.000799915
0.000782166
0.00074626
0.000696571
0.000642593
0.00058541
0.000519028
0.000447731
0.000389792
0.000353014
0.000347617
0.000390799
0.000512035
0.000761087
0.00117584
0.00157415
0.00155602
0.00100032
0.000959924
0.000376435
0.000430134
-8.73683e-05
-0.000126462
-0.000128573
-0.000173987
-0.000190486
-0.000207674
-0.000243394
-0.000269072
-0.000294398
-0.000323006
-0.000341452
-0.000353939
-0.000352563
-0.000330601
-0.000293614
-0.000253306
-0.000231005
-0.000232861
-0.000224753
-0.000150109
-1.11743e-05
0.000128275
0.000257922
0.000369032
0.000392571
0.000400025
0.000462111
0.000500497
0.000514175
0.000522502
0.00139623
0.00137259
-0.0010864
0.000224295
-0.000138678
-0.000436307
0.00110428
0.000538242
0.00173231
-9.03215e-05
-9.55846e-06
3.94152e-05
8.58696e-05
0.000129606
0.000172751
0.000231162
0.000309652
0.000390937
0.000469185
0.00055934
0.000635468
0.00068181
0.000716326
0.000731645
0.000734289
0.000739573
0.00074142
0.000737723
0.000720721
0.000687712
0.000642311
0.000593294
0.000542386
0.000483555
0.000418996
0.000366561
0.000334186
0.000330155
0.000369907
0.00047867
0.000701852
0.00107734
0.00146071
0.0014949
0.00104752
0.00102151
0.000531016
0.000546691
-7.77555e-05
-0.000112663
-0.000116828
-0.000159668
-0.000176374
-0.000193791
-0.000228622
-0.000253871
-0.000278635
-0.00030618
-0.00032343
-0.000334843
-0.000333774
-0.000314641
-0.000283429
-0.00024979
-0.000231186
-0.000231386
-0.000221376
-0.000154066
-2.94005e-05
0.000101776
0.000226028
0.000333524
0.00036278
0.000367698
0.000418049
0.000446304
0.000455473
0.000471844
0.00110743
0.0010199
-0.00097612
-7.52214e-05
-0.000323443
-0.000541184
0.000694242
0.000465606
0.00136567
-7.7728e-05
-4.65275e-06
3.93657e-05
8.20016e-05
0.000121871
0.000161136
0.000214606
0.000286748
0.000361486
0.000433285
0.000516041
0.000586085
0.000628274
0.000660162
0.000674545
0.00067732
0.000682482
0.000684104
0.000680315
0.000664448
0.000634377
0.000593445
0.000549633
0.000504912
0.000453392
0.000395462
0.000348038
0.000319114
0.00031549
0.000350971
0.000447277
0.000644728
0.000979715
0.00134275
0.00141888
0.00107149
0.00106044
0.000658924
0.000646531
-6.85457e-05
-9.95921e-05
-0.000105613
-0.000145883
-0.000162651
-0.000180089
-0.00021378
-0.000238414
-0.000262394
-0.000288576
-0.000304679
-0.000315079
-0.000314294
-0.00029785
-0.000271752
-0.000244113
-0.000228799
-0.000227813
-0.000216529
-0.00015608
-4.4784e-05
7.7638e-05
0.000196147
0.000299639
0.000333709
0.000337859
0.000377691
0.000396946
0.000400318
0.000416529
0.000859803
0.000724823
-0.000891221
-0.000321192
-0.000496405
-0.000669859
0.000292866
0.000291255
0.000945244
-6.59524e-05
7.51726e-08
3.94324e-05
7.84837e-05
0.000114722
0.000150353
0.000199181
0.000265374
0.000333972
0.000399746
0.000475816
0.000540099
0.000578646
0.000608011
0.000621537
0.000624323
0.000629445
0.000630786
0.000627028
0.000612515
0.000585717
0.000549497
0.000510772
0.000472035
0.000427761
0.000376243
0.000333357
0.000307281
0.000303506
0.000334254
0.000417734
0.000590177
0.000885208
0.00122328
0.0013306
0.00107229
0.00107483
0.000755228
0.000722717
-5.98242e-05
-8.73782e-05
-9.50465e-05
-0.000132779
-0.000149443
-0.000166749
-0.000199134
-0.000222972
-0.000245971
-0.000270783
-0.000285636
-0.00029512
-0.000294614
-0.000280593
-0.000259033
-0.000236515
-0.000224095
-0.000222246
-0.000210232
-0.000156106
-5.70723e-05
5.64535e-05
0.000168593
0.000267447
0.000305495
0.000309887
0.000340605
0.00035242
0.000349458
0.000359909
0.000651095
0.000483556
-0.000824363
-0.00051255
-0.00064848
-0.000803521
-7.87589e-05
5.41883e-05
0.000503592
-5.5024e-05
4.51087e-06
3.95276e-05
7.52142e-05
0.000108039
0.000140275
0.000184735
0.000245346
0.000308189
0.000368385
0.000438123
0.000497107
0.000532478