/*--------------------------------*- C++ -*----------------------------------*\
| =========                 |                                                 |
| \\      /  F ield         | OpenFOAM: The Open Source CFD Toolbox           |
|  \\    /   O peration     | Version:  2312                                  |
|   \\  /    A nd           | Website:  www.openfoam.com                      |
|    \\/     M anipulation  |                                                 |
\*---------------------------------------------------------------------------*/
FoamFile
{
    version     2.0;
    format      ascii;
    arch        "LSB;label=32;scalar=64";
    class       volVectorField;
    location    "500";
    object      momentError;
}
// * * * * * * * * * * * * * * * * * * * * * * * * * * * * * * * * * * * * * //

dimensions      [0 1 -2 0 0 0 0];

internalField   nonuniform List<vector> 
10720
(
(-0.920417 3.17624 -1.64777e-15)
(-0.623673 3.23038 -1.75621e-15)
(-0.301828 3.05174 -1.95043e-14)
(-0.109111 3.14339 8.36446e-14)
(0.229606 2.96678 6.28651e-14)
(0.542859 2.7243 -1.54662e-13)
(0.805444 2.4603 -1.23131e-13)
(0.994968 2.19072 -9.63686e-14)
(1.11453 1.94617 1.88817e-14)
(1.18802 1.72963 5.11041e-15)
(1.22031 1.5292 -1.59173e-14)
(1.22705 1.34078 6.2581e-14)
(1.22325 1.22382 -2.05739e-13)
(1.17389 1.0676 -3.77393e-13)
(1.09727 0.875666 6.99375e-14)
(0.932862 0.73866 -9.99603e-14)
(0.758671 0.613915 1.09273e-13)
(0.682612 0.341471 8.53917e-13)
(0.484592 0.124208 2.29747e-13)
(0.273043 0.217489 -4.74546e-13)
(0.642123 0.394623 -2.09881e-13)
(1.49533 0.411539 5.88398e-14)
(1.78737 0.0927603 4.25491e-13)
(1.97762 -0.324667 -3.17468e-13)
(0.176214 -0.159247 5.72137e-14)
(-0.172698 -0.115996 -3.31007e-14)
(-0.88028 0.0900982 -4.60251e-14)
(-1.20147 -0.168425 1.92194e-14)
(-1.0988 -0.203766 -2.25334e-15)
(-0.719004 -0.0421057 1.24362e-13)
(-0.588656 0.02862 5.6142e-14)
(-1.09726 0.173943 -1.0314e-13)
(-0.885156 0.158652 -8.21061e-14)
(-1.85727 0.264205 -2.02636e-13)
(2.37979 -0.287108 -1.01479e-13)
(-2.17942 0.457434 3.04375e-14)
(-1.5507 -0.0549852 2.17481e-14)
(7.51546 -2.137 5.70294e-14)
(6.32253 4.49537 -1.83716e-14)
(-1.1123 2.95982 1.07092e-14)
(-1.08715 2.40727 -2.30438e-14)
(-1.10994 1.95548 2.60877e-14)
(-1.09658 1.5339 1.12456e-13)
(-1.00807 1.07848 4.59921e-14)
(-0.834961 0.644264 -2.99308e-13)
(-0.312436 0.256281 -1.1925e-13)
(-0.212805 0.195997 1.36087e-13)
(-0.328445 0.273135 -7.07632e-14)
(-0.489305 0.422073 6.02866e-14)
(-0.571364 0.415961 -7.43144e-14)
(-0.588481 0.363124 -1.31209e-13)
(-0.544892 0.288796 3.32784e-14)
(-0.475383 0.227178 6.6251e-14)
(-0.427637 0.212116 -1.08153e-13)
(-0.430505 0.198408 -9.30639e-14)
(-0.460423 0.210932 -6.53748e-14)
(-0.452443 0.336111 -7.86997e-14)
(-0.540983 -0.00775157 -2.84595e-14)
(-0.447559 0.186243 -1.78524e-15)
(-0.420297 0.0763538 2.53461e-14)
(-0.634018 -0.560398 5.02529e-14)
(0.108141 1.02487 -2.22469e-14)
(-0.413137 -0.26921 -1.57064e-14)
(-0.312322 -0.0740852 1.61848e-14)
(-0.220651 0.0687973 -3.3792e-15)
(-0.208553 0.0305249 5.62834e-16)
(-0.19308 -0.00316456 7.11837e-16)
(-0.134832 0.00761232 -6.63138e-16)
(-0.128365 0.0015106 1.3095e-15)
(-0.120382 -0.00113826 4.51996e-15)
(-0.121732 -0.00410983 -2.10319e-15)
(-0.128075 -0.0069916 -2.5356e-15)
(-0.157969 -0.00950022 -5.81145e-14)
(-0.271801 -0.0202489 -5.17358e-14)
(-0.284616 -0.0183962 3.24719e-14)
(-0.453174 -0.071886 -5.62772e-15)
(-0.553648 0.0516622 3.96071e-15)
(0.633668 -0.286798 1.1589e-14)
(-0.555104 2.82391 -4.64433e-15)
(-0.35628 2.8247 3.43278e-15)
(-0.0289216 2.69388 -1.76305e-15)
(0.185293 2.94152 -6.26703e-15)
(0.441862 2.85382 8.13976e-15)
(0.695049 2.68031 5.6732e-14)
(0.914162 2.49223 6.95845e-14)
(1.05938 2.25039 2.46331e-14)
(1.14713 1.99175 -7.7485e-14)
(1.20028 1.7458 -3.51201e-14)
(1.22168 1.50797 -2.36993e-13)
(1.22708 1.28726 -4.31527e-13)
(1.21745 1.06398 -2.12161e-14)
(1.21611 0.906637 -1.84124e-14)
(1.20286 0.777971 -7.97015e-14)
(1.21052 0.656724 8.27034e-14)
(1.19061 0.542628 3.63844e-13)
(1.01718 0.467624 -6.67029e-13)
(0.900719 0.310002 -5.31554e-13)
(0.823977 0.00781445 -3.50204e-13)
(0.337429 -0.274035 2.43994e-13)
(-0.307984 -0.450295 1.97903e-13)
(-0.188543 -0.701286 -3.12513e-13)
(-2.64824 -1.01123 5.17601e-14)
(-0.795782 -0.695958 -2.12736e-15)
(0.678486 1.15196 -3.18068e-14)
(-0.27068 -0.218343 -9.84842e-16)
(-0.950817 -0.188366 1.02409e-14)
(-1.10299 0.0401387 -1.50758e-14)
(-1.18808 0.121573 5.50802e-14)
(-0.803108 0.0996088 2.75173e-14)
(0.183881 0.0154466 4.89517e-15)
(-0.722007 0.17296 -9.63684e-14)
(-1.34084 0.325647 -1.29362e-13)
(3.94275 -0.718708 1.41111e-13)
(-21.7357 3.08974 5.42792e-14)
(4.01167 -2.21379 2.21795e-14)
(8.60327 -0.992429 -5.93057e-14)
(-6.69079 7.20825 -8.68526e-15)
(-0.674573 2.65643 -1.77325e-14)
(-0.770819 2.25663 1.63097e-13)
(-0.825723 1.82747 -5.03141e-14)
(-0.855182 1.44456 -1.23165e-13)
(-0.824495 1.03178 7.73415e-14)
(-0.685204 0.635605 8.05528e-14)
(-0.375466 0.363576 -5.58373e-14)
(-0.315043 0.304879 1.64889e-13)
(-0.390216 0.374292 6.96558e-14)
(-0.469359 0.441007 -6.33934e-14)
(-0.553793 0.403622 6.88144e-14)
(-0.587324 0.313043 -9.53278e-14)
(-0.563107 0.219094 2.29638e-14)
(-0.506173 0.16561 9.37311e-15)
(-0.470333 0.159098 2.19102e-14)
(-0.456715 0.198137 2.3939e-14)
(-0.446001 0.215271 4.32989e-14)
(-0.576437 0.107574 -1.25374e-14)
(-0.432911 0.343544 2.61356e-15)
(-0.453598 0.11098 -5.76441e-15)
(-0.457814 0.157058 1.50968e-14)
(0.0926726 0.718977 4.38648e-14)
(-0.905197 -0.97929 -1.75392e-15)
(-0.163051 0.369578 -1.1421e-14)
(-0.180932 0.128208 -1.0526e-14)
(-0.280891 -0.0604933 1.05127e-14)
(-0.241926 -0.0290682 1.76458e-15)
(-0.184936 0.0146619 -5.60058e-16)
(-0.187729 -0.0308452 4.69115e-17)
(-0.129118 -0.0300299 -8.32089e-17)
(-0.084652 -0.0360951 -2.15913e-16)
(-0.062586 -0.0397614 -7.005e-15)
(-0.0798089 -0.0385636 1.04825e-14)
(-0.121311 -0.0380819 4.54568e-14)
(-0.151487 -0.0489113 6.9298e-15)
(-0.218556 -0.0580528 -1.25444e-14)
(-0.306452 -0.0912368 8.23719e-15)
(-0.29038 -0.0711169 -2.90877e-14)
(1.50479 0.479377 -5.84426e-15)
(-0.636855 2.61461 1.93045e-15)
(-0.397989 2.60702 2.3915e-15)
(-0.104359 2.40788 -1.5621e-16)
(0.0913276 2.60331 -4.46641e-15)
(0.330708 2.54563 4.63026e-14)
(0.58995 2.41488 -5.49227e-14)
(0.822885 2.28772 -7.19444e-14)
(0.985742 2.08825 1.36104e-13)
(1.08966 1.85531 5.74399e-14)
(1.15398 1.62739 8.15501e-14)
(1.17478 1.39608 1.82872e-14)
(1.17244 1.17925 2.68291e-15)
(1.15278 0.982109 3.26365e-13)
(1.12465 0.793849 9.68835e-15)
(1.09621 0.612728 2.05907e-13)
(1.07459 0.44287 -4.01273e-15)
(0.987919 0.322118 -6.46949e-13)
(0.917944 0.163899 3.95863e-13)
(0.765671 0.0209462 8.87512e-13)
(0.494975 -0.106043 1.63603e-13)
(0.248197 -0.182066 -5.20237e-14)
(0.0559466 0.0950488 -2.01328e-14)
(-0.430892 0.844313 1.21724e-13)
(1.39122 0.979053 1.1745e-13)
(-0.282145 0.603306 -9.11563e-14)
(-0.700954 -0.934635 -9.40968e-15)
(0.572034 -0.00329551 -2.96833e-14)
(-0.101594 -0.0525916 1.17154e-14)
(-0.516926 -0.0759589 -3.05635e-14)
(-0.693853 -0.0673283 -8.22636e-14)
(-0.621803 0.0104031 1.81351e-14)
(-0.253312 0.0834092 1.43875e-13)
(-1.03663 0.183632 2.00826e-14)
(0.12401 0.24292 1.07894e-13)
(3.48192 -0.494455 1.23266e-13)
(-18.4499 3.52411 6.58656e-14)
(31.2069 -5.57335 -3.41629e-14)
(14.4149 -2.45557 -5.5358e-15)
(-19.1571 12.1902 5.12201e-14)
(-0.760669 2.45018 2.66482e-14)
(-0.801625 2.08555 -4.1247e-14)
(-0.785621 1.62895 -5.30781e-14)
(-0.78142 1.27786 -1.00994e-14)
(-0.727106 0.938465 8.24898e-15)
(-0.583878 0.627873 -1.08298e-13)
(-0.3911 0.412325 3.12007e-14)
(-0.36542 0.356504 -1.59308e-13)
(-0.426546 0.398165 -1.2641e-13)
(-0.478483 0.41444 -1.12225e-13)
(-0.52857 0.388313 1.1279e-13)
(-0.545998 0.327223 1.07192e-13)
(-0.524365 0.273135 -6.24664e-14)
(-0.483389 0.25306 -1.41971e-13)
(-0.44642 0.263383 3.93e-14)
(-0.42966 0.295466 6.59202e-14)
(-0.433982 0.305215 -1.76174e-14)
(-0.432263 0.276116 -8.38438e-14)
(-0.47644 0.264658 -2.36362e-14)
(-0.431313 0.180144 2.47951e-15)
(-0.404815 0.110457 -1.66854e-14)
(-0.465031 0.0585275 -3.46379e-14)
(-0.135444 0.139322 7.56436e-15)
(-0.349633 -0.0396505 -6.86855e-16)
(-0.275799 0.0757471 4.70522e-16)
(-0.234655 0.0575196 -3.48663e-15)
(-0.22095 0.0100957 -6.56813e-15)
(-0.207906 -0.0474159 1.10785e-15)
(-0.170975 -0.0122579 6.50012e-17)
(-0.137849 -0.0190892 -1.84728e-15)
(-0.104953 -0.0166088 1.44598e-16)
(-0.0876276 -0.0145124 7.28544e-15)
(-0.0983355 -0.0151535 -7.68985e-15)
(-0.129136 -0.0155993 -1.24545e-14)
(-0.149938 -0.0127121 1.47593e-15)
(-0.152081 -0.0171557 3.86529e-16)
(-0.15072 -0.0424156 -2.76737e-15)
(-0.175805 -0.0632799 1.74622e-14)
(-0.347821 0.299825 2.03883e-15)
(-0.442319 2.3473 1.15134e-14)
(-0.215075 2.34322 4.31592e-15)
(0.0262797 2.18538 -4.31147e-17)
(0.21509 2.35082 -5.67083e-15)
(0.414217 2.28624 -6.16748e-16)
(0.625699 2.1837 -1.20817e-14)
(0.821057 2.08083 8.87796e-14)
(0.96411 1.89779 2.32821e-14)
(1.06643 1.67629 -2.21112e-13)
(1.14 1.45608 7.45779e-14)
(1.1699 1.22957 2.45325e-13)
(1.17652 1.01583 3.11254e-13)
(1.17027 0.825056 7.10677e-14)
(1.14434 0.656288 -3.57766e-13)
(1.0943 0.507412 -9.00188e-14)
(1.02163 0.37727 -8.76678e-14)
(0.95987 0.246822 -1.67212e-13)
(0.870359 0.115625 -3.54069e-13)
(0.748656 -0.0364019 -6.12335e-13)
(0.553181 -0.188763 1.53483e-13)
(0.270096 -0.270626 -1.16428e-13)
(0.0638035 -0.33511 -1.79957e-13)
(-0.189359 -0.561796 1.95852e-16)
(-0.548683 -0.164464 -2.34827e-13)
(-0.528676 0.791712 -3.801e-14)
(0.732489 -0.083213 3.34557e-14)
(0.281737 -0.132347 3.83602e-14)
(0.336217 -0.017291 -1.71591e-14)
(0.130112 -0.00773149 2.3932e-14)
(-0.00129748 -0.035123 4.43706e-14)
(-0.15479 -0.0282304 -4.41547e-14)
(-0.179292 0.07234 1.82164e-14)
(-0.937232 0.132533 1.41027e-13)
(-0.381016 0.288229 9.10822e-14)
(3.48612 -0.152934 -1.63541e-14)
(-7.88929 1.09414 -1.25573e-13)
(22.0948 -5.97356 -2.79554e-14)
(7.22957 -2.00581 2.92815e-15)
(-44.9178 15.9514 -1.04891e-14)
(-0.598573 2.18479 -2.92048e-15)
(-0.680291 1.8704 -4.03148e-14)
(-0.685338 1.45385 -3.6401e-14)
(-0.699428 1.14948 -3.37607e-14)
(-0.658356 0.866148 1.26752e-13)
(-0.546413 0.608494 2.0012e-13)
(-0.431753 0.446889 1.39096e-14)
(-0.422146 0.400676 1.48448e-13)
(-0.460527 0.413267 -5.34679e-15)
(-0.494562 0.402676 -3.69599e-14)
(-0.517445 0.374227 -8.34344e-14)
(-0.525648 0.328789 -3.08274e-14)
(-0.511339 0.284874 -2.02172e-14)
(-0.483771 0.258965 7.23043e-14)
(-0.456918 0.25132 -3.8315e-14)
(-0.441449 0.24619 -1.2233e-13)
(-0.439505 0.229618 -1.65538e-14)
(-0.444298 0.19163 7.83564e-14)
(-0.442779 0.144924 -2.86092e-15)
(-0.422053 0.104951 -2.14255e-14)
(-0.3889 0.0757946 -5.64648e-14)
(-0.346591 0.0108664 2.23948e-14)
(-0.306906 0.0186947 2.88332e-14)
(-0.283581 0.0154144 -5.28351e-15)
(-0.25596 -0.0559845 -1.71758e-15)
(-0.241963 -0.0441375 2.57364e-15)
(-0.221855 -0.0382563 3.34747e-15)
(-0.201569 -0.0297607 -4.42579e-16)
(-0.170648 -0.0469436 3.21969e-16)
(-0.137176 -0.0448483 7.06272e-16)
(-0.106556 -0.0464317 -1.84826e-15)
(-0.0929245 -0.0479336 -3.53259e-15)
(-0.105701 -0.0460642 -2.11576e-15)
(-0.13923 -0.0453329 5.53778e-15)
(-0.179539 -0.05453 1.30199e-14)
(-0.204507 -0.0671682 -1.64331e-14)
(-0.220385 -0.0800998 6.78801e-15)
(-0.213961 -0.0147106 3.50537e-14)
(-3.51997 0.466896 -1.50873e-14)
(-0.324356 2.08073 -9.89338e-15)
(-0.121889 2.08801 6.65171e-15)
(0.0831137 1.96433 3.42973e-16)
(0.270856 2.11588 -1.03521e-14)
(0.43767 2.03914 -4.40444e-15)
(0.611425 1.94469 2.42528e-14)
(0.787615 1.86062 -1.32563e-14)
(0.912014 1.6953 1.52208e-14)
(1.00306 1.4995 -8.33585e-14)
(1.06644 1.30603 -2.56042e-13)
(1.09 1.10867 -9.64454e-15)
(1.09162 0.927285 -1.16831e-13)
(1.07537 0.768302 -7.35389e-14)
(1.04635 0.620986 -1.50858e-14)
(1.00421 0.483139 -3.04058e-13)
(0.946678 0.34757 2.82311e-13)
(0.891335 0.200495 1.59875e-13)
(0.798093 0.0972666 -3.53948e-13)
(0.659858 -0.00708505 1.19641e-13)
(0.466453 -0.119696 -1.92632e-13)
(0.255895 -0.232877 -1.2829e-13)
(0.093077 -0.242807 2.4403e-13)
(0.132509 -0.205499 1.40805e-14)
(0.328163 -0.232724 2.11055e-13)
(1.18341 -0.57471 9.36118e-14)
(-0.189307 0.0943157 -2.06493e-14)
(0.139741 -0.0515299 5.45909e-15)
(0.0934346 -0.00448953 2.12626e-14)
(2.30533e-05 -0.0133889 -2.70237e-14)
(-0.0274702 -0.0642533 -4.71131e-14)
(-0.0706552 -0.0673615 2.10947e-14)
(-0.201156 0.0756566 -4.36235e-14)
(-0.51862 0.0708081 -3.61948e-14)
(-0.723827 0.260007 -1.0972e-13)
(2.401 0.155036 -1.89568e-13)
(-6.14481 0.0247131 4.14084e-14)
(3.7174 -3.81608 -3.79873e-14)
(2.0214 -0.586214 2.48052e-15)
(-61.0392 15.7165 3.96678e-14)
(-0.473966 1.92015 2.10606e-14)
(-0.573079 1.64509 3.93317e-14)
(-0.608713 1.31006 -4.74626e-14)
(-0.633421 1.06859 -2.41466e-14)
(-0.61592 0.822157 6.26238e-14)
(-0.531172 0.597395 -1.49001e-13)
(-0.46807 0.468907 -1.00891e-13)
(-0.475004 0.431213 1.82781e-13)
(-0.49939 0.419167 1.91346e-13)
(-0.516553 0.393448 -3.18642e-15)
(-0.529615 0.355344 -5.26303e-14)
(-0.532442 0.308711 -3.69204e-14)
(-0.519442 0.262053 1.14742e-13)
(-0.494713 0.228871 -5.25043e-14)
(-0.470879 0.207845 -1.23007e-14)
(-0.452782 0.1915 9.09378e-14)
(-0.443382 0.176452 -4.08913e-14)
(-0.43809 0.152989 3.62942e-14)
(-0.428241 0.120624 2.26507e-14)
(-0.405769 0.0843168 3.08493e-15)
(-0.372367 0.0526083 5.91548e-14)
(-0.332657 0.0232649 -2.14703e-14)
(-0.293862 0.00623869 -3.79672e-14)
(-0.266235 0.00100796 -6.56582e-15)
(-0.249364 -0.00838228 1.40834e-14)
(-0.232131 -0.0168852 -2.86464e-16)
(-0.211879 -0.02452 4.62132e-15)
(-0.190462 -0.0297102 -8.69818e-16)
(-0.163707 -0.0302996 -2.70362e-16)
(-0.131485 -0.0303782 6.60906e-16)
(-0.101133 -0.0297874 1.21489e-15)
(-0.0881918 -0.027789 2.12366e-15)
(-0.102445 -0.0248479 -3.72588e-15)
(-0.137814 -0.0242791 -1.56333e-14)
(-0.178349 -0.025834 -5.19719e-15)
(-0.212685 -0.0325242 -5.18619e-15)
(-0.219684 -0.0546505 -8.6253e-15)
(-0.229141 -0.0777864 -1.61429e-14)
(-4.33665 0.266504 -4.41251e-16)
(-0.271296 1.82689 1.88479e-15)
(-0.0764185 1.86128 -4.06761e-16)
(0.112235 1.77336 2.23781e-15)
(0.283071 1.91125 -2.0166e-15)
(0.420971 1.84485 6.34826e-15)
(0.56844 1.75864 -4.64494e-15)
(0.719706 1.68753 -3.27088e-14)
(0.824452 1.54425 6.59078e-14)
(0.904302 1.37731 1.46056e-13)
(0.962328 1.21361 -9.21337e-14)
(0.985427 1.04578 -9.47413e-14)
(0.991676 0.890642 5.95001e-14)
(0.983906 0.749116 -1.33733e-13)
(0.959324 0.619819 -2.06965e-14)
(0.921988 0.501768 -4.14534e-14)
(0.866605 0.392466 2.02594e-14)
(0.787566 0.298768 4.04662e-14)
(0.7108 0.194457 4.20128e-13)
(0.607196 0.0672942 3.38628e-13)
(0.442723 -0.0663855 -1.46109e-13)
(0.247506 -0.161003 2.08182e-13)
(0.105338 -0.195476 1.96041e-14)
(0.114101 -0.13009 -6.22995e-14)
(0.190726 -0.00415837 -1.20779e-13)
(0.0974244 0.0166382 9.64558e-15)
(0.0854283 -0.0476623 2.81305e-14)
(0.0673678 -0.0267645 3.48279e-14)
(0.00660717 0.0197403 -3.26357e-14)
(-0.0967205 -0.0142179 7.6649e-15)
(-0.136933 -0.0713108 6.47294e-14)
(-0.136936 -0.0683274 -2.62994e-14)
(-0.193941 0.0715493 -1.41061e-13)
(-0.35437 0.0410427 -6.95996e-14)
(-0.537197 0.210796 -6.00669e-14)
(1.04036 0.501052 4.6941e-14)
(-5.21919 -0.13291 3.36684e-14)
(2.74188 -3.03974 5.08217e-14)
(-2.25606 1.85064 4.55061e-14)
(-63.4463 14.6295 -3.06415e-14)
(-0.407484 1.70245 -9.28084e-15)
(-0.509117 1.53684 -1.26182e-14)
(-0.569271 1.24789 2.1908e-15)
(-0.588657 0.994837 3.65591e-14)
(-0.552331 0.756046 3.70638e-14)
(-0.459825 0.551748 -1.95859e-13)
(-0.424888 0.474303 -1.17769e-13)
(-0.451706 0.459873 -1.68406e-13)
(-0.471997 0.439824 3.12624e-14)
(-0.486111 0.41016 2.1107e-14)
(-0.496243 0.374123 -5.46308e-14)
(-0.499194 0.33432 4.89193e-15)
(-0.489472 0.293858 -2.39829e-14)
(-0.474402 0.259987 -4.28343e-14)
(-0.460941 0.235612 -1.35425e-13)
(-0.44646 0.216324 -1.22382e-14)
(-0.43483 0.197837 8.05695e-14)
(-0.425787 0.176053 -1.25346e-14)
(-0.413353 0.147496 1.54896e-14)
(-0.39093 0.113772 -2.71163e-14)
(-0.359344 0.0800194 -4.08724e-14)
(-0.322672 0.0501476 -2.97035e-15)
(-0.288322 0.0303273 1.37232e-14)
(-0.262894 0.0168478 1.47329e-14)
(-0.245749 0.00555436 -1.30071e-15)
(-0.228794 -0.0033223 -5.1833e-15)
(-0.209263 -0.0104984 -8.76757e-15)
(-0.188343 -0.0163918 1.67643e-15)
(-0.162411 -0.0194199 2.34736e-16)
(-0.130718 -0.0204217 -6.58323e-16)
(-0.100552 -0.0201898 -1.16118e-15)
(-0.0876027 -0.0205898 -1.97645e-15)
(-0.102546 -0.022097 3.41369e-15)
(-0.138328 -0.0253182 1.40208e-14)
(-0.178336 -0.037143 4.08433e-15)
(-0.209877 -0.0558918 9.34472e-15)
(-0.218773 -0.0717381 -5.2488e-15)
(-0.211647 -0.114411 -1.77486e-14)
(-2.67017 -0.0791404 3.06953e-16)
(-0.233383 1.68746 7.59871e-16)
(-0.0736291 1.69407 -3.18235e-16)
(0.0885728 1.62976 -9.68687e-16)
(0.253958 1.76192 3.28641e-15)
(0.377681 1.70928 -2.52046e-15)
(0.513535 1.64048 -1.34459e-14)
(0.655958 1.58308 3.67678e-14)
(0.755886 1.45843 -1.07567e-14)
(0.836028 1.31328 4.67476e-14)
(0.899881 1.16969 9.11494e-14)
(0.93289 1.01856 1.78244e-14)
(0.950863 0.875076 2.94553e-14)
(0.955945 0.742367 1.94133e-13)
(0.942966 0.614274 3.36101e-13)
(0.916139 0.491203 3.04042e-13)
(0.873674 0.372309 -5.49254e-15)
(0.814453 0.250924 3.73202e-13)
(0.743073 0.123651 1.43654e-14)
(0.624618 0.0106494 -1.10549e-13)
(0.447485 -0.101844 1.49705e-13)
(0.234834 -0.183593 -2.49493e-13)
(0.0984519 -0.194525 1.02491e-13)
(0.133934 -0.133225 1.14517e-13)
(0.219253 -0.0494582 3.86709e-14)
(0.191033 -0.0324563 1.11232e-13)
(0.110375 -0.0576614 -4.45738e-14)
(0.0820607 -0.0483891 -3.72292e-14)
(0.00403793 -0.0172889 5.21491e-15)
(-0.119303 -0.0394166 2.36356e-14)
(-0.161568 -0.0732128 -6.02664e-14)
(-0.16585 -0.0593216 -5.8184e-14)
(-0.205216 0.0521823 1.10924e-13)
(-0.462468 0.0378934 2.43421e-14)
(-0.295681 0.189292 -4.23995e-14)
(0.596904 0.690968 7.47219e-15)
(-3.96609 -0.403972 -8.7902e-14)
(5.73879 -2.8942 -9.05632e-15)
(-5.55473 4.43571 -1.65874e-14)
(-62.0057 16.1757 -2.2483e-14)
(-0.37445 1.63065 -6.6459e-15)
(-0.465425 1.43742 -1.1332e-14)
(-0.494658 1.098 6.75089e-15)
(-0.480131 0.850465 8.00248e-14)
(-0.43097 0.658188 3.52702e-14)
(-0.379641 0.522881 6.8717e-15)
(-0.370443 0.478326 1.71937e-13)
(-0.398482 0.467279 -8.80236e-14)
(-0.417985 0.447663 -1.39529e-13)
(-0.429593 0.420802 4.5553e-14)
(-0.441291 0.389972 9.52305e-14)
(-0.447769 0.357054 -2.21421e-14)
(-0.446905 0.324391 6.40281e-14)
(-0.444017 0.292813 7.30278e-15)
(-0.438197 0.266146 3.30479e-14)
(-0.429292 0.243963 1.35279e-14)
(-0.421518 0.221705 -3.54707e-14)
(-0.412736 0.19539 2.97723e-14)
(-0.399523 0.164094 -2.20787e-14)
(-0.378191 0.128536 2.97902e-15)
(-0.34921 0.0924965 5.63052e-14)
(-0.315782 0.059878 -1.91248e-14)
(-0.284847 0.0360917 -2.5086e-14)
(-0.262041 0.0202968 5.32375e-15)
(-0.245816 0.00759807 -8.49536e-16)
(-0.229384 -0.00236866 1.3546e-15)
(-0.210046 -0.0106655 4.65155e-15)
(-0.189233 -0.0175927 -7.699e-16)
(-0.163374 -0.0221713 1.8175e-16)
(-0.131555 -0.0251734 4.03512e-17)
(-0.101356 -0.0284806 -2.80342e-15)
(-0.0875922 -0.0301883 4.0996e-16)
(-0.102099 -0.0307685 4.99831e-15)
(-0.137446 -0.0337062 -5.01183e-16)
(-0.178095 -0.041804 -5.38717e-16)
(-0.204109 -0.0545812 -1.3967e-15)
(-0.227599 -0.0651932 4.63601e-15)
(-0.197135 -0.114601 1.45837e-14)
(-1.15352 -0.243018 -7.29855e-15)
(-0.233116 1.58135 3.14523e-15)
(-0.0954323 1.57134 -3.41735e-15)
(0.0558988 1.51596 1.68271e-15)
(0.215737 1.63095 -4.17861e-15)
(0.335378 1.57997 2.21914e-15)
(0.464558 1.51423 3.31944e-15)
(0.59937 1.46151 6.90506e-15)
(0.693286 1.34744 -9.34497e-14)
(0.769874 1.21774 -9.64868e-15)
(0.833378 1.09215 1.45196e-13)
(0.868538 0.958348 -6.05042e-14)
(0.891256 0.830601 -1.35762e-13)
(0.901891 0.710092 -2.68385e-13)
(0.894011 0.591254 -2.25862e-13)
(0.871801 0.475633 -1.55645e-13)
(0.832911 0.363317 -5.88785e-14)
(0.773886 0.253776 -2.10147e-13)
(0.698493 0.145757 -2.87704e-13)
(0.605352 0.0206901 -1.39039e-13)
(0.449593 -0.102733 3.40909e-13)
(0.252498 -0.187137 3.15929e-13)
(0.123806 -0.198517 -2.78461e-14)
(0.158462 -0.132977 -4.65246e-14)
(0.232223 -0.0474251 -1.51908e-13)
(0.179394 -0.0264521 -8.47319e-14)
(0.110991 -0.060008 3.87809e-14)
(0.0912105 -0.0600708 2.89559e-14)
(0.00811645 -0.0331794 3.25188e-15)
(-0.120618 -0.0522162 -1.67672e-14)
(-0.152602 -0.0738547 6.2366e-14)
(-0.154594 -0.0533557 1.31865e-13)
(-0.185953 0.0477355 -3.80315e-15)
(-0.523146 0.0320178 1.68457e-14)
(-0.261866 0.205306 3.53838e-14)
(0.748087 0.726126 -1.67226e-14)
(-3.46628 -0.801077 8.50556e-14)
(7.0937 -2.34321 1.72654e-14)
(-12.5154 8.37694 -2.28762e-15)
(-66.2352 17.202 -1.24708e-14)
(-0.342375 1.45096 1.7116e-14)
(-0.392004 1.19362 2.10894e-14)
(-0.398797 0.9221 6.26032e-15)
(-0.401633 0.757388 1.05122e-13)
(-0.388071 0.626257 -1.76875e-13)
(-0.375183 0.521012 8.48434e-14)
(-0.384414 0.47317 1.49199e-13)
(-0.409004 0.452913 7.29999e-14)
(-0.424873 0.425224 -3.38557e-14)
(-0.434241 0.394408 -3.34746e-14)
(-0.442491 0.365021 2.24238e-14)
(-0.446119 0.333529 3.55693e-14)
(-0.444103 0.302756 -8.42979e-14)
(-0.439502 0.275853 6.29825e-14)
(-0.432902 0.252376 1.53453e-14)
(-0.423738 0.230513 -1.14227e-14)
(-0.414245 0.20932 -5.35554e-14)
(-0.402624 0.185285 -5.3488e-14)
(-0.386896 0.156587 4.42566e-14)
(-0.364523 0.123921 1.30636e-14)
(-0.336136 0.090422 4.38628e-15)
(-0.304601 0.0599756 4.36743e-14)
(-0.27603 0.0370409 1.70472e-14)
(-0.254928 0.0215119 -2.023e-15)
(-0.239826 0.00990623 4.61138e-15)
(-0.224345 0.00075878 -2.88279e-15)
(-0.205751 -0.00722374 -5.71433e-15)
(-0.185659 -0.0142848 9.6248e-16)
(-0.16049 -0.0196079 -4.78757e-16)
(-0.129169 -0.0235491 4.30331e-16)
(-0.0994708 -0.0269097 2.6467e-15)
(-0.0856461 -0.0292346 -2.66663e-15)
(-0.100642 -0.0321462 -1.03014e-14)
(-0.135886 -0.0369293 -9.22749e-15)
(-0.178034 -0.0492437 -5.57118e-15)
(-0.198675 -0.0650893 2.85841e-15)
(-0.236586 -0.0790414 -3.6093e-15)
(-0.208395 -0.126103 -1.02266e-14)
(-0.430723 -0.146897 3.82802e-15)
(-0.188374 1.36486 7.82897e-16)
(-0.0488118 1.39956 1.88654e-15)
(0.0890707 1.35241 -1.89053e-15)
(0.235904 1.45186 -2.58429e-16)
(0.344258 1.40178 -1.18104e-14)
(0.461211 1.33731 1.24101e-14)
(0.581449 1.28705 -1.26318e-14)
(0.661499 1.18351 -1.66972e-14)
(0.726122 1.06865 -2.94919e-14)
(0.780113 0.960994 -3.93004e-14)
(0.808278 0.846626 1.65282e-14)
(0.82612 0.737134 1.59477e-13)
(0.83385 0.634206 2.1565e-13)
(0.824757 0.532071 3.51105e-14)
(0.803032 0.431708 7.27757e-15)
(0.766556 0.333086 1.28091e-14)
(0.711786 0.235193 -3.91322e-14)
(0.6366 0.134354 1.21016e-13)
(0.548674 0.0241581 1.09039e-13)
(0.405806 -0.0843789 -2.64265e-13)
(0.23235 -0.16564 -2.86302e-14)
(0.122977 -0.181419 5.69481e-14)
(0.169445 -0.127632 -6.75355e-14)
(0.245811 -0.0613148 7.89874e-14)
(0.187487 -0.0465354 1.92111e-16)
(0.112516 -0.0680324 -1.29717e-14)
(0.0968667 -0.0688338 -3.72047e-14)
(0.0107182 -0.0491758 1.74564e-15)
(-0.124042 -0.0623137 -1.37284e-16)
(-0.14755 -0.0735397 3.27593e-14)
(-0.141496 -0.0524459 1.30809e-14)
(-0.168126 0.0417098 -5.95967e-14)
(-0.484036 0.0138765 -2.06025e-14)
(-0.352802 0.229979 1.18417e-13)
(0.9362 0.706141 2.11368e-14)
(-3.4845 -1.16304 -3.19128e-14)
(6.6279 -1.14795 -1.63671e-14)
(-19.557 13.0222 -6.23654e-16)
(-63.8646 13.5304 -2.71213e-14)
(-0.27296 1.2029 3.77058e-15)
(-0.320568 1.05083 -4.99887e-14)
(-0.353445 0.881676 2.09951e-14)
(-0.389282 0.742578 2.41616e-14)
(-0.396758 0.605215 4.72298e-14)
(-0.390867 0.507749 -1.62686e-14)
(-0.408573 0.465963 -3.16198e-14)
(-0.431154 0.437456 -4.74804e-15)
(-0.4456 0.40453 -5.93036e-15)
(-0.453883 0.36766 1.13717e-14)
(-0.457511 0.334124 3.65227e-14)
(-0.457283 0.302642 6.23543e-14)
(-0.45221 0.273165 -2.50768e-15)
(-0.445259 0.247958 -1.29881e-13)
(-0.436303 0.226034 2.45395e-14)
(-0.424801 0.20562 7.13594e-14)
(-0.412439 0.18567 5.41444e-14)
(-0.397169 0.163508 2.46573e-14)
(-0.378138 0.137766 -1.93847e-14)
(-0.35362 0.108624 -4.80079e-15)
(-0.324616 0.0785801 -2.00023e-14)
(-0.293903 0.0512126 -3.65377e-14)
(-0.266901 0.0303617 1.46449e-14)
(-0.247088 0.0163206 1.37911e-14)
(-0.232892 0.00643375 2.14128e-15)
(-0.218157 -0.00132318 1.13106e-14)
(-0.2002 -0.00836604 3.3781e-15)
(-0.180754 -0.0149086 -7.78351e-16)
(-0.156279 -0.0202301 2.36471e-16)
(-0.125528 -0.0243314 -6.9634e-16)
(-0.0965129 -0.0282557 1.45482e-15)
(-0.0827086 -0.030421 1.55697e-15)
(-0.0980992 -0.0326865 4.60696e-15)
(-0.133434 -0.0372692 3.21943e-15)
(-0.176717 -0.0486156 -6.54996e-15)
(-0.194735 -0.0646187 7.02797e-16)
(-0.239557 -0.0791792 -5.87942e-16)
(-0.224301 -0.124103 7.79388e-16)
(-0.246004 -0.0716828 2.11568e-15)
(-0.125127 1.19455 3.83298e-15)
(-0.0059878 1.23195 -1.14247e-15)
(0.117912 1.20206 -4.74259e-15)
(0.249184 1.29123 -2.08204e-15)
(0.343791 1.25033 1.20151e-14)
(0.448757 1.19447 -1.39783e-14)
(0.557842 1.15091 -2.63707e-15)
(0.628827 1.06015 2.73034e-14)
(0.687444 0.960686 1.60053e-14)
(0.737268 0.867633 3.20819e-14)
(0.763939 0.768083 7.00154e-14)
(0.781983 0.671489 5.83251e-14)
(0.789769 0.578653 -1.36393e-13)
(0.781193 0.485461 -2.20603e-13)
(0.76115 0.39298 3.75496e-14)
(0.726398 0.300774 2.83187e-13)
(0.674229 0.208299 5.98069e-14)
(0.601685 0.113751 -1.61847e-13)
(0.510811 0.0108514 -2.7571e-14)
(0.377786 -0.097575 3.33406e-14)
(0.213893 -0.171531 -6.70033e-14)
(0.118611 -0.178666 -8.1933e-14)
(0.174532 -0.123786 6.0518e-15)
(0.252316 -0.0645588 6.05883e-14)
(0.188131 -0.054264 5.51218e-14)
(0.113277 -0.0730866 -3.08542e-15)
(0.100799 -0.0741728 3.14361e-14)
(0.0116305 -0.0583556 5.60067e-15)
(-0.127625 -0.0683765 5.26374e-14)
(-0.146064 -0.0723078 -4.04364e-14)
(-0.132931 -0.0530796 -1.34474e-13)
(-0.16602 0.0344201 -4.43333e-14)
(-0.422394 -0.000215708 2.56954e-14)
(-0.425613 0.246342 1.99571e-14)
(0.968155 0.686922 -1.64884e-14)
(-3.3199 -1.42452 -2.05238e-14)
(5.18831 0.339617 1.33065e-14)
(-17.9783 15.7962 -2.61808e-14)
(-37.165 3.87136 4.56005e-14)
(-0.221259 1.10914 -8.71564e-15)
(-0.28775 1.01129 -8.12889e-15)
(-0.340461 0.844394 -1.29843e-14)
(-0.371639 0.699724 -2.10292e-14)
(-0.365667 0.565503 3.15691e-14)
(-0.367433 0.489068 -4.17527e-14)
(-0.394121 0.45861 -1.88785e-14)
(-0.417528 0.427719 6.41203e-14)
(-0.433339 0.393389 -3.5449e-14)
(-0.441152 0.356644 6.76633e-14)
(-0.447033 0.323272 6.6267e-14)
(-0.448924 0.292125 4.35573e-14)
(-0.44596 0.262903 3.00757e-14)
(-0.440984 0.23769 4.65707e-14)
(-0.433241 0.215102 -1.31934e-14)
(-0.421792 0.193596 3.4394e-15)
(-0.408448 0.172801 3.30965e-14)
(-0.391236 0.150352 2.4761e-14)
(-0.370035 0.125317 -2.35181e-15)
(-0.344038 0.0978869 -4.93415e-14)
(-0.314731 0.0700435 -9.25587e-15)
(-0.284914 0.0448416 3.06461e-16)
(-0.259462 0.0255138 -3.1542e-14)
(-0.240996 0.0124705 3.35031e-15)
(-0.227749 0.00345936 -4.15773e-15)
(-0.21357 -0.00367589 -9.0306e-15)
(-0.195986 -0.0103056 7.38397e-16)
(-0.176936 -0.016659 7.19269e-17)
(-0.152932 -0.0220744 -4.03222e-18)
(-0.122581 -0.0263054 5.05079e-16)
(-0.0940899 -0.0301397 -1.27756e-15)
(-0.0805341 -0.0321253 -3.20182e-15)
(-0.0957749 -0.0348936 2.74477e-15)
(-0.130971 -0.0405773 7.86644e-15)
(-0.174334 -0.0531169 4.16038e-15)
(-0.191942 -0.0715183 -3.52878e-15)
(-0.238142 -0.0839606 7.2372e-15)
(-0.224956 -0.135226 1.28668e-14)
(-0.214582 -0.0533901 1.83809e-16)
(-0.106856 1.11839 -2.93667e-15)
(-0.00520835 1.1332 8.56266e-16)
(0.104079 1.11106 4.99158e-15)
(0.223626 1.18962 5.60523e-15)
(0.310903 1.15446 2.68252e-15)
(0.4102 1.10649 3.47179e-15)
(0.513471 1.06922 -1.25977e-14)
(0.58195 0.989808 -4.04006e-14)
(0.640158 0.902922 -3.82553e-14)
(0.690892 0.820757 -9.70139e-15)
(0.719986 0.731043 -5.24152e-14)
(0.741556 0.643608 -1.64794e-14)
(0.75241 0.557698 1.26926e-13)
(0.746753 0.46923 6.39043e-14)
(0.729677 0.380275 -3.92718e-15)
(0.697917 0.29109 -2.18021e-13)
(0.649177 0.201084 -5.88342e-14)
(0.58017 0.107913 2.00255e-13)
(0.486667 0.00697935 9.52108e-14)
(0.360526 -0.0983674 -4.56929e-14)
(0.203126 -0.169488 -3.71852e-15)
(0.116559 -0.174105 4.57977e-14)
(0.179109 -0.121929 1.15596e-14)
(0.257852 -0.0716055 -8.31866e-14)
(0.189778 -0.0651385 -1.39954e-13)
(0.114448 -0.0791813 4.11969e-14)
(0.104741 -0.079034 -7.52743e-15)
(0.0134258 -0.0660745 -8.36516e-15)
(-0.128517 -0.0724814 -2.93368e-14)
(-0.143289 -0.0701284 -2.51699e-14)
(-0.124399 -0.0526678 4.07968e-14)
(-0.167145 0.0271588 1.33562e-13)
(-0.378293 -0.00476976 3.94796e-14)
(-0.442616 0.255335 -9.99851e-14)
(0.915057 0.668177 1.3372e-14)
(-2.83514 -1.56478 -2.77115e-14)
(3.2704 1.64495 -6.37542e-16)
(-8.78433 15.6634 2.58681e-14)
(3.17525 -6.38791 5.11832e-15)
(-0.203378 1.05258 8.4361e-15)
(-0.268759 0.94677 2.63155e-14)
(-0.305435 0.785828 -5.97458e-14)
(-0.326912 0.644669 -6.55318e-15)
(-0.32067 0.526249 -1.21593e-13)
(-0.32881 0.470021 8.09968e-15)
(-0.357905 0.445301 3.30189e-14)
(-0.382434 0.416147 -1.32114e-13)
(-0.400544 0.383679 2.7182e-14)
(-0.411066 0.349279 -1.15334e-14)
(-0.420211 0.318331 -6.44478e-14)
(-0.425915 0.289467 -7.59214e-14)
(-0.426463 0.262005 -1.05086e-15)
(-0.424991 0.237578 5.64718e-14)
(-0.420071 0.214954 2.27609e-14)
(-0.410541 0.192766 -2.2394e-14)
(-0.398088 0.170919 -3.16878e-14)
(-0.380901 0.147668 -8.58064e-15)
(-0.359287 0.122523 1.63251e-14)
(-0.333105 0.0957476 4.20159e-14)
(-0.304362 0.0691369 4.19047e-14)
(-0.276017 0.0452826 3.72462e-14)
(-0.252419 0.0268113 -1.46848e-15)
(-0.235697 0.01405 -3.36209e-14)
(-0.223665 0.00499018 3.10863e-15)
(-0.210168 -0.00243124 -9.69365e-15)
(-0.192954 -0.00943378 -5.29615e-15)
(-0.174222 -0.0162383 -6.32054e-16)
(-0.150585 -0.0222092 3.62952e-16)
(-0.120523 -0.0268884 -3.62177e-16)
(-0.0923938 -0.030975 7.60194e-16)
(-0.0792937 -0.0333083 2.91791e-15)
(-0.0940309 -0.0360725 -3.35743e-15)
(-0.128896 -0.0420616 -2.48253e-15)
(-0.17176 -0.0546294 4.58241e-15)
(-0.190136 -0.07441 1.56541e-15)
(-0.234992 -0.0857981 -4.1435e-15)
(-0.219683 -0.141425 -6.09271e-15)
(-0.234837 -0.062891 -1.35728e-14)
(-0.100312 1.04111 -4.74601e-16)
(-0.0066258 1.05246 5.49336e-16)
(0.0930344 1.03351 -3.25951e-17)
(0.203534 1.10272 -1.07196e-15)
(0.286051 1.07048 3.74811e-15)
(0.378843 1.02696 -5.4138e-16)
(0.475418 0.993095 3.535e-15)
(0.540589 0.922154 2.28753e-14)
(0.597462 0.845512 -2.51499e-14)
(0.648719 0.7731 -9.83726e-14)
(0.678997 0.692278 -6.86623e-14)
(0.701775 0.612937 -7.70672e-14)
(0.714689 0.534097 -4.86215e-14)
(0.711921 0.451458 -7.95462e-14)
(0.697272 0.367121 -1.00588e-13)
(0.668063 0.281634 8.78874e-14)