/*--------------------------------*- C++ -*----------------------------------*\
| =========                 |                                                 |
| \\      /  F ield         | OpenFOAM: The Open Source CFD Toolbox           |
|  \\    /   O peration     | Version:  2312                                  |
|   \\  /    A nd           | Website:  www.openfoam.com                      |
|    \\/     M anipulation  |                                                 |
\*---------------------------------------------------------------------------*/
FoamFile
{
    version     2.0;
    format      ascii;
    arch        "LSB;label=32;scalar=64";
    class       volScalarField;
    location    "500";
    object      p;
}
// * * * * * * * * * * * * * * * * * * * * * * * * * * * * * * * * * * * * * //

dimensions      [0 2 -2 0 0 0 0];

internalField   nonuniform List<scalar> 
10720
(
-18.8024
-86.5215
-166.54
-246.223
-320.813
-397.253
-465.828
-524.244
-575.631
-616.66
-648.911
-673.342
-690.878
-702.749
-709.158
-709.677
-705.238
-694.907
-679.949
-659.441
-634.394
-603.32
-565.078
-517.915
-464.587
-422.276
-394.242
-344.344
-287.088
-251.534
-223.095
-189.143
-150.661
-110.241
-73.493
-57.3371
-34.1165
24.9937
18.0284
48.1841
108.845
172.384
230.78
279.53
314.516
332.325
336.19
329.848
312.416
288.527
263.266
238.451
214.819
193.035
172.753
153.862
135.845
118.43
101.093
83.7957
66.2509
48.585
31.3079
16.2433
4.55791
-4.8479
-12.5074
-18.4973
-22.7317
-25.2261
-26.1415
-25.6322
-23.8963
-21.2427
-17.6016
-13.5026
-6.58644
6.66463
72.275
21.1751
-36.4966
-98.2364
-162.1
-227.859
-292.133
-352.876
-409.36
-459.845
-503.907
-541.53
-572.803
-597.7
-616.192
-627.835
-633.285
-632.474
-626.225
-614.177
-596.553
-571.545
-537.196
-492.187
-443.079
-400.463
-363.127
-329.451
-297.199
-262.811
-226.805
-189.61
-150.45
-110.155
-73.4313
-57.2561
-34.3069
24.759
17.6783
117.972
161.245
203.991
244.632
279.674
306.455
322.033
326.762
321.59
307.417
287.79
265.887
243.307
220.967
199.574
179.245
159.984
141.517
123.607
105.935
88.4234
70.867
53.3403
36.3347
21.3553
9.28017
-0.672223
-8.86122
-15.2929
-19.9137
-22.7617
-24.0175
-23.8335
-22.4027
-20.022
-16.588
-12.6909
-4.67455
8.62152
83.0353
37.2556
-14.683
-72.3545
-132.543
-194.657
-257.157
-317.483
-374.088
-425.945
-471.797
-511.259
-543.892
-569.557
-588.611
-601.343
-607.997
-608.537
-603.312
-592.204
-575.19
-551.272
-519.464
-478.711
-433.664
-392.65
-356.228
-326.25
-296.044
-261.327
-224.802
-187.678
-149.335
-110.116
-73.8298
-56.923
-34.2618
25.3351
18.9638
124.051
163.532
202.41
238.753
269.49
292.974
307.406
312.874
309.725
298.799
282.476
263.058
242.174
220.926
200.098
180.044
160.858
142.425
124.561
107.007
89.6343
72.3192
55.1498
38.4814
23.5244
11.1637
0.962795
-7.42432
-14.0199
-18.7963
-21.7963
-23.1882
-23.1188
-21.7822
-19.4586
-16.0543
-11.9236
-3.83038
9.70488
100.466
62.1542
18.0978
-30.6554
-82.1258
-136.295
-191.569
-246.244
-299.048
-348.846
-394.529
-435.388
-470.861
-500.698
-524.743
-543.175
-555.784
-562.29
-562.697
-556.884
-544.681
-525.443
-498.51
-463.534
-424.253
-386.766
-353.527
-323.7
-292.741
-258.539
-222.779
-186.239
-148.575
-110.241
-74.5161
-56.4943
-33.6383
26.5132
20.9046
134.577
167.099
199.445
230.263
256.695
277.434
291.019
297.094
295.698
287.563
274.367
257.877
239.475
220.192
200.783
181.681
163.082
145.004
127.347
109.942
92.694
75.5401
58.5605
42.1148
27.1953
14.6296
4.19574
-4.43181
-11.2922
-16.3572
-19.6565
-21.3321
-21.5273
-20.4317
-18.3135
-15.0525
-10.9404
-2.85311
11.2077
103.788
69.7721
30.4735
-13.3053
-59.6392
-108.962
-159.961
-211.097
-261.41
-309.774
-355.067
-396.492
-433.344
-465.083
-491.35
-511.99
-526.599
-535.144
-537.491
-533.625
-523.394
-506.404
-482.217
-450.748
-414.671
-379.37
-347.694
-318.249
-287.897
-254.902
-220.175
-184.461
-147.615
-110.154
-75.1107
-56.145
-32.6776
27.9709
21.6532
134.144
162.936
191.671
219.078
242.638
261.45
274.387
280.908
280.941
275.118
264.626
250.801
234.754
217.394
199.444
181.377
163.474
145.856
128.514
111.368
94.3575
77.4621
60.7771
44.6363
29.8469
17.1588
6.5153
-2.33945
-9.43952
-14.7522
-18.282
-20.1647
-20.5399
-19.5976
-17.5949
-14.399
-10.244
-2.20339
11.4076
104.976
74.905
39.9999
1.14584
-39.9687
-84.0525
-129.893
-176.267
-222.479
-267.509
-310.41
-350.428
-386.814
-418.942
-446.351
-468.699
-485.678
-497.124
-502.763
-502.377
-495.694
-482.357
-462.056
-434.856
-402.87
-370.447
-340.375
-311.834
-282.562
-250.797
-217.067
-182.227
-146.359
-109.871
-75.6091
-55.8516
-31.7541
29.2506
21.1144
131.826
157.211
182.745
207.29
228.528
245.801
258.175
264.987
266.119
262.132
253.898
242.45
228.663
213.304
197.022
180.272
163.363
146.48
129.688
112.976
96.3299
79.7706
63.4102
47.5662
32.9185
20.1472
9.32511
0.274201
-7.03897
-12.5814
-16.3444
-18.4583
-19.0568
-18.3225
-16.4964
-13.4337
-9.31057
-1.35608
11.0162
102.952
75.8661
44.3494
9.24365
-27.8209
-67.7688
-109.528
-152.032
-194.822
-236.996
-277.739
-316.376
-352.157
-384.42
-412.625
-436.302
-455.034
-468.409
-476.083
-477.78
-473.275
-462.347
-444.842
-420.935
-392.243
-362.234
-333.596
-305.977
-277.617
-246.872
-214.061
-180.071
-145.146
-109.62
-76.0844
-55.5413
-30.8909
29.9671
20.603
127.167
149.996
173.09
195.399
214.791
230.832
242.693
249.655
251.632
249.093
242.717
233.313
221.57
208.111
193.493
178.121
162.305
146.268
130.127
113.933
97.7217
81.5522
65.5547
50.0333
35.5707
22.7808
11.8269
2.60652
-4.90525
-10.6726
-14.6717
-17.0124
-17.8199
-17.2686
-15.5886
-12.6238
-8.51261
-0.653136
10.9539
99.6462
75.0995
46.4842
14.6425
-18.8749
-55.1068
-93.0705
-131.838
-171.116
-210.137
-248.197
-284.735
-319.064
-350.538
-378.585
-402.678
-422.304
-437.06
-446.572
-450.489
-448.503
-440.377
-425.99
-405.528
-380.21
-352.823
-325.924
-299.479
-272.168
-242.567
-210.815
-177.777
-143.838
-109.324
-76.4926
-55.2512
-30.0925
29.8851
20.0912
121.63
142.317
163.371
183.818
201.679
216.686
228.062
235.074
237.683
236.278
231.408
223.733
213.795
202.096
189.099
175.145
160.522
145.461
130.111
114.565
98.8988
83.2044
67.6297
52.467
38.2323
25.4817
14.4411
5.08185
-2.60408
-8.57653
-12.7944
-15.3522
-16.3694
-16.0131
-14.4996
-11.6624
-7.60111
0.0991898
11.2033
95.4221
72.9823
46.7967
17.6852
-12.8548
-45.9183
-80.6182
-116.118
-152.262
-188.381
-223.888
-258.33
-291.087
-321.561
-349.191
-373.417
-393.691
-409.545
-420.508
-426.144
-426.097
-420.184
-408.342
-390.772
-368.39
-343.416
-318.191
-292.901
-266.622
-238.156
-207.472
-175.399
-142.436
-108.939
-76.8205
-55.0485
-29.5032
28.7563
18.2167
115.553
134.472
153.828
172.711
189.277
203.393
214.308
221.303
224.373
223.851
220.2
213.969
205.597
195.485
184.01
171.446
158.047
144.028
129.55
114.733
99.6845
84.5249
69.4155
54.6419
40.6705
28.0096
16.9261
7.4583
-0.379746
-6.54192
-10.9718
-13.7449
-14.9712
-14.8066
-13.4535
-10.7374
-6.72656
0.794917
11.5682
90.7569
70.1229
46.0313
19.2843
-8.67874
-38.9718
-70.7711
-103.323
-136.565
-169.912
-202.881
-235.11
-266.052
-295.185
-321.972
-345.851
-366.269
-382.711
-394.699
-401.777
-403.528
-399.757
-390.399
-375.616
-356.07
-333.509
-310.046
-286.029
-260.863
-233.57
-203.991
-172.921
-140.954
-108.464
-77.0884
-54.9301
-29.2228
26.6656
14.9295
109.303
126.714
144.62
162.161
177.614
190.938
201.417
208.341
211.738
211.904
209.235
204.201
197.171
188.465
178.388
167.155
154.975
142.037
128.495
114.483
100.129
85.5696
70.9795
56.6366
42.9722
30.4563
19.3811
9.84245
1.88132
-4.44843
-9.07475
-12.053
-13.4835
-13.5117
-12.3253
-9.74336
-5.80571
1.51204
11.9707
85.8769
66.8021
44.5248
19.8273
-5.8979
-33.7725
-63.0233
-92.964
-123.587
-154.386
-184.966
-215.048
-244.153
-271.826
-297.582
-320.887
-341.192
-357.973
-370.708
-378.935
-382.17
-380.21
-373.002
-360.668
-343.669
-323.371
-301.65
-278.946
-254.923
-228.814
-200.367
-170.335
-139.385
-107.897
-77.2999
-54.8401
-29.2215
23.9443
11.3508
103.054
119.169
135.819
152.193
166.674
179.284
189.339
196.161
199.783
200.48
198.6
194.557
188.667
181.192
172.379
162.392
151.391
139.537
126.966
113.81
100.205
86.3011
72.2753
58.3994
45.0811
32.7591
21.7394
12.1662
4.10918
-2.36744
-7.1766
-10.3529
-11.984
-12.2037
-11.1838
-8.73843
-4.88493
2.22416
12.3683
80.9505
63.2423
42.5589
19.663
-4.09977
-29.8407
-56.8284
-84.4295
-112.683
-141.137
-169.471
-197.471
-224.729
-250.857
-275.421
-297.926
-317.848
-334.67
-347.851
-356.939
-361.422
-361.069
-355.812
-345.718
-331.083
-312.954
-292.978
-271.638
-248.798
-223.892
-196.606
-167.644
-137.726
-107.239
-77.4485
-54.738
-29.4251
20.9143
8.42553
96.931
111.914
127.462
142.804
156.427
168.384
178.029
184.724
188.491
189.596
188.35
185.125
180.198
173.791
166.107
157.264
147.384
136.592
125.002
112.735
99.9245
86.7224
73.3041
59.9346
47.003
34.9239
24.0094
14.4421
6.32127
-0.276942
-5.25061
-8.61276
-10.4374
-10.8465
-9.99535
-7.69431
-3.94181
2.9459
12.7557
76.0812
59.5787
40.307
19.0061
-3.02233
-26.8707
-51.8442
-77.3503
-103.464
-129.783
-156.033
-182.066
-207.527
-232.095
-255.391
-276.966
-296.332
-312.988
-326.396
-336.106
-341.602
-342.609
-339.047
-330.939
-318.442
-302.347
-284.079
-264.126
-242.498
-218.809
-192.707
-164.843
-135.974
-106.487
-77.5293
-54.6223
-29.7732
17.7513
6.37905
91.001
104.989
119.555
133.977
146.832
158.19
167.441
173.985
177.838
179.253
178.516
175.963
171.849
166.363
159.675
151.87
143.037
133.267
122.648
111.283
99.2947
86.8285
74.0546
61.2277
48.7211
36.93
26.1681
16.6473
8.49472
1.80075
-3.31855
-6.85449
-8.8656
-9.46108
-8.7788
-6.62699
-2.98865
3.66801
13.1273
71.3349
55.906
37.8955
18.0186
-2.46422
-24.6227
-47.7947
-71.4181
-95.5981
-119.969
-144.296
-168.478
-192.215
-215.239
-237.23
-257.787
-276.456
-292.767
-306.2
-316.307
-322.6
-324.752
-322.67
-316.328
-305.772
-291.582
-274.979
-256.425
-236.031
-213.569
-188.67
-161.931
-134.124
-105.64
-77.537
-54.5134
-30.216
14.5372
4.97522
85.3075
98.4075
112.097
125.688
137.847
148.65
157.524
163.903
167.793
169.443
169.112
167.113
163.681
158.986
153.171
146.299
138.43
129.628
119.953
109.485
98.3324
86.6265
74.527
62.2753
50.2295
38.7696
28.2065
18.7737
10.6239
3.86238
-1.38101
-5.0758
-7.26393
-8.04126
-7.52795
-5.53133
-2.02138
4.39244
13.4843
66.752
52.2884
35.412
16.8159
-2.28194
-22.9241
-44.474
-66.403
-88.8304
-111.421
-133.979
-156.436
-178.541
-200.073
-220.758
-240.246
-258.126
-273.963
-287.265
-297.587
-304.477
-307.57
-306.751
-301.957
-293.143
-280.718
-265.716
-248.557
-229.409
-208.181
-184.499
-158.906
-132.175
-104.697
-77.4662
-54.431
-30.7063
11.3062
3.91127
79.8729
92.1739
105.069
117.909
129.43
139.717
148.23
154.431
158.323
160.145
160.138
158.594
155.736
151.718
146.666
140.626
133.637
125.737
116.965
107.376
97.0578
86.1259
74.7233
63.0736
51.5206
40.4313
30.1109
20.8073
12.6954
5.89573
0.551209
-3.28616
-5.64082
-6.59444
-6.24917
-4.41267
-1.04405
5.1157
13.8259
62.3571
48.7686
32.9191
15.4826
-2.36684
-21.6384
-41.7221
-62.1184
-82.9546
-103.922
-124.855
-145.713
-166.28
-186.381
-205.784
-224.184
-241.216
-256.481
-269.521
-279.901
-287.21
-291.059
-291.307
-287.858
-280.598
-269.8
-256.326
-240.543
-222.645
-202.651
-180.196
-155.766
-130.125
-103.658
-77.313
-54.3834
-31.2132
8.06546
2.97609
74.707
86.285
98.4584
110.609
121.543
131.347
139.515
145.532
149.397
151.341
151.593
150.423
148.047
144.607
140.217
134.914
128.719
121.653
113.733
104.992
95.4965
85.3406
74.6479
63.6222
52.5911
41.9079
31.8711
22.737
14.6989
7.89166
2.47079
-1.49095
-3.99994
-5.12272
-4.94377
-3.27192
-0.0571209
5.83696
14.1518
58.1653
45.3733
30.4589
14.0792
-2.6388
-20.6655
-39.42
-58.4236
-77.8115
-97.2985
-116.739
-136.115
-155.244
-173.985
-192.147
-209.465
-225.617
-240.242
-252.919
-263.231
-270.801
-275.239
-276.373
-274.077
-268.193
-258.879
-246.85
-232.409
-215.755
-196.991
-175.766
-152.513
-127.971
-102.524
-77.0754
-54.3679
-31.7266
4.82552
2.04896
69.8115
80.7318
92.2422
103.759
114.15
123.499
131.336
137.165
140.981
143.01
143.465
142.603
140.63
137.684
133.869
129.215
123.734
117.432
110.307
102.374
93.6778
84.2898
74.3116
63.9246
53.4383
43.1928
33.4773
24.5515
16.6228
9.83946
4.36828
0.301883
-2.34784
-3.63132
-3.61599
-2.11248
0.937098
6.55416
14.4618
54.1832
42.1196
28.0641
12.6488
-3.0354
-19.9294
-37.4709
-55.2067
-73.2727
-91.4049
-109.475
-127.482
-145.272
-162.732
-179.704
-195.961
-211.221
-225.161
-237.397
-247.538
-255.234
-260.111
-261.964
-260.648
-255.971
-248.004
-237.327
-224.184
-208.757
-191.211
-171.214
-149.146
-125.713
-101.293
-76.7529
-54.3748
-32.2525
1.61657
1.0735
65.1831
75.5003
86.4004
97.3325
107.216
116.137
123.657
129.296
133.047
135.129
135.743
135.133
133.501
130.976
127.659
123.575
118.73
113.121
106.732
99.5612
91.632
82.9951
73.7281
63.9877
54.0638
44.2825
34.9218
26.2409
18.4566
11.729
6.23455
2.08472
-0.690755
-2.12502
-2.26962
-0.937232
1.93659
7.26594
14.7568
50.4112
39.0186
25.7525
11.2257
-3.51351
-19.3685
-35.8009
-52.3763
-69.2347
-86.1253
-102.936
-119.681
-136.226
-152.482
-168.322
-183.55
-197.924
-211.155
-222.895
-232.784
-240.492
-245.676
-248.1
-247.602
-243.973
-237.218
-227.796
-215.896
-201.671
-185.325
-166.549
-145.669
-123.35
-99.9664
-76.3446
-54.3929
-32.8009
-1.51757
0.0297963
60.8157
70.5769
80.9128
91.3015
100.71
109.227
116.443
121.891
125.564
127.675
128.413
128.01
126.663
124.499
121.612
118.029
113.75
108.765
103.051
96.5916
89.3915
81.4802
72.9125
63.8204
54.4717
45.1759
36.1992
27.7966
20.1906
13.5501
8.06017
3.84919
0.964321
-0.609613
-0.909329
0.250128
2.93891
7.97059
15.0372
46.848
36.0758
23.5391
9.83179
-4.03703
-18.9379
-34.3508
-49.8631
-65.6134
-81.3646
-97.0162
-112.595
-127.983
-143.113
-157.883
-172.126
-185.63
-198.143
-209.35
-218.924
-226.552
-231.927
-234.79
-234.965
-232.238
-226.564
-218.298
-207.577
-194.519
-179.347
-161.779
-142.084
-120.883
-98.5439
-75.8505
-54.4108
-33.3769
-4.53298
-1.08593
56.7004
65.9475
75.7594
85.6413
94.6034
102.737
109.661
114.921
118.507
120.626
121.459
121.227
120.12
118.264
115.75
112.604
108.827
104.403
99.3044
93.5027
86.9882
79.7717
71.8852
63.4361
54.6682
45.8736
37.3057
29.2115
21.8155
15.2932
9.83564
5.5867
2.61003
0.908678
0.45982
1.44571
3.94139
8.66665
15.3031
43.4889
33.2924
21.4331
8.48513
-4.58072
-18.6008
-33.0751
-47.6093
-62.3403
-77.0434
-91.6296
-106.131
-120.449
-134.528
-148.29
-161.592
-174.252
-186.048
-196.7
-205.911
-213.385
-218.853
-222.038
-222.758
-220.8
-216.081
-208.871
-199.257
-187.323
-173.294
-156.914
-138.397
-118.315
-97.026
-75.2707
-54.4179
-33.978
-7.39443
-2.27215
52.8289
61.5974
70.9206
80.3276
88.8704
96.6419
103.285
108.358
111.851
113.963
114.867
114.774
113.871
112.278
110.087
107.324
103.989
100.068
95.5263
90.3289
84.4542
77.8966
70.6675
62.8491
54.6616
46.3789
38.2393
30.48
23.3235
16.9489
11.5516
7.28839
4.23855
2.42305
1.83223
2.6451
4.94104
9.35267
15.5552
40.3282
30.6679
19.4385
7.19692
-5.12464
-18.3298
-31.9363
-45.5685
-59.3584
-73.0962
-86.6997
-100.208
-113.533
-126.635
-139.451
-151.861
-163.709
-174.8
-184.886
-193.698
-200.962
-206.439
-209.846
-210.996
-209.684
-205.804
-199.549
-190.97
-180.107
-167.185
-151.967
-134.615
-115.648
-95.4138
-74.605
-54.4046
-34.596
-10.0788
-3.52321
49.1901
57.5123
66.3776
75.3385
83.486
90.9144
97.2869
102.177
105.571
107.664
108.621
108.642
107.91
106.544
104.632
102.204
99.261
95.7872
91.7476
87.1022
81.8201
75.8817
69.2805
62.0757
54.4634
46.6976
39.0009
31.5983
24.7076
18.5088
13.1988
8.94532
5.84169
3.92627
3.2018
3.84355
5.93459
10.027
15.7944
37.3591
28.199
17.5583
5.97541
-5.65608
-18.1036
-30.9063
-43.7036
-56.6251
-69.4702
-82.1666
-94.7564
-107.162
-119.354
-131.286
-142.854
-153.925
-164.33
-173.849
-182.241
-189.25
-194.666
-198.21
-199.692
-198.915
-195.764
-190.368
-182.743
-172.898
-161.039
-146.95
-130.744
-112.887
-93.708
-73.8539
-54.3612
-35.2192
-12.5737
-4.82842
45.7731
53.6789
62.1141
70.6542
78.4289
85.5311
91.6439
96.3536
99.646
101.711
102.705
102.819
102.232
101.061
99.3926
97.2571
94.6591
91.5832
87.9946
83.8508
79.1141
73.7537
67.7478
61.1346
54.0864
46.8372
39.5929
32.5644
25.9623
19.9652
14.7686
10.5486
7.41116
5.4108
4.56206
5.0359
6.91862
10.6882
16.0212
34.574
25.8821
15.7922
4.82535
-6.16284
-17.9057
-29.9614
-41.9848
-54.1013
-66.1222
-77.9798
-89.7197
-101.272
-112.619
-123.724
-134.5
-144.833
-154.575
-163.533
-171.491
-178.214
-183.513
-187.122
-188.85
-188.511
-185.987
-181.358
-174.61
-165.722
-154.876
-141.879
-126.794
-110.036
-91.9108
-73.0172
-54.2791
-35.8343
-14.8738
-6.17323
42.568
50.0826
58.1135
66.2569
73.6785
80.4697
86.3328
90.8666
94.0567
96.0864
97.1045
97.2945
96.8305
95.8275
94.3701
92.4915
90.1975
87.4752
84.2907
80.6006
76.3629
71.5384
66.0927
60.0451
53.5455
46.8072
40.0195
33.3783
27.0841
21.3114
16.253
12.0897
8.9383
6.86865
5.90617
6.21669
7.88939
11.3347
16.2362
31.9644
23.7124
14.1395
3.74946
-6.6374
-17.7232
-29.0828
-40.3868
-51.7569
-63.0135
-74.0942
-85.0465
-95.8094
-106.371
-116.705
-126.737
-136.371
-145.478
-153.887
-161.405
-167.822
-172.959
-176.574
-178.472
-178.486
-176.497
-172.547
-166.596
-158.601
-148.717
-136.768
-122.776
-107.101
-90.0237
-72.0958
-54.1487
-36.4281
-16.9789
-7.54192
39.564
46.7111
54.3604
62.1281
69.2148
75.7099
81.3337
85.6968
88.7838
90.7723
91.8047
92.0565
91.6972
90.8393
89.566
87.9125
85.8868
83.4781
80.6544
77.3733
73.59
69.2593
64.3369
58.8266
52.8559
46.6189
40.2874
34.0415
28.0705
22.5425
17.6446
13.5602
10.4149
8.29195
7.22693
7.38016
8.84293
11.9647
16.44
29.5227
21.6847
12.5976
2.74893
-7.07506
-17.5465
-28.2566
-38.8906
-49.5667
-60.1134
-70.4742
-80.6963
-90.7259
-100.559
-110.173
-119.508
-128.483
-136.984
-144.86
-151.941
-158.036
-162.979
-166.551
-168.559
-168.849
-167.313
-163.958
-158.729
-151.562
-142.584
-131.637
-118.702
-104.09
-88.0509
-71.0889
-53.9626
-36.9873
-18.8921
-8.91902
36.7508
43.5515
50.8402
58.2512
65.0199
71.2334
76.6268
80.8246
83.8091
85.7528
86.7915
87.0934
86.8234
86.0911
84.9787
83.5227
81.7336
79.6029
77.1013
74.1877
70.8166
66.9384
62.5021
57.4977
52.0339
46.2844
40.4042
34.5574
28.9206
23.6539
18.9369
14.9524
11.833
9.67272
8.51706
8.52035
9.77507
12.5765
16.6332
27.241
19.7926
11.1637
1.82395
-7.47199
-17.3679
-27.4709
-37.4798
-47.5094
-57.3957
-67.0881
-76.6328
-85.9827
-95.1369
-104.082
-112.766
-121.119
-129.044
-136.407
-143.058
-148.823
-153.549
-157.038
-159.102
-159.606
-158.448
-155.614
-151.032
-144.627
-136.497
-126.501
-114.585
-101.009
-85.9942
-69.9984
-53.7123
-37.4996
-20.6197
-10.2894
34.118
40.5915
47.5391
54.612
61.0777
67.0233
72.1956
76.2327
79.116
81.0123
82.051
82.3934
82.1994
81.5764
80.6053
79.3232
77.7431
75.8589
73.6442
71.0598
68.0609
64.596
60.6086
56.0786
51.0963
45.8169
40.3789
34.9309
29.6353
24.6431
20.1243
16.2593
13.1844
11.003
9.76932
9.6311
10.6816
13.1681
16.8159
25.1109
18.0307
9.83346
0.9739
-7.8264
-17.1821
-26.7162
-36.1418
-45.5679
-54.8397
-63.9104
-72.8264
-81.5442
-90.0685
-98.3896
-106.464
-114.234
-121.613
-128.485
-134.716
-140.15
-144.642
-148.019
-150.097
-150.758
-149.914
-147.53
-143.527
-137.819
-130.479
-121.378
-110.438
-97.8696
-83.8592
-68.8236
-53.3915
-37.9541
-22.1684
-11.6395
31.6558
37.8203
44.4449
51.196
57.3735
63.0634
68.0234
71.9051
74.6889
76.5361
77.5702
77.9451
77.8167
77.2891
76.4418
75.313
73.9176
72.2518
70.2923
68.0025
65.3388
62.2498
58.6755
54.587
50.0592
45.2299
40.222
35.1681
30.2167
25.5084
21.2029
17.4743
14.4617
12.2751
10.9765
10.7064
11.5581
13.7377
16.9883
23.1246
16.3925
8.6033
0.19684
-8.13715
-16.9855
-25.9858
-34.8652
-43.7277
-52.4268
-60.9181
-69.2494
-77.3805
-85.3183
-93.0588
-100.565
-107.788
-114.652
-121.056
-126.88
-131.984
-136.233
-139.474
-141.533
-142.306
-141.717
-139.721
-136.231
-131.157
-124.548
-116.286
-106.275
-94.679
-81.6513
-67.5659
-52.9938
-38.3388
-23.5465
-12.9561
29.3553
35.2268
41.5447
47.9898
53.893
59.3386
64.0952
67.8266
70.5132
72.3103
73.3359
73.7371
73.6651
73.2213
72.4828
71.4895
70.2575
68.7855
67.053
65.0264
62.6643
59.9156
56.719
53.0397
48.9385
44.5371
39.944
35.2764
30.6684
26.25
22.169
18.5923
15.6583
13.4818
12.1315
11.7401
12.4004
14.2828
17.1501
21.2746
14.8718
7.46898
-0.509564
-8.404
-16.7745
-25.2737
-33.6408
-41.9762
-50.1403
-58.0923
-65.8788
-73.4641
-80.8569
-88.0568
-95.0328
-101.743
-108.123
-114.082
-119.515
-124.295
-128.297
-131.386
-133.398
-134.244
-133.862
-132.197
-129.16
-124.659
-118.722
-111.244
-102.112
-91.4491
-79.3757
-66.2271
-52.5139
-38.6451
-24.761
-14.2275
27.2072
32.8007
38.8274
44.9814
50.623
55.8351
60.3969
63.9832
66.575
68.3218
69.3361
69.7585
69.7349
69.365
68.723
67.8496
66.7625
65.4622
63.9315
62.1398
60.048
57.6067
54.7547
51.4527
47.7496
43.7526
39.5565
35.2639
30.9953
26.8691
23.0212
19.6087
16.7683
14.6163
13.2277
12.7264
13.204
14.8014
17.3009
19.5534
13.4628
6.42584
-1.14771
-8.62752
-16.5479
-24.5756
-32.4623
-40.304
-47.9683
-55.4169
-62.696
-69.7732
-76.6586
-83.3551
-89.8367
-96.0682
-101.993
-107.531
-112.589
-117.054
-120.808
-123.734
-125.678
-126.566
-126.348
-124.964
-122.326
-118.341
-113.019
-106.267
-97.9626
-88.1904
-77.0405
-64.8086
-51.9484
-38.8641
-25.8197
-15.4431
25.2031
30.5327
36.2823
42.1592
47.5511
52.5402
56.9148
60.362
62.8618
64.5583
65.5589
65.9981
66.017
65.712
65.1557
64.3887
63.4302
62.2824
60.9311
59.3488
57.4992
55.3348
52.7958
49.8401
46.5068
42.8896
39.0708
35.1397
31.203
27.3681
23.7584
20.5204
17.7865
15.6728
14.2588
13.6596
13.965
15.2911
17.44
17.9538
12.1595
5.46948
-1.7206
-8.80885
-16.3045
-23.8884
-31.324
-38.703
-45.8994
-52.8782
-59.684
-66.2878
-72.7008
-78.9286
-84.9493
-90.733
-96.2303
-101.371
-106.073
-110.233
-113.743
-116.499
-118.361
-119.265
-119.174
-118.028
-115.738
-112.215
-107.454
-101.371
-93.8422
-84.9148
-74.6528
-63.3136
-51.2949
-38.9888
-26.7289
-16.5907
23.3346
28.4137
33.8994
39.5118
44.6659
49.4417
53.6369
56.9503
59.3606
61.0077
61.9933
62.4461
62.502
62.2543
61.774
61.102
60.2576
59.2456
58.0537
56.6579
55.0247
53.1093
50.8539
48.2152
45.2235
41.961
38.4986
34.913
31.2983
27.7506
24.3815
21.3253
18.7087
16.646
15.219
14.5346
14.6793
15.7496
17.5667
16.4689
10.9559
4.59533
-2.23129
-8.94926
-16.0438
-23.2093
-30.2204
-37.1653
-43.9235
-50.4635
-56.8278
-62.9905
-68.964
-74.7551
-80.3462
-85.7117
-90.8092
-95.5765
-99.9393
-103.806
-107.078
-109.662
-111.43
-112.331
-112.337
-111.389
-109.403
-106.292
-102.041
-96.5722
-89.7641
-81.6342
-72.2213
-61.7461
-50.5516
-39.0138
-27.4938
-17.6577
21.594
26.4348
31.6692
37.0293
41.9562
46.5282
50.5518
53.7361
56.0605
57.6589
58.6284
59.0916
59.1799
58.9837
58.5712
57.9836
57.2412
56.3494
55.2996
54.0698
52.6299
50.938
48.9388
46.5888
43.9117
40.9786
37.8508
34.5933
31.2883
28.0213
24.8918
22.0221
19.5318
17.5313
16.1033
15.3464
15.3434
16.1746
17.6799
15.0921
9.84638
3.79883
-2.68298
-9.05041
-15.766
-22.5367
-29.1486
-35.6851
-42.0329
-48.1622
-54.1143
-59.8657
-65.4298
-70.8146
-76.0055
-80.981
-85.7045
-90.1204
-94.1632
-97.7502
-100.791
-103.202
-104.87
-105.753
-105.83
-105.048
-103.325
-100.58
-96.7894
-91.8824
-85.7422
-78.3603
-69.755
-60.1108
-49.7198
-38.9347
-28.1189
-18.6343
19.9739
24.5878
29.5827
34.7023
39.4122
43.7893
47.6481
50.7087
52.95
54.5009
55.4535
55.9251
56.0418
55.8914
55.5399
55.0278
54.376
53.5918
52.6681
51.5861
50.3186
48.8267
47.0583
44.9708
42.5821
39.9539
37.1382
34.1902
31.1808
28.1853
25.2921
22.6112
20.2538
18.3251
16.9073
16.091
15.954
16.5638
17.7785
13.817
8.82548
3.07551
-3.07902
-9.11449
-15.4716
-21.8697
-28.1053
-34.2585
-40.221
-45.9659
-51.5331
-56.901
-62.0833
-67.0895
-71.9076
-76.5194
-80.8933
-84.9801
-88.721
-92.042
-94.8604
-97.1016
-98.6654
-99.5178
-99.6464
-99.0015
-97.5063
-95.0855
-91.7092
-87.3136
-81.7886
-75.1049
-67.2633
-58.4136
-48.8008
-38.7503
-28.6089
-19.5116
18.4671
22.8649
27.6314
32.5212
37.0239
41.2146
44.9157
47.8577
50.0189
51.5233
52.459
52.9368
53.0788
52.9697
52.6728
52.2281
51.6575
50.9691
50.1575
49.2071
48.0931
46.7802
45.2195
43.3697
41.2443
38.8967
36.3709
33.713
30.9836
28.2488
25.5863
23.0938
20.8737
19.0251
17.6278
16.7647
16.5081
16.9152
17.8615
12.6375
7.88796
2.42095
-3.42268
-9.14348
-15.1613
-21.2072
-27.0882
-32.8809
-38.4818
-43.8667
-49.0739
-54.0837
-58.9105
-63.5642
-68.0352
-72.308
-76.3554
-80.1341
-83.5913
-86.6605
-89.2666
-91.3423
-92.8005
-93.6139
-93.7772
-93.2455
-91.9469
-89.8121
-86.8075
-82.8756
-77.9145
-71.8791
-64.7556
-56.6614
-47.798
-38.4604
-28.9676
-20.2835
17.067
21.2589
25.8074
30.478
34.7827
38.7949
42.3449
45.1728
47.2572
48.7166
49.6351
50.1177
50.2822
50.2099
49.9622
49.5783
49.0803
48.4771
47.7656
46.9322
45.9548
44.8017
43.4274
41.7925
39.9067
37.8162
35.5582
33.1706
30.7049
28.2183
25.7786
23.4722
21.3919
19.6299
18.2623
17.3647
17.0035
17.2271
17.9278
11.5479
7.0287
1.83089
-3.71735
-9.13972
-14.8363
-20.5494
-26.096
-31.549
-36.8104
-41.8577
-46.7284
-51.4038
-55.899
-60.2244
-64.3723
-68.3295
-72.0726
-75.5631
-78.7545
-81.5861
-83.9902
-85.9063
-87.2596
-88.0283
-88.2129
-87.7737
-86.6445
-84.7616
-82.0898
-78.5766
-74.1297
-68.693
-62.2412
-54.8611
-46.7157
-38.0661
-29.1996
-20.9461
15.7672
19.7628
24.1032
28.5643
32.6797
36.5212
39.9264
42.645
44.6554
46.0712
46.9725
47.4588
47.6433
47.6044
47.4009
47.0716
46.6386
46.1117
45.4892
44.7598
43.9041
42.8935
41.6861
40.2449
38.5763
36.7206
34.7088
32.5717
30.3525
28.1005
25.8744
23.7497
21.8098
20.139
18.8093
17.8889
17.4382
17.4979
17.9764
10.5426
6.24287
1.30122
-3.9661
-9.10545
-14.4976
-19.8961
-25.1269
-30.2598
-35.2023
-39.9334
-44.4891
-48.8525
-53.0384
-57.0581
-60.9048
-64.5684
-68.028
-71.2497
-74.1918
-76.8004
-79.0134
-80.777
-82.0272
-82.7471
-82.9429
-82.5794
-81.5959
-79.9343
-77.5593
-74.4232
-70.4431
-65.5567
-59.7291
-53.0207
-45.5595
-37.5711
-29.309
-21.4971
14.5614
18.37
22.5114
26.7725
30.7071
34.3853
37.6516
40.2654
42.2046
43.5782
44.4622
44.9512
45.1536
45.1448
44.9814
44.7014
44.3266
43.8678
43.3246
42.6877
41.9404
41.0565
39.9984
38.7313
37.2593
35.617
33.8304
31.9243
29.9343
27.9025
25.8795
23.9304
22.1295
20.5532
19.2684
18.336
17.8107
17.7262
18.0062
9.61643
5.52559
0.828009
-4.17218
-9.04305
-14.1464
-19.2472
-24.1801
-29.0117
-33.6542
-38.0887
-42.3494
-46.4212
-50.319
-54.0537
-57.6203
-61.0106
-64.2063
-67.1775
-69.8869
-72.286
-74.3191
-75.9378
-77.0879
-77.7574
-77.9564
-77.6542
-76.7961
-75.3289
-73.2179
-70.42
-66.8622
-62.4788
-57.2285
-51.1481
-44.3352
-36.9797
-29.301
-21.9364
13.444
17.074
21.0257
25.0954
28.8572
32.379
35.5123
38.0255
39.8963
41.2292
42.0961
42.5867
42.8051
42.8236
42.6965
42.4608
42.1385
41.7406
41.2681
40.7134
40.0622
39.2913
38.3664
37.2553
35.9605
34.5116
32.9301
31.2358
29.4577
27.6313
25.7998
24.019
22.3544
20.8744
19.6401
18.7059
18.1204
17.9113
18.0164
8.76428
4.87258
0.407332
-4.33872
-8.95463
-13.7843
-18.6033
-23.2547
-27.8022
-32.1628
-36.3187
-40.3034
-44.1028
-47.7316
-51.2011
-54.5072
-57.6433
-60.5936
-63.3316
-65.8239
-68.0271
-69.8914
-71.3733
-72.4274
-73.0458
-73.2417
-72.9894
-72.2391
-70.9425
-69.0662
-66.5712
-63.3932
-59.4673
-54.7478
-49.2516
-43.0497
-36.2972
-29.1808
-22.2646
12.4094
15.8691
19.6394
23.5264
27.1227
30.495
33.5008
35.9175
37.7226
39.016
39.8659
40.3574
40.5899
40.6331
40.5388
40.3433
40.0681
39.7247
39.3152
38.8337
38.2679
37.5973
36.7912
35.8196
34.6839
33.4095
32.0141
30.513
28.9298
27.2938
25.6417
24.021
22.4886
21.1051
19.9259
18.9989
18.367
18.0523
18.0059
7.9814
4.27948
0.035596
-4.46871
-8.84263
-13.4127
-17.9649
-22.3505
-26.6301
-30.7254
-34.6201
-38.3463
-41.8909
-45.2689
-48.4912
-51.5549
-54.4547
-57.177
-59.6982
-61.9885
-64.0091
-65.7153
-67.0687
-68.0312
-68.5989
-68.7876
-68.5756
-67.9178
-66.7709
-65.1028
-62.8784
-60.0414
-56.5297
-52.2955
-47.3397
-41.7105
-35.53
-28.9541
-22.4834
11.4526
14.7496
18.3467
22.0588
25.4971
28.726
31.6096
33.9338
35.6758
36.931
37.7641
38.2557
38.5007
38.5662
38.5017
38.3422
38.1094
37.8149
37.4615
37.0451
36.555
35.9735
35.2728
34.426
33.4328
32.3152
31.0878
29.7623
28.3572
26.8968
25.4117
23.9421
22.5369
21.2491
20.1282
19.2164
18.5509
18.1491
17.9738
7.26321
3.74227
-0.290736
-4.56501
-8.70904
-13.0331
-17.3325
-21.467
-25.4941
-29.3397
-32.9891
-36.473
-39.7797
-42.9235
-45.9157
-48.754
-51.4342
-53.9447
-56.2646
-58.3672
-60.2179
-61.7765
-63.0098
-63.8858
-64.404
-64.5822
-64.4027
-63.8246
-62.809
-61.3256
-59.3426
-56.8109
-53.6726
-49.8796
-45.4208
-40.3254
-34.6852
-28.6269
-22.5958
10.5684
13.7102
17.1416
20.6866
23.9736
27.0652
29.8319
32.0671
33.7484
34.9666
35.7832
36.274
36.5303
36.6157
36.5781
36.4513
36.2565
36.0057
35.7024
35.3436
34.9208
34.4183
33.8113
33.0753
32.2095
31.2324
30.1561
28.9893
27.7463
26.4468
25.1164
23.7884
22.5044
21.3105
20.2503
19.3604
18.6731
18.2015
17.9189
6.60551
3.25701
-0.574936
-4.63043
-8.55596
-12.6466
-16.7069
-20.6041
-24.3928
-28.0035
-31.4226
-34.6796
-37.7638
-40.6892
-43.467
-46.0957
-48.5722
-50.8862
-53.0192
-54.9477
-56.6404
-58.062
-59.1831
-59.9778
-60.4483
-60.6138
-60.4604
-59.9512
-59.0509
-57.7312
-55.9634
-53.7045
-50.9016
-47.508
-43.5041
-38.9031
-33.7706
-28.2062
-22.6056
9.75227
12.7459
16.0189
19.4041
22.5462
25.5065
28.1608
30.3107
31.9335
33.116
33.9162
34.4056
34.6715
34.775
34.7615
34.6641
34.5036
34.2917
34.0331
33.7257
33.3625
32.9297
32.4057
31.7683
31.0159
30.1643
29.2232
28.1991
27.1029
25.9502
24.762
23.5659
22.3967
21.2941
20.2958
19.4338
18.7353
18.2098
17.8403
6.0042
2.82014
-0.820276
-4.66749
-8.38564
-12.2548
-16.0885
-19.7614
-23.3255
-26.7151
-29.9179
-32.9622
-35.8385
-38.5602
-41.1383
-43.5721
-45.8594
-47.9911
-49.9512
-51.7183
-53.2647
-54.5591
-55.5761
-56.2949
-56.7197
-56.8712
-56.7384
-56.2888
-55.4898
-54.3156
-52.7395
-50.7242
-48.2218
-45.1882
-41.5982
-37.4528
-32.7949
-27.6997
-22.5178
8.99977
11.8518
14.9734
18.2056
21.2092
24.0435
26.59
28.658
30.2245
31.3723
32.1562
32.6436
32.9179
33.0375
33.0458
32.9748
32.8449
32.6679
32.4489
32.187
31.8764
31.5055
31.0551
30.505
29.8532
29.1131
28.2927
27.3965
26.4325
25.413
24.3549
23.2808
22.2198
21.2051
20.2693
19.4398
18.7395
18.1747
17.7369
5.45548
2.42822
-1.02973
-4.67871
-8.1999
-11.8589
-15.4781
-18.939
-22.2913
-25.4728
-28.4725
-31.3175
-33.9994
-36.531
-38.9234
-41.176
-43.2878
-45.2507
-47.0504
-48.6682
-50.0794
-51.2562
-52.1767
-52.8246
-53.2062
-53.343
-53.2267
-52.8283
-52.1186
-51.0733
-49.6684