/*--------------------------------*- C++ -*----------------------------------*\
| =========                 |                                                 |
| \\      /  F ield         | OpenFOAM: The Open Source CFD Toolbox           |
|  \\    /   O peration     | Version:  2312                                  |
|   \\  /    A nd           | Website:  www.openfoam.com                      |
|    \\/     M anipulation  |                                                 |
\*---------------------------------------------------------------------------*/
FoamFile
{
    version     2.0;
    format      ascii;
    arch        "LSB;label=32;scalar=64";
    class       volSymmTensorField;
    location    "500";
    object      turbulenceProperties:devReff;
}
// * * * * * * * * * * * * * * * * * * * * * * * * * * * * * * * * * * * * * //

dimensions      [0 2 -2 0 0 0 0];

internalField   nonuniform List<symmTensor> 
10720
(
(0.00418866 0.0102008 -8.12371e-21 -0.00450668 -1.53268e-19 0.000318023)
(0.00731709 0.0142521 8.14683e-21 -0.00759072 1.9528e-19 0.000273637)
(0.0123046 0.0179717 4.85203e-20 -0.0129399 2.06384e-19 0.000635261)
(0.016104 0.0185661 2.64907e-19 -0.0168253 1.86387e-18 0.000721258)
(0.0178157 0.0161251 -7.38421e-19 -0.0184349 -2.84943e-18 0.000619208)
(0.0191507 0.0131024 -6.70147e-19 -0.0198499 -1.35188e-18 0.000699144)
(0.0210807 0.0106639 1.75574e-19 -0.0217791 1.43275e-20 0.000698375)
(0.0240462 0.00841725 8.17656e-20 -0.0247595 1.29286e-19 0.000713283)
(0.0285986 0.00589412 1.93689e-19 -0.0294284 -1.56455e-19 0.000829795)
(0.0351517 0.00264152 -2.9716e-20 -0.0361052 -2.98138e-20 0.00095352)
(0.0444447 -0.00225302 3.39668e-18 -0.0456036 1.41515e-18 0.00115889)
(0.0585033 -0.0101502 -8.25954e-19 -0.0599826 -6.34249e-19 0.00147924)
(0.0799855 -0.0236446 1.83077e-18 -0.0819418 -2.74816e-18 0.00195632)
(0.11478 -0.0484082 1.01487e-18 -0.117542 2.19817e-18 0.00276208)
(0.179184 -0.0996728 2.02089e-18 -0.183505 -3.58285e-18 0.00432042)
(0.302188 -0.212266 8.37668e-19 -0.309558 1.6616e-17 0.00737051)
(0.519545 -0.451039 1.13082e-16 -0.532857 5.80187e-17 0.0133122)
(1.00966 -1.06977 -3.84667e-17 -1.03689 5.90078e-17 0.0272328)
(1.79081 -2.31602 -2.58256e-17 -1.84344 -3.70007e-16 0.0526326)
(2.57943 -4.10043 2.33326e-17 -2.66185 -7.14991e-19 0.0824171)
(3.44032 -6.87495 -5.33445e-16 -3.56546 -3.7744e-16 0.125145)
(4.67118 -12.2043 1.17384e-15 -4.87554 1.67437e-15 0.204355)
(6.61543 -24.186 -7.91272e-16 -7.01252 -1.98184e-15 0.397087)
(8.77132 -49.379 9.53436e-16 -9.55815 2.10515e-16 0.786828)
(9.40408 -88.4344 -2.97272e-16 -10.4113 -1.46608e-17 1.00724)
(7.41862 -125.175 9.4832e-17 -8.84016 -2.0383e-15 1.42154)
(4.79715 -253.031 6.92182e-16 -8.03886 -2.15664e-16 3.24171)
(-11.4774 -414.724 8.06448e-16 9.27753 1.46304e-15 2.19988)
(-23.3724 -284.473 1.69074e-14 24.9194 4.53878e-16 -1.54702)
(-12.6896 -99.7757 9.36225e-15 13.3782 4.69178e-15 -0.688559)
(-4.74379 -29.1388 -3.08291e-15 4.85841 -7.11406e-16 -0.114621)
(-0.621017 -3.20236 -5.7314e-16 0.627329 -2.64546e-16 -0.006312)
(-0.12596 -0.583445 -2.72752e-17 0.126135 -1.01874e-16 -0.000175766)
(-0.0168762 -0.0750329 -2.16822e-17 0.0168076 -2.44996e-17 6.85925e-05)
(-0.000200921 -0.000898807 1.02073e-19 0.000201202 3.25127e-19 -2.81496e-07)
(-5.44838e-05 -0.000325306 3.66331e-20 5.72499e-05 3.50616e-19 -2.76607e-06)
(0.000134605 0.000406452 5.46104e-20 -0.000141848 -1.14948e-20 7.24274e-06)
(-0.00480381 -0.00891237 -1.20988e-18 0.00503222 1.37248e-17 -0.000228405)
(-0.104284 -0.0900126 -1.11229e-16 0.138823 -3.58281e-16 -0.0345393)
(0.00318095 0.0109882 4.8194e-21 -0.00332212 -1.45279e-20 0.000141171)
(0.00204746 0.00999634 -2.90893e-20 -0.00231119 3.08468e-20 0.000263732)
(0.000809034 0.00745834 -1.28041e-19 -0.000926939 -9.1809e-20 0.000117906)
(0.000245562 0.0131346 3.41446e-19 -0.000426243 -4.35443e-19 0.000180681)
(-0.000185853 0.00429068 -1.94564e-19 0.000153599 -6.65804e-20 3.22532e-05)
(-0.00031785 0.00639775 -1.77155e-18 0.000378905 2.23826e-18 -6.1055e-05)
(0.000287784 0.00713077 1.34208e-18 3.50739e-05 2.74228e-18 -0.000322858)
(0.00189287 0.00740825 1.08346e-19 -0.00143545 -5.39875e-18 -0.000457413)
(0.00408285 0.00755371 2.26607e-18 -0.00387583 -1.2435e-19 -0.000207019)
(0.00593809 0.00769496 -1.28593e-18 -0.00596784 -3.83638e-19 2.97421e-05)
(0.00760579 0.0086038 8.97038e-19 -0.00771774 2.15109e-18 0.000111943)
(0.0094213 0.0105934 1.53504e-18 -0.00956323 -7.37363e-19 0.000141935)
(0.0116651 0.0139929 -1.38734e-18 -0.0118571 -2.4806e-19 0.000191985)
(0.0153758 0.020282 2.98051e-19 -0.0156521 3.56603e-19 0.000276299)
(0.0207443 0.0302545 4.20336e-18 -0.0211079 5.6311e-19 0.000363598)
(0.0331267 0.0536415 4.64477e-18 -0.033717 -1.03877e-18 0.00059035)
(0.0505347 0.0905326 2.16959e-18 -0.0514171 2.99062e-18 0.000882417)
(0.143857 0.284755 2.48655e-18 -0.146378 6.42793e-18 0.00252016)
(0.151281 0.330024 2.40052e-18 -0.153885 -1.34478e-18 0.00260407)
(0.167459 0.403866 3.35772e-18 -0.170439 1.89222e-19 0.00298011)
(0.204754 0.54842 -4.30358e-18 -0.208565 -2.59905e-17 0.00381116)
(0.278528 0.839995 -1.44984e-17 -0.284296 -1.35237e-19 0.00576747)
(0.314541 1.09269 1.0079e-17 -0.322041 1.41272e-17 0.00750075)
(0.363413 1.51983 4.46424e-18 -0.374843 -2.7949e-19 0.01143)
(0.385941 2.0568 1.59965e-16 -0.402455 -2.30245e-17 0.0165147)
(0.365878 2.65087 1.88446e-19 -0.386625 -5.06875e-18 0.020747)
(0.199945 2.21763 -3.2529e-20 -0.216532 -1.19892e-18 0.0165873)
(0.0541535 1.20993 -9.8573e-20 -0.0627488 3.02837e-21 0.00859531)
(0.000864525 0.457898 1.36934e-19 -0.00398326 1.85444e-21 0.00311873)
(-0.00455497 0.117587 2.87409e-18 0.00378079 -2.20823e-19 0.00077418)
(-0.0011451 0.0148131 -2.29323e-20 0.00105041 -1.14383e-21 9.46909e-05)
(-0.000250523 0.00219987 -9.39825e-21 0.000236957 2.67834e-20 1.3566e-05)
(-0.000239203 0.00161011 -2.49191e-19 0.000229717 -3.52187e-20 9.48598e-06)
(-0.000265207 0.00146258 -3.97838e-19 0.000257082 9.61654e-20 8.12433e-06)
(-0.000290748 0.00136789 3.52212e-19 0.000283591 1.38088e-20 7.15715e-06)
(-0.000314122 0.00129353 -1.31719e-21 0.000307632 -3.25526e-20 6.49002e-06)
(-0.000334153 0.00120843 -4.18795e-21 0.00032911 4.83483e-20 5.04273e-06)
(-0.211557 0.663701 1.44398e-18 0.201971 -1.60345e-17 0.00958569)
(-15.7001 40.9877 -1.42626e-14 15.4507 -2.45154e-15 0.249401)
(0.00554643 -0.00423131 -3.82903e-20 -0.00502118 -1.14667e-19 -0.000525249)
(0.00806801 -0.0086509 1.06288e-19 -0.00704654 2.64245e-19 -0.00102147)
(0.00757425 -0.0122486 5.81993e-21 -0.0060516 3.82427e-21 -0.00152266)
(0.00369912 -0.00923658 2.03701e-19 -0.00244412 2.79707e-20 -0.001255)
(0.00124425 -0.00568205 1.15332e-19 -0.00038979 7.93019e-19 -0.00085446)
(0.000167236 -0.00350025 3.99096e-19 0.000437623 7.07699e-19 -0.00060486)
(-0.00024341 -0.00238623 -1.39883e-19 0.000731707 2.264e-20 -0.000488298)
(-0.000424218 -0.00177411 -1.02315e-19 0.000859736 -2.82159e-20 -0.000435518)
(-0.000518619 -0.00140651 -5.78275e-19 0.000939267 -6.33765e-19 -0.000420648)
(-0.000553892 -0.00116077 -1.83875e-19 0.000978816 -6.29847e-20 -0.000424923)
(-0.000555858 -0.00099242 -1.73124e-18 0.000998665 -1.6752e-18 -0.000442806)
(-0.00052233 -0.000869109 -2.10757e-20 0.000981172 2.78871e-19 -0.000458842)
(-0.000558455 -0.000980096 -1.13478e-18 0.00113485 1.99513e-20 -0.000576393)
(-0.00074154 -0.0015943 1.2908e-18 0.00172381 7.62536e-19 -0.000982273)
(-0.00101365 -0.00348674 -5.6166e-18 0.00311356 -1.64965e-18 -0.00209992)
(-0.000670423 -0.00910761 2.90357e-17 0.00563933 7.00635e-18 -0.00496891)
(0.00310551 -0.0237383 -5.92218e-17 0.00769066 -4.98031e-17 -0.0107962)
(0.0184874 -0.066358 -1.28321e-16 0.00510524 -4.74393e-17 -0.0235926)
(0.0660481 -0.182514 -3.09671e-16 -0.0177877 1.25628e-16 -0.0482604)
(0.171621 -0.439491 6.48398e-17 -0.0875342 -5.06943e-20 -0.0840865)
(0.349089 -0.920644 5.37546e-16 -0.222716 6.15116e-16 -0.126373)
(0.604417 -1.74782 -8.96825e-16 -0.423066 -1.58844e-15 -0.181351)
(0.945912 -3.10236 7.92137e-17 -0.657582 1.69831e-15 -0.28833)
(1.53106 -5.49423 2.80643e-17 -0.985013 -5.09778e-16 -0.546046)
(3.51489 -13.3347 -0 -2.1864 -0 -1.32849)
(1.52856 -10.5547 -3.26445e-17 0.0121702 5.91054e-16 -1.54073)
(-0.634806 -12.8279 -1.0634e-15 4.64669 2.50912e-16 -4.01189)
(0.260596 -7.47902 -1.03329e-16 1.62048 -9.18717e-16 -1.88108)
(3.08154 -4.78673 -1.24459e-14 -4.66717 -5.72651e-15 1.58563)
(4.70349 -4.73151 -5.94176e-16 -7.57743 -2.25107e-14 2.87395)
(1.87706 -2.96169 9.49413e-16 -2.96476 1.41499e-14 1.0877)
(0.114052 -1.45318 2.33873e-16 -0.297159 6.70257e-15 0.183107)
(-0.117696 -0.817386 -1.4023e-15 0.0969956 1.26573e-15 0.0207009)
(-0.0496219 -0.276746 4.6188e-16 0.0493594 7.39304e-16 0.000262488)
(-0.00170328 -0.0092219 -3.97532e-19 0.00172234 -4.15423e-18 -1.90632e-05)
(-0.000102903 -0.000600362 3.70479e-19 0.000118524 -1.81782e-19 -1.56203e-05)
(-0.000103267 -0.000323145 -3.6648e-20 9.82892e-05 7.49649e-21 4.97768e-06)
(-0.000709566 -0.00117053 -4.30893e-19 0.000562996 -9.36004e-18 0.000146569)
(0.00664906 -0.00994276 2.26217e-16 -0.0251208 4.77012e-16 0.0184717)
(0.00307743 -0.00155809 2.33406e-20 -0.00285828 6.8636e-20 -0.000219143)
(0.000641578 -0.000193198 -2.18984e-21 -0.00060169 -6.72289e-20 -3.98878e-05)
(0.00264311 -0.000218271 -1.79218e-19 -0.0025179 -4.61549e-19 -0.000125207)
(0.00423658 0.000695844 8.04177e-20 -0.00409245 1.26773e-18 -0.00014413)
(0.00360052 0.00165742 6.97081e-19 -0.00353856 -6.49951e-19 -6.19625e-05)
(0.00239342 0.00211714 -2.03349e-19 -0.00239389 -8.55784e-19 4.69995e-07)
(0.00098051 0.00158618 3.44549e-19 -0.00100259 -1.27904e-18 2.20774e-05)
(0.000458449 0.00153596 -9.52037e-19 -0.000499354 -6.93793e-20 4.09043e-05)
(4.25505e-05 0.00167184 -6.19565e-19 -8.93984e-05 1.29665e-18 4.6848e-05)
(-0.000444587 0.00171472 -2.65007e-19 0.000421405 -3.60006e-20 2.31814e-05)
(-0.000828166 0.00149314 -2.58122e-19 0.000855034 -8.79042e-19 -2.68686e-05)
(-0.000948305 0.00109862 4.66965e-20 0.00101904 -4.36941e-19 -7.07338e-05)
(-0.00104799 0.000874331 3.54521e-19 0.00115912 9.13628e-19 -0.000111126)
(-0.00113253 0.000725643 -4.17875e-19 0.00128591 -2.34046e-19 -0.000153379)
(-0.000402551 0.000210167 -8.97301e-20 0.000469434 -3.13178e-19 -6.6883e-05)
(-0.00874936 0.00394765 -9.41631e-18 0.0104776 -2.03858e-18 -0.0017282)
(-0.0126585 0.00529071 -2.46128e-18 0.0155675 8.5873e-20 -0.00290903)
(-0.00143694 0.00059426 -1.99004e-20 0.00181195 -1.85461e-19 -0.000375015)
(-0.0448269 0.0192398 -9.82164e-18 0.0578648 6.06964e-18 -0.0130379)
(-0.0136708 0.00625932 5.54927e-18 0.0180592 -1.83497e-18 -0.00438836)
(-0.00168887 0.00083382 -5.68812e-18 0.00228908 3.41485e-18 -0.000600215)
(-0.107865 0.0581205 -8.08247e-17 0.151044 1.54429e-17 -0.0431791)
(-0.0159274 0.00902319 1.07349e-18 0.022993 -9.37754e-18 -0.00706551)
(-0.00109817 0.000666326 4.7628e-18 0.00167135 -2.76354e-20 -0.000573177)
(-0.0143761 0.0107219 -6.1659e-17 0.0234272 5.50618e-18 -0.00905104)
(-0.000517187 0.000514247 -2.2506e-18 0.000893643 2.60278e-19 -0.000376457)
(-0.000691197 0.000924291 -1.54304e-20 0.0012404 2.48651e-20 -0.000549208)
(-0.000757008 0.00128488 2.83757e-22 0.00137318 1.48465e-20 -0.000616169)
(-0.000460566 0.000953428 -8.56514e-22 0.000819015 -1.16385e-23 -0.000358448)
(-0.000431517 0.00106319 2.5121e-20 0.000736503 1.32937e-19 -0.000304986)
(-0.00029102 0.000827199 3.25619e-21 0.000468949 -6.47038e-20 -0.000177929)
(-0.000177808 0.00056055 4.04176e-20 0.000267186 -1.1146e-19 -8.93781e-05)
(-0.000111702 0.000374824 1.47949e-18 0.000155529 6.79826e-20 -4.38267e-05)
(-7.92485e-05 0.000273326 7.41661e-19 0.000102393 -2.73784e-19 -2.31446e-05)
(-6.83043e-05 0.000235102 -4.54075e-19 8.23529e-05 4.17733e-20 -1.40486e-05)
(-7.05434e-05 0.000238079 3.70078e-19 8.08132e-05 4.56901e-20 -1.02698e-05)
(-7.76956e-05 0.00025049 -5.7595e-19 8.31087e-05 -8.07639e-20 -5.41305e-06)
(-0.0467048 0.128678 -2.36276e-16 0.0557855 -2.53565e-17 -0.00908073)
(-1.12435 3.55624 -1.37611e-14 1.31518 -2.73453e-15 -0.190831)
(0.000231876 -0.000200859 -1.01444e-21 -0.000247944 -3.04307e-21 1.60672e-05)
(0.00149494 -0.00197895 -1.90214e-19 -0.00165524 -4.23974e-19 0.000160301)
(0.000963613 -0.00220486 1.37758e-19 -0.00115081 3.00781e-19 0.000187198)
(0.000382792 -0.0023142 1.89256e-19 -0.000613252 3.42318e-19 0.00023046)
(-0.000205469 -0.00232428 3.5414e-19 -6.50064e-05 5.08795e-19 0.000270475)
(-0.000809968 -0.00221036 -1.127e-18 0.000491891 -1.90992e-18 0.000318077)
(-0.00139718 -0.00196834 8.34389e-19 0.00101738 1.6019e-18 0.000379799)
(-0.00191792 -0.00160109 1.16986e-18 0.00147513 1.0563e-18 0.000442793)
(-0.00234297 -0.00111433 -7.0178e-20 0.00183473 1.46396e-19 0.000508243)
(-0.00263345 -0.000550152 8.41515e-19 0.00205876 1.43187e-18 0.000574693)
(-0.00277876 4.39453e-05 -1.8562e-18 0.00214499 -1.21779e-19 0.000633763)
(-0.00278524 0.000630257 2.70316e-18 0.00209933 2.93907e-18 0.000685914)
(-0.0026838 0.00116021 1.32814e-18 0.00196813 5.58724e-19 0.000715675)
(-0.00248521 0.0016005 6.52141e-19 0.00177202 -6.18458e-19 0.0007132)
(-0.00233331 0.00202469 2.04499e-18 0.00161759 1.98286e-18 0.000715714)
(-0.00260824 0.00285759 -6.43477e-18 0.00177009 -6.45419e-18 0.000838147)
(-0.00365383 0.00488299 2.50514e-18 0.00244696 3.69514e-18 0.00120688)
(-0.00762816 0.0121902 5.09644e-17 0.00508447 1.47566e-17 0.00254369)
(-0.0175388 0.0334195 4.15359e-17 0.0117119 2.99057e-17 0.00582683)
(-0.0363201 0.0836259 -3.16018e-17 0.0243614 -2.03064e-18 0.0119586)
(-0.0617192 0.18212 7.86516e-17 0.0407806 -1.75757e-16 0.0209386)
(-0.0791975 0.358255 3.07842e-17 0.0454652 2.55621e-16 0.0337323)
(-0.0335488 0.650287 1.07874e-15 -0.0307533 -2.70628e-16 0.0643021)
(0.39851 1.16479 -1.94969e-15 -0.585559 -7.81548e-16 0.187048)
(1.22958 -0.395601 8.22887e-17 -1.40751 5.6376e-17 0.177931)
(2.85342 -3.81016 -4.21502e-15 -3.08082 1.04078e-15 0.227406)
(3.98547 -7.80411 1.10113e-15 -4.25281 1.37447e-16 0.267341)
(2.16421 -6.10837 -3.49538e-16 -2.25646 1.93627e-18 0.0922535)
(0.731596 -3.197 -5.4625e-15 -0.569459 3.04446e-15 -0.162136)
(0.360724 -1.98429 -6.87574e-15 -0.166213 2.74712e-16 -0.194512)
(0.253807 -1.25396 1.27451e-14 -0.095011 -3.42143e-15 -0.158796)
(0.183605 -0.374845 7.15946e-15 -0.0711557 2.63751e-15 -0.11245)
(0.0684891 0.0727579 2.51738e-16 -0.0450818 1.47694e-15 -0.0234073)
(0.0105931 0.0251412 4.42971e-16 -0.00976459 -2.34994e-16 -0.000828481)
(-0.000773539 -0.0105964 2.90142e-17 0.000736965 -9.322e-18 3.65744e-05)
(-0.000560519 -0.00411828 -5.12637e-18 0.000658213 -3.39602e-18 -9.76939e-05)
(-0.00019554 -0.000641183 -1.38775e-20 0.000181299 -8.26677e-20 1.42404e-05)
(-0.000629723 -0.00189988 2.87424e-18 0.000546887 2.05919e-18 8.2836e-05)
(0.0112179 -0.0649481 -2.16228e-16 -0.0330498 2.70363e-16 0.0218319)
(0.00288034 -0.00158049 -5.62554e-20 -0.0030344 -1.26721e-19 0.000154059)
(0.00385537 -0.00121029 -5.37076e-20 -0.00400395 -2.22387e-20 0.000148578)
(0.00437533 -0.00035347 5.9991e-19 -0.00449738 8.96878e-19 0.000122041)
(0.00369272 0.000567827 -3.2034e-19 -0.00375637 -2.64914e-20 6.36476e-05)
(0.00267618 0.00113598 5.51202e-20 -0.00270375 2.46542e-19 2.75619e-05)
(0.00199815 0.00155429 -7.00793e-20 -0.00200539 8.92157e-19 7.24111e-06)
(0.00146924 0.00195332 -8.94209e-20 -0.00146976 7.51314e-19 5.16641e-07)
(0.000891152 0.00221865 2.58893e-18 -0.000900239 1.65772e-18 9.08754e-06)
(0.00027803 0.0023792 4.88527e-19 -0.000288135 -5.02675e-19 1.0105e-05)
(-5.42213e-05 0.000375276 2.381e-19 5.2627e-05 2.90395e-20 1.59424e-06)
(-0.000765782 0.00191743 -1.35384e-18 0.000749254 -7.27014e-19 1.65274e-05)
(-0.0014427 0.00215409 -1.35861e-18 0.00139793 2.02824e-18 4.47736e-05)
(-0.00190534 0.0019238 2.1742e-18 0.00181792 -1.03871e-18 8.74232e-05)
(-0.00232119 0.00164096 1.86479e-18 0.0021674 -9.96076e-21 0.000153787)
(-0.00269336 0.00132083 -2.15186e-18 0.00245 1.79162e-18 0.000243363)
(-0.0024537 0.00078302 -1.44543e-18 0.00215927 3.17699e-18 0.000294437)
(-0.0015966 0.000279326 2.95942e-18 0.00135011 -1.61062e-18 0.000246494)
(-0.000144672 6.58812e-06 2.72433e-19 0.000116823 -5.07767e-20 2.78493e-05)
(-6.88649e-05 -5.35052e-06 5.76998e-20 5.29444e-05 -6.13037e-21 1.59205e-05)
(-0.000111056 -2.25057e-05 -3.64394e-20 8.09452e-05 1.17686e-19 3.01109e-05)
(-0.00282333 -0.00096777 1.57328e-17 0.00193087 1.00272e-18 0.000892455)
(-0.000122489 -6.35798e-05 2.50552e-20 7.72033e-05 -1.12862e-19 4.52858e-05)
(-0.00445262 -0.0031633 -8.92023e-20 0.00265174 -2.73945e-19 0.00180089)
(-0.00513961 -0.00580488 -8.10666e-19 0.00214494 -4.04474e-18 0.00299467)
(-5.35592e-05 -0.000108353 -4.06895e-21 -3.9317e-06 3.86734e-20 5.74909e-05)
(-0.000541854 -0.00281016 3.75175e-17 -0.0011075 -2.20819e-18 0.00164935)
(0.000182932 -0.00302065 -3.77334e-19 -0.0021738 2.46875e-20 0.00199086)
(0.000756567 -0.00250753 -4.23398e-18 -0.00264939 1.40423e-20 0.00189282)
(0.000661533 -0.0013255 -3.27964e-20 -0.00170545 2.99629e-21 0.00104392)
(0.000690922 -0.0011765 -3.11205e-18 -0.00152267 -1.05617e-19 0.000831745)
(0.00051176 -0.00089291 3.60076e-18 -0.00101371 3.90308e-19 0.000501953)
(0.000259407 -0.000496661 -7.78876e-20 -0.000469793 -1.59842e-21 0.000210385)
(0.000137861 -0.000292093 -2.58267e-18 -0.000230091 3.92804e-19 9.223e-05)
(8.35204e-05 -0.000192414 -3.59097e-21 -0.000129013 1.90894e-19 4.54923e-05)
(5.30093e-05 -0.000131717 1.76623e-20 -7.63893e-05 -1.61718e-19 2.338e-05)
(7.52756e-05 -0.000188009 -7.89133e-20 -0.000101309 2.93154e-19 2.60334e-05)
(1.10351e-05 -3.03499e-05 3.19779e-20 -1.32717e-05 -1.14612e-19 2.23664e-06)
(0.0285167 -0.0417018 5.93989e-16 -0.0352122 7.57812e-17 0.00669548)
(0.314219 2.21132 7.82242e-14 -0.43398 1.52613e-14 0.119761)
(0.00438398 -0.00349641 -9.8056e-20 -0.00426604 -1.67941e-19 -0.000117936)
(0.00369246 -0.00413942 -1.99667e-19 -0.0035621 -3.25341e-19 -0.000130357)
(0.00282473 -0.0047378 3.93367e-19 -0.00265599 5.60303e-19 -0.000168739)
(0.00188454 -0.0052396 5.1309e-19 -0.00167709 5.46235e-19 -0.000207452)
(0.000857857 -0.00546062 6.20899e-20 -0.000605566 -2.05731e-20 -0.000252292)
(-0.000202473 -0.00543686 -1.84281e-19 0.000508665 4.74814e-19 -0.000306192)
(-0.00121328 -0.00526389 4.29968e-18 0.00158286 4.29683e-18 -0.000369577)
(-0.00212541 -0.0049067 -4.21995e-18 0.00256705 -5.47013e-18 -0.000441647)
(-0.00291844 -0.0044003 1.14441e-18 0.00344745 2.99083e-19 -0.000529009)
(-0.00356275 -0.00380015 6.21006e-18 0.00418742 4.59427e-18 -0.000624668)
(-0.00405381 -0.00313831 5.32844e-18 0.00478895 5.32412e-18 -0.000735144)
(-0.00440061 -0.00245198 6.24063e-18 0.0052601 1.88087e-18 -0.000859489)
(-0.00461892 -0.00177524 -7.61006e-18 0.00561626 -5.72449e-18 -0.000997341)
(-0.00473283 -0.00111431 -5.43061e-18 0.00587354 -5.26669e-18 -0.00114071)
(-0.00474739 -0.000492558 6.30304e-19 0.00604743 -1.96588e-18 -0.00130004)
(-0.00469901 0.000147293 -1.68392e-17 0.00616277 1.04562e-18 -0.00146376)
(-0.00449041 0.000886268 -5.45562e-18 0.00607008 -6.75929e-18 -0.00157967)
(-0.00404267 0.00168138 -3.50169e-17 0.00564892 -2.68048e-17 -0.00160624)
(-0.00245587 0.00181745 2.85289e-18 0.00353857 -3.92599e-18 -0.00108271)
(-0.00064086 0.000795159 4.43745e-19 0.000948991 -1.02187e-18 -0.00030813)
(-2.54598e-05 5.29957e-05 -2.53752e-19 3.86778e-05 1.04645e-21 -1.3218e-05)
(-1.68526e-05 6.3132e-05 4.10387e-20 2.71074e-05 8.09113e-21 -1.02548e-05)
(-7.70038e-06 6.85213e-05 -2.03841e-19 1.53331e-05 -4.02703e-20 -7.63271e-06)
(1.25545e-05 0.000798266 -7.96717e-19 4.34516e-05 8.47465e-19 -5.6006e-05)
(0.0027462 0.0153629 4.44242e-18 -0.0023254 2.93627e-19 -0.000420796)
(1.93906e-05 2.65213e-05 6.02898e-20 -2.09956e-05 2.18551e-20 1.60499e-06)
(2.77156e-05 -1.06712e-05 -4.49723e-21 -3.17293e-05 3.80569e-21 4.01371e-06)
(2.56909e-05 -3.51875e-05 6.07187e-21 -2.89117e-05 4.4562e-22 3.22081e-06)
(1.89809e-05 -4.89046e-05 8.66308e-20 -1.98671e-05 -1.56417e-20 8.86207e-07)
(1.39623e-05 -5.76871e-05 -8.29307e-21 -1.43053e-05 3.82894e-20 3.4305e-07)
(9.90033e-06 -5.92861e-05 -1.33419e-19 -1.0491e-05 -6.78596e-20 5.90641e-07)
(5.65976e-05 -0.000436587 1.9889e-18 -6.34901e-05 -1.63227e-18 6.89253e-06)
(0.0106955 -0.0832848 3.39048e-16 -0.0116901 -2.99803e-17 0.0009946)
(0.00764501 -0.0216519 -1.13995e-16 -0.00896802 -6.78428e-16 0.00132301)
(0.00766386 0.00830747 -2.3276e-16 -0.00844501 -3.64078e-17 0.000781157)
(-0.0011334 -0.0131801 2.62462e-18 0.00139623 1.54821e-17 -0.000262833)
(-0.00474426 -0.0158334 -1.60781e-17 0.00436562 1.71547e-18 0.00037864)
(-0.00222525 -0.010002 -9.30151e-18 0.00203359 7.45733e-18 0.000191661)
(0.128044 -0.473453 3.89902e-16 -0.190081 -1.20535e-15 0.0620374)
(0.00558573 -0.00302788 -5.75455e-20 -0.00549801 -3.36604e-20 -8.7724e-05)
(0.00489613 -0.00164915 1.67028e-19 -0.0048342 8.03877e-19 -6.19375e-05)
(0.00445145 -0.000538126 4.6712e-19 -0.00442784 9.50199e-19 -2.36009e-05)
(0.00440057 0.000451422 5.62226e-19 -0.004391 -2.82159e-19 -9.57091e-06)
(0.00413645 0.00147154 -1.15248e-18 -0.00414024 -8.99208e-19 3.78981e-06)
(0.00310847 0.00209918 -1.57325e-19 -0.00310948 -1.2016e-18 1.01624e-06)
(0.00231811 0.00264749 -1.6728e-18 -0.00231815 -1.48063e-18 3.32228e-08)
(0.00145145 0.00290428 -2.27451e-18 -0.00145685 -3.86532e-20 5.40471e-06)
(0.000614665 0.00290911 -5.41427e-19 -0.000626036 -3.73534e-19 1.13708e-05)
(-0.000113355 0.00269173 7.88106e-19 9.88222e-05 -5.2675e-19 1.45325e-05)
(-0.000701955 0.00248369 7.48571e-19 0.000689083 1.71506e-18 1.28716e-05)
(-0.00113524 0.00214167 1.7502e-18 0.00113042 -6.79066e-19 4.81989e-06)
(-0.00138505 0.00172027 -1.5693e-18 0.00139317 -1.51564e-18 -8.12284e-06)
(-0.00150079 0.00132593 -2.04896e-19 0.00152422 6.04044e-19 -2.34299e-05)
(-0.00154757 0.00100796 1.71868e-18 0.00158943 -3.98096e-19 -4.18586e-05)
(-0.00144974 0.000704269 3.5205e-18 0.00150749 -3.14305e-19 -5.77495e-05)
(-0.0012387 0.000447713 -2.20111e-18 0.00130627 -4.34026e-19 -6.75649e-05)
(-0.000262287 6.90673e-05 -1.31421e-19 0.000280736 -1.88142e-19 -1.84487e-05)
(-0.000500355 9.04314e-05 -1.24124e-19 0.000543634 7.14473e-20 -4.32787e-05)
(-0.000709504 7.3555e-05 2.54428e-18 0.000781723 -8.96915e-19 -7.22193e-05)
(-0.000905591 2.35545e-05 5.58236e-19 0.00101215 -7.44787e-19 -0.000106558)
(-0.000942734 -5.81895e-05 -3.99141e-18 0.00106881 1.02414e-18 -0.000126077)
(-0.00095406 -0.000170022 -1.48756e-19 0.00109583 4.91365e-19 -0.000141766)
(-0.000855603 -0.000270168 -5.61357e-20 0.00100394 -2.99343e-19 -0.000148336)
(-0.000644071 -0.000297587 2.79217e-20 0.000783199 -2.3725e-21 -0.000139128)
(-0.000495587 -0.000292132 -2.96241e-18 0.000637701 -1.34839e-19 -0.000142114)
(-0.000368222 -0.00025745 -1.49365e-20 0.000507077 2.26603e-21 -0.000138856)
(-0.000312741 -0.000247071 5.77423e-19 0.00046441 -2.23088e-20 -0.000151669)
(-0.000259752 -0.000224517 -2.56838e-20 0.000417647 -3.46351e-22 -0.000157895)
(-0.000218914 -0.00020015 -4.15928e-22 0.000381959 -1.0918e-19 -0.000163045)
(-0.000182427 -0.000177394 -1.65471e-18 0.00034481 8.65924e-20 -0.000162383)
(-0.000147171 -0.000160341 -3.16574e-20 0.000302292 -1.90009e-21 -0.000155121)
(-0.000111128 -0.000153756 6.04642e-20 0.000251667 -1.59329e-19 -0.000140539)
(-7.3954e-05 -0.000165439 4.33445e-18 0.000195918 7.92332e-19 -0.000121964)
(-2.80698e-05 -0.000157413 -2.39774e-20 0.00010843 -3.09808e-21 -8.03597e-05)
(2.3166e-05 -0.000443728 -9.97034e-18 0.00011175 -4.27509e-19 -0.000134916)
(5.55507e-06 -2.69842e-05 1.67694e-18 -9.5539e-07 2.33822e-19 -4.59968e-06)
(0.0146823 -0.03546 -8.39107e-18 -0.0107136 2.0949e-17 -0.00396872)
(2.22301 1.36988 5.89971e-16 -1.95725 -3.29237e-15 -0.265758)
(0.00610216 -0.00503616 -2.10715e-19 -0.0061724 -2.89634e-19 7.02368e-05)
(0.00504615 -0.00594606 -3.94378e-19 -0.0051479 -5.34805e-19 0.000101758)
(0.00378926 -0.00682213 1.35171e-18 -0.00390403 1.7208e-18 0.000114769)
(0.00234447 -0.00747051 -5.81127e-18 -0.00249603 -7.62922e-18 0.000151556)
(0.000770283 -0.00781722 1.47636e-18 -0.000962056 2.10257e-18 0.000191773)
(-0.000915695 -0.0078773 3.31735e-18 0.000680994 3.41472e-18 0.000234702)
(-0.00261757 -0.00757954 -3.01577e-18 0.00232131 -4.67681e-18 0.000296257)
(-0.00424765 -0.00692955 -1.89855e-18 0.0038774 2.97022e-19 0.000370257)
(-0.00574273 -0.00594077 -1.33937e-17 0.00528666 -1.24451e-17 0.000456064)
(-0.0070215 -0.00465353 -2.22817e-18 0.00645652 -5.32149e-18 0.000564974)
(-0.00801668 -0.00311166 4.07451e-19 0.00732651 -1.316e-18 0.000690174)
(-0.00868791 -0.00138345 -8.57424e-18 0.0078515 -1.0487e-17 0.000836414)
(-0.00900221 0.000453173 4.45968e-18 0.00799871 5.17672e-18 0.00100351)
(-0.00892127 0.00230238 -1.94811e-17 0.00774308 -1.00274e-17 0.00117818)
(-0.00847096 0.00407751 4.3872e-18 0.00711743 2.44276e-18 0.00135354)
(-0.00771812 0.00570431 2.1719e-17 0.00620295 1.76903e-17 0.00151517)
(-0.00678577 0.00709102 -3.16378e-17 0.00517356 -8.91781e-18 0.00161221)
(-0.00575001 0.00826236 -6.21294e-18 0.00409363 2.79914e-17 0.00165638)
(-0.00458476 0.00924117 -2.34525e-18 0.00293202 -3.89287e-18 0.00165274)
(-0.002317 0.00710674 -2.1971e-17 0.00117588 -3.33186e-18 0.00114113)
(-0.000317722 0.00188587 6.3632e-18 4.6233e-05 3.82925e-18 0.000271489)
(-1.168e-05 0.000731612 8.39983e-20 -8.27963e-05 -1.28742e-19 9.44763e-05)
(7.96236e-06 5.84091e-05 1.74267e-19 -1.48375e-05 4.82684e-20 6.87514e-06)
(1.32284e-05 5.24411e-05 1.25576e-19 -1.84157e-05 3.95347e-20 5.18731e-06)
(0.000909241 0.00309877 -8.13773e-19 -0.00108434 -6.84426e-20 0.000175097)
(1.3017e-05 4.37103e-05 1.13605e-21 -1.41783e-05 -1.55188e-21 1.16122e-06)
(1.29141e-05 3.1947e-05 1.35602e-20 -1.33779e-05 -3.3829e-21 4.63775e-07)
(1.32394e-05 1.43567e-05 -5.90617e-21 -1.32309e-05 -8.67879e-21 -8.48089e-09)
(1.33151e-05 -2.87567e-06 -8.68245e-20 -1.32693e-05 -1.21818e-21 -4.57606e-08)
(1.23248e-05 -1.9901e-05 7.92777e-21 -1.25628e-05 4.49976e-22 2.37998e-07)
(9.98576e-06 -3.57968e-05 -1.4647e-20 -1.05188e-05 4.52591e-21 5.33063e-07)
(7.0736e-06 -4.7877e-05 -2.45888e-19 -7.82894e-06 -1.69934e-19 7.55342e-07)
(4.93301e-06 -5.71919e-05 -2.23193e-20 -5.36312e-06 -8.08732e-20 4.30117e-07)
(-8.32133e-07 -5.86757e-05 -6.87808e-19 4.82131e-07 5.53359e-20 3.50002e-07)
(0.00275424 -0.00846112 2.68768e-17 -0.00302702 7.63229e-17 0.000272784)
(0.00329835 -0.0137972 5.07654e-20 -0.00274546 -9.60469e-21 -0.000552891)
(-0.0085074 -0.0320688 -5.0248e-18 0.00732522 4.46203e-17 0.00118217)
(3.95081e-05 -0.00715133 -9.95377e-19 6.51706e-05 -6.21242e-18 -0.000104679)
(0.164381 -0.520109 -1.12421e-15 -0.171354 8.50128e-17 0.00697335)
(0.00663302 -0.00371948 3.75404e-19 -0.00670468 1.88557e-19 7.16553e-05)
(0.00712415 -0.00250592 -1.0707e-18 -0.00716291 -1.5949e-18 3.87579e-05)
(0.0031277 -0.00043859 -2.84555e-19 -0.00314351 4.54146e-19 1.58127e-05)
(0.00435504 0.000326522 1.74645e-18 -0.00436615 1.03082e-18 1.11101e-05)
(0.00720744 0.00225875 -1.06893e-18 -0.00722035 -5.6163e-18 1.29141e-05)
(0.0065818 0.00397893 -2.1787e-18 -0.00657632 1.94672e-18 -5.48437e-06)
(0.00547944 0.00553933 5.85265e-18 -0.00547165 4.48437e-18 -7.79424e-06)
(0.00400114 0.0067955 -2.26898e-18 -0.00400382 -5.36672e-18 2.68258e-06)
(0.00225498 0.00767445 -5.4828e-18 -0.00226496 -2.26526e-18 9.98376e-06)
(0.000370457 0.0081164 -4.61413e-18 -0.000385748 1.82797e-18 1.52911e-05)
(-0.00147712 0.00813457 6.13933e-18 0.00146032 -8.1156e-22 1.6803e-05)
(-0.00317543 0.0078068 -4.40686e-18 0.00315607 -3.40583e-18 1.93567e-05)
(-0.00467998 0.00722854 -5.92955e-18 0.00465082 4.44847e-18 2.9164e-05)
(-0.00543285 0.00588223 6.1198e-18 0.00538714 2.29385e-18 4.57006e-05)
(-0.00527075 0.00418686 -9.33394e-18 0.00520791 1.71789e-18 6.28357e-05)
(-0.0048638 0.00286883 -1.83361e-18 0.00478056 -5.7668e-18 8.32467e-05)
(-0.00429201 0.00185594 2.20279e-18 0.00418894 2.82213e-18 0.000103063)
(-0.00369074 0.00111493 -9.00397e-18 0.00356964 6.18186e-19 0.0001211)
(-0.00314693 0.000587168 3.36573e-18 0.00301124 -1.35918e-19 0.000135687)
(-0.00268532 0.000203716 -1.26576e-17 0.00253776 1.12877e-18 0.000147553)
(-0.00229626 -8.83238e-05 -1.34493e-18 0.00214089 3.7462e-19 0.00015537)
(-0.00210533 -0.000351514 1.01713e-17 0.00193352 3.98695e-19 0.000171812)
(-0.00173862 -0.000563872 9.05471e-18 0.00156975 -1.81117e-18 0.000168867)
(-0.00124597 -0.000662714 -6.75176e-18 0.00109308 5.33212e-19 0.000152882)
(-0.000918534 -0.000739568 -8.47325e-20 0.000764264 3.3513e-20 0.00015427)
(-0.000630335 -0.000739411 -5.94016e-18 0.00047544 9.93125e-19 0.000154895)
(-0.000393078 -0.000696125 -5.35197e-20 0.000231304 1.93358e-21 0.000161774)
(-0.000201342 -0.000633964 4.37468e-22 2.67811e-05 2.28936e-20 0.000174561)
(-4.7878e-05 -0.00056224 1.40736e-20 -0.000140174 -1.73057e-21 0.000188052)
(7.32826e-05 -0.000485741 1.91565e-18 -0.000273597 1.24107e-19 0.000200314)
(0.000161128 -0.000407799 -4.01091e-22 -0.000367121 -2.66013e-19 0.000205992)
(0.000215438 -0.000332549 -1.0875e-19 -0.000416935 -1.58104e-20 0.000201497)
(0.000244508 -0.000264361 -1.04863e-17 -0.000435852 -1.55647e-18 0.000191345)
(0.000261843 -0.000211011 -9.33768e-18 -0.000442787 -6.442e-19 0.000180945)
(0.000227114 -0.00014216 -1.86508e-20 -0.000369741 8.77296e-21 0.000142627)
(0.000300792 -0.000166225 -1.64619e-17 -0.000462144 -4.68555e-18 0.000161352)
(1.11082e-05 -5.52731e-06 -3.5995e-20 -1.62021e-05 2.62025e-19 5.09387e-06)
(0.017609 -0.00706094 7.15284e-19 -0.0228713 5.61256e-20 0.00526224)
(1.63154 1.04469 -1.06522e-13 -1.62074 -1.7205e-14 -0.0107997)
(0.00538122 -0.00442942 4.6777e-19 -0.0053534 5.09402e-19 -2.78132e-05)
(0.00670175 -0.00769542 -5.0527e-19 -0.00666411 -5.26975e-19 -3.76478e-05)
(0.00391839 -0.00665749 -5.16911e-21 -0.00387254 -3.69434e-20 -4.58498e-05)
(0.00205993 -0.00576533 -1.28981e-19 -0.00201727 1.01164e-19 -4.26677e-05)
(0.000724586 -0.00465954 2.98687e-18 -0.000684293 3.0936e-18 -4.02936e-05)
(-0.00014424 -0.00355858 -1.46428e-18 0.000185193 -1.78973e-18 -4.09539e-05)
(-0.000636017 -0.00265514 -7.63762e-20 0.00067522 3.17348e-19 -3.9203e-05)
(-0.000892642 -0.00196068 3.17082e-18 0.000931544 2.98341e-18 -3.89014e-05)
(-0.00104031 -0.00146424 -5.92468e-19 0.00108187 5.59992e-20 -4.1557e-05)
(-0.00116946 -0.00112721 -2.92974e-18 0.00121654 -1.95039e-18 -4.70817e-05)
(-0.00133362 -0.000884554 9.45369e-19 0.0013918 7.78693e-19 -5.81832e-05)
(-0.00152507 -0.000660746 -2.75466e-18 0.00160059 -8.97868e-19 -7.552e-05)