/*--------------------------------*- C++ -*----------------------------------*\
| =========                 |                                                 |
| \\      /  F ield         | OpenFOAM: The Open Source CFD Toolbox           |
|  \\    /   O peration     | Version:  2312                                  |
|   \\  /    A nd           | Website:  www.openfoam.com                      |
|    \\/     M anipulation  |                                                 |
\*---------------------------------------------------------------------------*/
FoamFile
{
    version     2.0;
    format      ascii;
    arch        "LSB;label=32;scalar=64";
    class       volScalarField;
    location    "500";
    object      turbulenceProperties:epsilon;
}
// * * * * * * * * * * * * * * * * * * * * * * * * * * * * * * * * * * * * * //

dimensions      [0 2 -3 0 0 0 0];

internalField   nonuniform List<scalar> 
10720
(
0.0875991
0.114385
0.156462
0.193183
0.220543
0.24898
0.286311
0.336294
0.412715
0.532421
0.721969
1.03983
1.57603
2.53402
4.57164
9.60477
23.2734
76.4368
276.984
629.589
1048.6
1652.15
2881.17
5342.08
9190.07
12412.6
13458.5
29113
50870.5
25605.4
8318.16
1301.22
276.046
31.4827
5.99025e-14
4.64045e-14
0.0127909
0.441826
3.86906
0.069757
0.0330327
0.0177947
0.0668261
0.0164008
0.0333665
0.0465515
0.0556065
0.067048
0.081473
0.104965
0.144003
0.207719
0.328957
0.563684
1.30553
3.01748
14.254
28.6527
39.7627
51.8239
76.6923
108.07
160.202
235.344
339.291
357.282
247.808
111.692
31.2469
3.59811
0.190958
0.0439213
0.0158551
0.00531835
0.00165216
3.1337e-14
52.4035
3656.8
0.00465055
0.0104725
0.00857213
0.00691757
0.00507209
0.0035647
0.00258656
0.00193595
0.00152775
0.00126051
0.00108786
0.000951004
0.00107825
0.00171403
0.00344715
0.00792273
0.0184225
0.0449253
0.171738
1.46595
8.10564
25.4193
62.1525
147.303
636.025
1473.92
5140.32
19626.8
16033.2
4244.09
1549.51
823.047
232.607
33.6385
0.783151
2.00582e-14
1.48864e-14
0.0606002
3.50868
0.00283463
7.19788e-05
0.000617477
0.00700287
0.00407205
0.00272321
0.00144633
0.001193
0.00124762
0.00133238
0.00127621
0.00105888
0.000971551
0.000920379
0.000235839
0.00550401
0.0057232
0.000310985
9.42303e-05
1.49676
0.213443
0.0513127
0.0369201
3.41291
30.6859
0.962412
0.944203
0.885219
0.539221
0.378175
0.23489
0.116931
0.0510397
0.0197451
0.0070776
0.00231755
3.46336e-05
4.19145
339.874
1.37984e-06
0.000187287
0.000441384
0.000517109
0.000607845
0.000672888
0.000741122
0.000813809
0.000885553
0.000958805
0.00102958
0.0011026
0.00118131
0.00109129
0.00149718
0.00364293
0.00756556
0.0192456
0.0535341
0.118792
0.0703965
1.07926
2.57747
6.93836
19.7452
54.1244
803.875
4810.49
6591.44
4470.29
1700.12
602.465
292.484
80.6753
7.30914
0.659239
1.59185e-14
0.0590937
1.58042
0.00231034
0.00382908
0.00446585
0.00357426
0.00171409
0.000253306
0.000267689
0.00020756
0.000233134
1.9425e-05
0.000215194
0.000411918
0.000560972
0.000721762
0.000926038
0.000965148
0.000772215
6.77629e-05
2.99979e-05
8.14471e-05
0.00331053
0.000152759
0.00830027
0.0141715
0.000182011
0.00530882
0.00682525
0.00821899
0.00571715
0.00455607
0.00292501
0.00197452
0.00121083
0.000752649
0.000440731
0.000603787
9.28577e-16
0.0561513
13.2219
0.00385046
0.00372587
0.00377223
0.00395485
0.00396581
0.00387864
0.00392914
0.00397254
0.00401649
0.00406595
0.00410572
0.00414716
0.00420562
0.00426763
0.00433164
0.00441361
0.00414492
0.0030546
0.000974885
0.000331664
3.88277e-16
2.74909e-16
2.03694e-17
0.000138932
0.000413923
147.714
1154.03
2435.5
1629.22
1080.31
608.138
231.724
31.0776
24.356
11.0581
1.29614
0.274011
0.145636
3.26925
0.00524864
0.00347639
0.00111857
0.000531557
0.000276214
0.000244656
0.000248562
0.000251093
0.000255887
0.000264323
0.000295773
0.000328364
0.000356118
0.000386711
0.000428614
0.000448878
0.000437843
9.40598e-05
0.000228938
0.000388583
0.000580002
0.000696719
0.000822439
0.000887008
0.000835897
0.000817909
0.000765866
0.000814134
0.000843414
0.000878415
0.000901842
0.00090747
0.000888778
0.000852571
0.000638634
0.00125081
2.13055e-05
0.0475747
0.766853
0.00389066
0.00347209
0.00335155
0.00325659
0.00318255
0.00312144
0.00307718
0.00305088
0.00304618
0.00306577
0.00307883
0.00315266
0.00331492
0.00342697
0.00352987
0.00371251
0.00396591
0.00426473
0.00431989
0.00186254
0.000531238
0.000212105
4.01223e-16
2.94333e-16
0.000430947
15.2108
2.295e+06
3.26903e+06
2.01866e+06
1.46457e+06
2.05576e+06
4.15172e+06
0.936586
11.0327
1.41972
1.25262
0.784302
0.144113
3.6043
0.00175258
0.00063236
0.000237306
0.000335508
0.00068032
0.00167052
0.0018902
0.00188593
0.00189596
0.00190677
0.00191121
0.00191108
0.00190879
0.0019035
0.00191778
0.0019392
0.00194053
0.00193241
0.00193035
0.00192585
0.00191577
0.0020475
0.00199779
0.0017674
0.00173003
0.00170038
0.00166948
0.00163517
0.00159563
0.00155389
0.00149816
0.00142564
0.00135018
0.00130148
0.00106601
0.00131875
2.42384e-05
0.0396391
0.177184
0.000609151
0.000898167
0.000688137
0.000551751
0.00043231
0.000332576
0.000260334
0.000211312
0.000183303
0.000175112
0.000185538
0.000210284
0.000257622
0.000332983
0.000433261
0.000568049
0.000734328
0.000994323
0.00143064
0.00188654
0.00223041
0.00116532
0.000349101
0.000187656
3.89767e-16
9.7018e-11
1.95433e-05
1.89918e-05
1.12607e-05
4.66799e-06
1.50643e-06
3.74539e-07
10079.3
52.5696
1.44067
3.19733
1.28753
1.12254
9.79944
0.000304447
0.000304294
0.000860274
0.00205122
0.00253012
0.00273038
0.00275657
0.00279041
0.00283996
0.00290496
0.00297075
0.0030389
0.0031127
0.00318304
0.00329346
0.00342229
0.00348201
0.00353416
0.00361611
0.00367078
0.00370175
0.00371401
0.00373104
0.00372901
0.00371522
0.00369234
0.0036523
0.00359666
0.00352272
0.00342801
0.00332136
0.00317766
0.00298877
0.00280625
0.00248037
0.00235968
4.69681e-05
0.0311137
1.10647
0.000233671
0.000232428
0.000239178
0.000232056
0.000234898
0.000240538
0.000244384
0.000252749
0.000263364
0.000275612
0.000291599
0.000309841
0.00033185
0.000359402
0.000391991
0.000431874
0.000479297
8.0408e-06
0.000113445
0.000372909
0.000821696
0.00128317
0.0014773
0.00100648
0.000516249
0.0853058
8.62801e-06
1.42133e-05
1.23783e-05
7.03241e-06
2.99516e-06
1.06599e-06
3.80136e-07
1.50465e-07
3.86344
21.9847
29.9735
2.67935e-09
470.117
0.000316493
0.00173196
0.0024851
0.00229526
0.00175715
0.00134027
0.00135519
0.00140453
0.00146447
0.00154407
0.00163592
0.00173999
0.00185876
0.00199353
0.00213892
0.00231334
0.00247086
0.00258894
0.00266981
0.00271612
0.00273626
0.00273747
0.00272486
0.0027041
0.00268047
0.00265136
0.00261133
0.00256391
0.00250755
0.00244065
0.00236891
0.00230223
0.00223261
0.00214787
0.00203961
0.00220387
4.54663e-05
0.0166989
0.837657
0.00108881
0.00111512
0.00123648
0.00133218
0.00141848
0.00150619
0.00158798
0.00166244
0.00173056
0.00179298
0.00185072
0.0019037
0.00195233
0.00199842
0.00204362
0.00208906
0.00213399
0.00215729
0.00224897
0.0020897
0.00181766
0.00187858
0.00207387
0.00212593
0.0023931
0.207211
1205.33
9.21104e-06
1.10939e-05
8.33689e-06
4.51029e-06
2.04059e-06
9.40477e-07
5.15221e-07
3.31454e-07
1.5977e-07
5.90682e-08
2.59856e-08
6.7843e-09
0.00231781
0.00239523
0.00145549
0.000578727
4.86212e-05
0.000188244
0.000188295
0.000195991
0.000206313
7.93935e-06
5.30194e-05
0.000107712
0.000173689
0.000252272
0.0003476
0.000453155
0.000529077
0.000578096
0.000605017
0.000616236
0.000616011
0.000608004
0.000595218
0.000582221
0.000570722
0.000559006
0.000547283
0.000536219
0.000525618
0.000515047
0.000504133
0.000505935
0.000540427
0.000599524
0.000650293
0.00102549
2.20529e-05
0.00635246
0.338091
0.00235184
0.00212382
0.0021189
0.00209795
0.00206496
0.00204712
0.00204047
0.00203704
0.0020415
0.00205818
0.00208434
0.00211646
0.00215538
0.00220508
0.00226705
0.00234244
0.00243153
0.00252543
0.00266764
0.00279653
0.00274208
0.00261719
0.0025958
0.00243924
0.00311167
0.273549
1552.59
5.42245e-06
8.69588e-06
8.41505e-06
5.66506e-06
3.11777e-06
1.70117e-06
1.04576e-06
7.24705e-07
4.26722e-07
1.97783e-07
9.84658e-08
3.52136e-08
0.00191155
0.000688583
0.000277569
9.83504e-05
7.08143e-05
7.06e-05
7.10905e-05
7.01765e-05
6.92977e-05
6.97698e-05
7.50934e-05
8.20013e-05
9.17626e-05
0.000104174
0.00012004
0.000138824
0.000154206
0.000165922
0.000174508
0.000180742
0.000185075
0.000187999
0.000190069
0.000191858
0.000193246
0.00019396
0.000194129
0.000193849
0.00019303
0.000191621
0.000189429
0.000189141
0.000192164
0.000197912
0.000209155
0.000272299
4.18351e-05
0.00140301
0.0732461
0.00116345
0.00111441
0.000988155
0.000875728
0.000796165
0.000746789
0.000710981
0.000681401
0.000662974
0.000664277
0.000677626
0.000694487
0.000721757
0.000767258
0.000830007
0.0009127
0.0010106
0.00112864
0.00134563
0.00164144
0.00188983
0.00205402
0.00220651
0.00216788
0.00276575
0.239467
1344.4
2.9763e-06
6.16502e-06
7.50847e-06
6.19645e-06
4.06387e-06
2.54036e-06
1.70013e-06
1.23751e-06
8.20788e-07
4.37509e-07
2.4126e-07
1.20048e-07
0.000218524
0.00011302
0.000115004
0.000171115
0.000461861
0.00049032
0.000485558
0.00048016
0.000474725
0.000469
0.000463076
0.000456546
0.00045307
0.000451142
0.000449327
0.000448326
0.00044749
0.00044543
0.000442723
0.000439701
0.000436508
0.000433405
0.000430967
0.000428933
0.000426259
0.000422542
0.000417416
0.000410935
0.000402809
0.00039318
0.000381529
0.000367401
0.000337262
0.000295672
0.000286576
0.000186627
0.000181605
7.68768e-05
0.00204106
0.000139668
1.57649e-05
0.000130125
0.000110892
0.000102922
0.000103642
0.000105532
0.000108673
0.00011236
0.000117507
0.000124683
0.000132068
0.000140838
0.000152899
0.000167886
0.000191907
0.000210965
0.000227704
0.000279535
0.000154534
0.000428456
0.00071777
0.00102311
0.0011827
0.00184227
0.163895
917.005
1.54355e-06
4.024e-06
6.05255e-06
6.04107e-06
4.66366e-06
3.29306e-06
2.37485e-06
1.79329e-06
1.27632e-06
7.48778e-07
4.47897e-07
2.74723e-07
6.96349e-05
1.78672e-05
0.000696486
0.00106633
0.00118059
0.00117693
0.0011712
0.0011702
0.00117278
0.00117859
0.00118702
0.00119575
0.00120737
0.00121996
0.00123068
0.0012392
0.00124263
0.00124207
0.00123842
0.00123241
0.00122462
0.00121631
0.0012079
0.00119797
0.00118535
0.00116985
0.00115112
0.0011296
0.00110464
0.00107678
0.00104554
0.00101213
0.000964992
0.000900658
0.000823576
0.000739652
0.000628249
0.000139116
0.000467147
0.000120204
8.14554e-05
9.26327e-05
9.8278e-05
0.000109978
3.551e-05
8.36248e-05
0.000125633
0.000160039
0.000187881
0.000211781
0.000231102
0.000246641
0.000260981
0.000273758
0.000318683
0.000311256
0.000264616
0.000256621
0.000236359
0.000264598
0.000362823
0.000533981
0.000626402
0.0011721
0.111724
626.887
7.62163e-07
2.44988e-06
4.47385e-06
5.32945e-06
4.79469e-06
3.79639e-06
2.94115e-06
2.33064e-06
1.73851e-06
1.09876e-06
7.04884e-07
4.94265e-07
0.000340092
0.000959377
0.00113414
0.000887206
0.000766149
0.000761458
0.000761824
0.000767599
0.000777842
0.000792123
0.000808187
0.000823421
0.000838594
0.000853601
0.000864274
0.000870778
0.000874066
0.000874675
0.000873004
0.000869458
0.00086447
0.000858444
0.000851034
0.000841871
0.000830925
0.000818399
0.000804319
0.000788949
0.000771862
0.000753414
0.000733419
0.000714916
0.000701019
0.000685352
0.000666451
0.0006344
0.000592556
0.000524437
6.52411e-05
0.000612126
0.000620931
0.000674339
0.000736519
0.000779438
0.000825165
0.000864762
0.000895679
0.000920629
0.000942101
0.000962597
0.000983132
0.0010037
0.00102489
0.00104706
0.001068
0.00108819
0.00110489
0.00111707
0.00113108
0.00103659
0.000883538
0.000844832
0.000768156
0.00105072
0.0994281
562.888
3.59932e-07
1.40308e-06
3.06496e-06
4.30255e-06
4.46742e-06
3.94546e-06
3.28287e-06
2.71325e-06
2.12909e-06
1.45211e-06
9.99756e-07
7.64732e-07
0.00105462
0.000956674
0.000481546
0.000168152
8.4819e-05
8.5055e-05
8.97572e-05
9.43233e-05
0.000100404
0.000108588
0.000115217
0.000121162
0.000125551
0.000129721
0.00013372
0.000137451
0.000140673
0.00014324
0.000145038
0.000146068
0.00014629
0.000145739
0.000144541
0.000143062
0.000141554
0.000139978
0.000138338
0.000136688
0.000134985
0.000133245
0.000131181
0.000129266
0.000136314
0.000157574
0.000186621
0.000223812
0.000262215
0.000312024
0.00021332
0.000963722
0.000825604
0.000773484
0.000751277
0.000730376
0.000715489
0.000708876
0.000704583
0.000704399
0.000710445
0.000722438
0.000739656
0.000761234
0.000786583
0.000815795
0.000848476
0.000884184
0.000922397
0.000967389
0.00101189
0.00104664
0.00104797
0.00100736
0.000904566
0.0010355
0.0857018
0.00442328
0.00284492
7.60162e-07
1.96133e-06
3.2069e-06
3.80701e-06
3.73191e-06
3.33497e-06
2.8739e-06
2.37346e-06
1.75284e-06
1.10535e-06
8.80972e-07
0.000697685
0.000201945
9.10557e-05
2.99367e-05
2.19612e-05
2.27984e-05
2.38036e-05
2.41291e-05
2.45567e-05
2.53434e-05
2.56282e-05
2.58176e-05
2.60276e-05
2.63223e-05
2.67996e-05
2.74938e-05
2.82776e-05
2.91367e-05
3.00311e-05
3.09108e-05
3.17061e-05
3.24197e-05
3.30531e-05
3.36009e-05
3.40259e-05
3.4355e-05
3.46349e-05
3.48734e-05
3.50556e-05
3.51706e-05
3.51739e-05
3.50803e-05
3.6347e-05
3.96332e-05
4.64054e-05
5.09702e-05
5.85814e-05
5.90168e-05
0.00011265
0.000345644
0.00030052
0.000234341
0.000196852
0.000165298
0.000138448
0.000122212
0.000111887
0.000106523
0.000107709
0.000114125
0.000124343
0.000137874
0.000154711
0.000176145
0.000202725
0.000231446
0.000263856
0.000299231
0.000353818
0.000453597
0.000561473
0.000644823
0.000670203
0.000801098
0.0533634
0.018898
0.0151373
3.91046e-07
1.17899e-06
2.22237e-06
2.99011e-06
3.23769e-06
3.10575e-06
2.79908e-06
2.42237e-06
1.51787e-06
1.29954e-07
7.48605e-09
1.02564e-05
3.54946e-05
5.29771e-05
4.50391e-05
6.68018e-05
6.7842e-05
6.83685e-05
6.78324e-05
6.66574e-05
6.53192e-05
6.37172e-05
6.18622e-05
6.00526e-05
5.83374e-05
5.66695e-05
5.51701e-05
5.38232e-05
5.25973e-05
5.14994e-05
5.05203e-05
4.96299e-05
4.88089e-05
4.807e-05
4.74344e-05
4.68496e-05
4.62284e-05
4.55806e-05
4.49172e-05
4.42093e-05
4.3433e-05
4.25822e-05
4.13683e-05
3.8098e-05
3.0472e-05
3.08466e-05
1.29614e-05
4.44392e-05
4.91681e-05
4.79199e-05
4.34611e-05
3.83909e-05
3.69984e-05
3.71499e-05
3.81454e-05
3.93381e-05
3.95338e-05
4.01614e-05
4.08148e-05
4.16833e-05
4.33479e-05
4.54327e-05
4.79657e-05
5.13793e-05
5.52563e-05
5.9659e-05
6.48946e-05
7.11714e-05
7.82139e-05
9.12706e-05
0.000107854
4.35668e-05
0.0001515
0.000245546
0.000382113
0.0195156
0.0246094
0.0242788
1.91435e-07
6.68394e-07
1.43987e-06
2.17876e-06
2.59342e-06
2.66777e-06
2.52068e-06
2.24304e-06
1.95878e-08
1.15766e-13
2.26463e-15
3.95682e-05
6.62784e-05
0.000330677
0.000434417
0.000435627
0.000431801
0.000428577
0.000426063
0.000423729
0.000421579
0.000419606
0.000417632
0.000415631
0.000413597
0.000411474
0.000409273
0.000406966
0.000404499
0.000401846
0.000398965
0.000395768
0.000392162
0.00038811
0.000383525
0.000378332
0.000372639
0.000366473
0.000359899
0.000352741
0.00034486
0.000336558
0.000327572
0.000317507
0.000299332
0.000273073
0.000237644
0.000196129
0.00015452
0.000128069
7.48298e-05
5.24593e-05
3.45306e-05
8.0125e-05
0.000113273
0.000142783
0.000162679
0.000176041
0.000184592
0.00018966
0.000192742
0.000194542
0.000195414
0.000197294
0.000196772
0.000193283
0.000191625
0.000191463
0.000191632
0.000207989
0.000179608
0.000133128
0.000138014
0.000167135
0.000217397
0.00639581
0.0277666
0.0334257
8.92972e-08
3.58325e-07
8.75804e-07
1.48075e-06
1.92956e-06
2.12558e-06
2.10801e-06
8.08528e-07
4.38083e-13
2.07804e-15
5.3672e-16
0.000231866
0.000455948
0.000456856
0.000413722
0.000403751
0.000398276
0.000394091
0.000391385
0.000389513
0.000388153
0.000387286
0.000386702
0.000386179
0.000385655
0.000385088
0.000384397
0.000383521
0.00038239
0.000380957
0.000379173
0.000376955
0.000374229
0.000370947
0.000367035
0.000362463
0.000357384
0.000351822
0.000345819
0.000339247
0.000331959
0.000324263
0.000316085
0.000309375
0.000301979
0.000291097
0.000275594
0.000253156
0.000215161
0.000176791
0.000352831
0.000362397
0.000387715
0.000416464
0.00043742
0.000454085
0.000463611
0.000467067
0.00046741
0.000466292
0.000464925
0.00046381
0.000462758
0.000470008
0.000467423
0.00044696
0.00044796
0.000459703
0.000459701
0.000458855
0.000439859
0.000416873
0.000362708
0.000304189
0.000272703
0.00265236
0.0332935
0.0485129
3.97121e-08
1.81966e-07
5.01648e-07
9.42692e-07
1.34039e-06
1.57953e-06
1.64536e-06
9.63951e-07
3.11673e-12
2.56139e-15
3.32659e-15
0.000478705
0.000342947
0.000150899
0.000110919
0.000106013
0.000104381
0.000103001
0.000101882
0.000101263
0.000101049
0.000101062
0.000101263
0.000101608
0.000102051
0.000102553
0.000103088
0.000103605
0.000104084
0.000104487
0.000104795
0.00010497
0.000105
0.000104879
0.000104599
0.00010413
0.000103483
0.000102649
0.00010163
0.000100403
9.89299e-05
9.75758e-05
9.56634e-05
9.4822e-05
0.000101826
0.000110902
0.000120166
0.00013395
0.000142522
0.000140659
0.000407652
0.000354822
0.000332124
0.000318959
0.000305375
0.000297289
0.000292191
0.000285781
0.000280309
0.000276889
0.00027543
0.000275525
0.000276778
0.000279057
0.000283792
0.000289071
0.000293515
0.000298721
0.000304878
0.000314916
0.000331347
0.000341824
0.000342511
0.00033648
0.000302019
0.001133
0.0340362
0.0596164
1.68405e-08
8.76412e-08
2.71225e-07
5.64151e-07
8.73225e-07
1.10032e-06
1.20588e-06
8.92602e-07
1.38949e-11
4.60168e-13
8.67566e-16
0.000225452
2.1532e-05
2.43086e-05
1.61325e-05
1.57202e-05
1.58779e-05
1.57546e-05
1.53183e-05
1.49436e-05
1.46823e-05
1.42953e-05
1.39584e-05
1.37871e-05
1.36711e-05
1.36746e-05
1.38284e-05
1.40667e-05
1.44044e-05
1.48219e-05
1.53006e-05
1.58124e-05
1.63525e-05
1.69076e-05
1.74156e-05
1.77996e-05
1.81083e-05
1.83743e-05
1.85925e-05
1.87566e-05
1.88554e-05
1.8951e-05
1.89149e-05
1.90672e-05
2.08069e-05
2.30099e-05
2.57547e-05
1.2575e-05
4.20698e-05
6.86577e-05
0.000108729
0.000103058
6.67194e-05
4.24843e-05
2.53563e-05
1.43452e-05
9.78868e-06
6.73085e-06
4.25374e-06
3.54571e-06
4.20203e-06
5.5921e-06
7.56544e-06
1.01048e-05
1.32646e-05
1.70151e-05
2.15249e-05
2.68946e-05
3.29486e-05
4.05609e-05
5.8792e-05
9.15823e-05
0.000134673
0.000176208
0.000191092
0.000449001
0.0263953
0.0552371
6.81091e-09
4.00703e-08
1.3869e-07
3.18309e-07
5.3557e-07
7.21859e-07
8.34085e-07
7.34649e-07
4.73437e-11
4.0328e-17
5.33024e-16
4.20256e-05
9.94539e-06
2.41122e-05
2.45676e-05
2.48918e-05
2.52552e-05
2.509e-05
2.43488e-05
2.35817e-05
2.2914e-05
2.20059e-05
2.11426e-05
2.05283e-05
1.9984e-05
1.96199e-05
1.94823e-05
1.94755e-05
1.96191e-05
1.98878e-05
2.02526e-05
2.0673e-05
2.11443e-05
2.16426e-05
2.20731e-05
2.23266e-05
2.2478e-05
2.25903e-05
2.26574e-05
2.26748e-05
2.26275e-05
2.26057e-05
2.24777e-05
2.22308e-05
2.12707e-05
1.92994e-05
1.65137e-05
1.64192e-05
1.88957e-05
1.231e-05
1.44812e-05
1.48537e-05
1.37733e-05
1.23478e-05
1.18484e-05
1.17981e-05
1.19014e-05
1.2182e-05
1.23779e-05
1.25919e-05
1.30206e-05
1.34979e-05
1.4016e-05
1.4644e-05
1.53577e-05
1.61625e-05
1.70771e-05
1.81296e-05
1.931e-05
2.07221e-05
2.33082e-05
2.80106e-05
3.33397e-05
1.22594e-05
4.26421e-05
0.00015296
0.0141314
0.0351428
2.62779e-09
1.74093e-08
6.7194e-08
1.69783e-07
3.10326e-07
4.4779e-07
5.46969e-07
5.43266e-07
1.29926e-10
2.97302e-15
1.47916e-15
2.46741e-05
5.23729e-05
0.000161161
0.000163711
0.000162712
0.000160856
0.00015895
0.000157147
0.000155379
0.00015371
0.000152215
0.000150799
0.00014944
0.000148145
0.000146875
0.000145607
0.000144326
0.000143
0.000141618
0.000140166
0.000138618
0.000136942
0.000135122
0.000133166
0.000131073
0.000128862
0.000126544
0.000124113
0.000121564
0.000118853
0.000116446
0.000113655
0.000110425
0.000103894
9.27734e-05
7.81935e-05
6.41707e-05
4.34802e-05
3.33373e-05
4.35396e-05
6.73954e-06
2.80118e-05
4.54472e-05
5.77158e-05
6.70118e-05
7.35772e-05
7.87604e-05
8.28241e-05
8.58512e-05
8.82317e-05
9.00751e-05
9.14108e-05
9.23529e-05
9.29877e-05
9.32795e-05
9.32222e-05
9.29141e-05
9.24826e-05
9.17351e-05
8.76212e-05
8.18514e-05
6.27569e-05
4.67827e-05
4.20955e-05
9.37342e-05
0.0110699
0.0325575
9.67486e-10
7.19421e-09
3.08991e-08
8.58298e-08
1.70416e-07
2.63655e-07
3.415e-07
3.72149e-07
3.04385e-10
1.01834e-14
6.97361e-16
0.00013763
0.000230834
0.000251283
0.000240653
0.000237022
0.000233786
0.000230861
0.000228363
0.000226134
0.000224088
0.000222254
0.000220568
0.00021898
0.000217475
0.000216026
0.000214596
0.000213164
0.000211701
0.000210177
0.00020857
0.000206832
0.000204896
0.000202707
0.000200236
0.000197469
0.000194447
0.000191196
0.000187712
0.000184001
0.000180032
0.000175745
0.000171165
0.000166775
0.000161806
0.00015338
0.000142318
0.000127055
0.000100321
7.74053e-05
0.0001946
0.000192822
0.000205286
0.000218142
0.00022558
0.000230078
0.000232946
0.00023477
0.000235968
0.000236583
0.00023671
0.000236398
0.000235647
0.000234635
0.00023351
0.000232188
0.000230569
0.000228812
0.000227049
0.000225086
0.000222257
0.00021113
0.000190788
0.000172161
0.000137968
0.00013383
0.0145801
0.0510216
3.40063e-10
2.83103e-09
1.35069e-08
4.12148e-08
8.89475e-08
1.47881e-07
2.03775e-07
2.40065e-07
6.29495e-10
1.10409e-13
4.05592e-15
0.000241534
0.000181365
0.000115292
0.000102927
0.000100355
9.90419e-05
9.79343e-05
9.70212e-05
9.62781e-05
9.56164e-05
9.5032e-05
9.4531e-05
9.40786e-05
9.36591e-05
9.327e-05
9.28865e-05
9.24984e-05
9.20931e-05
9.16547e-05
9.11733e-05
9.06278e-05
8.99849e-05
8.92228e-05
8.83322e-05
8.72989e-05
8.61411e-05
8.48884e-05
8.3515e-05
8.20392e-05
8.04485e-05
7.87151e-05
7.68162e-05
7.50901e-05
7.5206e-05
7.7739e-05
8.14164e-05
8.38898e-05
8.20689e-05
7.52935e-05
0.000207555
0.000188748
0.000180379
0.00017653
0.000170051
0.000162936
0.000157394
0.000152543
0.000148419
0.000145081
0.000142323
0.000140131
0.000138467
0.000137254
0.000136464
0.00013597
0.00013565
0.000135572
0.000135815
0.00013629
0.000138954
0.000145512
0.000148942
0.000151286
0.000143087
0.0001446
0.0125505
0.000899154
0.00126011
1.06176e-09
5.61935e-09
1.88406e-08
4.42343e-08
7.92336e-08
1.16551e-07
1.47563e-07
1.17556e-09
6.31875e-13
2.41604e-14
0.000106342
2.40855e-05
1.99138e-05
1.54499e-05
1.53442e-05
1.55288e-05
1.5424e-05
1.49745e-05
1.45237e-05
1.41254e-05
1.35526e-05
1.29938e-05
1.25854e-05
1.22067e-05
1.19417e-05
1.18322e-05
1.18122e-05
1.19069e-05
1.20996e-05
1.23733e-05
1.27054e-05
1.30856e-05
1.34998e-05
1.38672e-05
1.41013e-05
1.42579e-05
1.43923e-05
1.4496e-05
1.45684e-05
1.4606e-05
1.46014e-05
1.45449e-05
1.44998e-05
1.47993e-05
1.57772e-05
4.14021e-06
1.67871e-05
3.1884e-05
4.14966e-05
5.12441e-05
5.34343e-05
3.89237e-05
3.01368e-05
2.35922e-05
1.76256e-05
1.28023e-05
8.96983e-06
5.88789e-06
3.53166e-06
1.8254e-06
7.47988e-07
2.88962e-07
2.88331e-07
6.31641e-07
1.25901e-06
2.14832e-06
3.3032e-06
4.73072e-06
6.1809e-06
8.38902e-06
1.83377e-05
3.40885e-05
5.39313e-05
7.00476e-05
9.0973e-05
0.00560888
0.00276696
0.0045068
3.79621e-10
2.22769e-09
8.20853e-09
2.10017e-08
4.06472e-08
6.40539e-08
8.70455e-08
2.00416e-09
2.98198e-12
1.19617e-13
2.00805e-05
5.53558e-06
7.48838e-06
7.24628e-06
7.3029e-06
7.33705e-06
7.19204e-06
6.8681e-06
6.543e-06
6.26021e-06
5.90671e-06
5.56446e-06
5.29963e-06
5.05637e-06
4.8681e-06
4.7537e-06
4.68319e-06
4.66591e-06
4.69602e-06
4.76508e-06
4.86353e-06
4.98681e-06
5.13123e-06
5.26168e-06
5.33523e-06
5.37562e-06
5.40763e-06
5.43074e-06
5.44419e-06
5.44642e-06
5.4357e-06
5.41002e-06
5.35707e-06
5.19168e-06
4.6117e-06
4.54776e-06
6.17222e-06
8.43092e-06
7.85647e-06
7.04319e-06
7.44136e-06
6.1599e-06
5.03984e-06
4.48303e-06
4.07773e-06
3.6824e-06
3.47154e-06
3.34426e-06
3.24806e-06
3.20279e-06
3.18661e-06
3.21953e-06
3.30746e-06
3.42992e-06
3.5866e-06
3.77281e-06
3.9924e-06
4.24877e-06
4.50013e-06
4.82884e-06
5.96159e-06
8.08341e-06
1.00361e-05
1.34644e-05
2.05433e-05
0.00107335
0.00288726
0.00545255
1.2952e-10
8.41918e-10
3.41317e-09
9.53078e-09
1.99863e-08
3.38791e-08
4.94616e-08
3.09961e-09
1.21746e-11
3.2414e-15
1.18502e-05
1.61764e-05
4.88981e-05
4.72952e-05
4.68601e-05
4.59445e-05
4.48704e-05
4.37727e-05
4.27318e-05
4.1819e-05
4.09931e-05
4.02211e-05
3.95324e-05
3.8913e-05
3.83392e-05
3.78135e-05
3.73288e-05
3.68669e-05
3.64267e-05
3.59983e-05
3.55726e-05
3.51312e-05
3.46682e-05
3.41877e-05
3.36686e-05
3.30996e-05
3.24941e-05
3.18601e-05
3.11994e-05
3.05134e-05
2.97953e-05
2.9038e-05
2.81769e-05
2.67777e-05
2.33432e-05
1.84503e-05
1.33004e-05
6.96308e-06
7.94419e-06
2.43139e-05
1.63486e-05
2.46742e-06
5.15428e-06
7.45953e-06
1.02418e-05
1.28333e-05
1.52899e-05
1.75876e-05
1.95507e-05
2.10046e-05
2.20275e-05
2.27544e-05
2.3284e-05
2.36748e-05
2.393e-05
2.40612e-05
2.40847e-05
2.40267e-05
2.386e-05
2.34267e-05
2.05142e-05
1.80683e-05
1.02964e-05
3.39241e-06
5.41849e-06
0.000185316
0.00244097
0.00644183
4.22046e-11
3.03637e-10
1.35492e-09
4.13729e-09
9.42893e-09
1.72524e-08
2.71248e-08
4.21603e-09
4.22717e-11
4.03548e-14
7.26553e-05
0.000120425
0.000134978
0.000129966
0.000127778
0.0001257
0.00012353
0.000121501
0.00011964
0.000117952
0.000116427
0.000115029
0.000113762
0.000112606
0.000111521
0.000110497
0.000109509
0.000108524
0.000107527
0.000106498
0.000105408
0.000104217
0.000102899
0.000101453
9.98691e-05
9.81479e-05
9.63267e-05
9.44139e-05
9.24127e-05
9.03289e-05
8.81425e-05
8.58454e-05
8.34237e-05
8.093e-05
7.64703e-05
6.98043e-05
6.03113e-05
4.9378e-05
3.60527e-05
0.000114909
0.000113593
0.000116417
0.000117212
0.000116694
0.000116634
0.000116746
0.000116857
0.000117045
0.00011733
0.000117318
0.000117058
0.00011671
0.000116294
0.000115783
0.000115114
0.00011424
0.000113211
0.000112089
0.000110817
0.000109389
0.000105582
9.76786e-05
8.59452e-05
7.28318e-05
6.11467e-05
0.000140511
0.00302548
0.00185992
0.00212818
1.046e-10
5.14177e-10
1.71899e-09
4.26934e-09
8.46146e-09
1.43637e-08
4.78374e-09
1.18472e-10
2.56878e-13
0.000147808
0.00011601
9.1044e-05
8.87531e-05
8.6792e-05
8.5682e-05
8.46576e-05
8.37349e-05
8.28939e-05
8.20779e-05
8.13268e-05
8.06545e-05
8.0025e-05
7.94389e-05
7.88924e-05
7.83564e-05
7.78161e-05
7.72596e-05
7.66636e-05
7.60213e-05
7.53102e-05
7.45043e-05
7.35843e-05
7.25388e-05
7.13947e-05
7.01761e-05
6.88952e-05
6.75448e-05
6.61287e-05
6.46514e-05
6.31051e-05
6.14773e-05
5.97493e-05
5.85011e-05
5.81718e-05
5.75483e-05
5.55651e-05
5.12508e-05
4.33502e-05
0.000138949
0.000127954
0.000122966
0.000118567
0.000114729
0.000112003
0.000109993
0.000108226
0.000106744
0.000105691
0.000104497
0.000103145
0.000102012
0.000100983
9.99847e-05
9.89667e-05
9.78962e-05
9.68262e-05
9.58202e-05
9.48353e-05
9.43008e-05
9.47854e-05
9.45623e-05
9.20055e-05
8.78083e-05
8.10202e-05
9.56395e-05
0.00174036
0.00414416
0.00557878
3.44701e-11
1.867e-10
6.84509e-10
1.85585e-09
3.99703e-09
7.34598e-09
4.37376e-09
2.568e-10
1.20656e-12
8.33623e-05
2.96709e-05
9.02769e-06
9.60148e-06
9.30766e-06
9.52339e-06
9.77302e-06
9.86653e-06
9.89744e-06
9.88616e-06
9.81536e-06
9.71666e-06
9.61218e-06
9.50354e-06
9.40332e-06
9.30771e-06
9.21963e-06
9.13717e-06
9.06467e-06
9.00072e-06
8.94953e-06
8.91067e-06
8.88589e-06
8.86919e-06
8.85312e-06
8.83173e-06
8.8037e-06
8.76069e-06
8.70046e-06
8.62139e-06
8.517e-06
8.38881e-06
8.1714e-06
8.10962e-06
1.01931e-05
1.42135e-05
1.97744e-05
2.52658e-05
2.72161e-05
4.05176e-05
3.75085e-05
2.73696e-05
2.78483e-05
2.84201e-05
2.79477e-05
2.69878e-05
2.59099e-05
2.49182e-05
2.40354e-05
2.33235e-05
2.26766e-05
2.21145e-05
2.16307e-05
2.1217e-05
2.0877e-05
2.06234e-05
2.04813e-05
2.04665e-05
2.0535e-05
2.07778e-05
2.31575e-05
2.92303e-05
3.64927e-05
4.39431e-05
4.99883e-05
5.56973e-05
0.000465917
0.00355688
0.000254007
0.000199653
6.49675e-11
2.61523e-10
7.75611e-10
1.81942e-09
3.62974e-09
3.28496e-09
4.29101e-10
4.32087e-12
1.5899e-05
4.13792e-06
1.38737e-06
1.47503e-06
1.4526e-06
1.52048e-06
1.56336e-06
1.54161e-06
1.50504e-06
1.46483e-06
1.39297e-06
1.31554e-06
1.25167e-06
1.18851e-06
1.13765e-06
1.10458e-06
1.08235e-06
1.07445e-06
1.08042e-06
1.09895e-06
1.12826e-06
1.16876e-06
1.21999e-06
1.27087e-06
1.30785e-06
1.33741e-06
1.36702e-06
1.39493e-06
1.42039e-06
1.44246e-06
1.45954e-06
1.47178e-06
1.46704e-06
1.48877e-06
1.91251e-06
2.72424e-06
3.89568e-06
5.02889e-07
7.9281e-06
5.67515e-06
5.31575e-06
4.13787e-06
4.0246e-06
4.13825e-06
4.10996e-06
3.87885e-06
3.69457e-06
3.52238e-06
3.34003e-06
3.21755e-06
3.10638e-06
3.01305e-06
2.94897e-06
2.89913e-06
2.86877e-06
2.85563e-06
2.86258e-06
2.89006e-06
2.9304e-06
2.9946e-06
3.36222e-06
4.26655e-06
5.33512e-06
7.4064e-06
9.25927e-06
1.8269e-05
8.02854e-05
0.00140779
0.000997466
0.000892813
2.17219e-11
9.60715e-11
3.1204e-10
7.9908e-10
1.73433e-09
2.12203e-09
5.59983e-10
1.19852e-11
3.23669e-06
7.83977e-06
9.56208e-06
9.07138e-06
9.12356e-06
9.21209e-06
9.04745e-06
8.64192e-06
8.22373e-06
7.84492e-06
7.36458e-06
6.8908e-06
6.50841e-06
6.14053e-06
5.83842e-06
5.63344e-06
5.48338e-06
5.40934e-06
5.40373e-06
5.45924e-06
5.5615e-06
5.70913e-06
5.89605e-06
6.06245e-06
6.1407e-06
6.17431e-06
6.2045e-06
6.22934e-06
6.24641e-06
6.25343e-06
6.24845e-06
6.23177e-06
6.20125e-06
6.16109e-06
5.95731e-06
5.47802e-06
4.67774e-06
3.91617e-06
4.35405e-06
8.70543e-06
5.72652e-06
6.36923e-06
6.12095e-06
6.34252e-06
6.58468e-06
6.58595e-06
6.65745e-06
6.69596e-06
6.64503e-06
6.63317e-06
6.60172e-06
6.56045e-06
6.54594e-06
6.52785e-06
6.51598e-06
6.50121e-06
6.48415e-06
6.46271e-06
6.43426e-06
6.38804e-06
6.29578e-06
5.82483e-06
5.05604e-06
4.22835e-06
4.97237e-06
6.02343e-06
7.39558e-06
0.00025166
0.000945281
0.0012407
6.99132e-12
3.40123e-11
1.21111e-10
3.39143e-10
8.02228e-10
1.22973e-09
5.78866e-10
2.59677e-11
2.29354e-05
5.50829e-05
6.08879e-05
5.77703e-05
5.71739e-05
5.64073e-05
5.52821e-05
5.40803e-05
5.29208e-05
5.18634e-05
5.09359e-05
5.01115e-05
4.93765e-05
4.8721e-05
4.81196e-05
4.75578e-05
4.70219e-05
4.64944e-05
4.59654e-05
4.54241e-05
4.4859e-05
4.42546e-05
4.36002e-05
4.29031e-05
4.2175e-05
4.14158e-05
4.06315e-05
3.98204e-05
3.89744e-05
3.80966e-05
3.71786e-05
3.62234e-05
3.52298e-05
3.42201e-05
3.23576e-05
2.91018e-05
2.43198e-05
1.94118e-05
1.39005e-05
4.31267e-05
3.96364e-05
4.12735e-05
4.14828e-05
4.26433e-05
4.38293e-05
4.48855e-05
4.57685e-05
4.64809e-05
4.69849e-05
4.7298e-05
4.7454e-05
4.74761e-05
4.73923e-05
4.72124e-05
4.69268e-05
4.65269e-05
4.60332e-05
4.54778e-05
4.48696e-05
4.42015e-05
4.33592e-05
4.00207e-05
3.4803e-05
2.89392e-05
2.41577e-05
1.81208e-05
1.40884e-05
8.35622e-05
0.000889171
0.000479045
0.00037733
1.16284e-11
4.54504e-11
1.39363e-10
3.5985e-10
6.58778e-10