/*--------------------------------*- C++ -*----------------------------------*\
| =========                 |                                                 |
| \\      /  F ield         | OpenFOAM: The Open Source CFD Toolbox           |
|  \\    /   O peration     | Version:  2312                                  |
|   \\  /    A nd           | Website:  www.openfoam.com                      |
|    \\/     M anipulation  |                                                 |
\*---------------------------------------------------------------------------*/
FoamFile
{
    version     2.0;
    format      ascii;
    arch        "LSB;label=32;scalar=64";
    class       volSymmTensorField;
    location    "500";
    object      turbulenceProperties:R;
}
// * * * * * * * * * * * * * * * * * * * * * * * * * * * * * * * * * * * * * //

dimensions      [0 2 -2 0 0 0 0];

internalField   nonuniform List<symmTensor> 
10720
(
(0.0214684 0.00907684 -7.22859e-21 0.0137312 -1.3638e-19 0.0180243)
(0.0233056 0.0130829 7.47846e-21 0.0096208 1.79259e-19 0.01684)
(0.0304022 0.0168079 4.53783e-20 0.00679243 1.9302e-19 0.0194885)
(0.0369598 0.017407 2.48368e-19 0.00608628 1.74751e-18 0.0225374)
(0.0423706 0.0150208 -6.87852e-19 0.00860252 -2.65429e-18 0.0263518)
(0.0484664 0.0121128 -6.19534e-19 0.0124113 -1.24978e-18 0.0314083)
(0.0564577 0.0098241 1.61747e-19 0.0169733 1.31992e-20 0.0376805)
(0.0671367 0.00777036 7.54816e-20 0.0220818 1.1935e-19 0.0455969)
(0.0820098 0.00548154 1.80131e-19 0.0280445 -1.45503e-19 0.0561847)
(0.102976 0.00248255 -2.79278e-20 0.0360071 -2.80197e-20 0.0708357)
(0.133188 -0.00214237 3.22987e-18 0.0475623 1.34565e-18 0.0920282)
(0.180164 -0.00976759 -7.94817e-19 0.0661451 -6.10339e-19 0.12529)
(0.254152 -0.022998 1.78071e-18 0.0966524 -2.67301e-18 0.178256)
(0.378382 -0.0475102 9.96047e-19 0.150371 2.15739e-18 0.268443)
(0.617321 -0.0985405 1.99794e-18 0.258753 -3.54215e-18 0.444444)
(1.09623 -0.210924 8.32371e-19 0.488355 1.65109e-17 0.80328)
(2.0038 -0.449514 1.12699e-16 0.954959 5.78225e-17 1.49928)
(4.1879 -1.0681 -3.84064e-17 2.14455 5.89153e-17 3.20701)
(8.11738 -2.31423 -2.58056e-17 4.48594 -3.69721e-16 6.38055)
(13.0411 -4.09856 2.33219e-17 7.80224 -7.14665e-19 10.5453)
(20.033 -6.87304 -5.33297e-16 13.0292 -3.77335e-16 16.7187)
(32.8556 -12.2024 1.17365e-15 23.3104 1.67411e-15 28.3895)
(60.6635 -24.1841 -7.91209e-16 47.0367 -1.98169e-15 54.4457)
(116.801 -49.3771 9.53399e-16 98.4727 2.10506e-16 108.817)
(200.799 -88.4325 -2.97266e-16 180.984 -1.46605e-17 192.402)
(277.214 -125.173 9.48305e-17 260.956 -2.03827e-15 271.217)
(549.221 -253.029 6.92177e-16 536.386 -2.15662e-16 547.666)
(880.706 -414.722 8.06444e-16 901.461 1.46303e-15 894.383)
(602.623 -284.471 1.69073e-14 650.915 4.53875e-16 624.448)
(254.211 -99.7739 9.36208e-15 280.278 4.6917e-15 266.212)
(79.0517 -29.1371 -3.08273e-15 88.6534 -7.11365e-16 83.6806)
(10.6599 -3.20074 -5.72851e-16 11.9076 -2.64413e-16 11.2743)
(2.173 -0.581944 -2.7205e-17 2.42444 -1.01612e-16 2.29846)
(0.280967 -0.0737381 -2.13081e-17 0.31407 -2.40768e-17 0.29762)
(6.3648e-16 -1.3504e-16 1.53358e-32 6.96896e-16 4.88484e-32 6.66624e-16)
(6.561e-16 -6.3092e-17 7.10488e-33 6.7777e-16 6.80008e-32 6.6613e-16)
(0.000306783 4.80144e-05 6.45116e-21 0.000274126 -1.35788e-21 0.000291738)
(0.0161913 -0.00848306 -1.1516e-18 0.0255535 1.30637e-17 0.0205463)
(0.257728 -0.0898815 -1.11067e-16 0.50048 -3.57759e-16 0.327371)
(0.0250789 0.00991255 4.34762e-21 0.0192124 -1.31057e-20 0.0223367)
(0.0216343 0.00898616 -2.61497e-20 0.0177162 2.77296e-20 0.0200309)
(0.014899 0.00655151 -1.12473e-19 0.013374 -8.06463e-20 0.0142919)
(0.0105716 0.0123361 3.20689e-19 0.00994063 -4.0897e-19 0.0105107)
(0.00757678 0.0036165 -1.63992e-19 0.0078629 -5.61188e-20 0.00776062)
(0.0122457 0.00585211 -1.62045e-18 0.012883 2.04736e-18 0.0124806)
(0.0143135 0.00669705 1.26045e-18 0.0140761 2.57548e-18 0.01374)
(0.01628 0.00704099 1.02975e-19 0.0131167 -5.13111e-18 0.0140462)
(0.0197982 0.00720529 2.16154e-18 0.0122067 -1.18615e-19 0.0157062)
(0.0236235 0.00732516 -1.22413e-18 0.0122897 -3.652e-19 0.0179991)
(0.0286118 0.00818156 8.53015e-19 0.0140403 2.04552e-18 0.0214857)
(0.0358926 0.010097 1.46311e-18 0.0177978 -7.02808e-19 0.0270481)
(0.0469042 0.0134095 -1.3295e-18 0.0243627 -2.37717e-19 0.0359095)
(0.0667137 0.0196082 2.88149e-19 0.0367165 3.44756e-19 0.0521157)
(0.0959876 0.0294943 4.09774e-18 0.0551869 5.48961e-19 0.076119)
(0.163615 0.0527999 4.5719e-18 0.0978196 -1.02248e-18 0.131589)
(0.236881 0.0896168 2.14764e-18 0.135961 2.96036e-18 0.187732)
(0.598016 0.283771 2.47796e-18 0.308784 6.40571e-18 0.457167)
(0.817585 0.328977 2.3929e-18 0.513388 -1.34052e-18 0.669381)
(1.01247 0.40276 3.34852e-18 0.675497 1.88704e-19 0.848441)
(1.3019 0.547258 -4.29446e-18 0.889457 -2.59354e-17 1.10138)
(1.93043 0.838778 -1.44774e-17 1.36842 -1.35041e-19 1.65806)
(2.6489 1.09142 1.00673e-17 2.01306 1.41108e-17 2.34222)
(3.67383 1.51851 4.46037e-18 2.93622 -2.79248e-19 3.32216)
(4.8526 2.05544 1.59859e-16 4.06473 -2.30093e-17 4.48342)
(6.07894 2.64948 1.88346e-19 5.32683 -5.06608e-18 5.73399)
(5.44534 2.21621 -3.25081e-20 5.02913 -1.19815e-18 5.2621)
(3.26126 1.20849 -9.84559e-20 3.1445 3.02478e-21 3.21576)
(1.32016 0.456451 1.36501e-19 1.31533 1.84858e-21 1.32241)
(0.347419 0.11614 2.83872e-18 0.355652 -2.18106e-19 0.352683)
(0.0395943 0.0133735 -2.07036e-20 0.0415765 -1.03267e-21 0.0407136)
(0.00217763 0.000775535 -3.31322e-21 0.00234949 9.44213e-21 0.00227073)
(0.000537684 0.000208951 -3.23386e-20 0.000598537 -4.57047e-21 0.000569957)
(0.000213283 9.26224e-05 -2.51943e-20 0.000246359 6.08996e-21 0.000230593)
(7.93548e-05 3.88424e-05 1.00013e-20 9.56636e-05 3.9211e-22 8.78141e-05)
(2.73814e-05 1.51067e-05 -1.5383e-23 3.46427e-05 -3.80171e-22 3.11258e-05)
(5.70698e-16 3.47062e-16 -1.20278e-33 7.61187e-16 1.38857e-32 6.68115e-16)
(1.01234 0.662545 1.44147e-18 1.42515 -1.60065e-17 1.2331)
(78.5962 40.9865 -1.42622e-14 109.746 -2.45148e-15 94.5453)
(0.00693883 -0.00394258 -3.56775e-20 -0.00290768 -1.06843e-19 0.00128146)
(0.0112472 -0.00830144 1.01995e-19 -0.00325684 2.53571e-19 0.00252484)
(0.0108498 -0.0118451 5.6282e-21 -0.00232716 3.69829e-21 0.00205258)
(0.00712542 -0.0088091 1.94273e-19 0.0012665 2.66762e-20 0.00240057)
(0.00466328 -0.00525417 1.06647e-19 0.00315229 7.33301e-19 0.00272261)
(0.00345759 -0.00309101 3.52435e-19 0.00369636 6.24958e-19 0.00277576)
(0.00287819 -0.00201341 -1.18028e-19 0.00370096 1.91027e-20 0.00267156)
(0.00249749 -0.00144773 -8.34921e-20 0.00354523 -2.3025e-20 0.00248827)
(0.00223547 -0.00112946 -4.64367e-19 0.00340618 -5.08926e-19 0.00231414)
(0.00206052 -0.000930501 -1.47399e-19 0.00328918 -5.04901e-20 0.00216391)
(0.0019719 -0.000803102 -1.40098e-18 0.00322988 -1.35563e-18 0.00206339)
(0.00190257 -0.000710947 -1.72403e-20 0.00313246 2.28121e-19 0.00195451)
(0.00239634 -0.00084272 -9.75719e-19 0.0038523 1.71548e-20 0.00238092)
(0.00426312 -0.00146887 1.18925e-18 0.00653452 7.02545e-19 0.00404133)
(0.00967356 -0.0033652 -5.42082e-18 0.0136569 -1.59214e-18 0.00862516)
(0.0251768 -0.00898085 2.86316e-17 0.0313987 6.90884e-18 0.0209381)
(0.0647073 -0.0235952 -5.88648e-17 0.0692648 -4.95029e-17 0.0508895)
(0.180391 -0.0661869 -1.2799e-16 0.167043 -4.7317e-17 0.138419)
(0.497238 -0.182303 -3.09313e-16 0.413499 1.25483e-16 0.383061)
(1.19293 -0.439229 6.48011e-17 0.933926 -5.06641e-20 0.937372)
(2.46108 -0.920324 5.3736e-16 1.88948 6.14903e-16 1.98579)
(4.56465 -1.74745 -8.96634e-16 3.53738 -1.5881e-15 3.77905)
(7.89834 -3.10197 7.92037e-17 6.29505 1.6981e-15 6.66426)
(13.7788 -5.49386 2.80624e-17 11.2629 -5.09744e-16 11.7018)
(42.4652 -13.3344 -0 36.764 -0 37.6219)
(66.1179 -10.5545 -3.26439e-17 64.6016 5.91043e-16 63.0487)
(187.872 -12.8279 -1.06339e-15 193.153 2.5091e-16 184.495)
(382.637 -7.47897 -1.03328e-16 383.997 -9.18711e-16 380.496)
(324.712 -4.78669 -1.24458e-14 316.964 -5.72646e-15 323.216)
(198.999 -4.73149 -5.94173e-16 186.718 -2.25106e-14 197.17)
(93.8765 -2.96166 9.49404e-16 89.0348 1.41498e-14 93.0872)
(33.7271 -1.45313 2.33864e-16 33.3159 6.70233e-15 33.7961)
(9.0786 -0.817275 -1.40211e-15 9.29327 1.26556e-15 9.21698)
(1.27454 -0.276484 4.61443e-16 1.37342 7.38605e-16 1.32437)
(0.023989 -0.00870792 -3.75376e-19 0.0272237 -3.92269e-18 0.0255793)
(6.20494e-16 -2.6938e-16 1.66232e-31 7.19848e-16 -8.15645e-32 6.59658e-16)
(6.04234e-16 -1.95366e-16 -2.21566e-32 7.2609e-16 4.53221e-33 6.69676e-16)
(0.00439259 -0.0010466 -3.85269e-19 0.00553041 -8.36898e-18 0.00515807)
(0.415168 -0.00993245 2.25982e-16 0.383432 4.76517e-16 0.426979)
(0.00540056 -0.00134693 2.01774e-20 0.000269268 5.93344e-20 0.00255075)
(0.000653735 -6.18309e-05 -7.00835e-22 0.00025584 -2.15159e-20 0.000435639)
(0.00687235 -0.00018233 -1.49708e-19 0.00256116 -3.85549e-19 0.00455987)
(0.0106436 0.000629373 7.27358e-20 0.00311016 1.14663e-18 0.00668131)
(0.0109194 0.00149996 6.30854e-19 0.00445853 -5.88201e-19 0.00760483)
(0.00828806 0.00189379 -1.81897e-19 0.00400579 -7.65503e-19 0.00614756)
(0.00419985 0.00133377 2.8972e-19 0.00253233 -1.0755e-18 0.00339394)
(0.00327138 0.00128596 -7.97077e-19 0.00246948 -5.80867e-20 0.0029218)
(0.00313509 0.00144087 -5.33971e-19 0.00302137 1.11752e-18 0.00313879)
(0.00297571 0.00152005 -2.3492e-19 0.00374339 -3.19134e-20 0.00339037)
(0.00256942 0.00134287 -2.32145e-19 0.00408323 -7.90576e-19 0.00329008)
(0.0020049 0.000988472 4.20147e-20 0.003775 -3.93133e-19 0.00279448)
(0.00181984 0.000795743 3.22655e-19 0.00382856 8.31508e-19 0.00267249)
(0.00179143 0.000670053 -3.85862e-19 0.00402459 -2.16116e-19 0.00269557)
(0.000489445 0.00017014 -7.26408e-20 0.00119536 -2.53533e-19 0.000761184)
(0.0141764 0.00391771 -9.34488e-18 0.0332575 -2.02312e-18 0.0211443)
(0.0209907 0.00526687 -2.45019e-18 0.0490894 8.5486e-20 0.0306962)
(0.00239005 0.000573939 -1.92199e-20 0.00552785 -1.79119e-19 0.00341566)
(0.080291 0.0192214 -9.81228e-18 0.182885 6.06386e-18 0.11205)
(0.149928 0.00624207 5.53398e-18 0.181571 -1.82992e-18 0.159185)
(0.0210211 0.000817071 -5.57386e-18 0.0249191 3.34626e-18 0.0220878)
(0.227523 0.0581038 -8.08016e-17 0.486358 1.54385e-17 0.29219)
(0.0354631 0.00900729 1.0716e-18 0.074315 -9.36102e-18 0.0443095)
(0.08189 0.0006504 4.64896e-18 0.0845934 -2.69749e-20 0.0824025)
(0.937894 0.010704 -6.15561e-17 0.975634 5.497e-18 0.94321)
(0.0324889 0.000492723 -2.1564e-18 0.0338406 2.49384e-19 0.0326237)
(0.0393064 0.00089809 -1.4993e-20 0.0411833 2.41603e-20 0.0394444)
(0.0409526 0.00125336 2.76796e-22 0.0430305 1.44822e-20 0.04109)
(0.0245263 0.000914371 -8.21427e-22 0.0257535 -1.11618e-23 0.0246243)
(0.0190963 0.00101345 2.39458e-20 0.0202097 1.26718e-19 0.0192169)
(0.0114904 0.000763177 3.00417e-21 0.0121916 -5.9696e-20 0.0115948)
(0.0056456 0.000478363 3.44916e-20 0.00602535 -9.51182e-20 0.00572106)
(0.00247255 0.000270304 1.06693e-18 0.00266527 4.90256e-20 0.0025215)
(0.000983874 0.000141757 3.84654e-19 0.00107808 -1.41995e-19 0.00101297)
(0.000367025 7.06653e-05 -1.36483e-19 0.000412309 1.25559e-20 0.000383333)
(0.000126597 3.33203e-05 5.17943e-20 0.00014778 6.39455e-21 0.000135032)
(2.01141e-06 7.31653e-07 -1.68228e-21 2.4811e-06 -2.35902e-22 2.22254e-06)
(0.258419 0.128392 -2.35752e-16 0.360682 -2.53002e-17 0.29596)
(21.2415 3.55612 -1.37606e-14 23.681 -2.73444e-15 22.175)
(2.55338e-05 -1.97565e-05 -9.97805e-23 -2.16613e-05 -2.99316e-22 4.30681e-06)
(0.00166856 -0.00176089 -1.69255e-19 -0.00113451 -3.77258e-19 0.000480981)
(0.00167055 -0.00196033 1.2248e-19 -0.000209382 2.67423e-19 0.000980237)
(0.00130931 -0.00206014 1.68479e-19 0.000422614 3.04738e-19 0.0011737)
(0.000964197 -0.00207645 3.16379e-19 0.00108968 4.54543e-19 0.00138939)
(0.000544704 -0.00198522 -1.01221e-18 0.00171396 -1.71539e-18 0.00155785)
(0.000127961 -0.00178012 7.54604e-19 0.00231164 1.44873e-18 0.00173502)
(-0.000236737 -0.00145834 1.06556e-18 0.0028538 9.62129e-19 0.0019135)
(-0.000529104 -0.00102183 -6.43525e-20 0.00330181 1.34244e-19 0.00208543)
(-0.000704246 -0.000507476 7.76238e-19 0.00362399 1.3208e-18 0.00225504)
(-0.000755871 4.07442e-05 -1.72099e-18 0.00380922 -1.12908e-19 0.00240807)
(-0.00067798 0.000586935 2.51735e-18 0.00387084 2.73705e-18 0.00255458)
(-0.000489864 0.00108411 1.24103e-18 0.00385695 5.22078e-19 0.00268665)
(-0.000492382 0.00149835 6.10522e-19 0.00349315 -5.78988e-19 0.00250191)
(0.000284335 0.00190189 1.92096e-18 0.00399561 1.8626e-18 0.00314843)
(0.00344152 0.0027195 -6.1238e-18 0.00760826 -6.14229e-18 0.00672135)
(0.00855186 0.00473345 2.42842e-18 0.0144658 3.58198e-18 0.0132637)
(0.0227521 0.0120326 5.03052e-17 0.0353003 1.45657e-17 0.0327923)
(0.0628253 0.0332569 4.13339e-17 0.0919338 2.97602e-17 0.0860773)
(0.158533 0.0834633 -3.15404e-17 0.219097 -2.02669e-18 0.206718)
(0.350417 0.181964 7.85843e-17 0.452829 -1.75606e-16 0.433004)
(0.710074 0.358115 3.07721e-17 0.834688 2.55521e-16 0.82296)
(1.37998 0.650176 1.07855e-15 1.38278 -2.70582e-16 1.47782)
(3.18374 1.16473 -1.94958e-15 2.19972 -7.81507e-16 2.97229)
(6.68194 -0.395588 8.2286e-17 4.04494 5.63742e-17 5.63032)
(15.572 -3.8101 -4.21495e-15 9.63788 1.04076e-15 12.9461)
(67.9472 -7.80403 1.10112e-15 59.709 1.37446e-16 64.2291)
(148.966 -6.10831 -3.49534e-16 144.546 1.93625e-18 146.894)
(137.413 -3.19694 -5.4624e-15 136.112 3.04441e-15 136.519)
(102.443 -1.98424 -6.8756e-15 101.916 2.74706e-16 101.887)
(61.1078 -1.25393 1.27448e-14 60.759 -3.42135e-15 60.6952)
(29.9349 -0.374833 7.15922e-15 29.6802 2.63742e-15 29.6389)
(10.8025 0.0727488 2.51706e-16 10.6889 1.47676e-15 10.7106)
(2.24276 0.0251211 4.42618e-16 2.22242 -2.34807e-16 2.23135)
(0.183033 -0.0104844 2.87074e-17 0.184528 -9.22345e-18 0.183835)
(0.0181712 -0.00376699 -4.68908e-18 0.019286 -3.10633e-18 0.0185945)
(5.56113e-16 -3.62512e-16 -7.84605e-33 7.69169e-16 -4.67385e-32 6.74718e-16)
(0.00387587 -0.00165335 2.50127e-18 0.00489981 1.79198e-18 0.00449597)
(0.323943 -0.0648963 -2.16056e-16 0.279711 2.70147e-16 0.334549)
(0.00645526 -0.00144621 -5.14758e-20 0.00104305 -1.15954e-19 0.00396061)
(0.0116502 -0.0011263 -4.99805e-20 0.00433623 -2.06955e-20 0.00820059)
(0.0127828 -0.000330837 5.61497e-19 0.00447818 8.3945e-19 0.00880181)
(0.00960823 0.000525564 -2.96498e-19 0.00271357 -2.45196e-20 0.00624927)
(0.00544139 0.00103039 4.99969e-20 0.000561509 2.23627e-19 0.00303895)
(0.00225234 0.00139754 -6.30121e-20 -0.00134745 8.02186e-19 0.000462209)
(0.00181727 0.00176584 -8.08384e-20 -0.000839646 6.79204e-19 0.000489513)
(0.00119352 0.00202195 2.3594e-18 -0.000439053 1.51075e-18 0.000389655)
(0.000681887 0.00219013 4.49704e-19 0.000160715 -4.62728e-19 0.000435254)
(4.5907e-06 0.000210459 1.33529e-19 6.45125e-05 1.62857e-20 3.58927e-05)
(-0.000332996 0.00178625 -1.26122e-18 0.00107839 -6.77275e-19 0.000395791)
(-0.000664648 0.00205656 -1.2971e-18 0.00204737 1.93641e-18 0.000755481)
(-0.000888256 0.00185537 2.09687e-18 0.00270257 -1.00176e-18 0.00103363)
(-0.00106251 0.00159576 1.81343e-18 0.00330247 -9.68642e-21 0.00134431)
(-0.00113698 0.00129289 -2.10633e-18 0.00389757 1.75372e-18 0.00173762)
(-0.000876872 0.00076735 -1.41651e-18 0.00364378 3.11341e-18 0.00181627)
(-0.000361125 0.000272048 2.8823e-18 0.0025088 -1.56865e-18 0.00143395)
(-7.37325e-06 4.98935e-06 2.0632e-19 0.000190664 -3.84544e-20 0.000123282)
(4.99649e-06 -3.03361e-06 3.27144e-20 7.40593e-05 -3.47577e-21 5.30677e-05)
(3.05784e-05 -1.73348e-05 -2.8067e-20 0.000178465 9.06467e-20 0.000139311)
(0.00176946 -0.000960256 1.56107e-17 0.00648675 9.94939e-19 0.00545639)
(0.000100013 -5.37951e-05 2.11993e-20 0.000268974 -9.54927e-20 0.000241968)
(0.0062106 -0.00315191 -8.88809e-20 0.0132894 -2.72958e-19 0.0124416)
(0.0122676 -0.00579149 -8.08795e-19 0.0195354 -4.03541e-18 0.0203831)
(0.000197021 -9.40931e-05 -3.53344e-21 0.000240117 3.35837e-20 0.000293456)
(0.00674642 -0.00279635 3.73331e-17 0.00618355 -2.19734e-18 0.00892686)
(0.00907592 -0.00300784 -3.75733e-19 0.00672919 2.45827e-20 0.0108762)
(0.0101578 -0.00249608 -4.21464e-18 0.00676738 1.39782e-20 0.0112888)
(0.00645767 -0.00131448 -3.25236e-20 0.00411037 2.97137e-21 0.00683687)
(0.00532731 -0.00116435 -3.07991e-18 0.00313658 -1.04527e-19 0.00546668)
(0.00343284 -0.00087813 3.54116e-18 0.00193261 3.83848e-19 0.00342319)
(0.00183309 -0.000478068 -7.49718e-20 0.00113119 -1.53858e-21 0.0017859)
(0.000961723 -0.000269009 -2.37857e-18 0.000622849 3.61761e-19 0.000919698)
(0.000541675 -0.000164719 -3.07412e-21 0.000359732 1.63418e-19 0.00050912)
(0.000302879 -0.000100116 1.34248e-20 0.000204525 -1.22919e-19 0.000280358)
(0.000428513 -0.000153915 -6.46031e-20 0.00028395 2.39993e-19 0.0003882)
(7.73621e-16 -2.94159e-16 3.09938e-31 5.38034e-16 -1.11085e-30 6.88345e-16)
(0.14331 -0.041667 5.93494e-16 0.0796342 7.57179e-17 0.121507)
(8.32554 2.21129 7.82234e-14 7.57735 1.52612e-14 8.13109)
(0.0112144 -0.00334547 -9.3823e-20 0.00293783 -1.60691e-19 0.00690686)
(0.0103342 -0.0039584 -1.90935e-19 0.00339687 -3.11113e-19 0.00667854)
(0.00963619 -0.00453046 3.76152e-19 0.00439531 5.35784e-19 0.00677372)
(0.00908046 -0.00501473 4.9107e-19 0.00567169 5.22793e-19 0.00707825)
(0.0081433 -0.00522937 5.94604e-20 0.00674185 -1.97018e-20 0.00708016)
(0.00698209 -0.0052103 -1.76601e-19 0.00766359 4.55028e-19 0.00688269)
(0.00611147 -0.00505207 4.12666e-18 0.00879508 4.12392e-18 0.00692122)
(0.00531648 -0.00471787 -4.05754e-18 0.00982835 -5.25961e-18 0.00693544)
(0.004625 -0.00423993 1.1027e-18 0.0107589 2.88183e-19 0.00692735)
(0.00407124 -0.00367042 5.99807e-18 0.0115568 4.43743e-18 0.00690902)
(0.00363053 -0.00303897 5.15976e-18 0.0121934 5.15558e-18 0.00684414)
(0.00331631 -0.00238074 6.05932e-18 0.0126964 1.82622e-18 0.00675456)
(0.00314274 -0.0017285 -7.4097e-18 0.0131085 -5.57377e-18 0.00666897)
(0.0030621 -0.00108809 -5.30284e-18 0.0134189 -5.14278e-18 0.0065697)
(0.00306579 -0.00048234 6.17227e-19 0.0136367 -1.92509e-18 0.00644162)
(0.00314396 0.000144657 -1.65379e-17 0.0138113 1.0269e-18 0.0063213)
(0.00275585 0.000872585 -5.3714e-18 0.0131533 -6.65494e-18 0.00562165)
(0.00121449 0.00165828 -3.45357e-17 0.0107729 -2.64365e-17 0.00361744)
(-0.000783048 0.00178507 2.80205e-18 0.00510458 -3.85604e-18 0.000565646)
(-6.59853e-05 0.000753005 4.20221e-19 0.00143958 -9.67699e-19 0.000249106)
(7.65262e-17 1.2284e-15 -5.88179e-30 1.56319e-15 2.4256e-32 3.60282e-16)
(1.14943e-16 2.06683e-15 1.34353e-30 1.55411e-15 2.64889e-31 3.30944e-16)
(-2.73567e-15 3.02754e-14 -9.00649e-29 7.44144e-15 -1.7793e-29 -2.70577e-15)
(0.00159125 0.000730425 -7.29008e-19 0.00161952 7.75443e-19 0.00152852)
(0.0361334 0.0153096 4.427e-18 0.0310794 2.92607e-19 0.0329774)
(0.000470163 8.03676e-10 1.82697e-24 0.000470162 6.62278e-25 0.000470162)
(0.000165904 -5.15388e-12 -2.17203e-27 0.000165904 1.83804e-27 0.000165904)
(0.000540092 -8.53414e-11 1.47263e-26 0.000540092 1.08078e-27 0.000540092)
(0.000914855 -5.08739e-10 9.01194e-25 0.000914855 -1.62715e-25 0.000914855)
(0.00227406 -5.59134e-09 -8.03809e-25 0.00227406 3.71122e-24 0.00227406)
(0.0141064 -3.90245e-07 -8.7822e-22 0.0141063 -4.4668e-22 0.0141064)
(0.2857 -0.00038289 1.74428e-18 0.285595 -1.43151e-18 0.285656)
(1.69575 -0.0832398 3.38865e-16 1.67338 -2.99641e-17 1.68606)
(1.52172 -0.0216405 -1.13935e-16 1.50511 -6.78073e-16 1.5154)
(0.624507 0.00829556 -2.32427e-16 0.608421 -3.63556e-17 0.617634)
(0.0815021 -0.0130577 2.60024e-18 0.0840082 1.53383e-17 0.0823646)
(0.0185859 -0.0154456 -1.56843e-17 0.0274726 1.67345e-18 0.0235833)
(0.0140517 -0.00973574 -9.05394e-18 0.0181972 7.25884e-18 0.0164043)
(1.21918 -0.473373 3.89836e-16 0.90111 -1.20515e-15 1.15319)
(0.0146506 -0.00291399 -5.53811e-20 0.00398372 -3.23943e-20 0.00919052)
(0.0113092 -0.00157415 1.59432e-19 0.0020214 7.67319e-19 0.00657663)
(0.00636048 -0.000510738 4.43346e-19 -0.0020669 9.01838e-19 0.00211319)
(0.00519407 0.000428917 5.34197e-19 -0.0031592 -2.68092e-19 0.0010038)
(0.00446424 0.00140085 -1.09712e-18 -0.00341482 -8.56009e-19 0.000530122)
(0.00340839 0.00198794 -1.48988e-19 -0.00248005 -1.13792e-18 0.000465613)
(0.00266698 0.00250846 -1.58495e-18 -0.00172581 -1.40287e-18 0.000470635)
(0.00184892 0.0027521 -2.15532e-18 -0.000906983 -3.66277e-20 0.000478649)
(0.00106305 0.00275804 -5.1331e-19 -0.000113222 -3.54136e-19 0.000491083)
(0.000385771 0.00255472 7.47993e-19 0.000587149 -4.99939e-19 0.000507149)
(-0.000121133 0.00236861 7.13887e-19 0.00120545 1.6356e-18 0.000560573)
(-0.000483173 0.00205045 1.67565e-18 0.00168597 -6.5014e-19 0.000608322)
(-0.000681132 0.00165118 -1.50627e-18 0.00198551 -1.45477e-18 0.000640493)
(-0.000748016 0.00127562 -1.97121e-19 0.0021622 5.81123e-19 0.000673283)
(-0.000732003 0.000972418 1.65807e-18 0.00229438 -3.84059e-19 0.000720614)
(-0.000614373 0.000679817 3.39827e-18 0.00224019 -3.03393e-19 0.00072929)
(-0.000440337 0.000431261 -2.12023e-18 0.00201111 -4.18077e-19 0.000687764)
(-6.27574e-05 5.83106e-05 -1.10953e-19 0.000395694 -1.5884e-19 0.000143105)
(-8.56334e-05 8.38021e-05 -1.15025e-19 0.000881823 6.62097e-20 0.000337936)
(-4.97744e-05 7.01284e-05 2.42576e-18 0.00137198 -8.55131e-19 0.000557821)
(3.98796e-05 2.27762e-05 5.39792e-19 0.00189426 -7.20179e-19 0.000812512)
(0.000162665 -5.65171e-05 -3.8767e-18 0.0021164 9.94705e-19 0.000955852)
(0.00031874 -0.000165705 -1.44979e-19 0.00231658 4.78889e-19 0.00111041)
(0.000485504 -0.000263544 -5.47593e-20 0.00229945 -2.92004e-19 0.00117543)
(0.000590803 -0.000289523 2.71651e-20 0.0019794 -2.30822e-21 0.00108206)
(0.000681602 -0.000283659 -2.87649e-18 0.00178202 -1.30928e-19 0.00102482)
(0.000706173 -0.000249104 -1.44523e-20 0.0015531 2.19257e-21 0.000928103)
(0.000798695 -0.000239146 5.589e-19 0.00155092 -2.15932e-20 0.0009546)
(0.000860775 -0.000217202 -2.4847e-20 0.0015161 -3.35067e-22 0.000959313)
(0.000919237 -0.000193585 -4.02285e-22 0.0015004 -1.05599e-19 0.000973273)
(0.000964693 -0.000171528 -1.59998e-18 0.00147449 8.37286e-20 0.000984073)
(0.000989142 -0.000154917 -3.05865e-20 0.0014234 -1.83581e-21 0.000981461)
(0.000984303 -0.000148293 5.83158e-20 0.00133421 -1.53667e-19 0.000955937)
(0.000960936 -0.000159149 4.16965e-18 0.00122055 7.62205e-19 0.000914752)
(0.000735515 -0.000149306 -2.27426e-20 0.000864985 -2.93853e-21 0.000685918)
(0.00150272 -0.000431561 -9.69696e-18 0.00158887 -4.15787e-19 0.00134897)
(2.90253e-05 -1.0935e-05 6.79559e-19 2.6387e-05 9.47536e-20 2.49102e-05)
(0.0966245 -0.0354368 -8.3856e-18 0.0712452 2.09354e-17 0.0779856)
(7.66523 1.36987 5.8997e-16 3.48497 -3.29236e-15 5.17646)
(0.0134205 -0.00492162 -2.05923e-19 0.00142511 -2.83046e-19 0.00752577)
(0.011582 -0.00580923 -3.85303e-19 0.00162256 -5.22498e-19 0.00675142)
(0.0101062 -0.00666633 1.32084e-18 0.00258864 1.6815e-18 0.00651566)
(0.00849153 -0.00730274 -5.68076e-18 0.00375974 -7.45788e-18 0.00634786)
(0.00679566 -0.0076458 1.44399e-18 0.00510131 2.05646e-18 0.00622984)
(0.00499675 -0.00771096 3.2473e-18 0.00655972 3.34262e-18 0.00612285)
(0.00321295 -0.00742668 -2.95495e-18 0.00805222 -4.58249e-18 0.00606801)
(0.00152817 -0.00679731 -1.86232e-18 0.00949817 2.91354e-19 0.00605796)
(8.35949e-06 -0.0058345 -1.31541e-17 0.0108405 -1.22225e-17 0.00609627)
(-0.00126134 -0.00457605 -2.19107e-18 0.0119923 -5.2329e-18 0.00619882)
(-0.00227084 -0.00306368 4.01169e-19 0.0128358 -1.29571e-18 0.00630177)
(-0.00285758 -0.00136378 -8.45235e-18 0.0134467 -1.03379e-17 0.00653136)
(-0.00294162 0.000447248 4.40137e-18 0.013837 5.10904e-18 0.00693328)
(-0.00273553 0.00227461 -1.92461e-17 0.0137278 -9.90642e-18 0.00724209)
(-0.00219138 0.00403196 4.3382e-18 0.0132229 2.41548e-18 0.00752337)
(-0.00122357 0.00564508 2.14935e-17 0.012553 1.75066e-17 0.00791386)
(2.39701e-05 0.00702279 -3.13334e-17 0.0118682 -8.832e-18 0.00834115)
(0.00142792 0.00818936 -6.15805e-18 0.0111846 2.77441e-17 0.00876888)
(0.00253353 0.00916706 -2.32645e-18 0.00999004 -3.86165e-18 0.00872101)
(0.00069454 0.00703427 -2.17469e-17 0.0041518 -3.29788e-18 0.00411741)
(0.000525575 0.00181696 6.13068e-18 0.000876231 3.68933e-18 0.00109326)
(0.000319212 0.00066737 7.66226e-20 0.000254341 -1.17438e-19 0.000416047)
(8.45274e-16 1.3102e-15 3.90907e-30 3.3384e-16 1.08273e-30 8.20886e-16)
(1.07116e-15 1.60353e-15 3.83981e-30 1.03557e-16 1.20888e-30 8.25282e-16)
(0.00781143 0.00305155 -8.01373e-19 0.00584823 -6.73997e-20 0.00708847)
(9.90518e-05 5.70919e-10 1.48385e-26 9.90514e-05 -2.02698e-26 9.90516e-05)
(3.55173e-05 3.55594e-16 1.50935e-31 3.55173e-05 -3.76541e-32 3.55173e-05)
(0.000117359 1.22489e-15 -5.03904e-31 0.000117359 -7.40459e-31 0.000117359)
(0.000201556 -1.17191e-15 -3.53832e-29 0.000201556 -4.96439e-31 0.000201556)
(0.000507451 -7.0856e-14 2.82263e-29 0.000507451 1.60211e-30 0.000507451)
(0.0031852 -3.57742e-12 -1.46378e-27 0.0031852 4.52306e-28 0.0031852)
(0.0652154 -9.93151e-10 -5.10065e-24 0.0652154 -3.52508e-24 0.0652154)
(0.000388505 -1.86017e-07 -7.2594e-23 0.000388471 -2.63041e-22 0.00038849)
(7.7067e-06 -6.39644e-12 -7.49804e-26 7.7067e-06 6.03236e-27 7.7067e-06)
(0.210125 -0.00844735 2.6833e-17 0.204353 7.61987e-17 0.207647)
(0.191654 -0.0137732 5.0677e-20 0.185621 -9.58797e-21 0.18781)
(0.0873734 -0.0319341 -5.00371e-18 0.10314 4.4433e-17 0.0970223)
(0.0193029 -0.00701677 -9.76648e-19 0.0193281 -6.09552e-18 0.0191614)
(1.29279 -0.520022 -1.12402e-15 0.957113 8.49986e-17 1.13541)
(0.00980444 -0.0036318 3.66554e-19 -0.00321882 1.84112e-19 0.00339776)
(0.0081541 -0.00244675 -1.04542e-18 -0.00579566 -1.55725e-18 0.00123598)
(0.00339973 -0.000414191 -2.68726e-19 -0.00252261 4.28882e-19 0.000460957)
(0.00481984 0.000313678 1.67775e-18 -0.0035583 9.90276e-19 0.00064678)
(0.00833744 0.00220911 -1.04544e-18 -0.00577329 -5.49288e-18 0.00130102)
(0.00959723 0.00389719 -2.13395e-18 -0.00329059 1.90673e-18 0.00314526)
(0.00891905 0.00543376 5.74111e-18 -0.00182334 4.39891e-18 0.00353638)
(0.00744117 0.00667637 -2.2292e-18 -0.000423451 -5.27263e-18 0.00351281)
(0.0057191 0.00755251 -5.39568e-18 0.00127098 -2.22927e-18 0.00350977)
(0.00385371 0.00800172 -4.54893e-18 0.00310819 1.80214e-18 0.00350356)
(0.00200341 0.00803412 6.06352e-18 0.00490458 -8.01538e-22 0.00347889)
(0.000283237 0.0077237 -4.35995e-18 0.00654734 -3.36958e-18 0.00344401)
(-0.0012569 0.007163 -5.8758e-18 0.0079893 4.40814e-18 0.00340955)
(-0.00205905 0.00583273 6.0683e-18 0.00866988 2.27455e-18 0.00337339)
(-0.00191928 0.0041509 -9.25376e-18 0.00846937 1.70313e-18 0.00336849)
(-0.00152929 0.0028437 -1.81755e-18 0.00803059 -5.71628e-18 0.00337443)
(-0.00101445 0.00183914 2.18284e-18 0.00738971 2.79658e-18 0.00334082)
(-0.000490815 0.00110441 -8.91901e-18 0.00670106 6.12353e-19 0.00328506)
(-1.92757e-05 0.000581389 3.3326e-18 0.00607828 -1.3458e-19 0.00323103)
(0.000375283 0.000201631 -1.2528e-17 0.00554492 1.11722e-18 0.00317917)
(0.000699809 -8.73877e-05 -1.33067e-18 0.00508992 3.70649e-19 0.00312545)
(0.00105048 -0.000347933 1.00677e-17 0.00504818 3.94633e-19 0.00330442)
(0.00130172 -0.000557844 8.95792e-18 0.00457473 -1.79181e-18 0.00318882)
(0.00141378 -0.000654545 -6.66853e-18 0.003724 5.26639e-19 0.00279539)
(0.00165628 -0.000730073 -8.36447e-20 0.00331748 3.30827e-20 0.00271531)
(0.00187187 -0.000729561 -5.86103e-18 0.00296291 9.79894e-19 0.00264664)
(0.00203918 -0.000686515 -5.27808e-20 0.00265494 1.90689e-21 0.00258637)
(0.00216384 -0.000624922 4.31229e-22 0.00238871 2.25671e-20 0.00253438)
(0.00225259 -0.000553987 1.3867e-20 0.00216165 -1.70517e-21 0.00248506)
(0.00231093 -0.000478417 1.88676e-18 0.00196928 1.22235e-19 0.00243605)
(0.00232111 -0.000401448 -3.94844e-22 0.00180109 -2.6187e-19 0.00236528)
(0.00228009 -0.000327164 -1.06989e-19 0.00165796 -1.55544e-20 0.00226638)
(0.00221531 -0.000259918 -1.03101e-17 0.00154639 -1.53031e-18 0.00216304)
(0.00218643 -0.000207428 -9.17915e-18 0.00149376 -6.33263e-19 0.00210691)
(0.00182863 -0.000139317 -1.82777e-20 0.00124372 8.59749e-21 0.00174584)
(0.00232722 -0.000163642 -1.62061e-17 0.00157614 -4.61274e-18 0.00218995)
(4.47259e-05 -3.06293e-06 -1.99464e-20 2.95921e-05 1.452e-19 4.13931e-05)
(0.0833481 -0.00705774 7.1496e-19 0.0428862 5.61002e-20 0.0710069)
(5.78821 1.04468 -1.06521e-13 2.53595 -1.72049e-14 4.14588)
(0.00644533 -0.00433547 4.57849e-19 -0.00406162 4.98598e-19 0.00115102)
(0.00833787 -0.00758349 -4.97921e-19 -0.0048336 -5.1931e-19 0.00169648)
(0.00516006 -0.00652955 -5.06977e-21 -0.00248116 -3.62335e-20 0.00127199)
(0.0030592 -0.00562604 -1.25864e-19 -0.000919491 9.87198e-20 0.0010074)
(0.00151824 -0.00451484 2.89411e-18 0.000153114 2.99753e-18 0.000777114)
(0.000485872 -0.00341468 -1.40507e-18 0.000801984 -1.71736e-18 0.000584981)
(-0.000116862 -0.00251828 -7.24394e-20 0.00112679 3.00991e-19 0.000449189)
(-0.000443272 -0.00183649 2.96999e-18 0.00126537 2.79445e-18 0.000356394)
(-0.000625429 -0.00135725 -5.49178e-19 0.00134169 5.19074e-20 0.000300348)
(-0.000757587 -0.00104027 -2.70378e-18 0.00144438 -1.79996e-18 0.000278221)
(-0.00089644 -0.000819006 8.75314e-19 0.00162701 7.20989e-19 0.000284479)
(-0.00104261 -0.000616481 -2.57012e-18 0.00187366 -8.37717e-19 0.000309834)
(-0.00122652 -0.000408782 -1.14948e-18 0.00224724 -4.38178e-19 0.000363738)
(-0.00143579 -0.000145587 -2.43155e-18 0.00275708 1.29789e-18 0.000448791)
(-0.00159924 0.000211266 2.59393e-19 0.00331744 1.4368e-19 0.000556446)
(-0.00168677 0.000668559 2.91594e-18 0.0039312 6.45536e-19 0.000695407)
(-0.0016089 0.00121477 5.09594e-18 0.0044809 7.26454e-18 0.000867308)
(-0.0013919 0.00194827 2.46636e-17 0.00520111 6.68185e-18 0.00116452)
(-0.000924895 0.00303039 -1.34237e-17 0.00624651 -5.89269e-19 0.00169355)
(6.57795e-05 0.00405116 1.53972e-17 0.00669841 6.68314e-18 0.00227923)
(0.00140703 0.00460458 2.5498e-18 0.0062563 -7.45838e-18 0.00275713)
(0.00131219 0.00218909 -1.27452e-18 0.00251381 2.31071e-18 0.00146742)
(0.000532115 0.000568794 -2.15624e-18 0.000572716 -1.20621e-18 0.000448237)
(0.000347222 0.000260049 4.2343e-20 0.000245972 -5.33729e-20 0.000249499)
(9.29017e-16 5.73727e-16 2.08992e-31 4.71594e-16 -4.40667e-32 5.99389e-16)
(6.66668e-16 1.92565e-21 4.66536e-36 6.66666e-16 -1.32914e-36 6.66666e-16)
(6.66667e-16 8.84588e-27 -7.64233e-42 6.66667e-16 -2.63672e-42 6.66667e-16)
(6.66667e-16 8.54027e-27 -7.54882e-42 6.66667e-16 -3.71204e-43 6.66667e-16)
(6.66667e-16 1.22175e-26 6.70817e-41 6.66667e-16 2.74292e-41 6.66667e-16)