/*--------------------------------*- C++ -*----------------------------------*\
| =========                 |                                                 |
| \\      /  F ield         | OpenFOAM: The Open Source CFD Toolbox           |
|  \\    /   O peration     | Version:  2312                                  |
|   \\  /    A nd           | Website:  www.openfoam.com                      |
|    \\/     M anipulation  |                                                 |
\*---------------------------------------------------------------------------*/
FoamFile
{
    version     2.0;
    format      ascii;
    arch        "LSB;label=32;scalar=64";
    class       volScalarField;
    location    "500";
    object      turbulenceProperties:L;
}
// * * * * * * * * * * * * * * * * * * * * * * * * * * * * * * * * * * * * * //

dimensions      [0 1 0 0 0 0 0];

internalField   nonuniform List<scalar> 
10720
(
0.00814324
0.00563858
0.00501082
0.0050508
0.00566398
0.00654149
0.00751515
0.00855121
0.00954083
0.0104869
0.011464
0.0126557
0.014185
0.0163183
0.0192833
0.0223185
0.023496
0.0223934
0.0173484
0.016227
0.0194591
0.0273401
0.041632
0.0634494
0.0869752
0.107773
0.284923
0.276321
0.0929414
0.0514056
0.0278369
0.00878949
0.00381101
0.00155629
8.53192e-11
1.09613e-10
0.000117083
0.00204421
0.0169833
0.014323
0.0254488
0.0286697
0.00475022
0.0125174
0.012699
0.0107916
0.00945995
0.00902986
0.00892595
0.00899009
0.00925523
0.0098132
0.0108339
0.0111682
0.0109642
0.00808058
0.00649243
0.0057363
0.00590187
0.00669797
0.00835989
0.00996479
0.0113511
0.0121095
0.0121498
0.0101506
0.0069966
0.00409555
0.00201685
0.000687045
0.000170513
9.32177e-05
6.64453e-05
4.65456e-05
3.16124e-05
1.60688e-10
0.00779615
0.0755886
0.0048372
0.00598149
0.00737026
0.00941598
0.0123908
0.0161257
0.0199838
0.0236451
0.0269842
0.0300168
0.0330697
0.0356967
0.0431917
0.0612668
0.0962714
0.158245
0.250645
0.437929
0.497817
0.212568
0.114316
0.0935961
0.0890381
0.0878405
0.115375
0.106313
0.151991
0.115002
0.108601
0.192632
0.171911
0.0714752
0.0361922
0.0136731
0.00157858
2.46752e-10
3.27081e-10
0.00177546
0.0224649
0.0152754
0.0398217
0.15574
0.0242339
0.0497079
0.0534253
0.0409293
0.0392621
0.0417296
0.0443203
0.0451309
0.0435607
0.0453865
0.0495662
0.0297991
0.189556
0.32474
0.225396
141.705
0.013341
0.00482932
1.1425
0.0951755
0.00211355
0.00914122
0.00187897
0.00255555
0.0029029
0.00220866
0.00217487
0.00163873
0.00113955
0.000762982
0.000501684
0.000325412
0.000207655
2.91887e-05
0.0121324
0.093946
0.000984878
0.010031
0.0158774
0.017596
0.0193108
0.0203561
0.0211433
0.0217692
0.0222141
0.0225552
0.0227738
0.0229579
0.0231637
0.0217298
0.0248429
0.0377797
0.0530666
0.082652
0.128259
0.218452
1.13435
0.196114
0.196826
0.202235
0.194643
0.252981
0.192093
0.111616
0.0731817
0.0696477
0.0842896
0.0813104
0.0362959
0.0124788
0.00325436
0.00116944
3.07128e-10
0.00150308
0.0334048
0.0308444
0.0570709
0.0547347
0.0411345
0.0291399
0.0115929
0.0121959
0.0108318
0.0113829
0.00321762
0.0104073
0.0139444
0.0157395
0.0172721
0.0189264
0.0186764
0.0161257
0.00460197
0.00294114
0.0046376
0.0281786
0.00574307
0.0399557
0.0488712
0.00630308
0.0353606
0.0370961
0.0334977
0.0233327
0.0209653
0.0163641
0.0096325
0.0060128
0.00408899
0.00291444
0.00351346
2.69429e-09
0.209155
0.517704
0.0461088
0.0454632
0.0462165
0.0473804
0.0476882
0.0473124
0.0476819
0.0479817
0.0482032
0.0483416
0.0482913
0.0481229
0.0479329
0.0476405
0.0472219
0.0467436
0.0442804
0.0370742
0.0203597
0.0114498
3.74288e-09
4.07571e-09
5.09242e-09
0.136428
4.45097
2.08339e-08
5.58967e-10
1.55572e-09
5.12705e-09
3.03021e-08
8.31647e-07
0.000198884
0.0212469
0.0230905
0.0132255
0.00553139
0.0038965
0.00428091
0.105245
0.0513735
0.0469381
0.0266338
0.0183068
0.0132035
0.0123581
0.0123984
0.012388
0.0124178
0.0125148
0.0131034
0.0136365
0.013992
0.0143279
0.0147852
0.0147919
0.0142417
0.00641505
0.00969194
0.0121871
0.0144182
0.0153417
0.0161934
0.0163236
0.0153401
0.0146345
0.01365
0.0135532
0.0132731
0.0130706
0.0129023
0.0126582
0.0122476
0.0117397
0.00994531
0.0137437
0.00196292
0.148861
4.99771
0.0499636
0.0471689
0.0461531
0.0452493
0.0445496
0.0437502
0.0430825
0.0425215
0.0420674
0.041742
0.041333
0.0412795
0.0417199
0.0417409
0.0415973
0.0417722
0.0421595
0.0425892
0.0416424
0.0264707
0.0136292
0.0085266
3.7083e-09
4.01454e-09
0.402885
1.95641e-08
2.78418e-14
1.17402e-13
4.27908e-13
2.35613e-12
2.63968e-11
1.21092e-09
2.46796e-06
5.85383e-10
0.0200794
0.019701
0.0114206
0.00560064
0.100396
0.0330656
0.0197978
0.0119825
0.0144348
0.02052
0.0319569
0.0336944
0.0332879
0.0329673
0.0326193
0.0321778
0.0316595
0.0310857
0.0304478
0.0299234
0.0294014
0.0286717
0.0278163
0.026948
0.0261838
0.0255263
0.0258713
0.0250992
0.0232259
0.022641
0.0221089
0.021617
0.0211963
0.0208647
0.0205782
0.0202624
0.019915
0.0196222
0.0196512
0.0182264
0.0209534
0.00298329
0.128384
14.4382
0.0200423
0.0242593
0.0209654
0.0185893
0.0162811
0.0141578
0.0124377
0.0111226
0.010273
0.0099454
0.010126
0.0106462
0.0116165
0.0129929
0.0145465
0.0163018
0.0180898
0.0204943
0.0238596
0.0264831
0.0277065
0.0191998
0.0101852
0.0075732
3.73887e-09
5.35581e-14
2.65879e-19
2.736e-19
4.61442e-19
1.11315e-18
3.44931e-18
1.38735e-17
2.51855e-11
1.372e-11
8.48535e-12
2.83007e-10
1.1269e-08
6.64804e-08
3.59383e-06
0.0141378
0.0136438
0.0231872
0.035674
0.0393692
0.0406424
0.0405383
0.0404023
0.0402896
0.0402047
0.0400481
0.0398391
0.0396033
0.039278
0.0391216
0.0389725
0.0383284
0.0375476
0.0368842
0.0363135
0.0357843
0.0352646
0.0348282
0.034357
0.0338263
0.0332533
0.0327266
0.0322405
0.0318265
0.0315434
0.0313587
0.0310985
0.0306228
0.0301892
0.0288292
0.0285183
0.00403156
0.0998516
1.31142
0.0125006
0.0123484
0.0123698
0.0120722
0.012053
0.0121422
0.0121799
0.0123131
0.0124756
0.0126437
0.0128596
0.0130827
0.0133377
0.0136455
0.0139759
0.0143462
0.0147382
0.00185663
0.00675925
0.0118184
0.0168412
0.0202035
0.0209396
0.0167737
0.0119725
2.92325e-09
6.02242e-19
3.65585e-19
4.19779e-19
7.38886e-19
1.73485e-18
4.87449e-18
1.36692e-17
3.45338e-17
3.54724e-13
4.67369e-12
5.56186e-11
1.93933e-15
8.78729e-09
0.014173
0.0327337
0.0397632
0.0378742
0.0330222
0.0287395
0.0287312
0.0289881
0.0292615
0.0296483
0.0300681
0.0305151
0.0309979
0.0315035
0.0319682
0.0325
0.0327526
0.0326
0.0322946
0.0319443
0.0315587
0.0311397
0.0306886
0.0302069
0.0296764
0.0291426
0.0286848
0.0282768
0.0279459
0.0277211
0.0276158
0.0276817
0.0278267
0.0280001
0.0280353
0.0300069
0.00439917
0.0831388
0.719419
0.0271153
0.0271245
0.0284131
0.0292909
0.0301393
0.0309948
0.0317057
0.0322624
0.0326667
0.0329273
0.0330676
0.0330974
0.0330245
0.0328546
0.0325881
0.0322239
0.0317562
0.031038
0.0306861
0.028483
0.0254619
0.024963
0.0253551
0.024847
0.025673
1.37633e-08
2.522e-14
5.64122e-19
4.68381e-19
6.23273e-19
1.15207e-18
2.54639e-18
5.52502e-18
1.00853e-17
1.56768e-17
3.25227e-17
8.79687e-17
1.99963e-16
7.65909e-16
0.0384925
0.0395372
0.0307176
0.0193139
0.00560498
0.0110136
0.0109586
0.0110849
0.0112517
0.00218045
0.00555828
0.0078045
0.00974956
0.0115394
0.0132771
0.0148254
0.0156256
0.0158973
0.0159308
0.0158201
0.0156117
0.0153367
0.0150176
0.0146747
0.0143427
0.0140487
0.0138073
0.0136176
0.0134959
0.01344
0.0134416
0.0136812
0.0144246
0.0155856
0.016702
0.0216784
0.00327552
0.0568469
0.431097
0.0398749
0.0378616
0.0377288
0.0374461
0.037168
0.0369653
0.0367791
0.0365453
0.0363058
0.0361119
0.035951
0.0357921
0.035633
0.0354787
0.0353129
0.0351277
0.034911
0.0345859
0.0344027
0.0339039
0.0324152
0.0306209
0.0294718
0.0276453
0.0303553
5.28091e-08
1.05034e-13
9.58266e-19
5.97542e-19
6.17483e-19
9.17229e-19
1.66662e-18
3.05445e-18
4.96878e-18
7.17002e-18
1.21769e-17
2.6272e-17
5.27711e-17
1.47561e-16
0.0358107
0.0216706
0.0136396
0.00816197
0.00694805
0.00693066
0.00692186
0.00682516
0.00671911
0.00666897
0.00683195
0.00703814
0.00732793
0.00767071
0.00807366
0.00849386
0.00873776
0.00886489
0.0089381
0.00897574
0.00898477
0.00897053
0.00893009
0.00886631
0.00879715
0.00873656
0.00869283
0.00866696
0.00866695
0.00869104
0.00873489
0.00886173
0.00910218
0.00946279
0.00999721
0.0117795
0.0047635
0.0286865
0.20628
0.0285514
0.0280283
0.0263436
0.0248399
0.0237213
0.0229621
0.0223431
0.0217708
0.0213398
0.0211989
0.0212219
0.0212637
0.0214157
0.021757
0.0222261
0.0228174
0.0234269
0.0240659
0.0254281
0.0271933
0.0283243
0.028619
0.0287105
0.0275356
0.0301812
1.74499e-07
3.71221e-13
1.74584e-18
8.42844e-19
6.92039e-19
8.38569e-19
1.27862e-18
2.04544e-18
3.05633e-18
4.19888e-18
6.33069e-18
1.18767e-17
2.15375e-17
4.32841e-17
0.0124795
0.00893403
0.00902941
0.0111026
0.0182932
0.0188415
0.0186911
0.0184817
0.018235
0.0179471
0.017619
0.0172502
0.0169146
0.0165829
0.0162284
0.0158648
0.0155114
0.0152205
0.0149778
0.0147704
0.0145874
0.0144165
0.0142311
0.0140385
0.0138651
0.0137079
0.013572
0.0134541
0.0133608
0.0132879
0.0132287
0.0131682
0.0128388
0.0122918
0.0124123
0.0103211
0.010488
0.00713006
0.0361234
0.0102226
0.00343541
0.00988439
0.00916026
0.00884541
0.00888229
0.00895038
0.00905633
0.00917043
0.00932527
0.00953462
0.00972064
0.00992139
0.0101868
0.0104822
0.0109697
0.0112212
0.0113338
0.0121967
0.00884161
0.0143406
0.0180434
0.0209119
0.0217721
0.0263259
5.34494e-07
1.20616e-12
3.36637e-18
1.29129e-18
8.58506e-19
8.60138e-19
1.11418e-18
1.57791e-18
2.18799e-18
2.89756e-18
4.07121e-18
6.93951e-18
1.16012e-17
1.89142e-17
0.00723154
0.00364988
0.0230832
0.0287858
0.0303924
0.0303798
0.030263
0.0301188
0.0299397
0.0297249
0.0294709
0.0291644
0.0288463
0.0284919
0.0280774
0.027641
0.0272665
0.0269368
0.0266369
0.026353
0.0260727
0.0257689
0.0254334
0.0250977
0.0247883
0.0245082
0.0242657
0.024051
0.0238769
0.0237309
0.0236245
0.0235497
0.0233566
0.0230162
0.0225141
0.0219168
0.0207458
0.0101895
0.0182321
0.00981325
0.0080677
0.00864696
0.00894794
0.00949545
0.00540415
0.00829102
0.0101464
0.0114157
0.0123038
0.0129631
0.0134067
0.0136805
0.0138598
0.0139333
0.0147143
0.0141997
0.0127875
0.0123224
0.0115804
0.0119843
0.0137166
0.0162195
0.0170536
0.0226062
1.71182e-06
4.0679e-12
6.81764e-18
2.12098e-18
1.16145e-18
9.74989e-19
1.08373e-18
1.36871e-18
1.76671e-18
2.22949e-18
2.98885e-18
4.72913e-18
7.37164e-18
1.05129e-17
0.0164441
0.0279126
0.0307257
0.027327
0.025482
0.0254366
0.0254003
0.0253711
0.0253433
0.0253163
0.0252596
0.0251451
0.0249915
0.0248095
0.0245789
0.0243651
0.0241635
0.0239674
0.023769
0.0235595
0.0233276
0.0230677
0.0227936
0.0225315
0.0222964
0.0220858
0.0219005
0.0217344
0.0216014
0.0214906
0.0214154
0.021402
0.0214942
0.021632
0.0217676
0.0217536
0.0215305
0.0210824
0.00721332
0.0227918
0.0229169
0.0240204
0.0252222
0.0260381
0.0268465
0.0274971
0.0279521
0.0282401
0.0283919
0.0284501
0.028442
0.0283746
0.0282478
0.0280598
0.0278191
0.0276127
0.0273786
0.0270621
0.0267797
0.0252335
0.0229023
0.0219334
0.0203754
0.023133
6.56868e-06
1.63235e-11
1.44365e-17
3.70339e-18
1.69534e-18
1.20769e-18
1.16312e-18
1.317e-18
1.58281e-18
1.91511e-18
2.44055e-18
3.57833e-18
5.19742e-18
6.79473e-18
0.0299818
0.0290797
0.0206907
0.0122589
0.00873786
0.00875706
0.00897074
0.00914171
0.00935471
0.0096313
0.00981096
0.00994392
0.0100001
0.0100575
0.0101219
0.0101852
0.0102368
0.0102705
0.0102792
0.0102583
0.0102072
0.010135
0.0100513
0.00997275
0.00991106
0.00986039
0.009821
0.00979257
0.00978309
0.00979284
0.00981089
0.00985118
0.0102483
0.0111968
0.0124102
0.0138889
0.0153614
0.0173882
0.0138742
0.0293312
0.027125
0.0264038
0.026165
0.0259075
0.0257176
0.025636
0.0255427
0.0254563
0.025417
0.0254287
0.025491
0.0255945
0.0257408
0.0259267
0.0261638
0.0264428
0.0267125
0.0270222
0.0273116
0.0274404
0.027065
0.0260412
0.0240786
0.0250243
2.60261e-05
2.01524e-13
4.21077e-15
6.83558e-18
2.64931e-18
1.6203e-18
1.36489e-18
1.39236e-18
1.55808e-18
1.80805e-18
2.18927e-18
2.96442e-18
4.70093e-18
5.89821e-18
0.0252515
0.0137663
0.00921026
0.00529331
0.0045533
0.00464886
0.00474401
0.00475752
0.0047725
0.00481481
0.00480832
0.00479508
0.0047863
0.00478765
0.00480738
0.00484712
0.00489473
0.0049488
0.00500301
0.00505398
0.00510046
0.00514315
0.00518213
0.00521929
0.00525413
0.00528694
0.00532178
0.00535857
0.00540122
0.00545126
0.00550041
0.00555379
0.0057226
0.00606515
0.00667431
0.00713561
0.00780454
0.00810363
0.0107825
0.0181293
0.0169787
0.0151004
0.0139301
0.0128222
0.011774
0.0110832
0.0106006
0.0103162
0.0103282
0.0105728
0.0109732
0.0114947
0.0121121
0.012843
0.0136914
0.014545
0.0154279
0.016297
0.0175767
0.0197245
0.021679
0.0228355
0.0227447
0.024171
9.18864e-05
1.91231e-12
3.38562e-14
1.32878e-17
4.40728e-18
2.33812e-18
1.73778e-18
1.60489e-18
1.67307e-18
1.85638e-18
2.14507e-18
3.42331e-18
3.99847e-17
6.94111e-16
0.00316904
0.00592819
0.0072322
0.0067138
0.00822103
0.00831079
0.00834565
0.00830115
0.00820959
0.00810265
0.00797621
0.00783329
0.00769424
0.00756216
0.00743348
0.0073144
0.00720435
0.00710277
0.00701023
0.00692549
0.00684778
0.00677717
0.00671516
0.00666624
0.00662982
0.00659731
0.00656933
0.00654534
0.00652825
0.00651976
0.00651206
0.00648911
0.00630226
0.00571736
0.00584533
0.00386123
0.00728948
0.007912
0.00754279
0.00670597
0.00635239
0.00628256
0.00633408
0.00644284
0.00656141
0.006583
0.00662338
0.00665713
0.00670609
0.00681794
0.00696338
0.00714361
0.00738113
0.00763388
0.00790872
0.00822595
0.00858236
0.00894919
0.00961488
0.010396
0.00655451
0.012065
0.0150665
0.0183313
0.000259627
1.04715e-11
1.58705e-13
2.71431e-17
7.77408e-18
3.60877e-18
2.38492e-18
2.00359e-18
1.94775e-18
2.0614e-18
2.31657e-18
2.65276e-16
4.45004e-11
1.59165e-09
0.00647387
0.00840015
0.0188135
0.0217484
0.0218831
0.021822
0.0217331
0.0216494
0.0215665
0.0214843
0.0214051
0.0213279
0.0212533
0.0211802
0.0211045
0.0210243
0.0209382
0.0208449
0.0207436
0.020634
0.0205185
0.0203994
0.0202777
0.0201592
0.0200505
0.0199467
0.019848
0.0197515
0.0196665
0.0196001
0.019535
0.0194871
0.0194178
0.0191219
0.0185532
0.0176294
0.0163291
0.0149316
0.0132077
0.00916948
0.00771322
0.00629405
0.00963819
0.0114953
0.0129231
0.0137879
0.0143187
0.0146412
0.014833
0.0149562
0.015039
0.0150927
0.0151769
0.0151471
0.0149966
0.014922
0.0148933
0.0148566
0.0154311
0.0143056
0.0122673
0.0123926
0.0134549
0.0150551
0.00071428
5.59751e-11
7.32306e-13
5.81894e-17
1.45012e-17
5.93301e-18
3.50914e-18
2.69292e-18
2.44458e-18
2.46496e-18
6.42668e-18
1.18341e-11
1.68814e-09
3.38133e-09
0.0162467
0.0228787
0.0230002
0.0220133
0.0218005
0.0216629
0.0215463
0.0214741
0.0214282
0.0213939
0.0213714
0.0213574
0.0213464
0.0213354
0.0213212
0.0212998
0.0212707
0.0212331
0.0211859
0.0211279
0.0210606
0.0209862
0.0209041
0.0208188
0.0207383
0.02066
0.0205838
0.0205078
0.0204405
0.0203909
0.0203461
0.0203173
0.0203462
0.0203832
0.0203226
0.0201312
0.0196698
0.0186556
0.0165407
0.0204748
0.0207801
0.0216229
0.0225388
0.0231758
0.0236502
0.023913
0.024018
0.0240671
0.0241019
0.0241382
0.0241822
0.0242247
0.0244619
0.0244057
0.0238688
0.0239148
0.0242344
0.0242142
0.0241722
0.0236679
0.0230146
0.0213801
0.0194145
0.0181428
0.00216946
3.24525e-10
3.69073e-12
1.30845e-16
2.85557e-17
1.03582e-17
5.51203e-18
3.87659e-18
3.28969e-18
3.15807e-18
5.39047e-18
1.66665e-12
1.45902e-09
1.20098e-09
0.0239565
0.0204651
0.0136345
0.0117305
0.0114905
0.0114164
0.0113564
0.0113141
0.0112998
0.0113044
0.0113188
0.0113427
0.0113739
0.0114099
0.0114478
0.011486
0.0115227
0.0115579
0.0115895
0.0116164
0.011638
0.0116557
0.0116688
0.0116801
0.0116926
0.0117042
0.0117141
0.0117217
0.0117308
0.0117476
0.0117893
0.0118134
0.0119097
0.0125147
0.0132597
0.0140445
0.0151115
0.0160108
0.0156461
0.0224394
0.0209626
0.0204318
0.0201581
0.0198081
0.019607
0.0195007
0.0193579
0.0192597
0.0192357
0.0192706
0.0193492
0.0194593
0.0195864
0.0197725
0.0199752
0.0201689
0.0203862
0.0206154
0.0209757
0.0215644
0.0219268
0.0219197
0.0216235
0.020317
0.00582417
1.83337e-09
1.82333e-11
3.08551e-16
5.92889e-17
1.91581e-17
9.21056e-18
5.95053e-18
4.7224e-18
4.30902e-18
5.82136e-18
3.73934e-13
1.12674e-11
2.78231e-09
0.016808
0.00526529
0.00561327
0.00458671
0.00453951
0.00457475
0.00457084
0.00452182
0.00447998
0.00445226
0.00440306
0.00435976
0.00434112
0.0043304
0.00433794
0.00436887
0.00441305
0.00447296
0.00454521
0.00462655
0.00471286
0.00480407
0.00489812
0.00498719
0.00506277
0.00513133
0.00519765
0.00526156
0.00532386
0.0053871
0.00546087
0.00552425
0.00561988
0.00595504
0.00635891
0.00684471
0.00487377
0.00914464
0.0115472
0.0118014
0.0115225
0.00935074
0.00751907
0.00584102
0.0044169
0.00366951
0.00306107
0.00244839
0.00224811
0.00245898
0.00284792
0.00332411
0.00385215
0.00442091
0.00501657
0.00566048
0.00634865
0.00704496
0.00783834
0.00947641
0.0118634
0.0143982
0.0164383
0.0170391
0.0106999
9.54182e-09
8.34016e-11
7.62915e-16
1.29676e-16
3.74661e-17
1.63243e-17
9.70209e-18
7.19829e-18
6.22976e-18
7.07297e-18
1.09752e-13
4.99473e-09
3.38948e-09
0.00743048
0.00366799
0.00572179
0.00579401
0.00585285
0.00591839
0.00592321
0.00585951
0.0057893
0.00572675
0.00562987
0.00553462
0.00546876
0.00540991
0.00537366
0.00536745
0.0053792
0.00541217
0.00546286
0.0055271
0.00559968
0.00568085
0.00576729
0.00584749
0.00590956
0.00596259
0.00601469
0.00606586
0.00611658
0.00616925
0.00623797
0.00630078
0.0063528
0.00630635
0.00610206
0.00574408
0.00583819
0.00642019
0.00514584
0.00439822
0.00447356
0.0043464
0.00414988
0.00409257
0.00411227
0.00415938
0.0042362
0.00429663
0.00435709
0.00445024
0.00454846
0.00465207
0.00477087
0.00489845
0.00504024
0.0052038
0.00538695
0.00558132
0.00580568
0.00619188
0.00681948
0.00745984
0.00452533
0.00842426
0.0114759
4.37212e-08
3.37287e-10
1.97738e-15
2.9847e-16
7.73306e-17
3.06047e-17
1.67442e-17
1.1604e-17
9.4999e-18
9.56466e-18
3.99927e-14
1.30786e-09
2.09593e-09
0.00584194
0.00862337
0.0151381
0.0153111
0.0153264
0.0153021
0.0152761
0.0152563
0.0152358
0.0152154
0.0151999
0.0151859
0.0151724
0.0151597
0.0151456
0.0151292
0.0151108
0.0150895
0.0150646
0.0150353
0.015002
0.014966
0.0149269
0.0148871
0.0148516
0.0148186
0.0147869
0.0147576
0.0147316
0.0147144
0.0147404
0.0147579
0.0147569
0.0145337
0.0139576
0.013044
0.0120493
0.0101635
0.00887677
0.00781034
0.00308674
0.0063487
0.00815896
0.00926451
0.0100576
0.0106129
0.0110477
0.0113911
0.011653
0.0118623
0.0120332
0.0121737
0.0122878
0.0123764
0.0124481
0.0125134
0.0125653
0.0125987
0.0126128
0.0124089
0.0120649
0.0106083
0.00917941
0.00871056
0.0117326
2.57082e-07
1.7574e-09
5.37077e-15
7.22268e-16
1.68165e-16
6.05402e-17
3.04909e-17
1.97081e-17
1.52157e-17
1.39626e-17
1.70709e-14
4.64629e-10
3.06131e-09
0.0141615
0.0185426
0.0193547
0.01901
0.0189387
0.018877
0.0188298
0.0188062
0.0187957
0.018792
0.0187971
0.0188081
0.0188222
0.0188385
0.0188545
0.0188684
0.01888
0.0188883
0.018892
0.0188902
0.0188834
0.0188735
0.01886
0.0188441
0.018831
0.0188191
0.0188062
0.0187939
0.0187827
0.018778
0.0187848
0.0187976
0.0188359
0.0188485
0.0186593
0.0183025
0.01764
0.0160575
0.0141254
0.0169187
0.016903
0.0175942
0.0183078
0.018765
0.0190865
0.0193251
0.0195024
0.019645
0.0197582
0.0198476
0.0199243
0.0199943
0.0200569
0.0201083
0.0201586
0.0202193
0.020277
0.0203166
0.0203504
0.0203739
0.0199961
0.0191092
0.0182176
0.0163417
0.0156553
2.0822e-06
1.27168e-08
1.52799e-14
1.83543e-15
3.84703e-16
1.26075e-16
5.84182e-17
3.51374e-17
2.54994e-17
2.16447e-17
8.25446e-15
4.66405e-11
1.02774e-09
0.0192224
0.0168219
0.0134217
0.0127243
0.0126031
0.0125547
0.0125243
0.0125147
0.0125209
0.012535
0.0125565
0.0125849
0.012617
0.0126511
0.0126859
0.0127193
0.0127509
0.0127799
0.012805
0.0128257
0.0128426
0.0128573
0.0128705
0.0128833
0.0128984
0.0129149
0.0129319
0.0129484
0.0129655
0.0129851
0.0130107
0.0130409
0.0130974
0.0133231
0.0137791
0.014363
0.0148758
0.0150679
0.014502
0.0178714
0.0170863
0.0168544
0.0168372
0.0166543
0.0164074
0.0162142
0.0160373
0.0158912
0.0157848
0.0157099
0.0156724
0.0156736
0.0157031
0.0157522
0.0158225
0.0159191
0.0160321
0.0161509
0.0162877
0.0165812
0.0171012
0.0174088
0.0176257
0.0171967
0.0171956
1.44849e-05
1.0418e-08
1.51265e-10
4.89392e-15
9.24689e-16
2.75795e-16
1.17469e-16
6.55802e-17
4.45827e-17
3.52132e-17
4.42014e-15
8.21039e-12
2.06521e-10
0.0130346
0.00626588
0.00570334
0.00503718
0.00503092
0.00507157
0.0050691
0.00501426
0.00496072
0.00491641
0.00484099
0.00476585
0.00471597
0.00466973
0.0046433
0.00464583
0.00466536
0.00470722
0.00476813
0.00484473
0.0049332
0.00503308
0.0051428
0.00524792
0.00533397
0.00541119
0.00548888
0.00556593
0.00564206
0.00571747
0.00579359
0.00586992
0.00595688
0.00611992
0.00643028
0.00335583
0.00689563
0.00972809
0.0111799
0.00905964
0.00926906
0.00798661
0.00709786
0.00632718
0.00550152
0.00471304
0.00396389
0.00322758
0.00251318
0.00181722
0.00117059
0.000732599
0.00073697
0.00109819
0.0015613
0.00205556
0.00256914
0.00309642
0.00356529
0.00419043
0.00624904
0.00857949
0.010849
0.0124141
0.0141636
7.68936e-05
1.20463e-07
1.57589e-09
1.36877e-14
2.33252e-15
6.33018e-16
2.47416e-16
1.27835e-16
8.11216e-17
5.96947e-17
2.59269e-15
1.74193e-12
4.30799e-11
0.00577567
0.00306563
0.00356917
0.00351762
0.00353672
0.00355159
0.00352711
0.00346163
0.00339591
0.00334017
0.00326361
0.00318671
0.00312857
0.00307389
0.00303329
0.00301399
0.00300775
0.00301823
0.00304397
0.00308246
0.00313113
0.00318954
0.00325731
0.00332379
0.00337632
0.00342217
0.00346832
0.00351488
0.00356141
0.0036076
0.0036545
0.00370243
0.00374662
0.00375234
0.00360005
0.00364257
0.0043305
0.00517822
0.00504454
0.0034203
0.00352245
0.00323723
0.00295766
0.00280997
0.00269596
0.00257604
0.0025148
0.0024828
0.00246242
0.00246163
0.00247286
0.00250423
0.00255734
0.00262322
0.00270262
0.0027951
0.00289965
0.00301435
0.00312688
0.00326978
0.00366734
0.00430341
0.00482382
0.00561315
0.00695448
0.000277567
8.66541e-07
1.02266e-08
4.01182e-14
6.1718e-15
1.52238e-15
5.45197e-16
2.59986e-16
1.53373e-16
1.05054e-16
1.67639e-15
4.26766e-13
1.2251e-09
0.00451918
0.00534165
0.0092929
0.00915013
0.0091196
0.00904951
0.00897599
0.00891034
0.00885566
0.00881659
0.00878757
0.00876299
0.00874474
0.00873098
0.00871891
0.0087095
0.00870305
0.0086983
0.00869558
0.00869439
0.00869526
0.00869893
0.00870677
0.0087198
0.00873623
0.00875343
0.00877039
0.00878855
0.00880744
0.00882677
0.00884866
0.00887399
0.00889289
0.0088235
0.00838877
0.00759981
0.00658458
0.00487175
0.00525756
0.00646743
0.0053163
0.0020872
0.00304737
0.00369356
0.00435593
0.00490655
0.00538982
0.00582052
0.00618178
0.00645579
0.00666204
0.00682422
0.00695696
0.00706836
0.00716263
0.00724562
0.00731453
0.00736664
0.0074039
0.00741021
0.00700491
0.00662998
0.00503813
0.00290676
0.00368709
0.000912025
5.98906e-06
7.021e-08
1.23115e-13
1.7113e-14
3.83503e-15
1.25593e-15
5.51086e-16
3.01185e-16
1.91565e-16
1.23248e-15
1.2292e-13
1.25648e-10
0.0113975
0.0148473
0.0157218
0.0154396
0.0153314
0.015249
0.0151858
0.0151509
0.0151374
0.0151406
0.0151566
0.0151782
0.0152031
0.015229
0.0152532
0.0152766
0.0152999
0.0153228
0.0153456
0.0153682
0.0153912
0.0154167
0.0154461
0.0154793
0.0155157
0.0155533
0.0155903
0.0156284
0.0156671
0.015705
0.0157454
0.0157898
0.0158401
0.0158865
0.0157301
0.0153177
0.0145295
0.0134372
0.0116104
0.0143167
0.0142792
0.0146142
0.0148177
0.014904
0.0150091
0.0151248
0.015243
0.0153742
0.0155175
0.015643
0.0157525
0.0158562
0.0159536
0.0160432
0.0161295
0.0162175
0.0162992
0.0163644
0.0164207
0.0164874
0.0163742
0.0158954
0.0150194
0.0139046
0.0127918
0.00458928
5.33134e-05
2.54818e-07
5.032e-09
4.96759e-14
1.01057e-14
3.0228e-15
1.21709e-15
6.14097e-16
3.61755e-16
1.08621e-15
4.38593e-14
2.01496e-11
0.0165696
0.0148491
0.0131547
0.0129987
0.0128797
0.0128441
0.0128379
0.012857
0.0128923
0.012935
0.0129843
0.0130368
0.0130871
0.0131347
0.013179
0.0132195
0.0132575
0.0132941
0.0133289
0.0133628
0.013396
0.0134302
0.0134664
0.0135028
0.0135407
0.0135809
0.0136208
0.0136609
0.0137017
0.0137416
0.013784
0.0138284
0.013877
0.0139886
0.0142144
0.0144136
0.0144546
0.0141855
0.0132029
0.0160484
0.0154575
0.0153256
0.0152156
0.0151003
0.0150432
0.0150287
0.0150285
0.015051
0.0151058
0.0151491
0.015178
0.0152198
0.0152661
0.0153135
0.0153679
0.0154343
0.0155064
0.0155753
0.0156467
0.0157748
0.0159968
0.0161373
0.0160453
0.0157731
0.015218
0.0106366
0.000337032
2.74314e-06
5.00982e-08
1.50739e-13
2.78315e-14
7.59105e-15
2.79987e-15
1.3e-15
7.07346e-16
1.18803e-15
2.02341e-14
4.30303e-12
0.012695
0.0076591
0.00422571
0.00436324
0.0043076
0.00437709
0.00446282
0.00451959
0.00456597
0.00460489
0.00463041
0.00464774
0.00466112
0.00467069
0.00467955
0.00468751
0.00469637
0.0047066
0.0047201
0.00473718
0.0047599
0.00478966
0.00482814
0.00487365
0.0049238
0.00497656
0.0050306
0.00508416
0.00513716
0.00518828
0.00523711
0.0052841
0.00530984
0.00539104
0.00616128
0.00742001
0.00893405
0.0103194
0.0108492
0.00884363
0.00854323
0.0073847
0.00753817
0.00769019
0.00769583
0.00762944
0.00754012
0.00745968
0.00739207
0.00734683
0.00730816
0.00727941
0.00726022
0.00725149
0.00725911
0.00728943
0.00734296
0.00741662
0.00750596
0.00763617
0.00815789
0.00926219
0.0104389
0.0115336
0.0123616
0.0118359
0.00140384
1.94931e-05
7.00578e-08
2.04507e-09
7.99795e-14
1.98687e-14
6.69942e-15
2.85593e-15
1.43155e-15
1.5818e-15
1.21094e-14
1.20229e-12
0.00566083
0.00292102
0.00169282
0.00174879
0.00174147
0.00179118
0.00182944
0.00183241
0.00182755
0.00182051
0.00179254
0.00175819
0.00172991
0.00169939
0.00167518
0.00166245
0.00165711
0.00166262
0.00167922
0.00170629
0.00174276
0.00178935
0.00184602
0.00190427
0.0019539
0.00199978
0.00204725
0.00209538
0.00214411
0.00219253
0.0022403
0.00228756
0.00232564
0.0023885
0.00276067
0.00336156
0.0041047
0.00150731
0.00606945
0.00338013
0.00328516
0.00293513
0.00293245
0.00300567
0.00302495
0.00296619
0.00292084
0.00287782
0.00282821
0.00280171
0.00277847
0.00276143
0.00275634
0.00275753
0.00276965
0.00279336
0.00282875
0.00287374
0.00292523
0.00299158
0.00320882
0.00365458
0.00412454
0.0048958
0.00550377
0.00761228
0.00350655
9.91359e-05
9.66791e-07
2.59033e-08
2.39202e-13
5.40857e-14
1.66521e-14
6.50266e-15
2.99605e-15
2.44867e-15
9.27911e-15
4.33512e-13
0.00260999
0.00411198
0.00454894
0.00444237
0.00447336
0.00452141
0.00451587
0.00445431
0.00438829
0.00432971
0.00423751
0.00413837
0.00405808
0.00397485
0.00390624
0.00386563
0.00384155
0.00384337
0.00387007
0.00392017
0.00398939
0.00407837
0.00418589
0.00429067
0.0043683
0.00443361
0.0045006
0.00456934
0.00464013
0.00471163
0.00478477
0.0048596
0.00493672
0.00501813
0.00503369
0.00492668
0.00465026
0.00435033
0.00465765
0.00427808
0.00348507
0.00372545
0.00370382
0.00381395
0.0039265
0.00396506
0.00402318
0.00407214
0.00409515
0.00413132
0.00416221
0.00418975
0.00422516
0.00425976
0.0042995
0.00434356
0.00438996
0.00443394
0.0044746
0.00451151
0.00453493
0.00441166
0.0041502
0.00382553
0.00417324
0.00460038
0.00316028
0.000344518
6.93885e-06
1.93747e-07
7.43122e-13
1.52768e-13
4.29035e-14
1.53214e-14
6.47714e-15
4.22543e-15
8.97643e-15
2.00093e-13
0.00710654
0.0111628
0.0117647
0.0114959
0.0114873
0.0114807
0.0114588
0.0114432
0.0114367
0.0114413
0.0114568
0.0114762
0.0114972
0.0115196
0.0115413
0.0115626
0.0115843
0.0116064
0.0116291
0.0116526
0.0116771
0.0117036
0.0117333
0.0117663
0.0118017
0.0118377
0.0118736
0.0119104
0.0119499
0.0119908
0.0120355
0.0120835
0.0121363
0.0122007
0.0121062
0.0117223
0.0109492
0.0100054
0.0086071
0.00973818
0.00937985
0.00971159
0.00988357
0.0101428
0.0103938
0.0106236
0.0108285
0.0110158
0.0111839
0.0113357
0.0114738
0.0115968
0.0117054
0.0118023
0.0118934
0.011983
0.0120685
0.0121426
0.0122048
0.0122605
0.012298
0.0119525
0.0112585
0.0103524
0.00951989
0.00828725
0.00656125
0.00145733
5.21286e-05
8.06955e-07
3.15324e-08
4.46812e-13
1.14323e-13
3.72847e-14
1.44397e-14
7.88755e-15
1.0647e-14
1.16331e-13
0.0138292
0.0134642
0.0130473
0.0128158
0.0127271
0.012706
0.0126916
0.012694
0.0127115
0.0127402
0.0127786
0.0128204
0.0128623
0.0129042
0.0129448
0.0129841
0.0130231
0.0130622
0.0131015
0.0131412
0.0131818
0.0132243
0.0132695
0.0133168
0.0133657
0.0134151
0.0134636
0.0135119
0.0135622
0.0136136
0.0136687
0.013727
0.0137915
0.0138901
0.0139772
0.0139262
0.0137376
0.0132054
0.0120321
0.0140772
0.0134983
0.0135142
0.0136085
0.0136693
0.0137167
0.013781
0.013845
0.0139112
0.0139796
0.0140481
0.0141184
0.0141874
0.014252
0.014314
0.0143789
0.0144516
0.014529
0.014603
0.0146709
0.0147388
0.0148586
0.0148537
0.0146244
0.0142285
0.0136306
0.0126244
0.0112242
0.00537047
0.000329412
9.54721e-06
9.81142e-08
4.77917e-09
3.14432e-13
9.35405e-14
3.31482e-14
1.56126e-14
1.48539e-14
8.33727e-14
0.0124662
0.00830382
0.0072637
0.00719956
0.00704564
0.0070288
0.00704603
0.00706922
0.00710158
0.00713771
0.00717472
0.00721169
0.00724733
0.00728099
0.00731319
0.00734363
0.00737386
0.00740302
0.0074321
0.00746046
0.00748958
0.00751877
0.0075489
0.00758055
0.00761248
0.00764502
0.00767666
0.00770866
0.00774278
0.00777825
0.00781587
0.00785614
0.00789702
0.00797248
0.00827991
0.00887835
0.00966355
0.0103817
0.0104955
0.01049
0.0102571
0.00980754
0.00965247
0.00958499
0.00950088
0.00942144
0.00934195
0.0092656
0.0092007
0.0091462
0.00910606
0.00907866
0.00906073
0.00905229
0.00905601
0.00907551
0.0091094
0.00915299
0.00920493
0.00926277
0.00940838
0.00990735
0.0105049
0.0110657
0.0114574
0.0116589
0.0115318
0.0091615
0.00140842
6.40368e-05
1.49945e-06
6.72095e-08
8.91343e-13
2.41574e-13
7.82314e-14
3.23626e-14
2.34193e-14
7.25959e-14
0.0048461
0.00358653
0.00294129
0.00291339
0.00287273
0.00289824
0.00290783
0.00288234
0.00285469
0.00282963
0.00277861
0.0027199
0.0026712
0.0026175
0.00257152
0.00254328
0.00252545
0.00252525
0.00254299
0.00257776
0.00262754
0.00269287
0.00277285
0.00285081
0.00290749
0.00295458
0.00300332
0.00305378
0.00310652
0.00316077
0.00321665
0.00327441
0.00333316
0.00340727
0.0035832
0.00389072
0.00438838
0.00380004
0.00622787
0.0040551
0.00398783
0.00393969
0.00379064
0.00377811
0.00376318
0.00368717
0.00363949
0.00359126
0.00353137
0.0034937
0.00346173
0.00343696
0.00342658
0.00342227
0.0034278
0.00344279
0.00346629
0.0034953
0.00352806
0.00356071
0.00362058
0.00381117
0.0041511
0.00301413
0.00552507
0.00729101
0.00857688
0.00888223
0.00385765
0.000301758
1.21306e-05
5.49213e-07
2.60208e-12
6.41844e-13