/*--------------------------------*- C++ -*----------------------------------*\
| =========                 |                                                 |
| \\      /  F ield         | OpenFOAM: The Open Source CFD Toolbox           |
|  \\    /   O peration     | Version:  2312                                  |
|   \\  /    A nd           | Website:  www.openfoam.com                      |
|    \\/     M anipulation  |                                                 |
\*---------------------------------------------------------------------------*/
FoamFile
{
    version     2.0;
    format      ascii;
    arch        "LSB;label=32;scalar=64";
    class       surfaceScalarField;
    location    "51.252274416276187";
    object      phi;
}
// * * * * * * * * * * * * * * * * * * * * * * * * * * * * * * * * * * * * * //

dimensions      [0 3 -1 0 0 0 0];

oriented        oriented;

internalField   nonuniform List<scalar> 
41713
(
0.00736491
0.0568815
0.00362804
0.0679833
0.00211602
0.0657585
0.00148337
0.0648791
0.00109726
0.0646325
0.000842666
0.064501
0.000667055
0.064422
0.000539512
0.064374
0.000443425
0.0643425
0.00036914
0.0643207
0.000310533
0.064305
0.000263548
0.0642934
0.000225421
0.0642846
0.000194212
0.0642776
0.000168527
0.0642721
0.000147347
0.0642676
0.000129911
0.0642639
0.000115636
0.0642607
0.000104069
0.064258
9.48315e-05
0.0642557
8.7571e-05
0.0642537
8.19333e-05
0.0642521
7.76409e-05
0.0642507
7.45263e-05
0.0548143
7.19154e-05
0.0456786
6.95575e-05
0.0380657
6.74291e-05
0.0317216
6.55336e-05
0.0264348
0.0220291
6.38309e-05
0.00999537
0.0468862
0.00842934
0.0695493
0.00571659
0.0684712
0.00412229
0.0664734
0.003121
0.0656338
0.00242894
0.0651931
0.00193033
0.0649207
0.00155972
0.0647446
0.0012768
0.0646254
0.00105579
0.0645417
0.000879743
0.0644811
0.000737279
0.0644359
0.00062055
0.0644013
0.000524018
0.0643742
0.000443695
0.0643524
0.000376663
0.0643346
0.000320756
0.0643198
0.000274337
0.0643071
0.000236151
0.0642962
0.000205212
0.0642866
0.000180718
0.0642782
0.000161972
0.0642708
0.00014827
0.0642644
0.000139686
0.0548229
0.000134149
0.0456841
0.00013027
0.0380696
0.000127238
0.0317246
0.000124645
0.0264373
0.0220313
0.000122459
0.00859797
0.0382882
0.00971129
0.068436
0.00747294
0.0707095
0.00570324
0.0682431
0.00451438
0.0668227
0.00362854
0.0660789
0.00294545
0.0656038
0.00241351
0.0652765
0.00199404
0.0650449
0.00165849
0.0648773
0.0013864
0.0647532
0.00116316
0.0646591
0.000978218
0.0645862
0.000823868
0.0645285
0.000694445
0.0644819
0.000585734
0.0644434
0.00049457
0.0644109
0.000418555
0.0643831
0.00035585
0.0643589
0.000305024
0.0643374
0.000264943
0.0643183
0.000234667
0.0643011
0.000213252
0.0642858
0.000200751
0.0548354
0.000193538
0.0456913
0.000189108
0.038074
0.00018599
0.0317277
0.000183457
0.0264399
0.0220333
0.000181377
0.00677679
0.0315114
0.00947983
0.065733
0.00812613
0.0720633
0.00644615
0.0699231
0.00525524
0.0680136
0.00435004
0.0669841
0.00361886
0.0663349
0.0030223
0.0658731
0.00253322
0.065534
0.00212959
0.0652809
0.00179413
0.0650886
0.00151344
0.0649398
0.00127722
0.0648225
0.00107758
0.0647282
0.000908473
0.064651
0.00076529
0.0645865
0.000644486
0.0645317
0.000543339
0.0644843
0.000459748
0.0644425
0.000392075
0.0644051
0.000339032
0.0643713
0.000299551
0.0643406
0.00027248
0.0643129
0.000257612
0.0548502
0.000249865
0.0456991
0.00024574
0.0380781
0.000243235
0.0317302
0.000241418
0.0264417
0.0220347
0.000240092
0.00506688
0.0264445
0.00857598
0.0622239
0.00819047
0.0724488
0.00674752
0.071366
0.00559308
0.069168
0.00471835
0.0678589
0.00400157
0.0670517
0.00339881
0.0664758
0.00288912
0.0660437
0.00245655
0.0657135
0.00208815
0.065457
0.00177339
0.0652546
0.00150381
0.065092
0.00127263
0.0649593
0.00107448
0.0648491
0.000905096
0.0647559
0.000761157
0.0646757
0.000640056
0.0646054
0.000539763
0.0645428
0.000458691
0.0644862
0.000395588
0.0644344
0.000349398
0.0643868
0.000318868
0.0643434
0.000303373
0.0548657
0.000296493
0.045706
0.000293854
0.0380807
0.000293001
0.0317311
0.000292822
0.0264419
0.0220344
0.000293053
0.00362009
0.0228244
0.00731877
0.0585252
0.00779554
0.071972
0.00673923
0.0724223
0.0056804
0.0702269
0.00485737
0.0686819
0.00417898
0.0677301
0.0035967
0.0670581
0.00309257
0.0665478
0.00265505
0.066151
0.00227463
0.0658375
0.00194342
0.0655858
0.00165498
0.0653805
0.00140404
0.0652103
0.0011863
0.0650669
0.000998316
0.0649439
0.000837322
0.0648367
0.000701154
0.0647416
0.000588118
0.0646558
0.000496901
0.0645774
0.000426471
0.0645048
0.00037594
0.0644373
0.000344106
0.0643753
0.000329768
0.0548801
0.000325255
0.0457105
0.000325401
0.0380806
0.000327347
0.0317291
0.000329817
0.0264394
0.0220318
0.000332487
0.00252454
0.0202999
0.00602742
0.0550223
0.007114
0.0708854
0.00648948
0.0730468
0.00558138
0.071135
0.00482993
0.0694333
0.00420474
0.0683553
0.00365841
0.0676045
0.00317489
0.0670313
0.00274654
0.0665794
0.00236704
0.066217
0.00203099
0.0659218
0.0017338
0.0656777
0.00147172
0.0654724
0.0012416
0.065297
0.00104095
0.0651446
0.000867741
0.0650099
0.000720426
0.0648889
0.000597822
0.0647784
0.000499052
0.0646762
0.000423469
0.0645804
0.000370497
0.0644903
0.000339127
0.0644067
0.000327453
0.0548917
0.000326627
0.0457113
0.000330753
0.0380765
0.000336604
0.0317233
0.000342748
0.0264333
0.0220257
0.000348789
0.00176016
0.0185397
0.00489739
0.0518851
0.00633963
0.0694432
0.00609993
0.0732865
0.00536123
0.0718737
0.0046867
0.0701079
0.00411805
0.068924
0.00361456
0.068108
0.00315995
0.0674859
0.00274907
0.0669902
0.00237839
0.0665876
0.00204473
0.0662555
0.00174529
0.0659771
0.00147772
0.06574
0.00124005
0.0655346
0.00103073
0.0653539
0.000848564
0.0651921
0.000692684
0.0650448
0.000562528
0.0649086
0.000457778
0.0647809
0.000378292
0.0646599
0.000323939
0.0645446
0.000294035
0.0644366
0.000285964
0.0548998
0.000289769
0.0457075
0.000298853
0.0380674
0.00030961
0.0317125
0.000320417
0.0264225
0.0220154
0.000330767
0.00124921
0.0172905
0.00397684
0.0491575
0.00558618
0.0678338
0.00565373
0.073219
0.00507984
0.0724476
0.00447704
0.0707107
0.00395772
0.0694433
0.00349452
0.0685712
0.00306992
0.0679105
0.00267935
0.0673808
0.002321
0.066946
0.00199337
0.0665831
0.00169512
0.0662753
0.00142513
0.0660099
0.0011825
0.0657773
0.000966577
0.0655698
0.000776988
0.0653816
0.000613597
0.0652081
0.000476513
0.0650457
0.000366056
0.0648914
0.000282694
0.0647433
0.000226861
0.0646005
0.000198345
0.0644651
0.000193989
0.0549042
0.000202755
0.0456987
0.000217334
0.0380528
0.000233721
0.0316961
0.000250041
0.0264061
0.0219998
0.000265584
0.000914643
0.0163759
0.00324676
0.0468254
0.00489674
0.0661839
0.00519417
0.0729216
0.0047717
0.07287
0.00423442
0.0712479
0.0037545
0.0699232
0.00332401
0.0690017
0.00292538
0.0683092
0.00255344
0.0677528
0.0022071
0.0672923
0.0018859
0.0669043
0.00158953
0.0665717
0.00131779
0.0662817
0.00107066
0.0660244
0.000848312
0.0657922
0.000651109
0.0655788
0.000479633
0.0653796
0.000334685
0.0651906
0.000217291
0.0650088
0.000128615
0.064832
6.97736e-05
0.0646593
4.11721e-05
0.0644937
3.94382e-05
0.0549059
5.25512e-05
0.0456856
7.24245e-05
0.0380329
9.45416e-05
0.031674
0.00011676
0.0263839
0.0219784
0.000138152
0.000696672
0.0156792
0.00267387
0.0448482
0.00428379
0.0645739
0.00474206
0.0724633
0.00445268
0.0731594
0.00397573
0.0717249
0.0035269
0.070372
0.00312088
0.0694077
0.00274219
0.0686878
0.00238477
0.0681102
0.00204764
0.0676295
0.00173089
0.0672211
0.00143485
0.0668678
0.00115999
0.0665565
0.000906953
0.0662774
0.00067657
0.0660225
0.000469864
0.0657856
0.000288099
0.0655614
0.000132749
0.065346
5.48908e-06
0.065136
-9.17751e-05
0.0649292
-0.00015712
0.0647246
-0.000189335
0.0645259
-0.000191204
0.0549078
-0.000175715
0.0456701
-0.000151825
0.038009
-0.000124775
0.031647
-9.73533e-05
0.0263565
0.0219519
-7.08219e-05
0.000551717
0.0151275
0.0022242
0.0431757
0.00374701
0.0630511
0.004309
0.0719013
0.00413163
0.0733368
0.00370968
0.0721468
0.00328545
0.0707963
0.00289643
0.0697967
0.00253137
0.0690529
0.0021835
0.068458
0.00185154
0.0679614
0.00153583
0.0675368
0.00123707
0.0671665
0.000956183
0.0668374
0.000694284
0.0665393
0.000452724
0.0662641
0.000233092
0.0660052
3.71659e-05
0.0657573
-0.00013301
0.0655161
-0.000275024
0.065278
-0.000386134
0.0650403
-0.000463528
0.064802
-0.000505074
0.0645674
-0.000511928
0.0549146
-0.000497755
0.045656
-0.000472297
0.0379836
-0.000441418
0.0316161
-0.000408537
0.0263236
0.0219192
-0.000375788
0.000450563
0.0146769
0.0018677
0.0417585
0.00327972
0.0616391
0.00390119
0.0712798
0.00381462
0.0734233
0.00344186
0.0725196
0.00303706
0.0712011
0.00265857
0.0701752
0.00230105
0.0694104
0.0019575
0.0688016
0.00162616
0.0682928
0.00130734
0.0678556
0.0010019
0.067472
0.000711017
0.0671283
0.000436152
0.0668142
0.000178996
0.0665213
-5.8532e-05
0.0662427
-0.000274186
0.065973
-0.000465262
0.0657072
-0.000628608
0.0654414
-0.000760753
0.0651725
-0.000858108
0.0648994
-0.000917696
0.064627
-0.000937513
0.0549344
-0.000931346
0.0456498
-0.000909588
0.0379618
-0.000878909
0.0315854
-0.000843597
0.0262883
0.0218822
-0.00080662
0.000375567
0.0143013
0.0015807
0.0405534
0.00287294
0.0603469
0.00352104
0.0706317
0.0035057
0.0734387
0.0031762
0.0728491
0.00278681
0.0715905
0.0024135
0.0705485
0.00205799
0.0697659
0.00171369
0.0691459
0.0013783
0.0686282
0.00105187
0.068182
0.000735258
0.0677886
0.000429746
0.0674338
0.000136875
0.0671071
-0.000141544
0.0667997
-0.000403285
0.0665045
-0.000645572
0.0662153
-0.000865118
0.0659268
-0.00105819
0.0656345
-0.00122068
0.065335
-0.00134845
0.0650272
-0.00143815
0.0647167
-0.00148305
0.0549793
-0.00149621
0.045663
-0.00148786
0.0379535
-0.00146495
0.0315625
-0.00143272
0.0262561
0.021845
-0.00139555
0.000316679
0.0139847
0.00134755
0.0395225
0.00252086
0.0591736
0.00317107
0.0699815
0.0032083
0.0734015
0.00291534
0.0731421
0.00253799
0.0719678
0.00216567
0.0709208
0.00180744
0.0701242
0.00145777
0.0694956
0.00111385
0.0689721
0.000775379
0.0685205
0.000443026
0.0681209
0.000117913
0.0677589
-0.000198538
0.0674235
-0.000504427
0.0671056
-0.000797214
0.0667972
-0.00107375
0.0664918
-0.0013303
0.0661833
-0.00156256
0.0658667
-0.00176592
0.0655383
-0.0019361
0.0651973
-0.0020705
0.0648511
-0.002157
0.0550658
-0.00220756
0.0457135
-0.00223065
0.0379766
-0.00223136
0.0315632
-0.00221429
0.026239
0.0218157
-0.00218497
0.000230985
0.0137537
0.000985999
0.0387675
0.00188667
0.0582729
0.00242461
0.0694436
0.00248571
0.0733404
0.00226247
0.0733653
0.00195176
0.0722785
0.00163654
0.071236
0.00132989
0.0704308
0.0010282
0.0697973
0.000728737
0.0692715
0.000430837
0.0688184
0.000134754
0.068417
-0.000158913
0.0680526
-0.000449146
0.0677138
-0.000734359
0.0673908
-0.00101241
0.0670753
-0.00128051
0.0667599
-0.00153522
0.066438
-0.00177237
0.0661039
-0.00198737
0.0657533
-0.00217609
0.0653861
-0.00233692
0.065012
-0.00245533
0.0551842
-0.00254286
0.045801
-0.00260631
0.03804
-0.00264678
0.0316037
-0.00266399
0.0262562
0.0218131
-0.00266137
0.000171902
0.0135818
0.000732573
0.0382069
0.0014248
0.0575807
0.00186187
0.0690065
0.00192865
0.0732736
0.00175665
0.0735373
0.00150181
0.0725333
0.00123735
0.0715005
0.000977648
0.0706905
0.000720359
0.0700546
0.000462909
0.069529
0.000204378
0.0690769
-5.54118e-05
0.0686768
-0.000316262
0.0683135
-0.000577551
0.067975
-0.000838219
0.0676514
-0.00109671
0.0673338
-0.00135086
0.067014
-0.00159776
0.0666849
-0.00183366
0.0663398
-0.00205407
0.0659737
-0.00225444
0.0655864
-0.00243228
0.0651898
-0.00256999
0.055322
-0.00268141
0.0459125
-0.00277783
0.0381364
-0.00286383
0.0316897
-0.00293691
0.0263293
0.0218596
-0.00298344
0.000132079
0.0134497
0.00055722
0.0377817
0.00109565
0.0570422
0.00145005
0.0686521
0.00151427
0.0732094
0.00137984
0.0736717
0.00117046
0.0727427
0.00094909
0.0717219
0.000729832
0.0709098
0.00051122
0.0702732
0.00029092
0.0697493
6.78724e-05
0.0693
-0.000158377
0.068903
-0.000387935
0.068543
-0.000620571
0.0682077
-0.000855767
0.0678866
-0.00109259
0.0675706
-0.00132956
0.067251
-0.00156454
0.0669199
-0.00179451
0.0665697
-0.00201544
0.0661947
-0.00222257
0.0657936
-0.00241114
0.0653784
-0.0025566
0.0554674
-0.00267062
0.0460265
-0.00276981
0.0382356
-0.00286847
0.0317883
-0.00298467
0.0264455
0.0220035
-0.00312856
0.000100838
0.0133489
0.000431285
0.0374513
0.000858761
0.0566148
0.00114833
0.0683625
0.00120514
0.0731526
0.00109641
0.0737805
0.000922732
0.0729164
0.000737567
0.071907
0.000553197
0.0710941
0.000368293
0.0704581
0.000180717
0.0699369
-1.05919e-05
0.0694913
-0.000206178
0.0690986
-0.000406368
0.0687432
-0.000611302
0.0684126
-0.000820905
0.0680962
-0.00103482
0.0677845
-0.00125227
0.0674685
-0.00147193
0.0671395
-0.00169177
0.0667896
-0.00190896
0.0664119
-0.00211988
0.0660045
-0.00231955
0.065578
-0.00247592
0.0556238
-0.00258918
0.0461397
-0.00266583
0.0383123
-0.00271571
0.0318382
-0.0027571
0.0264869
-0.00292665
0.022173
0.000108291
0.0219829
0.000150237
0.0219854
0.000183243
0.0219943
0.000213909
0.0219967
0.000238759
0.0220025
0.000259081
0.022007
0.000276375
0.0220101
0.000287353
0.0220164
0.000296327
0.0220184
0.000300282
0.0220234
0.000301169
0.0220265
0.000299531
0.022029
0.000293449
0.0220334
0.000285764
0.022035
0.000274828
0.0220383
0.000261585
0.0220406
0.000247004
0.0220419
0.000229443
0.0220449
0.000210813
0.022046
0.00019094
0.0220472
0.000169499
0.0220488
0.000147438
0.0220494
0.000124703
0.0220501
0.000101452
0.0220506
7.80868e-05
0.0220507
5.47732e-05
0.0220507
3.18971e-05
0.0220502
9.45551e-06
0.0220498
-1.22306e-05
0.022049
-3.25206e-05
0.0220476
-5.19119e-05
0.0220467
-6.95734e-05
0.022045
-8.52012e-05
0.022043
-9.95614e-05
0.0220417
-0.000110614
0.0220384
-0.000119683
0.0220364
-0.000126462
0.0220341
-0.000129054
0.0220299
-0.000129853
0.0220282
-0.000125967
0.0220235
-0.00011891
0.0220203
-0.000108717
0.0220172
-9.27102e-05
0.0220113
-7.45298e-05
0.0220092
-4.96163e-05
0.0220024
-2.12452e-05
0.021999
1.19491e-05
0.0219942
5.15148e-05
0.0219878
0.0219853
9.35969e-05
0.000166496
0.0219389
0.000208242
0.0219437
0.000241277
0.0219613
0.000272211
0.0219658
0.000297577
0.0219771
0.00031866
0.021986
0.000336947
0.0219918
0.00034915
0.0220042
0.000359557
0.022008
0.00036515
0.0220178
0.000367865
0.0220238
0.000368226
0.0220286
0.000364311
0.0220374
0.000358937
0.0220404
0.000350451
0.0220468
0.000339781
0.0220513
0.000327877
0.0220538
0.000313096
0.0220597
0.000297325
0.0220618
0.000280378
0.0220642
0.000261924
0.0220673
0.000242887
0.0220685
0.000223205
0.0220698
0.000203028
0.0220708
0.000182735
0.022071
0.000162483
0.0220709
0.000142652
0.0220701
0.000123216
0.0220692
0.000104487
0.0220678
8.71013e-05
0.022065
7.05327e-05
0.0220633
5.56071e-05
0.0220599
4.2614e-05
0.022056
3.07635e-05
0.0220536
2.20998e-05
0.0220471
1.52708e-05
0.0220433
1.05725e-05
0.0220388
9.89989e-06
0.0220306
1.08289e-05
0.0220272
1.6257e-05
0.022018
2.46452e-05
0.0220119
3.59459e-05
0.0220059
5.28375e-05
0.0219945
7.16461e-05
0.0219904
9.69402e-05
0.0219771
0.00012541
0.0219705
0.000158407
0.0219612
0.000197458
0.0219487
0.021944
0.000238681
0.000225436
0.0218948
0.000267414
0.0219017
0.00030094
0.0219278
0.000332612
0.0219341
0.00035897
0.0219508
0.000381288
0.0219636
0.000401037
0.021972
0.000414929
0.0219903
0.000427228
0.0219957
0.000434914
0.0220101
0.000439903
0.0220188
0.000442708
0.0220258
0.000441402
0.0220387
0.000438778
0.022043
0.000433177
0.0220524
0.000425512
0.0220589
0.000416711
0.0220626
0.000405138
0.0220713
0.000392646
0.0220742
0.000379042
0.0220778
0.00036399
0.0220823
0.000348387
0.0220841
0.000332162
0.022086
0.00031546
0.0220875
0.000298632
0.0220878
0.000281828
0.0220877
0.000265421
0.0220865
0.00024936
0.0220853
0.000233947
0.0220832
0.000219811
0.0220792
0.000206401
0.0220767
0.000194539
0.0220718
0.000184501
0.022066
0.000175471
0.0220626
0.000169502
0.022053
0.00016521
0.0220475
0.00016288
0.0220412
0.000164408
0.0220291
0.000167336
0.0220243
0.00017457
0.0220108
0.000184542
0.0220019
0.000197193
0.0219932
0.000215203
0.0219764
0.00023486
0.0219707
0.000260745
0.0219513
0.000289513
0.0219417
0.000322509
0.0219282
0.000361245
0.02191
0.0219035
0.000401799
0.000284873
0.02185
0.000327763
0.0218588
0.000362437
0.0218931
0.0003955
0.021901
0.000423503
0.0219228
0.000447711
0.0219394
0.000469587
0.0219501
0.000485839
0.021974
0.000500708
0.0219808
0.000511171
0.0219997
0.000519127
0.0220108
0.00052507
0.0220199
0.000527074
0.0220367
0.0005279
0.0220422
0.000525889
0.0220544
0.000521935
0.0220629
0.000516944
0.0220676
0.000509283
0.0220789
0.000500775
0.0220828
0.000491214
0.0220873
0.00048026
0.0220933
0.000468783
0.0220955
0.000456701
0.0220981
0.000444151
0.0221
0.000431459
0.0221005
0.000418762
0.0221004
0.000406431
0.0220988
0.000394383
0.0220973
0.000382913
0.0220947
0.000372645
0.0220894
0.000362996
0.0220864
0.000354786
0.02208
0.000348278
0.0220725
0.000342628
0.0220682
0.0003399
0.0220558
0.000338676
0.0220488
0.00033923
0.0220406
0.000343463
0.0220249
0.000348877
0.0220189
0.000358391
0.0220013
0.000370412
0.0219899
0.000384863
0.0219788
0.000404434
0.0219569
0.000425371
0.0219498
0.000452275
0.0219244
0.000481762
0.0219123
0.000515169
0.0218948
0.000554007
0.0218712
0.0218632
0.000594302
0.000339464
0.0218036
0.000384165
0.0218141
0.000420879
0.0218564
0.000456224
0.0218657
0.000486761
0.0218922
0.000513756
0.0219124
0.000538661
0.0219252
0.000558184
0.0219545
0.000576543
0.0219624
0.000590713
0.0219855
0.000602572
0.0219989
0.0006126
0.0220099
0.000618867
0.0220304
0.000624104
0.022037
0.00062665
0.0220518
0.000627376
0.0220622
0.000627169
0.0220678
0.000624397
0.0220817
0.00062085
0.0220863
0.000616308
0.0220919
0.000610427
0.0220991
0.000604045
0.0221019
0.000597072
0.0221051
0.000589634
0.0221075
0.000582028
0.0221081
0.000574381
0.0221081
0.000567057
0.0221061
0.000559942
0.0221045
0.00055332
0.0221013
0.000547812
0.0220949
0.000542799
0.0220914
0.000539101
0.0220837
0.000536967
0.0220747
0.00053552
0.0220697
0.000536839
0.0220545
0.000539471
0.0220461
0.000543677
0.0220364
0.000551366
0.0220172
0.000559997
0.0220103
0.000572508
0.0219888
0.000587275
0.0219752
0.000604208
0.0219618
0.000626011
0.0219351
0.000648884
0.0219269
0.000677456
0.0218958
0.000708306
0.0218814
0.000742765
0.0218603
0.000782344
0.0218316
0.0218225
0.000823016
0.000381605
0.0217545
0.000429208
0.0217665
0.000469053
0.0218166
0.00050778
0.0218269
0.000541964
0.0218581
0.000572871
0.0218815
0.000601947
0.0218962
0.0006259
0.0219306
0.000648925
0.0219394
0.000667994
0.0219664
0.000684967
0.021982
0.000700305
0.0219945
0.000712073
0.0220186
0.000722974
0.0220261
0.00073134
0.0220435
0.000738022
0.0220555
0.000743879
0.022062
0.000747285
0.0220783
0.000749991
0.0220836
0.000751762
0.0220901
0.000752251
0.0220986
0.000752258
0.0221019
0.000751681
0.0221056
0.000750639
0.0221085
0.000749394
0.0221094
0.00074806
0.0221094
0.000746995
0.0221072
0.000746048
0.0221054
0.000745493
0.0221018
0.000745945
0.0220945
0.000746747
0.0220906
0.000748718
0.0220817
0.000752091
0.0220713
0.000755955
0.0220658
0.000762407
0.022048
0.000769951
0.0220386
0.000778837
0.0220275
0.000790987
0.022005
0.000803808
0.0219974
0.000820265
0.0219723
0.0008387
0.0219567
0.00085901
0.0219415
0.00088392
0.0219102
0.000909574
0.0219012
0.000940646
0.0218647
0.000973664
0.0218484
0.00100996
0.021824
0.00105106
0.0217905
0.0217807
0.00109285
0.000401861
0.0217014
0.00045364
0.0217147
0.000497914
0.0217723
0.000541345
0.0217835
0.000580522
0.0218189
0.000616715
0.0218453
0.000651364
0.0218615
0.000681176
0.0219007
0.000710328
0.0219103
0.000735786
0.021941
0.000759388
0.0219584
0.000781579
0.0219723
0.000800415
0.0219998
0.00081857
0.0220079
0.000834365
0.0220277
0.000848629
0.0220412
0.000862196
0.0220484
0.000873434
0.0220671
0.000884058
0.022073
0.000893817
0.0220804
0.000902351
0.0220901
0.000910425
0.0220938
0.000917922
0.0220981
0.000924944
0.0221015
0.000931722
0.0221026
0.000938349
0.0221028
0.000945176
0.0221004
0.000952011
0.0220986
0.000959114
0.0220947
0.000967093
0.0220865
0.000975247
0.0220824
0.000984394
0.0220726
0.000994747
0.0220609
0.00100536
0.0220552
0.00101834
0.022035
0.00103215
0.0220248
0.00104703
0.0220126
0.00106492
0.0219871
0.00108315
0.0219792
0.00110474
0.0219507
0.00112798
0.0219335
0.00115277
0.0219167
0.00118184
0.0218811
0.00121128
0.0218718
0.00124583
0.0218302
0.00128195
0.0218123
0.00132098
0.021785
0.00136444
0.021747
0.021737
0.00140819
0.000389184
0.021643
0.000446583
0.0216573
0.000496764
0.0217221
0.000546426
0.0217339
0.000592165
0.0217731
0.00063526
0.0218022
0.000677152
0.0218196
0.000714534
0.0218634
0.000751579
0.0218732
0.000785233
0.0219073
0.000817322
0.0219263
0.000848268
0.0219414
0.000876111
0.0219719
0.000903499
0.0219805
0.000928737
0.0220024
0.000952629
0.0220173
0.000975978
0.0220251
0.000997145
0.0220459
0.0010178
0.0220523
0.00103768
0.0220605
0.0010564
0.0220714
0.00107469
0.0220755
0.00109241
0.0220804
0.00110965
0.0220843
0.00112658
0.0220857
0.00114329
0.0220861
0.00116011
0.0220835
0.00117681
0.0220819
0.00119361
0.0220779
0.00121113
0.022069
0.00122861
0.022065
0.00124686
0.0220543
0.00126607
0.0220417
0.00128525
0.022036
0.00130653
0.0220137
0.00132832
0.022003
0.00135084
0.0219901
0.00137604
0.0219619
0.00140121
0.021954
0.00142937
0.0219226
0.00145881
0.021904
0.00148937
0.0218862
0.00152385
0.0218466
0.00155826
0.0218374
0.00159739
0.021791
0.00163766
0.021772
0.00168041
0.0217422
0.00172718
0.0217003
0.0216905
0.00177372
0.000330839
0.0215777
0.000395411
0.0215927
0.000453117
0.0216644
0.000510729
0.0216762
0.000564832
0.021719
0.00061671
0.0217504
0.000667805
0.0217685
0.000714791
0.0218164
0.000761841
0.0218262
0.000805874
0.0218633
0.000848701
0.0218835
0.000890724
0.0218994
0.000929954
0.0219327
0.000969021
0.0219415
0.0010062
0.0219653
0.00104227
0.0219813
0.001078
0.0219893
0.00111173
0.0220122
0.0011451
0.0220189
0.0011778
0.0220278
0.00120943
0.0220398
0.00124067
0.0220443
0.00127136
0.0220497
0.00130155
0.0220541
0.00133138
0.0220558
0.0013609
0.0220566
0.00139041
0.022054
0.00141963
0.0220527
0.00144877
0.0220488
0.0014784
0.0220394
0.00150772
0.0220356
0.00153752
0.0220245
0.00156797
0.0220113
0.00159802
0.022006
0.00162983
0.0219819
0.00166172
0.0219711
0.00169392
0.0219579
0.00172838
0.0219275
0.00176231
0.0219201
0.0017988
0.0218861
0.00183605
0.0218668
0.00187392
0.0218483
0.00191524
0.0218053
0.00195594
0.0217967
0.00200088
0.0217461
0.00204641
0.0217265
0.00209391
0.0216947
0.0021449
0.0216493
0.0216403
0.00219507
0.000211902
0.021504
0.000285242
0.0215194
0.000352308
0.0215973
0.000419816
0.0216087
0.000484298
0.0216546
0.000547077
0.0216876
0.000609627
0.021706
0.000668581
0.0217574
0.000728129
0.0217666
0.000785142
0.0218063
0.000841422
0.0218272
0.000897347
0.0218434
0.000950884
0.0218792
0.00100465
0.0218877
0.00105688
0.021913
0.00110832
0.0219298
0.0011597
0.0219379
0.00120933
0.0219625
0.0012588
0.0219695
0.00130777
0.0219788
0.00135579
0.0219917
0.00140351
0.0219966
0.0014507
0.0220025
0.00149739
0.0220074
0.00154365
0.0220096
0.00158949
0.0220107
0.00163518
0.0220083
0.00168036
0.0220075
0.00172521
0.0220039
0.00177027
0.0219943
0.00181466
0.0219912
0.00185916
0.02198
0.00190389
0.0219665
0.00194773
0.0219622
0.00199285
0.0219368
0.00203752
0.0219264
0.00208191
0.0219135
0.00212801
0.0218814
0.00217294
0.0218752
0.00221981
0.0218392
0.0022668
0.0218198
0.00231374
0.0218014
0.0023635
0.0217555
0.00241192
0.0217483
0.00246397
0.0216941
0.00251591
0.0216745
0.00256914
0.0216415
0.00262523
0.0215932
0.0215858
0.00267975
1.20803e-05
0.0214211
9.66461e-05
0.0214348
0.000175642
0.0215183
0.00025567
0.0215287
0.000332896
0.0215773
0.000409216
0.0216113
0.000485999
0.0216292
0.000559798
0.0216836
0.000634861
0.0216916
0.000708008
0.0217331
0.000781045
0.0217541
0.000854327
0.0217702
0.000925768
0.0218077
0.000997985
0.0218155
0.00106914
0.0218419
0.00113997
0.021859
0.00121115
0.0218668
0.00128091
0.0218928
0.00135084
0.0218995
0.0014205
0.0219091
0.00148942
0.0219228
0.00155815
0.0219279
0.00162643
0.0219343
0.00169421
0.0219396
0.00176151
0.0219423
0.00182825
0.021944
0.00189466
0.0219419
0.00196029
0.0219418
0.00202525
0.021939
0.00209006
0.0219295
0.00215371
0.0219276
0.00221696
0.0219168
0.00227987
0.0219036
0.00234122
0.0219008
0.00240321
0.0218748
0.00246399
0.0218656
0.00252371
0.0218538
0.00258436
0.0218207
0.00264296
0.0218166
0.00270269
0.0217795
0.00276163
0.0217609
0.00281961
0.0217434
0.00287956
0.0216956
0.00293722
0.0216906
0.00299766
0.0216336
0.00305709
0.0216151
0.00311692
0.0215817
0.00317876
0.0215314
0.0215264
0.00323808
-0.000281598
0.0213269
-0.00018618
0.0213394
-9.56625e-05
0.0214278
-2.60901e-06
0.0214357
9.01896e-05
0.0214845
0.000182895
0.0215186
0.000276949
0.0215351
0.000368741
0.0215918
0.00046279
0.0215975
0.000555803
0.0216401
0.000649588
0.0216604
0.000744487
0.0216753
0.000838313
0.0217139
0.000933686
0.0217201
0.0010287
0.0217469
0.00112403
0.0217637
0.00122032
0.0217705
0.00131571
0.0217974
0.00141172
0.0218035
0.00150784
0.021813
0.00160352
0.0218271
0.00169924
0.0218321
0.00179463
0.0218389
0.00188958
0.0218447
0.00198398
0.0218479
0.00207767
0.0218503
0.00217082
0.0218488
0.00226284
0.0218498
0.00235374
0.0218481
0.00244397
0.0218393
0.0025324
0.0218392
0.00261972
0.0218295
0.0027059
0.0218174
0.00278959
0.0218171
0.00287301
0.0217914
0.00295416
0.0217845
0.00303313
0.0217748
0.00311195
0.0217419
0.00318747
0.021741
0.00326295
0.021704
0.00333639
0.0216874
0.00340758
0.0216722
0.00347956
0.0216236
0.00354794
0.0216222
0.00361795
0.0215636
0.00368568
0.0215474
0.00375263
0.0215147
0.00382047
0.0214635
0.0214624
0.00388454
-0.000700124
0.0212204
-0.000590238
0.0212295
-0.000483858
0.0213214
-0.000373969
0.0213258
-0.000264701
0.0213753
-0.000154111
0.021408
-4.05919e-05
0.0214216
7.24675e-05
0.0214788
0.000189122
0.0214809
0.000305951
0.0215233
0.000425061
0.0215412
0.000546567
0.0215537
0.000668235
0.0215922
0.000792706
0.0215956
0.000917913
0.0216217
0.00104437
0.0216372
0.00117267
0.0216422
0.00130081
0.0216692
0.00143026
0.0216741
0.00156042
0.0216829
0.0016906
0.021697
0.00182118
0.0217016
0.00195169
0.0217084
0.00208187
0.0217145
0.0022115
0.0217183
0.00234027
0.0217215
0.00246821
0.0217208
0.00259458
0.0217235
0.00271925
0.0217234
0.00284254
0.021716
0.00296313
0.0217186
0.0030816
0.021711
0.0031978
0.0217012
0.0033102
0.0217047
0.00342098
0.0216806
0.00352799
0.0216775
0.00363121
0.0216716
0.00373267
0.0216404
0.00382905
0.0216447
0.0039237
0.0216094
0.0040145
0.0215966
0.00410123
0.0215855
0.00418704
0.0215378
0.00426739
0.0215419
0.00434775
0.0214832
0.00442411
0.021471
0.00449807
0.0214407
0.00457139
0.0213902
0.0213944
0.00463931
-0.0012779
0.0211028
-0.00115474
0.0211064
-0.00103318
0.0211999
-0.000905636
0.0211982
-0.000776007
0.0212456
-0.000642895
0.0212749
-0.000504728
0.0212835
-0.00036546
0.0213395
-0.000220329
0.0213357
-7.30197e-05
0.021376
7.77838e-05
0.0213904
0.000232489
0.021399
0.0003887
0.021436
0.000550242
0.0214341
0.00071372
0.0214582
0.000879838
0.0214711
0.00104915
0.0214729
0.00121938
0.021499
0.00139194
0.0215015
0.00156608
0.0215087
0.001741
0.021522
0.00191695
0.0215256
0.00209328
0.021532
0.0022696
0.0215381
0.00244546
0.0215424
0.00262035
0.0215466
0.00279414
0.021547
0.00296579
0.0215518
0.00313497
0.0215542
0.00330182
0.0215491
0.0034647
0.0215557
0.00362403
0.0215517
0.00377946
0.0215458
0.00392916
0.021555
0.00407529
0.0215345
0.00421541
0.0215374
0.00434935
0.0215377
0.00447918
0.0215106
0.00460127
0.0215226
0.0047191
0.0214915
0.00483039
0.0214853
0.00493491
0.0214809
0.00503599
0.0214367
0.00512889
0.021449
0.00521944
0.0213927
0.00530354
0.0213869
0.00538297
0.0213613
0.00545971
0.0213135
0.0213253
0.00552888
-0.00205908
0.0209769
-0.00192406
0.0209714
-0.00178792
0.0210637
-0.00164254
0.0210528
-0.00149165
0.0210947
-0.00133343
0.0211166
-0.00116619
0.0211162
-0.00099411
0.0211674
-0.000812748
0.0211544
-0.000626252
0.0211895
-0.000432824
0.021197
-0.000232671
0.0211989
-2.88283e-05
0.0212322
0.000178732
0.0212265
0.000389971
0.0212469
0.00060695
0.0212541
0.000828588
0.0212512
0.00105279
0.0212748
0.00128094
0.0212734
0.00151212
0.0212775
0.00174538
0.0212888
0.00198077
0.0212902
0.00221746
0.0212953
0.00245485
0.0213008
0.00269217
0.0213051
0.00292862
0.0213102
0.00316378
0.0213119
0.00339616
0.0213194
0.00362509
0.0213253
0.00385037
0.0213238
0.00406988
0.0213362
0.00428374
0.0213378
0.00449126
0.0213383
0.00469016
0.0213561
0.00488255
0.0213421
0.00506552
0.0213544
0.00523873
0.0213645
0.00540424
0.0213451
0.00555801
0.0213688
0.0057037
0.0213458
0.0058388
0.0213502
0.00596303
0.0213567
0.00608
0.0213198
0.00618473
0.0213443
0.0062836
0.0212938
0.00637246
0.0212981
0.00645345
0.0212803
0.00652895
0.021238
0.0212603
0.00659396
-0.00256021
0.0208757
-0.00244841
0.0208596
-0.00233091
0.0209462
-0.00219823
0.0209202
-0.00205322
0.0209497
-0.00189483
0.0209582
-0.0017227
0.0209441
-0.00154174
0.0209865
-0.00134919
0.0209618
-0.00114967
0.0209899
-0.000942594
0.0209899
-0.000728587
0.0209849
-0.000510247
0.0210138
-0.000284129
0.0210004
-5.36935e-05
0.0210165
0.000178505
0.0210219
0.000416293
0.0210134
0.000658491
0.0210326
0.000905668
0.0210262
0.00115711
0.0210261
0.00141203
0.0210339
0.00167041
0.0210318
0.00193138
0.0210344
0.00219424
0.0210379
0.002458
0.0210413
0.00272159
0.0210466
0.00298425
0.0210492
0.00324417
0.0210595
0.00350025
0.0210692
0.00375188
0.0210722
0.00399658
0.0210915
0.00423408
0.0211003
0.00446333
0.021109
0.00468185
0.0211376
0.00489134
0.0211326
0.00508886
0.0211569
0.00527392
0.0211794
0.00544829
0.0211707
0.00560818
0.0212089
0.00575687
0.0211972
0.00589202
0.0212151
0.00601332
0.0212354
0.00612398
0.0212091
0.00621945
0.0212488
0.0063055
0.0212078
0.00637849
0.0212251
0.00644072
0.0212181
0.00649499
0.0211837
0.0212177
0.00653758
-0.00290545
0.0207977
-0.00282661
0.0207807
-0.00273842
0.0208581
-0.0026243
0.020806
-0.00248624
0.0208117
-0.00232609
0.0207981
-0.00214709
0.0207651
-0.00195654
0.0207959
-0.00175413
0.0207594
-0.00154519
0.020781
-0.00132979
0.0207745
-0.00110875
0.0207638
-0.000884576
0.0207897
-0.000655379
0.0207712
-0.000422455
0.0207836
-0.000183694
0.0207831
5.94789e-05
0.0207703
0.000305235
0.0207869
0.000557734
0.0207737