/*--------------------------------*- C++ -*----------------------------------*\
| =========                 |                                                 |
| \\      /  F ield         | OpenFOAM: The Open Source CFD Toolbox           |
|  \\    /   O peration     | Version:  2312                                  |
|   \\  /    A nd           | Website:  www.openfoam.com                      |
|    \\/     M anipulation  |                                                 |
\*---------------------------------------------------------------------------*/
FoamFile
{
    version     2.0;
    format      ascii;
    arch        "LSB;label=32;scalar=64";
    class       volScalarField;
    location    "60.214545768225165";
    object      p;
}
// * * * * * * * * * * * * * * * * * * * * * * * * * * * * * * * * * * * * * //

dimensions      [0 2 -2 0 0 0 0];

internalField   nonuniform List<scalar> 
21039
(
0.60017
0.466433
0.424174
0.395918
0.374585
0.358489
0.346035
0.33612
0.328062
0.32141
0.315847
0.311145
0.307131
0.303674
0.300673
0.298044
0.29572
0.293646
0.291775
0.290065
0.288482
0.286997
0.28558
0.284286
0.283164
0.282174
0.281275
0.280434
0.279636
0.453136
0.415243
0.401379
0.383004
0.366221
0.352915
0.342147
0.333282
0.325924
0.319763
0.314557
0.31012
0.30631
0.303014
0.30014
0.297616
0.29538
0.29338
0.291572
0.289917
0.28838
0.286933
0.285548
0.284275
0.283163
0.282175
0.281276
0.280436
0.279637
0.363678
0.361259
0.363401
0.356649
0.348186
0.340371
0.333099
0.326549
0.320796
0.315779
0.31141
0.307604
0.30428
0.301367
0.298803
0.296533
0.29451
0.292691
0.29104
0.289523
0.288108
0.286767
0.285475
0.284276
0.283216
0.282266
0.281397
0.28058
0.279802
0.325541
0.327649
0.332104
0.331009
0.328372
0.325135
0.321313
0.317374
0.313585
0.310048
0.306808
0.303878
0.301245
0.298888
0.296779
0.294889
0.293189
0.291649
0.290242
0.288941
0.287721
0.286557
0.285426
0.284363
0.283408
0.282541
0.281737
0.28097
0.28023
0.300492
0.304458
0.310333
0.312029
0.312216
0.311474
0.309924
0.307976
0.305853
0.303681
0.301556
0.299536
0.297653
0.29592
0.294336
0.292895
0.291584
0.290388
0.289287
0.288264
0.287299
0.286369
0.285457
0.284583
0.283778
0.283029
0.282316
0.28162
0.280933
0.280817
0.286071
0.293407
0.297262
0.299259
0.300057
0.299976
0.299394
0.298495
0.297404
0.296221
0.295018
0.293842
0.292722
0.291675
0.290707
0.289818
0.289003
0.288251
0.28755
0.286885
0.286239
0.285595
0.284955
0.284339
0.283738
0.283142
0.282537
0.281917
0.268003
0.273025
0.280107
0.285041
0.288257
0.290195
0.291209
0.291644
0.291677
0.291439
0.291033
0.290533
0.28999
0.289441
0.288912
0.288417
0.287962
0.28755
0.287175
0.286831
0.286506
0.286186
0.285856
0.285497
0.285108
0.284689
0.284238
0.283744
0.283208
0.260657
0.264757
0.270487
0.275427
0.27913
0.281715
0.283461
0.284635
0.285384
0.285829
0.286066
0.286167
0.286185
0.28616
0.28612
0.286085
0.286065
0.286066
0.286089
0.28613
0.286179
0.286225
0.286255
0.286223
0.286104
0.285903
0.285626
0.285268
0.284835
0.256082
0.259282
0.263642
0.268127
0.271826
0.274633
0.276758
0.278395
0.27965
0.280615
0.28137
0.281976
0.282484
0.28293
0.283346
0.28375
0.284158
0.284578
0.285011
0.285458
0.285911
0.286361
0.286795
0.287138
0.287333
0.287389
0.287319
0.287125
0.286816
0.252626
0.255075
0.258396
0.262354
0.265865
0.268688
0.270979
0.272879
0.274465
0.275807
0.276962
0.277982
0.278908
0.279774
0.280607
0.281428
0.282251
0.283086
0.283938
0.284807
0.285689
0.286576
0.287458
0.288225
0.288781
0.289136
0.289312
0.289313
0.289151
0.249589
0.251435
0.254011
0.257461
0.260737
0.263508
0.265868
0.267921
0.269728
0.271341
0.272806
0.274162
0.275443
0.276678
0.277892
0.279103
0.280325
0.28157
0.282842
0.284144
0.285475
0.286831
0.2882
0.28944
0.290405
0.291104
0.291565
0.2918
0.291819
0.246663
0.24806
0.250109
0.253097
0.256126
0.258814
0.261194
0.263339
0.265299
0.267116
0.268824
0.270457
0.272041
0.273602
0.275161
0.276736
0.27834
0.279985
0.281676
0.283419
0.285213
0.287058
0.28895
0.290706
0.292129
0.293219
0.294001
0.294491
0.294713
0.243693
0.244777
0.246458
0.249048
0.251837
0.254426
0.256794
0.258989
0.261054
0.263024
0.264927
0.266788
0.268632
0.270481
0.272354
0.274268
0.276235
0.278268
0.280374
0.282557
0.284821
0.287168
0.289603
0.291906
0.293825
0.295351
0.296505
0.297294
0.297738
0.240616
0.241482
0.2429
0.245157
0.247724
0.250207
0.252541
0.254756
0.256892
0.258975
0.261031
0.263081
0.265147
0.267249
0.269406
0.271634
0.273947
0.276356
0.278868
0.281487
0.284215
0.287057
0.290028
0.292876
0.295302
0.297288
0.298851
0.299985
0.300703
0.237416
0.23813
0.239341
0.241304
0.243658
0.246029
0.248317
0.250534
0.252712
0.254876
0.257049
0.259251
0.261502
0.263823
0.266233
0.268751
0.271392
0.274165
0.277075
0.280121
0.283301
0.286613
0.290073
0.2934
0.296266
0.298668
0.300623
0.302115
0.303137
0.234369
0.234972
0.236019
0.237762
0.239942
0.242208
0.244445
0.246651
0.248851
0.251069
0.253324
0.255639
0.258034
0.260533
0.263158
0.265931
0.268866
0.271974
0.275255
0.278702
0.282297
0.286013
0.289836
0.293419
0.296433
0.298941
0.301025
0.302704
0.303963
0.231786
0.232318
0.233263
0.234865
0.236915
0.239088
0.24128
0.243478
0.245697
0.247955
0.250273
0.252675
0.255185
0.257829
0.260637
0.26363
0.266827
0.270238
0.273864
0.277688
0.281674
0.285753
0.289837
0.293438
0.296168
0.298158
0.299644
0.300864
0.302025
0.229647
0.230131
0.231005
0.232505
0.234452
0.236565
0.238742
0.240953
0.243199
0.245497
0.247873
0.250353
0.252967
0.255746
0.258721
0.26192
0.265364
0.269071
0.273042
0.277257
0.281666
0.28616
0.29056
0.294148
0.2963
0.297014
0.296522
0.295304
0.294433
0.227922
0.228456
0.229348
0.230748
0.232527
0.23453
0.236694
0.238941
0.241233
0.243582
0.246021
0.248584
0.251305
0.25422
0.257363
0.260766
0.264461
0.26847
0.272802
0.277443
0.282345
0.287384
0.292328
0.296234
0.298076
0.297334
0.293645
0.286416
0.275307
0.27886
0.27808
0.277305
0.276535
0.275769
0.275004
0.274241
0.273478
0.272715
0.271951
0.271185
0.270416
0.269644
0.268867
0.268085
0.267298
0.266505
0.265705
0.264898
0.264084
0.263263
0.262434
0.261598
0.260754
0.259903
0.259045
0.25818
0.257309
0.256431
0.255548
0.254659
0.253766
0.252869
0.251969
0.251066
0.250162
0.249257
0.248352
0.247448
0.246547
0.245648
0.244754
0.243864
0.242981
0.242104
0.241236
0.240376
0.239526
0.238685
0.278865
0.278094
0.27733
0.276571
0.275814
0.27506
0.274306
0.273553
0.2728
0.272045
0.271287
0.270527
0.269762
0.268992
0.268217
0.267435
0.266647
0.265851
0.265047
0.264236
0.263416
0.262588
0.261752
0.260907
0.260054
0.259192
0.258323
0.257447
0.256564
0.255674
0.254779
0.253878
0.252973
0.252064
0.251152
0.250238
0.249323
0.248407
0.247493
0.24658
0.24567
0.244763
0.243861
0.242965
0.242076
0.241196
0.240324
0.239461
0.238609
0.279052
0.278306
0.277566
0.27683
0.276096
0.275363
0.27463
0.273896
0.273161
0.272422
0.27168
0.270933
0.270179
0.269419
0.268652
0.267876
0.267092
0.266299
0.265495
0.264682
0.263859
0.263025
0.262181
0.261327
0.260463
0.259589
0.258705
0.257813
0.256912
0.256003
0.255087
0.254164
0.253236
0.252303
0.251366
0.250425
0.249483
0.24854
0.247596
0.246654
0.245714
0.244777
0.243844
0.242917
0.241996
0.241083
0.240178
0.239283
0.238399
0.279517
0.278809
0.278104
0.277401
0.276698
0.275994
0.275289
0.27458
0.273867
0.273148
0.272423
0.27169
0.270949
0.270198
0.269437
0.268665
0.267882
0.267086
0.266278
0.265457
0.264623
0.263776
0.262916
0.262043
0.261157
0.260259
0.25935
0.258429
0.257498
0.256556
0.255606
0.254647
0.25368
0.252707
0.251729
0.250746
0.24976
0.248771
0.247781
0.246791
0.245803
0.244816
0.243833
0.242855
0.241882
0.240916
0.239959
0.23901
0.238072
0.280269
0.279612
0.278952
0.278291
0.277628
0.276961
0.276288
0.275609
0.274922
0.274227
0.273521
0.272804
0.272074
0.271332
0.270575
0.269804
0.269017
0.268214
0.267395
0.26656
0.265708
0.264839
0.263954
0.263053
0.262136
0.261204
0.260257
0.259296
0.258321
0.257334
0.256336
0.255326
0.254307
0.25328
0.252245
0.251203
0.250157
0.249107
0.248054
0.246999
0.245945
0.244892
0.243841
0.242793
0.24175
0.240713
0.239683
0.238662
0.23765
0.281315
0.280721
0.280119
0.279511
0.278896
0.278273
0.277641
0.276997
0.276341
0.275672
0.274987
0.274287
0.27357
0.272834
0.27208
0.271306
0.270513
0.269698
0.268862
0.268006
0.267129
0.26623
0.265311
0.264372
0.263413
0.262434
0.261438
0.260424
0.259393
0.258346
0.257285
0.25621
0.255123
0.254025
0.252918
0.251802
0.250678
0.249549
0.248416
0.24728
0.246142
0.245004
0.243867
0.242732
0.241601
0.240475
0.239354
0.238242
0.237139
0.282684
0.282165
0.281632
0.281087
0.28053
0.279959
0.279374
0.278772
0.278151
0.277512
0.276851
0.276169
0.275464
0.274734
0.27398
0.273201
0.272395
0.271564
0.270705
0.26982
0.268909
0.267972
0.267008
0.26602
0.265007
0.263971
0.262911
0.26183
0.260729
0.259608
0.258469
0.257313
0.256141
0.254956
0.253758
0.25255
0.251332
0.250106
0.248874
0.247637
0.246397
0.245155
0.243913
0.242673
0.241434
0.2402
0.238971
0.237748
0.236537
0.284403
0.283974
0.283521
0.283049
0.28256
0.282051
0.281519
0.280964
0.280384
0.279778
0.279143
0.27848
0.277786
0.277062
0.276305
0.275516
0.274694
0.273839
0.272951
0.27203
0.271076
0.27009
0.269072
0.268023
0.266944
0.265836
0.264701
0.263538
0.262351
0.261139
0.259906
0.258651
0.257378
0.256087
0.254781
0.253461
0.252128
0.250786
0.249435
0.248078
0.246716
0.24535
0.243983
0.242615
0.24125
0.239887
0.238529
0.237177
0.235837
0.286493
0.286166
0.285806
0.28542
0.285009
0.284569
0.2841
0.283598
0.283064
0.282494
0.281888
0.281245
0.280563
0.279842
0.279081
0.278279
0.277436
0.276553
0.275628
0.274664
0.273659
0.272614
0.271531
0.27041
0.269253
0.268061
0.266834
0.265575
0.264285
0.262967
0.261621
0.260249
0.258855
0.257438
0.256003
0.254551
0.253082
0.251602
0.25011
0.248609
0.247102
0.245589
0.244074
0.242557
0.241042
0.239529
0.238019
0.236517
0.235028
0.288958
0.288746
0.288492
0.288204
0.287882
0.287523
0.287125
0.286684
0.286201
0.285674
0.285101
0.284481
0.283812
0.283095
0.282329
0.281513
0.280648
0.279732
0.278767
0.277753
0.27669
0.275579
0.274422
0.273219
0.271972
0.270681
0.26935
0.267979
0.26657
0.265126
0.263649
0.26214
0.260603
0.259038
0.25745
0.255841
0.254212
0.252567
0.250908
0.249237
0.247558
0.245871
0.244182
0.242489
0.240797
0.239107
0.23742
0.235743
0.234081
0.291772
0.291686
0.291553
0.291379
0.291161
0.290895
0.29058
0.290212
0.289791
0.289315
0.288782
0.288192
0.287543
0.286836
0.286069
0.285242
0.284356
0.283409
0.282403
0.281338
0.280215
0.279034
0.277796
0.276503
0.275157
0.273757
0.272308
0.27081
0.269265
0.267677
0.266047
0.264378
0.262673
0.260934
0.259165
0.257369
0.255548
0.253707
0.251848
0.249974
0.24809
0.246195
0.244297
0.242395
0.240493
0.238594
0.236698
0.234814
0.232951
0.294867
0.294955
0.29494
0.294882
0.294792
0.294639
0.294422
0.294142
0.293801
0.293392
0.292916
0.292372
0.291758
0.291076
0.290322
0.289497
0.288601
0.287634
0.286597
0.285487
0.284308
0.28306
0.281742
0.280357
0.278906
0.277389
0.275811
0.274172
0.272473
0.270719
0.268913
0.267055
0.265152
0.263205
0.261219
0.259199
0.257145
0.255065
0.252962
0.25084
0.248704
0.246556
0.244403
0.242246
0.24009
0.237938
0.235791
0.23366
0.231556
0.298076
0.298333
0.298522
0.298644
0.298693
0.298675
0.298559
0.298403
0.29817
0.297858
0.297469
0.297002
0.296455
0.295828
0.295119
0.294327
0.293449
0.292488
0.291443
0.290311
0.289094
0.287793
0.286405
0.284935
0.283381
0.281744
0.280028
0.278234
0.276362
0.274419
0.272406
0.270325
0.268184
0.265983
0.263731
0.261432
0.259088
0.25671
0.2543
0.251865
0.249413
0.246945
0.244472
0.241995
0.239522
0.237056
0.2346
0.232167
0.229771
0.301272
0.301713
0.302071
0.302363
0.302586
0.302745
0.302833
0.302839
0.302763
0.302612
0.302385
0.30206
0.301647
0.301141
0.300535
0.299833
0.299029
0.298123
0.297118
0.296005
0.294788
0.293466
0.292034
0.290497
0.288853
0.287098
0.285241
0.283279
0.281212
0.279048
0.276788
0.274435
0.271998
0.269477
0.266884
0.264226
0.261504
0.258735
0.255922
0.253075
0.250205
0.247316
0.244424
0.24153
0.238646
0.235778
0.232929
0.230116
0.227358
0.303972
0.304624
0.305203
0.305733
0.306206
0.306625
0.30698
0.307262
0.307466
0.307577
0.307594
0.307506
0.307365
0.307091
0.306684
0.306167
0.305522
0.304755
0.303866
0.302841
0.301688
0.300401
0.298971
0.297405
0.295697
0.29384
0.291843
0.289703
0.287414
0.28499
0.282428
0.279733
0.276918
0.273981
0.27094
0.267803
0.264575
0.261277
0.257915
0.254506
0.251064
0.247598
0.244131
0.240669
0.237231
0.233827
0.230462
0.22716
0.223944
0.305039
0.30587
0.30672
0.307627
0.308554
0.309474
0.310344
0.311136
0.311829
0.312397
0.31284
0.313133
0.313282
0.313298
0.313217
0.313028
0.312645
0.312111
0.311431
0.310587
0.309584
0.308415
0.307062
0.305532
0.303811
0.301889
0.299772
0.297454
0.294926
0.292204
0.289284
0.286171
0.282883
0.279419
0.275802
0.272046
0.268158
0.264167
0.260082
0.255927
0.251723
0.247484
0.243246
0.23902
0.23484
0.230728
0.226701
0.222795
0.219042
0.303283
0.304202
0.305505
0.307179
0.309017
0.310868
0.312606
0.314168
0.315526
0.316662
0.317597
0.318327
0.318879
0.319258
0.319451
0.319481
0.319511
0.319262
0.318863
0.31828
0.317516
0.316555
0.315368
0.313959
0.312306
0.310385
0.308203
0.305744
0.302996
0.299975
0.296676
0.293109
0.289297
0.28524
0.280975
0.276517
0.271879
0.267103
0.262196
0.257193
0.252114
0.246978
0.241826
0.236675
0.231575
0.226566
0.221698
0.217048
0.21268
0.294329
0.295708
0.299165
0.30343
0.307562
0.311217
0.314284
0.316803
0.318856
0.320511
0.321858
0.322935
0.323803
0.324496
0.325017
0.325368
0.325542
0.325689
0.325654
0.32541
0.324978
0.32433
0.32342
0.322242
0.320756
0.318924
0.316742
0.314184
0.311229
0.307899
0.304189
0.300112
0.295703
0.29097
0.285964
0.280713
0.275238
0.269595
0.263796
0.257884
0.251878
0.24579
0.239653
0.233463
0.227259
0.221077
0.215
0.209234
0.204063
0.26692
0.27781
0.290148
0.300231
0.307742
0.313208
0.31719
0.320169
0.322467
0.32428
0.325757
0.326963
0.327978
0.328842
0.32958
0.330216
0.330709
0.331098
0.331477
0.331627
0.331599
0.331352
0.330818
0.32998
0.328783
0.327154
0.325071
0.322492
0.319386
0.31578
0.311672
0.307084
0.302068
0.296645
0.290883
0.284829
0.278519
0.272027
0.265378
0.258624
0.251791
0.244881
0.237908
0.23082
0.223575
0.216077
0.208235
0.200115
0.192363
0.237864
0.237017
0.236104
0.235115
0.234034
0.232854
0.231605
0.230438
0.229466
0.22872
0.228234
0.228041
0.228184
0.22871
0.22967
0.231129
0.233164
0.235875
0.239388
0.243869
0.249543
0.256723
0.265854
0.277615
0.293104
0.31392
0.341752
0.383599
0.516998
0.237773
0.23691
0.235978
0.234965
0.233852
0.232634
0.23134
0.230124
0.229101
0.228302
0.227759
0.227503
0.227578
0.228021
0.228882
0.230219
0.232102
0.234617
0.237871
0.242004
0.247195
0.253681
0.261769
0.271849
0.284548
0.300803
0.318741
0.332182
0.369762
0.23753
0.23663
0.235653
0.234584
0.233403
0.232102
0.230706
0.229375
0.228233
0.227308
0.226627
0.226221
0.226122
0.226364
0.226985
0.228029
0.229545
0.231592
0.234235
0.237547
0.241611
0.246508
0.252292
0.258884
0.266097
0.274023
0.280307
0.277691
0.279807
0.237146
0.236183
0.235132
0.233974
0.232686
0.231255
0.229702
0.228196
0.22687
0.22575
0.224859
0.224222
0.223861
0.223802
0.224067
0.224682
0.22567
0.227053
0.228848
0.231058
0.233667
0.236621
0.239813
0.242968
0.245609
0.247705
0.248299
0.24335
0.24098
0.236647
0.235598
0.234446
0.233169
0.231738
0.230134
0.228374
0.22664
0.225078
0.223711
0.222557
0.221634
0.220957
0.220539
0.22039
0.220516
0.220919
0.22159
0.222512
0.223644
0.224921
0.226239
0.227464
0.228368
0.228529
0.227804
0.225599
0.219257
0.215089
0.23604
0.234884
0.233606
0.232179
0.230571
0.228754
0.226742
0.224734
0.222894
0.22124
0.219787
0.218547
0.217526
0.216728
0.216152
0.21579
0.215629
0.215643
0.215796
0.216033
0.216273
0.216408
0.216303
0.215769
0.214416
0.2119
0.207552
0.199791
0.194389
0.235321
0.234035
0.232605
0.231
0.229179
0.22711
0.224802
0.222478
0.220323
0.218353
0.216577
0.215001
0.213626
0.21245
0.211461
0.210643
0.209974
0.209418
0.208931
0.208451
0.207896
0.207152
0.20608
0.204494
0.20204
0.19834
0.192948
0.185494
0.180372
0.234483
0.233044
0.231434
0.229617
0.227547
0.225185
0.222539
0.21986
0.217359
0.215048
0.212933
0.211016
0.209293
0.207752
0.206379
0.205151
0.204039
0.203002
0.201992
0.200944
0.199778
0.198386
0.19664
0.194382
0.191334
0.187198
0.181857
0.175822
0.171665
0.233513
0.231892
0.230072
0.228009
0.22565
0.222953
0.219925
0.216854
0.213981
0.211313
0.208855
0.206601
0.204543
0.202665
0.200948
0.199363
0.197878
0.196451
0.195033
0.193561
0.191964
0.190152
0.188023
0.185462
0.182265
0.178207
0.173397
0.168809
0.165584
0.232379
0.230547
0.228482
0.226134
0.223443
0.220366
0.216912
0.213416
0.210149
0.207116
0.204316
0.20174
0.199373
0.197194
0.19518
0.193301
0.19152
0.189796
0.188082
0.186324
0.184461
0.182423
0.18013
0.177497
0.174376
0.170599
0.166406
0.162934
0.160482
0.231028
0.22895
0.2266
0.223921
0.220851
0.217344
0.213421
0.20947
0.205795
0.202397
0.199269
0.196394
0.193752
0.191319
0.189064
0.186956
0.184956
0.183026
0.18112
0.179191
0.177187
0.175053
0.172727
0.170138
0.167179
0.163746
0.160159
0.157504
0.155672
0.229373
0.227005
0.224322
0.22126
0.217756
0.213767
0.209333
0.204902
0.200815
0.197065
0.193634
0.190497
0.187628
0.184994
0.182561
0.180292
0.178151
0.176096
0.174085
0.172077
0.170026
0.167886
0.165607
0.16313
0.160379
0.157315
0.154292
0.152231
0.15086
0.227274
0.224561
0.221486
0.217979
0.21398
0.209458
0.204477
0.199558
0.195073
0.191
0.187309
0.183964
0.180927
0.178158
0.175617
0.173262
0.171054
0.168952
0.166916
0.164906
0.162882
0.160806
0.158636
0.156321
0.153811
0.151116
0.148594
0.146958
0.14591
0.224477
0.221353
0.217816
0.213797
0.209245
0.20415
0.198609
0.193221
0.188381
0.184045
0.180163
0.176685
0.173559
0.170735
0.168167
0.165807
0.163612
0.161541
0.159554
0.157614
0.155684
0.153731
0.151719
0.149604
0.147355
0.145017
0.142927
0.141603
0.140778
0.220588
0.216968
0.212896
0.208302
0.203159
0.197486
0.191421
0.185634
0.180527
0.176026
0.172057
0.168548
0.165435
0.162655
0.160153
0.157877
0.155781
0.15382
0.151957
0.150154
0.148379
0.146599
0.144783
0.142897
0.140925
0.138936
0.137232
0.136151
0.135476
0.215147
0.210997
0.206387
0.201261
0.195618
0.189505
0.183089
0.177089
0.171892
0.167391
0.163486
0.160086
0.157111
0.154487
0.152154
0.150054
0.148138
0.146361
0.144684
0.143072
0.141491
0.139916
0.138317
0.13667
0.134968
0.133288
0.131891
0.131003
0.13043
0.208198
0.203534
0.198518
0.193078
0.1872
0.180926
0.174434
0.168458
0.163369
0.159033
0.15533
0.152154
0.149412
0.147026
0.144927
0.143057
0.141365
0.139806
0.138341
0.136935
0.135558
0.134183
0.13279
0.131365
0.129914
0.128496
0.127332
0.126585
0.126085
0.199072
0.1942
0.189288
0.18402
0.1783
0.172174
0.165851
0.160091
0.155258
0.151204
0.147795
0.144915
0.142462
0.140355
0.138523
0.136906
0.135454
0.134123
0.132875
0.131675
0.130493
0.129302
0.128086
0.126846
0.125605
0.124415
0.123449
0.122826
0.122386
0.186346
0.182769
0.179088
0.17458
0.169364
0.163611
0.157625
0.152211
0.147728
0.144027
0.140964
0.138415
0.136276
0.134461
0.132901
0.131538
0.130322
0.129211
0.128168
0.12716
0.126154
0.125121
0.124049
0.12298
0.121986
0.121086
0.12032
0.119743
0.119283
0.226158
0.226473
0.227183
0.228603
0.230571
0.232776
0.235065
0.23737
0.239701
0.242099
0.244608
0.247265
0.250105
0.253166
0.256486
0.260102
0.264051
0.268364
0.273054
0.278115
0.283508
0.289108
0.294652
0.299058
0.300944
0.299107
0.291992
0.277199
0.246256
0.224406
0.224842
0.225665
0.227071
0.228952
0.231081
0.23333
0.23564
0.238013
0.240484
0.243087
0.24586
0.248837
0.25206
0.255569
0.25941
0.263625
0.268252
0.273321
0.278846
0.284828
0.291208
0.297809
0.303661
0.30745
0.308462
0.306083
0.302262
0.306659
0.22262
0.223137
0.224043
0.225442
0.227252
0.229303
0.231496
0.233787
0.23618
0.238699
0.241374
0.244238
0.247327
0.250685
0.25436
0.258404
0.262871
0.267817
0.273298
0.279377
0.286147
0.293719
0.302221
0.311215
0.319774
0.328178
0.33664
0.344069
0.361039
0.220776
0.221271
0.22215
0.223532
0.225344
0.2274
0.229588
0.231874
0.234277
0.236825
0.239547
0.242477
0.245652
0.24912
0.252934
0.257154
0.261849
0.267097
0.272988
0.279648
0.287282
0.296231
0.306977
0.319755
0.333609
0.34912
0.366947
0.383343
0.405282
0.218874
0.219334
0.220161
0.221511
0.223322
0.22539
0.227584
0.229872
0.232282
0.234847
0.237601
0.240577
0.243816
0.247368
0.251291
0.255655
0.26054
0.266043
0.272292
0.279471
0.287881
0.298103
0.310765
0.326846
0.344747
0.365401
0.389692
0.412917
0.438735
0.216917
0.217359
0.218153
0.219463
0.221241
0.223289
0.225469
0.227749
0.230155
0.232724
0.235491
0.238491
0.241767
0.245371
0.249365
0.253825
0.25884
0.264525
0.27103
0.278589
0.287544
0.298737
0.312516
0.330928
0.350605
0.374117
0.401094
0.430255
0.459604
0.214899
0.21533
0.216101
0.217369
0.219095
0.221098
0.223243
0.225495
0.22788
0.230433
0.233189
0.236186
0.239466
0.243082
0.247098
0.251592
0.256662
0.262428
0.269048
0.276798
0.285955
0.297727
0.31154
0.330531
0.352481
0.376622
0.402602
0.4299
0.457446
0.212816
0.213234
0.21398
0.215201
0.216866
0.21881
0.220904
0.223111
0.225453
0.227967
0.230686
0.233647
0.236893
0.240475
0.244457
0.248916
0.253949
0.25968
0.266245
0.273959
0.28293
0.294293
0.308953
0.327381
0.34851
0.371007
0.394086
0.417407
0.440708
0.210664
0.21107
0.211787
0.212955
0.214549
0.216422
0.218449
0.220592
0.222872
0.225322
0.227975
0.230866
0.234037
0.237535
0.241423
0.24577
0.250669
0.256237
0.262574
0.269931
0.278724
0.289611
0.303605
0.320468
0.339067
0.35854
0.378107
0.397521
0.4161
0.208443
0.208837
0.209524
0.210633
0.212146
0.213932
0.215875
0.217936
0.220132
0.222493
0.22505
0.227837
0.23089
0.234255
0.237986
0.242142
0.246809
0.252068
0.258073
0.265026
0.273252
0.283186
0.295501
0.310022
0.325508
0.341325
0.356892
0.372239
0.386405
0.206149
0.206529
0.207184
0.208229
0.209653
0.211341
0.213185
0.215146
0.217235
0.219482
0.221915
0.224563
0.227457
0.230639
0.234157
0.23804
0.242398
0.247295
0.252827
0.259137
0.266439
0.275029
0.285294
0.297037
0.309128
0.32101
0.332292
0.343295
0.353189
0.203783
0.204151
0.204771
0.205749
0.207076
0.208654
0.210382
0.212224
0.214187
0.216296
0.218576
0.221052
0.22375
0.2267
0.229944
0.233526
0.237498
0.241919
0.246837
0.252322
0.258498
0.265543
0.273612
0.282389
0.290987
0.298981
0.306151
0.312984
0.318913
0.20135
0.201709
0.202297
0.203204
0.204423
0.205875
0.20747
0.209172
0.210988
0.212936
0.215038
0.217311
0.219777
0.22246
0.22539
0.228602
0.232118
0.235971
0.240171
0.244731
0.249684
0.25509
0.260905
0.266743
0.272008
0.276459
0.280044
0.283297
0.285882
0.198847
0.199193
0.199744
0.200575
0.201683
0.203002
0.204454
0.206004
0.207654
0.209421
0.211321
0.213366
0.215571
0.217953
0.220529
0.223318
0.226324
0.229548
0.232971
0.236553
0.24025
0.24401
0.247639
0.25076
0.253079
0.254534
0.25522
0.255663
0.25572
0.19628
0.196615
0.197129
0.197882
0.198873
0.20005
0.201346
0.202729
0.204198
0.205767
0.207447
0.209244
0.211165
0.213218
0.215408
0.217738
0.220197
0.222762
0.22538
0.227971
0.230429
0.232617
0.234248
0.235005
0.234874
0.233947
0.232425
0.230825
0.229179
0.193654
0.19398
0.194457
0.195131
0.195999
0.197026
0.198155
0.199359
0.200633
0.201992
0.203437
0.204969
0.206586
0.208288
0.210068
0.211918
0.213809
0.215697
0.217506
0.219122
0.220397
0.221146
0.221025
0.219814
0.217743
0.215029
0.211935
0.208973
0.206344
0.190973
0.191288
0.191726
0.192317
0.193063
0.193936
0.194895
0.195909
0.196983
0.198122
0.199321
0.200574
0.201874
0.203211
0.20457
0.205928
0.207244
0.208458
0.209473
0.210159
0.210344
0.209814
0.208212
0.20543
0.201907
0.197948
0.193822
0.190053
0.186994
0.188244
0.188551
0.188948
0.189458
0.190081
0.190795
0.191577
0.192398
0.193266
0.194179
0.195125
0.196093
0.19707
0.198037
0.198971
0.199838
0.200586
0.201143
0.201401
0.201221
0.200422
0.198786
0.195969
0.19199
0.187451
0.182702
0.177971
0.173795
0.170682
0.185475
0.185777
0.186136
0.186567
0.187067
0.187614
0.188214
0.188842
0.189501
0.190183
0.190874
0.191556
0.192209
0.192809
0.193321
0.193707
0.193904
0.193832
0.193379
0.192402
0.190728
0.188148
0.184354
0.179499
0.174305
0.169129
0.164112
0.159818
0.156906
0.182673
0.182968
0.183285
0.183637
0.184023
0.184392
0.184829
0.185262
0.185711
0.186165
0.186603
0.187002
0.187337
0.187576
0.187681
0.187604
0.187277
0.186615
0.185505
0.183807
0.18136
0.17798
0.173413
0.167946
0.162394
0.15709
0.152048
0.147869
0.145358
0.179844
0.180136
0.180411
0.180687
0.180928
0.18119
0.181435
0.181674
0.181919
0.182149
0.182341
0.182466
0.182495
0.182391
0.182109
0.181597
0.180784
0.179581
0.177875
0.175537
0.172419
0.168367
0.163191
0.157317
0.151639
0.146446
0.141596
0.137738
0.135828
0.177
0.177286
0.177525
0.177721
0.177863
0.177971
0.178038
0.178095
0.178142
0.178158
0.178114
0.17798
0.177719
0.177292
0.176652
0.17574
0.174484
0.172795
0.170564
0.167667
0.163974
0.159357
0.153693
0.147547
0.141897
0.136992
0.132511
0.129165
0.128085
0.174148
0.174424
0.174646
0.17478
0.174806
0.174753
0.174655
0.174538
0.174398
0.174211
0.173946
0.173569
0.173039
0.172316
0.171348
0.170076
0.168427
0.166314
0.16363
0.16026
0.156085
0.150998
0.144929
0.138563
0.132988
0.128446
0.124435
0.121765
0.121782
0.171294
0.171565
0.171761
0.171829
0.171742
0.171548
0.171298
0.17102
0.170707
0.170333
0.169865
0.169263
0.168489
0.167497
0.166238
0.16465
0.162664
0.160193
0.157137
0.153388
0.148835
0.143378
0.136977
0.130396
0.124841
0.120603
0.117035
0.115117
0.116475
0.168449
0.168721
0.168892
0.168894
0.168702
0.168376
0.167981
0.167553
0.167083
0.166542
0.165889
0.165087
0.164094
0.162867
0.161355
0.159501
0.157235
0.154479
0.15114
0.147118
0.14231
0.13661
0.129972
0.123169
0.117487
0.113312
0.109913
0.108659
0.111608
0.165618
0.165884
0.166023
0.165959
0.165669
0.165225
0.164706
0.164152
0.163549
0.162861
0.162046
0.161067
0.159885
0.158456
0.156732
0.15466
0.152176
0.149209
0.145678
0.1415
0.136582
0.130816
0.124132
0.117223
0.11134
0.106887
0.103025
0.101933
0.106671
0.162827
0.16314
0.163307
0.163203
0.162793
0.162182
0.161504
0.160819
0.160098
0.159286
0.158335
0.157208
0.155868
0.154274
0.152383
0.150144
0.147503
0.144398
0.140768
0.136551
0.131678
0.12603
0.119474
0.112586
0.106504
0.101561
0.0965631
0.0942055
0.0996491
0.153026
0.133762
0.106946
0.0721145
0.032128
-0.00774196
-0.0444138
-0.0778664
-0.108775
-0.140554
-0.173315
-0.209724
-0.247087
-0.281982
-0.310126
-0.328804
-0.338174
-0.340699
-0.340325
0.161851
0.147454
0.122087
0.0869367
0.0438838
-0.00236138
-0.0483434
-0.0935453
-0.137093
-0.18372
-0.230289
-0.277097
-0.321871
-0.360983
-0.390986
-0.410678
-0.421499
-0.426296
-0.428071
0.158207
0.14521
0.121391
0.0866456
0.0417331
-0.0091677
-0.0623299
-0.119345
-0.176285
-0.233287
-0.289884
-0.344958
-0.395578
-0.438196
-0.470225
-0.491415
-0.503764
-0.51016
-0.513326
0.148889
0.13628
0.114568
0.0806863
0.0339179
-0.0217309
-0.0825731
-0.146957
-0.212998
-0.279534
-0.345562
-0.408833
-0.465515
-0.511811
-0.545694
-0.567826
-0.581004
-0.588394
-0.592546
0.136297
0.124858
0.104994
0.071903
0.024151
-0.0344002
-0.100319
-0.171171
-0.245345
-0.321109
-0.395894
-0.466068
-0.527084
-0.575352
-0.609853
-0.632317
-0.64618
-0.654554
-0.659573
0.118897
0.108283
0.0902226
0.0587237
0.0114285
-0.0484094
-0.117692
-0.1942
-0.275531
-0.358861
-0.440322
-0.515181
-0.578648
-0.627838
-0.662851
-0.686182
-0.701536
-0.71172
-0.718429
0.0971469
0.0859134
0.0686629
0.0386649
-0.00750795
-0.0675937
-0.138842
-0.218991
-0.304885
-0.3926
-0.477162
-0.553036
-0.615594
-0.662956
-0.696301
-0.718691
-0.733929
-0.744378
-0.751368
0.0722735
0.0592077
0.0413122
0.0117178
-0.0335969
-0.0932604
-0.164884
-0.246099
-0.333327
-0.421853
-0.50586
-0.579483
-0.638757
-0.682964
-0.714143
-0.735544
-0.75072
-0.761443
-0.768792
0.0452727
0.0298413
0.0101897
-0.0202512
-0.0653705
-0.124265
-0.194903
-0.27496
-0.360616
-0.44658
-0.526541
-0.594862
-0.64861
-0.688177
-0.716145
-0.735702
-0.75004
-0.76042
-0.767595
0.0170269
-0.000754909
-0.0226526
-0.0547291
-0.100239
-0.158288
-0.227106
-0.304499
-0.386521
-0.467538
-0.541193
-0.602562
-0.649911
-0.684548
-0.709327
-0.7272
-0.740932
-0.75141
-0.759027
-0.0114978
-0.0313263
-0.0554849
-0.0894614
-0.135734
-0.193072
-0.259724
-0.333462
-0.410111
-0.483846
-0.548733
-0.601028
-0.640284
-0.668511
-0.688589
-0.703136
-0.714421
-0.723111
-0.729393
-0.0391699
-0.0605602
-0.0866205
-0.122226
-0.169176
-0.225725
-0.289903
-0.359255
-0.429377
-0.494609
-0.549979
-0.593177
-0.624849
-0.647342
-0.663292
-0.674857
-0.683774
-0.690626
-0.695486
-0.0649495
-0.0873314
-0.114711
-0.151289
-0.198373
-0.253717
-0.315052
-0.379649
-0.443008
-0.499958
-0.546707
-0.582234
-0.607901
-0.626084
-0.63907
-0.648611
-0.656052
-0.661982
-0.666298
-0.0881243
-0.110968
-0.139067
-0.175882
-0.222406
-0.275973
-0.333972
-0.393338
-0.449581
-0.498273
-0.536919
-0.565597
-0.586079
-0.600578
-0.610983
-0.618676
-0.624664
-0.629505
-0.632998
-0.10828
-0.131138
-0.159405
-0.195765
-0.241022
-0.292173
-0.346304
-0.400095
-0.449304
-0.490475
-0.522337
-0.545741
-0.562563
-0.574702
-0.583637
-0.590404
-0.595747
-0.600156
-0.603364
-0.125387
-0.14793
-0.175923
-0.211276
-0.254695
-0.302943
-0.352922
-0.401219
-0.444051
-0.478947
-0.505595
-0.525271
-0.539755
-0.550604
-0.558948
-0.565558
-0.571005
-0.575672
-0.579191
-0.139782
-0.16183
-0.189271
-0.223282
-0.2645
-0.309487
-0.355008
-0.39771
-0.434462
-0.463802
-0.486157
-0.502969
-0.515778
-0.525778
-0.533781
-0.540331
-0.545865
-0.550633
-0.554238
-0.151912
-0.173413
-0.200173
-0.232689
-0.271532
-0.313093
-0.354112
-0.391483
-0.42286
-0.447665
-0.466786
-0.481628
-0.493424
-0.50303
-0.510985
-0.517643
-0.523334
-0.528205
-0.531879
-0.1623
-0.183328
-0.209438
-0.240495
-0.277012
-0.315266
-0.352096
-0.384774
-0.411709
-0.432974
-0.449681
-0.463093
-0.474156
-0.483453
-0.491322
-0.497983
-0.503695
-0.508547
-0.512195
-0.171486
-0.192243
-0.217923
-0.247742
-0.282063
-0.317022
-0.349687
-0.3779
-0.400867
-0.419147
-0.433881
-0.44609
-0.456432
-0.465265
-0.472783
-0.479122
-0.484501
-0.488989
-0.492315
-0.179798
-0.200644
-0.22632
-0.255308
-0.287661
-0.319387
-0.347991
-0.37209
-0.391636
-0.407466
-0.420591
-0.431749
-0.441347
-0.449583
-0.456559
-0.462372
-0.467211
-0.471163
-0.474044
-0.187429
-0.208934
-0.235277
-0.263985
-0.294561
-0.322959
-0.347418