/*--------------------------------*- C++ -*----------------------------------*\
| =========                 |                                                 |
| \\      /  F ield         | OpenFOAM: The Open Source CFD Toolbox           |
|  \\    /   O peration     | Version:  2312                                  |
|   \\  /    A nd           | Website:  www.openfoam.com                      |
|    \\/     M anipulation  |                                                 |
\*---------------------------------------------------------------------------*/
FoamFile
{
    version     2.0;
    format      ascii;
    arch        "LSB;label=32;scalar=64";
    class       volVectorField;
    location    "53.006637831953505";
    object      U;
}
// * * * * * * * * * * * * * * * * * * * * * * * * * * * * * * * * * * * * * //

dimensions      [0 1 -1 0 0 0 0];

internalField   nonuniform List<vector> 
21039
(
(0.913792 0.0474832 0)
(1.02605 0.0665168 0)
(1.00449 0.0294787 0)
(1.00177 0.0189142 0)
(1.00121 0.0139078 0)
(1.0008 0.0105297 0)
(1.00055 0.00820677 0)
(1.0004 0.00656774 0)
(1.0003 0.00536139 0)
(1.00023 0.00444388 0)
(1.00018 0.00372974 0)
(1.00015 0.00316396 0)
(1.00012 0.00270955 0)
(1.00009 0.00234093 0)
(1.00008 0.00203996 0)
(1.00006 0.00179353 0)
(1.00005 0.00159193 0)
(1.00004 0.00142782 0)
(1.00003 0.00129552 0)
(1.00002 0.00119045 0)
(1.00002 0.00110868 0)
(1.00001 0.00104819 0)
(1.00001 0.00101064 0)
(1 0.000976883 0)
(1.00001 0.000951452 0)
(1.00001 0.0009313 0)
(1.00001 0.000912185 0)
(1.00001 0.000884027 0)
(1.00001 0.000825074 0)
(0.794621 0.0731017 0)
(1.07447 0.121703 0)
(1.03987 0.0708195 0)
(1.0181 0.0497274 0)
(1.01128 0.0383098 0)
(1.00763 0.0295298 0)
(1.00538 0.0232364 0)
(1.00395 0.0186637 0)
(1.00299 0.0152111 0)
(1.00232 0.0125377 0)
(1.00184 0.0104268 0)
(1.00148 0.00873174 0)
(1.0012 0.00735175 0)
(1.00098 0.00621643 0)
(1.00081 0.00527551 0)
(1.00066 0.00449242 0)
(1.00055 0.00384017 0)
(1.00044 0.00329851 0)
(1.00036 0.00285204 0)
(1.00028 0.00248872 0)
(1.00022 0.00219856 0)
(1.00016 0.00197513 0)
(1.00011 0.00182247 0)
(1.00008 0.00170915 0)
(1.00007 0.00164019 0)
(1.00007 0.00159797 0)
(1.00008 0.00156852 0)
(1.00009 0.00153245 0)
(1.0001 0.00146001 0)
(0.667375 0.0572918 0)
(1.08299 0.124806 0)
(1.08432 0.0902734 0)
(1.04627 0.067684 0)
(1.02905 0.0541628 0)
(1.02023 0.0432022 0)
(1.01467 0.034898 0)
(1.01098 0.0285171 0)
(1.00842 0.0234874 0)
(1.00661 0.0194772 0)
(1.00527 0.0162411 0)
(1.00427 0.0135965 0)
(1.0035 0.0114123 0)
(1.00289 0.00959303 0)
(1.0024 0.00806875 0)
(1.002 0.00678746 0)
(1.00166 0.00571028 0)
(1.00137 0.00480783 0)
(1.00112 0.00405772 0)
(1.0009 0.0034427 0)
(1.00071 0.00294868 0)
(1.00053 0.00256533 0)
(1.00038 0.0022985 0)
(1.00028 0.00211212 0)
(1.00022 0.00200582 0)
(1.0002 0.00194532 0)
(1.00019 0.00190699 0)
(1.0002 0.00186574 0)
(1.00022 0.0017884 0)
(0.541066 0.0352683 0)
(1.05073 0.110823 0)
(1.11586 0.0969959 0)
(1.07608 0.0762738 0)
(1.04921 0.0621059 0)
(1.03524 0.050993 0)
(1.0264 0.0423145 0)
(1.02024 0.0352804 0)
(1.01582 0.0294888 0)
(1.01258 0.0247141 0)
(1.01016 0.0207521 0)
(1.00832 0.0174387 0)
(1.00687 0.0146496 0)
(1.00573 0.0122896 0)
(1.00479 0.0102856 0)
(1.00402 0.00858158 0)
(1.00336 0.00713462 0)
(1.0028 0.0059118 0)
(1.0023 0.0048878 0)
(1.00186 0.00404315 0)
(1.00147 0.00336217 0)
(1.00111 0.00283225 0)
(1.0008 0.00246075 0)
(1.00057 0.00220982 0)
(1.00042 0.00207118 0)
(1.00035 0.00199524 0)
(1.00032 0.00195004 0)
(1.00032 0.00190562 0)
(1.00033 0.0018236 0)
(0.444249 0.0186696 0)
(0.997732 0.0918663 0)
(1.12895 0.0956277 0)
(1.10138 0.0794469 0)
(1.0682 0.0653906 0)
(1.04974 0.0547009 0)
(1.03824 0.0463002 0)
(1.03004 0.0392467 0)
(1.02396 0.0332523 0)
(1.01938 0.0281676 0)
(1.01587 0.0238341 0)
(1.01314 0.0201237 0)
(1.01097 0.0169365 0)
(1.00922 0.0141921 0)
(1.00778 0.0118265 0)
(1.00657 0.00978878 0)
(1.00553 0.00803927 0)
(1.00463 0.00654683 0)
(1.00383 0.00528731 0)
(1.00311 0.00424209 0)
(1.00246 0.00339648 0)
(1.00187 0.00273762 0)
(1.00133 0.00227476 0)
(1.00092 0.00197025 0)
(1.00066 0.0018072 0)
(1.00051 0.00172242 0)
(1.00044 0.00167685 0)
(1.00043 0.00163584 0)
(1.00043 0.00155329 0)
(0.378716 0.00810488 0)
(0.939723 0.0718375 0)
(1.12693 0.0882621 0)
(1.12077 0.0785772 0)
(1.08546 0.0658066 0)
(1.06304 0.055797 0)
(1.04929 0.0479007 0)
(1.03949 0.041117 0)
(1.03208 0.0352139 0)
(1.02638 0.0300869 0)
(1.02192 0.0256158 0)
(1.01837 0.0217067 0)
(1.0155 0.0182846 0)
(1.01315 0.0152876 0)
(1.01118 0.012665 0)
(1.00951 0.0103759 0)
(1.00806 0.00838804 0)
(1.00678 0.00667565 0)
(1.00564 0.00521889 0)
(1.0046 0.00400262 0)
(1.00365 0.00301533 0)
(1.00276 0.00224591 0)
(1.00195 0.00170667 0)
(1.00133 0.00136138 0)
(1.00092 0.00118414 0)
(1.00067 0.00109916 0)
(1.00055 0.00106137 0)
(1.00051 0.00103303 0)
(1.00048 0.000958873 0)
(0.333513 0.00233545 0)
(0.883476 0.0538314 0)
(1.11402 0.077803 0)
(1.13383 0.0747292 0)
(1.10087 0.0641456 0)
(1.07534 0.0550321 0)
(1.05952 0.0477671 0)
(1.04841 0.0414237 0)
(1.03995 0.0357807 0)
(1.03331 0.0307669 0)
(1.02804 0.0263018 0)
(1.02377 0.022323 0)
(1.02027 0.0187788 0)
(1.01736 0.0156249 0)
(1.01488 0.0128252 0)
(1.01275 0.01035 0)
(1.01088 0.00817593 0)
(1.00921 0.00628485 0)
(1.00769 0.00466305 0)
(1.0063 0.0033007 0)
(1.005 0.00219141 0)
(1.00378 0.00132792 0)
(1.00265 0.000725656 0)
(1.00177 0.000350926 0)
(1.00118 0.000168294 0)
(1.00082 8.85218e-05 0)
(1.00063 6.25364e-05 0)
(1.00055 5.90847e-05 0)
(1.00048 2.62564e-05 0)
(0.301232 -0.000192606 0)
(0.831803 0.0395643 0)
(1.09388 0.0668897 0)
(1.14058 0.0692647 0)
(1.11391 0.0611845 0)
(1.0866 0.0530425 0)
(1.06897 0.0464109 0)
(1.05677 0.0405678 0)
(1.04746 0.0352693 0)
(1.04007 0.030457 0)
(1.03412 0.0260845 0)
(1.02924 0.0221172 0)
(1.02518 0.0185241 0)
(1.02175 0.0152778 0)
(1.0188 0.0123559 0)
(1.01623 0.00974036 0)
(1.01393 0.00741724 0)
(1.01186 0.00537663 0)
(1.00995 0.0036121 0)
(1.00817 0.00212035 0)
(1.0065 0.000901164 0)
(1.0049 -4.77715e-05 0)
(1.00342 -0.000706679 0)
(1.00224 -0.00110275 0)
(1.00143 -0.00128007 0)
(1.00092 -0.00133859 0)
(1.00065 -0.00133626 0)
(1.00051 -0.00132315 0)
(1.00039 -0.00137048 0)
(0.278279 -0.000988049 0)
(0.786201 0.0290726 0)
(1.06979 0.0568855 0)
(1.14185 0.0632308 0)
(1.1243 0.0576039 0)
(1.09674 0.0504163 0)
(1.07764 0.044321 0)
(1.06453 0.038929 0)
(1.05456 0.0339741 0)
(1.04659 0.0293889 0)
(1.04009 0.0251466 0)
(1.0347 0.0212321 0)
(1.03016 0.0176307 0)
(1.02627 0.0143293 0)
(1.02289 0.0113178 0)
(1.01989 0.0085887 0)
(1.01718 0.00613747 0)
(1.01471 0.00396256 0)
(1.0124 0.00206535 0)
(1.01022 0.000449538 0)
(1.00813 -0.000879189 0)
(1.00613 -0.00191523 0)
(1.00424 -0.00263052 0)
(1.00271 -0.00304769 0)
(1.00165 -0.00321924 0)
(1.00097 -0.00325503 0)
(1.00058 -0.00321862 0)
(1.00035 -0.0031691 0)
(1.00015 -0.00319859 0)
(0.261862 -0.00103361 0)
(0.747047 0.0216487 0)
(1.04427 0.0482086 0)
(1.13895 0.0571943 0)
(1.13218 0.0537966 0)
(1.10581 0.04753 0)
(1.08564 0.0418628 0)
(1.07174 0.036825 0)
(1.06126 0.0321596 0)
(1.05284 0.0277789 0)
(1.04591 0.0236632 0)
(1.04011 0.0198083 0)
(1.03516 0.0162103 0)
(1.03088 0.0128667 0)
(1.0271 0.00977701 0)
(1.02371 0.00694286 0)
(1.02062 0.0043681 0)
(1.01774 0.00205924 0)
(1.01503 2.46293e-05 0)
(1.01243 -0.00172538 0)
(1.00992 -0.00317639 0)
(1.00747 -0.00431379 0)
(1.00512 -0.00509963 0)
(1.00321 -0.00555083 0)
(1.00184 -0.00572448 0)
(1.00095 -0.00573995 0)
(1.0004 -0.00566829 0)
(1.00005 -0.00557655 0)
(0.999729 -0.00557608 0)
(0.24966 -0.000815282 0)
(0.713834 0.0165038 0)
(1.01893 0.0408806 0)
(1.13311 0.0514397 0)
(1.1379 0.0499523 0)
(1.11393 0.0445648 0)
(1.09312 0.0392475 0)
(1.07853 0.0344697 0)
(1.06762 0.0300236 0)
(1.05887 0.0258026 0)
(1.0516 0.0217856 0)
(1.04547 0.0179732 0)
(1.04019 0.0143683 0)
(1.03556 0.0109751 0)
(1.03144 0.0078004 0)
(1.0277 0.00485271 0)
(1.02424 0.00214308 0)
(1.02098 -0.000316035 0)
(1.01787 -0.0025098 0)
(1.01485 -0.00441913 0)
(1.01188 -0.00602053 0)
(1.00895 -0.00729077 0)
(1.00611 -0.00818047 0)
(1.00374 -0.00869594 0)
(1.00203 -0.00889398 0)
(1.00086 -0.00890386 0)
(1.00011 -0.00880484 0)
(0.999582 -0.00867352 0)
(0.999108 -0.0086417 0)
(0.240149 -0.000556002 0)
(0.68572 0.0129519 0)
(0.994663 0.0347774 0)
(1.12531 0.0461115 0)
(1.14177 0.0461784 0)
(1.12121 0.0416107 0)
(1.10021 0.0365919 0)
(1.08504 0.0319961 0)
(1.07376 0.0277011 0)
(1.06473 0.0235891 0)
(1.05721 0.0196328 0)
(1.05081 0.0158336 0)
(1.04526 0.0121974 0)
(1.04036 0.00873298 0)
(1.03594 0.00545171 0)
(1.03188 0.00236737 0)
(1.02808 -0.000504744 0)
(1.02447 -0.00314695 0)
(1.02096 -0.00553666 0)
(1.01751 -0.0076468 0)
(1.01407 -0.00944572 0)
(1.01063 -0.0109011 0)
(1.00725 -0.0119517 0)
(1.00439 -0.0125867 0)
(1.00226 -0.0128547 0)
(1.00077 -0.0128933 0)
(0.999739 -0.01279 0)
(0.998973 -0.0126329 0)
(0.998281 -0.0125757 0)
(0.232453 -0.000345907 0)
(0.661869 0.0104551 0)
(0.971939 0.0297175 0)
(1.11627 0.0412657 0)
(1.1441 0.0425435 0)
(1.12771 0.0387225 0)
(1.10698 0.0339678 0)
(1.09135 0.0294931 0)
(1.07974 0.0252879 0)
(1.0705 0.021235 0)
(1.06279 0.0172986 0)
(1.05619 0.0134774 0)
(1.05043 0.00977807 0)
(1.0453 0.00621138 0)
(1.04063 0.00279136 0)
(1.0363 -0.000465942 0)
(1.0322 -0.00354201 0)
(1.02824 -0.00641339 0)
(1.02436 -0.00905098 0)
(1.02049 -0.011421 0)
(1.01657 -0.0134847 0)
(1.0126 -0.0152016 0)
(1.00865 -0.0164989 0)
(1.00524 -0.0173426 0)
(1.00265 -0.0177604 0)
(1.00076 -0.0178933 0)
(0.999372 -0.0178352 0)
(0.998281 -0.0176874 0)
(0.997289 -0.0176251 0)
(0.226061 -0.000203287 0)
(0.641549 0.00863813 0)
(0.950961 0.0255143 0)
(1.10655 0.0369006 0)
(1.14519 0.0390875 0)
(1.13352 0.0359354 0)
(1.11352 0.0314231 0)
(1.09756 0.027025 0)
(1.08567 0.0228584 0)
(1.07625 0.0188192 0)
(1.0684 0.0148627 0)
(1.06167 0.0109827 0)
(1.05575 0.00718438 0)
(1.05045 0.00347833 0)
(1.04558 -0.000121508 0)
(1.04103 -0.00359855 0)
(1.03667 -0.00693107 0)
(1.03242 -0.010091 0)
(1.02819 -0.0130443 0)
(1.02391 -0.0157514 0)
(1.01952 -0.018168 0)
(1.01501 -0.0202473 0)
(1.01047 -0.0219085 0)
(1.00649 -0.0230907 0)
(1.00338 -0.0237852 0)
(1.00101 -0.0241257 0)
(0.999172 -0.0242066 0)
(0.997641 -0.0241408 0)
(0.996235 -0.0241221 0)
(0.220644 -0.000118048 0)
(0.624146 0.00727022 0)
(0.931768 0.0220319 0)
(1.09653 0.0330149 0)
(1.14524 0.0358456 0)
(1.13866 0.0332729 0)
(1.11979 0.0289844 0)
(1.10367 0.0246336 0)
(1.09154 0.0204665 0)
(1.08199 0.0164025 0)
(1.07405 0.0123903 0)
(1.06722 0.00841673 0)
(1.06121 0.00448379 0)
(1.05578 0.000599377 0)
(1.05078 -0.00322492 0)
(1.04606 -0.00697235 0)
(1.0415 -0.0106192 0)
(1.03699 -0.0141347 0)
(1.03245 -0.0174807 0)
(1.02779 -0.0206127 0)
(1.02296 -0.0234815 0)
(1.01793 -0.0260373 0)
(1.01282 -0.0281982 0)
(1.00831 -0.0298874 0)
(1.00471 -0.0310508 0)
(1.00185 -0.0318 0)
(0.999489 -0.0322091 0)
(0.997399 -0.0323825 0)
(0.99544 -0.0325097 0)
(0.216365 -6.07798e-05 0)
(0.610249 0.00629126 0)
(0.915624 0.0193394 0)
(1.08735 0.0298206 0)
(1.14465 0.0330674 0)
(1.14295 0.0309636 0)
(1.12545 0.0268732 0)
(1.10933 0.022554 0)
(1.09704 0.0183655 0)
(1.0874 0.0142555 0)
(1.07942 0.010167 0)
(1.07257 0.0060793 0)
(1.06652 0.00198939 0)
(1.06106 -0.00210037 0)
(1.056 -0.00618209 0)
(1.0512 -0.0102401 0)
(1.04651 -0.0142521 0)
(1.04183 -0.0181867 0)
(1.03706 -0.0220039 0)
(1.0321 -0.0256535 0)
(1.02688 -0.0290788 0)
(1.02141 -0.0322226 0)
(1.01581 -0.0349976 0)
(1.01087 -0.0373175 0)
(1.00691 -0.0391067 0)
(1.00367 -0.0404771 0)
(1.00082 -0.0414709 0)
(0.998091 -0.0421341 0)
(0.995375 -0.042587 0)
(0.213192 -2.68256e-05 0)
(0.599989 0.00562584 0)
(0.903219 0.0174077 0)
(1.0798 0.027422 0)
(1.14379 0.0309264 0)
(1.14623 0.029177 0)
(1.13008 0.0252465 0)
(1.11407 0.0209503 0)
(1.10169 0.0167384 0)
(1.09201 0.0125831 0)
(1.08404 0.00842176 0)
(1.07721 0.00422573 0)
(1.07119 -1.48028e-05 0)
(1.06576 -0.00430251 0)
(1.06071 -0.00863441 0)
(1.0559 -0.013 0)
(1.05118 -0.0173809 0)
(1.04643 -0.0217492 0)
(1.04153 -0.0260663 0)
(1.03638 -0.0302798 0)
(1.0309 -0.0343246 0)
(1.02508 -0.0381305 0)
(1.01911 -0.041583 0)
(1.01387 -0.0445554 0)
(1.00975 -0.0469698 0)
(1.00643 -0.04902 0)
(1.00344 -0.0508302 0)
(1.00042 -0.0524327 0)
(0.997233 -0.0536644 0)
(0.21072 2.05958e-05 0)
(0.592089 0.00517334 0)
(0.893388 0.0160051 0)
(1.07348 0.0256067 0)
(1.14278 0.029274 0)
(1.14875 0.0278022 0)
(1.13387 0.0240124 0)
(1.11804 0.019747 0)
(1.10561 0.0155243 0)
(1.09591 0.0113369 0)
(1.08797 0.00711739 0)
(1.0812 0.00283022 0)
(1.07524 -0.00154047 0)
(1.06987 -0.00600309 0)
(1.06488 -0.0105608 0)
(1.06012 -0.0152099 0)
(1.05544 -0.019939 0)
(1.05069 -0.0247276 0)
(1.04575 -0.0295431 0)
(1.04051 -0.0343363 0)
(1.03487 -0.0390394 0)
(1.02881 -0.0435714 0)
(1.02253 -0.0477751 0)
(1.01702 -0.0514022 0)
(1.01277 -0.0542878 0)
(1.00953 -0.0566952 0)
(1.00693 -0.0589951 0)
(1.00464 -0.0615725 0)
(1.00208 -0.063865 0)
(0.20912 1.24061e-05 0)
(0.586612 0.00481979 0)
(0.886346 0.0150055 0)
(1.06885 0.0243268 0)
(1.14204 0.0281015 0)
(1.15071 0.0267984 0)
(1.13688 0.0230855 0)
(1.12124 0.0188401 0)
(1.1088 0.014619 0)
(1.09913 0.0104154 0)
(1.09125 0.0061537 0)
(1.08455 0.0017926 0)
(1.07868 -0.00268767 0)
(1.07341 -0.00730088 0)
(1.06852 -0.0120572 0)
(1.06386 -0.0169609 0)
(1.05927 -0.0220104 0)
(1.05461 -0.0271954 0)
(1.04974 -0.0324941 0)
(1.04453 -0.0378675 0)
(1.03888 -0.0432566 0)
(1.03277 -0.0485918 0)
(1.0264 -0.0537055 0)
(1.02082 -0.0581957 0)
(1.01652 -0.0616728 0)
(1.01333 -0.0641774 0)
(1.01098 -0.0657369 0)
(1.00945 -0.0670685 0)
(1.00969 -0.0720477 0)
(1.00002 0.000833864 0)
(1.00001 0.000835204 0)
(1.00001 0.00083148 0)
(1.00001 0.000828646 1.03207e-21)
(1.00001 0.00082781 5.14617e-21)
(1.00001 0.000828792 -9.25914e-21)
(1.00001 0.000831424 5.14178e-21)
(1.00001 0.000835595 -4.09555e-21)
(1 0.000841149 5.23844e-22)
(1 0.000848103 4.09308e-21)
(1 0.000856288 0)
(1 0.00086569 -4.57465e-21)
(0.999999 0.000876196 5.20191e-22)
(0.999998 0.000887674 4.06098e-21)
(0.999997 0.000900108 0)
(0.999996 0.000913334 0)
(0.999994 0.000927309 -4.02093e-21)
(0.999993 0.000941901 4.02346e-21)
(0.999992 0.000956951 0)
(0.999991 0.000972456 -1.99482e-21)
(0.99999 0.000988238 2.12024e-21)
(0.999989 0.00100418 1.85918e-21)
(0.999988 0.00102023 -2.97266e-21)
(0.999988 0.00103622 9.58038e-22)
(0.999987 0.00105205 3.06984e-23)
(0.999986 0.00106765 -6.1357e-23)
(0.999986 0.00108285 8.53418e-22)
(0.999986 0.00109757 -9.75516e-22)
(0.999985 0.00111179 0)
(0.999985 0.00112522 0)
(0.999985 0.00113782 -2.40667e-22)
(0.999985 0.00114966 -2.39653e-22)
(0.999985 0.00116058 -4.04873e-21)
(0.999986 0.00117055 3.3322e-21)
(0.999986 0.00117947 -4.24931e-21)
(0.999986 0.0011873 4.24387e-21)
(0.999987 0.001194 -3.27288e-21)
(0.999988 0.00119945 3.27154e-21)
(0.999988 0.00120368 4.64165e-22)
(0.999989 0.00120657 4.61921e-22)
(0.99999 0.00120811 -4.59646e-22)
(0.999992 0.00120828 0)
(0.999993 0.00120698 0)
(0.999994 0.00120426 0)
(0.999996 0.00120003 0)
(0.999997 0.00119447 0)
(0.999999 0.00118742 1.78041e-21)
(1 0.00117805 -1.77739e-21)
(1 0.0011623 0)
(1.00009 0.00146598 0)
(1.00008 0.00146546 2.08294e-21)
(1.00007 0.0014618 -2.07544e-21)
(1.00005 0.00146203 -1.03563e-21)
(1.00003 0.00146734 -1.03585e-21)
(1.00002 0.00147712 -3.09678e-21)
(1.00001 0.00149108 5.16976e-21)
(0.999994 0.0015092 0)
(0.999982 0.00153095 -5.14319e-22)
(0.99997 0.00155647 -1.02749e-21)
(0.999958 0.00158528 0)
(0.999947 0.00161727 5.11301e-22)
(0.999937 0.00165227 -4.58648e-21)
(0.999927 0.00168982 4.07988e-21)
(0.999918 0.00172993 0)
(0.999909 0.00177218 1.01457e-21)
(0.999901 0.00181634 0)
(0.999894 0.00186229 0)
(0.999888 0.00190949 0)
(0.999882 0.0019579 -2.0035e-21)
(0.999877 0.00200722 1.87922e-21)
(0.999873 0.00205706 -1.24934e-22)
(0.99987 0.00210728 0)
(0.999867 0.00215756 -4.63884e-22)
(0.999866 0.00220759 4.87191e-22)
(0.999865 0.00225719 9.23638e-23)
(0.999865 0.00230604 1.2264e-22)
(0.999866 0.00235387 0)
(0.999867 0.0024005 -1.94491e-21)
(0.99987 0.00244563 1.94447e-21)
(0.999873 0.00248902 -3.61791e-21)
(0.999877 0.00253049 7.94262e-21)
(0.999881 0.00256976 -3.60251e-21)
(0.999887 0.00260665 4.77241e-22)
(0.999893 0.00264088 4.752e-22)
(0.9999 0.00267232 4.73542e-22)
(0.999907 0.00270074 -4.70927e-22)
(0.999916 0.00272591 4.21232e-21)
(0.999925 0.00274775 -3.27297e-21)
(0.999935 0.00276593 -1.3932e-21)
(0.999945 0.0027804 5.07598e-21)
(0.999956 0.00279097 -3.68527e-21)
(0.999968 0.00279739 -1.82994e-21)
(0.999981 0.0027997 3.63414e-21)
(0.999994 0.00279749 -7.24547e-21)
(1.00001 0.00279095 3.61034e-21)
(1.00002 0.0027799 1.78899e-21)
(1.00004 0.00276351 -4.01311e-24)
(1.00005 0.00273672 0)
(1.00019 0.00178397 3.13466e-21)
(1.00015 0.00178156 -1.04666e-21)
(1.00011 0.00178154 -4.16902e-21)
(1.00007 0.00178824 2.07808e-21)
(1.00003 0.00180293 -2.07757e-21)
(0.999989 0.00182476 0)
(0.999951 0.00185344 -2.06705e-21)
(0.999915 0.00188906 -6.18897e-21)
(0.99988 0.00193054 6.19011e-21)
(0.999848 0.0019783 1.02745e-21)
(0.999817 0.00203143 0)
(0.999788 0.00208976 -6.14137e-21)
(0.99976 0.00215317 1.19569e-23)
(0.999735 0.00222067 4.08437e-21)
(0.999712 0.00229246 0)
(0.99969 0.00236776 -1.01391e-21)
(0.999671 0.00244619 -1.01376e-21)
(0.999654 0.00252772 0)
(0.999639 0.00261127 -1.00835e-21)
(0.999627 0.00269684 -2.00498e-21)
(0.999616 0.00278405 2.00559e-21)
(0.999608 0.00287212 -2.50444e-22)
(0.999602 0.00296091 -2.49112e-22)
(0.999598 0.00304994 0)
(0.999596 0.00313861 3.85567e-23)
(0.999597 0.00322668 -2.15671e-22)
(0.9996 0.0033137 0)
(0.999605 0.00339912 0)
(0.999612 0.00348267 -1.94524e-21)
(0.999621 0.00356394 1.94486e-21)
(0.999633 0.00364245 -3.85974e-21)
(0.999646 0.00371789 3.85846e-21)
(0.999662 0.00378987 0)
(0.99968 0.00385801 0)
(0.999699 0.00392192 0)
(0.999721 0.00398132 -9.45865e-22)
(0.999744 0.00403582 -1.88463e-21)
(0.999769 0.00408506 0)
(0.999797 0.00412886 -9.328e-22)
(0.999826 0.00416668 -9.20967e-22)
(0.999857 0.00419844 2.7793e-21)
(0.999889 0.00422373 0)
(0.999924 0.00424216 3.65248e-21)
(0.99996 0.00425377 -5.46693e-21)
(0.999997 0.0042578 0)
(1.00004 0.0042545 0)
(1.00008 0.0042433 0)
(1.00012 0.00422334 -1.78338e-21)
(1.00017 0.00419048 -1.77187e-21)
(1.00028 0.0018089 -2.09439e-21)
(1.00021 0.0018088 4.19154e-21)
(1.00013 0.00181755 4.18349e-21)
(1.00005 0.00183566 6.25319e-21)
(0.999967 0.00186477 -2.0892e-21)
(0.999891 0.00190388 -4.14979e-21)
(0.999817 0.0019527 8.29702e-21)
(0.999746 0.00201153 -4.31709e-24)
(0.99968 0.00207856 -2.06368e-21)
(0.999616 0.00215467 2.06589e-21)
(0.999557 0.00223835 0)
(0.999501 0.00232943 2.05073e-21)
(0.999449 0.00242787 -2.03852e-21)
(0.999401 0.00253201 8.17706e-21)
(0.999358 0.00264237 -8.15693e-21)
(0.999318 0.0027577 6.11299e-21)
(0.999282 0.00287745 -1.02029e-21)
(0.999251 0.0030018 1.01386e-21)
(0.999224 0.00312891 1.00758e-21)
(0.999201 0.00325896 -1.0082e-21)
(0.999183 0.00339146 0)
(0.999168 0.00352513 -1.49736e-21)
(0.999159 0.00365992 1.25082e-21)
(0.999153 0.00379516 9.95243e-22)
(0.999152 0.00392989 4.63852e-23)
(0.999156 0.00406383 9.22869e-23)
(0.999163 0.00419644 1.47358e-21)
(0.999175 0.00432679 -9.81122e-22)
(0.999192 0.00445457 1.94736e-21)
(0.999212 0.00457925 -1.94704e-21)
(0.999237 0.00470005 0)
(0.999265 0.00481661 4.8118e-21)
(0.999298 0.00492835 -3.84558e-21)
(0.999335 0.00503471 3.81318e-21)
(0.999375 0.0051352 -3.81178e-21)
(0.999419 0.00522938 0)
(0.999467 0.00531668 3.75851e-21)
(0.999519 0.00539664 -1.88211e-21)
(0.999575 0.00546898 0)
(0.999634 0.00553293 3.70806e-21)
(0.999697 0.00558841 -3.70344e-21)
(0.999763 0.0056348 1.83857e-21)
(0.999832 0.00567156 1.8295e-21)
(0.999905 0.00569876 5.45784e-21)
(0.999981 0.00571528 6.24529e-24)
(1.00006 0.00572149 3.60851e-21)
(1.00014 0.00571641 1.78731e-21)
(1.00023 0.00569908 1.77524e-21)
(1.00032 0.00566661 1.77328e-21)
(1.00035 0.00153191 0)
(1.00023 0.00154073 -4.19751e-21)
(1.0001 0.00156525 -4.18743e-21)
(0.999967 0.00160184 0)
(0.999836 0.00165281 -4.17503e-21)
(0.999709 0.00171687 1.06439e-23)
(0.999588 0.00179372 8.34758e-21)
(0.999472 0.00188397 -2.09028e-21)
(0.999362 0.00198489 -1.09862e-23)
(0.999257 0.00209802 -6.21227e-21)
(0.999159 0.00222108 0)
(0.999068 0.00235396 -6.18511e-21)
(0.998983 0.00249676 2.06662e-21)
(0.998904 0.00264695 0)
(0.998833 0.00280555 -2.05254e-21)
(0.998768 0.00297069 9.80585e-24)
(0.99871 0.00314167 -2.03446e-21)
(0.998659 0.00331896 7.10908e-21)
(0.998615 0.00349976 -1.30634e-23)
(0.998579 0.00368451 -1.02148e-21)
(0.99855 0.00387266 -1.00703e-21)
(0.998527 0.00406229 2.00273e-21)
(0.998513 0.00425347 -2.00302e-21)
(0.998505 0.00444536 -2.47571e-22)
(0.998505 0.00463655 5.12766e-22)
(0.998512 0.00482678 -2.76754e-22)
(0.998526 0.00501536 9.85258e-22)
(0.998547 0.00520094 -9.8338e-22)
(0.998575 0.00538322 9.79499e-22)
(0.998611 0.0055615 1.94321e-21)
(0.998653 0.00573468 -5.81215e-21)
(0.998702 0.00590235 -9.4814e-22)
(0.998757 0.00606375 5.77628e-21)
(0.998819 0.00621808 1.91547e-21)
(0.998888 0.00636481 -3.80038e-21)
(0.998963 0.00650328 3.79809e-21)
(0.999045 0.00663277 8.56812e-24)
(0.999132 0.00675271 5.63154e-21)
(0.999226 0.00686269 -3.75264e-21)
(0.999326 0.00696176 -9.29862e-21)
(0.999431 0.00704982 3.69746e-21)
(0.999543 0.00712605 1.83902e-21)
(0.99966 0.00718978 7.3082e-21)
(0.999782 0.00724113 -3.64674e-21)
(0.99991 0.00727863 -9.13877e-24)
(1.00004 0.00730282 -9.97519e-24)
(1.00018 0.00731229 0)
(1.00033 0.0073061 -3.56262e-21)
(1.00049 0.00728324 -3.53594e-21)
(1.00037 0.000936775 0)
(1.0002 0.000962085 -6.34858e-21)
(1 0.00101115 6.33854e-21)
(0.999806 0.00107524 0)
(0.99961 0.0011575 0)
(0.999419 0.00125632 -4.19087e-21)
(0.999236 0.00137144 -2.89733e-24)
(0.999061 0.00150385 -4.18977e-21)
(0.998895 0.00164969 -8.23357e-24)
(0.998737 0.00181128 0)
(0.99859 0.00198546 0)
(0.998451 0.00217218 2.06745e-21)
(0.998323 0.00237171 0)
(0.998205 0.00258051 0)
(0.998097 0.0028002 -2.05698e-21)
(0.997999 0.0030282 4.12292e-21)
(0.997912 0.0032636 2.05374e-21)
(0.997836 0.00350728 0)
(0.99777 0.00375528 2.02097e-21)
(0.997715 0.00400839 -5.08079e-21)
(0.997671 0.00426596 -2.02219e-21)
(0.997639 0.00452532 -2.01123e-21)
(0.997617 0.00478675 2.01143e-21)
(0.997606 0.00504918 1.36311e-24)
(0.997606 0.00531067 1.56164e-23)
(0.997617 0.00557101 2.47758e-22)
(0.99764 0.00582935 -4.95344e-22)
(0.997672 0.00608385 0)
(0.997716 0.00633421 -9.78526e-22)
(0.99777 0.00657958 0)
(0.997835 0.00681845 0)
(0.99791 0.00705041 -1.93886e-21)
(0.997995 0.00727447 -7.69587e-21)
(0.998091 0.00748957 2.30868e-23)
(0.998196 0.00769512 1.91304e-21)
(0.998311 0.00789027 0)
(0.998435 0.00807411 -1.88613e-21)
(0.998569 0.00824594 -3.76118e-21)
(0.998712 0.00840527 3.7341e-21)
(0.998864 0.00855088 7.43578e-21)
(0.999024 0.00868275 -7.39478e-21)
(0.999194 0.0087998 1.38058e-24)
(0.999372 0.00890124 -3.65754e-21)
(0.999558 0.0089873 -1.47386e-24)
(0.999752 0.00905608 0)
(0.999955 0.00910838 -3.59715e-21)
(1.00017 0.00914226 -1.783e-21)
(1.00039 0.009157 1.78167e-21)
(1.00063 0.00915452 3.53817e-21)
(1.0003 1.67797e-05 0)
(1.00006 5.13428e-05 4.24481e-21)
(0.999797 0.000128284 -1.2752e-20)
(0.999524 0.00023063 0)
(0.999248 0.000357372 0)
(0.998978 0.000504162 -8.4612e-21)
(0.998718 0.000671114 8.42948e-21)
(0.998469 0.000859554 -4.22494e-21)
(0.998232 0.00106445 -8.34531e-24)
(0.998007 0.00128922 4.1973e-21)
(0.997796 0.00152962 0)
(0.997599 0.0017857 0)
(0.997416 0.00205791 4.18047e-21)
(0.997247 0.00234152 0)
(0.997092 0.00263892 0)
(0.996953 0.00294663 -4.13256e-21)
(0.996828 0.00326354 1.54727e-23)
(0.996719 0.00359099 0)
(0.996625 0.00392369 2.0402e-21)
(0.996547 0.00426284 5.10216e-21)
(0.996485 0.00460767 -2.04407e-21)
(0.996438 0.00495465 0)
(0.996407 0.00530429 -1.00738e-21)
(0.996391 0.00565524 1.2585e-21)
(0.996392 0.006005 -5.48729e-22)
(0.996408 0.00635336 -2.50192e-22)
(0.99644 0.00669929 4.92844e-22)
(0.996488 0.00704044 -9.90903e-22)
(0.996551 0.00737644 0)
(0.996629 0.00770626 -3.92069e-21)
(0.996722 0.00802798 5.84636e-21)
(0.996831 0.00834112 1.91893e-21)
(0.996953 0.00864446 -8.2771e-24)
(0.997091 0.00893663 1.91531e-21)
(0.997242 0.00921695 -1.92399e-21)
(0.997407 0.0094844 -3.79342e-21)
(0.997586 0.00973779 7.56388e-21)
(0.997778 0.00997633 -3.76617e-21)
(0.997983 0.0101994 7.49363e-21)
(0.998201 0.0104055 5.25266e-24)
(0.99843 0.0105948 7.3975e-21)
(0.998673 0.0107657 -3.67571e-21)
(0.998926 0.0109176 0)
(0.999192 0.0110506 -1.55196e-24)
(0.999469 0.0111624 7.2233e-21)
(0.999758 0.0112543 0)
(1.00006 0.0113235 0)
(1.00038 0.0113698 6.20243e-21)
(1.00072 0.0113996 8.83887e-22)
(1.00013 -0.00136461 1.07243e-21)
(0.9998 -0.00123368 7.53876e-21)
(0.999435 -0.00107798 8.53093e-21)
(0.99906 -0.000940539 -8.5891e-21)
(0.998686 -0.000774538 0)
(0.998326 -0.000567855 -1.12661e-23)
(0.997975 -0.000334 -4.2892e-21)
(0.997635 -7.28177e-05 -4.27581e-21)
(0.997311 0.000208465 1.27351e-20)
(0.997004 0.000514634 -4.23294e-21)
(0.996714 0.000839963 0)
(0.996443 0.00118468 8.43528e-21)
(0.996191 0.0015495 -8.38465e-21)
(0.995958 0.00192828 2.66415e-23)
(0.995746 0.00232427 8.35257e-21)
(0.995553 0.00273299 -2.09705e-21)
(0.995382 0.00315305 -2.04081e-21)
(0.995231 0.00358631 4.14505e-21)
(0.995101 0.00402596 0)
(0.994993 0.00447366 -2.04734e-21)
(0.994907 0.00492846 2.04856e-21)
(0.994842 0.00538591 2.03622e-21)
(0.994799 0.0058467 -2.03618e-21)
(0.994778 0.00630916 2.54073e-22)
(0.994779 0.00677017 3.13781e-23)
(0.994802 0.00722947 7.50467e-22)
(0.994846 0.00768579 -2.73686e-24)
(0.994912 0.00813623 0)
(0.994999 0.00858027 0)
(0.995108 0.00901669 -7.78456e-25)
(0.995237 0.00944308 -1.94418e-21)
(0.995387 0.00985882 3.90681e-21)
(0.995557 0.0102625 -3.87749e-21)
(0.995747 0.0106522 3.84465e-21)
(0.995957 0.0110273 -7.68753e-21)
(0.996185 0.0113865 1.79342e-23)
(0.996432 0.0117282 3.79989e-21)
(0.996697 0.0120516 3.75836e-21)
(0.99698 0.012356 -7.51109e-21)
(0.99728 0.0126395 -7.45446e-21)
(0.997596 0.0129023 -3.71109e-21)
(0.997929 0.0131426 -3.68699e-21)
(0.998277 0.0133596 0)
(0.998641 0.0135536 -3.63085e-21)
(0.99902 0.0137219 -7.39e-24)
(0.999415 0.0138659 7.16326e-21)
(0.999827 0.0139823 -8.89011e-21)
(1.00026 0.0140715 1.75515e-21)
(1.00072 0.0141461 0)
(0.999809 -0.00318412 0)
(0.999373 -0.00301632 -8.61807e-21)
(0.998887 -0.00279671 0)
(0.998386 -0.0025576 8.59667e-21)
(0.997888 -0.0022661 4.30637e-21)
(0.997402 -0.00196099 -8.60808e-21)
(0.996932 -0.00166749 1.28614e-20)
(0.996481 -0.00133051 4.26823e-21)
(0.996054 -0.000955037 -4.26208e-21)
(0.995648 -0.000546404 0)
(0.995262 -0.000113711 4.25699e-21)
(0.994899 0.000343019 -8.49072e-21)
(0.994562 0.000824799 4.26443e-21)
(0.99425 0.00132382 -4.20989e-21)
(0.993964 0.00184428 3.04395e-23)
(0.993706 0.00238051 4.21117e-21)
(0.993475 0.00293075 -8.38824e-21)
(0.993272 0.00349738 0)
(0.993097 0.00407197 4.15524e-21)
(0.992951 0.00465662 -4.15523e-21)
(0.992834 0.00525011 -1.02801e-21)
(0.992747 0.00584699 0)
(0.992689 0.00644809 1.02963e-21)
(0.99266 0.00705133 2.54919e-22)
(0.992661 0.00765293 -5.40598e-22)
(0.992692 0.00825241 7.57802e-22)
(0.992751 0.00884824 4.99124e-22)
(0.992841 0.00943691 -1.00283e-21)
(0.992959 0.0100176 0)
(0.993106 0.0105888 -1.97477e-21)
(0.993281 0.0111476 3.95021e-21)
(0.993484 0.0116931 0)
(0.993714 0.0122236 1.94146e-21)
(0.993971 0.0127367 0)
(0.994255 0.0132314 3.83897e-21)
(0.994563 0.0137065 -7.64828e-21)
(0.994897 0.0141598 3.78771e-21)
(0.995254 0.0145903 -2.27051e-23)
(0.995635 0.0149971 3.72293e-21)
(0.996038 0.015378 -3.73878e-21)
(0.996462 0.0157333 3.69966e-21)
(0.996908 0.0160609 7.35621e-21)
(0.997373 0.0163597 0)
(0.997859 0.0166305 0)
(0.998363 0.0168696 -7.21141e-21)
(0.998888 0.0170793 -1.43081e-20)
(0.999436 0.0172551 1.42074e-20)
(1.00001 0.0173984 -7.94737e-21)
(1.00062 0.0175307 7.87132e-21)
(0.999273 -0.00553526 0)
(0.99871 -0.00529894 8.77753e-21)
(0.998089 -0.00499938 8.76233e-21)
(0.997446 -0.00467155 1.31218e-20)
(0.9968 -0.00430035 -1.31128e-20)
(0.996158 -0.00389351 -4.34599e-21)
(0.995539 -0.00345653 1.30946e-20)
(0.994946 -0.00296598 -4.33335e-21)
(0.994381 -0.00245655 4.3374e-21)
(0.993845 -0.00193827 0)
(0.993338 -0.00138494 8.68143e-21)
(0.992867 -0.000790598 0)
(0.992423 -0.00016306 -4.26613e-21)
(0.992011 0.000486346 -4.30773e-21)
(0.991634 0.00116291 5.17171e-23)
(0.991291 0.0018594 0)
(0.990986 0.00257347 4.25039e-21)
(0.990716 0.00330792 8.47987e-21)
(0.990483 0.00405267 0)
(0.99029 0.00481019 2.09145e-21)
(0.990134 0.00557881 -2.0908e-21)
(0.990017 0.00635209 -2.07325e-21)
(0.989939 0.00713081 2.08434e-21)
(0.989901 0.00791235 -4.21655e-24)
(0.989902 0.00869226 -5.1339e-22)
(0.989942 0.00946961 -2.25722e-22)
(0.990022 0.0102425 -5.08104e-22)
(0.990141 0.0110067 1.0132e-21)
(0.990299 0.0117609 0)
(0.990496 0.0125032 1.98762e-21)
(0.99073 0.0132301 -3.96058e-21)
(0.991001 0.01394 0)
(0.991309 0.0146311 0)
(0.991652 0.0153002 3.87551e-21)
(0.99203 0.015946 -7.72693e-21)
(0.992441 0.0165672 3.85253e-21)
(0.992885 0.0171606 3.82263e-21)
(0.99336 0.0177253 0)
(0.993865 0.0182601 1.12708e-20)
(0.994399 0.0187623 -7.46336e-21)
(0.99496 0.0192325 -3.69821e-21)
(0.995548 0.0196679 7.0276e-24)
(0.99616 0.0200674 -7.30292e-21)
(0.996798 0.0204319 -7.23979e-21)
(0.997459 0.0207574 -7.1879e-21)
(0.998145 0.0210465 1.57638e-23)
(0.998859 0.0212937 -2.14486e-23)
(0.999607 0.0215017 0)
(1.0004 0.0217036 -1.39491e-20)
(0.998495 -0.00856141 0)
(0.997768 -0.00823288 2.30005e-21)
(0.996974 -0.00782915 -1.09656e-20)
(0.996153 -0.0073902 -8.76608e-21)
(0.995327 -0.00690297 8.75561e-21)
(0.994511 -0.00637199 4.45858e-21)
(0.993716 -0.00579712 -4.3429e-21)
(0.992948 -0.00517146 0)
(0.992209 -0.00451136 0)
(0.991508 -0.00380956 8.81569e-21)
(0.990846 -0.00305141 -8.68665e-21)
(0.990226 -0.0022803 4.3568e-21)
(0.989645 -0.00149634 -4.35343e-21)
(0.989107 -0.000662042 4.34751e-21)
(0.988612 0.000210406 4.35018e-21)
(0.988162 0.00110812 -4.31518e-21)
(0.98776 0.00202825 -4.26714e-21)
(0.987404 0.00297401 -4.24939e-21)
(0.987097 0.00393367 4.25192e-21)
(0.98684 0.00490991 -4.25095e-21)
(0.986634 0.0059004 0)
(0.986478 0.00689773 2.11667e-21)
(0.986375 0.00790238 -2.08294e-21)
(0.986323 0.00891099 1.56017e-21)
(0.986324 0.00991834 0)
(0.986378 0.0109227 1.02971e-21)
(0.986484 0.0119216 0)
(0.986642 0.0129101 -1.01204e-21)
(0.986852 0.0138859 1.77472e-23)
(0.987113 0.0148466 1.23239e-23)
(0.987424 0.0157878 4.00826e-21)