/*--------------------------------*- C++ -*----------------------------------*\
| =========                 |                                                 |
| \\      /  F ield         | OpenFOAM: The Open Source CFD Toolbox           |
|  \\    /   O peration     | Version:  2312                                  |
|   \\  /    A nd           | Website:  www.openfoam.com                      |
|    \\/     M anipulation  |                                                 |
\*---------------------------------------------------------------------------*/
FoamFile
{
    version     2.0;
    format      ascii;
    arch        "LSB;label=32;scalar=64";
    class       volVectorField;
    location    "25.702666740277699";
    object      U;
}
// * * * * * * * * * * * * * * * * * * * * * * * * * * * * * * * * * * * * * //

dimensions      [0 1 -1 0 0 0 0];

internalField   nonuniform List<vector> 
21039
(
(0.913762 0.0474366 0)
(1.02607 0.0664987 0)
(1.00449 0.0295106 0)
(1.00176 0.0189205 0)
(1.0012 0.013919 0)
(1.00079 0.0105462 0)
(1.00055 0.00822796 0)
(1.0004 0.00659397 0)
(1.0003 0.00539328 0)
(1.00023 0.00448201 0)
(1.00018 0.00377472 0)
(1.00014 0.0032164 0)
(1.00011 0.00277006 0)
(1.00009 0.0024101 0)
(1.00007 0.00211839 0)
(1.00006 0.00188179 0)
(1.00005 0.00169054 0)
(1.00004 0.0015373 0)
(1.00003 0.00141633 0)
(1.00002 0.00132298 0)
(1.00001 0.00125327 0)
(1.00001 0.00120509 0)
(1 0.00117988 0)
(1 0.00115778 0)
(1 0.00114219 0)
(1 0.00113021 0)
(1.00001 0.00111779 0)
(1.00001 0.00109529 0)
(1.00001 0.0010419 0)
(0.794551 0.0730616 0)
(1.07449 0.121701 0)
(1.03986 0.0708776 0)
(1.01809 0.0497579 0)
(1.01127 0.0383577 0)
(1.00762 0.0295939 0)
(1.00536 0.0233164 0)
(1.00393 0.0187618 0)
(1.00297 0.0153293 0)
(1.0023 0.0126778 0)
(1.00182 0.0105907 0)
(1.00145 0.00892122 0)
(1.00117 0.00756871 0)
(1.00095 0.00646269 0)
(1.00078 0.00555283 0)
(1.00063 0.0048025 0)
(1.00051 0.0041846 0)
(1.00041 0.00367876 0)
(1.00032 0.00326941 0)
(1.00025 0.0029443 0)
(1.00018 0.00269322 0)
(1.00012 0.00250951 0)
(1.00007 0.00239668 0)
(1.00005 0.00232044 0)
(1.00004 0.00228248 0)
(1.00004 0.00226581 0)
(1.00004 0.00225713 0)
(1.00005 0.00223813 0)
(1.00006 0.00218089 0)
(0.667317 0.0572805 0)
(1.08299 0.124821 0)
(1.0843 0.0903334 0)
(1.04624 0.0677381 0)
(1.02901 0.0542451 0)
(1.02019 0.0433111 0)
(1.01463 0.0350353 0)
(1.01092 0.0286867 0)
(1.00836 0.0236922 0)
(1.00654 0.0197206 0)
(1.0052 0.016526 0)
(1.0042 0.0139263 0)
(1.00342 0.0117899 0)
(1.00281 0.0100217 0)
(1.00231 0.0085514 0)
(1.0019 0.007327 0)
(1.00156 0.00630941 0)
(1.00127 0.00546903 0)
(1.00102 0.00478319 0)
(1.00079 0.00423429 0)
(1.00059 0.00380782 0)
(1.00042 0.00349304 0)
(1.00027 0.00329498 0)
(1.00016 0.00317232 0)
(1.00011 0.00311908 0)
(1.00008 0.00310217 0)
(1.00008 0.0030993 0)
(1.0001 0.00308709 0)
(1.00011 0.00303495 0)
(0.541015 0.0352641 0)
(1.05068 0.110835 0)
(1.11581 0.0970469 0)
(1.07601 0.0763427 0)
(1.04913 0.062211 0)
(1.03515 0.0511352 0)
(1.0263 0.042498 0)
(1.02012 0.0355102 0)
(1.01569 0.029769 0)
(1.01245 0.0250492 0)
(1.01002 0.0211463 0)
(1.00816 0.0178966 0)
(1.00671 0.0151756 0)
(1.00555 0.012888 0)
(1.0046 0.0109608 0)
(1.00382 0.00933758 0)
(1.00316 0.00797538 0)
(1.00258 0.0068409 0)
(1.00208 0.00590843 0)
(1.00164 0.00515799 0)
(1.00124 0.00457331 0)
(1.00088 0.00414118 0)
(1.00056 0.00386787 0)
(1.00033 0.00370775 0)
(1.00019 0.00364473 0)
(1.00012 0.00363089 0)
(1.00009 0.00363624 0)
(1.0001 0.00363314 0)
(1.00011 0.00358643 0)
(0.444193 0.0186636 0)
(0.997642 0.0918648 0)
(1.12884 0.0956586 0)
(1.10126 0.079512 0)
(1.06806 0.0654998 0)
(1.04958 0.054857 0)
(1.03807 0.0465093 0)
(1.02984 0.0395144 0)
(1.02374 0.033584 0)
(1.01915 0.0285688 0)
(1.01563 0.0243102 0)
(1.01288 0.0206805 0)
(1.01069 0.0175796 0)
(1.00892 0.0149273 0)
(1.00746 0.0126593 0)
(1.00623 0.0107246 0)
(1.00518 0.00908337 0)
(1.00426 0.00770398 0)
(1.00345 0.0065618 0)
(1.00273 0.00563761 0)
(1.00207 0.00491593 0)
(1.00147 0.00438316 0)
(1.00093 0.00404736 0)
(1.00053 0.00386051 0)
(1.00027 0.00379557 0)
(1.00012 0.00379149 0)
(1.00007 0.00381155 0)
(1.00006 0.00382375 0)
(1.00006 0.00378575 0)
(0.378669 0.00809727 0)
(0.939618 0.0718161 0)
(1.12677 0.0882566 0)
(1.12058 0.0786123 0)
(1.08526 0.0658945 0)
(1.06281 0.0559405 0)
(1.04903 0.0481058 0)
(1.0392 0.0413902 0)
(1.03177 0.0355613 0)
(1.02604 0.030515 0)
(1.02154 0.0261314 0)
(1.01797 0.0223164 0)
(1.01508 0.0189954 0)
(1.01269 0.0161064 0)
(1.0107 0.0135988 0)
(1.009 0.0114316 0)
(1.00753 0.0095721 0)
(1.00624 0.00799429 0)
(1.00508 0.00667772 0)
(1.00402 0.00560653 0)
(1.00305 0.00476828 0)
(1.00216 0.00415108 0)
(1.00135 0.00376586 0)
(1.00073 0.00356377 0)
(1.00033 0.00350653 0)
(1.00009 0.00352088 0)
(0.999984 0.003564 0)
(0.999957 0.00359941 0)
(0.999935 0.00357564 0)
(0.333495 0.0023266 0)
(0.883394 0.053784 0)
(1.11382 0.0777433 0)
(1.13357 0.0747046 0)
(1.10058 0.0641804 0)
(1.07501 0.05513 0)
(1.05916 0.0479319 0)
(1.04802 0.0416618 0)
(1.03951 0.0360991 0)
(1.03284 0.0311728 0)
(1.02753 0.0268026 0)
(1.02323 0.0229265 0)
(1.01969 0.0194932 0)
(1.01673 0.0164585 0)
(1.01422 0.0137861 0)
(1.01205 0.0114467 0)
(1.01015 0.0094166 0)
(1.00845 0.00767718 0)
(1.00691 0.00621421 0)
(1.00549 0.0050171 0)
(1.00417 0.00407818 0)
(1.00294 0.00338914 0)
(1.00181 0.00296509 0)
(1.00094 0.00275758 0)
(1.00035 0.00271682 0)
(0.999999 0.00275795 0)
(0.999827 0.00283257 0)
(0.99976 0.00289984 0)
(0.999704 0.00289774 0)
(0.30126 -0.000202992 0)
(0.831793 0.0394863 0)
(1.09369 0.0667602 0)
(1.14025 0.0691514 0)
(1.11352 0.0611315 0)
(1.08618 0.0530574 0)
(1.0685 0.0464947 0)
(1.05626 0.0407254 0)
(1.0469 0.0355078 0)
(1.03947 0.0307841 0)
(1.03346 0.0265084 0)
(1.02854 0.0226465 0)
(1.02443 0.019168 0)
(1.02095 0.0160459 0)
(1.01795 0.013258 0)
(1.01532 0.0107864 0)
(1.01298 0.00861709 0)
(1.01086 0.00673989 0)
(1.00892 0.00514783 0)
(1.00711 0.00383691 0)
(1.00541 0.00280579 0)
(1.0038 0.00205125 0)
(1.0023 0.0015932 0)
(1.00112 0.00138558 0)
(1.00032 0.00136752 0)
(0.999828 0.00144168 0)
(0.999567 0.00155462 0)
(0.999439 0.00166302 0)
(0.999329 0.00169416 0)
(0.278373 -0.00100047 0)
(0.786323 0.028961 0)
(1.06964 0.056675 0)
(1.14146 0.0630037 0)
(1.12382 0.0574284 0)
(1.09622 0.0503093 0)
(1.07708 0.0442808 0)
(1.06391 0.038958 0)
(1.05388 0.0340789 0)
(1.04585 0.0295772 0)
(1.03929 0.025427 0)
(1.03383 0.021614 0)
(1.02923 0.0181242 0)
(1.02528 0.0149454 0)
(1.02182 0.0120678 0)
(1.01876 0.00948429 0)
(1.016 0.00719058 0)
(1.01346 0.00518499 0)
(1.0111 0.00346861 0)
(1.00888 0.00204493 0)
(1.00675 0.000919435 0)
(1.00472 9.46051e-05 0)
(1.00281 -0.0004023 0)
(1.00129 -0.000612918 0)
(1.00023 -0.000608852 0)
(0.999564 -0.0004997 0)
(0.999188 -0.000346987 0)
(0.998976 -0.000196662 0)
(0.99879 -0.000103026 0)
(0.262046 -0.00104915 0)
(0.747362 0.0215016 0)
(1.04424 0.0479105 0)
(1.13855 0.056834 0)
(1.13162 0.0534672 0)
(1.10519 0.047263 0)
(1.08498 0.0416561 0)
(1.07102 0.0366777 0)
(1.06047 0.0320765 0)
(1.05198 0.0277675 0)
(1.04498 0.0237324 0)
(1.03909 0.019968 0)
(1.03407 0.0164717 0)
(1.0297 0.0132419 0)
(1.02584 0.0102791 0)
(1.02237 0.00758555 0)
(1.01919 0.00516563 0)
(1.01624 0.00302611 0)
(1.01346 0.00117586 0)
(1.0108 -0.000375232 0)
(1.00823 -0.00161364 0)
(1.00574 -0.00252724 0)
(1.00337 -0.00307951 0)
(1.00144 -0.00330697 0)
(1.00009 -0.00328862 0)
(0.999205 -0.00314369 0)
(0.998675 -0.00294064 0)
(0.998346 -0.00274135 0)
(0.998054 -0.00264135 0)
(0.249961 -0.000835317 0)
(0.714406 0.01632 0)
(1.0191 0.0404927 0)
(1.13276 0.050934 0)
(1.13728 0.0494437 0)
(1.11323 0.0441035 0)
(1.09238 0.0388347 0)
(1.07774 0.0341007 0)
(1.06675 0.029701 0)
(1.05791 0.0255333 0)
(1.05056 0.0215783 0)
(1.04433 0.0178385 0)
(1.03895 0.014318 0)
(1.03422 0.0110229 0)
(1.03 0.00796103 0)
(1.02615 0.00514219 0)
(1.02259 0.00257843 0)
(1.01923 0.000283008 0)
(1.01602 -0.00172893 0)
(1.01291 -0.00343848 0)
(1.00987 -0.00482223 0)
(1.00688 -0.00585852 0)
(1.00399 -0.00649996 0)
(1.00161 -0.00677387 0)
(0.9999 -0.00676244 0)
(0.998751 -0.00659549 0)
(0.998016 -0.00634893 0)
(0.997516 -0.00609393 0)
(0.99707 -0.00595514 0)
(0.240595 -0.000581645 0)
(0.686609 0.012731 0)
(0.995115 0.034301 0)
(1.12507 0.0454551 0)
(1.14114 0.0454726 0)
(1.12045 0.0409265 0)
(1.09941 0.0359376 0)
(1.08419 0.0313647 0)
(1.07283 0.0270923 0)
(1.0637 0.0230084 0)
(1.05608 0.0190888 0)
(1.04958 0.0153371 0)
(1.04391 0.0117614 0)
(1.03888 0.00837225 0)
(1.03433 0.00518304 0)
(1.03014 0.00220932 0)
(1.02621 -0.000532473 0)
(1.02247 -0.00302339 0)
(1.01884 -0.00523958 0)
(1.01527 -0.0071533 0)
(1.01173 -0.00873256 0)
(1.0082 -0.00994581 0)
(1.00476 -0.0107336 0)
(1.00186 -0.011108 0)
(0.999725 -0.0111466 0)
(0.998242 -0.0109894 0)
(0.997231 -0.010721 0)
(0.996491 -0.0104232 0)
(0.995827 -0.0102442 0)
(0.233074 -0.000377898 0)
(0.663132 0.0101976 0)
(0.972757 0.0291565 0)
(1.11624 0.0404594 0)
(1.14351 0.0416305 0)
(1.12694 0.0377941 0)
(1.10617 0.0330431 0)
(1.09049 0.0285646 0)
(1.0788 0.0243522 0)
(1.06945 0.0202961 0)
(1.06162 0.0163646 0)
(1.0549 0.0125593 0)
(1.049 0.00888959 0)
(1.04372 0.00536881 0)
(1.03889 0.00201355 0)
(1.0344 -0.00115859 0)
(1.03014 -0.00412689 0)
(1.02602 -0.00686517 0)
(1.02198 -0.00934233 0)
(1.01795 -0.011523 0)
(1.01389 -0.0133675 0)
(1.0098 -0.014835 0)
(1.00575 -0.0158543 0)
(1.00228 -0.0164156 0)
(0.999661 -0.0165803 0)
(0.997765 -0.016494 0)
(0.996394 -0.016249 0)
(0.995325 -0.0159402 0)
(0.994358 -0.0157381 0)
(0.226886 -0.000241933 0)
(0.64324 0.00834505 0)
(0.952227 0.024874 0)
(1.10682 0.0359494 0)
(1.14472 0.0379646 0)
(1.13278 0.0347493 0)
(1.11273 0.0302062 0)
(1.09673 0.0257717 0)
(1.08476 0.0215626 0)
(1.07523 0.0174829 0)
(1.06725 0.0134934 0)
(1.06036 0.00959147 0)
(1.05429 0.00578561 0)
(1.04881 0.00208961 0)
(1.04376 -0.00148037 0)
(1.03901 -0.00490473 0)
(1.03446 -0.00815791 0)
(1.03 -0.0112083 0)
(1.02556 -0.0140188 0)
(1.02108 -0.0165474 0)
(1.0165 -0.0187474 0)
(1.01182 -0.0205705 0)
(1.00713 -0.0219365 0)
(1.00305 -0.0228106 0)
(0.999888 -0.0232226 0)
(0.997497 -0.0233143 0)
(0.995658 -0.0231798 0)
(0.994138 -0.0229263 0)
(0.99275 -0.0227439 0)
(0.221703 -0.000163826 0)
(0.626315 0.00694198 0)
(0.933563 0.021317 0)
(1.09719 0.0319267 0)
(1.14498 0.034516 0)
(1.13802 0.0318232 0)
(1.11907 0.0274609 0)
(1.10292 0.0230348 0)
(1.09072 0.0187844 0)
(1.08105 0.0146372 0)
(1.07296 0.0105481 0)
(1.06597 0.00650877 0)
(1.05977 0.00252452 0)
(1.05415 -0.00139334 0)
(1.04893 -0.00522964 0)
(1.04398 -0.00896319 0)
(1.03917 -0.0125652 0)
(1.03441 -0.0160004 0)
(1.02961 -0.0192266 0)
(1.02469 -0.0221951 0)
(1.0196 -0.0248529 0)
(1.01434 -0.0271467 0)
(1.00902 -0.0289939 0)
(1.00434 -0.0303449 0)
(1.00065 -0.0311893 0)
(0.997733 -0.0316511 0)
(0.995343 -0.0318067 0)
(0.993247 -0.0317557 0)
(0.991292 -0.0316865 0)
(0.217666 -0.000112601 0)
(0.612898 0.00593227 0)
(0.917967 0.0185608 0)
(1.08845 0.0286152 0)
(1.14467 0.0315556 0)
(1.14247 0.0292732 0)
(1.12486 0.0250629 0)
(1.10872 0.0206276 0)
(1.09635 0.0163143 0)
(1.08659 0.0120773 0)
(1.07846 0.00786719 0)
(1.07142 0.00366835 0)
(1.06517 -0.00051899 0)
(1.05948 -0.00468776 0)
(1.05418 -0.00882506 0)
(1.0491 -0.0129102 0)
(1.04412 -0.0169146 0)
(1.03914 -0.0208013 0)
(1.03404 -0.0245246 0)
(1.02876 -0.0280285 0)
(1.02322 -0.0312509 0)
(1.01743 -0.0341292 0)
(1.01154 -0.0365738 0)
(1.00636 -0.0385256 0)
(1.00224 -0.0399575 0)
(0.998903 -0.0409976 0)
(0.995988 -0.0416927 0)
(0.993218 -0.0420868 0)
(0.990484 -0.0423032 0)
(0.214715 -8.24036e-05 0)
(0.603067 0.0052441 0)
(0.906063 0.016581 0)
(1.08135 0.026127 0)
(1.14411 0.0292704 0)
(1.14594 0.0272897 0)
(1.12964 0.0231962 0)
(1.11362 0.0187464 0)
(1.10116 0.0143719 0)
(1.09136 0.01005 0)
(1.08323 0.00572605 0)
(1.07621 0.00137674 0)
(1.06997 -0.00300331 0)
(1.06428 -0.00741209 0)
(1.05895 -0.0118408 0)
(1.05383 -0.0162722 0)
(1.04878 -0.0206812 0)
(1.04367 -0.0250334 0)
(1.03839 -0.0292826 0)
(1.03285 -0.0333691 0)
(1.02697 -0.0372206 0)
(1.02077 -0.0407602 0)
(1.01442 -0.0438696 0)
(1.00887 -0.0464502 0)
(1.00452 -0.0484757 0)
(1.00103 -0.0501581 0)
(0.997928 -0.0516274 0)
(0.99482 -0.052913 0)
(0.991582 -0.0538603 0)
(0.212439 -3.67822e-05 0)
(0.595542 0.00477549 0)
(0.896676 0.0151428 0)
(1.07543 0.0242441 0)
(1.14339 0.0275057 0)
(1.14866 0.0257567 0)
(1.1336 0.0217653 0)
(1.11775 0.0173127 0)
(1.10525 0.0128942 0)
(1.09544 0.00850522 0)
(1.08733 0.00408659 0)
(1.08035 -0.000391348 0)
(1.07415 -0.00493974 0)
(1.06851 -0.00956177 0)
(1.06322 -0.0142538 0)
(1.05812 -0.0190048 0)
(1.05306 -0.023796 0)
(1.0479 -0.0285989 0)
(1.04254 -0.0333722 0)
(1.03684 -0.0380575 0)
(1.03073 -0.0425782 0)
(1.02421 -0.0468452 0)
(1.01748 -0.0506965 0)
(1.01159 -0.0539135 0)
(1.00704 -0.0563869 0)
(1.00356 -0.0584005 0)
(1.00077 -0.0603291 0)
(0.99833 -0.0625459 0)
(0.995632 -0.0645059 0)
(0.21101 -4.49985e-05 0)
(0.590388 0.0044115 0)
(0.890017 0.0141174 0)
(1.07116 0.0229128 0)
(1.14292 0.0262438 0)
(1.15082 0.0246238 0)
(1.13677 0.0206762 0)
(1.12111 0.0162148 0)
(1.10861 0.0117689 0)
(1.09882 0.00733306 0)
(1.09077 0.00283968 0)
(1.08386 -0.00174516 0)
(1.07774 -0.00643658 0)
(1.07218 -0.0112432 0)
(1.06696 -0.0161674 0)
(1.06193 -0.0212059 0)
(1.05693 -0.0263486 0)
(1.05182 -0.0315761 0)
(1.04646 -0.0368562 0)
(1.04074 -0.0421395 0)
(1.03456 -0.0473563 0)
(1.02792 -0.0524269 0)
(1.02103 -0.0571784 0)
(1.01499 -0.0612417 0)
(1.01031 -0.0642883 0)
(1.00683 -0.0663872 0)
(1.00423 -0.0675865 0)
(1.00248 -0.0686104 0)
(1.00254 -0.0732612 0)
(1.00001 0.00105404 0)
(1.00001 0.00105858 0)
(1.00001 0.00105811 0)
(1.00001 0.00105845 9.75104e-22)
(1.00001 0.0010607 4.8583e-21)
(1.00001 0.0010647 -8.73831e-21)
(1 0.00107024 4.85099e-21)
(1 0.00107726 -3.8598e-21)
(1 0.00108556 4.9577e-22)
(1 0.00109517 3.85526e-21)
(1 0.00110593 0)
(0.999999 0.00111779 -4.3014e-21)
(0.999997 0.00113067 4.91303e-22)
(0.999996 0.00114442 3.81593e-21)
(0.999995 0.00115902 0)
(0.999994 0.00117432 0)
(0.999993 0.00119024 -3.76869e-21)
(0.999992 0.00120668 3.77107e-21)
(0.999991 0.00122347 0)
(0.99999 0.0012406 -1.86591e-21)
(0.999989 0.00125789 1.9832e-21)
(0.999988 0.00127524 1.73656e-21)
(0.999987 0.00129257 -2.77602e-21)
(0.999987 0.00130972 8.94246e-22)
(0.999986 0.00132661 2.86122e-23)
(0.999986 0.00134314 -5.71778e-23)
(0.999985 0.00135916 7.9418e-22)
(0.999985 0.0013746 -9.07857e-22)
(0.999985 0.00138936 0)
(0.999985 0.00140334 0)
(0.999985 0.00141641 -2.23416e-22)
(0.999985 0.00142844 -2.22304e-22)
(0.999985 0.00143943 -3.7511e-21)
(0.999985 0.00144936 3.08734e-21)
(0.999986 0.00145809 -3.93057e-21)
(0.999986 0.0014656 3.92517e-21)
(0.999987 0.00147184 -3.02201e-21)
(0.999988 0.00147671 3.02114e-21)
(0.999989 0.00148024 4.28069e-22)
(0.99999 0.00148228 4.25636e-22)
(0.999991 0.00148287 -4.23175e-22)
(0.999992 0.00148194 0)
(0.999994 0.00147942 0)
(0.999995 0.00147536 0)
(0.999997 0.00146969 0)
(0.999999 0.00146251 0)
(1 0.00145364 1.62969e-21)
(1 0.00144245 -1.62687e-21)
(1 0.00142491 0)
(1.00006 0.00219774 0)
(1.00005 0.00220731 1.96998e-21)
(1.00003 0.00221378 -1.96112e-21)
(1.00002 0.0022239 -9.78047e-22)
(1 0.00223885 -9.77962e-22)
(0.99999 0.00225803 -2.92129e-21)
(0.999978 0.00228111 4.87719e-21)
(0.999966 0.00230808 0)
(0.999954 0.0023384 -4.84505e-22)
(0.999943 0.00237218 -9.67565e-22)
(0.999933 0.00240897 0)
(0.999923 0.00244859 4.80814e-22)
(0.999914 0.00249093 -4.30941e-21)
(0.999905 0.00253547 3.83329e-21)
(0.999897 0.00258222 0)
(0.99989 0.00263077 9.51883e-22)
(0.999883 0.00268086 0)
(0.999877 0.00273239 0)
(0.999872 0.00278482 0)
(0.999868 0.00283805 -1.87381e-21)
(0.999864 0.00289183 1.75761e-21)
(0.999861 0.00294575 -1.16758e-22)
(0.999859 0.00299964 0)
(0.999858 0.00305322 -4.32608e-22)
(0.999858 0.00310616 4.54355e-22)
(0.999858 0.00315824 8.60471e-23)
(0.99986 0.00320921 1.14156e-22)
(0.999862 0.00325875 0)
(0.999865 0.00330665 -1.80693e-21)
(0.999868 0.00335267 1.80653e-21)
(0.999873 0.00339656 -3.35583e-21)
(0.999878 0.00343806 7.36447e-21)
(0.999884 0.003477 -3.33903e-21)
(0.999891 0.00351314 4.41774e-22)
(0.999899 0.00354621 4.39523e-22)
(0.999907 0.00357611 4.37652e-22)
(0.999916 0.00360257 -4.34845e-22)
(0.999926 0.00362538 3.88483e-21)
(0.999936 0.00364448 -3.01856e-21)
(0.999947 0.00365952 -1.28317e-21)
(0.999959 0.0036705 4.6696e-21)
(0.999971 0.00367718 -3.38985e-21)
(0.999984 0.00367934 -1.68097e-21)
(0.999998 0.00367704 3.33412e-21)
(1.00001 0.00366984 -6.64441e-21)
(1.00003 0.003658 3.30939e-21)
(1.00004 0.00364124 1.637e-21)
(1.00006 0.00361886 -4.56076e-24)
(1.00007 0.00358605 0)
(1.00009 0.00304945 2.96614e-21)
(1.00005 0.00306458 -9.90289e-22)
(1.00001 0.00308209 -3.94157e-21)
(0.999973 0.00310589 1.96293e-21)
(0.999935 0.00313725 -1.96216e-21)
(0.999898 0.00317533 0)
(0.999863 0.00321977 -1.94935e-21)
(0.999829 0.00327071 -5.83353e-21)
(0.999798 0.00332699 5.83348e-21)
(0.999768 0.00338905 9.67296e-22)
(0.999741 0.00345596 0)
(0.999715 0.00352747 -5.77508e-21)
(0.999691 0.00360353 1.3585e-23)
(0.99967 0.00368309 3.83768e-21)
(0.99965 0.00376632 0)
(0.999632 0.00385248 -9.51033e-22)
(0.999617 0.00394109 -9.50611e-22)
(0.999604 0.0040322 0)
(0.999593 0.0041247 -9.44264e-22)
(0.999584 0.0042185 -1.87519e-21)
(0.999578 0.00431331 1.87575e-21)
(0.999573 0.0044083 -2.34103e-22)
(0.999571 0.00450328 -2.32614e-22)
(0.999571 0.00459786 0)
(0.999574 0.00469138 3.59313e-23)
(0.999579 0.00478354 -2.00923e-22)
(0.999586 0.004874 0)
(0.999595 0.00496215 0)
(0.999606 0.00504766 -1.80704e-21)
(0.99962 0.00513021 1.80669e-21)
(0.999635 0.00520929 -3.57972e-21)
(0.999653 0.00528455 3.57853e-21)
(0.999673 0.00535568 0)
(0.999695 0.00542222 0)
(0.999718 0.00548384 0)
(0.999744 0.00554029 -8.73919e-22)
(0.999772 0.00559109 -1.73986e-21)
(0.999801 0.00563597 0)
(0.999832 0.00567473 -8.59636e-22)
(0.999865 0.00570682 -8.465e-22)
(0.9999 0.00573222 2.55827e-21)
(0.999936 0.00575048 0)
(0.999974 0.00576125 3.35281e-21)
(1.00001 0.00576459 -5.01718e-21)
(1.00006 0.00575971 0)
(1.0001 0.00574694 0)
(1.00014 0.00572565 0)
(1.00019 0.00569505 -1.63056e-21)
(1.00024 0.00565143 -1.61812e-21)
(1.00007 0.00359876 -1.9817e-21)
(1 0.00362421 3.96627e-21)
(0.999926 0.00365848 3.95669e-21)
(0.99985 0.00370143 5.90856e-21)
(0.999775 0.00375475 -1.97468e-21)
(0.999704 0.00381745 -3.91619e-21)
(0.999636 0.00388914 7.82777e-21)
(0.999572 0.00397021 -4.95234e-24)
(0.999512 0.00405871 -1.9443e-21)
(0.999455 0.00415555 1.94639e-21)
(0.999402 0.0042592 0)
(0.999354 0.00436938 1.92867e-21)
(0.999309 0.00448616 -1.91463e-21)
(0.999268 0.00460774 7.68262e-21)
(0.999232 0.00473466 -7.6588e-21)
(0.9992 0.00486569 5.7378e-21)
(0.999172 0.00500013 -9.57544e-22)
(0.999149 0.0051383 9.50341e-22)
(0.99913 0.0052783 9.43306e-22)
(0.999115 0.00542018 -9.43706e-22)
(0.999105 0.00556359 0)
(0.999099 0.00570717 -1.39855e-21)
(0.999097 0.00585079 1.1689e-21)
(0.999101 0.00599392 9.28919e-22)
(0.999108 0.00613549 4.32369e-23)
(0.99912 0.00627519 8.59417e-23)
(0.999136 0.00641257 1.37139e-21)
(0.999157 0.00654664 -9.12895e-22)
(0.999182 0.00667703 1.809e-21)
(0.999211 0.00680333 -1.8087e-21)
(0.999244 0.00692469 0)
(0.999281 0.00704073 4.45916e-21)
(0.999322 0.00715096 -3.56335e-21)
(0.999367 0.00725472 3.52722e-21)
(0.999416 0.00735161 -3.52592e-21)
(0.999469 0.00744121 0)
(0.999525 0.00752285 3.46731e-21)
(0.999585 0.00759619 -1.73709e-21)
(0.999649 0.00766092 0)
(0.999716 0.00771625 3.41148e-21)
(0.999787 0.00776221 -3.40734e-21)
(0.99986 0.00779808 1.68911e-21)
(0.999937 0.00782344 1.67947e-21)
(1.00002 0.00783834 5.00501e-21)
(1.0001 0.00784167 6.77524e-24)
(1.00019 0.00783389 3.30468e-21)
(1.00028 0.00781392 1.63378e-21)
(1.00037 0.00778091 1.62049e-21)
(1.00047 0.00773244 1.61899e-21)
(0.999988 0.00379887 0)
(0.999879 0.00384181 -3.97117e-21)
(0.999757 0.00390079 -3.95963e-21)
(0.999633 0.00397077 0)
(0.999511 0.00405412 -3.94408e-21)
(0.999394 0.00414967 1.21462e-23)
(0.999283 0.00425703 7.88213e-21)
(0.999177 0.00437694 -1.97411e-21)
(0.999078 0.00450648 -1.25826e-23)
(0.998985 0.00464722 -5.85416e-21)
(0.998898 0.00479687 0)
(0.998819 0.00495518 -5.82072e-21)
(0.998746 0.00512237 1.94561e-21)
(0.99868 0.00529576 0)
(0.998621 0.00547637 -1.92885e-21)
(0.998569 0.00566236 1.06207e-23)
(0.998524 0.00585284 -1.90777e-21)
(0.998487 0.00604846 6.66452e-21)
(0.998457 0.00624632 -1.49224e-23)
(0.998434 0.00644674 -9.58515e-22)
(0.998419 0.0066493 -9.42317e-22)
(0.998411 0.00685197 1.87124e-21)
(0.99841 0.00705479 -1.8715e-21)
(0.998417 0.00725701 -2.3079e-22)
(0.998431 0.00745713 4.78339e-22)
(0.998452 0.00765483 -2.57628e-22)
(0.998481 0.00784956 9.17189e-22)
(0.998517 0.00803987 -9.15153e-22)
(0.99856 0.0082254 9.10608e-22)
(0.99861 0.00840559 1.80379e-21)
(0.998666 0.00857926 -5.39198e-21)
(0.99873 0.00874598 -8.75662e-22)
(0.9988 0.0089051 5.35185e-21)
(0.998877 0.00905571 1.77273e-21)
(0.99896 0.00919736 -3.51191e-21)
(0.999049 0.00932944 3.5098e-21)
(0.999145 0.00945111 9.55533e-24)
(0.999246 0.00956195 5.19197e-21)
(0.999353 0.00966153 -3.45969e-21)
(0.999467 0.00974886 -8.55805e-21)
(0.999586 0.00982398 3.39887e-21)
(0.99971 0.00988597 1.68853e-21)
(0.99984 0.0099343 6.7034e-21)
(0.999975 0.00996907 -3.34529e-21)
(1.00012 0.00998882 -1.04831e-23)
(1.00026 0.00999422 -1.14861e-23)
(1.00041 0.00998374 0)
(1.00057 0.00995657 -3.25354e-21)
(1.00074 0.00991212 -3.22425e-21)
(0.999824 0.00359425 0)
(0.999663 0.00366404 -6.01434e-21)
(0.999483 0.0037577 6.00281e-21)
(0.999299 0.00386473 0)
(0.999117 0.00398848 0)
(0.998941 0.00412752 -3.95979e-21)
(0.998773 0.00428151 -3.23899e-24)
(0.998614 0.00445159 -3.95714e-21)
(0.998464 0.00463372 -8.87692e-24)
(0.998324 0.00483032 0)
(0.998193 0.00503816 0)
(0.998073 0.00525709 1.94627e-21)
(0.997963 0.0054875 0)
(0.997864 0.00572564 0)
(0.997775 0.00597319 -1.93301e-21)
(0.997697 0.00622754 3.87585e-21)
(0.997631 0.00648761 1.92876e-21)
(0.997575 0.00675447 0)
(0.99753 0.00702401 1.89196e-21)
(0.997496 0.00729689 -4.76059e-21)
(0.997473 0.00757265 -1.89266e-21)
(0.997462 0.00784845 -1.88011e-21)
(0.997462 0.00812454 1.88028e-21)
(0.997473 0.00839994 1.44218e-24)
(0.997495 0.00867262 1.45742e-23)
(0.997529 0.00894231 2.30812e-22)
(0.997573 0.00920829 -4.61523e-22)
(0.997628 0.00946863 0)
(0.997694 0.00972296 -9.09513e-22)
(0.99777 0.00997058 0)
(0.997857 0.0102099 0)
(0.997955 0.0104405 -1.79799e-21)
(0.998062 0.0106615 -7.1269e-21)
(0.998179 0.0108717 2.52456e-23)
(0.998306 0.0110706 1.77012e-21)
(0.998442 0.0112575 0)
(0.998588 0.0114312 -1.74025e-21)
(0.998743 0.0115914 -3.46705e-21)
(0.998906 0.0117374 3.4386e-21)
(0.999079 0.011868 6.84031e-21)
(0.999259 0.0119834 -6.79563e-21)
(0.999448 0.0120824 5.2824e-25)
(0.999645 0.0121643 -3.35474e-21)
(0.99985 0.0122293 -2.5421e-24)
(1.00006 0.0122757 0)
(1.00028 0.0123042 -3.28937e-21)
(1.00051 0.012313 -1.62752e-21)
(1.00075 0.0123013 1.62631e-21)
(1.00101 0.0122714 3.22561e-21)
(0.999544 0.00292916 0)
(0.99932 0.00303784 4.02198e-21)
(0.999069 0.00317784 -1.20866e-20)
(0.99881 0.00333369 0)
(0.998553 0.00351034 0)
(0.998304 0.00370599 -8.00657e-21)
(0.998065 0.00392026 7.96933e-21)
(0.997837 0.00415478 -3.99535e-21)
(0.997624 0.00440412 -8.93441e-24)
(0.997423 0.00467178 3.96296e-21)
(0.997237 0.00495338 0)
(0.997065 0.00524888 0)
(0.996907 0.00555892 3.94101e-21)
(0.996765 0.00587846 0)
(0.996638 0.00620999 0)
(0.996526 0.00654999 -3.8855e-21)
(0.99643 0.00689714 1.67057e-23)
(0.99635 0.00725302 0)
(0.996285 0.0076121 1.91295e-21)
(0.996237 0.00797552 4.78241e-21)
(0.996204 0.00834264 -1.91619e-21)
(0.996188 0.00870977 0)
(0.996188 0.00907739 -9.41578e-22)
(0.996203 0.00944424 1.17607e-21)
(0.996235 0.0098077 -5.12429e-22)
(0.996283 0.0101675 -2.3344e-22)
(0.996346 0.0105228 4.58623e-22)
(0.996425 0.010871 -9.22898e-22)
(0.99652 0.0112119 0)
(0.99663 0.0115444 -3.64276e-21)
(0.996754 0.0118666 5.42623e-21)
(0.996894 0.012178 1.77565e-21)
(0.997048 0.0124775 -9.39985e-24)
(0.997216 0.0127636 1.77111e-21)
(0.997398 0.0130358 -1.78089e-21)
(0.997593 0.0132931 -3.5018e-21)
(0.997802 0.0135341 6.97873e-21)
(0.998023 0.0137583 -3.47119e-21)
(0.998257 0.0139651 6.90094e-21)
(0.998504 0.0141529 4.42887e-24)
(0.998762 0.014322 6.79577e-21)
(0.999031 0.014471 -3.37347e-21)
(0.999312 0.014599 0)
(0.999603 0.0147066 -2.92132e-24)
(0.999906 0.0147912 6.60442e-21)
(1.00022 0.0148543 0)
(1.00055 0.0148932 0)
(1.00089 0.0149076 5.65109e-21)
(1.00125 0.0149038 8.05216e-22)
(0.999107 0.00174848 1.01901e-21)
(0.99881 0.00190835 7.16422e-21)
(0.998472 0.00210726 8.08926e-21)
(0.998122 0.0023258 -8.15109e-21)
(0.997771 0.00257063 0)
(0.99743 0.00283866 -1.23173e-23)
(0.997103 0.00312949 -4.06646e-21)
(0.99679 0.00344554 -4.05075e-21)
(0.996496 0.00377985 1.20465e-20)
(0.99622 0.00413718 -4.00173e-21)
(0.995962 0.00451175 0)
(0.995725 0.00490366 7.96386e-21)
(0.995507 0.00531377 -7.90763e-21)
(0.99531 0.00573557 2.95312e-23)
(0.995134 0.00617249 7.8676e-21)
(0.994979 0.00661993 -1.97647e-21)
(0.994845 0.0070763 -1.91397e-21)
(0.994733 0.00754371 3.89709e-21)
(0.994643 0.00801505 0)
(0.994575 0.00849195 -1.91997e-21)
(0.994529 0.0089736 1.92069e-21)
(0.994505 0.0094553 1.90656e-21)
(0.994503 0.00993777 -1.9065e-21)
(0.994524 0.0104194 2.37711e-22)
(0.994567 0.0108969 2.93005e-23)
(0.994632 0.0113701 7.00117e-22)
(0.994718 0.0118377 -2.96046e-24)
(0.994826 0.0122967 0)
(0.994956 0.0127466 0)
(0.995107 0.0131864 -3.5627e-25)
(0.995278 0.0136134 -1.80272e-21)
(0.99547 0.0140271 3.62634e-21)
(0.995682 0.0144262 -3.59345e-21)
(0.995914 0.0148087 3.55714e-21)
(0.996164 0.0151741 -7.11121e-21)
(0.996433 0.0155212 1.89207e-23)
(0.99672 0.0158482 3.50788e-21)
(0.997025 0.0161546 3.46161e-21)
(0.997346 0.0164396 -6.91798e-21)
(0.997684 0.0167014 -6.85611e-21)
(0.998037 0.0169403 -3.40997e-21)
(0.998407 0.0171546 -3.38393e-21)
(0.99879 0.0173435 0)
(0.999188 0.0175074 -3.32323e-21)
(0.999601 0.0176436 -1.1177e-23)
(1.00003 0.0177538 6.53593e-21)
(1.00047 0.0178346 -8.1009e-21)
(1.00094 0.0178862 1.59276e-21)
(1.00143 0.0179209 0)
(0.998473 1.24851e-05 0)
(0.998071 0.000227698 -8.20072e-21)
(0.997625 0.000480649 0)
(0.997168 0.000774261 8.16484e-21)
(0.996711 0.00110394 4.08825e-21)
(0.996259 0.00146377 -8.16782e-21)
(0.995822 0.00185187 1.21912e-20)
(0.995404 0.00227137 4.04199e-21)
(0.995009 0.00271312 -4.03375e-21)
(0.994637 0.00318326 0)
(0.994291 0.00367462 4.02576e-21)
(0.99397 0.00418755 -8.02493e-21)
(0.993676 0.00472316 4.03231e-21)
(0.993409 0.00527324 -3.97123e-21)
(0.99317 0.00584228 3.37224e-23)
(0.992959 0.00642444 3.97098e-21)
(0.992777 0.0070178 -7.90118e-21)
(0.992624 0.00762502 0)
(0.992499 0.00823727 3.90563e-21)
(0.992405 0.00885669 -3.90556e-21)
(0.992341 0.00948216 -9.64364e-22)
(0.992306 0.0101079 0)
(0.992302 0.0107349 9.65391e-22)
(0.992327 0.0113611 2.38526e-22)
(0.992382 0.0119824 -5.05791e-22)
(0.992468 0.0125984 7.07851e-22)
(0.992582 0.0132078 4.65088e-22)
(0.992726 0.0138068 -9.35408e-22)
(0.9929 0.0143946 0)
(0.993101 0.0149698 -1.83605e-21)
(0.993331 0.0155295 3.67236e-21)
(0.993588 0.0160727 0)
(0.993872 0.0165979 1.79951e-21)
(0.994183 0.0171026 0)
(0.994519 0.017586 3.55018e-21)
(0.994879 0.0180469 -7.06546e-21)
(0.995264 0.018483 3.49262e-21)
(0.995672 0.0188936 -2.52803e-23)
(0.996102 0.0192777 3.42219e-21)
(0.996554 0.0196333 -3.43882e-21)
(0.997026 0.0199608 3.39679e-21)
(0.997518 0.0202581 6.7425e-21)
(0.998029 0.0205242 0)
(0.998558 0.02076 0)
(0.999105 0.020962 -6.58776e-21)
(0.999671 0.0211326 -1.30477e-20)
(1.00026 0.0212673 1.29384e-20)
(1.00087 0.0213674 -7.23111e-21)
(1.00152 0.021453 7.14505e-21)
(0.997618 -0.00250468 0)
(0.997082 -0.00216931 8.39081e-21)
(0.996496 -0.00176516 8.3731e-21)
(0.995891 -0.00134032 1.25241e-20)
(0.995288 -0.000927543 -1.2506e-20)
(0.994697 -0.0004831 -4.13598e-21)
(0.994127 1.94019e-05 1.24624e-20)
(0.993589 0.000565308 -4.11514e-21)
(0.99307 0.00113951 4.11754e-21)
(0.99258 0.00174974 0)
(0.992121 0.00238679 8.23662e-21)
(0.991696 0.00305096 0)
(0.991305 0.00374334 -4.03403e-21)
(0.990948 0.0044539 -4.07825e-21)
(0.990629 0.00518827 5.65217e-23)
(0.990345 0.0059392 0)
(0.9901 0.00670439 4.01238e-21)
(0.989893 0.007487 7.99913e-21)
(0.989724 0.00827638 0)
(0.989595 0.00907518 1.96709e-21)
(0.989505 0.00988176 -1.96644e-21)
(0.989455 0.0106893 -1.94619e-21)
(0.989445 0.0114988 1.95799e-21)
(0.989474 0.0123075 -4.56485e-24)
(0.989544 0.0131108 -4.80935e-22)
(0.989654 0.0139079 -2.11539e-22)
(0.989803 0.0146968 -4.74957e-22)
(0.989991 0.0154732 9.46052e-22)
(0.990219 0.0162359 0)
(0.990484 0.016983 1.8494e-21)
(0.990787 0.0177109 -3.68333e-21)
(0.991127 0.0184183 0)
(0.991502 0.0191032 0)
(0.991912 0.0197625 3.58791e-21)
(0.992356 0.020395 -7.14884e-21)
(0.992832 0.0209995 3.56394e-21)
(0.993341 0.021573 3.52961e-21)
(0.993878 0.0221144 0)
(0.994445 0.022623 1.03683e-20)
(0.995039 0.0230958 -6.85817e-21)
(0.995659 0.0235338 -3.38936e-21)
(0.996304 0.0239341 2.44664e-24)
(0.996973 0.0242958 -6.67924e-21)
(0.997664 0.0246202 -6.61134e-21)
(0.998377 0.0249029 -6.55375e-21)
(0.999114 0.0251472 2.21329e-23)
(0.999877 0.0253474 -2.8227e-23)
(1.00067 0.0255059 0)
(1.00151 0.0256538 -1.2649e-20)
(0.996489 -0.00578367 0)
(0.995798 -0.00535189 2.21878e-21)
(0.995042 -0.00485073 -1.04803e-20)
(0.994254 -0.00431184 -8.37177e-21)
(0.993466 -0.00373392 8.35834e-21)
(0.992697 -0.00311385 4.2704e-21)
(0.991954 -0.00241508 -4.13561e-21)
(0.991243 -0.00171235 0)
(0.990566 -0.00101711 0)
(0.989927 -0.000243355 8.39818e-21)
(0.989331 0.000572244 -8.24518e-21)
(0.988773 0.00142297 4.13435e-21)
(0.988256 0.00230942 -4.13092e-21)
(0.987785 0.00321956 4.12276e-21)
(0.987361 0.00416017 4.12365e-21)
(0.986984 0.0051223 -4.08466e-21)
(0.986656 0.006103 -4.03007e-21)
(0.986377 0.00710585 -4.00975e-21)
(0.986148 0.00811839 4.01019e-21)
(0.985972 0.00914358 -4.00919e-21)
(0.985847 0.0101791 0)
(0.985774 0.011217 1.99313e-21)
(0.985755 0.012258 -1.95612e-21)
(0.985788 0.0132987 1.4647e-21)
(0.985874 0.0143337 0)
(0.986013 0.0153612 9.64412e-22)
(0.986205 0.0163789 0)
(0.986449 0.0173816 -9.44986e-22)
(0.986745 0.0183673 1.88788e-23)
(0.987091 0.0193334 1.39059e-23)
(0.987488 0.0202756 3.73242e-21)
(0.987933 0.0211918 0)
(0.988425 0.0220796 0)
(0.988963 0.0229348 0)
(0.989546 0.0237559 0)
(0.99017 0.0245413 -7.11873e-21)
(0.990836 0.0252871 3.54366e-21)