/*--------------------------------*- C++ -*----------------------------------*\
| =========                 |                                                 |
| \\      /  F ield         | OpenFOAM: The Open Source CFD Toolbox           |
|  \\    /   O peration     | Version:  2312                                  |
|   \\  /    A nd           | Website:  www.openfoam.com                      |
|    \\/     M anipulation  |                                                 |
\*---------------------------------------------------------------------------*/
FoamFile
{
    version     2.0;
    format      ascii;
    arch        "LSB;label=32;scalar=64";
    class       volScalarField;
    location    "82.068694173199816";
    object      p;
}
// * * * * * * * * * * * * * * * * * * * * * * * * * * * * * * * * * * * * * //

dimensions      [0 2 -2 0 0 0 0];

internalField   nonuniform List<scalar> 
21039
(
0.611427
0.477648
0.435401
0.407106
0.385725
0.36957
0.357042
0.347037
0.338873
0.332098
0.326395
0.321533
0.317339
0.313684
0.310462
0.307591
0.305003
0.302642
0.300459
0.298415
0.296474
0.294606
0.292782
0.291088
0.289613
0.288317
0.287154
0.286085
0.285091
0.464377
0.426503
0.412627
0.394211
0.377384
0.364022
0.353181
0.344226
0.336764
0.330481
0.325135
0.32054
0.316552
0.313057
0.309965
0.3072
0.304701
0.302414
0.300296
0.298306
0.296411
0.294581
0.292789
0.291115
0.289648
0.288352
0.287188
0.286118
0.285123
0.374983
0.372579
0.374703
0.367911
0.359409
0.351539
0.344196
0.33756
0.331705
0.326568
0.322063
0.318102
0.314603
0.311495
0.308714
0.306206
0.303923
0.30182
0.29986
0.298009
0.296236
0.294511
0.292811
0.291209
0.289791
0.288531
0.287394
0.286346
0.285369
0.336939
0.339045
0.343487
0.342363
0.33969
0.3364
0.332511
0.32849
0.324603
0.320951
0.31758
0.314499
0.311696
0.309149
0.306829
0.304705
0.302747
0.300926
0.299213
0.297581
0.296003
0.294455
0.292913
0.291443
0.290128
0.288947
0.28787
0.286869
0.285927
0.311992
0.315952
0.321822
0.323501
0.323658
0.322868
0.321255
0.319231
0.317016
0.314735
0.312484
0.310321
0.308275
0.306358
0.30457
0.302901
0.301339
0.299866
0.298464
0.297112
0.295789
0.294475
0.29315
0.291865
0.290694
0.289626
0.288637
0.287702
0.286808
0.292446
0.297691
0.305029
0.308876
0.310849
0.311606
0.311469
0.310818
0.309835
0.308643
0.307343
0.306006
0.304676
0.303381
0.302138
0.300952
0.29982
0.298735
0.297687
0.296662
0.295642
0.294611
0.293551
0.292497
0.291509
0.290583
0.289705
0.288854
0.288023
0.279793
0.284803
0.291889
0.296821
0.30002
0.301924
0.302891
0.303265
0.303224
0.302895
0.302383
0.301759
0.301074
0.300364
0.299651
0.298949
0.298262
0.297591
0.296929
0.296266
0.295591
0.294888
0.29414
0.293362
0.292594
0.291843
0.291102
0.290357
0.289603
0.272631
0.276719
0.282452
0.287393
0.291086
0.293645
0.295353
0.296476
0.297162
0.29753
0.297675
0.297668
0.297559
0.297388
0.297181
0.296954
0.296717
0.296473
0.296221
0.295953
0.295659
0.295325
0.294937
0.294481
0.293976
0.293434
0.292859
0.292243
0.291585
0.268262
0.27145
0.275811
0.280299
0.283991
0.28678
0.288877
0.290475
0.29168
0.292584
0.293264
0.293781
0.294181
0.294502
0.294771
0.295005
0.295216
0.295409
0.295583
0.295736
0.295857
0.295933
0.295951
0.295866
0.295668
0.295373
0.294995
0.294535
0.293995
0.265022
0.267464
0.270784
0.274742
0.27825
0.281063
0.283336
0.285211
0.286764
0.288063
0.289164
0.290117
0.290961
0.291726
0.292439
0.293116
0.293768
0.294402
0.295018
0.295613
0.29618
0.296707
0.297178
0.297516
0.297672
0.297668
0.297523
0.297244
0.296845
0.262207
0.26405
0.266625
0.270074
0.273347
0.276115
0.27847
0.280514
0.282306
0.283898
0.285334
0.28665
0.287878
0.289045
0.290171
0.291271
0.292357
0.293433
0.294502
0.29556
0.296602
0.297616
0.298591
0.299406
0.29997
0.300304
0.300432
0.300364
0.300115
0.259496
0.260897
0.262946
0.265931
0.268959
0.271652
0.27404
0.276193
0.27816
0.279982
0.28169
0.283315
0.284882
0.286413
0.287925
0.289432
0.290943
0.292463
0.293994
0.295534
0.297076
0.298612
0.300134
0.301482
0.302509
0.303232
0.303682
0.30387
0.30381
0.256725
0.257819
0.259504
0.262093
0.264884
0.267486
0.269876
0.272098
0.274196
0.2762
0.278136
0.280029
0.281899
0.283764
0.285639
0.287538
0.289467
0.291433
0.293435
0.29547
0.297532
0.299616
0.301719
0.303641
0.30518
0.306345
0.307166
0.307654
0.307822
0.25382
0.254702
0.25613
0.25839
0.260964
0.26347
0.265842
0.268108
0.270303
0.272454
0.274583
0.276709
0.27885
0.281023
0.283243
0.285521
0.287865
0.290279
0.292759
0.2953
0.297895
0.300537
0.30323
0.305738
0.307807
0.309444
0.310674
0.311501
0.311934
0.250755
0.251491
0.25272
0.254693
0.257062
0.259468
0.261812
0.264103
0.266372
0.268641
0.270931
0.273259
0.275644
0.278101
0.280646
0.283294
0.286049
0.288914
0.291883
0.294943
0.29808
0.301279
0.304538
0.307584
0.310131
0.312204
0.313837
0.315022
0.315756
0.24779
0.248422
0.249496
0.251258
0.253462
0.255775
0.258086
0.260391
0.262713
0.265073
0.267491
0.269985
0.272573
0.275278
0.278116
0.281104
0.284247
0.287545
0.29099
0.294561
0.298223
0.301933
0.305656
0.309039
0.31179
0.314003
0.315784
0.317166
0.318139
0.245245
0.245809
0.246791
0.248421
0.250503
0.252735
0.255016
0.257335
0.259703
0.262138
0.26466
0.267288
0.270048
0.272963
0.276057
0.279346
0.28284
0.286541
0.290438
0.2945
0.29867
0.302861
0.30696
0.310455
0.312988
0.314724
0.31593
0.316865
0.317748
0.243111
0.243633
0.244551
0.246087
0.248076
0.250256
0.252537
0.254887
0.257307
0.259812
0.262426
0.265175
0.268089
0.271197
0.274525
0.278094
0.281921
0.286013
0.290358
0.294923
0.299637
0.304366
0.308903
0.312489
0.314515
0.315019
0.314265
0.312767
0.311612
0.241374
0.241948
0.242891
0.244335
0.246163
0.248243
0.250523
0.252925
0.255411
0.257991
0.260699
0.263569
0.266635
0.269929
0.273483
0.277326
0.281481
0.285963
0.290768
0.295868
0.301191
0.30659
0.311798
0.315817
0.317614
0.316703
0.312756
0.305209
0.293785
0.284135
0.283171
0.28221
0.281252
0.280295
0.279338
0.278381
0.277422
0.276462
0.275498
0.274531
0.273559
0.272583
0.2716
0.270612
0.269617
0.268615
0.267605
0.266588
0.265563
0.26453
0.263489
0.26244
0.261383
0.260318
0.259247
0.258168
0.257083
0.255993
0.254897
0.253796
0.252692
0.251584
0.250474
0.249363
0.248251
0.247139
0.246029
0.244921
0.243816
0.242716
0.241622
0.240535
0.239455
0.238385
0.237324
0.236274
0.235234
0.234208
0.284169
0.283213
0.282263
0.281314
0.280367
0.279419
0.278471
0.277521
0.276569
0.275613
0.274654
0.273689
0.272719
0.271743
0.27076
0.269769
0.26877
0.267764
0.266748
0.265724
0.264691
0.263649
0.262598
0.261538
0.26047
0.259394
0.25831
0.257219
0.256122
0.255018
0.253909
0.252796
0.251678
0.250558
0.249436
0.248313
0.247189
0.246067
0.244947
0.24383
0.242717
0.24161
0.240509
0.239416
0.238332
0.237258
0.236194
0.235143
0.234104
0.284435
0.283503
0.282574
0.281647
0.280719
0.279791
0.278861
0.277927
0.27699
0.276048
0.275101
0.274147
0.273185
0.272215
0.271237
0.270249
0.269251
0.268243
0.267224
0.266194
0.265154
0.264102
0.26304
0.261967
0.260884
0.259792
0.258689
0.257578
0.256459
0.255332
0.254199
0.25306
0.251916
0.250767
0.249616
0.248463
0.247309
0.246156
0.245004
0.243854
0.242708
0.241567
0.240432
0.239305
0.238186
0.237077
0.235979
0.234893
0.233819
0.285027
0.28413
0.283233
0.282334
0.281434
0.280531
0.279624
0.278711
0.277792
0.276865
0.27593
0.274986
0.274031
0.273065
0.272088
0.271098
0.270095
0.269079
0.268049
0.267006
0.265949
0.264878
0.263794
0.262696
0.261586
0.260463
0.259329
0.258184
0.257028
0.255863
0.254689
0.253507
0.252319
0.251125
0.249927
0.248726
0.247523
0.246318
0.245114
0.243912
0.242713
0.241518
0.240328
0.239145
0.23797
0.236804
0.235649
0.234505
0.233373
0.285953
0.285102
0.284245
0.283385
0.282519
0.281646
0.280767
0.279877
0.278978
0.278068
0.277146
0.27621
0.27526
0.274295
0.273315
0.272318
0.271304
0.270273
0.269225
0.26816
0.267077
0.265976
0.264859
0.263725
0.262575
0.26141
0.26023
0.259036
0.257828
0.256609
0.255379
0.254139
0.252891
0.251634
0.250372
0.249105
0.247834
0.24656
0.245286
0.244012
0.242741
0.241472
0.240208
0.238949
0.237698
0.236456
0.235222
0.234
0.23279
0.287225
0.286431
0.285625
0.284811
0.283986
0.283151
0.282304
0.281442
0.280566
0.279674
0.278764
0.277837
0.27689
0.275923
0.274935
0.273926
0.272896
0.271843
0.270768
0.269671
0.268552
0.267411
0.266249
0.265066
0.263863
0.262641
0.261401
0.260143
0.258869
0.25758
0.256276
0.254961
0.253634
0.252297
0.250952
0.2496
0.248242
0.246881
0.245517
0.244152
0.242788
0.241426
0.240068
0.238714
0.237367
0.236028
0.234697
0.233377
0.232069
0.288876
0.28815
0.287405
0.286645
0.28587
0.285078
0.284269
0.283439
0.282589
0.281716
0.280819
0.279899
0.278952
0.27798
0.27698
0.275953
0.274899
0.273816
0.272705
0.271567
0.2704
0.269207
0.267988
0.266742
0.265472
0.264178
0.262862
0.261524
0.260165
0.258788
0.257394
0.255984
0.254559
0.253122
0.251675
0.250218
0.248753
0.247283
0.245809
0.244332
0.242855
0.241379
0.239905
0.238436
0.236972
0.235515
0.234066
0.232628
0.231203
0.290943
0.290294
0.28962
0.288924
0.288207
0.287465
0.286698
0.285904
0.285082
0.284229
0.283345
0.28243
0.281481
0.280499
0.279483
0.278431
0.277345
0.276223
0.275067
0.273876
0.272651
0.271393
0.270102
0.26878
0.267427
0.266045
0.264635
0.263199
0.261738
0.260254
0.258749
0.257224
0.255681
0.254123
0.252551
0.250968
0.249374
0.247773
0.246165
0.244554
0.242941
0.241328
0.239716
0.238108
0.236505
0.234909
0.23332
0.231742
0.230179
0.293455
0.292896
0.292302
0.29168
0.291028
0.290344
0.289625
0.28887
0.288078
0.287247
0.286376
0.285464
0.28451
0.283514
0.282475
0.281392
0.280267
0.279098
0.277886
0.276631
0.275336
0.273999
0.272623
0.271208
0.269756
0.268269
0.266748
0.265195
0.263612
0.262
0.260363
0.258701
0.257018
0.255314
0.253594
0.25186
0.250112
0.248354
0.246589
0.244818
0.243043
0.241267
0.239493
0.23772
0.235953
0.234193
0.232441
0.2307
0.228977
0.296438
0.29595
0.295451
0.294933
0.29436
0.293735
0.293068
0.292356
0.291598
0.290792
0.289935
0.289027
0.288066
0.287053
0.285988
0.284869
0.283697
0.282473
0.281197
0.279869
0.278491
0.277064
0.275589
0.274067
0.272501
0.270891
0.26924
0.26755
0.265823
0.264061
0.262268
0.260445
0.258595
0.25672
0.254825
0.252911
0.25098
0.249037
0.247083
0.245121
0.243156
0.241187
0.239219
0.237254
0.235293
0.233341
0.231396
0.229465
0.227556
0.299837
0.29952
0.299152
0.298733
0.298251
0.297576
0.296999
0.296359
0.29565
0.294874
0.294036
0.293136
0.292172
0.291144
0.290051
0.288895
0.287675
0.286392
0.285046
0.283639
0.28217
0.280643
0.279057
0.277415
0.275719
0.273969
0.272169
0.270322
0.268429
0.266493
0.264517
0.262504
0.260458
0.25838
0.256275
0.254148
0.251998
0.249833
0.247654
0.245465
0.243271
0.241071
0.238873
0.236677
0.234488
0.232307
0.230136
0.227982
0.225855
0.303685
0.303488
0.303215
0.302881
0.30249
0.302038
0.301518
0.300921
0.300249
0.299507
0.2987
0.297815
0.296854
0.295818
0.294705
0.293518
0.292255
0.290916
0.289504
0.288016
0.286456
0.284824
0.283121
0.281349
0.279511
0.277606
0.27564
0.273614
0.271529
0.269391
0.267202
0.264964
0.262685
0.260364
0.258008
0.255622
0.253208
0.250773
0.248319
0.245853
0.243379
0.240898
0.23842
0.235944
0.233477
0.231022
0.228579
0.226159
0.223775
0.307886
0.307841
0.307707
0.307501
0.307219
0.306861
0.306425
0.305909
0.305316
0.304644
0.303887
0.303041
0.302111
0.301095
0.299994
0.298802
0.297516
0.296141
0.294678
0.293123
0.29148
0.28975
0.28793
0.286027
0.28404
0.281968
0.279818
0.277591
0.275287
0.272914
0.270473
0.267968
0.265406
0.262789
0.260125
0.25742
0.254675
0.251903
0.249106
0.246291
0.243467
0.240634
0.237805
0.234981
0.23217
0.229375
0.226599
0.223855
0.221159
0.312219
0.312349
0.312381
0.312335
0.312205
0.311991
0.311691
0.311303
0.310827
0.310258
0.309597
0.308837
0.307973
0.307003
0.306069
0.304893
0.30362
0.302245
0.300765
0.299171
0.297471
0.295663
0.293742
0.291714
0.289578
0.28733
0.284981
0.282528
0.279971
0.27732
0.274576
0.271743
0.268831
0.265841
0.262785
0.259671
0.2565
0.253291
0.250045
0.246776
0.243493
0.240201
0.236916
0.23364
0.230387
0.22716
0.223964
0.220816
0.217735
0.316295
0.316619
0.316852
0.31702
0.317115
0.317137
0.317077
0.31693
0.316691
0.316346
0.315897
0.315333
0.314656
0.313857
0.312926
0.31188
0.310736
0.309434
0.308007
0.30644
0.304737
0.302895
0.300905
0.298776
0.296502
0.294079
0.291516
0.28881
0.28596
0.282976
0.27986
0.276616
0.273258
0.269786
0.266217
0.262562
0.258826
0.25503
0.251182
0.247298
0.243394
0.239479
0.235577
0.231693
0.227849
0.224052
0.220309
0.216644
0.213082
0.318911
0.319395
0.319876
0.320393
0.32091
0.321401
0.321821
0.322143
0.322344
0.322402
0.322317
0.322074
0.321681
0.32114
0.320441
0.31958
0.318548
0.317494
0.316195
0.314717
0.313078
0.311266
0.309265
0.307082
0.304707
0.30213
0.299359
0.296389
0.293212
0.289846
0.286288
0.282545
0.278635
0.274559
0.270342
0.265997
0.261532
0.256979
0.252346
0.247659
0.242939
0.238202
0.233482
0.228792
0.224168
0.219629
0.215193
0.210896
0.206773
0.318702
0.319259
0.320174
0.321438
0.322843
0.324239
0.325494
0.326549
0.327374
0.327952
0.328305
0.328431
0.328358
0.3281
0.32766
0.327056
0.326259
0.325291
0.324267
0.322975
0.321478
0.319777
0.317847
0.31569
0.313287
0.310616
0.307685
0.304481
0.300992
0.297238
0.293214
0.288931
0.284413
0.279665
0.274721
0.269601
0.264318
0.258913
0.253397
0.247804
0.242157
0.236475
0.230799
0.225147
0.219569
0.214105
0.208804
0.203742
0.198984
0.311185
0.312171
0.315236
0.319095
0.322793
0.32598
0.328543
0.330525
0.332008
0.33306
0.333775
0.33419
0.334368
0.334342
0.334126
0.333755
0.333209
0.332482
0.33156
0.330727
0.329421
0.327919
0.326166
0.324142
0.321811
0.319133
0.316109
0.312714
0.30893
0.304778
0.300256
0.29538
0.290186
0.284684
0.278926
0.27294
0.266752
0.260418
0.253951
0.247395
0.240771
0.234092
0.227392
0.220669
0.213961
0.207305
0.200783
0.194592
0.189012
0.285095
0.295574
0.307598
0.317325
0.324416
0.329405
0.332862
0.335273
0.336963
0.33813
0.338925
0.339413
0.339679
0.339761
0.339684
0.339491
0.339168
0.338737
0.338152
0.337387
0.336463
0.335288
0.333817
0.332035
0.329891
0.327318
0.324296
0.320784
0.316754
0.312234
0.307225
0.301751
0.295866
0.289591
0.282999
0.276137
0.269044
0.261795
0.254417
0.246964
0.239462
0.231916
0.224342
0.216688
0.208919
0.200942
0.192673
0.184174
0.176067
0.233202
0.232157
0.231013
0.229755
0.228361
0.22682
0.225162
0.223577
0.22221
0.221093
0.220259
0.219744
0.219586
0.219834
0.22054
0.221766
0.22359
0.22611
0.229453
0.233783
0.239325
0.24639
0.255425
0.267106
0.282531
0.3033
0.331105
0.372895
0.506319
0.233083
0.23202
0.230856
0.229572
0.228145
0.226565
0.22486
0.223225
0.221807
0.220636
0.219746
0.219169
0.218942
0.219108
0.219716
0.220821
0.222494
0.224819
0.227905
0.231887
0.236947
0.24332
0.251313
0.261313
0.273948
0.290154
0.30807
0.321482
0.359032
0.232763
0.231661
0.23045
0.229108
0.22761
0.225943
0.224134
0.222383
0.220845
0.219547
0.21852
0.217792
0.217395
0.217362
0.217731
0.218546
0.219855
0.221715
0.22419
0.227356
0.231291
0.236077
0.241767
0.248284
0.255435
0.263313
0.269578
0.266953
0.269048
0.232258
0.231089
0.2298
0.228365
0.226756
0.224955
0.222985
0.221056
0.219332
0.21784
0.216603
0.215645
0.214989
0.214658
0.214676
0.215065
0.21585
0.21705
0.218682
0.220749
0.223233
0.22608
0.229182
0.232264
0.234849
0.236901
0.237477
0.23253
0.230155
0.231592
0.230334
0.228938
0.227378
0.22562
0.223641
0.221459
0.219298
0.217337
0.215598
0.2141
0.21286
0.211891
0.211206
0.210814
0.21072
0.210925
0.21142
0.212184
0.213179
0.214336
0.215552
0.216692
0.217528
0.217637
0.216875
0.214655
0.208315
0.204141
0.23077
0.229398
0.22787
0.226154
0.224211
0.222012
0.219573
0.217134
0.214894
0.21287
0.211075
0.209522
0.208215
0.207157
0.206345
0.205771
0.20542
0.205265
0.205269
0.205375
0.205503
0.205542
0.205359
0.204762
0.203361
0.200815
0.196456
0.188696
0.183284
0.22978
0.228271
0.226584
0.224681
0.222518
0.220059
0.217317
0.21456
0.212004
0.209666
0.207553
0.205671
0.204019
0.202591
0.201377
0.200358
0.199509
0.198795
0.198169
0.197568
0.196909
0.196079
0.194935
0.193293
0.190798
0.187073
0.181675
0.174223
0.169088
0.22861
0.226939
0.225063
0.222939
0.220518
0.217758
0.214672
0.211557
0.208657
0.205983
0.20354
0.201326
0.199336
0.197558
0.195973
0.194558
0.19328
0.192098
0.190962
0.189806
0.188548
0.18708
0.185271
0.182965
0.179883
0.175728
0.170384
0.164351
0.160179
0.227237
0.225375
0.223279
0.220899
0.218179
0.215076
0.211603
0.208096
0.204828
0.201806
0.19903
0.196493
0.194185
0.192087
0.190175
0.188422
0.186789
0.185235
0.183708
0.182143
0.180469
0.178593
0.176413
0.173812
0.170589
0.166517
0.161703
0.157113
0.153876
0.225618
0.223535
0.221182
0.218506
0.215446
0.211954
0.208053
0.204124
0.20047
0.197096
0.193995
0.191156
0.18856
0.186184
0.184
0.181974
0.180069
0.17824
0.176438
0.174607
0.172683
0.170595
0.168264
0.165602
0.162461
0.158673
0.154474
0.150998
0.148537
0.223684
0.221343
0.218695
0.215677
0.212228
0.208302
0.203931
0.199555
0.195508
0.191789
0.188383
0.185273
0.182432
0.17983
0.177435
0.17521
0.173115
0.171106
0.169137
0.167157
0.165113
0.162948
0.160597
0.15799
0.155018
0.151576
0.147981
0.145322
0.143484
0.221329
0.218686
0.215693
0.212282
0.208391
0.203981
0.199105
0.194265
0.18983
0.185786
0.182112
0.178775
0.175744
0.17298
0.170444
0.168096
0.165894
0.163793
0.16175
0.159717
0.15765
0.155499
0.153211
0.150728
0.147972
0.1449
0.141869
0.139804
0.138433
0.218383
0.215384
0.211988
0.208124
0.203734
0.198795
0.193387
0.188085
0.183286
0.178962
0.175073
0.171576
0.168425
0.165575
0.162978
0.160588
0.158363
0.156254
0.15422
0.152217
0.150204
0.14814
0.145979
0.143672
0.141165
0.138464
0.135935
0.134299
0.133256
0.214559
0.211136
0.207271
0.20289
0.19795
0.192451
0.186511
0.180782
0.17568
0.17115
0.167132
0.163564
0.160387
0.157543
0.154977
0.152636
0.150473
0.148441
0.146498
0.144601
0.142712
0.140796
0.138815
0.136723
0.134485
0.132145
0.130052
0.128733
0.127921
0.209414
0.205489
0.201083
0.19613
0.190611
0.18456
0.178143
0.17208
0.166786
0.16217
0.158146
0.154629
0.151543
0.148817
0.146388
0.144197
0.14219
0.140323
0.138549
0.13683
0.13513
0.133416
0.131654
0.129807
0.127856
0.125873
0.124171
0.123103
0.122445
0.202552
0.198093
0.193152
0.187678
0.181684
0.175238
0.168541
0.162354
0.157066
0.152549
0.148687
0.145374
0.142516
0.140031
0.137847
0.135902
0.134139
0.132508
0.130969
0.129482
0.128012
0.12653
0.125007
0.123415
0.121746
0.12008
0.118693
0.117825
0.117275
0.194169
0.1892
0.183861
0.178092
0.1719
0.165353
0.158665
0.152606
0.147533
0.143289
0.139732
0.136739
0.134205
0.132038
0.130163
0.128513
0.127032
0.125669
0.124387
0.123143
0.121906
0.12065
0.119352
0.117998
0.116589
0.115192
0.114045
0.113326
0.112854
0.183669
0.178484
0.173252
0.167677
0.161688
0.155362
0.148942
0.143214
0.138509
0.134656
0.131495
0.128893
0.126733
0.124923
0.123382
0.122045
0.120855
0.119764
0.118739
0.117732
0.116717
0.115666
0.114561
0.113403
0.112213
0.11105
0.110109
0.109521
0.109113
0.169677
0.165749
0.161737
0.156946
0.151518
0.145649
0.139674
0.134409
0.130169
0.126774
0.124058
0.121874
0.120106
0.118658
0.117451
0.11642
0.115512
0.114681
0.11389
0.113103
0.112287
0.111412
0.110466
0.109488
0.108551
0.107685
0.106951
0.106416
0.10599
0.239584
0.23994
0.240705
0.242176
0.244202
0.246493
0.248908
0.251383
0.253924
0.256576
0.259382
0.262378
0.265602
0.269089
0.272875
0.276993
0.281477
0.286347
0.291606
0.297233
0.303166
0.309253
0.315194
0.319831
0.321763
0.319803
0.312433
0.297316
0.266123
0.237789
0.238268
0.239151
0.240615
0.242563
0.244786
0.247171
0.249663
0.252263
0.255008
0.257933
0.261075
0.264473
0.268165
0.272192
0.276597
0.281418
0.286687
0.292421
0.298621
0.305268
0.312278
0.319435
0.325671
0.329659
0.330676
0.328148
0.32387
0.328012
0.235944
0.236506
0.237476
0.23894
0.240824
0.242977
0.245315
0.247798
0.250432
0.253245
0.256264
0.259526
0.26307
0.26694
0.271184
0.275853
0.281
0.286674
0.292922
0.299794
0.307365
0.315729
0.324984
0.334554
0.343558
0.352171
0.360746
0.367917
0.384362
0.234023
0.234566
0.235511
0.236964
0.238858
0.241023
0.243362
0.245851
0.248509
0.251366
0.254455
0.257811
0.261474
0.265495
0.269928
0.274836
0.280285
0.28635
0.293115
0.300693
0.30927
0.319184
0.330919
0.344431
0.359078
0.375053
0.393101
0.40986
0.43133
0.232028
0.232537
0.233434
0.234859
0.236757
0.23894
0.241292
0.243792
0.246469
0.249359
0.252499
0.255926
0.259686
0.26383
0.268422
0.273534
0.279247
0.285659
0.292892
0.301118
0.310616
0.32196
0.335917
0.35275
0.371884
0.393423
0.417242
0.441873
0.468845
0.22996
0.230452
0.231317
0.232708
0.234578
0.236745
0.23909
0.241588
0.244271
0.247178
0.250349
0.253823
0.257648
0.261882
0.266592
0.271858
0.277775
0.284458
0.29206
0.300802
0.310986
0.32341
0.338921
0.357748
0.379208
0.403818
0.431821
0.461707
0.4915
0.227813
0.228295
0.229139
0.23049
0.232312
0.234439
0.236752
0.239228
0.241897
0.244799
0.247974
0.251464
0.255318
0.259597
0.264371
0.269728
0.275769
0.282619
0.290451
0.29953
0.310051
0.323064
0.339005
0.359464
0.38264
0.407969
0.435091
0.463036
0.491064
0.225582
0.226052
0.226872
0.228179
0.229942
0.232012
0.234276
0.23671
0.239342
0.242212
0.245361
0.248831
0.252672
0.256945
0.261722
0.267094
0.273167
0.280058
0.287947
0.297172
0.30755
0.320738
0.337359
0.357758
0.380388
0.404235
0.428504
0.452756
0.476788
0.223263
0.223722
0.224514
0.225769
0.227463
0.229462
0.231659
0.23403
0.236602
0.239412
0.242502
0.245913
0.249695
0.253906
0.258619
0.263922
0.269924
0.276721
0.284462
0.293427
0.303986
0.316864
0.332989
0.35205
0.372594
0.393742
0.414752
0.43537
0.45489
0.220857
0.221304
0.222066
0.223262
0.224875
0.226787
0.228899
0.231185
0.233671
0.236393
0.23939
0.242702
0.246376
0.250469
0.255047
0.26019
0.266012
0.272572
0.280076
0.288754
0.298916
0.311025
0.325789
0.342781
0.360564
0.378389
0.395699
0.412516
0.42786
0.218359
0.218793
0.219522
0.220653
0.222176
0.223987
0.225996
0.228177
0.230553
0.233158
0.236027
0.239199
0.242717
0.246634
0.251009
0.255908
0.26144
0.267721
0.274822
0.282972
0.292341
0.303312
0.316313
0.330849
0.345562
0.35978
0.373119
0.385897
0.397265
0.215772
0.216192
0.216885
0.217947
0.21937
0.221067
0.222955
0.22501
0.227251
0.229709
0.232418
0.235411
0.238727
0.242415
0.246519
0.251116
0.256287
0.262133
0.268681
0.276099
0.284478
0.294094
0.30514
0.317036
0.328594
0.33927
0.348839
0.35778
0.365513
0.213098
0.213509
0.214169
0.215158
0.216469
0.218034
0.21978
0.221685
0.223767
0.226052
0.228567
0.231343
0.234413
0.237817
0.241603
0.245827
0.250553
0.255835
0.26171
0.268266
0.275536
0.283673
0.292684
0.301944
0.310507
0.317995
0.324336
0.330046
0.33478
0.210339
0.210736
0.211355
0.212264
0.21346
0.214885
0.216477
0.218217
0.220119
0.222204
0.224496
0.227021
0.229806
0.232884
0.236294
0.240077
0.244278
0.248924
0.254037
0.259646
0.265735
0.272348
0.279359
0.286171
0.292102
0.296942
0.300739
0.303995
0.306552
0.2075
0.207884
0.208463
0.209289
0.210361
0.211636
0.21306
0.214617
0.216319
0.218184
0.220226
0.222473
0.22494
0.227653
0.230639
0.233926
0.237543
0.241497
0.245787
0.2504
0.255278
0.260392
0.265538
0.270202
0.273954
0.276729
0.278658
0.280215
0.281414
0.204587
0.20496
0.205498
0.206239
0.207182
0.208297
0.20954
0.210899
0.212382
0.214007
0.215786
0.217727
0.219846
0.222158
0.224681
0.227429
0.230415
0.233631
0.237054
0.240643
0.244316
0.247998
0.251455
0.254291
0.256312
0.257566
0.258223
0.258733
0.259268
0.201606
0.201965
0.202459
0.203112
0.203924
0.204875
0.205932
0.207083
0.208332
0.20971
0.211203
0.212818
0.214566
0.216451
0.218481
0.220657
0.222979
0.225424
0.227955
0.230513
0.233006
0.235342
0.237289
0.238596
0.239284
0.239483
0.239353
0.239313
0.239692
0.198565
0.198912
0.199362
0.199925
0.200605
0.201389
0.202252
0.203184
0.204201
0.205313
0.206507
0.207785
0.209145
0.210585
0.2121
0.213684
0.21532
0.216976
0.218603
0.220135
0.22148
0.222551
0.223142
0.223167
0.222835
0.222328
0.221747
0.221477
0.221996
0.195476
0.195814
0.19622
0.196695
0.197241
0.197854
0.198514
0.199228
0.200005
0.200843
0.201732
0.202662
0.203625
0.204607
0.205596
0.206573
0.207511
0.208368
0.209087
0.209599
0.209822
0.209683
0.209022
0.207929
0.206782
0.20579
0.204957
0.204629
0.205437
0.192346
0.192672
0.193032
0.193418
0.193833
0.194279
0.194737
0.195239
0.195771
0.196335
0.196916
0.197495
0.198056
0.198578
0.199037
0.199404
0.199642
0.199699
0.199512
0.19901
0.198123
0.196797
0.194931
0.192794
0.190937
0.189577
0.188598
0.188296
0.189453
0.189186
0.189502
0.189816
0.190115
0.190404
0.19067
0.190955
0.191237
0.191527
0.191821
0.192096
0.192329
0.192492
0.192558
0.192493
0.192258
0.191805
0.191072
0.18999
0.188483
0.186489
0.183974
0.180889
0.177692
0.17512
0.173406
0.172292
0.172023
0.173538
0.186006
0.186315
0.186586
0.186797
0.186956
0.187078
0.187174
0.187241
0.187297
0.187329
0.187307
0.187201
0.186978
0.186599
0.186025
0.185204
0.184078
0.182576
0.180616
0.178117
0.175013
0.171278
0.166901
0.162525
0.159115
0.156944
0.155611
0.155317
0.157176
0.18282
0.183126
0.18336
0.183475
0.183534
0.183501
0.183406
0.183271
0.183105
0.182886
0.182579
0.182149
0.181554
0.180751
0.179688
0.178306
0.176536
0.174293
0.171484
0.168013
0.163798
0.158801
0.153013
0.147242
0.142723
0.139841
0.138072
0.137607
0.139783
0.179635
0.179934
0.180113
0.180192
0.180126
0.179938
0.179671
0.17935
0.178977
0.178523
0.177949
0.177212
0.176268
0.175063
0.17354
0.17163
0.169253
0.166311
0.162695
0.158288
0.15298
0.14669
0.139371
0.13193
0.125912
0.121884
0.119266
0.118351
0.120767
0.176464
0.176755
0.176915
0.176931
0.176747
0.176414
0.175988
0.175496
0.174933
0.174265
0.173444
0.172426
0.171158
0.169583
0.167636
0.16524
0.162304
0.158718
0.154356
0.149075
0.142727
0.135165
0.126245
0.11688
0.108887
0.103073
0.0988763
0.0969811
0.0995297
0.173318
0.173598
0.173727
0.173667
0.17338
0.172925
0.172364
0.171728
0.171002
0.170143
0.169102
0.167828
0.166267
0.164357
0.162028
0.159194
0.155755
0.15159
0.146556
0.140485
0.133189
0.124445
0.11398
0.102606
0.0922874
0.0839959
0.0771427
0.0732861
0.0758069
0.170227
0.170546
0.170698
0.170592
0.170185
0.169563
0.168837
0.168054
0.167183
0.166161
0.164931
0.163436
0.16162
0.15942
0.15676
0.153549
0.149679
0.145018
0.139409
0.132669
0.124573
0.114821
0.102979
0.0896866
0.0769294
0.0657127
0.0551235
0.0471651
0.0477762
0.13553
0.116281
0.0898839
0.0561148
0.0181962
-0.0192542
-0.0528495
-0.0840624
-0.112561
-0.142999
-0.173803
-0.20942
-0.245942
-0.280146
-0.307819
-0.326223
-0.335423
-0.337802
-0.337304
0.141901
0.126599
0.101338
0.0667307
0.0253106
-0.0189525
-0.0618014
-0.105182
-0.145826
-0.190405
-0.235324
-0.280839
-0.324528
-0.362901
-0.39246
-0.411899
-0.422533
-0.427149
-0.428771
0.135659
0.121402
0.097645
0.0629704
0.019268
-0.0301671
-0.0802407
-0.13499
-0.189473
-0.244448
-0.299378
-0.353063
-0.402616
-0.444546
-0.476169
-0.49711
-0.509248
-0.515432
-0.518424
0.123602
0.109876
0.0880864
0.0541185
0.00805508
-0.0464468
-0.105518
-0.167717
-0.231527
-0.296092
-0.360344
-0.422179
-0.477806
-0.52343
-0.556913
-0.578782
-0.591711
-0.598852
-0.602805
0.109082
0.0961522
0.0752817
0.0413954
-0.00630797
-0.0641965
-0.128942
-0.198022
-0.270163
-0.343977
-0.416958
-0.485682
-0.545657
-0.59326
-0.627342
-0.649493
-0.663035
-0.671099
-0.67588
0.0895863
0.0769744
0.0571709
0.024129
-0.0239313
-0.0838081
-0.152366
-0.227556
-0.307172
-0.388723
-0.468517
-0.542038
-0.604558
-0.653132
-0.687714
-0.71067
-0.725618
-0.735428
-0.741856
0.0654706
0.0518608
0.0323869
0.000242599
-0.0474821
-0.108375
-0.179555
-0.25897
-0.343657
-0.429997
-0.513253
-0.588093
-0.649925
-0.69677
-0.729667
-0.751591
-0.766301
-0.776276
-0.782913
0.0381728
0.0224634
0.00196499
-0.0303052
-0.0778891
-0.139123
-0.211462
-0.29268
-0.379385
-0.467151
-0.550409
-0.623464
-0.682336
-0.726191
-0.756953
-0.777844
-0.792415
-0.802599
-0.809543
0.00875189
-0.0095517
-0.0321473
-0.065753
-0.113799
-0.174995
-0.247144
-0.328011
-0.413948
-0.499925
-0.579853
-0.648196
-0.701953
-0.741393
-0.769035
-0.788095
-0.801809
-0.81163
-0.818384
-0.0219172
-0.0428022
-0.0679698
-0.103656
-0.152686
-0.213715
-0.284803
-0.36382
-0.446977
-0.528862
-0.603284
-0.665334
-0.713165
-0.747979
-0.772619
-0.790118
-0.803319
-0.813308
-0.820547
-0.052821
-0.0760183
-0.103787
-0.141796
-0.192128
-0.253065
-0.322693
-0.39885
-0.477503
-0.552994
-0.619451
-0.673047
-0.713194
-0.741845
-0.761939
-0.776227
-0.787092
-0.795385
-0.801355
-0.0827236
-0.107803
-0.137865
-0.177951
-0.229488
-0.29022
-0.358035
-0.430557
-0.503504
-0.5713
-0.628916
-0.673887
-0.706741
-0.729839
-0.745944
-0.757385
-0.76603
-0.772613
-0.777262
-0.110462
-0.136922
-0.168775
-0.210354
-0.262591
-0.322705
-0.388309
-0.456767
-0.523674
-0.583849
-0.633349
-0.670972
-0.698015
-0.716943
-0.730217
-0.739778
-0.747104
-0.752904
-0.757118
-0.135192
-0.162591
-0.195733
-0.238168
-0.290489
-0.349446
-0.412339
-0.47621
-0.536615
-0.589018
-0.630703
-0.661587
-0.683459
-0.698695
-0.709401
-0.71715
-0.723085
-0.727855
-0.731292
-0.156334
-0.184333
-0.21833
-0.261049
-0.31284
-0.370052
-0.429696
-0.488561
-0.542395
-0.587552
-0.62253
-0.64809
-0.666216
-0.679028
-0.688237
-0.695066
-0.700383
-0.704744
-0.707909
-0.173675
-0.202079
-0.236626
-0.279224
-0.33003
-0.385062
-0.441146
-0.494982
-0.54273
-0.581707
-0.61141
-0.633119
-0.648797
-0.660259
-0.668866
-0.675562
-0.681025
-0.68569
-0.689208
-0.187363
-0.216154
-0.25114
-0.293467
-0.343084
-0.395657
-0.44786
-0.496448
-0.538224
-0.571544
-0.596737
-0.615355
-0.629182
-0.639684
-0.647894
-0.654511
-0.66006
-0.664832
-0.668441
-0.197619
-0.22694
-0.262429
-0.304568
-0.353032
-0.403092
-0.451341
-0.494797
-0.531106
-0.559621
-0.581276
-0.597678
-0.610339
-0.620375
-0.628522
-0.635261
-0.640996
-0.645899
-0.649596
-0.204736
-0.234876
-0.271114
-0.313402
-0.36105
-0.40888
-0.453482
-0.492304
-0.5239
-0.548484
-0.567379
-0.582124
-0.593949
-0.603667
-0.611776
-0.618598
-0.624446
-0.629425
-0.633177
-0.209034
-0.240417
-0.277854
-0.320882
-0.36825
-0.414157
-0.455212
-0.489504
-0.516652
-0.537679
-0.554145
-0.567409
-0.578385
-0.587611
-0.595393
-0.601938
-0.607503
-0.612163
-0.615626
-0.210596
-0.243775
-0.283039
-0.327638
-0.37549
-0.419974
-0.457765
-0.487807
-0.510877
-0.528723
-0.543025
-0.554921
-0.565026
-0.573641
-0.580926
-0.587004
-0.592085
-0.596254
-0.599303
-0.209408
-0.245067
-0.286969
-0.334161
-0.383373
-0.426966
-0.461732
-0.487689