/*--------------------------------*- C++ -*----------------------------------*\
| =========                 |                                                 |
| \\      /  F ield         | OpenFOAM: The Open Source CFD Toolbox           |
|  \\    /   O peration     | Version:  2312                                  |
|   \\  /    A nd           | Website:  www.openfoam.com                      |
|    \\/     M anipulation  |                                                 |
\*---------------------------------------------------------------------------*/
FoamFile
{
    version     2.0;
    format      ascii;
    arch        "LSB;label=32;scalar=64";
    class       surfaceScalarField;
    location    "2.107938234691545";
    object      phi;
}
// * * * * * * * * * * * * * * * * * * * * * * * * * * * * * * * * * * * * * //

dimensions      [0 3 -1 0 0 0 0];

oriented        oriented;

internalField   nonuniform List<scalar> 
41713
(
0.00718204
0.0570644
0.00349575
0.0679327
0.00198217
0.06576
0.00131007
0.0649185
0.000896527
0.06466
0.000619839
0.0645231
0.000421474
0.0644448
0.000270242
0.0643977
0.000149583
0.0643671
4.9611e-05
0.0643464
-3.61631e-05
0.0643322
-0.000111585
0.0643219
-0.000179074
0.0643139
-0.00024048
0.0643078
-0.000297146
0.0643031
-0.000349985
0.0642993
-0.000399599
0.0642961
-0.000446375
0.0642932
-0.000490529
0.0642906
-0.000532138
0.064288
-0.000571129
0.0642854
-0.000607311
0.0642826
-0.000640559
0.0642797
-0.000666368
0.054837
-0.000685801
0.0456954
-0.000700435
0.0380779
-0.000711518
0.0317305
-0.000719901
0.0264412
0.0220336
-0.00072614
0.00967138
0.047393
0.00794593
0.0696582
0.00522301
0.0684829
0.00359161
0.0665499
0.00253816
0.0657134
0.00179156
0.0652697
0.00123528
0.0650011
0.000803799
0.0648291
0.00045645
0.0647144
0.000167187
0.0646357
-8.08151e-05
0.0645802
-0.000298762
0.0645398
-0.000494187
0.0645094
-0.000672383
0.064486
-0.000836987
0.0644677
-0.000990509
0.0644528
-0.00113465
0.0644402
-0.0012705
0.0644291
-0.00139869
0.0644188
-0.00151951
0.0644089
-0.00163295
0.0643989
-0.00173884
0.0643885
-0.00183676
0.0643776
-0.00191326
0.0549135
-0.00197152
0.0457537
-0.00201582
0.0381223
-0.00204942
0.0317641
-0.00207486
0.0264667
0.0220531
-0.00209433
0.00810266
0.0392904
0.00887337
0.0688875
0.00658628
0.07077
0.00478975
0.0683465
0.00353147
0.0669717
0.00256254
0.0662387
0.0017903
0.0657733
0.00116251
0.0654569
0.000639958
0.065237
0.000194168
0.0650815
-0.000194932
0.0649693
-0.000541231
0.0648861
-0.000854949
0.0648231
-0.00114329
0.0647744
-0.0014113
0.0647357
-0.0016625
0.064704
-0.00189924
0.0646769
-0.00212304
0.0646529
-0.00233472
0.0646305
-0.00253462
0.0646088
-0.00272264
0.0645869
-0.00289839
0.0645642
-0.00306103
0.0645403
-0.0031882
0.0550407
-0.00328513
0.0458506
-0.00335891
0.038196
-0.00341502
0.0318202
-0.00345779
0.0265095
0.022086
-0.00349071
0.00616806
0.0331223
0.0082776
0.0667779
0.00678303
0.0722646
0.005093
0.0700365
0.00383189
0.0682328
0.00281987
0.0672507
0.00196838
0.0666248
0.00123964
0.0661857
0.000606355
0.0658703
4.70491e-05
0.0656408
-0.000454105
0.0654705
-0.000909764
0.0653418
-0.00132949
0.0652428
-0.00172027
0.0651652
-0.00208715
0.0651026
-0.00243367
0.0650505
-0.00276221
0.0650055
-0.00307417
0.0649648
-0.00337022
0.0649265
-0.00365038
0.0648889
-0.00391423
0.0648507
-0.0041609
0.0648109
-0.00438896
0.0647683
-0.00456701
0.0552187
-0.00470241
0.045986
-0.00480519
0.0382988
-0.00488317
0.0318982
-0.00494255
0.0265688
0.0221317
-0.0049882
0.00434651
0.0287758
0.00700478
0.0641197
0.00633793
0.0729314
0.00489243
0.071482
0.00368712
0.0694381
0.00269394
0.0682439
0.00182846
0.0674903
0.00105677
0.0669574
0.000360239
0.0665668
-0.000276328
0.0662773
-0.000862979
0.0660571
-0.00140892
0.0658877
-0.00192131
0.0657552
-0.00240548
0.0656493
-0.00286534
0.0655624
-0.00330357
0.0654887
-0.00372185
0.0654238
-0.00412097
0.0653639
-0.00450095
0.0653065
-0.00486121
0.0652492
-0.00520065
0.0651902
-0.00551775
0.065128
-0.00581035
0.0650609
-0.0060382
0.0554465
-0.00621084
0.0461586
-0.00634131
0.0384293
-0.00643984
0.0319967
-0.00651456
0.0266436
0.0221888
-0.00657171
0.00277123
0.0260046
0.00538897
0.0615019
0.00543448
0.0728859
0.00436979
0.0725467
0.00329678
0.0705111
0.00236284
0.0691778
0.0015179
0.0683352
0.000735795
0.0677395
4.71622e-06
0.0672979
-0.00068098
0.066963
-0.00132995
0.0667061
-0.00194722
0.066505
-0.00253686
0.0663448
-0.00310192
0.0662144
-0.0036446
0.0661051
-0.00416621
0.0660104
-0.00466726
0.0659248
-0.00514749
0.0658442
-0.00560592
0.0657649
-0.00604097
0.0656842
-0.00645057
0.0655998
-0.00683233
0.0655098
-0.00718347
0.0654121
-0.00745602
0.0557191
-0.00766199
0.0463646
-0.00781729
0.0385846
-0.00793435
0.0321138
-0.00802293
0.0267321
0.0222564
-0.00809051
0.00155572
0.0244488
0.00378903
0.0592686
0.00431676
0.0723582
0.00367667
0.0731868
0.00280525
0.0713826
0.00197236
0.0700107
0.00117952
0.0691281
0.000415162
0.0685038
-0.000323277
0.0680363
-0.00103771
0.0676775
-0.00172891
0.0673973
-0.00239856
0.0671746
-0.00304803
0.0669943
-0.00367819
0.0668446
-0.0042894
0.0667163
-0.00488143
0.0666024
-0.00545343
0.0664968
-0.00600384
0.0663946
-0.00653039
0.0662915
-0.00703018
0.066184
-0.00749986
0.0660694
-0.00793604
0.065946
-0.00833563
0.0658116
-0.00864525
0.0560287
-0.00887974
0.0465991
-0.00905746
0.0387623
-0.00919224
0.0322486
-0.00929476
0.0268347
0.0223348
-0.00937322
0.000712117
0.0237367
0.0024403
0.0575404
0.00323224
0.0715663
0.00297658
0.0734424
0.00233257
0.0720266
0.0016224
0.0707208
0.000900132
0.0698503
0.000171703
0.0692323
-0.000556897
0.0687649
-0.00128041
0.068401
-0.00199561
0.0681125
-0.00270048
0.0678795
-0.00339352
0.0676873
-0.00407348
0.0675245
-0.00473897
0.0673818
-0.00538828
0.0672517
-0.00601917
0.0671277
-0.00662872
0.0670041
-0.00721325
0.066876
-0.00776831
0.0667391
-0.00828909
0.0665902
-0.00877124
0.0664281
-0.00921202
0.0662524
-0.00955482
0.0563715
-0.00981741
0.0468617
-0.0100197
0.0389646
-0.0101756
0.0324045
-0.010296
0.0269551
0.022428
-0.0103892
0.000184818
0.0235519
0.00140903
0.0563162
0.00230146
0.0706738
0.00235038
0.0733935
0.00192296
0.072454
0.00133513
0.0713087
0.000685066
0.0705004
-1.81883e-06
0.0699191
-0.000711298
0.0694744
-0.00143322
0.0691229
-0.00216052
0.0688398
-0.00288828
0.0686073
-0.00361281
0.0684119
-0.00433109
0.0682428
-0.0050403
0.068091
-0.00573744
0.0679488
-0.00641907
0.0678093
-0.00708104
0.0676661
-0.00771832
0.0675133
-0.00832502
0.0673458
-0.00889492
0.0671601
-0.00942305
0.0669562
-0.00990794
0.0667373
-0.0102898
0.0567534
-0.0105887
0.0471605
-0.0108246
0.0392005
-0.0110108
0.0325907
-0.0111572
0.0271015
0.0225431
-0.0112723
-0.000100498
0.0236524
0.000672715
0.055543
0.00153409
0.0698125
0.0017829
0.0731447
0.00153489
0.072702
0.00105662
0.0717869
0.000472572
0.0710845
-0.000173803
0.0705655
-0.000860806
0.0701614
-0.00157479
0.0698369
-0.00230616
0.0695711
-0.00304807
0.0693492
-0.00379536
0.0691592
-0.00454384
0.0689913
-0.00528968
0.0688369
-0.00602898
0.0686882
-0.00675746
0.0685378
-0.00747009
0.0683787
-0.00816084
0.0682041
-0.00882277
0.0680077
-0.00944875
0.0677861
-0.0100338
0.0675413
-0.0105784
0.0672819
-0.0110165
0.0571915
-0.0113679
0.047512
-0.0116519
0.0394844
-0.0118802
0.0328191
-0.0120626
0.0272839
0.0226881
-0.0122075
-0.000217544
0.0238699
0.00018421
0.0551412
0.000901785
0.0690949
0.0012308
0.0728157
0.00110487
0.0728279
0.000716286
0.0721755
0.00019211
0.0716086
-0.000413261
0.0711709
-0.00107361
0.0708218
-0.00177286
0.0705361
-0.00250011
0.0702984
-0.00324755
0.0700966
-0.00400932
0.0699209
-0.00478063
0.0697626
-0.00555719
0.0696134
-0.00633472
0.0694657
-0.00710859
0.0693117
-0.00787339
0.0691435
-0.00862273
0.0689534
-0.00934924
0.0687342
-0.0100457
0.0684825
-0.0107076
0.0682033
-0.0113373
0.0679115
-0.011856
0.0577103
-0.0122804
0.0479363
-0.0126278
0.0398318
-0.0129095
0.0331008
-0.0131358
0.0275102
0.0228688
-0.0133166
-0.0002409
0.0241108
-0.000115057
0.0550154
0.000385591
0.0685942
0.000683603
0.0725177
0.000614634
0.0728969
0.000291271
0.0724989
-0.00017862
0.0720785
-0.000740569
0.0717328
-0.00136753
0.0714487
-0.00204329
0.0712119
-0.00275678
0.0710119
-0.00350012
0.07084
-0.00426741
0.0706882
-0.00505393
0.0705491
-0.00585549
0.070415
-0.00666802
0.0702782
-0.00748709
0.0701307
-0.00830762
0.069964
-0.0091235
0.0697693
-0.00992776
0.0695385
-0.0107137
0.0692685
-0.0114778
0.0689674
-0.0122228
0.0686565
-0.0128491
0.0583365
-0.0133665
0.0484537
-0.0137909
0.0402562
-0.0141347
0.0334446
-0.0144105
0.027786
0.023089
-0.0146307
-0.000222805
0.0243336
-0.000280216
0.0550728
-1.44585e-05
0.0683285
0.00017707
0.0723261
0.000107941
0.072966
-0.000176298
0.0727831
-0.00059962
0.0725018
-0.00111728
0.0722505
-0.00170574
0.0720372
-0.00235052
0.0718567
-0.00304173
0.0717031
-0.00377237
0.0715706
-0.00453726
0.0714531
-0.0053324
0.0713442
-0.00615437
0.071237
-0.00699992
0.0711238
-0.00786555
0.0709964
-0.00874713
0.0708456
-0.00963964
0.0706618
-0.0105372
0.070436
-0.0114342
0.0701655
-0.0123279
0.069861
-0.0132196
0.0695483
-0.0139801
0.0590971
-0.0146103
0.0490838
-0.0151251
0.0407711
-0.01554
0.0338595
-0.0158714
0.0281175
0.023353
-0.0161354
-0.000192583
0.0245262
-0.000355387
0.0552356
-0.000293156
0.0682662
-0.000235385
0.0722684
-0.000341379
0.073072
-0.000609797
0.0730515
-0.000997737
0.0728898
-0.00147513
0.0727279
-0.00202472
0.0725868
-0.00263547
0.0724674
-0.00329984
0.0723675
-0.00401261
0.0722834
-0.00477013
0.0722106
-0.0055698
0.0721439
-0.00640967
0.0720768
-0.00728801
0.0720021
-0.00820297
0.0719113
-0.00915217
0.0717948
-0.0101324
0.071642
-0.0111396
0.0714432
-0.0121697
0.0711956
-0.0132204
0.0709117
-0.0142904
0.0706182
-0.0152133
0.06002
-0.0159787
0.0498493
-0.016602
0.0413944
-0.0171026
0.03436
-0.0175018
0.0285167
0.0236708
-0.0178196
-0.000160479
0.0246867
-0.000368508
0.0554436
-0.00045022
0.068348
-0.000512499
0.0723307
-0.0006689
0.0732284
-0.000938345
0.073321
-0.00130356
0.073255
-0.00174876
0.0731731
-0.00226385
0.0731019
-0.00284221
0.0730458
-0.00347945
0.0730047
-0.00417286
0.0729768
-0.00492099
0.0729588
-0.00572335
0.0729463
-0.00658015
0.0729336
-0.00749193
0.0729139
-0.00845927
0.0728787
-0.00948242
0.072818
-0.0105609
0.0727205
-0.0116934
0.0725757
-0.0128782
0.0723804
-0.0141138
0.0721474
-0.0153966
0.0719011
-0.0165169
0.0611402
-0.0174511
0.0507836
-0.0182136
0.0421568
-0.0188269
0.0349733
-0.0193171
0.0290069
0.0240622
-0.0197085
-0.00010805
0.0247948
-0.00028809
0.0556237
-0.000425037
0.0684849
-0.000547164
0.0724528
-0.000714626
0.0733959
-0.000947495
0.0735539
-0.00124395
0.0735515
-0.00159933
0.0735285
-0.00201018
0.0735127
-0.00247438
0.07351
-0.00299088
0.0735212
-0.0035596
0.0735455
-0.00418137
0.0735805
-0.00485778
0.0736227
-0.00559109
0.0736669
-0.006384
0.0737068
-0.00723948
0.0737341
-0.00816044
0.0737389
-0.00914938
0.0737094
-0.0102082
0.0736346
-0.0113385
0.0735107
-0.0125406
0.0733494
-0.0138114
0.0731719
-0.0149383
0.062267
-0.0158892
0.0517345
-0.0166731
0.0429407
-0.0173091
0.0356094
-0.017821
0.0295189
0.0244735
-0.0182323
-6.72566e-05
0.024862
-0.000206222
0.0557627
-0.00034518
0.0686239
-0.00048004
0.0725876
-0.000638662
0.0735545
-0.000836327
0.0737515
-0.00107679
0.0737919
-0.00136051
0.0738122
-0.00168755
0.0738398
-0.00205832
0.0738807
-0.0024737
0.0739366
-0.00293523
0.074007
-0.00344509
0.0740904
-0.00400615
0.0741838
-0.00462194
0.0742827
-0.00529654
0.0743814
-0.00603449
0.0744721
-0.00684055
0.074545
-0.00771944
0.0745883
-0.00867564
0.0745908
-0.00971332
0.0745484
-0.010835
0.0744711
-0.0120395
0.0743764
-0.0131254
0.0633529
-0.0140573
0.0526664
-0.0148393
0.0437227
-0.0154858
0.0362558
-0.0160126
0.0300457
0.0248956
-0.0164348
-3.55694e-05
0.0248976
-0.000138975
0.0558661
-0.000262393
0.0687473
-0.000389081
0.0727143
-0.000529745
0.0736952
-0.000695075
0.0739169
-0.00089024
0.0739871
-0.00111773
0.0740397
-0.0013792
0.0741013
-0.00167626
0.0741778
-0.00201076
0.0742711
-0.00238501
0.0743813
-0.00280187
0.0745072
-0.00326481
0.0746467
-0.00377798
0.0747959
-0.00434616
0.0749496
-0.00497472
0.0751007
-0.00566952
0.0752398
-0.0064367
0.0753555
-0.00728248
0.0754365
-0.00821309
0.075479
-0.00923324
0.0754913
-0.0103417
0.0754849
-0.0113564
0.0643676
-0.0122407
0.0535507
-0.0129956
0.0444776
-0.0136328
0.036893
-0.0141719
0.0305848
0.0253414
-0.0146177
-1.19303e-05
0.0249095
-8.48837e-05
0.055939
-0.000190145
0.0688525
-0.000303241
0.0728274
-0.000424323
0.0738163
-0.000561214
0.0740537
-0.000719493
0.0741454
-0.000902419
0.0742226
-0.00111226
0.0743111
-0.00135109
0.0744166
-0.00162113
0.0745411
-0.00192495
0.0746851
-0.00226564
0.0748479
-0.00264685
0.0750279
-0.00307291
0.0752219
-0.0035488
0.0754255
-0.00408022
0.0756321
-0.0046735
0.0758331
-0.00533561
0.0760176
-0.00607405
0.076175
-0.0068962
0.0763011
-0.00780842
0.0764035
-0.00880792
0.0764844
-0.00973489
0.0652945
-0.010552
0.0543678
-0.0112642
0.0451898
-0.0118842
0.0375131
-0.0124335
0.0311341
-0.0129861
0.025894
-0.000684727
0.0219859
-0.000645605
0.0219882
-0.000615309
0.0219971
-0.000587191
0.0219992
-0.000564735
0.0220049
-0.00054663
0.0220093
-0.00053136
0.0220121
-0.000522233
0.0220182
-0.000514897
0.02202
-0.000512392
0.0220249
-0.000512742
0.0220277
-0.0005154
0.02203
-0.000522304
0.0220343
-0.000530575
0.0220356
-0.000541885
0.0220387
-0.000555273
0.0220407
-0.000569756
0.0220418
-0.000587006
0.0220446
-0.000605074
0.0220454
-0.000624139
0.0220464
-0.00064454
0.0220478
-0.000665304
0.0220481
-0.000686491
0.0220485
-0.000707949
0.0220488
-0.000729259
0.0220487
-0.000750259
0.0220484
-0.000770572
0.0220477
-0.000790183
0.022047
-0.000808777
0.0220459
-0.000825723
0.0220443
-0.000841505
0.0220431
-0.000855305
0.0220412
-0.000866824
0.0220389
-0.00087682
0.0220374
-0.000883275
0.0220338
-0.000887503
0.0220316
-0.000889203
0.0220291
-0.000886495
0.0220246
-0.000881762
0.0220226
-0.000872132
0.0220177
-0.000859118
0.0220143
-0.000842761
0.022011
-0.000820399
0.022005
-0.000795668
0.0220026
-0.000764033
0.0219957
-0.000728773
0.0219921
-0.000688541
0.0219871
-0.000641799
0.0219806
0.0219779
-0.000592307
-0.00205982
0.0219514
-0.00202683
0.0219552
-0.00200213
0.0219724
-0.00197884
0.0219759
-0.0019606
0.0219867
-0.00194607
0.0219947
-0.00193367
0.0219997
-0.00192691
0.0220115
-0.0019212
0.0220143
-0.0019198
0.0220234
-0.00192061
0.0220285
-0.00192309
0.0220325
-0.00192933
0.0220405
-0.00193626
0.0220426
-0.00194573
0.0220481
-0.00195672
0.0220517
-0.00196817
0.0220533
-0.00198199
0.0220584
-0.00199604
0.0220595
-0.00201054
0.0220609
-0.00202598
0.0220632
-0.00204123
0.0220634
-0.00205643
0.0220637
-0.00207152
0.0220639
-0.00208597
0.0220631
-0.00209968
0.0220621
-0.00211238
0.0220604
-0.00212392
0.0220585
-0.00213406
0.0220561
-0.00214228
0.0220525
-0.00214892
0.0220498
-0.0021533
0.0220455
-0.00215512
0.0220407
-0.00215505
0.0220373
-0.00215129
0.02203
-0.002145
0.0220253
-0.00213593
0.02202
-0.00212234
0.0220111
-0.00210644
0.0220067
-0.00208555
0.0219968
-0.0020611
0.0219899
-0.00203315
0.021983
-0.00199916
0.021971
-0.00196261
0.0219661
-0.00191918
0.0219523
-0.00187201
0.0219449
-0.00181979
0.0219349
-0.00176104
0.0219219
0.0219163
-0.00169947
-0.00346254
0.0219233
-0.00343504
0.0219277
-0.0034153
0.0219526
-0.00339616
0.0219568
-0.00338145
0.021972
-0.0033698
0.0219831
-0.00335956
0.0219894
-0.00335442
0.0220063
-0.0033496
0.0220095
-0.00334852
0.0220224
-0.00334902
0.022029
-0.0033505
0.022034
-0.00335525
0.0220453
-0.00335999
0.0220473
-0.00336674
0.0220549
-0.00337443
0.0220594
-0.00338191
0.0220608
-0.00339137
0.0220679
-0.00340041
0.0220685
-0.00340935
0.0220699
-0.0034188
0.0220726
-0.00342748
0.022072
-0.00343563
0.0220719
-0.00344325
0.0220715
-0.00344971
0.0220696
-0.00345497
0.0220673
-0.00345887
0.0220643
-0.00346115
0.0220608
-0.00346163
0.0220566
-0.00345989
0.0220508
-0.00345614
0.022046
-0.00344982
0.0220392
-0.00344066
0.0220315
-0.00342923
0.0220259
-0.00341394
0.0220147
-0.00339582
0.0220072
-0.00337464
0.0219988
-0.00334881
0.0219852
-0.00332039
0.0219783
-0.00328688
0.0219633
-0.00324963
0.0219526
-0.0032087
0.0219421
-0.0031617
0.021924
-0.00311195
0.0219163
-0.00305533
0.0218957
-0.00299485
0.0218844
-0.00292927
0.0218693
-0.00285716
0.0218497
0.0218412
-0.00278208
-0.00496493
0.0219
-0.0049414
0.0219042
-0.00492505
0.0219363
-0.00490841
0.0219402
-0.00489553
0.0219591
-0.00488497
0.0219725
-0.00487502
0.0219795
-0.00486961
0.0220009
-0.00486368
0.0220035
-0.00486089
0.0220196
-0.00485895
0.0220271
-0.00485725
0.0220323
-0.00485829
0.0220463
-0.00485852
0.0220475
-0.00486018
0.0220565
-0.00486212
0.0220614
-0.00486313
0.0220618
-0.00486565
0.0220704
-0.00486705
0.0220699
-0.00486772
0.0220705
-0.00486843
0.0220734
-0.0048677
0.0220713
-0.00486589
0.0220701
-0.0048631
0.0220687
-0.00485856
0.022065
-0.00485231
0.0220611
-0.00484432
0.0220563
-0.00483417
0.0220506
-0.00482176
0.0220442
-0.0048068
0.0220358
-0.00478935
0.0220286
-0.00476899
0.0220189
-0.00474547
0.022008
-0.00471927
0.0219996
-0.00468899
0.0219845
-0.00465556
0.0219737
-0.00461878
0.021962
-0.00457719
0.0219436
-0.00453271
0.0219338
-0.00448303
0.0219137
-0.00442942
0.021899
-0.00437195
0.0218846
-0.00430838
0.0218604
-0.00424189
0.0218498
-0.00416855
0.0218223
-0.00409127
0.0218072
-0.00400889
0.021787
-0.00392002
0.0217609
0.0217493
-0.00382813
-0.00655227
0.0218805
-0.00653158
0.0218835
-0.00651738
0.0219221
-0.00650192
0.0219247
-0.00648941
0.0219466
-0.00647837
0.0219615
-0.00646701
0.0219681
-0.00645947
0.0219934
-0.00645044
0.0219945
-0.00644381
0.0220129
-0.00643717
0.0220204
-0.00642989
0.022025
-0.00642464
0.022041
-0.00641768
0.0220406
-0.00641141
0.0220503
-0.00640465
0.0220546
-0.00639608
0.0220532
-0.00638843
0.0220628
-0.00637884
0.0220603
-0.00636776
0.0220595
-0.0063561
0.0220617
-0.00634227
0.0220575
-0.00632668
0.0220545
-0.00630952
0.0220516
-0.00628995
0.0220455
-0.00626806
0.0220392
-0.00624393
0.0220321
-0.00621704
0.0220237
-0.00618738
0.0220145
-0.00615473
0.0220032
-0.00611907
0.0219929
-0.0060801
0.0219799
-0.00603759
0.0219655
-0.00599196
0.021954
-0.00594201
0.0219345
-0.00588857
0.0219203
-0.00583147
0.0219049
-0.00576942
0.0218816
-0.00570419
0.0218686
-0.00563368
0.0218431
-0.00555907
0.0218244
-0.0054805
0.0218061
-0.00539586
0.0217758
-0.0053082
0.0217622
-0.00521382
0.0217279
-0.00511553
0.0217089
-0.00501224
0.0216837
-0.00490264
0.0216513
0.0216367
-0.00479007
-0.0080757
0.0218657
-0.0080586
0.0218664
-0.00804716
0.0219106
-0.00803334
0.0219109
-0.00802148
0.0219347
-0.00801002
0.02195
-0.00799712
0.0219552
-0.00798707
0.0219833
-0.00797435
0.0219818
-0.00796303
0.0220016
-0.00795063
0.022008
-0.00793649
0.0220108
-0.00792344
0.022028
-0.00790758
0.0220247
-0.00789147
0.0220342
-0.00787388
0.022037
-0.00785346
0.0220328
-0.00783312
0.0220424
-0.00780987
0.0220371
-0.00778423
0.0220338
-0.00775721
0.0220347
-0.00772714
0.0220274
-0.00769452
0.0220219
-0.00765961
0.0220167
-0.00762152
0.0220074
-0.0075804
0.0219981
-0.00753645
0.0219882
-0.00748908
0.0219764
-0.00743835
0.0219638
-0.00738417
0.021949
-0.00732644
0.0219352
-0.00726499
0.0219184
-0.00719963
0.0219002
-0.00713075
0.0218851
-0.00705735
0.0218611
-0.00698017
0.0218431
-0.00689915
0.0218239
-0.00681309
0.0217955
-0.00672372
0.0217792
-0.00662908
0.0217485
-0.00653036
0.0217257
-0.00642771
0.0217034
-0.00631915
0.0216672
-0.00620764
0.0216507
-0.00608963
0.0216099
-0.00596784
0.0215871
-0.00584121
0.021557
-0.00570845
0.0215185
0.0215011
-0.0055728
-0.00936599
0.0218585
-0.0093555
0.021856
-0.00934973
0.0219048
-0.00934038
0.0219015
-0.0093318
0.0219261
-0.00932234
0.0219406
-0.0093101
0.021943
-0.00929944
0.0219727
-0.00928474
0.0219671
-0.00927016
0.0219871
-0.00925318
0.0219911
-0.00923317
0.0219908
-0.00921303
0.0220079
-0.00918882
0.0220005
-0.00916317
0.0220085
-0.00913488
0.0220087
-0.00910259
0.0220005
-0.00906934
0.0220092
-0.00903209
0.0219998
-0.00899142
0.0219932
-0.00894844
0.0219917
-0.00890144
0.0219804
-0.00885101
0.0219714
-0.0087975
0.0219632
-0.00874
0.0219499
-0.00867877
0.0219368
-0.00861406
0.0219235
-0.00854532
0.0219076
-0.00847269
0.0218911
-0.00839616
0.0218724
-0.00831566
0.0218547
-0.00823111
0.0218339
-0.00814242
0.0218115
-0.00804998
0.0217927
-0.00795296
0.0217641
-0.0078521
0.0217423
-0.00774741
0.0217192
-0.00763784
0.021686
-0.00752506
0.0216664
-0.00740728
0.0216307
-0.00728566
0.0216041
-0.00716037
0.0215781
-0.0070295
0.0215364
-0.00689588
0.0215171
-0.00675601
0.0214701
-0.00661246
0.0214435
-0.00646409
0.0214087
-0.00630955
0.021364
0.0213434
-0.0061519
-0.0103942
0.0218635
-0.0103952
0.0218569
-0.0104
0.0219096
-0.0103999
0.0219015
-0.0103994
0.0219256
-0.0103966
0.0219377
-0.0103894
0.0219359
-0.0103825
0.0219657
-0.0103699
0.0219545
-0.010356
0.0219731
-0.0103382
0.0219733
-0.0103159
0.0219685
-0.0102921
0.0219841
-0.0102628
0.0219712
-0.0102308
0.0219765
-0.0101948
0.0219727
-0.0101535
0.0219592
-0.0101101
0.0219658
-0.0100615
0.0219512
-0.0100084
0.0219401
-0.00995203
0.0219353
-0.00989061
0.021919
-0.00982485
0.0219057
-0.00975521
0.0218935
-0.00968079
0.0218755
-0.00960194
0.021858
-0.00951906
0.0218406
-0.00943158
0.0218202
-0.00933977
0.0217993
-0.00924374
0.0217764
-0.00914344
0.0217544
-0.00903894
0.0217294
-0.00893023
0.0217028
-0.00881773
0.0216802
-0.00870081
0.0216472
-0.00858021
0.0216217
-0.00845602
0.021595
-0.00832735
0.0215573
-0.00819583
0.0215349
-0.0080598
0.0214947
-0.00792037
0.0214647
-0.00777767
0.0214354
-0.00762981
0.0213885
-0.00747937
0.0213666
-0.00732283
0.0213135
-0.00716243
0.0212831
-0.00699689
0.0212431
-0.0068247
0.0211918
0.0211674
-0.00664867
-0.011295
0.0218863
-0.011313
0.0218748
-0.0113339
0.0219306
-0.0113489
0.0219164
-0.011362
0.0219387
-0.0113714
0.0219471
-0.0113749
0.0219394
-0.0113772
0.0219679
-0.0113721
0.0219495
-0.0113642
0.0219652
-0.0113508
0.0219599
-0.0113313
0.021949
-0.0113089
0.0219616
-0.0112794
0.0219417
-0.0112457
0.0219428
-0.0112066
0.0219337
-0.0111608
0.0219134
-0.0111117
0.0219167
-0.0110561
0.0218956
-0.0109947
0.0218787
-0.010929
0.0218696
-0.0108571
0.0218471
-0.0107799
0.0218285
-0.0106979
0.0218116
-0.0106103
0.0217879
-0.0105176
0.0217652
-0.0104202
0.0217432
-0.0103177
0.0217176
-0.0102104
0.021692
-0.0100985
0.0216646
-0.00998213
0.021638
-0.00986141
0.0216087
-0.00973647
0.0215778
-0.00960771
0.0215514
-0.0094748
0.0215143
-0.00933841
0.0214853
-0.00919873
0.0214553
-0.00905508
0.0214137
-0.00890893
0.0213887
-0.00875883
0.0213446
-0.00860577
0.0213116
-0.00844976
0.0212794
-0.00828894
0.0212277
-0.00812547
0.0212031
-0.00795581
0.0211439
-0.00778177
0.0211091
-0.00760187
0.0210632
-0.00741446
0.0210044
0.020975
-0.00722209
-0.0122527
0.0219314
-0.0122921
0.0219143
-0.0123339
0.0219724
-0.0123683
0.0219508
-0.0123996
0.02197
-0.0124258
0.0219733
-0.0124444
0.0219581
-0.0124604
0.0219838
-0.0124672
0.0219564
-0.0124697
0.0219677
-0.0124649
0.0219551
-0.0124523
0.0219364
-0.0124352
0.0219445
-0.0124092
0.0219156
-0.0123774
0.021911
-0.0123386
0.0218949
-0.0122913
0.0218661
-0.0122393
0.0218647
-0.0121791
0.0218355
-0.0121117
0.0218113
-0.0120387
0.0217965
-0.011958
0.0217665
-0.0118708
0.0217413
-0.0117778
0.0217185
-0.011678
0.0216881
-0.011572
0.0216593
-0.0114607
0.0216319
-0.0113433
0.0216002
-0.0112204
0.0215691
-0.0110926
0.0215368
-0.0109597
0.021505
-0.0108221
0.0214711
-0.0106802
0.0214359
-0.0105341
0.0214054
-0.0103841
0.0213642
-0.0102305
0.0213317
-0.0100738
0.0212986
-0.0099134
0.0212533
-0.00975066
0.021226
-0.00958435
0.0211783
-0.00941527
0.0211425
-0.00924336
0.0211075
-0.00906674
0.0210511
-0.00888716
0.0210236
-0.00870112
0.0209578
-0.00851005
0.020918
-0.00831234
0.0208655
-0.00810631
0.0207984
0.020763
-0.00789434
-0.0133868
0.0220016
-0.01345
0.0219776
-0.0135148
0.0220371
-0.0135706
0.0220067
-0.013622
0.0220214
-0.0136667
0.022018
-0.0137022
0.0219936
-0.0137335
0.0220151
-0.0137537
0.0219766
-0.0137678
0.0219818
-0.0137727
0.02196
-0.0137676
0.0219314
-0.0137562
0.0219331
-0.0137337
0.0218931
-0.0137034
0.0218807
-0.0136639
0.0218554
-0.0136138
0.021816
-0.0135572
0.021808
-0.0134902
0.0217685
-0.013414
0.021735
-0.0133303
0.0217128
-0.0132371
0.0216733
-0.0131356
0.0216398
-0.0130267
0.0216097
-0.0129094
0.0215707
-0.0127845
0.0215343
-0.0126529
0.0215003
-0.012514
0.0214613
-0.0123685
0.0214237
-0.0122172
0.0213855
-0.0120598
0.0213477
-0.0118971
0.0213084
-0.0117294
0.0212682
-0.0115571
0.0212331
-0.0113805
0.0211876
-0.0112001
0.0211513
-0.0110163
0.0211148
-0.0108289
0.0210658
-0.010639
0.0210361
-0.0104455
0.0209849
-0.0102493
0.0209463
-0.0100501
0.0209084
-0.00984624
0.0208472
-0.00963917
0.0208165
-0.0094255
0.0207441
-0.00920651
0.020699
-0.00898069
0.0206397
-0.00874642
0.0205641
0.0205227
-0.00850612
-0.0147273
0.0220982
-0.0148152
0.0220654
-0.0149033
0.0221252
-0.0149806
0.022084
-0.015052
0.0220928
-0.0151149
0.0220809
-0.0151665
0.0220452
-0.0152121
0.0220607
-0.0152442
0.0220087
-0.015268
0.0220056
-0.0152802
0.0219722
-0.0152797
0.0219309
-0.0152704
0.0219239
-0.0152471
0.0218698
-0.0152134
0.021847
-0.0151677
0.0218098
-0.0151084
0.0217567
-0.0150399
0.0217396
-0.0149583
0.0216868
-0.0148645
0.0216413
-0.0147608
0.0216091
-0.0146449
0.0215574
-0.0145181
0.021513
-0.0143817
0.0214732
-0.0142345
0.0214236
-0.0140775
0.0213774
-0.0139121
0.0213349
-0.0137375
0.0212867
-0.0135547
0.0212408
-0.0133647
0.0211955
-0.0131672
0.0211502
-0.0129633
0.0211045
-0.0127536
0.0210584
-0.0125383
0.0210178
-0.0123182
0.0209674
-0.0120937
0.0209269
-0.0118655
0.0208866
-0.0116334
0.0208337
-0.0113986
0.0208013
-0.0111603
0.0207465
-0.0109191
0.0207051
-0.0106752
0.0206644
-0.0104267
0.0205987
-0.0101753
0.0205651
-0.00991784
0.0204867
-0.00965576
0.020437
-0.00938776
0.0203717
-0.00911243
0.0202888
0.0202427
-0.00883242
-0.016261
0.0222237
-0.0163754
0.0221799
-0.0164886
0.0222384
-0.0165886
0.022184
-0.0166806
0.0221848
-0.0167619
0.0221621
-0.0168291
0.0221124
-0.016888
0.0221195
-0.0169302
0.0220509
-0.0169612
0.0220366
-0.0169771
0.0219881
-0.0169768
0.0219306
-0.0169644
0.0219114
-0.0169339
0.0218393
-0.0168893
0.0218024
-0.0168289
0.0217493
-0.0167506
0.0216784
-0.0166596
0.0216485
-0.0165513
0.0215785
-0.016427
0.021517
-0.0162892
0.0214713
-0.0161354
0.0214036
-0.0159673
0.0213449
-0.0157862
0.0212922
-0.0155912
0.0212286
-0.0153835
0.0211697
-0.0151648
0.0211162
-0.0149344
0.0210563
-0.0146935
0.021
-0.0144436
0.0209456
-0.0141846
0.0208911
-0.0139178
0.0208378
-0.013644
0.0207846
-0.0133638
0.0207376
-0.0130781
0.0206818
-0.0127876
0.0206364
-0.0124932
0.0205921
-0.0121949
0.0205354
-0.011894
0.0205004
-0.01159
0.0204425
-0.0112836
0.0203988
-0.0109753
0.020356
-0.0106634
0.0202868
-0.0103499
0.0202517
-0.010032
0.0201687
-0.00971145
0.0201164
-0.00938732
0.0200476
-0.00905845
0.0199599
0.0199121
-0.00872782
-0.0179823
0.0223865
-0.0181311
0.0223287
-0.0182766
0.0223838
-0.0184059
0.0223133
-0.0185244
0.0223034
-0.018629
0.0222667
-0.0187159
0.0221994
-0.018791
0.0221946
-0.018845
0.0221049
-0.0188836
0.0220753
-0.0189025
0.022007
-0.0189002
0.0219282
-0.0188808
0.0218921
-0.0188379
0.0217964
-0.0187755
0.02174
-0.0186918
0.0216656
-0.0185845
0.0215711
-0.0184591
0.0215232
-0.0183107
0.0214301
-0.0181408
0.0213471
-0.0179522
0.0212827
-0.0177423
0.0211936
-0.0175131
0.0211157
-0.0172665
0.0210456
-0.0170015
0.0209636
-0.0167198
0.020888
-0.0164236
0.02082
-0.0161124
0.020745
-0.015788
0.0206756
-0.0154523
0.0206098
-0.0151053
0.0205442
-0.0147492
0.0204817
-0.0143851
0.0204204
-0.0140138
0.0203663
-0.0136369
0.0203048
-0.0132552
0.0202548
-0.0128701
0.020207
-0.0124819
0.0201473
-0.0120924
0.0201108
-0.011701
0.0200511
-0.0113092
0.0200069
-0.0109174
0.0199643
-0.0105245
0.0198939
-0.010133
0.0198602
-0.00974011
0.0197758
-0.00934812
0.0197244
-0.00895635
0.0196558
-0.0085638
0.0195673
0.0195221
-0.00817377
-0.0199257
0.0226037
-0.0201256
0.0225286
-0.0203197
0.0225779
-0.0204938
0.0224874
-0.0206534
0.022463
-0.0207947
0.022408
-0.0209133
0.022318
-0.0210153
0.0222966
-0.0210902
0.0221798
-0.0211439
0.022129
-0.0211713
0.0220343
-0.0211703
0.0219272
-0.0211455
0.0218673
-0.0210892
0.0217401
-0.0210059
0.0216567
-0.0208931
0.0215529
-0.0207483
0.0214263
-0.0205778
0.0213527
-0.0203758
0.0212281
-0.020144
0.0211154
-0.0198861
0.0210247
-0.019599
0.0209066
-0.0192855
0.0208022
-0.018948
0.0207081
-0.0185857
0.0206013
-0.0182011
0.0205034
-0.0177972
0.0204161
-0.0173738
0.0203216
-0.0169335
0.0202353
-0.0164792
0.0201555
-0.0160114
0.0200764
-0.0155329
0.0200032
-0.0150457
0.0199332
-0.0145511
0.0198717
-0.0140516
0.0198054
-0.0135486
0.0197518
-0.0130439
0.0197023
-0.0125387
0.019642
-0.0120349
0.0196071
-0.011533
0.0195492
-0.0110345
0.0195085
-0.0105407
0.0194704
-0.0100505
0.0194038
-0.00956691
0.0193766
-0.00908724
0.0192961
-0.00861397
0.0192512
-0.00814646
0.0191883
-0.00768374
0.0191046
0.0190677
-0.00722938
-0.0184812
0.0228525
-0.0187127
0.0227601
-0.0189368
0.022802
-0.0191396
0.0226902
-0.0193261
0.0226495
-0.0194924
0.0225743
-0.0196344
0.0224599
-0.0197575
0.0224196
-0.0198515
0.0222738
-0.0199218
0.0221993
-0.019963
0.0220755
-0.0199727
0.021937
-0.019955
0.0218496
-0.019902
0.021687
-0.0198176
0.0215724
-0.0196993
0.0214346
-0.0195442
0.0212712
-0.0193584
0.0211669
-0.0191361
0.0210058
-0.0188793
0.0208586
-0.0185915
0.0207369
-0.0182701
0.0205851
-0.017918
0.0204501
-0.0175383
0.0203284
-0.0171303
0.0201933
-0.0166972
0.0200703
-0.0162426
0.0199615
-0.0157668
0.0198457
-0.015273
0.0197415
-0.0147648
0.0196473
-0.0142431
0.0195546
-0.0137115
0.0194716
-0.0131723
0.0193941
-0.0126274
0.0193268
-0.0120799
0.0192579
-0.0115316
0.0192034
-0.0109845
0.0191553
-0.0104408
0.0190983
-0.0099024
0.0190687
-0.00937063
0.0190174
-0.00884745
0.0189853
-0.00833446
0.0189574
-0.00783167
0.018901
-0.00734187
0.0188868
-0.00686313
0.0188174
-0.00639743
0.0187855
-0.00594355
0.0187344
-0.00549923
0.0186603
0.0186347
-0.00506625
-0.0167072
0.0231249
-0.0169613
0.0230141
-0.017206
0.0230467
-0.0174294
0.0229136
-0.0176363
0.0228564
-0.0178238
0.0227618
-0.0179877
0.0226239
-0.018133
0.0225649
-0.0182495
0.0223903
-0.0183417
0.0222915
-0.0184038
0.0221376
-0.0184329
0.0219661
-0.0184321
0.0218488
-0.0183931
0.0216481
-0.0183195
0.0214988
-0.0182082
0.0213233
-0.0180562