/*--------------------------------*- C++ -*----------------------------------*\
| =========                 |                                                 |
| \\      /  F ield         | OpenFOAM: The Open Source CFD Toolbox           |
|  \\    /   O peration     | Version:  2312                                  |
|   \\  /    A nd           | Website:  www.openfoam.com                      |
|    \\/     M anipulation  |                                                 |
\*---------------------------------------------------------------------------*/
FoamFile
{
    version     2.0;
    format      ascii;
    arch        "LSB;label=32;scalar=64";
    class       volScalarField;
    location    "20.81242947400473";
    object      p;
}
// * * * * * * * * * * * * * * * * * * * * * * * * * * * * * * * * * * * * * //

dimensions      [0 2 -2 0 0 0 0];

internalField   nonuniform List<scalar> 
21039
(
0.692586
0.558801
0.516653
0.488424
0.467124
0.451064
0.438641
0.428753
0.420718
0.414083
0.408531
0.403831
0.399812
0.396342
0.393316
0.390653
0.388283
0.38615
0.384207
0.382412
0.380729
0.379129
0.377581
0.376151
0.374902
0.373798
0.372796
0.371862
0.37098
0.545476
0.507648
0.493854
0.475505
0.458763
0.445496
0.434761
0.425924
0.41859
0.412448
0.407253
0.402821
0.399007
0.395698
0.392803
0.390245
0.387964
0.385907
0.384028
0.382288
0.380653
0.379091
0.377576
0.376167
0.374926
0.373823
0.372821
0.371887
0.371005
0.456014
0.453661
0.455868
0.449153
0.440739
0.432966
0.42573
0.419213
0.413486
0.408491
0.404137
0.400339
0.397015
0.394093
0.39151
0.38921
0.387145
0.385273
0.383554
0.381954
0.380441
0.378988
0.377567
0.376231
0.375044
0.373978
0.373005
0.372094
0.371232
0.417878
0.420026
0.424555
0.42352
0.420939
0.417749
0.413969
0.410067
0.406311
0.4028
0.399581
0.396664
0.394037
0.391677
0.389554
0.38764
0.385903
0.384314
0.382844
0.381466
0.380152
0.378877
0.377618
0.37642
0.375338
0.374355
0.373445
0.372584
0.371759
0.392816
0.396807
0.402765
0.40454
0.404794
0.404107
0.402606
0.400704
0.398621
0.396484
0.394386
0.392388
0.390518
0.38879
0.387201
0.385744
0.384404
0.383166
0.382009
0.380914
0.379859
0.378823
0.377786
0.376778
0.375846
0.37498
0.374162
0.373371
0.372598
0.373126
0.378395
0.385819
0.389767
0.391843
0.392707
0.392685
0.392159
0.39131
0.390262
0.389118
0.387947
0.386795
0.385691
0.384649
0.383676
0.382769
0.381922
0.381123
0.380358
0.379611
0.378863
0.378098
0.377327
0.376584
0.375867
0.375165
0.374463
0.373757
0.360302
0.365329
0.372498
0.377536
0.380842
0.382857
0.383942
0.384444
0.384539
0.384357
0.384002
0.383547
0.383043
0.382524
0.382015
0.381528
0.38107
0.380639
0.380229
0.379832
0.379435
0.379021
0.378575
0.378087
0.377572
0.377036
0.376478
0.375889
0.375266
0.352943
0.35704
0.362852
0.367901
0.371706
0.374381
0.376211
0.377464
0.378289
0.378806
0.37911
0.379273
0.379347
0.379369
0.379368
0.379359
0.379354
0.379354
0.379359
0.379361
0.37935
0.379312
0.379233
0.379077
0.378832
0.378511
0.378126
0.377679
0.377153
0.348349
0.351542
0.355975
0.360573
0.364382
0.367289
0.369512
0.371243
0.37259
0.373644
0.374486
0.375174
0.375759
0.376275
0.376752
0.377207
0.377652
0.378093
0.378529
0.378957
0.379369
0.37975
0.380086
0.380309
0.380381
0.380316
0.380131
0.379832
0.379433
0.34486
0.347301
0.350687
0.354756
0.358384
0.36132
0.363721
0.365731
0.367428
0.368879
0.370143
0.371269
0.372298
0.373261
0.374183
0.375083
0.375973
0.376858
0.37774
0.378617
0.379482
0.380322
0.381124
0.381782
0.382218
0.382453
0.382511
0.382399
0.382132
0.34177
0.343608
0.346241
0.349802
0.3532
0.356093
0.358578
0.360759
0.362696
0.364442
0.366041
0.367531
0.368945
0.37031
0.371647
0.372972
0.374297
0.375628
0.376968
0.378315
0.379662
0.380999
0.382315
0.383464
0.38432
0.384905
0.385248
0.385362
0.385263
0.338761
0.340153
0.342253
0.34535
0.348504
0.351326
0.353846
0.356137
0.358249
0.360224
0.362096
0.363895
0.365648
0.367377
0.3691
0.370833
0.372585
0.374363
0.37617
0.378002
0.379856
0.381723
0.383597
0.385289
0.386621
0.387608
0.388283
0.388662
0.388763
0.33567
0.33675
0.33848
0.341178
0.344098
0.346831
0.349354
0.351714
0.353957
0.356114
0.358212
0.360277
0.362331
0.364392
0.366478
0.368603
0.370775
0.373001
0.37528
0.377611
0.379989
0.38241
0.384872
0.387149
0.389003
0.390441
0.391497
0.392185
0.392521
0.332426
0.33329
0.334756
0.337122
0.339826
0.342464
0.344969
0.347371
0.349709
0.352011
0.354299
0.356594
0.358916
0.361283
0.363712
0.366215
0.368801
0.371473
0.374231
0.377069
0.37998
0.382962
0.386018
0.388886
0.391278
0.393196
0.394669
0.395703
0.396311
0.329006
0.329718
0.330979
0.333053
0.33555
0.338088
0.340563
0.342989
0.345397
0.347813
0.350257
0.35275
0.35531
0.357957
0.360709
0.363578
0.366572
0.369692
0.372935
0.37629
0.379742
0.383278
0.3869
0.390306
0.393177
0.395534
0.397413
0.39881
0.399723
0.325701
0.326304
0.327401
0.329258
0.331588
0.334031
0.336471
0.338906
0.341363
0.343865
0.346431
0.349082
0.351841
0.354731
0.35777
0.360974
0.364349
0.367898
0.371613
0.375474
0.379447
0.383489
0.387567
0.391301
0.394365
0.396853
0.398876
0.400466
0.401617
0.322862
0.323393
0.324389
0.326108
0.328312
0.330672
0.33308
0.335525
0.338023
0.340593
0.343256
0.346037
0.348962
0.352057
0.355345
0.358843
0.362564
0.366511
0.370672
0.37502
0.379496
0.384013
0.388456
0.392284
0.395107
0.397095
0.39852
0.399646
0.4007
0.320481
0.320965
0.32189
0.323507
0.325614
0.32792
0.330325
0.332798
0.335341
0.337975
0.340724
0.34362
0.346694
0.349975
0.35349
0.357262
0.36131
0.365642
0.370249
0.375096
0.380113
0.385163
0.390035
0.393935
0.39622
0.396928
0.396341
0.394986
0.393971
0.318536
0.319069
0.320012
0.321527
0.323468
0.325674
0.328076
0.330596
0.3332
0.335904
0.338743
0.341754
0.344974
0.348435
0.352169
0.356209
0.36058
0.365299
0.370362
0.375741
0.381367
0.387087
0.39263
0.396953
0.398981
0.398217
0.394338
0.386791
0.375361
0.370126
0.369265
0.368407
0.367553
0.3667
0.365847
0.364995
0.364141
0.363285
0.362426
0.361564
0.360698
0.359826
0.358949
0.358065
0.357175
0.356277
0.355371
0.354458
0.353536
0.352605
0.351666
0.350719
0.349763
0.348798
0.347826
0.346846
0.345859
0.344865
0.343865
0.34286
0.341849
0.340834
0.339816
0.338794
0.337771
0.336747
0.335723
0.3347
0.333679
0.332662
0.331649
0.33064
0.329639
0.328644
0.327658
0.326681
0.325713
0.324756
0.370153
0.369301
0.368454
0.367609
0.366766
0.365923
0.36508
0.364236
0.363389
0.362539
0.361685
0.360826
0.359962
0.359091
0.358214
0.357328
0.356435
0.355533
0.354621
0.353701
0.352772
0.351832
0.350884
0.349926
0.348959
0.347983
0.346999
0.346006
0.345006
0.343999
0.342986
0.341967
0.340943
0.339914
0.338883
0.33785
0.336815
0.335779
0.334745
0.333712
0.332682
0.331656
0.330635
0.32962
0.328612
0.327613
0.326623
0.325643
0.324674
0.370402
0.369574
0.36875
0.367928
0.367106
0.366284
0.365461
0.364634
0.363804
0.36297
0.36213
0.361283
0.360429
0.359566
0.358695
0.357814
0.356923
0.356022
0.355109
0.354185
0.35325
0.352304
0.351346
0.350376
0.349396
0.348406
0.347405
0.346394
0.345374
0.344346
0.343309
0.342266
0.341217
0.340163
0.339104
0.338042
0.336978
0.335913
0.334848
0.333784
0.332722
0.331663
0.330609
0.329561
0.32852
0.327486
0.326462
0.325448
0.324446
0.370966
0.370175
0.369385
0.368594
0.367803
0.367008
0.36621
0.365406
0.364597
0.36378
0.362955
0.362121
0.361277
0.360421
0.359554
0.358674
0.357781
0.356874
0.355954
0.355019
0.35407
0.353107
0.35213
0.351139
0.350135
0.349117
0.348087
0.347044
0.345991
0.344927
0.343853
0.34277
0.34168
0.340582
0.339479
0.338371
0.33726
0.336146
0.335032
0.333917
0.332804
0.331693
0.330586
0.329484
0.328388
0.327299
0.326219
0.325149
0.32409
0.371852
0.37111
0.370364
0.369614
0.36886
0.3681
0.367332
0.366556
0.36577
0.364974
0.364165
0.363343
0.362507
0.361657
0.36079
0.359907
0.359007
0.35809
0.357155
0.356202
0.355231
0.354242
0.353236
0.352213
0.351172
0.350116
0.349044
0.347957
0.346855
0.345741
0.344615
0.343477
0.34233
0.341173
0.340009
0.338839
0.337663
0.336484
0.335302
0.334118
0.332935
0.331754
0.330575
0.329399
0.32823
0.327066
0.325911
0.324764
0.323628
0.373072
0.37239
0.371698
0.370999
0.37029
0.369571
0.368841
0.368097
0.367339
0.366565
0.365774
0.364965
0.364137
0.363289
0.36242
0.36153
0.360618
0.359684
0.358727
0.357748
0.356747
0.355723
0.354677
0.35361
0.352522
0.351414
0.350286
0.34914
0.347977
0.346798
0.345603
0.344395
0.343174
0.341941
0.340699
0.339448
0.33819
0.336926
0.335659
0.334388
0.333117
0.331845
0.330575
0.329308
0.328045
0.326788
0.325537
0.324295
0.323063
0.374654
0.374044
0.373418
0.372778
0.372125
0.371455
0.370768
0.370061
0.369334
0.368585
0.367813
0.367018
0.366196
0.365349
0.364475
0.363573
0.362643
0.361686
0.360699
0.359685
0.358643
0.357574
0.356477
0.355354
0.354205
0.353032
0.351834
0.350615
0.349374
0.348113
0.346833
0.345536
0.344224
0.342897
0.341558
0.340208
0.338848
0.337481
0.336108
0.334731
0.333351
0.331969
0.330588
0.329209
0.327833
0.326462
0.325097
0.32374
0.322393
0.376625
0.376106
0.375559
0.374988
0.374397
0.373784
0.373147
0.372482
0.37179
0.371069
0.370317
0.369534
0.368717
0.367868
0.366984
0.366066
0.365112
0.364124
0.3631
0.362042
0.360949
0.359823
0.358663
0.357471
0.356248
0.354994
0.353712
0.352403
0.351067
0.349707
0.348324
0.34692
0.345497
0.344057
0.342601
0.341131
0.339649
0.338157
0.336658
0.335152
0.333642
0.332128
0.330615
0.329102
0.327592
0.326086
0.324584
0.323091
0.321611
0.379037
0.378617
0.378133
0.377641
0.377137
0.376592
0.376008
0.37539
0.374737
0.374045
0.373314
0.372544
0.371731
0.370877
0.36998
0.369039
0.368056
0.36703
0.365961
0.364849
0.363695
0.3625
0.361265
0.359991
0.358679
0.357331
0.355948
0.354531
0.353083
0.351606
0.3501
0.348569
0.347015
0.345439
0.343843
0.342231
0.340604
0.338964
0.337314
0.335655
0.333991
0.332322
0.330652
0.328982
0.327313
0.325648
0.323988
0.322337
0.3207
0.381843
0.381531
0.381181
0.380798
0.38037
0.379891
0.379357
0.378808
0.3782
0.377538
0.376828
0.37607
0.375261
0.374401
0.373488
0.372523
0.371505
0.370435
0.369313
0.36814
0.366917
0.365644
0.364322
0.362953
0.361539
0.360081
0.35858
0.35704
0.355461
0.353846
0.352197
0.350516
0.348807
0.347071
0.345311
0.34353
0.34173
0.339915
0.338087
0.336247
0.3344
0.332547
0.330692
0.328835
0.326981
0.32513
0.323283
0.321448
0.31963
0.385117
0.38493
0.384683
0.384389
0.384048
0.383664
0.383233
0.382743
0.382193
0.381516
0.380853
0.380121
0.37932
0.378457
0.377531
0.376542
0.37549
0.374375
0.373199
0.371961
0.370662
0.369305
0.367888
0.366415
0.364887
0.363304
0.361671
0.359989
0.358259
0.356485
0.354669
0.352813
0.350923
0.348998
0.347043
0.345063
0.343057
0.341033
0.338991
0.336935
0.334871
0.332797
0.330721
0.328643
0.326567
0.324496
0.32243
0.320377
0.318348
0.388787
0.388744
0.388626
0.388448
0.388209
0.387907
0.38754
0.387106
0.386613
0.386053
0.385421
0.384709
0.383925
0.383071
0.382143
0.38114
0.380061
0.378908
0.377683
0.376383
0.375011
0.373569
0.372054
0.370471
0.368821
0.367103
0.365323
0.363482
0.36158
0.359623
0.357613
0.355552
0.353447
0.351296
0.349108
0.346887
0.344632
0.342354
0.340052
0.337734
0.335403
0.333061
0.330716
0.32837
0.326026
0.323689
0.321359
0.319048
0.316768
0.392742
0.392861
0.392894
0.392855
0.392743
0.392557
0.392294
0.391953
0.391536
0.391039
0.390463
0.389806
0.389065
0.388239
0.387361
0.386366
0.385285
0.384118
0.382864
0.38152
0.380089
0.378571
0.376965
0.375275
0.373501
0.371641
0.369703
0.367686
0.36559
0.363423
0.361186
0.358881
0.356517
0.354093
0.351619
0.3491
0.346536
0.34394
0.341314
0.338665
0.336
0.333322
0.330641
0.327958
0.325282
0.322617
0.319963
0.317336
0.31475
0.396761
0.397063
0.39727
0.397402
0.397454
0.397426
0.397315
0.39712
0.396841
0.396472
0.396015
0.395466
0.394824
0.394087
0.393247
0.392313
0.391296
0.390157
0.388918
0.387567
0.386111
0.384547
0.38287
0.381087
0.379196
0.377194
0.375088
0.372877
0.370561
0.368148
0.36564
0.363038
0.360354
0.357588
0.35475
0.351849
0.348886
0.345877
0.342827
0.339745
0.336643
0.333524
0.330404
0.327286
0.324181
0.321096
0.318033
0.31501
0.312048
0.400434
0.400938
0.401354
0.40171
0.401997
0.402216
0.402358
0.402418
0.402389
0.40226
0.402031
0.40169
0.401239
0.400678
0.399997
0.399193
0.39826
0.39727
0.396114
0.394814
0.393385
0.391821
0.390113
0.388268
0.386279
0.384142
0.381864
0.379443
0.376875
0.374171
0.371332
0.368361
0.36527
0.36206
0.358747
0.355342
0.351846
0.348284
0.34466
0.340992
0.337294
0.333576
0.32986
0.326153
0.322473
0.318832
0.315234
0.311704
0.308266
0.402565
0.403233
0.403905
0.404619
0.405339
0.406039
0.406675
0.407219
0.407649
0.407942
0.408097
0.408101
0.407961
0.40768
0.407252
0.406687
0.405965
0.405098
0.404129
0.402981
0.401662
0.400174
0.398503
0.396654
0.394615
0.392374
0.389941
0.387308
0.384467
0.381433
0.378204
0.374785
0.371192
0.367426
0.36351
0.359458
0.355276
0.350994
0.346622
0.342184
0.3377
0.333186
0.328676
0.324184
0.319742
0.315372
0.311092
0.306938
0.302944
0.401829
0.40257
0.40368
0.405152
0.406776
0.408398
0.409886
0.411179
0.412248
0.413075
0.413684
0.414074
0.414273
0.414296
0.414146
0.413845
0.413379
0.412752
0.411969
0.411054
0.409943
0.408615
0.407064
0.405292
0.403279
0.401002
0.398467
0.395658
0.392564
0.389201
0.385565
0.381662
0.377518
0.373133
0.368541
0.363761
0.358805
0.353713
0.348496
0.343185
0.337805
0.332373
0.326931
0.321495
0.316118
0.310837
0.305701
0.300787
0.296161
0.393707
0.394883
0.398173
0.402281
0.406233
0.409673
0.412488
0.414721
0.416456
0.417764
0.41874
0.419427
0.419886
0.420155
0.420246
0.420194
0.419986
0.419637
0.419127
0.418402
0.417763
0.416654
0.415314
0.413725
0.411839
0.409614
0.407048
0.404113
0.400787
0.397092
0.393021
0.388588
0.383826
0.378745
0.373392
0.367797
0.361982
0.356001
0.34987
0.343628
0.337299
0.330893
0.324447
0.317957
0.311465
0.305005
0.29866
0.292626
0.287178
0.366811
0.377552
0.389937
0.400012
0.407412
0.412681
0.416398
0.419059
0.420997
0.422416
0.423469
0.424227
0.424775
0.425156
0.425396
0.425538
0.425566
0.425509
0.425351
0.425014
0.42452
0.423824
0.422833
0.421542
0.419901
0.417845
0.415347
0.412363
0.408862
0.404867
0.400376
0.39541
0.39002
0.384224
0.378092
0.371671
0.364996
0.358142
0.351134
0.344026
0.336842
0.329589
0.322284
0.314876
0.307334
0.299569
0.291503
0.283203
0.275272
0.32382
0.322848
0.321791
0.320634
0.319357
0.317948
0.316435
0.314993
0.313755
0.312752
0.312019
0.311593
0.311511
0.311824
0.312583
0.313853
0.315712
0.318259
0.321621
0.325963
0.331512
0.338579
0.347611
0.359286
0.374703
0.395463
0.423259
0.465006
0.598479
0.323722
0.322733
0.321656
0.320473
0.319163
0.317715
0.316156
0.314663
0.313372
0.312316
0.311525
0.311035
0.310885
0.311115
0.311774
0.312922
0.314629
0.316979
0.320083
0.324077
0.329142
0.335515
0.343504
0.353497
0.366122
0.382316
0.400222
0.41361
0.451152
0.323459
0.322431
0.321307
0.320066
0.318685
0.317151
0.315486
0.313876
0.312464
0.311279
0.310349
0.309706
0.309382
0.30941
0.309828
0.310683
0.312022
0.313904
0.316394
0.319567
0.323505
0.328288
0.333972
0.340478
0.347615
0.355477
0.361727
0.359079
0.361157
0.323044
0.321951
0.320749
0.319416
0.317924
0.316255
0.314429
0.312639
0.311039
0.309655
0.308513
0.307636
0.307048
0.306773
0.306834
0.307259
0.308069
0.309286
0.310927
0.312998
0.315479
0.318318
0.321408
0.324476
0.327042
0.329072
0.329624
0.324646
0.322257
0.322502
0.321319
0.320012
0.318555
0.316915
0.315067
0.313027
0.311003
0.309162
0.307528
0.306119
0.304954
0.304047
0.303411
0.303057
0.302991
0.303214
0.303719
0.304486
0.305477
0.306625
0.307827
0.308948
0.309762
0.309845
0.309054
0.306799
0.300422
0.296235
0.321837
0.320542
0.319104
0.317493
0.315668
0.3136
0.311301
0.308996
0.306871
0.304946
0.303234
0.301748
0.300494
0.299476
0.298694
0.298139
0.297797
0.297643
0.297641
0.297735
0.297845
0.297862
0.297651
0.297023
0.295589
0.293004
0.288599
0.280795
0.275373
0.321046
0.319616
0.31802
0.316222
0.314177
0.311849
0.309245
0.306616
0.30417
0.301922
0.299882
0.298058
0.296448
0.295051
0.293854
0.292842
0.291991
0.291267
0.290624
0.29
0.289313
0.288449
0.287269
0.285586
0.283047
0.279271
0.273815
0.266313
0.261172
0.320119
0.318529
0.316745
0.314728
0.312425
0.309794
0.306842
0.303849
0.301049
0.298456
0.296074
0.293905
0.291945
0.290182
0.288601
0.287179
0.285885
0.28468
0.283513
0.282321
0.281022
0.279508
0.27765
0.275291
0.272152
0.267932
0.262518
0.256432
0.252258
0.319041
0.317261
0.315259
0.312986
0.310384
0.307407
0.304063
0.300669
0.297489
0.294534
0.291804
0.289297
0.287001
0.284901
0.282976
0.281198
0.279533
0.277938
0.276364
0.274747
0.273016
0.271081
0.268837
0.26617
0.262875
0.258724
0.253827
0.249184
0.245948
0.317775
0.315776
0.313519
0.31095
0.308006
0.304636
0.300855
0.297026
0.293446
0.290121
0.287048
0.284217
0.281612
0.279213
0.276993
0.274923
0.272964
0.271074
0.269206
0.267304
0.265306
0.263142
0.260731
0.257987
0.254759
0.250877
0.246585
0.243056
0.240599
0.316263
0.314009
0.311457
0.308546
0.305209
0.301398
0.297136
0.292842
0.288849
0.285155
0.281753
0.278624
0.275748
0.273096
0.27064
0.268345
0.266171
0.264078
0.26202
0.259948
0.25781
0.255549
0.253101
0.250395
0.247319
0.243768
0.240072
0.23736
0.235529
0.314412
0.311856
0.308959
0.305653
0.301869
0.297564
0.292778
0.287998
0.283588
0.279541
0.275837
0.272451
0.269352
0.266506
0.263877
0.261428
0.259118
0.256905
0.254747
0.252598
0.250414
0.248146
0.245741
0.24314
0.240264
0.237069
0.23393
0.231813
0.23045
0.312068
0.309156
0.305855
0.30209
0.297799
0.292947
0.287605
0.28233
0.277521
0.273154
0.269195
0.265607
0.262349
0.259378
0.25665
0.254123
0.251755
0.249503
0.247324
0.245178
0.243023
0.240818
0.23852
0.236075
0.233429
0.230593
0.22795
0.226263
0.225229
0.308968
0.305631
0.301854
0.297564
0.292706
0.28727
0.28136
0.275614
0.270453
0.26583
0.261691
0.257982
0.254648
0.251635
0.248894
0.246374
0.244029
0.241818
0.239696
0.237625
0.235567
0.233486
0.231343
0.229094
0.2267
0.224212
0.221999
0.220631
0.219827
0.304696
0.30085
0.296523
0.291644
0.286182
0.280158
0.27372
0.267579
0.262162
0.257389
0.25318
0.249459
0.246156
0.243206
0.240549
0.238129
0.235898
0.233809
0.23182
0.229894
0.227994
0.226088
0.224142
0.222117
0.219993
0.217849
0.216023
0.214905
0.214257
0.298817
0.294426
0.289547
0.28412
0.278146
0.271675
0.26489
0.258547
0.253059
0.248308
0.244187
0.2406
0.237459
0.234688
0.23222
0.229995
0.22796
0.226068
0.224277
0.222549
0.220851
0.219152
0.217423
0.215634
0.213776
0.211937
0.210423
0.209506
0.208967
0.291431
0.286511
0.281205
0.275447
0.269226
0.262592
0.255739
0.249441
0.244085
0.239526
0.235635
0.232298
0.229416
0.226905
0.224693
0.222716
0.220921
0.219261
0.217692
0.21618
0.214691
0.213196
0.211674
0.210105
0.208494
0.206918
0.205642
0.204877
0.204418
0.281906
0.276743
0.271507
0.265896
0.259822
0.253341
0.246674
0.24062
0.23555
0.231304
0.227737
0.224724
0.222157
0.219948
0.218022
0.216316
0.214777
0.213356
0.212015
0.210717
0.209429
0.208123
0.206778
0.205392
0.20399
0.202643
0.201573
0.200941
0.200548
0.268908
0.264918
0.260837
0.255953
0.250379
0.244285
0.237983
0.232309
0.227624
0.223763
0.220573
0.217919
0.215691
0.213797
0.212163
0.210727
0.209437
0.208249
0.207123
0.206024
0.204919
0.203775
0.202576
0.20136
0.200202
0.199148
0.198288
0.197712
0.197304
0.31655
0.316862
0.317628
0.31917
0.321306
0.323716
0.326246
0.328833
0.331488
0.334258
0.337189
0.340322
0.343693
0.347339
0.351298
0.355608
0.360301
0.365402
0.370914
0.376817
0.383051
0.389457
0.395731
0.400662
0.402793
0.400909
0.393472
0.378128
0.346591
0.314558
0.314996
0.315876
0.317404
0.319454
0.321791
0.324288
0.326887
0.329595
0.332452
0.335495
0.338765
0.3423
0.346142
0.350334
0.35492
0.359942
0.365432
0.371411
0.377879
0.384822
0.392147
0.399641
0.406178
0.410379
0.411475
0.408932
0.404273
0.408199
0.312514
0.313036
0.314001
0.31552
0.317499
0.31976
0.322204
0.324789
0.327526
0.330442
0.333572
0.336952
0.340623
0.344631
0.349029
0.353868
0.359204
0.365089
0.371571
0.378702
0.386567
0.395243
0.404861
0.414768
0.424105
0.432822
0.441769
0.448822
0.464894
0.310393
0.310894
0.311831
0.313334
0.315317
0.317583
0.320021
0.322605
0.325358
0.328312
0.331501
0.334963
0.338743
0.342891
0.347466
0.352531
0.358158
0.364423
0.371411
0.379234
0.388113
0.398322
0.41046
0.42432
0.43956
0.455421
0.474425
0.49174
0.513586
0.308196
0.308662
0.309547
0.311018
0.312998
0.315275
0.317719
0.320307
0.32307
0.326047
0.329277
0.3328
0.336663
0.340922
0.345642
0.350899
0.356777
0.363378
0.370821
0.379264
0.389087
0.400669
0.415083
0.43215
0.452353
0.472789
0.498057
0.524494
0.553315
0.305926
0.306373
0.307224
0.308653
0.310598
0.312853
0.315281
0.317858
0.320618
0.323602
0.326851
0.330408
0.334324
0.338658
0.343481
0.348877
0.354944
0.361802
0.369611
0.378494
0.389072
0.401601
0.417583
0.436377
0.459151
0.484499
0.51277
0.542669
0.573338
0.303576
0.304013
0.304839
0.306221
0.30811
0.310315
0.312704
0.31525
0.317985
0.320952
0.324193
0.327752
0.331682
0.336044
0.340915
0.346384
0.352558
0.359564
0.367628
0.376674
0.387739
0.400541
0.417563
0.438287
0.462015
0.488165
0.515623
0.543671
0.572265
0.301143
0.301567
0.302365
0.303695
0.305517
0.307656
0.309986
0.31248
0.315167
0.318089
0.32129
0.324813
0.328713
0.333052
0.337907
0.343371
0.349556
0.356563
0.364794
0.373587
0.384806
0.398286
0.41542
0.436297
0.459316
0.483756
0.508628
0.533408
0.557952
0.298623
0.299034
0.2998
0.30107
0.302813
0.304872
0.307125
0.309545
0.312159
0.315008
0.318134
0.321582
0.325404
0.329662
0.334431
0.339801
0.345896
0.352716
0.360676
0.369821
0.380739
0.394022
0.410465
0.430044
0.45109
0.472795
0.494408
0.515608
0.535618
0.296016
0.296413
0.297145
0.298349
0.300001
0.301962
0.304119
0.306443
0.308958
0.311703
0.31472
0.318049
0.321743
0.325861
0.330471
0.335652
0.341522
0.348175
0.355847
0.364745
0.375137
0.387577
0.402691
0.420199
0.438528
0.456895
0.474723
0.492051
0.507848
0.29332
0.293702
0.294396
0.295527
0.297078
0.298928
0.30097
0.303175
0.305566
0.308178
0.311049
0.314218
0.317733
0.321651
0.326029
0.330959
0.336542
0.342873
0.350113
0.358396
0.367987
0.379249
0.392622
0.407645
0.422871
0.437593
0.451404
0.464651
0.476442
0.290536
0.290903
0.291557
0.29261
0.29405
0.295774
0.297683
0.299748
0.301988
0.304436
0.307127
0.310096
0.313384
0.317045
0.321143
0.325742
0.330934
0.336792
0.343435
0.350942
0.359522
0.369395
0.380787
0.393123
0.405152
0.416301
0.426325
0.435719
0.443858
0.287668
0.288025
0.28864
0.289611
0.290929
0.292508
0.294261
0.296163
0.298227
0.300483
0.302961
0.305691
0.308709
0.312064
0.315812
0.32
0.324705
0.329974
0.335896
0.342509
0.349935
0.35828
0.367585
0.377237
0.386237
0.394177
0.400961
0.407114
0.412251
0.284718
0.285059
0.28563
0.286512
0.287702
0.289129
0.290715
0.292435
0.294301
0.296339
0.298573
0.301029
0.303739
0.306738
0.310072
0.313781
0.317919
0.322516
0.327624
0.333248
0.339432
0.346192
0.353441
0.360596
0.366931
0.372203
0.376436
0.380128
0.383092
0.281693
0.28202
0.282545
0.283335
0.28439
0.285653
0.287057
0.288578
0.290225
0.292022
0.293988
0.296141
0.298504
0.301105
0.303976
0.307148
0.310657
0.314515
0.318742
0.323312
0.328217
0.333413
0.338732
0.343682
0.347801
0.350985
0.353341
0.355329
0.356944
0.278598
0.278913
0.279393
0.280088
0.281003
0.282092
0.283299
0.284605
0.286017
0.287555
0.289229
0.291051
0.293035
0.295201
0.297568
0.300156
0.302984
0.306047
0.309343
0.312823
0.316447
0.320136
0.32369
0.326744
0.329084
0.33072
0.331792
0.33272
0.333675
0.275442
0.275742
0.276172
0.276771
0.277543
0.278455
0.279458
0.280537
0.281704
0.282967
0.284331
0.285799
0.287379
0.28908
0.290911
0.292878
0.294986
0.297217
0.299549
0.301924
0.304283
0.306537
0.308491
0.309935
0.310882
0.311425
0.311684
0.31204
0.312829
0.272232
0.27252
0.272899
0.273402
0.27403
0.274761
0.275546
0.276397
0.277309
0.278286
0.279326
0.280426
0.281583
0.282799
0.284069
0.285391
0.286752
0.288126
0.289477
0.290741
0.291858
0.292745
0.293235
0.2933
0.29315
0.292933
0.292698
0.292781
0.293684
0.268982
0.269261
0.269589
0.269997
0.270481
0.271013
0.271596
0.272207
0.272856
0.27354
0.274247
0.274968
0.275692
0.276408
0.277104
0.277763
0.278362
0.278862
0.27922
0.27937
0.279257
0.278818
0.277931
0.276757
0.275696
0.274919
0.27437
0.27433
0.275475
0.265699
0.265966
0.266243
0.266556
0.266887
0.26725
0.267616
0.26799
0.268376
0.268764
0.269136
0.269474
0.26976
0.269972
0.270088
0.270078
0.269908
0.26953
0.26889
0.267923
0.266579
0.26482
0.262581
0.260222
0.25833
0.25709
0.256311
0.256209
0.257631
0.262394
0.262645
0.262882
0.2631
0.263295
0.263473
0.263627
0.263769
0.263896
0.263991
0.264031
0.263991
0.263842
0.263554
0.263094
0.262422
0.261491
0.26024
0.258606
0.25652
0.253938
0.250839
0.247211
0.243622
0.240872
0.23916
0.23814
0.237956
0.239641
0.259081
0.259318
0.259515
0.259644
0.259701
0.2597
0.259652
0.259568
0.259443
0.259254
0.25897
0.25856
0.257987
0.257212
0.25619
0.254871
0.253194
0.251086
0.248472
0.245272
0.241436
0.236948
0.231833
0.226869
0.223108
0.220796
0.219429
0.21908
0.220988
0.255772
0.256001
0.256157
0.256199
0.256122
0.25595
0.255708
0.255409
0.255042
0.25458
0.253986
0.253221
0.252241
0.250997
0.249436
0.247494
0.245098
0.242161
0.238591
0.234291
0.22919
0.223254
0.216509
0.209917
0.204845
0.201652
0.199695
0.199009
0.201085
0.252478
0.252697
0.25281
0.252766
0.252563
0.252234
0.251813
0.251313
0.250721
0.250003
0.249118
0.248018
0.246653
0.244967
0.242896
0.240365
0.237288
0.233563
0.229077
0.223709
0.217351
0.209923
0.201402
0.192878
0.186067
0.181527
0.178535
0.177197
0.179327
0.249211
0.249424
0.249502
0.249378
0.249054
0.248574
0.247983
0.247299
0.246502
0.245551
0.244397
0.242988
0.241267
0.239172
0.236629
0.233553
0.229846
0.225388
0.220047
0.213672
0.206107
0.197195
0.186808
0.176062
0.166999
0.16043
0.155635
0.153081
0.15509
0.24598
0.246182
0.246216
0.246013
0.245577
0.244964
0.244231
0.243391
0.242417
0.241258
0.239862
0.238173
0.236129
0.233663
0.230693
0.227125
0.222847
0.217726
0.211607
0.204312
0.195634
0.185328
0.17312
0.160043
0.148341
0.138992
0.131247
0.126493
0.128201
0.242817
0.243062
0.24311
0.242849
0.242277
0.241489
0.240587
0.239595
0.238464
0.237128
0.235523
0.233591
0.231267
0.228478
0.225137
0.221142
0.216368
0.210671
0.203877
0.195785
0.186146
0.174613
0.160725
0.145368
0.130891
0.118319
0.10655
0.0975008
0.0969232
0.236645
0.219526
0.19576
0.165464
0.131908
0.0991365
0.0698765
0.0430123
0.0184716
-0.00824613
-0.035454
-0.0675785
-0.100704
-0.131799
-0.156941
-0.173608
-0.18187
-0.183915
-0.183373
0.243317
0.230176
0.207355
0.176151
0.139167
0.0997926
0.0614936
0.0231206
-0.0129513
-0.0530065
-0.0935526
-0.134901
-0.174702
-0.209685
-0.236607
-0.25429
-0.263961
-0.268178
-0.269684
0.237925
0.225856
0.20436
0.173104
0.133991
0.0896592
0.0442677
-0.00483667
-0.0539584
-0.103756
-0.153743
-0.202767
-0.248078
-0.286419
-0.315323
-0.334474
-0.345617
-0.351358
-0.354188
0.227036
0.215276
0.195543
0.164993
0.123316
0.0741085
0.0208444
-0.0354319
-0.0934499
-0.152311
-0.211062
-0.267701
-0.318655
-0.360411
-0.391042
-0.411078
-0.422997
-0.429676
-0.433435
0.213206
0.202303
0.183884
0.153586
0.110286
0.0577582
-0.000917339
-0.0638148
-0.129722
-0.197275
-0.264158
-0.327143
-0.382049
-0.425575
-0.45674
-0.477055
-0.489583
-0.497161
-0.501721
0.194917
0.184421
0.167202
0.137763
0.0942169
0.039772
-0.0227113
-0.091435
-0.164337
-0.239075
-0.312214
-0.379533
-0.436687
-0.481052
-0.51268
-0.533783
-0.54767
-0.556925
-0.563056
0.172488
0.161083
0.144182
0.115583
0.0724261
0.017036
-0.0479626
-0.120633
-0.198202
-0.277287
-0.353472
-0.421821
-0.478186
-0.520877
-0.550939
-0.571116
-0.584823
-0.594261
-0.600603
0.147014
0.133666
0.115825
0.0871494
0.0442043
-0.0114451
-0.0774614
-0.151724
-0.231043
-0.311265
-0.387211
-0.453678
-0.507153
-0.547021
-0.575118
-0.594376
-0.60799
-0.617646
-0.624287
0.119439
0.103723
0.084002
0.0541859
0.0109432
-0.0445476
-0.110253
-0.184031
-0.262426
-0.340714
-0.413276
-0.475138
-0.523743
-0.559484
-0.584704
-0.602293
-0.615135
-0.624467
-0.630935
0.090636
0.0725975
0.0505976
0.0189953
-0.0249747
-0.0801214
-0.14464
-0.216469
-0.291997
-0.366163
-0.433314
-0.489138
-0.532164
-0.563616
-0.586084
-0.602258
-0.614644
-0.624139
-0.631059
0.0615839
0.0415029
0.0172314
-0.016344
-0.0612908
-0.116098
-0.178981
-0.247827
-0.3188
-0.386653
-0.446126
-0.493969
-0.52986
-0.55565
-0.573964
-0.587199
-0.597432
-0.605349
-0.611081
0.0334286
0.011738
-0.0144826
-0.0497653
-0.0955564
-0.149864
-0.210711
-0.275779
-0.34103
-0.401378
-0.452439
-0.49224
-0.521428
-0.542156
-0.556835
-0.567461
-0.575637
-0.581953
-0.586443
0.00724249
-0.0155583
-0.0432233
-0.0796341
-0.125768
-0.179155
-0.237558
-0.298422
-0.357649
-0.410622
-0.454025
-0.487029
-0.510909
-0.527845
-0.539942
-0.54883
-0.555763
-0.56132
-0.565377
-0.0161942
-0.0396613
-0.068269
-0.105187
-0.151066
-0.203006
-0.258469
-0.314624
-0.367426
-0.412964
-0.44909
-0.475938
-0.495147
-0.508752
-0.518509
-0.52572
-0.531338
-0.535903
-0.539205
-0.0363663
-0.0601515
-0.0892657
-0.126137
-0.171176
-0.221109
-0.273128
-0.324218
-0.370619
-0.409331
-0.439303
-0.461352
-0.477207
-0.488626
-0.497003
-0.50333
-0.508319
-0.512447
-0.51545
-0.0531086
-0.0769949
-0.106299
-0.142728
-0.186497
-0.234028
-0.28235
-0.328428
-0.368988
-0.401961
-0.427154
-0.445761
-0.459423
-0.469601
-0.477377
-0.483505
-0.488539
-0.492861
-0.496119
-0.0665868
-0.0905145
-0.119868
-0.155691
-0.19798
-0.242845
-0.287201
-0.328147
-0.363098
-0.39093
-0.412117
-0.428
-0.440011
-0.449293
-0.456643
-0.462614
-0.467634
-0.471967
-0.475242
-0.0770502
-0.101095
-0.13051
-0.165763
-0.206576
-0.248727
-0.289105
-0.325143
-0.355078
-0.37864
-0.396737
-0.410684
-0.421642
-0.430451
-0.437663
-0.443655
-0.448755
-0.453132
-0.456432
-0.0848142
-0.109168
-0.13881
-0.173747
-0.213353
-0.253061
-0.289814
-0.321513
-0.347222
-0.367356
-0.383074
-0.395577
-0.405768
-0.414234
-0.421338
-0.427327
-0.43246
-0.436844
-0.440151
-0.0902143
-0.115176
-0.14537
-0.180432
-0.219232
-0.256749
-0.290037
-0.317631
-0.339493
-0.356629
-0.370311
-0.381551
-0.390988
-0.398988
-0.405763
-0.41147
-0.416322
-0.420396
-0.423425
-0.0933937
-0.119353
-0.150561
-0.186364
-0.224929
-0.260681
-0.290851
-0.314752
-0.333237
-0.347789
-0.359708
-0.369805
-0.378488
-0.385942
-0.392265
-0.397551
-0.40197
-0.405603
-0.408262
-0.0944155
-0.121859
-0.154673
-0.191947
-0.2309
-0.265326
-0.292707
-0.313248
-0.328666