/*--------------------------------*- C++ -*----------------------------------*\
| =========                 |                                                 |
| \\      /  F ield         | OpenFOAM: The Open Source CFD Toolbox           |
|  \\    /   O peration     | Version:  2312                                  |
|   \\  /    A nd           | Website:  www.openfoam.com                      |
|    \\/     M anipulation  |                                                 |
\*---------------------------------------------------------------------------*/
FoamFile
{
    version     2.0;
    format      ascii;
    arch        "LSB;label=32;scalar=64";
    class       surfaceScalarField;
    location    "77.178910797973302";
    object      phi;
}
// * * * * * * * * * * * * * * * * * * * * * * * * * * * * * * * * * * * * * //

dimensions      [0 3 -1 0 0 0 0];

oriented        oriented;

internalField   nonuniform List<scalar> 
41713
(
0.00736458
0.0568819
0.00363009
0.0679809
0.00211926
0.0657573
0.00148738
0.0648783
0.00110234
0.0646315
0.000848963
0.0644998
0.000674638
0.0644208
0.000548439
0.0643726
0.00045376
0.0643411
0.000380948
0.0643192
0.000323876
0.0643035
0.000278491
0.0642918
0.000242026
0.0642829
0.000212541
0.0642759
0.000188639
0.0642703
0.000169295
0.0642658
0.000153741
0.064262
0.000141387
0.0642588
0.000131768
0.0642561
0.000124493
0.0642537
0.000119191
0.0642517
0.000115488
0.0642501
0.00011309
0.0642488
0.00011154
0.0548127
0.000110181
0.0456773
0.000108823
0.0380647
0.000107496
0.0317208
0.000106244
0.0264341
0.0220286
0.000105054
0.00999639
0.0468855
0.00843245
0.0695449
0.00572259
0.0684671
0.00413097
0.0664699
0.00313253
0.0656299
0.00244349
0.0651889
0.00194802
0.0649162
0.00158069
0.06474
0.0013012
0.0646206
0.00108376
0.0645367
0.000911429
0.0644758
0.000772826
0.0644304
0.000660104
0.0643956
0.000567723
0.0643683
0.000491688
0.0643464
0.000429071
0.0643284
0.000377691
0.0643134
0.00033589
0.0643006
0.000302389
0.0642896
0.000276171
0.0642799
0.0002564
0.0642715
0.000242334
0.0642642
0.000233226
0.0642579
0.000228445
0.0548175
0.000225962
0.0456798
0.000224527
0.0380661
0.000223446
0.0317218
0.000222408
0.0264351
0.0220295
0.000221466
0.008598
0.0382875
0.00971333
0.0684296
0.0074787
0.0707017
0.00571288
0.0682358
0.00452785
0.066815
0.003646
0.0660707
0.00296707
0.0655952
0.00243944
0.0652676
0.00202445
0.0650356
0.00169354
0.0648676
0.00142628
0.0647431
0.00120805
0.0646487
0.00102829
0.0645754
0.00087931
0.0645173
0.000755438
0.0644702
0.000652447
0.0644314
0.000567155
0.0643987
0.000497139
0.0643706
0.000440527
0.0643462
0.000395851
0.0643246
0.000361929
0.0643054
0.000337768
0.0642884
0.00032236
0.0642734
0.000314832
0.054825
0.000311614
0.045683
0.000310381
0.0380673
0.000309816
0.0317224
0.000309322
0.0264356
0.02203
0.000308877
0.00677605
0.0315114
0.00947881
0.0657268
0.00812841
0.0720521
0.00645287
0.0699113
0.00526607
0.0680018
0.00436495
0.0669718
0.00363798
0.0663221
0.00304577
0.0658598
0.00256117
0.0655202
0.00216216
0.0652666
0.00183146
0.0650738
0.00155571
0.0649244
0.00132462
0.0648065
0.00113029
0.0647116
0.000966681
0.0646338
0.00082918
0.0645689
0.000714226
0.0645136
0.000619078
0.0644658
0.000541602
0.0644236
0.000480124
0.0643861
0.000433304
0.0643523
0.00040002
0.0643217
0.000379049
0.0642943
0.000369235
0.0548348
0.000365548
0.0456867
0.00036467
0.0380682
0.000364755
0.0317223
0.000365003
0.0264354
0.0220296
0.000365335
0.0050652
0.0264462
0.00857057
0.0622214
0.00818628
0.0724364
0.00674748
0.0713501
0.00559693
0.0691523
0.00472561
0.0678431
0.00401218
0.0670356
0.00341279
0.0664592
0.00290652
0.0660265
0.00247743
0.0656957
0.00211259
0.0654386
0.00180152
0.0652355
0.00153577
0.0650722
0.00130857
0.0649388
0.00111457
0.0648279
0.00094951
0.0647339
0.000810066
0.0646531
0.00069362
0.0645822
0.00059812
0.0645191
0.000521949
0.0644623
0.000463814
0.0644104
0.00042261
0.0643629
0.000397016
0.0643199
0.000385621
0.0548462
0.000382034
0.0456903
0.000382022
0.0380682
0.000383255
0.0317211
0.000384731
0.0264339
0.0220281
0.000386286
0.00361745
0.0228288
0.00730852
0.0585304
0.00778295
0.071962
0.00672928
0.0724038
0.00567353
0.0702081
0.00485263
0.068664
0.0041759
0.0677123
0.0035951
0.06704
0.00309235
0.0665292
0.00265615
0.0661319
0.00227702
0.0658178
0.00194714
0.0655654
0.00166009
0.0653593
0.00141064
0.0651883
0.00119452
0.065044
0.0010083
0.0649202
0.000849228
0.0648121
0.000715154
0.0647163
0.000604375
0.0646299
0.000515563
0.0645511
0.000447664
0.0644783
0.000399748
0.0644108
0.000370563
0.0643491
0.000358448
0.0548584
0.000355718
0.045693
0.000357271
0.0380667
0.000360318
0.031718
0.000363654
0.0264306
0.0220247
0.000367006
0.00252116
0.0203076
0.00601285
0.0550387
0.00709255
0.0708823
0.00646776
0.0730286
0.00556112
0.0711147
0.00480997
0.0694152
0.00418407
0.0683382
0.00363653
0.0675875
0.00315151
0.0670142
0.00272143
0.066562
0.00234006
0.0661991
0.00200203
0.0659034
0.00170284
0.0656585
0.00143876
0.0654523
0.00120673
0.065276
0.00100427
0.0651226
0.000829405
0.064987
0.000680611
0.0648651
0.000556724
0.0647538
0.000456877
0.0646509
0.000380418
0.0645547
0.000326752
0.0644644
0.000294839
0.064381
0.000282772
0.0548704
0.000281614
0.0456942
0.000285434
0.0380629
0.000291005
0.0317125
0.000296926
0.0264247
0.0220189
0.000302791
0.0017563
0.0185513
0.00487974
0.0519152
0.00631037
0.0694517
0.00606624
0.0732727
0.00532636
0.0718546
0.00464973
0.0700918
0.00407745
0.0689105
0.00356945
0.0680955
0.0031098
0.0674739
0.00269347
0.0669783
0.00231703
0.0665756
0.00197738
0.066243
0.0016718
0.065964
0.00139803
0.0657261
0.00115416
0.0655199
0.000938712
0.0653381
0.000750554
0.0651751
0.000588881
0.0650267
0.000453176
0.0648895
0.000343166
0.0647609
0.000258747
0.0646392
0.000199784
0.0645234
0.000165631
0.0644152
0.000154033
0.054882
0.000154955
0.0456933
0.00016165
0.0380562
0.000170422
0.0317037
0.000179633
0.0264154
0.0220097
0.000188785
0.00124509
0.0173062
0.00395774
0.0492026
0.00555135
0.0678581
0.00560957
0.0732145
0.00503079
0.0724333
0.00442286
0.0706997
0.00389662
0.0694367
0.00342518
0.068567
0.00299156
0.0679075
0.00259137
0.0673785
0.00222293
0.066944
0.00188484
0.0665811
0.00157587
0.066273
0.00129499
0.066007
0.00104141
0.0657735
0.00081459
0.0655649
0.00061423
0.0653755
0.000440302
0.0652007
0.000293021
0.0650368
0.000172784
0.0648812
8.00979e-05
0.0647318
1.54438e-05
0.0645881
-2.16387e-05
0.0644523
-3.30409e-05
0.0548934
-3.00566e-05
0.0456903
-2.0338e-05
0.0380464
-8.13056e-06
0.0316915
4.51921e-06
0.0264028
0.0219973
1.69201e-05
0.000910504
0.0163957
0.00322799
0.0468851
0.0048594
0.0662267
0.00514251
0.0729314
0.00471059
0.0728653
0.00416453
0.0712458
0.00367408
0.0699272
0.00323144
0.0690096
0.0028196
0.0683194
0.00243368
0.0677644
0.00207274
0.067305
0.00173644
0.0669174
0.00142459
0.0665849
0.00113713
0.0662945
0.000874164
0.0660364
0.000635985
0.0658031
0.000423103
0.0655884
0.000236243
0.0653875
7.62801e-05
0.0651968
-5.57407e-05
0.0650132
-0.000158564
0.0648347
-0.000230929
0.0646604
-0.000272258
0.0644936
-0.000284352
0.0549055
-0.000279636
0.0456856
-0.000266651
0.0380335
-0.000250194
0.031675
-0.000232648
0.0263853
0.0219798
-0.000215188
0.000692815
0.0157029
0.00265717
0.0449207
0.00424739
0.0646364
0.00468697
0.0724918
0.00438313
0.0731691
0.00389321
0.0717357
0.00343007
0.0703903
0.00300798
0.0694317
0.00261195
0.0687154
0.00223626
0.0681401
0.00188011
0.0676611
0.00154373
0.0672538
0.00122758
0.066901
0.000932288
0.0665897
0.000658651
0.0663101
0.000407671
0.0660541
0.000180515
0.0658155
-2.15042e-05
0.0655896
-0.000196827
0.0653721
-0.000343539
0.0651599
-0.000459471
0.0649506
-0.000542483
0.0647434
-0.000591261
0.0645424
-0.000606462
0.0549207
-0.00060158
0.0456807
-0.000586174
0.0380181
-0.000565825
0.0316547
-0.000543538
0.026363
0.0219572
-0.000520915
0.000548477
0.0151544
0.00221107
0.0432581
0.00371495
0.0631326
0.00425511
0.0719516
0.0040584
0.0733658
0.00361901
0.0721751
0.00317664
0.0708327
0.00276781
0.0698405
0.00238156
0.0691016
0.00201144
0.0685102
0.00165639
0.0680162
0.00131689
0.0675933
0.000993768
0.0672241
0.00068812
0.0668954
0.000401255
0.0665969
0.00013465
0.0663207
-0.00011007
0.0660603
-0.000330964
0.0658104
-0.000525659
0.0655668
-0.000691403
0.0653256
-0.000825187
0.0650844
-0.000923969
0.0648422
-0.000985507
0.0646039
-0.00100835
0.0549436
-0.0010068
0.0456791
-0.00099138
0.0380026
-0.00096854
0.0316318
-0.00094207
0.0263365
0.0219295
-0.000914342
0.000448279
0.0147061
0.00185933
0.0418471
0.00325501
0.0617369
0.00385322
0.0713534
0.00374314
0.0734759
0.00334857
0.0725697
0.00292192
0.0712593
0.00252024
0.0702422
0.00213816
0.0694837
0.00176894
0.0688794
0.00141101
0.0683741
0.0010648
0.0679395
0.000731335
0.0675576
0.000411961
0.0672148
0.000108243
0.0669006
-0.000178077
0.066607
-0.000444879
0.0663271
-0.000689538
0.0660551
-0.000908988
0.0657862
-0.00109976
0.0655164
-0.00125805
0.0652427
-0.00137998
0.0649641
-0.00146247
0.0646864
-0.00150053
0.0549816
-0.00150868
0.0456873
-0.00149819
0.0379922
-0.00147636
0.03161
-0.00144797
0.0263081
0.021898
-0.00141644
0.000374509
0.0143316
0.0015779
0.0406437
0.00285797
0.0604568
0.00348332
0.070728
0.00344159
0.0735176
0.00308644
0.0729248
0.00267185
0.0716739
0.00227251
0.0706415
0.00188974
0.0698665
0.00151705
0.0692521
0.0011523
0.0687388
0.000795634
0.0682962
0.000448059
0.0679052
0.000110926
0.0675519
-0.000214181
0.0672257
-0.000525236
0.066918
-0.000819627
0.0666215
-0.00109422
0.0663297
-0.00134536
0.0660374
-0.00156893
0.06574
-0.0017604
0.0654342
-0.00191531
0.0651191
-0.00203012
0.0648012
-0.00209484
0.0550463
-0.00212333
0.0457158
-0.00212685
0.0379957
-0.00211308
0.0315962
-0.00208789
0.0262829
0.0218662
-0.00205612
0.00031711
0.0140145
0.00135084
0.03961
0.0025173
0.0592904
0.00314722
0.0700981
0.0031569
0.0735079
0.0028355
0.0732462
0.0024303
0.0720791
0.00202982
0.071042
0.00164245
0.0702539
0.00126254
0.069632
0.000887368
0.069114
0.000516664
0.0686669
0.000151164
0.0682707
-0.000208027
0.0679111
-0.000559321
0.067577
-0.00090045
0.0672592
-0.00122852
0.0669495
-0.00154002
0.0666412
-0.00183077
0.0663281
-0.00209599
0.0660052
-0.00233057
0.0656687
-0.00252981
0.0653183
-0.00269085
0.0649622
-0.00279811
0.0551536
-0.00286442
0.0457821
-0.00289942
0.0380307
-0.00290905
0.0316059
-0.00289862
0.0262725
0.0218418
-0.00287423
0.000232651
0.0137819
0.000993641
0.038849
0.00189325
0.0583907
0.00241731
0.0695741
0.00245575
0.0734695
0.0022074
0.0734946
0.00187187
0.0724147
0.0015319
0.071382
0.00119991
0.0705859
0.000871999
0.0699599
0.000545384
0.0694406
0.000219391
0.0689929
-0.000105799
0.0685959
-0.000429527
0.0682348
-0.000750547
0.0678981
-0.00106702
0.0675756
-0.00137651
0.067259
-0.00167585
0.0669405
-0.00196115
0.0666134
-0.00222777
0.0662718
-0.00247059
0.0659116
-0.00268507
0.0655328
-0.00286929
0.0651465
-0.00300567
0.05529
-0.00310661
0.045883
-0.00317988
0.0381039
-0.00322737
0.0316534
-0.00324954
0.0262947
0.0218427
-0.00325048
0.000174174
0.0136077
0.000742274
0.0382809
0.00143718
0.0576958
0.00186572
0.0691455
0.00191493
0.0734203
0.00172197
0.0736875
0.00144604
0.0726906
0.00116072
0.0716673
0.000879825
0.0708668
0.000600631
0.0702391
0.000320422
0.0697208
3.81962e-05
0.0692751
-0.000246285
0.0688803
-0.000532754
0.0685213
-0.000820433
0.0681857
-0.00110807
0.0678633
-0.00139383
0.0675448
-0.0016752
0.0672219
-0.00194883
0.0668871
-0.00221051
0.0665335
-0.0024552
0.0661563
-0.00267796
0.0657555
-0.00287596
0.0653445
-0.00302902
0.055443
-0.00315177
0.0460058
-0.0032564
0.0382086
-0.00334811
0.0317451
-0.00342497
0.0263715
0.0218915
-0.0034737
0.000134563
0.0134731
0.00056752
0.0378479
0.00111074
0.0571526
0.00146054
0.0687957
0.00151162
0.0733692
0.00136021
0.073839
0.00113336
0.0729174
0.000894743
0.0719059
0.00065806
0.0711034
0.000421441
0.0704758
0.000182349
0.0699599
-6.04121e-05
0.0695179
-0.000307323
0.0691272
-0.000558446
0.0687724
-0.000813479
0.0684408
-0.00107174
0.0681215
-0.00133203
0.0678051
-0.00159258
0.0674824
-0.0018508
0.0671453
-0.00210322
0.0667859
-0.00234531
0.0663983
-0.00257184
0.0659821
-0.00277774
0.0655504
-0.00293621
0.0556015
-0.00305983
0.0461294
-0.00316612
0.0383149
-0.00326974
0.0318487
-0.0033888
0.0264906
0.0220373
-0.00353465
0.000103311
0.0133698
0.000441324
0.0375099
0.000874578
0.0567194
0.00116228
0.068508
0.0012095
0.073322
0.00108725
0.0739612
0.000899306
0.0731054
0.000700062
0.0721052
0.000501512
0.071302
0.00030193
0.0706753
9.89496e-05
0.0701629
-0.000108624
0.0697254
-0.000321389
0.06934
-0.00053966
0.0689907
-0.00076353
0.0686646
-0.000992794
0.0683508
-0.00122688
0.0680392
-0.00146472
0.0677203
-0.0017046
0.0673852
-0.00194404
0.0670253
-0.00217972
0.066634
-0.00240759
0.0662099
-0.00262239
0.0657652
-0.00279017
0.0557693
-0.00291201
0.0462513
-0.00299544
0.0383983
-0.00305075
0.031904
-0.00309583
0.0265357
-0.00326738
0.0222089
0.000149885
0.0219825
0.000192182
0.0219851
0.000225528
0.021994
0.000256517
0.0219964
0.000281676
0.0220022
0.000302294
0.0220067
0.000319867
0.0220098
0.000331114
0.0220161
0.00034034
0.0220181
0.000344534
0.0220232
0.000345646
0.0220262
0.000344217
0.0220288
0.000338331
0.0220332
0.000330826
0.0220349
0.000320056
0.0220381
0.000306964
0.0220404
0.000292517
0.0220418
0.000275077
0.0220448
0.000256552
0.0220459
0.000236768
0.0220471
0.000215402
0.0220487
0.000193399
0.0220494
0.000170705
0.02205
0.000147484
0.0220506
0.00012413
0.0220507
0.000100812
0.0220507
7.79191e-05
0.0220502
5.54446e-05
0.0220498
3.37107e-05
0.0220491
1.33593e-05
0.0220477
-6.11225e-06
0.0220468
-2.38714e-05
0.0220451
-3.96142e-05
0.0220431
-5.41091e-05
0.0220419
-6.53107e-05
0.0220386
-7.4547e-05
0.0220366
-8.151e-05
0.0220343
-8.43008e-05
0.0220301
-8.53168e-05
0.0220284
-8.16612e-05
0.0220237
-7.48518e-05
0.0220205
-6.4923e-05
0.0220174
-4.91941e-05
0.0220116
-3.13107e-05
0.0220095
-6.70833e-06
0.0220028
2.13342e-05
0.0219993
5.41848e-05
0.0219945
9.33936e-05
0.0219881
0.0219856
0.000135101
0.000266416
0.0219376
0.000309038
0.0219424
0.000342926
0.0219601
0.000374675
0.0219646
0.000400826
0.021976
0.000422662
0.0219849
0.000441664
0.0219908
0.000454554
0.0220032
0.000465608
0.0220071
0.000471815
0.022017
0.000475106
0.022023
0.000476004
0.0220279
0.000472594
0.0220367
0.000467682
0.0220398
0.000459623
0.0220462
0.000449339
0.0220507
0.000437777
0.0220534
0.000423307
0.0220593
0.000407801
0.0220614
0.000391076
0.0220639
0.000372809
0.022067
0.000353914
0.0220683
0.000334331
0.0220696
0.000314216
0.0220707
0.000293939
0.022071
0.000273659
0.022071
0.000253763
0.0220701
0.000234215
0.0220694
0.000215332
0.022068
0.000197752
0.0220653
0.000180944
0.0220636
0.000165739
0.0220603
0.000152428
0.0220564
0.000140214
0.0220541
0.000131152
0.0220476
0.000123881
0.0220439
0.000118698
0.0220395
0.000117507
0.0220313
0.000117873
0.022028
0.000122704
0.0220189
0.000130455
0.0220128
0.000141079
0.0220068
0.000157263
0.0219954
0.000175322
0.0219914
0.000199838
0.0219782
0.000227493
0.0219717
0.000259641
0.0219624
0.000297811
0.02195
0.0219453
0.000338116
0.000354226
0.0218922
0.000397446
0.0218992
0.000432179
0.0219254
0.000465011
0.0219318
0.000492487
0.0219486
0.000515878
0.0219615
0.000536652
0.02197
0.000551527
0.0219883
0.000564753
0.0219938
0.000573321
0.0220084
0.00057914
0.0220171
0.000582718
0.0220243
0.000582139
0.0220372
0.000580179
0.0220417
0.000575192
0.0220512
0.000568082
0.0220578
0.000559775
0.0220617
0.000548645
0.0220704
0.000536533
0.0220735
0.000523246
0.0220772
0.000508456
0.0220818
0.00049305
0.0220837
0.000476961
0.0220857
0.000460336
0.0220873
0.00044352
0.0220878
0.000426664
0.0220878
0.000410149
0.0220867
0.000393912
0.0220856
0.000378261
0.0220836
0.00036383
0.0220797
0.000350059
0.0220774
0.000337777
0.0220726
0.000327262
0.0220669
0.000317691
0.0220636
0.000311129
0.0220542
0.000306183
0.0220488
0.00030314
0.0220425
0.000303906
0.0220306
0.00030601
0.0220259
0.00031237
0.0220125
0.000321416
0.0220037
0.000333086
0.0219951
0.00035007
0.0219785
0.000368647
0.0219728
0.00039341
0.0219535
0.000421009
0.0219441
0.000452788
0.0219306
0.000490266
0.0219125
0.0219061
0.000529509
0.000411612
0.0218459
0.000455947
0.0218549
0.000492023
0.0218893
0.00052644
0.0218974
0.000555748
0.0219193
0.000581212
0.021936
0.00060429
0.0219469
0.000621694
0.0219709
0.000637656
0.0219779
0.000649157
0.0219969
0.000658089
0.0220082
0.000664947
0.0220175
0.000667805
0.0220344
0.000669418
0.0220401
0.00066813
0.0220525
0.00066483
0.0220611
0.000660423
0.0220661
0.000653279
0.0220775
0.000645215
0.0220816
0.000636024
0.0220863
0.000625371
0.0220924
0.000614117
0.0220949
0.000602185
0.0220977
0.000589711
0.0220998
0.000577019
0.0221005
0.000564246
0.0221006
0.000551766
0.0220991
0.000539491
0.0220979
0.000527719
0.0220954
0.000517077
0.0220904
0.000506978
0.0220875
0.000498248
0.0220813
0.000491149
0.022074
0.000484836
0.0220699
0.000481378
0.0220576
0.000479356
0.0220508
0.000479044
0.0220429
0.000482348
0.0220273
0.000486767
0.0220215
0.000495227
0.022004
0.000506132
0.0219928
0.000519408
0.0219819
0.00053775
0.0219601
0.0005574
0.0219532
0.000582969
0.0219279
0.000611068
0.021916
0.000643037
0.0218986
0.000680388
0.0218751
0.0218673
0.000719141
0.000434221
0.021798
0.000480403
0.0218087
0.000518549
0.0218512
0.000555284
0.0218606
0.000587164
0.0218874
0.000615453
0.0219078
0.000641604
0.0219208
0.000662317
0.0219502
0.000681814
0.0219584
0.000697061
0.0219816
0.000709938
0.0219953
0.000720923
0.0220065
0.000728077
0.0220272
0.000734138
0.0220341
0.000737436
0.0220492
0.000738844
0.0220597
0.000739248
0.0220657
0.000737007
0.0220798
0.000733917
0.0220847
0.000729756
0.0220905
0.000724175
0.022098
0.000718015
0.0221011
0.000711183
0.0221045
0.000703803
0.0221072
0.000696177
0.0221081
0.000688427
0.0221083
0.000680917
0.0221067
0.000673536
0.0221053
0.000666569
0.0221024
0.000660632
0.0220963
0.000655116
0.022093
0.000650836
0.0220856
0.000648044
0.0220768
0.000645868
0.0220721
0.000646381
0.0220571
0.000648137
0.0220491
0.000651401
0.0220396
0.000658076
0.0220206
0.000665633
0.0220139
0.000677003
0.0219927
0.00069057
0.0219793
0.000706248
0.0219662
0.000726737
0.0219396
0.000748247
0.0219317
0.000775403
0.0219007
0.00080479
0.0218866
0.00083774
0.0218657
0.000875761
0.0218371
0.0218283
0.000914828
0.000417503
0.0217475
0.000466455
0.0217597
0.000507597
0.02181
0.000547597
0.0218206
0.000583012
0.021852
0.000615111
0.0218757
0.000645345
0.0218905
0.000670395
0.0219252
0.000694484
0.0219343
0.000714555
0.0219616
0.000732479
0.0219774
0.000748719
0.0219902
0.000761314
0.0220146
0.000772992
0.0220224
0.000782061
0.0220401
0.000789379
0.0220524
0.000795814
0.0220592
0.000799705
0.0220759
0.000802832
0.0220815
0.000804954
0.0220884
0.000805702
0.0220973
0.0008059
0.0221009
0.000805436
0.0221049
0.000804416
0.0221082
0.000803122
0.0221094
0.000801659
0.0221098
0.000800374
0.0221079
0.000799136
0.0221065
0.000798213
0.0221033
0.000798208
0.0220963
0.000798487
0.0220927
0.000799857
0.0220842
0.000802551
0.0220741
0.000805676
0.022069
0.000811305
0.0220515
0.000817967
0.0220424
0.000825911
0.0220316
0.000837044
0.0220095
0.000848804
0.0220022
0.000864131
0.0219774
0.000881388
0.021962
0.000900475
0.0219471
0.000924104
0.021916
0.000948447
0.0219073
0.000978154
0.021871
0.00100977
0.021855
0.00104464
0.0218308
0.00108425
0.0217975
0.021788
0.00112454
0.000356948
0.0216934
0.000409783
0.0217069
0.000455041
0.0217648
0.00049946
0.0217762
0.0005396
0.0218118
0.000576739
0.0218385
0.000612327
0.021855
0.000643022
0.0218945
0.00067305
0.0219043
0.000699328
0.0219353
0.000723716
0.021953
0.000746661
0.0219673
0.000766177
0.0219951
0.000784983
0.0220036
0.00080136
0.0220237
0.000816148
0.0220376
0.000830198
0.0220452
0.000841822
0.0220643
0.000852785
0.0220706
0.000862822
0.0220783
0.000871542
0.0220885
0.000879749
0.0220927
0.000887307
0.0220974
0.000894302
0.0221012
0.000900994
0.0221027
0.000907465
0.0221033
0.000914044
0.0221014
0.000920575
0.0221
0.000927306
0.0220966
0.000934825
0.0220888
0.00094247
0.0220851
0.000951034
0.0220757
0.000960733
0.0220644
0.000970649
0.0220591
0.000982851
0.0220393
0.000995842
0.0220294
0.00100986
0.0220176
0.0010268
0.0219925
0.00104408
0.0219849
0.00106464
0.0219568
0.00108683
0.0219398
0.00111053
0.0219234
0.00113847
0.0218881
0.00116677
0.021879
0.00120013
0.0218377
0.00123505
0.02182
0.00127287
0.021793
0.00131508
0.0217553
0.0217455
0.00135755
0.000247721
0.0216344
0.000305626
0.021649
0.000356379
0.021714
0.000406682
0.0217259
0.000453032
0.0217655
0.000496712
0.0217948
0.000539197
0.0218125
0.000577131
0.0218565
0.000614757
0.0218666
0.000648952
0.0219011
0.000681571
0.0219204
0.00071304
0.0219358
0.000741338
0.0219668
0.000769181
0.0219757
0.000794813
0.0219981
0.000819057
0.0220134
0.000842744
0.0220215
0.000864147
0.0220429
0.00088502
0.0220497
0.000905067
0.0220583
0.000923868
0.0220697
0.000942206
0.0220743
0.000959915
0.0220797
0.000977056
0.0220841
0.000993861
0.0220859
0.00101039
0.0220868
0.00102693
0.0220848
0.00104332
0.0220836
0.00105977
0.0220801
0.00107685
0.0220717
0.00109386
0.0220681
0.00111158
0.022058
0.0011302
0.0220458
0.00114878
0.0220405
0.00116938
0.0220187
0.00119046
0.0220083
0.00121226
0.0219958
0.00123667
0.0219681
0.00126106
0.0219605
0.0012884
0.0219295
0.00131699
0.0219112
0.00134671
0.0218937
0.0013803
0.0218545
0.00141386
0.0218455
0.0014521
0.0217994
0.00149149
0.0217806
0.00153336
0.0217511
0.00157923
0.0217094
0.0216999
0.00162488
8.21412e-05
0.0215692
0.000147263
0.0215839
0.000205525
0.0216558
0.000263514
0.0216679
0.000317818
0.0217112
0.000369983
0.0217427
0.000421428
0.021761
0.000468693
0.0218093
0.000516032
0.0218193
0.000560297
0.0218568
0.000603357
0.0218773
0.000645628
0.0218935
0.000685045
0.0219274
0.000724325
0.0219365
0.000761667
0.0219607
0.000797873
0.0219772
0.000833753
0.0219856
0.000867533
0.0220091
0.000900953
0.0220163
0.00093368
0.0220256
0.000965258
0.0220382
0.000996442
0.0220431
0.00102703
0.0220491
0.00105705
0.022054
0.0010867
0.0220563
0.00111599
0.0220575
0.00114521
0.0220556
0.00117412
0.0220547
0.00120292
0.0220513
0.00123214
0.0220425
0.00126106
0.0220392
0.00129041
0.0220286
0.00132038
0.0220158
0.00134996
0.0220109
0.00138122
0.0219874
0.00141258
0.021977
0.00144425
0.0219642
0.00147812
0.0219342
0.00151153
0.0219271
0.00154744
0.0218935
0.00158414
0.0218745
0.00162149
0.0218563
0.00166225
0.0218137
0.00170247
0.0218053
0.0017469
0.021755
0.00179198
0.0217356
0.00183904
0.021704
0.0018896
0.0216589
0.0216501
0.00193938
-0.000142775
0.0214968
-7.05267e-05
0.0215116
-4.55366e-06
0.0215898
6.2607e-05
0.0216008
0.000127355
0.0216464
0.000190486
0.0216795
0.000253372
0.0216981
0.000312193
0.0217505
0.000371675
0.0217598
0.000428632
0.0217999
0.000484879
0.0218211
0.000540786
0.0218376
0.000594236
0.0218739
0.000647955
0.0218827
0.000700091
0.0219086
0.000751425
0.0219258
0.000802738
0.0219343
0.000852202
0.0219596
0.000901536
0.0219669
0.000950362
0.0219767
0.000998178
0.0219903
0.0010457
0.0219956
0.00109268
0.0220021
0.0011391
0.0220076
0.00118511
0.0220103
0.00123068
0.0220119
0.00127604
0.0220102
0.00132091
0.0220098
0.00136544
0.0220068
0.00141014
0.0219978
0.0014542
0.0219951
0.00149834
0.0219845
0.00154269
0.0219715
0.0015862
0.0219674
0.00163095
0.0219427
0.00167528
0.0219326
0.00171936
0.0219201
0.00176512
0.0218885
0.00180979
0.0218824
0.0018564
0.0218469
0.00190317
0.0218278
0.00194995
0.0218095
0.00199954
0.0217641
0.00204791
0.0217569
0.0020999
0.021703
0.00215188
0.0216836
0.00220519
0.0216507
0.00226137
0.0216027
0.0215954
0.00231607
-0.000438874
0.0214147
-0.000355874
0.0214286
-0.000278498
0.0215124
-0.000200051
0.0215223
-0.000124162
0.0215705
-4.92631e-05
0.0216046
2.62452e-05
0.0216226
9.9645e-05
0.0216771
0.000174525
0.0216849
0.000247389
0.021727
0.000320026
0.0217484
0.000392909
0.0217648
0.000463914
0.0218029
0.00053577
0.0218109
0.000606549
0.0218378
0.000676994
0.0218554
0.000747849
0.0218635
0.000817213
0.0218903
0.00088678
0.0218974
0.000956107
0.0219074
0.00102463
0.0219218
0.00109302
0.0219272
0.00116095
0.0219342
0.00122835
0.0219402
0.0012953
0.0219433
0.0013617
0.0219455
0.00142774
0.0219442
0.00149304
0.0219445
0.00155768
0.0219421
0.00162214
0.0219333
0.00168551
0.0219317
0.00174848
0.0219215
0.00181112
0.0219088
0.00187227
0.0219063
0.00193404
0.0218809
0.00199467
0.021872
0.00205429
0.0218605
0.00211485
0.0218279
0.00217347
0.0218238
0.00223323
0.0217872
0.00229229
0.0217687
0.00235048
0.0217513
0.00241067
0.0217039
0.00246871
0.0216988
0.00252957
0.0216422
0.00258952
0.0216236
0.00264997
0.0215903
0.00271246
0.0215402
0.0215353
0.00277255
-0.000821685
0.0213221
-0.000727044
0.021334
-0.000637095
0.0214225
-0.000544661
0.0214299
-0.000453398
0.0214793
-0.000361987
0.0215132
-0.000268975
0.0215296
-0.000178464
0.0215865
-8.56979e-05
0.0215922
6.04589e-06
0.0216353
9.88283e-05
0.0216557
0.00019281
0.0216708
0.000285637
0.0217101
0.000380174
0.0217163
0.000474378
0.0217436
0.000568964
0.0217608
0.00066463
0.0217678
0.000759342
0.0217955
0.000854743
0.021802
0.000950304
0.0218119
0.00104538
0.0218267
0.00114056
0.0218321
0.00123544
0.0218393
0.00132986
0.0218458
0.00142379
0.0218494
0.00151705
0.0218523
0.00160973
0.0218515
0.00170135
0.0218529
0.0017919
0.0218516
0.00188177
0.0218435
0.00196993
0.0218436
0.00205699
0.0218344
0.00214295
0.0218229
0.00222653
0.0218227
0.00230983
0.0217976
0.00239096
0.0217909
0.00247
0.0217814
0.00254891
0.021749
0.00262467
0.021748
0.00270043
0.0217114
0.00277427
0.0216949
0.002846
0.0216796
0.00291857
0.0216313
0.00298771
0.0216297
0.00305855
0.0215713
0.00312726
0.0215549
0.00319531
0.0215222
0.00326432
0.0214712
0.0214699
0.00332971
-0.00131222
0.0212179
-0.00120437
0.0212261
-0.00109987
0.021318
-0.000991425
0.0213214
-0.000882888
0.0213707
-0.000772874
0.0214032
-0.000659833
0.0214166
-0.00054749
0.0214742
-0.000431329
0.021476
-0.000314921
0.0215189
-0.000196509
0.0215373
-7.57491e-05
0.02155
4.49956e-05
0.0215894
0.000168231
0.0215931
0.000291966
0.0216199
0.000417428
0.0216353
0.000544802
0.0216404
0.000671989
0.0216684
0.000800595
0.0216734
0.000929962
0.0216825
0.00105934
0.0216974
0.00118919
0.0217022
0.001319
0.0217095
0.00144848
0.0217163
0.00157748
0.0217204
0.00170566
0.0217241
0.00183301
0.0217242
0.00195886
0.021727
0.00208307
0.0217274
0.00220591
0.0217206
0.00232615
0.0217234
0.00244431
0.0217163
0.00256026
0.0217069
0.00267252
0.0217104
0.00278319
0.021687
0.00289019
0.0216839
0.00299352
0.0216781
0.00309515
0.0216474
0.00319187
0.0216513
0.00328692
0.0216164
0.00337827
0.0216035
0.00346571
0.0215922
0.00355232
0.0215447
0.00363368
0.0215483
0.00371515
0.0214899
0.00379282
0.0214773
0.00386823
0.0214468
0.00394312
0.0213963
0.0214002
0.00401279
-0.00194083
0.0211026
-0.00181962
0.0211049
-0.00169978
0.0211981
-0.00157368
0.0211953
-0.00144528
0.0212423
-0.00131313
0.0212711
-0.00117568
0.0212791
-0.00103688
0.0213354
-0.00089209
0.0213312
-0.000745091
0.0213719
-0.000594061
0.0213862
-0.000438869
0.0213948
-0.000282122
0.0214326
-0.000120983
0.021432
4.21238e-05
0.0214568
0.000206725
0.0214707
0.000374428
0.0214727
0.000543397
0.0214994
0.000714808
0.021502
0.000887909
0.0215094
0.00106181
0.0215235
0.00123682
0.0215272
0.00141224
0.0215341
0.00158766
0.0215409
0.00176268
0.0215454
0.00193678
0.02155
0.00210978
0.0215512
0.00228071
0.0215561
0.00244922
0.0215589
0.00261543
0.0215544
0.00277775
0.021561
0.00293658
0.0215574
0.00309157
0.0215519
0.00324094
0.0215611
0.00338679
0.0215411
0.00352674
0.0215439
0.00366065
0.0215442
0.00379051
0.0215175
0.00391281
0.021529
0.00403094
0.0214982
0.00414271
0.0214918
0.00424788
0.021487
0.00434974
0.0214429
0.00444366
0.0214544
0.00453538
0.0213981
0.00462086
0.0213918
0.00470187
0.0213658
0.00478035
0.0213178
0.0213291
0.00485147
-0.00275057
0.0209789
-0.00261736
0.0209717
-0.00248271
0.0210635
-0.00233841
0.021051
-0.00218829
0.0210922
-0.0020306
0.0211134
-0.00186366
0.0211122
-0.00169174
0.0211635
-0.00151035
0.0211498
-0.00132376
0.0211853
-0.00113045
0.0211929
-0.000930613
0.021195
-0.00072721
0.0212292
-0.000517744
0.0212225
-0.000304742
0.0212438
-8.72669e-05
0.0212533
0.0001343
0.0212511
0.000357221
0.0212765
0.000584539
0.0212746
0.000814746
0.0212792
0.00104698
0.0212912
0.00128135
0.0212928
0.00151701
0.0212984
0.00175333
0.0213046
0.0019896
0.0213091
0.002225
0.0213146
0.0024591
0.0213171
0.00269045
0.0213247
0.00291837
0.0213309
0.00314265
0.0213301
0.00336121
0.0213425
0.00357417
0.0213445
0.00378083
0.0213453
0.00397896
0.0213629
0.00417062
0.0213495
0.00435297
0.0213616
0.00452567
0.0213715
0.00469075
0.0213524
0.00484426
0.0213755
0.00498979
0.0213527
0.00512492
0.0213566
0.00524937
0.0213626
0.00536671
0.0213255
0.00547208
0.021349
0.00557176
0.0212985
0.00566169
0.0213018
0.00574401
0.0212835
0.00582105
0.0212408
0.0212623
0.00588786
-0.00315087
0.0208793
-0.00304013
0.020861
-0.00292329
0.0209466
-0.00279084
0.0209186
-0.00264573
0.0209471
-0.00248695
0.0209546
-0.00231418
0.0209394
-0.00213242
0.0209817
-0.00193889
0.0209563
-0.00173828
0.0209847
-0.00152995
0.0209846
-0.00131455
0.0209796
-0.00109488
0.0210096
-0.000868893
0.0209965
-0.000638824
0.0210137
-0.000404239
0.0210187
-0.00016444
0.0210113
7.87062e-05
0.0210333
0.000324815
0.0210285
0.00057556
0.0210284
0.000829628
0.0210372
0.00108708
0.0210354
0.00134707
0.0210384
0.00160888
0.0210428
0.00187153
0.0210465
0.00213397
0.0210522
0.00239543
0.0210556
0.00265412
0.0210661
0.00290893
0.0210761
0.00315928
0.0210798
0.0034027
0.021099
0.00363891
0.0211083
0.00386688
0.0211173
0.00408415
0.0211456
0.00429241
0.0211412
0.00448875
0.0211652
0.00467269
0.0211876
0.00484601
0.0211791
0.00500495
0.0212166
0.00515279
0.0212049
0.00528723
0.0212222
0.00540798
0.0212418
0.00551826
0.0212153
0.00561358
0.0212537
0.00569968
0.0212124
0.00577298
0.0212285
0.00583581
0.0212207
0.00589091
0.0211857
0.0212186
0.00593461
-0.00339613
0.0208017
-0.00331734
0.0207822
-0.00322887
0.0208581
-0.00311397
0.0208037
-0.00297477
0.0208079
-0.00281318
0.020793
-0.00263251
0.0207587
-0.00244017
0.0207894
-0.00223586
0.020752
-0.00202498
0.0207738
-0.00180767
0.0207673
-0.00158475
0.0207567
-0.00135865
0.0207835
-0.00112741
0.0207653