/*--------------------------------*- C++ -*----------------------------------*\
| =========                 |                                                 |
| \\      /  F ield         | OpenFOAM: The Open Source CFD Toolbox           |
|  \\    /   O peration     | Version:  2312                                  |
|   \\  /    A nd           | Website:  www.openfoam.com                      |
|    \\/     M anipulation  |                                                 |
\*---------------------------------------------------------------------------*/
FoamFile
{
    version     2.0;
    format      ascii;
    arch        "LSB;label=32;scalar=64";
    class       volScalarField;
    location    "91.713101667187502";
    object      p;
}
// * * * * * * * * * * * * * * * * * * * * * * * * * * * * * * * * * * * * * //

dimensions      [0 2 -2 0 0 0 0];

internalField   nonuniform List<scalar> 
21039
(
0.609983
0.476244
0.433962
0.405667
0.384285
0.368126
0.355595
0.345586
0.337419
0.33064
0.324932
0.320066
0.315868
0.312207
0.308979
0.306102
0.303507
0.301137
0.298946
0.296892
0.29494
0.29306
0.291223
0.289517
0.288031
0.286725
0.285555
0.284481
0.283485
0.462965
0.425078
0.411189
0.392775
0.375944
0.362577
0.351733
0.342775
0.335309
0.329022
0.323673
0.319073
0.315081
0.311581
0.308483
0.305711
0.303205
0.30091
0.298783
0.296784
0.294878
0.293036
0.291231
0.289545
0.288066
0.286762
0.285591
0.284517
0.283519
0.373565
0.371148
0.373266
0.366475
0.357967
0.350094
0.342748
0.336109
0.33025
0.32511
0.320602
0.316636
0.313133
0.31002
0.307234
0.30472
0.302429
0.300318
0.29835
0.29649
0.294706
0.29297
0.291257
0.289642
0.288214
0.286945
0.285801
0.284749
0.283769
0.335513
0.337616
0.342052
0.340926
0.338248
0.334955
0.331063
0.327039
0.32315
0.319495
0.31612
0.313036
0.310229
0.307678
0.305352
0.303222
0.301258
0.29943
0.297709
0.296067
0.294479
0.292919
0.291365
0.289884
0.288557
0.287368
0.286285
0.285279
0.284334
0.310567
0.314526
0.32039
0.322064
0.322216
0.321424
0.319809
0.317782
0.315565
0.313282
0.311029
0.308862
0.306813
0.304892
0.303099
0.301425
0.299857
0.298377
0.296967
0.295606
0.294274
0.292949
0.291611
0.290315
0.289133
0.288056
0.28706
0.28612
0.285224
0.29102
0.296265
0.303598
0.30744
0.30941
0.310165
0.310026
0.309374
0.308389
0.307195
0.305893
0.304553
0.30322
0.301922
0.300675
0.299484
0.298346
0.297255
0.2962
0.295166
0.294137
0.293096
0.292024
0.290958
0.28996
0.289025
0.28814
0.287285
0.286451
0.278364
0.283375
0.290458
0.295388
0.298584
0.300487
0.301453
0.301827
0.301784
0.301454
0.300941
0.300315
0.299628
0.298915
0.298199
0.297492
0.2968
0.296122
0.295453
0.294783
0.294099
0.293385
0.292627
0.291837
0.29106
0.2903
0.289552
0.288803
0.288047
0.2712
0.275289
0.281022
0.285962
0.289654
0.292214
0.293922
0.295046
0.295732
0.296099
0.296244
0.296235
0.296125
0.295952
0.295741
0.29551
0.295269
0.29502
0.29476
0.294485
0.294182
0.293839
0.29344
0.292973
0.292459
0.291909
0.291328
0.290708
0.290048
0.266829
0.270018
0.274381
0.278871
0.282565
0.285356
0.287456
0.289055
0.290262
0.291166
0.291846
0.292362
0.292762
0.293082
0.293348
0.293578
0.293785
0.293973
0.294142
0.294287
0.2944
0.294467
0.294474
0.294379
0.294172
0.293871
0.29349
0.293029
0.292485
0.263589
0.266031
0.269355
0.273319
0.276832
0.279649
0.281927
0.283805
0.28536
0.286661
0.287763
0.288717
0.28956
0.290325
0.291035
0.291709
0.292358
0.292987
0.293598
0.294186
0.294745
0.295261
0.295723
0.29605
0.296196
0.29618
0.296025
0.295785
0.295378
0.260776
0.262619
0.265198
0.268655
0.271938
0.274713
0.277074
0.279123
0.280919
0.282515
0.283953
0.28527
0.286499
0.287665
0.28879
0.289888
0.290971
0.292043
0.293106
0.294158
0.295192
0.296198
0.297162
0.297968
0.298525
0.298854
0.298979
0.298914
0.298677
0.25807
0.25947
0.261524
0.26452
0.26756
0.270264
0.27266
0.27482
0.276793
0.278619
0.280331
0.281958
0.283527
0.285058
0.28657
0.288075
0.289583
0.2911
0.292626
0.294159
0.295695
0.297223
0.298735
0.300073
0.301091
0.301808
0.302252
0.302437
0.302376
0.255306
0.256399
0.25809
0.260691
0.263497
0.266113
0.268513
0.270744
0.272849
0.27486
0.276802
0.278698
0.28057
0.282436
0.284312
0.286209
0.288136
0.290099
0.292096
0.294126
0.296182
0.298259
0.300353
0.302266
0.303796
0.304955
0.305772
0.306259
0.306429
0.252412
0.253292
0.254726
0.257
0.259591
0.262113
0.264499
0.266775
0.26898
0.271139
0.273274
0.275405
0.27755
0.279726
0.281946
0.284223
0.286565
0.288976
0.291452
0.293989
0.296579
0.299215
0.301901
0.304402
0.306466
0.308098
0.309326
0.310154
0.310592
0.24936
0.250094
0.251329
0.253317
0.255704
0.258129
0.260489
0.262793
0.265073
0.267353
0.269651
0.271985
0.274374
0.276834
0.279382
0.282029
0.284783
0.287645
0.29061
0.293666
0.296799
0.299993
0.303249
0.306291
0.308837
0.31091
0.312545
0.313734
0.314475
0.246408
0.247038
0.248118
0.249894
0.252118
0.254452
0.256781
0.259101
0.261437
0.263809
0.266236
0.268737
0.271332
0.27404
0.276881
0.279868
0.28301
0.286306
0.289747
0.293313
0.296971
0.300678
0.304401
0.307787
0.310544
0.312766
0.314556
0.315949
0.316934
0.243872
0.244435
0.245421
0.247066
0.249168
0.251422
0.253723
0.256059
0.258442
0.26089
0.263422
0.26606
0.268827
0.271747
0.274844
0.278133
0.281625
0.285323
0.289214
0.29327
0.297436
0.301624
0.305725
0.30923
0.31178
0.313539
0.31477
0.315731
0.316637
0.241744
0.242264
0.243186
0.244736
0.246746
0.248948
0.25125
0.253619
0.256055
0.258574
0.2612
0.26396
0.266881
0.269995
0.273325
0.276894
0.280719
0.284805
0.289144
0.293701
0.298407
0.303131
0.30767
0.311271
0.313327
0.313873
0.313172
0.311732
0.310631
0.24001
0.240582
0.241528
0.242985
0.244834
0.246937
0.249238
0.25166
0.254162
0.256758
0.259479
0.26236
0.265434
0.268734
0.272291
0.276133
0.280284
0.284759
0.289554
0.294641
0.299953
0.305342
0.310548
0.31458
0.316415
0.315567
0.31171
0.304284
0.293012
0.282526
0.28156
0.280597
0.279636
0.278677
0.277717
0.276757
0.275796
0.274832
0.273865
0.272894
0.271919
0.270939
0.269953
0.268961
0.267962
0.266956
0.265943
0.264921
0.263892
0.262854
0.261809
0.260755
0.259694
0.258625
0.257548
0.256465
0.255375
0.25428
0.253179
0.252074
0.250964
0.249852
0.248737
0.24762
0.246503
0.245386
0.244271
0.243158
0.242048
0.240944
0.239844
0.238752
0.237667
0.236592
0.235526
0.234471
0.233427
0.232395
0.282562
0.281605
0.280652
0.279701
0.278751
0.277801
0.276849
0.275897
0.274941
0.273982
0.273019
0.272052
0.271078
0.270098
0.269111
0.268116
0.267114
0.266103
0.265083
0.264054
0.263017
0.26197
0.260915
0.259851
0.258778
0.257697
0.256608
0.255512
0.25441
0.253301
0.252187
0.251069
0.249946
0.248821
0.247693
0.246565
0.245437
0.244309
0.243184
0.242062
0.240944
0.239832
0.238726
0.237628
0.236538
0.235459
0.234391
0.233335
0.232291
0.282833
0.281899
0.280967
0.280037
0.279107
0.278176
0.277243
0.276307
0.275367
0.274422
0.27347
0.272513
0.271547
0.270574
0.269591
0.268599
0.267597
0.266585
0.265562
0.264527
0.263482
0.262426
0.26136
0.260282
0.259194
0.258096
0.256989
0.255873
0.254749
0.253617
0.252478
0.251334
0.250184
0.249031
0.247874
0.246716
0.245557
0.244398
0.24324
0.242085
0.240934
0.239788
0.238648
0.237515
0.236391
0.235277
0.234174
0.233082
0.232004
0.283432
0.282532
0.281633
0.280732
0.279829
0.278923
0.278013
0.277097
0.276175
0.275245
0.274306
0.273358
0.272399
0.27143
0.270448
0.269454
0.268447
0.267426
0.266392
0.265344
0.264282
0.263206
0.262117
0.261015
0.259899
0.258771
0.257632
0.256481
0.25532
0.254149
0.25297
0.251783
0.250589
0.24939
0.248186
0.246979
0.24577
0.24456
0.243351
0.242143
0.240938
0.239737
0.238542
0.237353
0.236173
0.235002
0.233841
0.232691
0.231555
0.284367
0.283513
0.282655
0.281791
0.280923
0.280047
0.279164
0.278272
0.27737
0.276456
0.27553
0.27459
0.273636
0.272667
0.271683
0.270681
0.269663
0.268628
0.267574
0.266504
0.265416
0.26431
0.263188
0.262049
0.260893
0.259722
0.258537
0.257337
0.256124
0.254899
0.253663
0.252417
0.251162
0.2499
0.248632
0.247358
0.246081
0.244802
0.243522
0.242242
0.240964
0.239689
0.238419
0.237155
0.235898
0.23465
0.233411
0.232183
0.230967
0.285651
0.284855
0.284047
0.283229
0.282402
0.281564
0.280714
0.279849
0.278969
0.278073
0.27716
0.276228
0.275277
0.274306
0.273313
0.2723
0.271264
0.270206
0.269126
0.268024
0.266899
0.265753
0.264585
0.263397
0.262188
0.26096
0.259713
0.258449
0.257169
0.255873
0.254564
0.253242
0.251908
0.250565
0.249213
0.247855
0.24649
0.245122
0.243752
0.242381
0.24101
0.239642
0.238277
0.236917
0.235563
0.234218
0.23288
0.231554
0.230241
0.287318
0.286589
0.285842
0.28508
0.284302
0.283507
0.282694
0.281861
0.281007
0.28013
0.279229
0.278304
0.277353
0.276376
0.275372
0.274339
0.27328
0.272191
0.271075
0.269931
0.268759
0.267559
0.266334
0.265082
0.263805
0.262505
0.261181
0.259836
0.258471
0.257087
0.255686
0.254268
0.252837
0.251393
0.249938
0.248474
0.247002
0.245524
0.244043
0.242559
0.241075
0.239591
0.23811
0.236633
0.235163
0.233699
0.232243
0.230798
0.229367
0.289404
0.288755
0.288078
0.28738
0.28666
0.285915
0.285144
0.284346
0.28352
0.282663
0.281775
0.280854
0.279901
0.278913
0.277891
0.276834
0.275742
0.274614
0.273451
0.272254
0.271023
0.269758
0.26846
0.26713
0.26577
0.26438
0.262963
0.261519
0.26005
0.258559
0.257045
0.255512
0.253962
0.252396
0.250815
0.249224
0.247622
0.246012
0.244397
0.242778
0.241156
0.239535
0.237915
0.236299
0.234688
0.233084
0.231488
0.229903
0.228332
0.291942
0.291382
0.290787
0.290162
0.289507
0.288818
0.288096
0.287337
0.28654
0.285705
0.284829
0.283912
0.282952
0.28195
0.280905
0.279816
0.278684
0.277507
0.276288
0.275027
0.273723
0.272379
0.270995
0.269572
0.268112
0.266616
0.265086
0.263525
0.261932
0.260312
0.258665
0.256994
0.255302
0.253589
0.25186
0.250116
0.248358
0.246592
0.244817
0.243036
0.241253
0.239468
0.237684
0.235903
0.234127
0.232358
0.230597
0.228848
0.227116
0.294951
0.294495
0.293994
0.293447
0.292864
0.292239
0.291571
0.290856
0.290093
0.289281
0.288418
0.287504
0.286537
0.285517
0.284444
0.283318
0.282139
0.280906
0.279622
0.278286
0.276899
0.275463
0.273978
0.272447
0.27087
0.26925
0.267589
0.265889
0.264152
0.26238
0.260576
0.258742
0.256881
0.254996
0.253089
0.251165
0.249223
0.247269
0.245305
0.243333
0.241357
0.239377
0.237399
0.235424
0.233453
0.231491
0.229536
0.227596
0.225678
0.298415
0.298099
0.297721
0.297156
0.296697
0.296168
0.295569
0.294906
0.294185
0.293403
0.292558
0.291649
0.290677
0.289641
0.28854
0.287375
0.286145
0.284852
0.283497
0.282079
0.280601
0.279063
0.277466
0.275812
0.274105
0.272343
0.270532
0.268672
0.266766
0.264818
0.26283
0.260804
0.258746
0.256655
0.254538
0.252398
0.250236
0.248059
0.245867
0.243666
0.241459
0.239248
0.237038
0.234831
0.23263
0.230438
0.228256
0.226091
0.223954
0.302251
0.302054
0.301793
0.301479
0.301095
0.300632
0.300091
0.299486
0.298824
0.298082
0.297263
0.296368
0.295398
0.294353
0.293231
0.292033
0.290759
0.289409
0.287985
0.286485
0.284913
0.283268
0.281552
0.279767
0.277915
0.275996
0.274016
0.271975
0.269876
0.267723
0.265519
0.263267
0.260972
0.258636
0.256266
0.253866
0.251436
0.248987
0.246519
0.244038
0.241551
0.239057
0.236565
0.234076
0.231596
0.229128
0.226673
0.224241
0.221844
0.306494
0.30645
0.306318
0.306113
0.305834
0.305478
0.305049
0.304542
0.303951
0.30327
0.302505
0.301651
0.300711
0.299684
0.298566
0.297359
0.29606
0.294672
0.293195
0.291625
0.289968
0.288222
0.286387
0.284468
0.282464
0.280375
0.278208
0.275964
0.273642
0.271251
0.268793
0.26627
0.263691
0.261055
0.258374
0.255652
0.25289
0.250101
0.247287
0.244456
0.241616
0.238768
0.235924
0.233084
0.230258
0.22745
0.22466
0.221902
0.219192
0.31088
0.311012
0.311046
0.311002
0.310874
0.310663
0.310365
0.309979
0.309506
0.308939
0.308279
0.307519
0.306664
0.305714
0.304646
0.303479
0.302201
0.300814
0.29932
0.297712
0.295995
0.294169
0.292229
0.290182
0.288025
0.285758
0.283387
0.280913
0.278334
0.275662
0.272896
0.270042
0.267109
0.264097
0.261021
0.257886
0.254695
0.251466
0.248201
0.244913
0.241612
0.238302
0.234999
0.231707
0.228437
0.225195
0.221983
0.21882
0.215724
0.31502
0.315348
0.315586
0.315758
0.315856
0.315881
0.315822
0.315674
0.315433
0.315087
0.314635
0.314065
0.313375
0.312559
0.311621
0.310595
0.309398
0.308078
0.306632
0.305041
0.303314
0.301447
0.299432
0.297277
0.294978
0.292529
0.289939
0.287207
0.284329
0.281319
0.278176
0.274906
0.271522
0.268025
0.264431
0.260752
0.256991
0.253173
0.249302
0.245396
0.241472
0.237537
0.233615
0.229713
0.22585
0.222036
0.218277
0.214596
0.211017
0.317717
0.31821
0.3187
0.319224
0.319746
0.32024
0.320661
0.320982
0.321181
0.321235
0.321144
0.320894
0.320493
0.31994
0.319214
0.318332
0.317355
0.3162
0.314874
0.313372
0.311705
0.309863
0.307832
0.305618
0.303211
0.300601
0.297797
0.294794
0.291584
0.288185
0.284594
0.280819
0.276878
0.272771
0.268524
0.26415
0.259658
0.255078
0.25042
0.245709
0.240966
0.236206
0.231465
0.226755
0.222111
0.217553
0.213101
0.208787
0.204646
0.317609
0.318183
0.319112
0.320384
0.321793
0.323189
0.324443
0.325493
0.326313
0.326884
0.327228
0.327343
0.327259
0.326989
0.326532
0.325902
0.325085
0.324135
0.323023
0.321684
0.320156
0.318423
0.316457
0.314262
0.31182
0.309109
0.306138
0.302893
0.299363
0.295568
0.291505
0.287184
0.282629
0.277845
0.272867
0.267713
0.262399
0.256964
0.251421
0.245802
0.24013
0.234424
0.228725
0.223052
0.217453
0.211969
0.20665
0.20157
0.196796
0.31025
0.311265
0.314336
0.318189
0.321877
0.325052
0.327604
0.329575
0.331048
0.332091
0.332795
0.333198
0.333362
0.333321
0.333088
0.332696
0.33212
0.331372
0.330517
0.329437
0.328139
0.326615
0.324821
0.322753
0.320374
0.317648
0.314575
0.311129
0.307295
0.303095
0.298525
0.293603
0.288365
0.282821
0.277024
0.271001
0.264779
0.258413
0.251918
0.245335
0.238686
0.231984
0.225262
0.218517
0.211788
0.20511
0.198566
0.192355
0.186757
0.284465
0.294923
0.306888
0.316561
0.323611
0.328571
0.332007
0.334403
0.336082
0.33724
0.338025
0.338502
0.338754
0.338819
0.338721
0.338502
0.338144
0.337652
0.33701
0.336308
0.335298
0.334061
0.332532
0.330693
0.328491
0.325859
0.322777
0.319205
0.315116
0.310538
0.305474
0.299947
0.294012
0.28769
0.281055
0.274154
0.267026
0.259745
0.252339
0.244861
0.237336
0.22977
0.222177
0.214504
0.206715
0.198712
0.19041
0.181868
0.173717
0.231385
0.230334
0.229181
0.227913
0.226506
0.22495
0.223272
0.221668
0.220283
0.219148
0.218297
0.217766
0.217593
0.217827
0.218519
0.219733
0.221546
0.224056
0.227388
0.231709
0.237242
0.2443
0.253327
0.265001
0.280419
0.301181
0.328976
0.370789
0.504161
0.231265
0.230196
0.229024
0.227729
0.22629
0.224693
0.22297
0.221315
0.219878
0.21869
0.217783
0.21719
0.216947
0.2171
0.217694
0.218787
0.220449
0.222764
0.225839
0.229813
0.234864
0.24123
0.249215
0.259208
0.271837
0.288038
0.305942
0.319355
0.356905
0.230943
0.229835
0.228615
0.227263
0.225752
0.224069
0.222242
0.220471
0.218913
0.217598
0.216554
0.21581
0.215397
0.215351
0.215707
0.21651
0.217807
0.219657
0.222123
0.225279
0.229206
0.233984
0.239668
0.246177
0.253322
0.261195
0.267449
0.264814
0.26691
0.230434
0.229259
0.227961
0.226516
0.224894
0.223077
0.221088
0.219138
0.217395
0.215885
0.214631
0.213657
0.212986
0.212641
0.212646
0.213023
0.213797
0.214987
0.216609
0.218668
0.221144
0.223984
0.227079
0.230154
0.232733
0.234779
0.235345
0.230387
0.228007
0.229764
0.228499
0.227094
0.225523
0.223751
0.221755
0.219554
0.217372
0.215392
0.213635
0.21212
0.210863
0.20988
0.209181
0.208776
0.20867
0.208864
0.209349
0.210104
0.21109
0.21224
0.213449
0.214583
0.215412
0.215514
0.214746
0.212518
0.20617
0.201993
0.228935
0.227556
0.226019
0.224291
0.222335
0.220118
0.217658
0.215199
0.212939
0.210896
0.209085
0.207514
0.206193
0.20512
0.204296
0.20371
0.203348
0.203184
0.203179
0.203276
0.203398
0.20343
0.20324
0.202637
0.201231
0.198679
0.194314
0.186547
0.181135
0.227937
0.226421
0.224724
0.222808
0.22063
0.218154
0.215391
0.212612
0.210036
0.207679
0.205548
0.203649
0.201982
0.20054
0.199313
0.198282
0.197422
0.196699
0.196064
0.195456
0.19479
0.193953
0.192804
0.191157
0.188657
0.184927
0.179524
0.172067
0.166933
0.226756
0.225077
0.22319
0.221054
0.218617
0.215838
0.21273
0.209593
0.206672
0.203979
0.201517
0.199286
0.197281
0.195488
0.19389
0.192463
0.191174
0.189984
0.188839
0.187676
0.186411
0.184938
0.183124
0.180814
0.177728
0.17357
0.168223
0.162187
0.158016
0.225368
0.223498
0.22139
0.218996
0.21626
0.213137
0.209641
0.206111
0.202821
0.199779
0.196984
0.19443
0.192106
0.189993
0.188069
0.186303
0.184661
0.183097
0.181561
0.17999
0.17831
0.17643
0.174246
0.171642
0.168416
0.164343
0.159529
0.154939
0.151702
0.22373
0.221638
0.219273
0.216582
0.213504
0.209991
0.206066
0.202113
0.198437
0.195042
0.191922
0.189065
0.186453
0.184062
0.181865
0.179827
0.177912
0.176074
0.174264
0.172426
0.170497
0.168406
0.166072
0.163409
0.160268
0.156481
0.152285
0.148811
0.146349
0.221773
0.219422
0.21676
0.213727
0.210259
0.20631
0.201915
0.197513
0.193443
0.189702
0.186277
0.183148
0.18029
0.177674
0.175265
0.173029
0.170924
0.168906
0.16693
0.164944
0.162897
0.160729
0.158377
0.155771
0.152801
0.149363
0.145773
0.143117
0.141279
0.219387
0.216733
0.213726
0.210299
0.206388
0.201955
0.197053
0.192187
0.187728
0.183662
0.179967
0.176612
0.173564
0.170785
0.168236
0.165876
0.163664
0.161555
0.159505
0.157468
0.155398
0.153246
0.150959
0.148478
0.145727
0.142663
0.139639
0.137577
0.136205
0.216404
0.213393
0.209983
0.206101
0.201691
0.196728
0.191293
0.185964
0.18114
0.176793
0.172883
0.169367
0.1662
0.163335
0.160725
0.158324
0.156089
0.153972
0.151933
0.149927
0.147912
0.145849
0.143691
0.141389
0.138889
0.136199
0.133679
0.132046
0.131002
0.212535
0.2091
0.20522
0.200821
0.19586
0.190335
0.184368
0.178612
0.173485
0.168931
0.164892
0.161305
0.158111
0.155252
0.152673
0.150322
0.148149
0.146111
0.144164
0.142265
0.140377
0.138464
0.136486
0.134402
0.132174
0.129847
0.127765
0.126449
0.125635
0.207336
0.203398
0.198977
0.194006
0.188465
0.18239
0.175946
0.169855
0.164535
0.159895
0.155849
0.152313
0.14921
0.14647
0.144028
0.141827
0.139813
0.137941
0.136164
0.134445
0.132747
0.131038
0.129283
0.127445
0.125507
0.123539
0.121849
0.120783
0.120124
0.200412
0.195942
0.190987
0.185495
0.179482
0.173013
0.166288
0.160073
0.154758
0.150217
0.146333
0.143
0.140125
0.137627
0.135432
0.133478
0.131709
0.130075
0.128535
0.127049
0.125584
0.124109
0.122595
0.121015
0.119361
0.117711
0.116336
0.115471
0.114918
0.191968
0.18699
0.18164
0.175857
0.169647
0.163079
0.156364
0.150277
0.145176
0.140906
0.137327
0.134315
0.131764
0.129584
0.127699
0.126042
0.124557
0.123193
0.12191
0.12067
0.11944
0.118193
0.116906
0.115566
0.114173
0.112793
0.111658
0.110942
0.110467
0.181406
0.176216
0.170981
0.165398
0.159396
0.15305
0.146603
0.140844
0.136111
0.132231
0.129048
0.126426
0.12425
0.122427
0.120877
0.119534
0.118342
0.117253
0.116226
0.115226
0.114219
0.113179
0.112087
0.110944
0.109772
0.108627
0.107697
0.107111
0.1067
0.167326
0.163423
0.159426
0.154638
0.149201
0.143311
0.137307
0.13201
0.127739
0.124316
0.121575
0.119372
0.117588
0.116128
0.114913
0.113877
0.112968
0.112139
0.111351
0.110571
0.109764
0.108901
0.107969
0.107008
0.106091
0.105242
0.104519
0.103985
0.103556
0.238221
0.238575
0.239343
0.240827
0.242873
0.245187
0.247624
0.250118
0.252678
0.255346
0.258165
0.261173
0.264406
0.267899
0.271686
0.275804
0.280282
0.285143
0.290389
0.296
0.301915
0.307987
0.313922
0.318569
0.320543
0.318664
0.311421
0.296482
0.265543
0.236427
0.236903
0.237789
0.239265
0.241232
0.243477
0.245885
0.248397
0.251016
0.253776
0.256716
0.25987
0.263276
0.266974
0.271002
0.275404
0.280218
0.285475
0.291193
0.297372
0.303994
0.31098
0.318119
0.324348
0.328363
0.329436
0.327002
0.322872
0.32706
0.234582
0.235142
0.236114
0.237589
0.239491
0.241666
0.244026
0.24653
0.249184
0.252012
0.255047
0.258321
0.261874
0.265749
0.269994
0.274658
0.279795
0.285453
0.29168
0.298525
0.30606
0.314384
0.323603
0.333121
0.342109
0.350704
0.359262
0.366476
0.382921
0.232661
0.2332
0.234147
0.235611
0.237522
0.239709
0.242071
0.244581
0.247258
0.250134
0.253238
0.256606
0.260279
0.264305
0.268739
0.273641
0.279078
0.285123
0.291861
0.299406
0.307935
0.317787
0.32947
0.342862
0.35745
0.373325
0.391256
0.40792
0.429278
0.230664
0.231169
0.232068
0.233503
0.235418
0.237623
0.239998
0.24252
0.245217
0.248126
0.251282
0.254722
0.258492
0.262643
0.267235
0.272341
0.27804
0.284429
0.291629
0.299817
0.309255
0.320507
0.334418
0.351036
0.370105
0.391468
0.415133
0.439573
0.466351
0.228592
0.229081
0.229948
0.231348
0.233235
0.235424
0.237792
0.240312
0.243016
0.245943
0.249131
0.25262
0.256457
0.260698
0.265409
0.270668
0.27657
0.283226
0.290787
0.299493
0.309609
0.321897
0.337404
0.355886
0.377316
0.401724
0.429507
0.459138
0.488693
0.226441
0.22692
0.227766
0.229127
0.230965
0.233112
0.235448
0.237947
0.240638
0.243561
0.246755
0.250261
0.254129
0.258417
0.263194
0.268545
0.274571
0.281393
0.289166
0.298215
0.308676
0.321492
0.337417
0.357681
0.380631
0.40573
0.432623
0.460317
0.488105
0.224205
0.224672
0.225494
0.226809
0.228588
0.230679
0.232966
0.235424
0.238079
0.240971
0.24414
0.247629
0.251486
0.25577
0.260554
0.265921
0.271977
0.278849
0.286646
0.295832
0.306193
0.319295
0.335702
0.355946
0.378319
0.401927
0.425972
0.449997
0.473803
0.22188
0.222335
0.223129
0.224392
0.226101
0.228121
0.230342
0.232737
0.235332
0.238167
0.241279
0.244712
0.248512
0.252739
0.257463
0.262764
0.268747
0.275548
0.283156
0.292103
0.302701
0.315468
0.331336
0.350215
0.370526
0.391444
0.412238
0.432646
0.451961
0.219465
0.219909
0.220673
0.221877
0.223505
0.225437
0.227572
0.229884
0.232395
0.235143
0.238164
0.241501
0.245197
0.24931
0.253905
0.259055
0.264852
0.271417
0.278862
0.287477
0.29766
0.309644
0.324194
0.340992
0.358553
0.376156
0.393256
0.409873
0.425029
0.216958
0.217388
0.218118
0.219258
0.220795
0.222626
0.224658
0.226866
0.229268
0.2319
0.234797
0.237997
0.241542
0.245484
0.249886
0.254796
0.260333
0.266597
0.273683
0.281777
0.291117
0.301978
0.314811
0.329156
0.343652
0.357655
0.37079
0.383375
0.394566
0.214358
0.214776
0.215471
0.21654
0.217977
0.219693
0.221605
0.223686
0.225955
0.228443
0.231183
0.234207
0.237556
0.241272
0.245412
0.250036
0.255224
0.261064
0.26761
0.274994
0.283333
0.292856
0.30376
0.315475
0.326828
0.337298
0.346671
0.355425
0.362986
0.211671
0.212079
0.212741
0.213737
0.215061
0.216645
0.218414
0.220346
0.222458
0.224774
0.227325
0.230137
0.233244
0.236687
0.240514
0.244776
0.249527
0.254833
0.260715
0.26726
0.274507
0.282572
0.291462
0.300558
0.308934
0.31623
0.322381
0.327909
0.332471
0.208895
0.20929
0.209911
0.210828
0.212035
0.213478
0.215094
0.216861
0.218792
0.220912
0.223244
0.22581
0.22864
0.231765
0.235225
0.239057
0.243299
0.24799
0.253129
0.258754
0.264843
0.271412
0.278335
0.285013
0.290782
0.295445
0.299062
0.302138
0.304519
0.206038
0.20642
0.207001
0.207834
0.208917
0.210209
0.211656
0.213241
0.214973
0.216874
0.218962
0.221255
0.223774
0.226543
0.22959
0.23294
0.236616
0.240634
0.244976
0.249634
0.254543
0.259652
0.264754
0.269326
0.272953
0.275576
0.277337
0.278719
0.27974
0.203103
0.203475
0.204016
0.204763
0.205716
0.206846
0.208111
0.209499
0.211014
0.212678
0.214502
0.216497
0.218675
0.221053
0.223648
0.226474
0.229541
0.232843
0.236348
0.240017
0.243758
0.247486
0.250955
0.253758
0.255704
0.256845
0.25736
0.257708
0.25807
0.200098
0.200456
0.200953
0.201612
0.202433
0.203397
0.204474
0.205653
0.206939
0.208355
0.209897
0.211571
0.213386
0.215346
0.217461
0.219731
0.222155
0.224712
0.227358
0.230036
0.232646
0.235087
0.237118
0.238471
0.239155
0.239301
0.239072
0.238904
0.23913
0.19703
0.197377
0.197829
0.198399
0.199086
0.19988
0.200762
0.201718
0.202777
0.203929
0.205174
0.206515
0.207949
0.209474
0.211087
0.212782
0.214542
0.216337
0.218116
0.219813
0.221333
0.222581
0.223344
0.223515
0.223279
0.222807
0.222198
0.221858
0.222272
0.19391
0.194248
0.194657
0.195139
0.195692
0.196308
0.196986
0.197725
0.198542
0.199423
0.200365
0.201363
0.202406
0.203483
0.204583
0.205688
0.206772
0.207798
0.208707
0.209435
0.209897
0.210017
0.209636
0.208816
0.207895
0.207058
0.206304
0.206001
0.206787
0.190745
0.191072
0.191435
0.191828
0.192252
0.192686
0.193171
0.193694
0.194262
0.194871
0.195508
0.196159
0.196806
0.197431
0.198013
0.198525
0.198932
0.199188
0.199232
0.198999
0.198421
0.197451
0.195988
0.194278
0.192811
0.191769
0.191014
0.190874
0.192133
0.187546
0.187863
0.188181
0.188487
0.188793
0.189028
0.18934
0.189643
0.189966
0.190306
0.190639
0.190945
0.1912
0.191377
0.191446
0.191371
0.19111
0.190606
0.189795
0.188613
0.187005
0.184947
0.182406
0.179816
0.177834
0.17664
0.175941
0.176014
0.177802
0.184323
0.184635
0.184906
0.185127
0.185279
0.18541
0.18551
0.185592
0.185679
0.185755
0.185791
0.185761
0.185632
0.185371
0.18494
0.184294
0.18338
0.182134
0.180486
0.178367
0.175726
0.172556
0.168874
0.165308
0.162719
0.161312
0.160629
0.1609
0.163249
0.181088
0.1814
0.181626
0.181762
0.181811
0.18178
0.181684
0.181561
0.181422
0.181244
0.180995
0.18064
0.180142
0.17946
0.178548
0.177352
0.175811
0.173851
0.171391
0.168352
0.164676
0.160351
0.155416
0.150666
0.147224
0.145385
0.144542
0.144904
0.147824
0.17785
0.178155
0.178339
0.178421
0.178349
0.178153
0.177883
0.177572
0.177221
0.176805
0.176285
0.175623
0.174775
0.173694
0.172327
0.170612
0.168477
0.165839
0.162603
0.158676
0.153975
0.148461
0.142145
0.135939
0.131264
0.128582
0.127202
0.127403
0.130841
0.174622
0.174923
0.175084
0.1751
0.174908
0.174562
0.174129
0.173641
0.173096
0.172461
0.171692
0.170744
0.169571
0.168119
0.166329
0.164132
0.161447
0.15818
0.154222
0.14946
0.143778
0.137081
0.129298
0.121362
0.114966
0.110802
0.108172
0.107709
0.111563
0.171417
0.171704
0.171834
0.171773
0.171473
0.171001
0.170429
0.16979
0.169076
0.168244
0.167248
0.16604
0.164569
0.162778
0.160603
0.157968
0.154784
0.150945
0.14633
0.140805
0.13422
0.126411
0.11719
0.107402
0.0988944
0.0925166
0.0875344
0.0854518
0.089584
0.168263
0.168584
0.168739
0.16863
0.168207
0.167563
0.166818
0.166026
0.165159
0.164158
0.162965
0.161529
0.159797
0.157709
0.155196
0.152178
0.148557
0.144221
0.139036
0.132851
0.125491
0.116715
0.106176
0.0945562
0.0837435
0.0746266
0.0661415
0.0603003
0.0628476
0.132739
0.11286
0.085589
0.0504679
0.0108468
-0.028627
-0.0642429
-0.0972873
-0.127535
-0.159305
-0.19181
-0.228515
-0.266165
-0.301378
-0.329841
-0.348775
-0.358271
-0.360783
-0.360337
0.139463
0.123715
0.0977197
0.0618822
0.0189119
-0.0273799
-0.0722931
-0.117584
-0.16025
-0.206647
-0.253171
-0.300125
-0.34514
-0.384598
-0.414961
-0.434925
-0.445862
-0.450635
-0.452333
0.133487
0.118864
0.0944306
0.0586135
0.0135121
-0.0379688
-0.0900908
-0.147094
-0.203701
-0.260611
-0.317267
-0.372546
-0.423498
-0.466541
-0.498973
-0.520443
-0.532895
-0.539252
-0.542336
0.121659
0.107601
0.0852058
0.0502351
0.00269552
-0.0536697
-0.114823
-0.179254
-0.245237
-0.311852
-0.378026
-0.441599
-0.498713
-0.545505
-0.579824
-0.602232
-0.615487
-0.622813
-0.626869
0.107211
0.0940391
0.0727287
0.0380139
-0.0110444
-0.0706563
-0.137427
-0.208694
-0.283069
-0.359076
-0.434141
-0.504734
-0.566282
-0.6151
-0.650037
-0.672739
-0.686623
-0.694891
-0.699789
0.0876854
0.0749469
0.0548583
0.0211662
-0.028024
-0.0894656
-0.159934
-0.237275
-0.319167
-0.403001
-0.484971
-0.560442
-0.624583
-0.674393
-0.709842
-0.733368
-0.748689
-0.758734
-0.765309
0.0634729
0.0498156
0.0301744
-0.00245645
-0.051101
-0.113372
-0.186312
-0.26779
-0.354715
-0.443336
-0.528773
-0.605555
-0.668979
-0.717025
-0.750765
-0.773255
-0.788353
-0.798582
-0.805382
0.0360342
0.0203066
-0.000286183
-0.0329135
-0.0812433
-0.143663
-0.217582
-0.300707
-0.389528
-0.479479
-0.564832
-0.639737
-0.700107
-0.745083
-0.776641
-0.798081
-0.813046
-0.823497
-0.830618
0.00644241
-0.0118805
-0.0345383
-0.0684156
-0.117068
-0.179271
-0.252804
-0.335382
-0.423251
-0.511241
-0.593094
-0.663114
-0.718211
-0.758647
-0.787002
-0.806568
-0.820659
-0.830742
-0.83767
-0.0244183
-0.0453321
-0.0705543
-0.106464
-0.155996
-0.217878
-0.290161
-0.370681
-0.455553
-0.53923
-0.615346
-0.678847
-0.727814
-0.763467
-0.788711
-0.806649
-0.820191
-0.830424
-0.837836
-0.0555312
-0.0787614
-0.106584
-0.144789
-0.195551
-0.257218
-0.327876
-0.405334
-0.485475
-0.5625
-0.630374
-0.685147
-0.72619
-0.755489
-0.776047
-0.790674
-0.801804
-0.810288
-0.816393
-0.0856612
-0.110764
-0.140869
-0.181123
-0.233028
-0.294388
-0.363091
-0.436732
-0.510942
-0.58001
-0.638762
-0.684641
-0.718164
-0.741735
-0.758173
-0.769854
-0.778683
-0.785395
-0.790133
-0.113652
-0.140109
-0.171975
-0.213673
-0.266204
-0.326843
-0.393201
-0.46261
-0.530574
-0.591782
-0.64217
-0.680474
-0.708
-0.727261
-0.740766
-0.750488
-0.757937
-0.763823
-0.768097
-0.138677
-0.166027
-0.199127
-0.241602
-0.294114
-0.353477
-0.416988
-0.481648
-0.542917
-0.596135
-0.63849
-0.669867
-0.69208
-0.707545
-0.718408
-0.726268
-0.732284
-0.737112
-0.740589
-0.160183
-0.188065
-0.221938
-0.264581
-0.316424
-0.373895
-0.434006
-0.493497
-0.548013
-0.593796
-0.629268
-0.655184
-0.673555
-0.686537
-0.695869
-0.702789
-0.708175
-0.712591
-0.715796
-0.177991
-0.206189
-0.240504
-0.282871
-0.333546
-0.388654
-0.445033
-0.499327
-0.547592
-0.587036
-0.617104
-0.639076
-0.654944
-0.666549
-0.67527
-0.68206
-0.687602
-0.692336
-0.695906
-0.192289
-0.220769
-0.25539
-0.297291
-0.346546
-0.398971
-0.451268
-0.500136
-0.542267
-0.575917
-0.601375
-0.620197
-0.634188
-0.644831
-0.653166
-0.659894
-0.665542
-0.670403
-0.67408
-0.203343
-0.232237
-0.267208
-0.308685
-0.356503
-0.406139
-0.454248
-0.497793
-0.534305
-0.56304
-0.584892
-0.601468
-0.614288
-0.624475
-0.632764
-0.639633
-0.645485
-0.650493
-0.65427
-0.211486
-0.241079
-0.276639
-0.31799
-0.364647
-0.411718
-0.455903
-0.494608
-0.52627
-0.550994
-0.570047
-0.584954
-0.596939
-0.606815
-0.615074
-0.62203
-0.627999
-0.63308
-0.63691
-0.217068
-0.247799
-0.284405
-0.32619
-0.372161
-0.416894
-0.457189
-0.491124
-0.5182
-0.539306
-0.555914
-0.569343
-0.58049
-0.589878
-0.597811
-0.604488
-0.610166
-0.614921
-0.618454
-0.220184
-0.252648
-0.29096
-0.333999
-0.379985
-0.422785
-0.459382
-0.488773
-0.511622
-0.5295
-0.543951
-0.556029
-0.566314
-0.575092
-0.582517
-0.588711
-0.593887
-0.598132
-0.601236
-0.220809
-0.255765
-0.296664
-0.341996
-0.388818
-0.430099