/*--------------------------------*- C++ -*----------------------------------*\
| =========                 |                                                 |
| \\      /  F ield         | OpenFOAM: The Open Source CFD Toolbox           |
|  \\    /   O peration     | Version:  2312                                  |
|   \\  /    A nd           | Website:  www.openfoam.com                      |
|    \\/     M anipulation  |                                                 |
\*---------------------------------------------------------------------------*/
FoamFile
{
    version     2.0;
    format      ascii;
    arch        "LSB;label=32;scalar=64";
    class       volVectorField;
    location    "91.713101667187502";
    object      U;
}
// * * * * * * * * * * * * * * * * * * * * * * * * * * * * * * * * * * * * * //

dimensions      [0 1 -1 0 0 0 0];

internalField   nonuniform List<vector> 
21039
(
(0.913738 0.0474162 0)
(1.02608 0.0665059 0)
(1.00449 0.0295506 0)
(1.00176 0.0189464 0)
(1.0012 0.0139502 0)
(1.00079 0.0105828 0)
(1.00055 0.00826902 0)
(1.0004 0.00663951 0)
(1.0003 0.0054434 0)
(1.00023 0.00453682 0)
(1.00018 0.00383431 0)
(1.00014 0.00328086 0)
(1.00011 0.00283947 0)
(1.00009 0.00248454 0)
(1.00007 0.00219792 0)
(1.00006 0.00196644 0)
(1.00004 0.00178034 0)
(1.00003 0.00163224 0)
(1.00002 0.00151639 0)
(1.00002 0.00142809 0)
(1.00001 0.00136336 0)
(1.00001 0.00132004 0)
(1 0.00129945 0)
(1 0.00128158 0)
(1 0.00126944 0)
(1 0.00126025 0)
(1.00001 0.00125006 0)
(1.00001 0.00122947 0)
(1.00001 0.0011782 0)
(0.794466 0.0730617 0)
(1.07449 0.121757 0)
(1.03986 0.0709797 0)
(1.01807 0.0498474 0)
(1.01125 0.0384649 0)
(1.0076 0.0297177 0)
(1.00535 0.0234555 0)
(1.00392 0.0189169 0)
(1.00296 0.0155008 0)
(1.00229 0.0128661 0)
(1.0018 0.0107962 0)
(1.00144 0.00914433 0)
(1.00116 0.00780971 0)
(1.00094 0.00672188 0)
(1.00076 0.00583044 0)
(1.00062 0.00509869 0)
(1.0005 0.00449948 0)
(1.00039 0.00401232 0)
(1.00031 0.00362156 0)
(1.00023 0.00331484 0)
(1.00016 0.00308183 0)
(1.00011 0.00291576 0)
(1.00006 0.00281983 0)
(1.00003 0.00275874 0)
(1.00002 0.00273292 0)
(1.00002 0.00272591 0)
(1.00003 0.00272482 0)
(1.00004 0.00271197 0)
(1.00005 0.00266047 0)
(0.667162 0.0573021 0)
(1.08292 0.124922 0)
(1.08428 0.0904956 0)
(1.0462 0.0679011 0)
(1.02896 0.0544358 0)
(1.02015 0.0435303 0)
(1.01458 0.0352825 0)
(1.01088 0.0289631 0)
(1.00832 0.0239988 0)
(1.00649 0.020058 0)
(1.00515 0.0168951 0)
(1.00415 0.0143277 0)
(1.00337 0.0122244 0)
(1.00276 0.0104897 0)
(1.00226 0.00905336 0)
(1.00185 0.0078633 0)
(1.00151 0.00688025 0)
(1.00122 0.00607446 0)
(1.00096 0.00542307 0)
(1.00074 0.00490827 0)
(1.00054 0.00451531 0)
(1.00037 0.00423325 0)
(1.00022 0.00406666 0)
(1.00012 0.00397197 0)
(1.00007 0.00394113 0)
(1.00004 0.00394196 0)
(1.00004 0.00395306 0)
(1.00006 0.00395209 0)
(1.00007 0.00390992 0)
(0.540757 0.0352906 0)
(1.0505 0.110964 0)
(1.11573 0.097268 0)
(1.07594 0.0765851 0)
(1.04904 0.0624874 0)
(1.03506 0.0514512 0)
(1.0262 0.0428556 0)
(1.02002 0.0359113 0)
(1.01559 0.0302146 0)
(1.01234 0.0255405 0)
(1.00991 0.0216846 0)
(1.00805 0.0184828 0)
(1.0066 0.0158107 0)
(1.00544 0.013573 0)
(1.00449 0.0116962 0)
(1.00371 0.0101241 0)
(1.00304 0.00881329 0)
(1.00247 0.00773034 0)
(1.00197 0.00684924 0)
(1.00152 0.00614972 0)
(1.00113 0.00561512 0)
(1.00077 0.0052319 0)
(1.00046 0.00500573 0)
(1.00023 0.00488749 0)
(1.0001 0.004858 0)
(1.00003 0.00487076 0)
(1.00001 0.00489712 0)
(1.00002 0.0049109 0)
(1.00003 0.00487883 0)
(0.443815 0.0186891 0)
(0.99728 0.0920099 0)
(1.12867 0.0959305 0)
(1.10114 0.0798326 0)
(1.06791 0.0658608 0)
(1.04942 0.0552672 0)
(1.0379 0.0469741 0)
(1.02967 0.0400366 0)
(1.02357 0.0341649 0)
(1.01897 0.02921 0)
(1.01544 0.0250133 0)
(1.01269 0.021447 0)
(1.0105 0.0184108 0)
(1.00872 0.0158243 0)
(1.00726 0.0136231 0)
(1.00603 0.0117561 0)
(1.00498 0.010183 0)
(1.00406 0.00887202 0)
(1.00325 0.00779811 0)
(1.00253 0.00694165 0)
(1.00188 0.00628669 0)
(1.00128 0.00581914 0)
(1.00075 0.00554638 0)
(1.00035 0.00541553 0)
(1.0001 0.00539553 0)
(0.999967 0.00542715 0)
(0.999916 0.00547545 0)
(0.999918 0.0055103 0)
(0.999923 0.00549164 0)
(0.378172 0.00812233 0)
(0.939047 0.0719683 0)
(1.12645 0.0885661 0)
(1.12039 0.0790022 0)
(1.08504 0.0663354 0)
(1.06256 0.0564388 0)
(1.04877 0.0486702 0)
(1.03894 0.0420246 0)
(1.03149 0.0362676 0)
(1.02575 0.0312952 0)
(1.02126 0.0269873 0)
(1.01768 0.0232499 0)
(1.01478 0.0200082 0)
(1.01239 0.0172 0)
(1.01039 0.0147744 0)
(1.00869 0.0126903 0)
(1.00722 0.0109147 0)
(1.00592 0.0094211 0)
(1.00476 0.00818871 0)
(1.00371 0.00720117 0)
(1.00275 0.00644545 0)
(1.00187 0.00590909 0)
(1.00107 0.00560226 0)
(1.00046 0.00546988 0)
(1.00007 0.00546868 0)
(0.999846 0.00552764 0)
(0.999751 0.00560607 0)
(0.999733 0.00566968 0)
(0.99972 0.00566956 0)
(0.332879 0.0023525 0)
(0.882592 0.0539378 0)
(1.11331 0.0780761 0)
(1.13326 0.0751502 0)
(1.10028 0.0646923 0)
(1.07467 0.0557068 0)
(1.05879 0.0485841 0)
(1.04764 0.0423949 0)
(1.03912 0.0369154 0)
(1.03244 0.0320745 0)
(1.02712 0.027792 0)
(1.02281 0.0240058 0)
(1.01926 0.0206642 0)
(1.0163 0.0177231 0)
(1.01379 0.015146 0)
(1.01161 0.0129032 0)
(1.0097 0.0109706 0)
(1.008 0.00932932 0)
(1.00646 0.00796465 0)
(1.00505 0.0068654 0)
(1.00374 0.00602326 0)
(1.00252 0.00542927 0)
(1.00141 0.00509763 0)
(1.00055 0.00497244 0)
(0.999982 0.00499813 0)
(0.999648 0.00509237 0)
(0.999493 0.00520907 0)
(0.99944 0.00530962 0)
(0.999397 0.00533441 0)
(0.300525 -0.000176075 0)
(0.83075 0.0396392 0)
(1.09295 0.0671043 0)
(1.13979 0.0696373 0)
(1.11312 0.0617021 0)
(1.08573 0.0537005 0)
(1.06802 0.0472199 0)
(1.05575 0.0415396 0)
(1.04638 0.036414 0)
(1.03894 0.0317848 0)
(1.03292 0.027606 0)
(1.02798 0.0238434 0)
(1.02386 0.0204663 0)
(1.02037 0.0174479 0)
(1.01736 0.0147655 0)
(1.01473 0.012401 0)
(1.01239 0.0103402 0)
(1.01027 0.00857247 0)
(1.00833 0.00709028 0)
(1.00652 0.00588897 0)
(1.00483 0.00496634 0)
(1.00323 0.00431851 0)
(1.00176 0.00396508 0)
(1.0006 0.00385077 0)
(0.999825 0.0039081 0)
(0.999355 0.00404366 0)
(0.999115 0.00420613 0)
(0.999008 0.00435228 0)
(0.998917 0.00441016 0)
(0.277518 -0.000973233 0)
(0.785034 0.0291128 0)
(1.06866 0.0570216 0)
(1.14084 0.0635151 0)
(1.12329 0.0580434 0)
(1.09565 0.0510046 0)
(1.07646 0.0450626 0)
(1.06327 0.0398339 0)
(1.05322 0.0350524 0)
(1.04518 0.0306509 0)
(1.0386 0.0266034 0)
(1.03313 0.0228957 0)
(1.02851 0.0195137 0)
(1.02454 0.016445 0)
(1.02108 0.0136798 0)
(1.01801 0.0112109 0)
(1.01524 0.00903339 0)
(1.0127 0.00714538 0)
(1.01034 0.00554724 0)
(1.00812 0.00424178 0)
(1.00601 0.00323419 0)
(1.004 0.00252688 0)
(1.00212 0.00214553 0)
(1.00062 0.00203874 0)
(0.999589 0.00212761 0)
(0.998949 0.00230636 0)
(0.998597 0.00251846 0)
(0.998405 0.00271769 0)
(0.998242 0.00281804 0)
(0.261073 -0.00102259 0)
(0.745831 0.0216532 0)
(1.04299 0.0482549 0)
(1.13772 0.0573592 0)
(1.13095 0.0541127 0)
(1.1045 0.0479963 0)
(1.08424 0.042478 0)
(1.07024 0.0375952 0)
(1.05967 0.0330937 0)
(1.05116 0.0288871 0)
(1.04413 0.0249568 0)
(1.03823 0.0213 0)
(1.03319 0.0179139 0)
(1.0288 0.0147972 0)
(1.02493 0.0119501 0)
(1.02145 0.00937473 0)
(1.01826 0.00707527 0)
(1.01531 0.00505807 0)
(1.01252 0.00333182 0)
(1.00987 0.001907 0)
(1.00731 0.000796226 0)
(1.00484 9.37133e-06 0)
(1.0025 -0.000419247 0)
(1.0006 -0.000533651 0)
(0.999279 -0.000422364 0)
(0.998427 -0.000204586 0)
(0.997925 4.67514e-05 0)
(0.99762 0.000301923 0)
(0.997351 0.000481957 0)
(0.248869 -0.000810401 0)
(0.712635 0.0164725 0)
(1.01757 0.0408341 0)
(1.1317 0.0514655 0)
(1.13645 0.0501084 0)
(1.11241 0.0448618 0)
(1.0915 0.039681 0)
(1.07682 0.0350409 0)
(1.0658 0.0307393 0)
(1.05694 0.0266722 0)
(1.04956 0.0228205 0)
(1.04331 0.0191867 0)
(1.03791 0.0157752 0)
(1.03316 0.0125922 0)
(1.02892 0.00964562 0)
(1.02505 0.00694511 0)
(1.02148 0.00450263 0)
(1.01811 0.0023323 0)
(1.0149 0.000449473 0)
(1.01179 -0.00112848 0)
(1.00876 -0.00237961 0)
(1.00579 -0.00328324 0)
(1.00294 -0.00379447 0)
(1.0006 -0.00394887 0)
(0.998921 -0.00383927 0)
(0.997808 -0.00359391 0)
(0.997108 -0.00328828 0)
(0.996644 -0.00298661 0)
(0.996229 -0.00279412 0)
(0.239384 -0.000559136 0)
(0.6846 0.0128859 0)
(0.993312 0.0346417 0)
(1.12378 0.0459903 0)
(1.14014 0.0461489 0)
(1.1195 0.0416996 0)
(1.09841 0.0367955 0)
(1.08313 0.0323112 0)
(1.07174 0.0281314 0)
(1.06259 0.0241428 0)
(1.05494 0.0203212 0)
(1.0484 0.0166704 0)
(1.04271 0.0131987 0)
(1.03765 0.00991724 0)
(1.03308 0.00683944 0)
(1.02887 0.00398097 0)
(1.02493 0.00135973 0)
(1.02116 -0.00100539 0)
(1.01753 -0.00309187 0)
(1.01396 -0.0048726 0)
(1.01043 -0.00631644 0)
(1.00692 -0.00739241 0)
(1.00351 -0.00804319 0)
(1.00065 -0.00829021 0)
(0.998562 -0.00822288 0)
(0.997122 -0.00797915 0)
(0.996154 -0.00764087 0)
(0.995456 -0.00728704 0)
(0.994833 -0.00705808 0)
(0.231745 -0.000358209 0)
(0.660884 0.0103558 0)
(0.970675 0.0295011 0)
(1.1147 0.0409999 0)
(1.14235 0.0423157 0)
(1.12585 0.0385754 0)
(1.10504 0.0339032 0)
(1.08931 0.0295047 0)
(1.07758 0.025376 0)
(1.0682 0.0214064 0)
(1.06034 0.0175641 0)
(1.05358 0.0138511 0)
(1.04765 0.0102774 0)
(1.04234 0.00685667 0)
(1.03748 0.00360603 0)
(1.03296 0.000544483 0)
(1.02867 -0.0023069 0)
(1.02454 -0.00492283 0)
(1.02048 -0.0072725 0)
(1.01645 -0.00932082 0)
(1.0124 -0.0110284 0)
(1.00832 -0.0123547 0)
(1.0043 -0.0132302 0)
(1.00087 -0.0136554 0)
(0.998296 -0.0137048 0)
(0.996447 -0.0135231 0)
(0.995123 -0.0131999 0)
(0.9941 -0.0128258 0)
(0.993178 -0.0125671 0)
(0.225439 -0.000225231 0)
(0.640744 0.00850769 0)
(0.949863 0.0252282 0)
(1.10504 0.0365007 0)
(1.14338 0.0386604 0)
(1.13158 0.035537 0)
(1.11149 0.0310633 0)
(1.09544 0.026697 0)
(1.08342 0.0225596 0)
(1.07386 0.0185545 0)
(1.06584 0.0146426 0)
(1.05892 0.0108216 0)
(1.0528 0.00710091 0)
(1.04729 0.00349491 0)
(1.0422 2.12014e-05 0)
(1.03741 -0.00329984 0)
(1.03282 -0.00644297 0)
(1.02834 -0.00937674 0)
(1.02388 -0.0120639 0)
(1.01938 -0.014462 0)
(1.0148 -0.0165244 0)
(1.01013 -0.0182028 0)
(1.00547 -0.019418 0)
(1.00142 -0.020146 0)
(0.9983 -0.0204313 0)
(0.995956 -0.0204163 0)
(0.994166 -0.0201932 0)
(0.992696 -0.0198644 0)
(0.991356 -0.0196164 0)
(0.220139 -0.000150264 0)
(0.623559 0.00710972 0)
(0.930909 0.0216866 0)
(1.09517 0.0324962 0)
(1.14347 0.0352282 0)
(1.13671 0.0326197 0)
(1.11775 0.0283145 0)
(1.10154 0.0239421 0)
(1.08929 0.0197486 0)
(1.07958 0.0156616 0)
(1.07145 0.011636 0)
(1.06442 0.00766409 0)
(1.05817 0.0037522 0)
(1.0525 -8.7153e-05 0)
(1.04723 -0.00383765 0)
(1.04223 -0.00747768 0)
(1.03738 -0.0109785 0)
(1.03258 -0.0143041 0)
(1.02774 -0.0174119 0)
(1.0228 -0.0202526 0)
(1.0177 -0.0227726 0)
(1.01243 -0.0249181 0)
(1.00712 -0.0266066 0)
(1.00247 -0.0277993 0)
(0.99881 -0.0285025 0)
(0.995939 -0.0288424 0)
(0.993597 -0.0288946 0)
(0.99155 -0.0287543 0)
(0.989645 -0.0286075 0)
(0.215992 -0.000102514 0)
(0.609889 0.00610469 0)
(0.915034 0.0189491 0)
(1.08621 0.0292091 0)
(1.14302 0.0322903 0)
(1.14107 0.0300835 0)
(1.12347 0.0259167 0)
(1.10727 0.0215197 0)
(1.09486 0.0172478 0)
(1.08505 0.0130562 0)
(1.07687 0.00889509 0)
(1.06979 0.00475002 0)
(1.06348 0.000622262 0)
(1.05774 -0.00347973 0)
(1.05237 -0.00754209 0)
(1.04723 -0.0115438 0)
(1.0422 -0.0154553 0)
(1.03716 -0.0192391 0)
(1.03202 -0.0228485 0)
(1.02669 -0.0262268 0)
(1.02112 -0.0293107 0)
(1.01531 -0.0320369 0)
(1.00942 -0.0343149 0)
(1.00425 -0.0360961 0)
(1.00015 -0.0373709 0)
(0.996839 -0.038271 0)
(0.993964 -0.0388442 0)
(0.99124 -0.0391309 0)
(0.988556 -0.0392541 0)
(0.212947 -7.58022e-05 0)
(0.599832 0.00541981 0)
(0.902884 0.0169877 0)
(1.07891 0.026747 0)
(1.14235 0.0300306 0)
(1.14448 0.0281175 0)
(1.12821 0.0240549 0)
(1.11213 0.019629 0)
(1.09963 0.0152818 0)
(1.08978 0.0109917 0)
(1.08159 0.00670399 0)
(1.07451 0.00239629 0)
(1.06821 -0.00193545 0)
(1.06246 -0.00628793 0)
(1.05706 -0.0106514 0)
(1.05187 -0.0150078 0)
(1.04675 -0.019331 0)
(1.04157 -0.0235854 0)
(1.03624 -0.0277239 0)
(1.03064 -0.0316856 0)
(1.02472 -0.0353973 0)
(1.01847 -0.0387809 0)
(1.0121 -0.0417171 0)
(1.00654 -0.0441169 0)
(1.00218 -0.045972 0)
(0.998702 -0.047498 0)
(0.995626 -0.0488255 0)
(0.992554 -0.0499809 0)
(0.989359 -0.0508159 0)
(0.210595 -3.36753e-05 0)
(0.59211 0.00495326 0)
(0.893281 0.015566 0)
(1.07283 0.0248896 0)
(1.14154 0.0282921 0)
(1.14716 0.0266042 0)
(1.13215 0.0226325 0)
(1.11625 0.018191 0)
(1.10369 0.0137872 0)
(1.09382 0.00941826 0)
(1.08566 0.0050248 0)
(1.07862 0.000577906 0)
(1.07235 -0.00393202 0)
(1.06664 -0.00850681 0)
(1.06127 -0.0131419 0)
(1.05608 -0.0178249 0)
(1.05094 -0.0225359 0)
(1.04571 -0.0272449 0)
(1.04027 -0.0319095 0)
(1.03451 -0.03647 0)
(1.02834 -0.0408489 0)
(1.02176 -0.0449558 0)
(1.01498 -0.0486283 0)
(1.00906 -0.0516581 0)
(1.00448 -0.0539538 0)
(1.001 -0.0558014 0)
(0.998203 -0.0575733 0)
(0.99577 -0.059639 0)
(0.993099 -0.061462 0)
(0.209099 -4.5135e-05 0)
(0.586784 0.00458999 0)
(0.886435 0.0145545 0)
(1.06842 0.0235818 0)
(1.14099 0.0270563 0)
(1.14929 0.0254922 0)
(1.13531 0.021554 0)
(1.1196 0.0170922 0)
(1.10705 0.0126501 0)
(1.09719 0.00822427 0)
(1.08908 0.00374673 0)
(1.0821 -0.000816021 0)
(1.07591 -0.00547744 0)
(1.07026 -0.0102445 0)
(1.06496 -0.0151186 0)
(1.05984 -0.0200948 0)
(1.05475 -0.0251615 0)
(1.04955 -0.0302977 0)
(1.0441 -0.0354697 0)
(1.0383 -0.0406268 0)
(1.03204 -0.0456982 0)
(1.02532 -0.050603 0)
(1.01837 -0.0551682 0)
(1.01227 -0.0590355 0)
(1.00755 -0.0618967 0)
(1.00402 -0.0638244 0)
(1.00139 -0.064867 0)
(0.999644 -0.0657306 0)
(0.999682 -0.0702157 0)
(1.00001 0.00119114 0)
(1.00001 0.00119636 0)
(1.00001 0.00119661 0)
(1.00001 0.00119761 1.03616e-21)
(1.00001 0.00120047 5.16233e-21)
(1.00001 0.00120501 -9.285e-21)
(1 0.00121105 5.1544e-21)
(1 0.0012185 -4.10102e-21)
(1 0.00122717 5.26848e-22)
(1 0.0012371 4.09609e-21)
(1 0.00124812 0)
(0.999998 0.00126018 -4.56974e-21)
(0.999997 0.0012732 5.22042e-22)
(0.999996 0.00128703 4.05388e-21)
(0.999995 0.00130166 0)
(0.999994 0.00131691 0)
(0.999993 0.00133273 -4.00334e-21)
(0.999992 0.00134902 4.00586e-21)
(0.999991 0.00136559 0)
(0.99999 0.00138243 -1.98199e-21)
(0.999989 0.00139939 2.10657e-21)
(0.999988 0.00141633 1.84456e-21)
(0.999988 0.0014332 -2.94866e-21)
(0.999987 0.00144983 9.49854e-22)
(0.999987 0.00146614 3.03913e-23)
(0.999986 0.00148203 -6.07323e-23)
(0.999986 0.00149737 8.43571e-22)
(0.999986 0.00151205 -9.64314e-22)
(0.999985 0.00152601 0)
(0.999985 0.00153911 0)
(0.999985 0.00155132 -2.37326e-22)
(0.999986 0.00156244 -2.36162e-22)
(0.999986 0.00157237 -3.9852e-21)
(0.999986 0.0015812 3.28003e-21)
(0.999987 0.00158878 -4.1761e-21)
(0.999987 0.00159508 4.17038e-21)
(0.999988 0.00160005 -3.21105e-21)
(0.999989 0.00160359 3.2101e-21)
(0.99999 0.00160573 4.54859e-22)
(0.999991 0.00160634 4.52293e-22)
(0.999992 0.00160543 -4.497e-22)
(0.999994 0.00160295 0)
(0.999995 0.00159882 0)
(0.999997 0.00159313 0)
(0.999999 0.00158586 0)
(1 0.00157688 0)
(1 0.0015661 1.73234e-21)
(1 0.00155311 -1.72935e-21)
(1.00001 0.00153381 0)
(1.00005 0.00268055 0)
(1.00004 0.00269262 2.09316e-21)
(1.00002 0.00270165 -2.08368e-21)
(1.00001 0.00271416 -1.03911e-21)
(0.999995 0.00273131 -1.03904e-21)
(0.999982 0.00275251 -3.1036e-21)
(0.99997 0.00277741 5.18153e-21)
(0.999959 0.00280604 0)
(0.999948 0.00283781 -5.14708e-22)
(0.999938 0.00287286 -1.02782e-21)
(0.999928 0.00291072 0)
(0.999919 0.0029512 5.10744e-22)
(0.99991 0.00299421 -4.57746e-21)
(0.999902 0.00303922 4.07171e-21)
(0.999895 0.00308623 0)
(0.999888 0.00313485 1.01097e-21)
(0.999882 0.00318477 0)
(0.999877 0.00323594 0)
(0.999873 0.00328781 0)
(0.999869 0.00334025 -1.99005e-21)
(0.999866 0.00339305 1.86664e-21)
(0.999864 0.00344577 -1.2398e-22)
(0.999863 0.00349824 0)
(0.999863 0.00355021 -4.59426e-22)
(0.999863 0.00360132 4.82523e-22)
(0.999864 0.00365135 9.13779e-23)
(0.999866 0.00370007 1.21236e-22)
(0.999869 0.00374717 0)
(0.999872 0.0037924 -1.919e-21)
(0.999877 0.00383555 1.91857e-21)
(0.999882 0.00387637 -3.56407e-21)
(0.999888 0.0039146 7.82157e-21)
(0.999895 0.00395005 -3.54631e-21)
(0.999902 0.00398251 4.69231e-22)
(0.99991 0.00401171 4.66854e-22)
(0.999919 0.00403755 4.64798e-22)
(0.999929 0.00405974 -4.61919e-22)
(0.999939 0.00407811 4.12685e-21)
(0.99995 0.00409259 -3.20668e-21)
(0.999962 0.00410282 -1.36316e-21)
(0.999974 0.00410883 4.96116e-21)
(0.999987 0.00411035 -3.60157e-21)
(1 0.00410721 -1.78601e-21)
(1.00002 0.00409944 3.54295e-21)
(1.00003 0.00408665 -7.0608e-21)
(1.00005 0.00406904 3.5169e-21)
(1.00006 0.00404635 1.73987e-21)
(1.00008 0.00401795 -4.86129e-24)
(1.00009 0.00397921 0)
(1.00005 0.00393068 3.15112e-21)
(1.00002 0.00395067 -1.05208e-21)
(0.999981 0.00397304 -4.18717e-21)
(0.999943 0.00400141 2.08521e-21)
(0.999907 0.00403699 -2.08422e-21)
(0.999872 0.00407898 0)
(0.999839 0.00412696 -2.07059e-21)
(0.999808 0.00418114 -6.19582e-21)
(0.999778 0.0042403 6.19566e-21)
(0.999751 0.00430488 1.02735e-21)
(0.999725 0.00437396 0)
(0.999702 0.00444726 -6.1328e-21)
(0.99968 0.00452476 1.45647e-23)
(0.99966 0.00460538 4.07533e-21)
(0.999643 0.00468929 0)
(0.999628 0.00477576 -1.00989e-21)
(0.999615 0.00486427 -1.00927e-21)
(0.999604 0.0049549 0)
(0.999595 0.00504655 -1.00248e-21)
(0.999588 0.00513908 -1.99093e-21)
(0.999584 0.00523224 1.99153e-21)
(0.999582 0.0053252 -2.48479e-22)
(0.999582 0.00541773 -2.46936e-22)
(0.999585 0.00550947 0)
(0.99959 0.00559977 3.81477e-23)
(0.999597 0.00568829 -2.13304e-22)
(0.999606 0.00577474 0)
(0.999617 0.0058585 0)
(0.999631 0.0059392 -1.91852e-21)
(0.999646 0.00601658 1.91816e-21)
(0.999664 0.00609011 -3.80072e-21)
(0.999684 0.00615942 3.79946e-21)
(0.999706 0.00622424 0)
(0.99973 0.0062841 0)
(0.999756 0.00633868 0)
(0.999784 0.00638775 -9.2806e-22)
(0.999813 0.00643079 -1.84742e-21)
(0.999844 0.00646758 0)
(0.999878 0.00649794 -9.13011e-22)
(0.999912 0.00652127 -8.99262e-22)
(0.999949 0.00653764 2.71709e-21)
(0.999987 0.00654653 0)
(1.00003 0.00654766 3.56193e-21)
(1.00007 0.00654106 -5.32967e-21)
(1.00011 0.00652597 0)
(1.00016 0.00650276 0)
(1.0002 0.00647073 0)
(1.00025 0.00642919 -1.73275e-21)
(1.0003 0.00637466 -1.7195e-21)
(0.999994 0.00490082 -2.10492e-21)
(0.999929 0.00493388 4.21247e-21)
(0.999858 0.00497575 4.2022e-21)
(0.999786 0.00502583 6.27501e-21)
(0.999716 0.00508575 -2.09708e-21)
(0.999649 0.00515459 -4.15864e-21)
(0.999585 0.00523188 8.31216e-21)
(0.999525 0.00531808 -5.41086e-24)
(0.999469 0.00541118 -2.06454e-21)
(0.999417 0.00551207 2.06635e-21)
(0.999368 0.00561926 0)
(0.999324 0.00573239 2.04769e-21)
(0.999284 0.00585157 -2.03269e-21)
(0.999248 0.005975 8.15544e-21)
(0.999217 0.00610317 -8.12983e-21)
(0.999189 0.0062349 6.09028e-21)
(0.999166 0.0063694 -1.01601e-21)
(0.999148 0.00650707 1.00855e-21)
(0.999133 0.006646 1.00128e-21)
(0.999124 0.00678615 -1.00144e-21)
(0.999118 0.00692726 0)
(0.999117 0.00706795 -1.48419e-21)
(0.999121 0.00720804 1.24056e-21)
(0.999129 0.00734705 9.8583e-22)
(0.999141 0.0074839 4.58829e-23)
(0.999158 0.00761825 9.12186e-23)
(0.999179 0.0077497 1.45532e-21)
(0.999204 0.00787726 -9.68814e-22)
(0.999234 0.0080005 1.91985e-21)
(0.999267 0.00811909 -1.91954e-21)
(0.999305 0.00823216 0)
(0.999347 0.00833929 4.73255e-21)
(0.999393 0.00844009 -3.78195e-21)
(0.999443 0.00853383 3.74384e-21)
(0.999496 0.00862015 -3.74248e-21)
(0.999553 0.00869868 0)
(0.999614 0.00876867 3.68118e-21)
(0.999678 0.00882988 -1.84424e-21)
(0.999746 0.00888196 0)
(0.999817 0.00892416 3.62167e-21)
(0.999891 0.00895652 -3.6177e-21)
(0.999968 0.00897832 1.79334e-21)
(1.00005 0.00898918 1.78361e-21)
(1.00013 0.00898916 5.31502e-21)
(1.00022 0.00897714 6.68751e-24)
(1.00031 0.00895366 3.50995e-21)
(1.0004 0.00891756 1.73553e-21)
(1.0005 0.00886809 1.72126e-21)
(1.0006 0.00880312 1.72016e-21)
(0.999856 0.00551784 0)
(0.999753 0.00557138 -4.21696e-21)
(0.999638 0.00564098 -4.2045e-21)
(0.999521 0.00572096 0)
(0.999406 0.00581359 -4.18717e-21)
(0.999296 0.00591779 1.31349e-23)
(0.999192 0.00603307 8.36688e-21)
(0.999094 0.00616024 -2.09531e-21)
(0.999002 0.00629633 -1.35939e-23)
(0.998917 0.00644287 -6.2136e-21)
(0.998838 0.00659761 0)
(0.998766 0.00676021 -6.1767e-21)
(0.998701 0.00693095 2.0645e-21)
(0.998644 0.0071071 0)
(0.998593 0.00728966 -2.0463e-21)
(0.998549 0.00747684 1.06898e-23)
(0.998513 0.00766763 -2.02373e-21)
(0.998484 0.00786279 7.0704e-21)
(0.998463 0.00805939 -1.59706e-23)
(0.998448 0.00825764 -1.0168e-21)
(0.998442 0.00845725 -9.99837e-22)
(0.998442 0.00865615 1.98497e-21)
(0.99845 0.00885429 -1.98526e-21)
(0.998465 0.00905104 -2.44856e-22)
(0.998488 0.00924485 5.07398e-22)
(0.998518 0.00943536 -2.73324e-22)
(0.998555 0.0096221 9.72831e-22)
(0.998599 0.00980361 -9.70747e-22)
(0.99865 0.00997945 9.65752e-22)
(0.998708 0.0101492 1.91344e-21)
(0.998773 0.0103116 -5.71985e-21)
(0.998845 0.0104662 -9.29166e-22)
(0.998923 0.0106125 5.67718e-21)
(0.999008 0.0107494 1.88034e-21)
(0.999099 0.0108766 -3.72604e-21)
(0.999195 0.0109936 3.72381e-21)
(0.999298 0.0110994 9.9676e-24)
(0.999407 0.0111936 5.50903e-21)
(0.999522 0.0112759 -3.67051e-21)
(0.999642 0.0113453 -9.08175e-21)
(0.999767 0.0114019 3.60672e-21)
(0.999898 0.0114446 1.79143e-21)
(1.00003 0.0114732 7.11519e-21)
(1.00018 0.0114875 -3.55208e-21)
(1.00032 0.0114863 -1.13595e-23)
(1.00047 0.0114703 -1.25179e-23)
(1.00063 0.0114379 0)
(1.00079 0.0113882 -3.45551e-21)
(1.00097 0.0113211 -3.42406e-21)
(0.999619 0.00570437 0)
(0.999468 0.00578797 -6.38424e-21)
(0.999298 0.00589565 6.37164e-21)
(0.999125 0.00601589 0)
(0.998953 0.00615188 0)
(0.998788 0.00630234 -4.20213e-21)
(0.998632 0.0064668 -3.33414e-24)
(0.998484 0.00664652 -4.19837e-21)
(0.998345 0.00683735 -8.66987e-24)
(0.998217 0.00704169 0)
(0.998099 0.00725636 0)
(0.997991 0.00748105 2.06481e-21)
(0.997894 0.00771628 0)
(0.997807 0.00795822 0)
(0.997731 0.00820851 -2.04963e-21)
(0.997666 0.00846461 4.1097e-21)
(0.997612 0.0087253 2.04491e-21)
(0.997569 0.00899175 0)
(0.997538 0.00925985 2.00646e-21)
(0.997517 0.00953012 -5.04748e-21)
(0.997508 0.00980222 -2.00666e-21)
(0.99751 0.0100733 -1.99331e-21)
(0.997523 0.0103435 1.9935e-21)
(0.997548 0.010612 1.42527e-24)
(0.997583 0.0108766 1.54475e-23)
(0.99763 0.0111371 2.44651e-22)
(0.997687 0.0113928 -4.89289e-22)
(0.997756 0.0116419 0)
(0.997835 0.0118837 -9.64432e-22)
(0.997924 0.0121179 0)
(0.998024 0.0123427 0)
(0.998134 0.0125576 -1.90587e-21)
(0.998253 0.012762 -7.55656e-21)
(0.998383 0.0129546 2.58287e-23)
(0.998522 0.0131349 1.87736e-21)
(0.99867 0.0133022 0)
(0.998827 0.0134554 -1.84587e-21)
(0.998993 0.0135941 -3.67624e-21)
(0.999168 0.0137178 3.64778e-21)
(0.999351 0.0138252 7.25556e-21)
(0.999542 0.0139165 -7.20876e-21)
(0.999741 0.0139906 -7.36486e-25)
(0.999948 0.0140469 -3.55995e-21)
(1.00016 0.0140856 -3.89145e-24)
(1.00038 0.0141049 0)
(1.00061 0.0141059 -3.49159e-21)
(1.00085 0.0140863 -1.72763e-21)
(1.0011 0.0140456 1.72636e-21)
(1.00136 0.0139863 3.42504e-21)
(0.99925 0.00538402 0)
(0.99904 0.0055097 4.26871e-21)
(0.998803 0.00566794 -1.28255e-20)
(0.998559 0.00584106 0)
(0.998317 0.00603356 0)
(0.998083 0.00624384 -8.49301e-21)
(0.99786 0.00647148 8.45413e-21)
(0.997649 0.00671827 -4.23697e-21)
(0.997452 0.00697868 -8.69597e-24)
(0.997269 0.00725619 4.20267e-21)
(0.9971 0.00754649 0)
(0.996946 0.00784938 0)
(0.996806 0.00816561 4.17724e-21)
(0.996682 0.00849007 0)
(0.996573 0.0088252 0)
(0.99648 0.00916755 -4.11825e-21)
(0.996403 0.00951565 1.68032e-23)
(0.996342 0.00987119 0)
(0.996296 0.0102286 2.02764e-21)
(0.996267 0.010589 5.06746e-21)
(0.996254 0.0109517 -2.03001e-21)
(0.996257 0.011313 0)
(0.996276 0.0116734 -9.97647e-22)
(0.996311 0.0120317 1.24604e-21)
(0.996362 0.0123853 -5.42928e-22)
(0.996429 0.0127337 -2.47262e-22)
(0.996512 0.0130763 4.86053e-22)
(0.99661 0.0134105 -9.77818e-22)
(0.996723 0.0137358 0)
(0.996852 0.0140516 -3.85911e-21)
(0.996995 0.0143557 5.74947e-21)
(0.997153 0.0146476 1.88203e-21)
(0.997325 0.0149264 -9.99633e-24)
(0.99751 0.0151905 1.87647e-21)
(0.99771 0.0154394 -1.88677e-21)
(0.997922 0.0156722 -3.71134e-21)
(0.998148 0.0158876 7.39661e-21)
(0.998385 0.016085 -3.6785e-21)
(0.998635 0.0162639 7.31417e-21)
(0.998897 0.0164227 2.96671e-24)
(0.99917 0.0165618 7.20492e-21)
(0.999454 0.0166798 -3.57775e-21)
(0.999748 0.0167759 0)
(1.00005 0.0168506 -4.60327e-24)
(1.00037 0.0169015 7.00369e-21)
(1.00069 0.0169302 0)
(1.00103 0.0169339 0)
(1.00138 0.0169122 5.99502e-21)
(1.00176 0.0168716 8.54493e-22)
(0.998709 0.00448357 1.08122e-21)
(0.998426 0.00466592 7.6006e-21)
(0.998108 0.00488869 8.58232e-21)
(0.997777 0.00512891 -8.64504e-21)
(0.997448 0.00539318 0)
(0.997129 0.00567932 -1.22544e-23)
(0.996823 0.00598695 -4.31011e-21)
(0.996534 0.0063184 -4.29292e-21)
(0.996262 0.00666653 1.27692e-20)
(0.996009 0.00703614 -4.24183e-21)
(0.995776 0.00742151 0)
(0.995563 0.00782261 8.43816e-21)
(0.995369 0.00824046 -8.37996e-21)
(0.995197 0.00866842 3.04348e-23)
(0.995046 0.0091099 8.3349e-21)
(0.994916 0.00956037 -2.09338e-21)
(0.994809 0.0100181 -2.02879e-21)
(0.994723 0.0104853 4.12771e-21)
(0.994658 0.0109548 0)
(0.994617 0.0114281 -2.03377e-21)
(0.994597 0.0119045 2.03386e-21)
(0.9946 0.0123793 2.01881e-21)
(0.994625 0.0128532 -2.01875e-21)
(0.994672 0.0133246 2.51613e-22)
(0.994741 0.0137901 3.10319e-23)
(0.994833 0.0142495 7.41338e-22)
(0.994946 0.0147017 -2.99901e-24)
(0.99508 0.0151437 0)
(0.995236 0.0155748 0)
(0.995412 0.0159942 1.55874e-25)
(0.995609 0.0163991 -1.90884e-21)
(0.995826 0.0167891 3.83975e-21)
(0.996063 0.017163 -3.80502e-21)
(0.996319 0.0175187 3.76696e-21)
(0.996593 0.0178557 -7.52956e-21)
(0.996885 0.0181729 1.86612e-23)
(0.997195 0.0184687 3.71532e-21)
(0.997521 0.0187424 3.66688e-21)
(0.997864 0.0189934 -7.32807e-21)
(0.998223 0.0192198 -7.26456e-21)
(0.998597 0.0194222 -3.61272e-21)
(0.998985 0.0195988 -3.58574e-21)
(0.999388 0.0197487 0)
(0.999804 0.0198727 -3.52332e-21)
(1.00023 0.019968 -1.54289e-23)
(1.00068 0.0200364 6.92788e-21)
(1.00114 0.0200745 -8.58867e-21)
(1.00162 0.0200824 1.68604e-21)
(1.00212 0.0200722 0)
(0.997957 0.00292694 0)
(0.997585 0.00318256 -8.69958e-21)
(0.997166 0.00348514 0)
(0.996729 0.00380902 8.65886e-21)
(0.996293 0.00416312 4.33412e-21)
(0.995867 0.00454397 -8.65833e-21)
(0.995458 0.00495131 1.29229e-20)
(0.995069 0.00538827 4.28414e-21)
(0.994704 0.00584591 -4.27482e-21)
(0.994363 0.00633051 0)
(0.994047 0.00683468 4.2641e-21)
(0.993759 0.0073586 -8.50065e-21)
(0.993497 0.00790346 4.26907e-21)
(0.993262 0.00846096 -4.20604e-21)
(0.993056 0.00903556 3.46972e-23)
(0.992879 0.00962147 4.20406e-21)
(0.99273 0.0102166 -8.3635e-21)
(0.992611 0.0108237 0)
(0.992521 0.011434 4.13337e-21)
(0.992462 0.0120493 -4.1333e-21)
(0.992432 0.0126688 -1.0208e-21)
(0.992433 0.0132866 0)
(0.992463 0.0139034 1.0211e-21)
(0.992524 0.0145175 2.52282e-22)
(0.992614 0.0151246 -5.35128e-22)
(0.992735 0.0157244 7.48795e-22)
(0.992884 0.0163154 4.9204e-22)
(0.993063 0.0168941 -9.89633e-22)
(0.99327 0.0174595 0)
(0.993506 0.0180103 -1.94253e-21)
(0.993769 0.0185436 3.88459e-21)
(0.994059 0.0190584 0)
(0.994376 0.0195533 1.90469e-21)
(0.994719 0.0200258 0)
(0.995086 0.0204752 3.75811e-21)
(0.995477 0.0209003 -7.47704e-21)
(0.995892 0.0212988 3.69664e-21)
(0.996328 0.0216702 -2.64463e-23)
(0.996787 0.0220136 3.62417e-21)
(0.997265 0.0223267 -3.64048e-21)
(0.997764 0.0226105 3.59772e-21)
(0.998281 0.0228626 7.13736e-21)
(0.998815 0.0230821 0)
(0.999368 0.0232702 0)
(0.999937 0.0234233 -6.98123e-21)
(1.00052 0.0235439 -1.3825e-20)
(1.00113 0.0236278 1.37115e-20)
(1.00176 0.0236758 -7.66664e-21)
(1.00243 0.0237074 7.57301e-21)
(0.99695 0.000653135 0)
(0.996455 0.000987247 8.90726e-21)
(0.995908 0.00137518 8.88112e-21)
(0.995354 0.00179703 1.32754e-20)
(0.994786 0.0022584 -1.32531e-20)
(0.994227 0.00275557 -4.38223e-21)
(0.993688 0.00328658 1.32015e-20)
(0.993174 0.00385479 -4.35856e-21)
(0.99269 0.0044488 4.36106e-21)
(0.992237 0.00507646 0)
(0.991816 0.00572863 8.71769e-21)
(0.991431 0.0064057 0)
(0.991079 0.00710905 -4.27062e-21)
(0.990764 0.00782848 -4.31436e-21)
(0.990486 0.00856962 5.72477e-23)
(0.990245 0.00932524 0)
(0.990043 0.0100929 4.24441e-21)
(0.989879 0.0108757 8.4594e-21)
(0.989754 0.0116631 0)
(0.98967 0.0124574 2.08008e-21)
(0.989624 0.0132573 -2.0794e-21)
(0.989619 0.0140557 -2.05768e-21)
(0.989654 0.0148536 2.06937e-21)
(0.989728 0.0156483 -4.62434e-24)
(0.989843 0.0164351 -5.08419e-22)
(0.989998 0.0172131 -2.23501e-22)
(0.990192 0.0179805 -5.02076e-22)
(0.990425 0.018733 9.99591e-22)
(0.990696 0.0194693 0)
(0.991005 0.0201875 1.95496e-21)
(0.991351 0.0208842 -3.89439e-21)
(0.991733 0.0215579 0)
(0.99215 0.0222068 0)
(0.992601 0.022828 3.79334e-21)
(0.993085 0.0234201 -7.55845e-21)
(0.9936 0.023982 3.76964e-21)
(0.994146 0.0245109 3.7323e-21)
(0.994721 0.0250057 0)
(0.995323 0.0254658 1.09632e-20)
(0.995951 0.0258883 -7.25472e-21)
(0.996604 0.0262743 -3.58274e-21)
(0.997281 0.026621 -3.26546e-24)
(0.99798 0.0269276 -7.0654e-21)
(0.9987 0.0271954 -6.99482e-21)
(0.999441 0.0274203 -6.93521e-21)
(1.0002 0.0276056 2.85445e-23)
(1.00099 0.0277458 -3.47853e-23)
(1.00181 0.027843 0)
(1.00266 0.0279268 -1.34014e-20)
(0.995676 -0.0025733 0)
(0.995021 -0.0020935 2.35644e-21)
(0.994305 -0.00150087 -1.11396e-20)
(0.993567 -0.000938996 -8.8923e-21)
(0.992829 -0.000407546 8.87013e-21)
(0.992104 0.00021467 4.5263e-21)
(0.991406 0.000895163 -4.38202e-21)
(0.990743 0.00162424 0)
(0.99011 0.00238642 0)
(0.989514 0.00319116 8.88548e-21)
(0.988958 0.00402721 -8.72645e-21)
(0.988447 0.00489506 4.37336e-21)
(0.98798 0.005796 -4.36972e-21)
(0.987559 0.00671784 4.36028e-21)
(0.987186 0.00766741 4.35891e-21)
(0.986861 0.0086359 -4.31866e-21)
(0.986586 0.00962032 -4.26143e-21)
(0.986362 0.0106243 -4.23943e-21)
(0.986188 0.0116353 4.23764e-21)
(0.986067 0.0126561 -4.23657e-21)
(0.985997 0.0136845 0)
(0.985981 0.0147123 2.10469e-21)
(0.986018 0.0157403 -2.06672e-21)
(0.986108 0.0167651 1.54737e-21)
(0.986251 0.0177811 0)
(0.986447 0.0187867 1.01852e-21)
(0.986695 0.0197795 0)
(0.986995 0.0207543 -9.98416e-22)
(0.987347 0.021709 1.88846e-23)
(0.987748 0.0226413 1.46945e-23)
(0.988198 0.0235467 3.94058e-21)
(0.988697 0.0244232 0)
(0.989241 0.0252685 0)
(0.989831 0.0260787 0)
(0.990463 0.0268519 0)
(0.991137 0.0275869 -7.51772e-21)
(0.99185 0.02828 3.74346e-21)
(0.992599 0.0289297 0)
(0.993384 0.0295355 -3.66755e-21)