/*--------------------------------*- C++ -*----------------------------------*\
| =========                 |                                                 |
| \\      /  F ield         | OpenFOAM: The Open Source CFD Toolbox           |
|  \\    /   O peration     | Version:  2312                                  |
|   \\  /    A nd           | Website:  www.openfoam.com                      |
|    \\/     M anipulation  |                                                 |
\*---------------------------------------------------------------------------*/
FoamFile
{
    version     2.0;
    format      ascii;
    arch        "LSB;label=32;scalar=64";
    class       volScalarField;
    location    "300";
    object      k;
}
// * * * * * * * * * * * * * * * * * * * * * * * * * * * * * * * * * * * * * //

dimensions      [0 2 -2 0 0 0 0];

internalField   nonuniform List<scalar> 
10720
(
0.0326216
0.0353106
0.0378619
0.0432066
0.0498647
0.0579849
0.068343
0.0815547
0.0993638
0.124469
0.161522
0.220072
0.316081
0.48229
0.793245
1.45088
2.74405
5.902
11.5166
18.0111
26.0543
40.5948
72.1512
146.18
272.785
395.424
815.4
1354.68
970.762
425.149
140.076
21.0795
3.8835
0.532327
1e-15
1e-15
1e-15
1e-15
0.49668
0.0153963
0.0139554
0.0273696
0.0337088
0.0251882
0.0211986
0.0150715
0.0140293
0.0150514
0.0187567
0.0251008
0.0354606
0.0513785
0.0788505
0.11745
0.202383
0.287106
0.688054
0.983386
1.22348
1.52793
2.34524
3.33295
4.70569
6.28328
7.98591
7.16359
4.27918
1.71492
0.439196
0.0426298
0.00256875
0.000678946
0.000273391
0.000103195
3.57876e-05
1e-15
1.18289
91.1639
0.00915812
0.00955189
0.010805
0.0113077
0.0115688
0.0117139
0.0117752
0.0117504
0.0116942
0.0116291
0.0115786
0.0115244
0.0126628
0.0167393
0.027366
0.0558554
0.123904
0.316641
0.826688
1.90363
3.72565
6.49537
10.9588
16.2175
51.8554
90.2414
278.543
579.141
499.346
307.538
148.1
54.9075
15.338
2.36886
0.0457941
1e-15
1e-15
0.00370302
0.275082
0.0168093
0.0157882
0.00715266
0.00479838
0.0037989
0.00467618
0.0051038
0.00651414
0.00616521
0.00580762
0.00536458
0.00478265
0.00392252
0.00282126
0.000326012
0.03709
0.053981
0.0117855
0.186872
0.23916
0.0476539
0.478219
0.0805204
0.12232
1.33962
0.0441832
0.0499296
0.0514647
0.0293979
0.0235184
0.0141894
0.00694831
0.0030479
0.00121793
0.000456493
0.000157292
2.57988e-06
0.252376
18.5056
0.0199469
0.0176123
0.0171733
0.016641
0.0162611
0.0159508
0.015747
0.0156215
0.0155927
0.0156269
0.0157282
0.0158932
0.0162133
0.0170256
0.0184829
0.0113292
0.023609
0.0583294
0.153885
0.363022
0.726891
1.29443
2.22803
3.67279
6.88618
13.9122
90.5057
221.144
212.53
163.202
98.6883
48.3906
17.4881
3.69586
0.298796
0.0408444
1e-15
0.0227695
1.60962
0.0102175
0.000162462
0.00175025
0.000988236
0.00801322
0.0123897
0.0137002
0.0140983
0.0142797
0.0143149
0.0143572
0.0143512
0.0142924
0.0142408
0.0142319
0.0136279
0.0132274
0.0103859
0.011121
0.00866779
0.00269983
0.00496319
1.69489e-05
0.028198
0.00329452
0.00845899
0.00204804
0.00100551
0.00190572
0.00268021
0.00292595
0.00276495
0.00250017
0.00224986
0.00197288
0.00186561
3.21386e-05
0.083141
5.80114
0.0027248
0.00457175
0.0038851
0.00346099
0.00312291
0.0028675
0.00265949
0.00252517
0.00250507
0.00251431
0.0024937
0.0026864
0.00308076
0.00341178
0.0037534
0.00427286
0.00491582
0.00514348
0.000571755
1e-15
1e-15
1e-15
1e-15
1e-15
1.43885
0.000355911
0.000226958
0.000824618
0.00146167
0.00378952
0.0240299
0.481261
2.67923
2.38458
0.996741
0.180625
0.0438612
0.0340322
2.28975
0.00180437
0.00211694
0.00728931
0.0120372
0.012326
0.010468
0.00854876
0.00878575
0.00905175
0.00933744
0.00970949
0.010138
0.0106117
0.0111504
0.0117109
0.0122535
0.0126948
0.013316
0.0139453
0.0143122
0.0145286
0.0147666
0.0148972
0.0149159
0.0146616
0.0144169
0.0141075
0.0139189
0.0136589
0.0133853
0.0130619
0.0126016
0.01199
0.0113514
0.0103973
0.00997115
0.000399488
0.0477654
3.17198
0.00161118
0.00132331
0.00136401
0.00134099
0.00136665
0.00140577
2.48543e-05
0.000171177
0.00031426
0.000453531
0.000579677
0.000682107
0.000794013
0.000906368
0.0010383
0.00119445
0.00130953
0.00132097
0.00112874
0.00145039
0.0011722
0.000319165
1e-15
1e-15
1e-15
7.49817e-05
4.85879e-05
0.000179186
0.000322028
0.000845624
0.00542591
0.109857
0.617743
8.83717e-06
0.385812
0.336172
0.179163
0.042659
2.53519
0.00370458
0.0106098
0.0121116
0.00860293
0.00440114
0.00135634
0.000549249
0.000638424
0.000766143
0.0009559
0.0012505
0.00162707
0.00206218
0.00258807
0.00323475
0.00390961
0.00451243
0.00511167
0.00555367
0.00578651
0.00589977
0.00597156
0.00600265
0.00599903
0.00597574
0.00593089
0.00586604
0.00579308
0.00571817
0.00564969
0.00562548
0.0057065
0.00582752
0.00605775
0.00611059
0.00756784
0.000967082
0.0308903
1.95189
0.00737258
0.00747324
0.00769705
0.00790946
0.00809365
0.0082634
0.00840163
0.00851772
0.0086194
0.00870655
0.00878122
0.00884491
0.00890115
0.00894965
0.00899323
0.00903035
0.00946477
0.00907565
0.0081342
0.00765033
0.00639757
0.00170723
0.00162667
0.00103475
1e-15
1e-15
1e-15
1e-15
1e-15
1e-15
1e-15
1e-15
1e-15
2.05089e-06
2.00282e-07
2.70168e-06
1.6586e-05
0.000171813
0.0104594
0.0115726
0.00943684
0.00374349
0.00154418
0.000681773
0.000475241
0.000393742
0.000404823
0.000436052
0.000470277
0.000513435
0.000568305
0.000635559
0.000720207
0.000829132
0.000973977
0.00107168
0.00115864
0.00126493
0.00133459
0.00138164
0.00141926
0.00144741
0.00146689
0.0014808
0.00148886
0.00149155
0.00149132
0.00148938
0.0014878
0.00149168
4.55001e-06
0.000209695
0.000545427
0.000828486
0.00202041
0.000376888
0.0155339
0.935108
0.0104944
0.00914658
0.00865837
0.00833083
0.00804616
0.00781643
0.00765912
0.00755944
0.00751097
0.00750703
0.00754071
0.00761147
0.00771848
0.00785971
0.0080361
0.00825962
0.00843655
0.00886456
0.00941141
0.00943342
0.00921536
0.0090244
0.00808361
0.00538722
0.00183645
1.94118e-06
1e-15
1e-15
1e-15
1e-15
1e-15
1e-15
1e-15
1e-15
4.65652e-08
6.33526e-07
3.91998e-06
1e-15
0.00250635
0.00561437
0.000626519
0.000712978
0.000627413
0.000906384
0.00218877
0.0023167
0.00228578
0.00235406
0.00236374
0.00233253
0.00227871
0.00221286
0.00214071
0.00206482
0.00214203
0.00195163
0.00166888
0.00164339
0.00160319
0.00155391
0.00149801
0.00143798
0.00137905
0.00132691
0.00127974
0.00123685
0.00119827
0.00116323
0.00113238
0.00108822
0.000988784
0.00087395
0.000793934
0.000690274
0.00074851
0.000477464
0.00494742
0.283105
0.00215277
0.00270077
0.00230457
0.00208002
0.00189027
0.00171933
0.00159664
0.00152786
0.00149996
0.00150754
0.00155276
0.00163926
0.00176463
0.00193427
0.00215717
0.00244754
0.00276304
0.00320558
0.00405849
0.00508501
0.00596216
0.0066459
0.00721802
0.00723965
0.00799085
9.85355e-06
4.77241e-07
1e-15
1e-15
1e-15
1e-15
1e-15
1e-15
1e-15
1e-15
1e-15
1e-15
1e-15
1e-15
0.000924829
0.000659929
0.00129323
0.00405706
0.00579217
0.00625199
0.00630867
0.0063223
0.00639402
0.00645246
0.00648296
0.00650313
0.00652316
0.00654504
0.00656786
0.00656616
0.00659195
0.00658731
0.00655189
0.00649367
0.00641988
0.00633434
0.00623941
0.00613731
0.0060296
0.00591664
0.00579888
0.00567643
0.00554883
0.00541609
0.00527567
0.00509172
0.00481518
0.00446284
0.00403215
0.00358609
0.00322149
0.000679812
0.0335915
0.000456853
0.000526748
0.000534198
0.000523607
0.000543909
0.000568331
0.000581199
0.000603593
0.000629173
0.000654849
0.000687745
0.000726186
0.000770353
0.00082372
0.000885611
0.000961775
0.00104603
0.00114946
0.00138235
0.000627058
0.00161162
0.00260671
0.00367549
0.0041683
0.00678172
1.95424e-05
9.83421e-07
1e-15
1e-15
1e-15
1e-15
1e-15
1e-15
1e-15
1e-15
1e-15
1e-15
1e-15
1e-15
0.00108317
0.00369115
0.00572274
0.00564292
0.00472679
0.00438547
0.00444074
0.00450625
0.00461664
0.00475012
0.00487737
0.00501549
0.00517087
0.00534258
0.00551447
0.00563061
0.00568039
0.00568392
0.00565284
0.00559722
0.00552392
0.00543722
0.00534015
0.00523771
0.00513273
0.00502596
0.00491881
0.00481162
0.00470324
0.00459416
0.00449042
0.00440995
0.00432624
0.004209
0.00406009
0.00378724
0.00373682
0.000512735
0.00798173
0.00175598
0.00169234
0.00185118
0.00206707
0.00231725
0.00256755
0.0027704
0.00294014
0.00308408
0.0032021
0.00329993
0.003381
0.00344736
0.00350458
0.00354627
0.00358906
0.00363512
0.00364559
0.00369522
0.00337665
0.00300201
0.00308872
0.00342289
0.00340431
0.00529085
3.55504e-05
1.85749e-06
1e-15
1e-15
1e-15
1e-15
1e-15
1e-15
1e-15
1e-15
1e-15
1e-15
1e-15
1e-15
0.00515812
0.00591878
0.00416605
0.00222388
0.000764114
0.00063929
0.000661188
0.000712213
0.000760373
0.000842833
0.000946363
0.00106603
0.00120834
0.00137171
0.00151588
0.0016031
0.00164872
0.00166684
0.00166486
0.00164867
0.00162223
0.0015882
0.00154922
0.0015103
0.00147358
0.0014384
0.0014063
0.00137745
0.00135063
0.00132531
0.00130186
0.00130236
0.00137099
0.0014688
0.00164613
0.00186151
0.00211664
0.00193867
6.40123e-05
0.00571545
0.00518218
0.00507179
0.00514391
0.00520955
0.00527202
0.00530935
0.00534545
0.00538831
0.00543828
0.00549378
0.00554839
0.00562199
0.00570798
0.00574884
0.00583982
0.00600153
0.00606352
0.00602008
0.00582608
0.00546772
0.00508136
0.00486844
0.00439202
0.005367
8.22026e-05
4.45722e-06
1e-15
1e-15
1e-15
1e-15
1e-15
1e-15
1e-15
1e-15
1e-15
1e-15
1e-15
1e-15
0.00522791
0.00232943
0.000152248
0.000320624
0.000119791
0.000114048
0.000122476
0.000130828
0.000137223
0.000148314
0.000160847
0.000175727
0.000195238
0.000219016
0.000242082
0.000259009
0.000271231
0.000280516
0.000287546
0.000292745
0.000296381
0.000298634
0.00029978
0.000300421
0.000300458
0.000300043
0.000299713
0.000299547
0.000299307
0.000298919
0.000298344
0.000302032
0.000316331
0.000349473
0.000376794
1.2092e-05
0.000288312
0.000871687
0.00010978
0.0037189
0.00353249
0.00328762
0.00310428
0.00290845
0.00274264
0.00262542
0.00255033
0.00251628
0.0025184
0.00255021
0.00258997
0.0026954
0.00286578
0.00298876
0.00311405
0.00330741
0.0035531
0.00391123
0.00430862
0.00456515
0.00465207
0.00472452
0.00445184
0.0053132
0.00018762
1.05499e-05
1e-15
1e-15
1e-15
1e-15
1e-15
1e-15
1e-15
1e-15
1e-15
1e-15
1e-15
1e-15
0.000951444
0.000410832
0.000144466
0.000273121
9.20729e-05
0.000150428
0.000175104
0.000185258
0.000184931
0.000178375
0.000167175
0.000152422
0.000135799
0.000119896
0.000106508
9.58041e-05
8.77068e-05
8.18417e-05
7.77919e-05
7.52123e-05
7.37799e-05
7.31801e-05
7.34736e-05
7.47199e-05
7.65407e-05
7.82513e-05
7.97266e-05
8.1024e-05
8.20529e-05
8.28986e-05
8.2884e-05
7.99644e-05
5.68407e-05
9.12437e-05
1.13927e-05
0.000255405
0.000288366
0.000187408
0.000312481
0.000284463
0.000489533
0.000184464
0.000432776
0.000393027
0.000378318
0.000360802
0.00035363
0.000352301
0.000354779
0.000364156
0.000375407
0.000397318
0.00043108
0.000460428
1.29517e-05
0.000178993
0.000387608
0.000621668
0.00101929
0.00162639
0.00225174
0.00280411
0.00300311
0.00420919
0.000355734
2.07311e-05
1e-15
1e-15
1e-15
1e-15
1e-15
1e-15
1e-15
1e-15
1e-15
1e-15
1e-15
1e-15
0.000168493
0.000312979
0.000902366
0.00190317
0.00210503
0.00212072
0.0021427
0.00216096
0.00217034
0.00217329
0.00217165
0.00216638
0.0021585
0.00214882
0.0021377
0.00212528
0.00211156
0.00209634
0.00207962
0.00206132
0.00204137
0.00201972
0.00199633
0.00197127
0.00194465
0.00191645
0.00188667
0.00185526
0.0018221
0.00178709
0.00175027
0.00171285
0.00164706
0.00153073
0.00136382
0.00116462
0.000993445
0.000732356
0.000618747
0.000162839
0.000173175
0.000164436
0.000160307
0.00018869
0.000215295
0.000230788
0.000245021
0.00025617
0.000263527
0.000271225
0.000278051
0.000284267
0.000291149
0.000298153
0.000306994
0.000340062
0.000381719
0.00042805
0.000494982
1.20607e-05
0.000416904
0.000941739
0.00129457
0.00251962
0.000531385
3.20738e-05
1e-15
1e-15
1e-15
1e-15
1e-15
1e-15
1e-15
1e-15
1e-15
1e-15
1e-15
1e-15
0.000124407
0.00169367
0.00254631
0.00225944
0.00227433
0.00224671
0.00220024
0.00219017
0.0021869
0.00218587
0.00218675
0.00218861
0.0021903
0.00219116
0.00219067
0.00218824
0.00218362
0.0021802
0.0021751
0.00216715
0.00215591
0.00214119
0.00212298
0.00210146
0.00207714
0.0020505
0.0020217
0.00199083
0.00195795
0.00192308
0.0018867
0.00185466
0.00182563
0.0017799
0.0017046
0.00160746
0.00146189
0.0011612
0.000928753
0.000882806
0.000856058
0.00100868
0.00120241
0.00139258
0.00156009
0.00168674
0.00178144
0.00185201
0.00190301
0.00194024
0.00196754
0.00198627
0.00200028
0.00201178
0.00201787
0.00201886
0.00202077
0.00201449
0.00194672
0.00187152
0.00162106
0.00140744
0.0013385
0.00188108
0.000860997
3.27463e-09
1.91854e-10
1e-15
1e-15
1e-15
1e-15
1e-15
1e-15
1e-15
1e-15
1e-15
1e-15
1e-15
0.00220629
0.00249468
0.00168045
0.000834172
0.000565484
0.000534591
0.000632972
0.000654507
0.00065848
0.000660398
0.000663227
0.0006673
0.000672362
0.000677957
0.000683536
0.000688667
0.000692985
0.000690197
0.000676653
0.000659198
0.000640703
0.000622452
0.00060506
0.000589274
0.000575446
0.000563287
0.000552422
0.000542583
0.00053365
0.000525491
0.000517428
0.000512007
0.000531514
0.000595249
0.000669449
0.000738234
0.000833677
0.000873727
0.000793532
0.00240345
0.00216108
0.00213568
0.00221794
0.00228065
0.00233194
0.00237063
0.00239622
0.00241651
0.00243528
0.00245427
0.00247505
0.00249409
0.00252249
0.00255765
0.00258007
0.00259656
0.00261575
0.00262339
0.00266439
0.00266
0.00245734
0.00219059
0.00194143
0.001937
0.00136381
2.17093e-08
1.3176e-09
1e-15
1e-15
1e-15
1e-15
1e-15
1e-15
1e-15
1e-15
1e-15
1e-15
1e-15
0.00212735
0.000975354
9.35408e-05
0.000130378
8.34087e-05
8.10884e-05
9.68613e-05
9.8885e-05
9.81365e-05
9.74384e-05
9.59826e-05
9.4921e-05
9.49555e-05
9.53667e-05
9.65304e-05
9.84685e-05
0.000100862
0.00010278
0.00010352
0.00010388
0.000104132
0.000104453
0.000104861
0.000105248
0.000105414
0.000105572
0.000105824
0.000106128
0.000106468
0.000106822
0.000107056
0.000107708
0.000113569
0.000129063
0.000147153
0.000168387
0.000127892
0.000329957
0.000456094
0.001462
0.00134828
0.00118304
0.00107536
0.000985975
0.00091739
0.000872889
0.000842435
0.000826323
0.000824228
0.000833661
0.000853148
0.000872733
0.000915845
0.000983225
0.00101963
0.00105946
0.00111902
0.00116859
0.00127519
0.00144215
0.00160788
0.00172986
0.00171535
0.0016567
0.00155419
7.35986e-08
4.62422e-09
1e-15
1e-15
1e-15
1e-15
1e-15
1e-15
1e-15
1e-15
1e-15
1e-15
1e-15
0.000413102
0.000177845
2.74617e-05
6.5153e-05
7.66115e-05
8.3716e-05
8.32971e-05
8.3911e-05
8.32602e-05
8.19375e-05
7.93784e-05
7.68602e-05
7.51627e-05
7.37532e-05
7.29823e-05
7.29539e-05
7.33389e-05
7.59344e-05
7.83883e-05
8.08198e-05
8.32246e-05
8.56405e-05
8.80299e-05
9.0123e-05
9.15995e-05
9.27019e-05
9.36126e-05
9.43209e-05
9.48165e-05
9.50926e-05
9.51626e-05
9.49362e-05
9.37779e-05
8.66447e-05
7.51165e-05
5.94292e-05
7.02968e-05
0.000102522
0.000129047
7.29245e-05
9.24455e-05
0.000180344
0.000148852
0.000138365
0.000130833
0.000122989
0.00011892
0.000116912
0.000116286
0.000118285
0.000121945
0.000125901
0.000133997
0.00014613
0.000154259
0.000163418
0.000176115
0.000187744
0.000216066
8.0456e-05
0.00031074
0.000569621
0.000818728
0.000965009
0.00124719
1.77107e-07
1.15118e-08
1e-15
1e-15
1e-15
1e-15
1e-15
1e-15
1e-15
1e-15
1e-15
1e-15
1e-15
6.26125e-05
6.92537e-05
9.65e-05
0.000449775
0.000518249
0.000551175
0.000544629
0.000557618
0.000563038
0.000562137
0.000558532
0.000553971
0.000549249
0.00054477
0.000540491
0.000536295
0.000532078
0.000540129
0.000543947
0.000545126
0.000544461
0.000542429
0.000539297
0.000535237
0.000530401
0.000524887
0.000518734
0.000511979
0.000504635
0.000496738
0.000488393
0.000479157
0.000465912
0.000424135
0.000362594
0.00028311
0.000196036
0.000112367
0.000129972
4.16316e-05
5.35561e-05
5.77436e-05
6.07474e-05
6.66948e-05
7.28911e-05
7.51823e-05
7.72023e-05
7.82911e-05
7.83181e-05
7.86767e-05
7.88969e-05
7.90794e-05
7.95422e-05
8.00219e-05
8.06276e-05
8.13001e-05
8.20781e-05
8.2947e-05
8.36968e-05
9.23694e-05
0.000120105
0.000152824
0.000199354
0.000175415
0.000625687
3.03997e-07
2.04282e-08
1e-15
1e-15
1e-15
1e-15
1e-15
1e-15
1e-15
1e-15
1e-15
1e-15
1e-15
0.000149111
0.000449709
0.000839317
0.000955892
0.00094538
0.000945713
0.000957582
0.000968171
0.000971251
0.000968575
0.000964079
0.000959758
0.000956152
0.000953233
0.00095071
0.000948296
0.000945826
0.000943087
0.000939918
0.000936192
0.000931783
0.00092653
0.000920257
0.000912868
0.000904427
0.000894983
0.000884544
0.000873148
0.000860811
0.000847541
0.00083348
0.000819079
0.000806915
0.000776517
0.00073792
0.000657497
0.00055138
0.000439587
0.000333519
0.000241674
0.000305942
0.000402027
0.000439774
0.000476917
0.000513681
0.000537973
0.000552768
0.000560952
0.000564821
0.00056596
0.000565293
0.00056332
0.000560366
0.000556677
0.000552433
0.000547832
0.000543291
0.000539112
0.000534144
0.000495631
0.000417728
0.000334834
0.000258404
0.000178163
0.000436336
7.58271e-07
5.26409e-08
1e-15
1e-15
1e-15
1e-15
1e-15
1e-15
1e-15
1e-15
1e-15
1e-15
1e-15
0.000737265
0.000945621
0.000755445
0.000497061
0.00051567
0.000498465
0.000488712
0.000488203
0.000489372
0.000488978
0.000488375
0.000488741
0.000489935
0.000491507
0.000493131
0.000494552
0.000495639
0.000496286
0.000496426
0.00049597
0.000494865
0.000493074
0.000490537
0.000487288
0.000483406
0.000478987
0.000474074
0.000468684
0.000462847
0.000456597
0.000449919
0.000442648
0.000438794
0.000447388
0.000463913
0.000478267
0.000474355
0.000436667
0.000370603
0.000948982
0.000956562
0.0010234
0.00104597
0.00105767
0.00107568
0.00107996
0.00107851
0.00107546
0.00107238
0.00106953
0.00106704
0.00106483
0.00106272
0.00106062
0.00105835
0.00105563
0.00105232
0.00104835
0.00104696
0.00103022
0.000955351
0.000861519
0.000788311
0.00060807
0.000601184
3.14267e-06
2.25219e-07
1e-15
1e-15
1e-15
1e-15
1e-15
1e-15
1e-15
1e-15
1e-15
1e-15
1e-15
0.000954664
0.000538114
0.000177846
9.24297e-05
7.87325e-05
7.8083e-05
7.69803e-05
7.55322e-05
7.4213e-05
7.28781e-05
7.06362e-05
6.85925e-05
6.73964e-05
6.64238e-05
6.60219e-05
6.63452e-05
6.70876e-05
6.83334e-05
7.00026e-05
7.20092e-05
7.42073e-05
7.65997e-05
7.90863e-05
8.13342e-05
8.29673e-05
8.42446e-05
8.53892e-05
8.63863e-05
8.72268e-05
8.78985e-05
8.83903e-05
8.86599e-05
8.9573e-05
1.12101e-06
3.97806e-05
9.93089e-05
0.000172037
0.00023554
0.000256576
0.000748152
0.000685531
0.000643654
0.00063802
0.000625976
0.000616955
0.000609264
0.000603668
0.000600951
0.000600505
0.000601844
0.000604559
0.000608466
0.000613363
0.00061923
0.000625922
0.000633133
0.000641181
0.000649986
0.000661732
0.000690469
0.000728642
0.000749615
0.000750744
0.00068688
0.00071454
1.14275e-05
8.44929e-07
1e-15
1e-15
1e-15
1e-15
1e-15
1e-15
1e-15
1e-15
1e-15
1e-15
1e-15
0.000262417
0.000103634
2.6732e-05
1e-15
1e-15
1e-15
1e-15
1e-15
1e-15
1e-15
1e-15
1e-15
1e-15
1e-15
1e-15
1e-15
1e-15
1e-15
1e-15
1e-15
1e-15
1e-15
1e-15
1e-15
1e-15
1e-15
1e-15
1e-15
1e-15
1e-15
1e-15
1e-15
1e-15
2.3047e-07
8.31977e-06
2.11106e-05
3.85195e-05
3.67348e-05
0.000110303
8.0284e-05
9.23173e-05
3.23588e-05
5.09499e-06
9.07146e-05
9.00379e-05
8.73875e-05
8.63293e-05
8.56872e-05
8.48023e-05
8.49814e-05
8.54467e-05
8.63018e-05
5.23015e-07
6.86407e-06
1.40787e-05
2.17654e-05
3.08483e-05
4.14587e-05
5.17249e-05
7.15998e-05
0.000137223
0.000226647
0.000325929
0.000396933
0.000541622
2.92615e-05
2.2305e-06
1e-15
1e-15
1e-15
1e-15
1e-15
1e-15
1e-15
1e-15
1e-15
1e-15
1e-15
4.47173e-05
1e-15
9.2706e-06
1.7197e-05
2.13159e-05
2.53119e-05
2.78019e-05
2.8486e-05
2.84899e-05
2.83193e-05
2.76373e-05
2.68541e-05
2.62958e-05
2.5735e-05
2.53624e-05
2.52863e-05
2.53779e-05
2.56984e-05
2.62206e-05
2.69119e-05
2.77288e-05
2.86601e-05
2.9683e-05
3.06173e-05
3.12709e-05
3.17632e-05
3.22052e-05
3.25928e-05
3.29238e-05
3.31836e-05
3.33704e-05
3.3489e-05
3.35747e-05
3.29355e-05
3.07339e-05
2.64908e-05
1.95096e-05
2.05393e-05
1.64342e-05
1.10519e-05
1.28855e-05
4.82593e-06
7.29303e-07
1e-15
1e-15
1e-15
1e-15
1e-15
1e-15
1e-15
1e-15
1e-15
7.44609e-08
9.86221e-07
2.04745e-06
3.21015e-06
4.62102e-06
6.31174e-06
8.00681e-06
1.12609e-05
2.18988e-05
3.6655e-05
5.79072e-05
5.21761e-05
0.000232394
4.83227e-05
3.80475e-06
1e-15
1e-15
1e-15
1e-15
1e-15
1e-15
1e-15
1e-15
1e-15
1e-15
1e-15
1.61028e-05
4.26907e-05
6.18674e-05
0.000114577
0.00013952
0.000161632
0.000176832
0.000184995
0.000189405
0.000192351
0.000194585
0.000196285
0.000197601
0.000198605
0.000199333
0.000199843
0.000200168
0.000200313
0.000200288
0.00020009
0.000199701
0.000199097
0.000198253
0.000197156
0.000195798
0.000194182
0.000192321
0.000190231
0.000187915
0.000185376
0.00018262
0.000179662
0.000176724
0.000170248
0.000156136
0.000132351
9.59371e-05
5.78621e-05
4.76653e-05
4.22029e-05
2.82059e-05
3.16347e-05
3.07728e-05
3.12986e-05
3.20179e-05
3.1685e-05
3.17475e-05
3.17464e-05
3.14727e-05
3.14709e-05
3.14677e-05
3.14871e-05
3.16203e-05
3.1825e-05
3.21482e-05
3.25074e-05
3.28672e-05
3.32075e-05
3.35162e-05
3.38081e-05
3.22571e-05
2.82817e-05
2.24971e-05
2.59496e-05
5.32159e-05
3.21664e-05
6.04007e-08
4.6423e-09
1e-15
1e-15
1e-15
1e-15
1e-15
1e-15
1e-15
1e-15
1e-15
1e-15
0.000119207
0.000267808
0.000337065
0.000302627
0.000313894
0.000324424
0.00033232
0.000336541
0.000338216
0.000339068
0.000339769
0.000340276
0.000340521
0.000340538
0.000340345
0.000339955
0.000339391
0.000338655
0.000337738
0.000336621
0.000335265
0.000333634
0.000331675
0.000329354
0.000326684
0.000323719
0.000320438
0.000316841
0.000312921
0.000308682
0.000304113
0.000299225
0.000295057
0.00029063
0.000280608
0.000260774
0.000224005
0.000181498
0.000135278
0.000209526
0.000203216
0.000213262
0.000216562
0.00021817
0.000220574
0.000222744
0.000224383
0.000225691
0.000226731
0.000227532
0.00022812
0.000228476
0.000228326
0.000228274
0.000228377
0.000228226
0.000227751
0.000226919
0.000225794
0.000224698
0.000211886
0.000183887
0.000145113
0.000110734
7.21234e-05
6.40916e-05
3.82542e-06
3.342e-07
1e-15
1e-15
1e-15
1e-15
1e-15
1e-15
1e-15
1e-15
1e-15
1e-15
0.000436232
0.000421975
0.000367917
0.000288701
0.00025055
0.000227998
0.000213153
0.000204004
0.000197301
0.000192029
0.000188153
0.000185166
0.000182659
0.000180515
0.000178607
0.00017686
0.000175216
0.000173653
0.000172105
0.000170558
0.000168964
0.000167313
0.000165576
0.000163746
0.000161885
0.000159986
0.000158041
0.000156033
0.000153969
0.000151842
0.000149649
0.000147349
0.000145435
0.000146562
0.000152754
0.000161701
0.000168363
0.000165123
0.000141594
0.000478101
0.000449585
0.000451261
0.00045121
0.000450368
0.000451047
0.000451482
0.000451471
0.000451367
0.000451293
0.000451163
0.000450916
0.000450536
0.000449304
0.000448396
0.000448122
0.000447246
0.000445914
0.000444154
0.000442159
0.000441861
0.000435605
0.000412844
0.000372903
0.000331218
0.000284467
0.000231292
3.41122e-05
1.84319e-07
1.42945e-08
1e-15
1e-15
1e-15
1e-15
1e-15
1e-15
1e-15
1e-15
1e-15
0.000393319
0.000198816
0.000105555
6.88985e-05
4.84183e-05
3.10918e-05
1.92822e-05
1.20183e-05
7.18366e-06
3.37782e-06
4.22904e-07
2.5711e-05
2.44936e-05
2.3416e-05
2.2588e-05
2.21042e-05
2.18148e-05
2.17859e-05
2.19761e-05
2.23623e-05
2.28912e-05
2.35579e-05
2.43395e-05
2.50589e-05
2.55257e-05
2.58708e-05
2.62069e-05
2.65245e-05
2.68192e-05
2.70838e-05
2.73163e-05
2.75053e-05
2.77413e-05
2.86379e-05
1.57341e-06
2.08279e-05
4.90667e-05
7.89432e-05
9.26915e-05
0.000308085
0.000301247
0.000287925
0.000281765
0.000276773
0.000272801
0.000269652
0.000266848
0.000264614
0.00026292
0.000261562
0.000260468
0.000259668
0.000259045
0.000258376
0.000257787
0.000257417
0.000257307
0.000257434
0.000257746
0.000259585
0.000268758
0.000282116
0.000292929
0.000296865
0.000289058
0.000276637
0.00010827
1.86292e-06
1.48895e-07
1e-15
1e-15
1e-15
1e-15
1e-15
1e-15
1e-15
1e-15
1e-15
9.01055e-05
3.79424e-05
1.63383e-05
1.06704e-05
7.62468e-06
5.01354e-06
3.11838e-06
1.90101e-06
1.10759e-06
5.08386e-07
6.11282e-08
1e-15
1e-15
1e-15
1e-15
1e-15
1e-15
1e-15
1e-15
1e-15
1e-15
1e-15
1e-15
1e-15
1e-15
1e-15
1e-15
1e-15
1e-15
1e-15
1e-15
1e-15
1e-15
1e-15
3.0921e-07
4.1767e-06
1.01081e-05
1.59089e-06
3.26917e-05
2.43139e-05
3.70982e-05
2.42248e-05
1.76932e-05
1.36889e-05
1.09535e-05
8.86608e-06
7.08838e-06
5.62007e-06
4.47655e-06
3.61932e-06
3.00585e-06
2.70372e-06
2.7281e-06
2.94209e-06
3.39445e-06
4.21952e-06
5.44363e-06
7.0903e-06
8.96889e-06
1.09709e-05
2.07509e-05
4.59911e-05
8.02838e-05
0.000116557
0.000150764
0.000185168
0.000150674
9.73173e-06
8.00983e-07
1e-15
1e-15
1e-15
1e-15
1e-15
1e-15
1e-15
1e-15
1e-15
1.52613e-05
1e-15
1.62858e-06
1.86823e-06
2.77117e-06
4.03661e-06
4.93096e-06
5.38483e-06
5.62721e-06
5.7658e-06
5.71679e-06
5.58293e-06
5.4604e-06
5.30791e-06
5.18012e-06
5.11521e-06
5.08662e-06
5.11625e-06
5.20357e-06
5.40025e-06
5.53318e-06
5.6379e-06
5.80331e-06
5.97489e-06
6.0912e-06
6.18268e-06
6.28055e-06
6.37811e-06
6.47114e-06
6.5553e-06
6.62815e-06
6.68807e-06
6.73627e-06
6.76701e-06
6.28178e-06
5.22418e-06
3.1451e-06
1.15912e-06
6.83468e-06
3.4412e-06
5.31446e-06
3.70433e-06
2.58906e-06
2.02012e-06
1.63368e-06
1.29348e-06
1.02666e-06
8.07516e-07
6.32878e-07
5.08408e-07
4.19803e-07
3.7599e-07
3.80057e-07
4.11332e-07
4.77791e-07
5.99229e-07
7.81252e-07
1.02928e-06
1.31734e-06
1.62932e-06
3.10848e-06
6.93707e-06
1.21538e-05
1.90195e-05
1.22355e-05
5.06155e-05
9.78791e-05
2.41764e-05
2.13949e-06
1e-15
1e-15
1e-15
1e-15
1e-15
1e-15
1e-15
1e-15
1e-15
8.02215e-06
2.42744e-05
1.06063e-05
1.21676e-05
1.7758e-05
2.52712e-05
3.08014e-05
3.44363e-05
3.69783e-05
3.88893e-05
4.02717e-05
4.12424e-05
4.19529e-05
4.24757e-05
4.28613e-05
4.31593e-05
4.33988e-05
4.35943e-05
4.37598e-05
4.43551e-05
4.4042e-05
4.31599e-05
4.24662e-05
4.19165e-05
4.14806e-05
4.11113e-05
4.07654e-05
4.0414e-05
4.00358e-05
3.96159e-05
3.91435e-05
3.86168e-05
3.80494e-05
3.74117e-05
3.40099e-05
2.77088e-05
1.63516e-05
4.23332e-06
1.31562e-05
2.01557e-05
1.13941e-05
1.15841e-05
1.12617e-05
1.18343e-05
1.25753e-05
1.28704e-05
1.32763e-05
1.35911e-05
1.37032e-05
1.38765e-05
1.39962e-05
1.4081e-05
1.42085e-05
1.43211e-05
1.4444e-05
1.45652e-05
1.46785e-05
1.47745e-05
1.48458e-05
1.48769e-05
1.47276e-05
1.36138e-05
1.16553e-05
9.20142e-06
8.49275e-06
1.32573e-05
1.00086e-05
2.14381e-05
5.57725e-07
4.63813e-08
1e-15
1e-15
1e-15
1e-15
1e-15
1e-15
1e-15
1e-15
5.78997e-05
0.000166515
0.000167788
0.000156808
0.000158569
0.000162462
0.000165462
0.000167083
0.000167935
0.000168427
0.000168641
0.0001686
0.000168427
0.000168164
0.00016782
0.000167444
0.000167042
0.000166606
0.000166131
0.000167516
0.000166128
0.000162833
0.000162131
0.000161318
0.000160371
0.000159282
0.000158031
0.000156614
0.000155027
0.00015326
0.00015131
0.000149183
0.000146958
0.000141922
0.000135495
0.000127817
0.000112765
9.13827e-05
6.58579e-05
9.8386e-05
8.0302e-05
7.64755e-05
7.77831e-05
8.11007e-05
8.53214e-05
8.93902e-05
9.29852e-05
9.60891e-05
9.86389e-05
0.000100704
0.000102358
0.000103639
0.000104601
0.000105278
0.000105689
0.000105852
0.000105783
0.000105491
0.000104993
0.00010433
0.00010269
9.45943e-05
8.103e-05
6.35434e-05
4.47518e-05
2.87534e-05
1.94616e-05
2.80028e-05
6.24621e-06
8.92407e-07
1e-15
1e-15
1e-15
1e-15
1e-15
1e-15
1e-15
1e-15
0.00027009
0.000288394
0.000260971
0.000242549
0.000231778
0.000225486
0.000221208
0.000217662
0.000214515
0.000211772
0.000209518
0.000207611
0.00020592
0.000204431
0.000203097
0.000201844
0.000200653
0.000199487
0.000198303
0.000197071
0.000196354
0.000195374
0.000194143
0.000192664
0.000190995
0.000189189
0.000187253
0.000185185
0.00018299
0.000180656
0.000178194
0.000175593
0.00017282
0.000170482
0.000167554
0.00016282
0.000155175
0.000140965
0.00011666
0.000289432
0.000259227
0.000252062
0.000250618
0.000251189
0.00025226
0.000253245
0.000253763
0.000253966
0.000253904
0.000253578
0.000253069
0.000252401
0.000251574
0.000250609
0.000249507
0.000248266
0.000246883
0.000245349
0.000243674
0.000241998
0.000241149
0.000233912
0.00021907
0.000196897
0.000173901
0.0001491
0.000120087
9.82376e-05
4.18826e-05
2.19045e-06
2.08851e-07
1e-15
1e-15
1e-15
1e-15
1e-15
1e-15
1e-15
0.000286347
0.000139128
0.00011454
0.000111451
0.000101491
9.31712e-05
8.71171e-05
8.26087e-05
7.89445e-05
7.59241e-05
7.35175e-05
7.16125e-05
7.00496e-05
6.87548e-05
6.7666e-05
6.67147e-05
6.58554e-05
6.50625e-05
6.43042e-05
6.35584e-05
6.28035e-05
6.20321e-05
6.12226e-05
6.03655e-05
5.94904e-05
5.86255e-05
5.77833e-05
5.6949e-05
5.6123e-05
5.53078e-05
5.44969e-05
5.36849e-05
5.27434e-05
5.21868e-05
5.60904e-05
6.43635e-05
7.58702e-05
8.73772e-05
8.86418e-05
0.000239002
0.0002347
0.000228424
0.000220911
0.000215081
0.00020971
0.000205145
0.000200935
0.000197146
0.00019386
0.000190932
0.000188332
0.000186024
0.000183943
0.000182068
0.000180374
0.00017883
0.000177428
0.000176163
0.000175005
0.000173915
0.000174192
0.000177709
0.000180627
0.000181465
0.000179174
0.000171207
0.000156971
0.000138413
9.69727e-05
1.57173e-05
1.49625e-07
1.23553e-08
1e-15
1e-15
1e-15
1e-15
1e-15
1e-15
5.71335e-05
2.61232e-05
1.80743e-05
1.75752e-05
1.6255e-05
1.5264e-05
1.42947e-05
1.32296e-05
1.22882e-05
1.1494e-05
1.06229e-05
9.81927e-06
9.18191e-06
8.58467e-06
8.09713e-06
7.75979e-06
7.50673e-06
7.37043e-06
7.34089e-06
7.40639e-06
7.54886e-06
7.76952e-06
8.05832e-06
8.32311e-06
8.46035e-06
8.53885e-06
8.62568e-06
8.71645e-06
8.8099e-06
8.90349e-06
8.99579e-06
9.08555e-06
9.14976e-06
9.27803e-06
1.02181e-05
1.20132e-05
1.5535e-05
1.71272e-05
3.55671e-05
3.5741e-05
4.7773e-05
3.58199e-05
3.77957e-05
3.84293e-05
3.68247e-05
3.43999e-05
3.1991e-05
2.97519e-05
2.78311e-05
2.62165e-05
2.48614e-05
2.37504e-05
2.28567e-05
2.21544e-05
2.16354e-05
2.12946e-05
2.11268e-05
2.11347e-05
2.13361e-05
2.14697e-05
2.20278e-05
3.07305e-05
4.54792e-05
6.28861e-05
8.07583e-05
9.73335e-05
0.000109968
0.000114571
0.000108796
4.50155e-05
2.17896e-06
1.85391e-07
1e-15
1e-15
1e-15
1e-15
1e-15
1e-15
1.19754e-05
7.54027e-06
8.48933e-06
8.84757e-06
9.66277e-06
1.04083e-05
1.07715e-05
1.07275e-05
1.0558e-05
1.03498e-05
9.91247e-06
9.40306e-06
8.96807e-06
8.50667e-06
8.10568e-06
7.82978e-06
7.62408e-06
7.52881e-06
7.5429e-06
7.66332e-06
7.87164e-06
8.17612e-06
8.57231e-06
8.95329e-06
9.18198e-06
9.33097e-06
9.47925e-06
9.62568e-06
9.76861e-06
9.90352e-06
1.00286e-05
1.01425e-05
1.02464e-05
1.03264e-05
1.00287e-05
9.12986e-06
8.01307e-06
9.46823e-06
4.85613e-06
5.15328e-06
6.96423e-06
5.56972e-06
5.61415e-06
5.74892e-06
5.82627e-06
5.66105e-06
5.53727e-06
5.39928e-06
5.20708e-06