/*--------------------------------*- C++ -*----------------------------------*\
| =========                 |                                                 |
| \\      /  F ield         | OpenFOAM: The Open Source CFD Toolbox           |
|  \\    /   O peration     | Version:  2312                                  |
|   \\  /    A nd           | Website:  www.openfoam.com                      |
|    \\/     M anipulation  |                                                 |
\*---------------------------------------------------------------------------*/
FoamFile
{
    version     2.0;
    format      ascii;
    arch        "LSB;label=32;scalar=64";
    class       volVectorField;
    location    "300";
    object      momentError;
}
// * * * * * * * * * * * * * * * * * * * * * * * * * * * * * * * * * * * * * //

dimensions      [0 1 -2 0 0 0 0];

internalField   nonuniform List<vector> 
10720
(
(-0.148935 -1.65217 -2.94834e-15)
(0.141323 -1.64486 -2.11165e-15)
(0.235598 -1.21649 -2.05413e-14)
(0.0210713 -0.906161 9.19213e-14)
(-0.0720326 -0.622197 6.89512e-14)
(-0.0774063 -0.453442 -1.70368e-13)
(-0.0516701 -0.322061 -1.31734e-13)
(0.0213376 -0.177923 -1.02159e-13)
(0.120299 -0.0575582 2.02074e-14)
(0.230983 0.0705916 5.2618e-15)
(0.330641 0.097351 -1.59226e-14)
(0.563101 0.371165 6.55394e-14)
(0.701065 0.491903 -2.13836e-13)
(0.770651 0.538859 -3.91878e-13)
(0.825309 0.552494 7.25896e-14)
(0.799038 0.581986 -1.03691e-13)
(0.741102 0.55175 1.13497e-13)
(0.693553 0.246582 8.83617e-13)
(0.263884 -0.135759 2.37309e-13)
(-0.721017 -0.174399 -4.89906e-13)
(-1.55211 0.0475275 -2.17694e-13)
(-1.61503 0.287634 6.15916e-14)
(-0.878947 0.946578 4.3939e-13)
(1.34183 0.985129 -3.29594e-13)
(3.96891 0.46876 5.98647e-14)
(4.11505 -0.284233 -3.52676e-14)
(2.92089 -0.884697 -4.88841e-14)
(0.797106 -0.410811 2.05468e-14)
(0.442936 -0.227964 -1.71923e-15)
(0.536861 -0.163666 1.34084e-13)
(0.238009 -0.0641664 5.74924e-14)
(0.251453 -0.00964306 -1.10288e-13)
(0.124962 0.0501251 -8.91653e-14)
(0.797701 -0.085836 -2.34757e-13)
(0.872532 -0.259511 -1.21143e-13)
(-5.41881 -0.206322 3.8489e-14)
(17.3664 -3.56227 6.19975e-15)
(5.90766 -2.03179 7.28009e-14)
(-10.1892 8.53964 3.01376e-14)
(-0.327652 -1.52668 9.33271e-15)
(-0.47763 -1.12268 -2.1367e-14)
(-0.616245 -0.733952 2.42212e-14)
(-0.591009 -0.563026 1.07661e-13)
(-0.37978 -0.550866 4.02648e-14)
(-0.0802301 -0.393725 -2.89455e-13)
(0.0466069 -0.131793 -1.35405e-13)
(0.0946213 -0.120942 1.48514e-13)
(0.0661616 -0.060702 -6.79481e-14)
(0.0275134 0.0170951 5.93813e-14)
(-0.116077 0.218085 -7.65817e-14)
(-0.314374 0.329801 -1.33609e-13)
(-0.407061 0.32444 3.42215e-14)
(-0.415466 0.277791 6.80365e-14)
(-0.394197 0.240197 -1.11425e-13)
(-0.376188 0.171867 -9.59336e-14)
(-0.355196 0.109081 -6.77554e-14)
(-0.280688 0.217573 -8.208e-14)
(-0.311007 -0.13074 -2.98237e-14)
(-0.164074 0.0939178 -2.15307e-15)
(-0.0862306 0.0299469 2.74368e-14)
(-0.297224 -0.683473 5.45345e-14)
(0.434972 0.859197 -2.52377e-14)
(-0.0602841 -0.343628 -1.74471e-14)
(0.0242998 -0.143666 1.98766e-14)
(0.0832632 0.00480444 -3.58323e-15)
(0.0584106 -0.00862037 -1.43451e-16)
(0.0258554 -0.0254661 -5.49525e-16)
(-0.0241056 -0.00347094 -1.90943e-16)
(-0.0919701 -0.00352928 7.22152e-16)
(-0.172072 -0.00345695 2.6457e-15)
(-0.2181 -0.00507993 -1.34735e-15)
(-0.270252 -0.00926583 -2.04125e-15)
(-0.393646 -0.01996 -3.35313e-14)
(-0.518694 -0.0366622 -3.06109e-14)
(-0.563949 -0.0460159 1.72341e-14)
(-0.826394 -0.0925968 2.94692e-16)
(-1.02402 -0.0149357 -3.46434e-15)
(-1.12375 -0.210489 -1.46942e-14)
(-1.0783 -0.478708 -4.20882e-15)
(-0.894276 -0.529594 2.74123e-15)
(-0.579805 -0.497257 -7.95648e-16)
(-0.645089 -0.443799 -6.93212e-15)
(-0.713275 -0.397145 9.16378e-15)
(-0.673393 -0.383241 6.20848e-14)
(-0.63626 -0.354855 7.52275e-14)
(-0.581649 -0.308217 2.58058e-14)
(-0.50653 -0.264492 -8.22947e-14)
(-0.439193 -0.232226 -3.87628e-14)
(-0.331632 -0.151787 -2.48091e-13)
(-0.329303 -0.388432 -4.54117e-13)
(-0.299693 -0.478267 -2.21919e-14)
(-0.26539 -0.442865 -1.95142e-14)
(-0.144484 -0.420616 -8.24127e-14)
(-0.0396636 -0.368352 8.51745e-14)
(0.0156781 -0.298356 3.79433e-13)
(-0.0535144 -0.187502 -6.9043e-13)
(0.0850197 -0.136469 -5.52239e-13)
(0.759263 -0.278183 -3.62593e-13)
(1.76475 -0.569554 2.50717e-13)
(2.50309 -0.822643 2.08649e-13)
(2.99732 -1.22907 -3.25429e-13)
(1.20711 -1.22541 5.45391e-14)
(-2.26586 -0.419509 -2.2092e-15)
(-0.42553 1.12138 -3.13636e-14)
(1.63362 1.50089 -1.14727e-15)
(1.93126 0.677304 1.08141e-14)
(0.949217 0.0610467 -1.66249e-14)
(0.6109 -0.0615925 6.0347e-14)
(0.856782 -0.0829302 3.06513e-14)
(0.859294 -0.0557819 6.83357e-15)
(-0.426713 0.115177 -1.0605e-13)
(2.31305 -0.224542 -1.31962e-13)
(-0.846224 0.230033 1.65522e-13)
(-23.6101 3.63262 9.00621e-14)
(19.4606 -2.16627 4.33821e-14)
(6.90131 -0.635241 -7.32687e-14)
(-24.6132 11.1233 -4.03351e-14)
(-1.18334 -0.441172 -1.69231e-14)
(-1.03368 -0.31567 1.55343e-13)
(-0.877481 -0.22766 -4.84563e-14)
(-0.76518 -0.224979 -1.18608e-13)
(-0.568342 -0.27217 7.95851e-14)
(-0.288407 -0.233034 7.37711e-14)
(-0.0732106 -0.126009 -2.00689e-14)
(-0.00543621 -0.0874992 1.57132e-13)
(0.00153016 -0.0222964 3.62897e-14)
(-0.0195633 0.113557 -5.44607e-14)
(-0.108753 0.27796 7.03883e-14)
(-0.252483 0.32631 -9.48009e-14)
(-0.346486 0.276647 2.16371e-14)
(-0.373502 0.204602 9.72944e-15)
(-0.383062 0.138125 2.29589e-14)
(-0.372568 0.106117 2.52863e-14)
(-0.303849 0.0789838 4.44091e-14)
(-0.368083 -0.067178 -1.30981e-14)
(-0.175748 0.147111 2.72437e-15)
(-0.166154 -0.108616 -6.16054e-15)
(-0.186906 -0.0978508 1.63279e-14)
(0.442647 0.55863 4.68977e-14)
(-0.486075 -1.04875 -1.42501e-15)
(0.200671 0.25289 -1.37974e-14)
(0.179347 0.0579209 -1.22388e-14)
(0.0594651 -0.0897104 1.49543e-14)
(0.056239 -0.0495497 3.65479e-15)
(0.0516293 -0.00971107 -1.00449e-15)
(0.0362857 -0.0320702 4.58995e-17)
(0.0162843 -0.0248911 -9.55179e-17)
(-0.0295978 -0.0229503 -2.10195e-16)
(-0.107397 -0.0242924 -4.13632e-15)
(-0.171808 -0.0287097 6.27971e-15)
(-0.195259 -0.0439178 2.60194e-14)
(-0.245589 -0.0687726 5.23084e-15)
(-0.360247 -0.0935819 -9.75636e-15)
(-0.57682 -0.159968 3.17912e-15)
(-0.677481 -0.149747 -3.19205e-16)
(-2.60015 -0.356864 -5.17608e-16)
(-0.278143 -0.193105 2.00856e-15)
(-0.0104968 -0.212333 2.67809e-16)
(0.23599 -0.241673 -1.50113e-15)
(0.25573 -0.308532 -1.15116e-15)
(0.232499 -0.374504 5.25296e-14)
(0.26109 -0.422903 -6.00681e-14)
(0.291804 -0.447721 -8.0535e-14)
(0.313553 -0.442886 1.49391e-13)
(0.336475 -0.427396 6.20973e-14)
(0.356335 -0.409045 8.58846e-14)
(0.369088 -0.388339 1.94861e-14)
(0.379466 -0.34992 9.26323e-16)
(0.380308 -0.293948 3.43219e-13)
(0.387549 -0.248415 1.07899e-14)
(0.342785 -0.18255 2.13736e-13)
(0.299183 -0.138394 -2.65992e-15)
(0.239592 -0.124938 -6.72718e-13)
(0.128779 -0.13533 4.10366e-13)
(-0.126345 -0.18024 9.20449e-13)
(-0.587845 -0.187783 1.69413e-13)
(-1.06179 -0.148264 -5.28116e-14)
(-1.32069 -0.132353 -2.18187e-14)
(-1.43269 0.0632532 1.30664e-13)
(-1.07797 0.492889 1.19458e-13)
(-0.843803 0.315708 -9.56129e-14)
(-2.99091 -0.835798 -1.21161e-14)
(-2.31243 -0.468003 -3.4658e-14)
(-0.138273 0.224082 1.29442e-14)
(0.395055 0.26518 -3.28706e-14)
(0.457971 0.122578 -8.76718e-14)
(0.507355 0.0265774 2.0648e-14)
(0.647479 -0.026311 1.54865e-13)
(-0.518838 0.014017 1.97622e-14)
(2.66692 -0.118459 1.15094e-13)
(-2.39174 0.556432 1.4933e-13)
(-5.22193 0.422992 4.08131e-14)
(34.4971 -6.84332 -5.99137e-14)
(-2.15841 1.04895 -6.06743e-15)
(-46.3775 16.3571 1.92327e-14)
(-0.456828 -0.197481 2.52414e-14)
(-0.501539 -0.143269 -3.87635e-14)
(-0.530093 -0.115027 -4.93093e-14)
(-0.546048 -0.151799 -1.15431e-14)
(-0.478725 -0.199905 1.03768e-14)
(-0.310573 -0.189313 -1.15252e-13)
(-0.138659 -0.116566 2.83184e-14)
(-0.0865765 -0.0727789 -1.50371e-13)
(-0.0692635 -0.01426 -1.25617e-13)
(-0.0880537 0.0770111 -1.1287e-13)
(-0.155214 0.159705 1.14393e-13)
(-0.253588 0.172993 1.05139e-13)
(-0.327975 0.132748 -6.29475e-14)
(-0.361191 0.0794327 -1.43931e-13)
(-0.365687 0.0289258 3.95505e-14)
(-0.35694 -0.00175996 6.70902e-14)
(-0.340029 -0.0357802 -1.7946e-14)
(-0.293083 -0.103982 -8.67618e-14)
(-0.28112 -0.107512 -2.46913e-14)
(-0.179641 -0.165611 2.38495e-15)
(-0.101872 -0.165887 -1.81566e-14)
(-0.146091 -0.205837 -3.68743e-14)
(0.20726 -0.0615053 8.10479e-15)
(-0.00386326 -0.221074 -6.8766e-16)
(0.0650075 -0.0614145 1.50189e-15)
(0.0835124 -0.0290859 -6.09161e-15)
(0.0672622 -0.0288117 -1.1351e-14)
(0.0381965 -0.0408046 2.34141e-15)
(0.0120465 -0.0165255 3.66986e-16)
(-0.0278865 -0.0137058 -1.02293e-15)
(-0.0829069 -0.0129099 1.20707e-16)
(-0.142172 -0.0150422 4.01761e-15)
(-0.189708 -0.0162168 -4.37285e-15)
(-0.212918 -0.0118534 -7.13205e-15)
(-0.217236 -0.012688 9.18257e-16)
(-0.209037 -0.0177028 -1.86605e-16)
(-0.192451 -0.0359757 2.51053e-15)
(-0.117867 0.0116112 4.42093e-15)
(-2.96416 -0.710551 -2.30877e-14)
(-0.541769 0.020656 1.0884e-14)
(-0.346519 -0.0303674 3.4144e-15)
(-0.135546 -0.0815143 6.18507e-16)
(-0.127808 -0.107142 -6.20108e-15)
(-0.143977 -0.14463 3.80607e-16)
(-0.117389 -0.17553 -1.33666e-14)
(-0.0912124 -0.189473 9.74942e-14)
(-0.0715114 -0.168584 2.7509e-14)
(-0.0439385 -0.148836 -2.39236e-13)
(-0.0134396 -0.130806 8.06857e-14)
(0.0134648 -0.112078 2.60848e-13)
(0.0432825 -0.0956022 3.28646e-13)
(0.0834555 -0.0859152 7.56824e-14)
(0.124035 -0.0787331 -3.74876e-13)
(0.144857 -0.0626361 -9.46573e-14)
(0.17759 -0.0605351 -9.27173e-14)
(0.199916 -0.0818566 -1.7488e-13)
(0.171068 -0.13695 -3.66748e-13)
(0.0333843 -0.213639 -6.3555e-13)
(-0.167704 -0.347447 1.5956e-13)
(-0.397777 -0.479284 -1.21294e-13)
(-0.553088 -0.518163 -1.87233e-13)
(-0.686244 -0.51395 -1.16191e-15)
(-0.897853 -0.226332 -2.43083e-13)
(-0.458922 0.116171 -4.18303e-14)
(-0.160987 0.0246735 3.68975e-14)
(-1.14513 -0.054929 4.23203e-14)
(-1.06572 0.0658627 -1.85679e-14)
(-0.528039 0.131528 2.57389e-14)
(-0.095624 0.113725 4.7383e-14)
(0.28582 0.0429897 -4.79398e-14)
(0.552177 -0.00800066 2.02811e-14)
(-0.158307 -0.0841113 1.5418e-13)
(1.60788 0.092986 1.01882e-13)
(-0.299055 0.0615574 -1.92962e-14)
(-3.35006 -0.244191 -1.27377e-13)
(17.6141 -5.23058 -3.09506e-14)
(-16.7051 4.19203 -1.11243e-14)
(-63.7988 17.5599 1.81898e-14)
(-0.665209 0.00378641 -2.2416e-15)
(-0.686188 -0.01923 -3.92723e-14)
(-0.631458 -0.0577832 -3.51193e-14)
(-0.583621 -0.109221 -3.06905e-14)
(-0.47726 -0.150903 1.19533e-13)
(-0.309887 -0.145476 2.00901e-13)
(-0.167679 -0.102673 1.35526e-14)
(-0.121853 -0.0643913 1.44519e-13)
(-0.101151 -0.00913704 -2.64949e-15)
(-0.1119 0.0637539 -3.4194e-14)
(-0.157447 0.125402 -8.58014e-14)
(-0.221084 0.146783 -3.02047e-14)
(-0.275132 0.133868 -1.81047e-14)
(-0.306757 0.104911 7.27556e-14)
(-0.317944 0.0707229 -3.83559e-14)
(-0.313005 0.0357566 -1.25569e-13)
(-0.296963 0.00235205 -1.65923e-14)
(-0.269216 -0.0321429 8.10007e-14)
(-0.226308 -0.0705351 -2.76977e-15)
(-0.164332 -0.0934289 -2.23395e-14)
(-0.093094 -0.117828 -5.96554e-14)
(-0.0233501 -0.120688 2.39218e-14)
(0.0422359 -0.108305 3.10977e-14)
(0.0668214 -0.0379921 -5.53189e-15)
(0.0842428 -0.0718694 -2.16704e-15)
(0.0780747 -0.0347939 4.00724e-15)
(0.0677033 -0.010707 5.60747e-15)
(0.0435097 0.00730952 -1.13267e-15)
(0.013565 0.0128567 -1.66537e-16)
(-0.0271113 0.0239236 4.3863e-16)
(-0.0855339 0.0198659 -9.8539e-16)
(-0.149426 0.012695 -1.87142e-15)
(-0.205212 0.00197167 -1.12821e-15)
(-0.251124 -0.0142761 2.7975e-15)
(-0.293356 -0.0372037 6.1006e-15)
(-0.323539 -0.0679731 -3.44837e-15)
(-0.357517 -0.110666 -3.86516e-15)
(-0.32368 -0.139001 -4.23983e-16)
(-3.88663 -1.1355 -1.824e-14)
(-0.411981 0.112464 -9.27019e-15)
(-0.240072 0.0712849 5.53921e-15)
(-0.086487 -0.000954194 2.56914e-15)
(-0.0608977 -0.0364925 -1.4449e-14)
(-0.0465069 -0.0793926 -1.03375e-14)
(0.00652594 -0.115045 3.05678e-14)
(0.0424699 -0.133014 -1.31167e-14)
(0.0574325 -0.135238 1.46969e-14)
(0.0901584 -0.133625 -8.97953e-14)
(0.123366 -0.132303 -2.74646e-13)
(0.154546 -0.128539 -9.90426e-15)
(0.186437 -0.124123 -1.22423e-13)
(0.219079 -0.116162 -7.79799e-14)
(0.250814 -0.102381 -1.53167e-14)
(0.274764 -0.0829005 -3.19992e-13)
(0.296519 -0.0725751 2.94748e-13)
(0.269295 -0.043885 1.67629e-13)
(0.19371 -0.0650214 -3.70932e-13)
(0.0338303 -0.140601 1.24122e-13)
(-0.214951 -0.204818 -2.00399e-13)
(-0.439883 -0.256568 -1.34094e-13)
(-0.509873 -0.26344 2.53757e-13)
(-0.493867 -0.180846 1.48381e-14)
(-0.403779 -0.085202 2.21082e-13)
(-0.427084 0.0872383 9.85846e-14)
(-0.246342 0.165516 -2.16469e-14)
(-0.0298526 0.0937657 5.79039e-15)
(-0.017847 0.10352 2.2789e-14)
(-0.0301622 0.145418 -2.92018e-14)
(0.108768 0.0928754 -5.08501e-14)
(0.360094 0.018404 2.37749e-14)
(0.562241 0.00309566 -4.8455e-14)
(0.24598 -0.135697 -3.86427e-14)
(0.840856 0.2083 -1.24817e-13)
(-0.320044 -0.0666428 -2.22023e-13)
(-3.24786 -0.470468 4.50352e-14)
(14.2345 -3.90273 -2.65666e-14)
(-33.942 9.69593 2.49139e-14)
(-62.4173 13.9037 1.45638e-15)
(-0.543175 0.0945977 2.03331e-14)
(-0.576183 0.0621321 3.8417e-14)
(-0.536346 -0.00246903 -4.85259e-14)
(-0.472385 -0.0761883 -2.16342e-14)
(-0.38529 -0.119073 6.79041e-14)
(-0.268339 -0.122313 -1.48197e-13)
(-0.185391 -0.0917433 -9.96356e-14)
(-0.149252 -0.056641 1.91635e-13)
(-0.128166 -0.0109808 1.90437e-13)
(-0.130437 0.0440741 -5.43311e-15)
(-0.159439 0.0880879 -5.37337e-14)
(-0.201476 0.106172 -3.56327e-14)
(-0.240799 0.100176 1.15012e-13)
(-0.269247 0.0805179 -5.45382e-14)
(-0.283572 0.0538662 -1.24627e-14)
(-0.281896 0.0232526 9.32871e-14)
(-0.268775 -0.0075109 -4.19826e-14)
(-0.2453 -0.0369236 3.78578e-14)
(-0.207187 -0.0649038 2.31088e-14)
(-0.15258 -0.0871101 3.57634e-15)
(-0.0883119 -0.0987141 6.22199e-14)
(-0.0235183 -0.101527 -2.29355e-14)
(0.030315 -0.0901709 -4.15514e-14)
(0.0592792 -0.0669861 -6.88912e-15)
(0.0658561 -0.0469403 1.59608e-14)
(0.0650854 -0.0300472 1.6707e-16)
(0.057575 -0.017791 6.56466e-15)
(0.0365174 -0.00922705 -1.23264e-15)
(0.00680574 -0.00057688 -8.38584e-17)
(-0.0321253 0.00456578 2.07888e-16)
(-0.087827 0.00505268 3.75541e-16)
(-0.150815 0.00259166 1.11392e-15)
(-0.204527 -0.00404818 -1.91554e-15)
(-0.247867 -0.0122618 -7.91133e-15)
(-0.288649 -0.0263486 -3.22242e-15)
(-0.328589 -0.0477947 -8.82144e-16)
(-0.386296 -0.0729629 -3.44001e-15)
(-0.48038 -0.0770774 -6.09818e-15)
(-3.37241 -1.309 -1.09402e-15)
(-0.398227 0.181444 2.04463e-15)
(-0.26392 0.137234 -4.22347e-16)
(-0.143768 0.0748481 2.35817e-15)
(-0.119769 0.0391696 -2.81818e-15)
(-0.103959 0.00112425 9.24344e-15)
(-0.0722321 -0.0292636 -2.75626e-15)
(-0.0499277 -0.0217984 -3.7935e-14)
(-0.0246645 -0.0151929 7.36008e-14)
(0.00590516 -0.00971989 1.59891e-13)
(0.038949 -0.00279353 -1.00262e-13)
(0.0723109 0.00589557 -1.02554e-13)
(0.108046 0.0151682 6.32124e-14)
(0.146035 0.0268705 -1.42865e-13)
(0.18341 0.0400972 -2.39999e-14)
(0.216383 0.051385 -4.43354e-14)
(0.233307 0.0577232 2.09225e-14)
(0.231994 0.033106 4.14389e-14)
(0.189336 -0.0426548 4.379e-13)
(0.0474373 -0.142994 3.53072e-13)
(-0.19011 -0.252926 -1.53086e-13)
(-0.41211 -0.313412 2.17252e-13)
(-0.484556 -0.286679 2.05709e-14)
(-0.441458 -0.197305 -6.49559e-14)
(-0.414837 -0.0499518 -1.26405e-13)
(-0.374881 0.103711 9.95254e-15)
(-0.182733 0.103089 2.97468e-14)
(0.0196166 0.0417378 3.69688e-14)
(0.113821 0.0722217 -3.48914e-14)
(0.1574 0.117697 8.42056e-15)
(0.293599 0.0809326 6.99049e-14)
(0.544155 0.0160128 -2.8291e-14)
(0.723249 -0.00804989 -1.53434e-13)
(0.322985 -0.161671 -7.70219e-14)
(0.892662 0.272919 -6.59595e-14)
(-0.698646 -0.0168634 5.49427e-14)
(-1.41827 -1.08032 4.19809e-14)
(14.4852 -2.22744 5.5339e-14)
(-45.9131 14.5769 3.97136e-14)
(-54.2315 10.9457 -8.38505e-16)
(-0.499088 0.149003 -9.1093e-15)
(-0.477964 0.0623689 -1.13847e-14)
(-0.434713 -0.0272528 2.34279e-15)
(-0.41674 -0.087442 3.4816e-14)
(-0.361738 -0.0908271 2.96308e-14)
(-0.291745 -0.079286 -1.93584e-13)
(-0.244862 -0.0664007 -1.16735e-13)
(-0.215955 -0.0524041 -1.74528e-13)
(-0.195279 -0.022326 2.70818e-14)
(-0.189013 0.0115188 2.07054e-14)
(-0.201001 0.0392385 -5.30158e-14)
(-0.22284 0.0521587 4.88378e-15)
(-0.245083 0.0491562 -2.40907e-14)
(-0.262048 0.0360361 -4.39237e-14)
(-0.26955 0.0188529 -1.37311e-13)
(-0.265003 -0.00205178 -1.19124e-14)
(-0.250094 -0.0262774 8.23146e-14)
(-0.224269 -0.0484901 -1.27569e-14)
(-0.186944 -0.068413 1.58067e-14)
(-0.136947 -0.0864537 -2.83185e-14)
(-0.0772451 -0.0988232 -4.29086e-14)
(-0.0157151 -0.103959 -3.44794e-15)
(0.0354993 -0.0966705 1.52348e-14)
(0.0633028 -0.0779339 1.63586e-14)
(0.0699806 -0.0583048 -9.62173e-16)
(0.069229 -0.0400019 -7.26062e-15)
(0.0615976 -0.0255726 -1.22042e-14)
(0.0404711 -0.015672 2.35227e-15)
(0.0101746 -0.00665051 3.05047e-17)
(-0.0288409 8.03871e-05 -1.95826e-16)
(-0.0842853 0.00100773 -3.64078e-16)
(-0.147423 -0.00833544 -1.0487e-15)
(-0.202003 -0.0192561 1.85491e-15)
(-0.244869 -0.034046 6.86085e-15)
(-0.284722 -0.0546858 2.17568e-15)
(-0.3218 -0.0826678 -1.5399e-16)
(-0.381022 -0.118697 4.91164e-15)
(-0.474174 -0.156781 7.1639e-15)
(-1.84441 -0.672549 -9.51323e-15)
(-0.298138 0.15493 8.79578e-16)
(-0.188102 0.129857 -2.81091e-16)
(-0.088533 0.0670808 1.9399e-17)
(-0.0643273 0.0330053 3.25714e-15)
(-0.0516623 -0.00906934 -6.46527e-15)
(-0.0304656 -0.0420826 -1.67647e-14)
(-0.0152996 -0.0516634 4.2212e-14)
(-0.000644106 -0.0496378 -9.88681e-15)
(0.0200134 -0.0469907 4.96649e-14)
(0.0439108 -0.0413465 9.8088e-14)
(0.0706372 -0.0327334 2.02597e-14)
(0.102022 -0.0214879 3.20676e-14)
(0.136015 -0.0069281 2.07347e-13)
(0.170307 0.00870293 3.54865e-13)
(0.200708 0.0217196 3.21282e-13)
(0.217575 0.0238561 -5.77559e-15)
(0.209471 0.0020876 3.92011e-13)
(0.141885 -0.0326903 1.7652e-14)
(0.00321144 -0.106609 -1.1596e-13)
(-0.219847 -0.201478 1.56229e-13)
(-0.426008 -0.261302 -2.60266e-13)
(-0.483742 -0.243808 1.07084e-13)
(-0.433299 -0.157476 1.19339e-13)
(-0.404499 -0.033257 4.07284e-14)
(-0.341409 0.0824872 1.17207e-13)
(-0.169472 0.105553 -4.71285e-14)
(0.00556058 0.0590032 -3.94813e-14)
(0.102397 0.0737328 5.56883e-15)
(0.148685 0.108005 2.53498e-14)
(0.302392 0.0837335 -6.52444e-14)
(0.580148 0.0226999 -6.3094e-14)
(0.792744 -0.0175565 1.22251e-13)
(0.322423 -0.16855 2.68293e-14)
(1.15748 0.300145 -4.7482e-14)
(-0.227802 -0.0826609 1.10366e-14)
(-0.833397 -1.67064 -1.09803e-13)
(11.8204 0.364804 -3.54103e-14)
(-49.9739 17.6535 -1.34716e-14)
(-30.7455 3.30444 -1.53737e-14)
(-0.379031 0.0669052 -6.55647e-15)
(-0.406103 0.0276429 -1.1929e-14)
(-0.374406 0.0292873 6.25357e-15)
(-0.417118 0.00609839 8.08229e-14)
(-0.414027 -0.0143203 3.49564e-14)
(-0.352093 -0.0339318 3.91181e-15)
(-0.311092 -0.0441833 1.76219e-13)
(-0.29019 -0.042011 -8.5328e-14)
(-0.270415 -0.0277505 -1.36443e-13)
(-0.259051 -0.0116058 4.67388e-14)
(-0.258925 0.00130345 9.58676e-14)
(-0.265517 0.00668133 -2.29109e-14)
(-0.272759 0.0028474 6.55812e-14)
(-0.276942 -0.00804915 8.14058e-15)
(-0.274779 -0.0221346 3.37551e-14)
(-0.263878 -0.0374284 1.3003e-14)
(-0.244182 -0.0549527 -3.6869e-14)
(-0.215827 -0.0730477 3.0657e-14)
(-0.178108 -0.090831 -2.28638e-14)
(-0.128863 -0.106941 3.56417e-15)
(-0.0711598 -0.118511 5.94319e-14)
(-0.0120826 -0.123042 -2.03453e-14)
(0.036612 -0.115914 -2.70605e-14)
(0.0635166 -0.097192 5.79601e-15)
(0.0710174 -0.0748864 -1.18037e-15)
(0.0711443 -0.0534176 2.05382e-15)
(0.0643175 -0.0358523 6.30446e-15)
(0.0435159 -0.022484 -1.06694e-15)
(0.0130481 -0.0103068 2.55621e-17)
(-0.025842 -0.000437246 1.13504e-16)
(-0.0808782 0.0018369 -7.41813e-16)
(-0.142891 0.000349581 3.06087e-16)
(-0.198634 -0.00646789 2.09041e-15)
(-0.241118 -0.0177486 -3.12327e-16)
(-0.281322 -0.0344272 -4.78575e-16)
(-0.316663 -0.0604643 8.55575e-16)
(-0.383041 -0.0998906 -1.03795e-15)
(-0.439891 -0.133842 1.37602e-15)
(-1.1275 -0.255676 -1.91666e-14)
(-0.233863 0.121419 2.85328e-15)
(-0.141369 0.111805 -3.16796e-15)
(-0.057512 0.0682372 5.69917e-16)
(-0.0345235 0.0400064 1.99747e-16)
(-0.0257701 0.0033904 -5.479e-16)
(-0.0122876 -0.0261134 2.93869e-15)
(-0.00292919 -0.0358818 7.84006e-15)
(0.0062513 -0.0346675 -1.03129e-13)
(0.0214175 -0.0310709 -1.24352e-14)
(0.0408026 -0.0237157 1.60268e-13)
(0.0627504 -0.0134396 -6.75407e-14)
(0.0893866 0.000955528 -1.46138e-13)
(0.120795 0.0183956 -2.86904e-13)
(0.154357 0.0351186 -2.38949e-13)
(0.185274 0.0467472 -1.64271e-13)
(0.203286 0.0450953 -6.14072e-14)
(0.193612 0.025268 -2.2052e-13)
(0.139245 -0.0309116 -3.0277e-13)
(-0.000161938 -0.130545 -1.44586e-13)
(-0.220694 -0.240154 3.55818e-13)
(-0.420083 -0.295573 3.29398e-13)
(-0.473104 -0.264063 -2.84513e-14)
(-0.404873 -0.165123 -4.85923e-14)
(-0.367077 -0.0448913 -1.59505e-13)
(-0.329998 0.0591274 -8.93224e-14)
(-0.176417 0.0877307 4.10522e-14)
(0.000702755 0.0629533 3.07413e-14)
(0.0987711 0.0676089 3.5047e-15)
(0.132548 0.0891094 -1.83259e-14)
(0.273561 0.0809141 6.78734e-14)
(0.546848 0.0291285 1.42911e-13)
(0.769523 -0.0178477 -5.24802e-15)
(0.323634 -0.182502 1.96962e-14)
(1.10964 0.319703 3.97606e-14)
(0.464725 -0.19585 -2.37015e-14)
(-1.4006 -1.91652 1.14106e-13)
(8.38262 2.87539 4.50635e-14)
(-37.5892 15.7336 -1.04943e-14)
(17.0929 -12.5194 5.47874e-15)
(-0.301058 0.129501 1.66148e-14)
(-0.377448 0.148585 2.0434e-14)
(-0.406553 0.111359 7.17572e-15)
(-0.403305 0.0638389 1.00324e-13)
(-0.36971 0.0156866 -1.73101e-13)
(-0.309793 -0.0191979 8.63794e-14)
(-0.280638 -0.0226872 1.48795e-13)
(-0.26778 -0.019163 6.934e-14)
(-0.256007 -0.010012 -3.48736e-14)
(-0.250311 -0.0017243 -3.36056e-14)
(-0.252035 0.00471796 2.18595e-14)
(-0.257721 0.00672146 3.61747e-14)
(-0.262863 0.00268406 -8.62798e-14)
(-0.265503 -0.00650374 6.31778e-14)
(-0.262603 -0.0193674 1.5799e-14)
(-0.251623 -0.0340697 -1.11736e-14)
(-0.232988 -0.0499519 -5.48013e-14)
(-0.205769 -0.0678525 -5.49027e-14)
(-0.168602 -0.0849409 4.58423e-14)
(-0.121449 -0.100791 1.34688e-14)
(-0.0666606 -0.112918 4.50263e-15)
(-0.0109615 -0.118179 4.65398e-14)
(0.0343975 -0.112563 1.85056e-14)
(0.0594995 -0.0960093 -2.18219e-15)
(0.067084 -0.0750073 5.52382e-15)
(0.0680306 -0.0542892 -3.65748e-15)
(0.0623023 -0.0367593 -7.24308e-15)
(0.0422841 -0.0228133 1.12629e-15)
(0.0122005 -0.0101267 -7.99877e-16)
(-0.0260442 0.000110083 2.26495e-17)
(-0.0800143 0.0035347 8.43351e-16)
(-0.141186 -0.000701754 -7.91484e-16)
(-0.197241 -0.0103978 -3.89978e-15)
(-0.238769 -0.0260661 -3.74118e-15)
(-0.278321 -0.0476833 -2.34823e-15)
(-0.312534 -0.0792645 -4.67097e-16)
(-0.385032 -0.122645 -5.59485e-16)
(-0.411566 -0.176136 7.66921e-15)
(-0.905163 -0.141977 2.0704e-14)
(-0.226892 0.192734 7.51587e-16)
(-0.148091 0.148041 1.815e-15)
(-0.0809191 0.109592 -2.28741e-15)
(-0.0509017 0.0882299 2.20012e-15)
(-0.0380359 0.0571862 -8.84215e-15)
(-0.0232862 0.0344004 1.13798e-14)
(-0.0094377 0.0282546 -1.29203e-14)
(0.00498839 0.0307419 -2.14903e-14)
(0.0246817 0.0355823 -3.16775e-14)
(0.049279 0.0435873 -4.35783e-14)
(0.0764322 0.0533306 1.81135e-14)
(0.107127 0.0640575 1.71072e-13)
(0.141294 0.0744887 2.30845e-13)
(0.176335 0.0822071 3.71635e-14)
(0.207904 0.0830855 6.76901e-15)
(0.22567 0.0697084 1.2839e-14)
(0.215741 0.0344127 -4.08043e-14)
(0.155945 -0.025574 1.26865e-13)
(0.0139831 -0.121107 1.14873e-13)
(-0.210725 -0.224293 -2.75485e-13)
(-0.415618 -0.273141 -2.9573e-14)
(-0.461947 -0.236954 5.93491e-14)
(-0.381016 -0.140646 -7.06423e-14)
(-0.338274 -0.0355297 8.27944e-14)
(-0.311502 0.0452208 3.2462e-16)
(-0.174055 0.0704559 -1.38047e-14)
(-0.00103456 0.0555042 -3.95414e-14)
(0.101828 0.0509588 1.79316e-15)
(0.134288 0.0665643 -1.34624e-16)
(0.268366 0.0747501 3.46792e-14)
(0.529163 0.0328523 1.45734e-14)
(0.735476 -0.0181707 -6.56765e-14)
(0.351064 -0.191593 -2.41516e-14)
(0.893349 0.319319 1.35651e-13)
(0.855471 -0.272579 2.64307e-14)
(-1.73993 -1.87377 -5.32214e-14)
(5.88779 4.3662 -2.49914e-14)
(-14.7214 9.61956 1.1157e-14)
(50.171 -20.8043 -1.76847e-14)
(-0.316271 0.215708 3.54083e-15)
(-0.360986 0.174743 -4.87348e-14)
(-0.359286 0.0933957 2.23431e-14)
(-0.331457 0.0200132 2.24236e-14)
(-0.274207 -0.00528839 4.62839e-14)
(-0.234159 -0.0098387 -1.57266e-14)
(-0.219271 -0.00826449 -3.39647e-14)
(-0.21346 -0.00282969 -4.2605e-15)
(-0.20941 0.0061817 -4.38633e-15)
(-0.210393 0.0140551 1.243e-14)
(-0.217158 0.0192379 3.7833e-14)
(-0.226331 0.0209104 6.34211e-14)
(-0.234274 0.0176919 -3.31428e-15)
(-0.239559 0.00999999 -1.30958e-13)
(-0.239196 -0.00138907 2.50661e-14)
(-0.231049 -0.0157089 7.31693e-14)
(-0.215287 -0.0319563 5.57709e-14)
(-0.190467 -0.0493895 2.53899e-14)
(-0.156227 -0.0672308 -2.04371e-14)
(-0.112415 -0.0840237 -5.2447e-15)
(-0.061476 -0.0976283 -2.12559e-14)
(-0.00998834 -0.104831 -3.89708e-14)
(0.0313258 -0.102001 1.5813e-14)
(0.0538182 -0.0889501 1.49027e-14)
(0.0606848 -0.0710001 2.47704e-15)
(0.0620429 -0.0527252 1.36517e-14)
(0.0572565 -0.0367507 4.46839e-15)
(0.0381114 -0.0235974 -8.61856e-16)
(0.00870989 -0.011573 6.4399e-16)
(-0.0285095 -0.00158468 -1.27641e-16)
(-0.0810334 0.00124444 1.15125e-16)
(-0.140508 -0.00193005 2.78288e-17)
(-0.196519 -0.0109424 2.06118e-15)
(-0.236901 -0.0260244 1.37856e-15)
(-0.275484 -0.0464811 -2.20122e-15)
(-0.309094 -0.0787231 1.34921e-16)
(-0.382537 -0.120989 3.83209e-15)
(-0.40707 -0.18318 -4.80077e-15)
(-0.851271 -0.172355 -4.48931e-15)
(-0.233209 0.221498 3.78029e-15)
(-0.161774 0.181338 -1.28178e-15)
(-0.0996629 0.140783 -3.33209e-15)
(-0.06632 0.119967 -3.0006e-15)
(-0.0484599 0.0889711 1.29452e-14)
(-0.0315656 0.0668988 -1.65726e-14)
(-0.0144617 0.0610067 -4.32607e-15)
(0.0033501 0.0624854 3.20474e-14)
(0.0250814 0.0667584 1.82486e-14)
(0.051089 0.074328 3.45182e-14)
(0.079063 0.083506 7.6198e-14)
(0.109889 0.0935143 6.2372e-14)
(0.143645 0.102805 -1.46449e-13)
(0.177893 0.10864 -2.35745e-13)
(0.208112 0.105999 4.02239e-14)
(0.224262 0.0885098 3.00599e-13)
(0.213804 0.0513174 6.29565e-14)
(0.155529 -0.0126992 -1.71112e-13)
(0.0213158 -0.113575 -2.95879e-14)
(-0.192823 -0.222528 3.4561e-14)
(-0.391787 -0.272969 -6.99615e-14)
(-0.435776 -0.231405 -8.58911e-14)
(-0.350606 -0.133234 6.33875e-15)
(-0.307935 -0.0361136 6.38524e-14)
(-0.292413 0.0333304 5.81534e-14)
(-0.171337 0.0620164 -3.13736e-15)
(-0.00217042 0.0564704 3.34702e-14)
(0.103525 0.046635 5.94488e-15)
(0.139122 0.0568133 5.70046e-14)
(0.272359 0.0753574 -4.35581e-14)
(0.525541 0.0386091 -1.46427e-13)
(0.713691 -0.0190367 -4.80339e-14)
(0.387202 -0.192076 2.76545e-14)
(0.741501 0.2929 2.07304e-14)
(0.999591 -0.314354 -1.85827e-14)
(-1.76263 -1.6711 -1.77721e-14)
(4.41154 4.84606 1.27282e-14)
(1.51717 3.82648 -2.74478e-14)
(47.9842 -20.5428 1.46207e-14)
(-0.288837 0.193998 -8.52798e-15)
(-0.310639 0.113855 -7.77334e-15)
(-0.288619 0.0430037 -1.30624e-14)
(-0.277475 0.0125275 -1.89526e-14)
(-0.255613 0.00675714 3.01994e-14)
(-0.235703 0.00474265 -4.19917e-14)
(-0.2303 0.00155344 -1.79158e-14)
(-0.226895 0.0021044 6.44937e-14)
(-0.224769 0.00408156 -3.71821e-14)
(-0.224138 0.00576484 6.83325e-14)
(-0.22755 0.00693449 6.63706e-14)
(-0.232307 0.00657076 4.32404e-14)
(-0.235644 0.00337052 3.11111e-14)
(-0.236968 -0.00274302 4.72427e-14)
(-0.233531 -0.0117187 -1.3412e-14)
(-0.223198 -0.023403 3.26531e-15)
(-0.20623 -0.0372493 3.37428e-14)
(-0.181036 -0.0524927 2.55612e-14)
(-0.147188 -0.0685092 -2.42668e-15)
(-0.104682 -0.083892 -5.09922e-14)
(-0.056027 -0.0965462 -9.26832e-15)
(-0.00754339 -0.103281 2.53304e-16)
(0.0307394 -0.100822 -3.40881e-14)
(0.0512181 -0.0887585 3.68046e-15)
(0.057474 -0.0717322 -5.05312e-15)
(0.0590715 -0.0541937 -1.06383e-14)
(0.0549324 -0.0384557 8.02601e-16)
(0.0363334 -0.025092 7.65778e-17)
(0.00729899 -0.0129167 2.46408e-17)
(-0.0291864 -0.00275489 1.11674e-17)
(-0.0805159 0.000464584 -8.31119e-17)
(-0.138661 -0.00329197 -2.1184e-17)
(-0.194617 -0.0134271 8.19416e-16)
(-0.234179 -0.0305984 2.17133e-15)
(-0.271709 -0.0533431 1.39938e-15)
(-0.304651 -0.0891752 1.8402e-15)
(-0.376842 -0.13375 -8.8137e-15)
(-0.409348 -0.202854 -3.96044e-15)
(-0.816804 -0.24578 1.40989e-14)
(-0.211614 0.177518 -2.78373e-15)
(-0.143598 0.162479 8.17856e-16)
(-0.0850334 0.126174 4.02644e-15)
(-0.0510162 0.107645 3.36986e-15)
(-0.0322406 0.0790008 4.64953e-15)
(-0.0156185 0.057611 4.35251e-15)
(0.00082548 0.0513559 -1.63788e-14)
(0.0172192 0.0518226 -4.60012e-14)
(0.0370433 0.0556377 -4.26112e-14)
(0.0607843 0.0629013 -9.79263e-15)
(0.0858172 0.0718124 -5.52443e-14)
(0.112712 0.0818652 -1.7938e-14)
(0.141561 0.0913144 1.36164e-13)
(0.171472 0.0979877 6.85496e-14)
(0.198016 0.095751 -3.67791e-15)
(0.209701 0.0782903 -2.30708e-13)
(0.194287 0.0409196 -6.21346e-14)
(0.135575 -0.0222952 2.1156e-13)
(0.00742902 -0.113558 1.00649e-13)
(-0.198246 -0.216263 -4.80387e-14)
(-0.383264 -0.263076 -4.09691e-15)
(-0.417542 -0.220126 4.80532e-14)
(-0.325049 -0.125188 1.23713e-14)
(-0.280827 -0.0382867 -8.76706e-14)
(-0.273801 0.021766 -1.47817e-13)
(-0.164902 0.0535408 4.35541e-14)
(-0.00159777 0.056637 -7.99242e-15)
(0.104752 0.0449433 -8.93713e-15)
(0.143617 0.0515836 -3.19003e-14)
(0.275716 0.0766618 -2.6746e-14)
(0.521992 0.0431882 4.42164e-14)
(0.696055 -0.0207652 1.47043e-13)
(0.413944 -0.186447 4.37787e-14)
(0.678362 0.252129 -1.11872e-13)
(1.04957 -0.336989 1.47674e-14)
(-1.73821 -1.42438 -3.37769e-14)
(3.56431 4.75709 2.23954e-16)
(6.80725 0.501244 2.235e-14)
(30.5351 -17.5042 -9.9928e-17)
(-0.250285 0.126722 8.22701e-15)
(-0.265328 0.0846678 2.4852e-14)
(-0.264213 0.0648981 -5.73416e-14)
(-0.269079 0.0471033 -7.0577e-15)
(-0.261871 0.0305693 -1.1989e-13)
(-0.252741 0.0199241 8.63278e-15)
(-0.255517 0.0125515 3.32872e-14)
(-0.254743 0.00720821 -1.34125e-13)
(-0.253174 0.00209309 2.84224e-14)
(-0.251189 -0.00308638 -1.07394e-14)
(-0.25176 -0.00751039 -6.67585e-14)
(-0.252561 -0.0118443 -7.7068e-14)
(-0.251245 -0.0173328 -1.16784e-15)
(-0.247952 -0.0242637 5.8251e-14)
(-0.240157 -0.0327867 2.26453e-14)
(-0.225953 -0.0430559 -2.28928e-14)
(-0.205784 -0.0548859 -3.24743e-14)
(-0.178293 -0.0677013 -9.11069e-15)
(-0.143152 -0.0810647 1.71206e-14)
(-0.100439 -0.0938672 4.36081e-14)
(-0.0526741 -0.104276 4.3846e-14)
(-0.00600047 -0.109197 3.98195e-14)
(0.0302103 -0.105568 -1.81345e-15)
(0.0492991 -0.0930265 -3.64877e-14)
(0.0551541 -0.0758179 3.32767e-15)
(0.0570553 -0.0581775 -1.12308e-14)
(0.0535376 -0.042083 -6.63317e-15)
(0.0354645 -0.0281617 -9.96768e-16)
(0.0067335 -0.0155943 3.86891e-16)
(-0.0290937 -0.00503913 4.73703e-16)