/*--------------------------------*- C++ -*----------------------------------*\
| =========                 |                                                 |
| \\      /  F ield         | OpenFOAM: The Open Source CFD Toolbox           |
|  \\    /   O peration     | Version:  2312                                  |
|   \\  /    A nd           | Website:  www.openfoam.com                      |
|    \\/     M anipulation  |                                                 |
\*---------------------------------------------------------------------------*/
FoamFile
{
    version     2.0;
    format      ascii;
    arch        "LSB;label=32;scalar=64";
    class       surfaceScalarField;
    location    "300";
    object      phi;
}
// * * * * * * * * * * * * * * * * * * * * * * * * * * * * * * * * * * * * * //

dimensions      [0 3 -1 0 0 0 0];

oriented        oriented;

internalField   nonuniform List<scalar> 
21254
(
-0.226217
0.24592
-0.0197026
0.268001
-0.0220761
0.287156
-0.0191556
0.304352
-0.0171958
0.320648
-0.0162965
0.333775
-0.0131274
0.344206
-0.010432
0.352675
-0.00847016
0.358236
-0.00556262
0.361865
-0.00363128
0.363722
-0.00185894
0.36341
0.000310193
0.360989
0.00242073
0.356248
0.00474157
0.348948
0.00730274
0.339163
0.00978904
0.326546
0.0126221
0.311169
0.015381
0.293185
0.0179875
0.273756
0.0194319
0.254587
0.0191751
0.240404
0.0141851
0.236559
0.0038412
0.248076
-0.0115157
0.268728
-0.0206481
0.285979
-0.017261
0.292497
-0.00652872
0.289667
0.00282752
0.283706
0.00597104
0.275079
0.00864519
0.261526
0.0134717
0.239925
0.0212124
0.202194
0.0379483
0.135602
0.0676498
0.0496728
0.0855637
0.00889525
0.0378843
-0.00831977
0.0171988
0.05447
-0.0595101
0.0707319
-0.0166206
-0.203134
-0.0230786
-0.179157
-0.0239777
-0.149823
-0.0293332
-0.117741
-0.0320794
-0.0840101
-0.0337275
-0.0493195
-0.0346849
-0.0153253
-0.0339846
0.0161323
-0.0314424
0.0448339
-0.0286822
0.0700525
-0.0252059
0.0916348
-0.0215735
0.109926
-0.0182836
0.125255
-0.0153226
0.137997
-0.0127361
0.148876
-0.010874
0.158206
-0.00932577
0.166455
-0.00824495
0.173843
-0.00738495
0.180694
-0.00684968
0.187121
-0.0064261
0.193285
-0.00616468
0.199218
-0.00593385
0.204754
-0.00553767
0.209261
-0.00450816
0.212527
-0.00326574
0.214826
-0.00229818
0.216152
-0.00132432
0.216402
-0.00024647
0.215185
0.00122418
0.212361
0.00283963
0.207831
0.00455803
0.201531
0.0063457
0.193303
0.00827343
0.182957
0.0103532
0.170019
0.0128913
0.153831
0.0161937
0.135897
0.018048
0.141788
-0.00592956
0.167167
-0.0253338
-0.206266
0.227741
-0.0411738
0.249748
-0.0440808
0.272786
-0.04219
0.29434
-0.038749
0.315447
-0.0374022
0.335131
-0.0328117
0.352985
-0.0282858
0.369287
-0.0247732
0.383666
-0.0199421
0.396207
-0.0161734
0.407002
-0.0126547
0.416423
-0.00910927
0.424964
-0.00611892
0.432818
-0.00310827
0.439818
0.000307564
0.445565
0.00404907
0.449776
0.00841748
0.452213
0.0129509
0.451861
0.0183438
0.44836
0.0229289
0.440653
0.026865
0.42802
0.0267907
0.409203
0.0226276
0.382266
0.0153858
0.353473
0.00810777
0.333179
0.00301859
0.321463
0.00519543
0.312999
0.0113057
0.304504
0.0144046
0.295722
0.0172028
0.287268
0.0220237
0.280122
0.0288818
0.273938
0.0440357
0.252975
0.0877068
0.179126
0.159211
0.0797279
0.139554
0.0466342
0.0498779
0.0662369
-0.0788308
0.0481866
0.00119441
-0.184353
-0.0449877
-0.160896
-0.0474293
-0.133442
-0.0567825
-0.10442
-0.0610946
-0.0736076
-0.0645306
-0.0413934
-0.0668881
-0.00924549
-0.0661126
0.0213656
-0.0620261
0.0491253
-0.0564236
0.0738328
-0.0498987
0.0952979
-0.0430249
0.113901
-0.0368743
0.130074
-0.0314846
0.144039
-0.0266915
0.156259
-0.0230843
0.16703
-0.0200883
0.17665
-0.0178589
0.185427
-0.0161578
0.193607
-0.0150287
0.201302
-0.0141219
0.208689
-0.0135545
0.21578
-0.0130257
0.222521
-0.0122799
0.228525
-0.0105137
0.233485
-0.00822641
0.237626
-0.0064349
0.240945
-0.00463551
0.243693
-0.00297643
0.246255
-0.00130271
0.24876
0.000393183
0.251146
0.00224246
0.253294
0.00424506
0.25499
0.0065733
0.256021
0.00933321
0.256073
0.0129024
0.25381
0.0184251
0.251254
0.0207196
0.234176
0.0112261
0.211342
-0.0024152
-0.200281
0.222007
-0.0629002
0.24392
-0.0659873
0.267593
-0.0658617
0.289264
-0.0604196
0.309904
-0.0580433
0.329676
-0.052585
0.347285
-0.0458967
0.36312
-0.040611
0.376737
-0.033562
0.388389
-0.027828
0.398084
-0.0223518
0.405926
-0.0169512
0.411744
-0.0119356
0.41601
-0.00737014
0.418543
-0.00221995
0.420329
0.00226941
0.421363
0.00738906
0.422354
0.0119671
0.423287
0.0174174
0.424182
0.0220389
0.424523
0.0265271
0.422948
0.0283679
0.418127
0.0274472
0.408857
0.0246427
0.394599
0.0223511
0.374848
0.0227584
0.355092
0.0249462
0.339832
0.0265689
0.32678
0.0274154
0.314797
0.029044
0.303961
0.0328827
0.293066
0.040059
0.284301
0.0527779
0.281046
0.0908138
0.257385
0.182714
0.205573
0.192041
0.162762
0.0925472
0.103512
-0.0193621
0.0330472
0.0712985
-0.178427
-0.0668371
-0.154523
-0.0713291
-0.125956
-0.0853454
-0.0962737
-0.0907712
-0.0652839
-0.0955131
-0.0331545
-0.0990077
-0.00139367
-0.0978595
0.0282251
-0.0916291
0.0552577
-0.0834425
0.0797148
-0.0743445
0.10125
-0.0645507
0.120057
-0.0556725
0.136516
-0.0479364
0.150904
-0.0410724
0.163533
-0.0357068
0.174747
-0.0312972
0.184812
-0.027921
0.193999
-0.0253436
0.202509
-0.023541
0.210512
-0.0221277
0.218189
-0.0212358
0.225565
-0.0204051
0.232561
-0.0192786
0.238798
-0.0167522
0.24404
-0.0134683
0.248397
-0.0107887
0.251924
-0.00815489
0.254663
-0.00569747
0.256702
-0.00330824
0.258084
-0.000932055
0.258948
0.00144653
0.259365
0.00387778
0.259502
0.00644238
0.259533
0.00931202
0.259825
0.0126426
0.260175
0.018053
0.260872
0.0201274
0.250889
0.0212329
0.231545
0.0170012
-0.193029
0.215713
-0.0855809
0.238505
-0.0887747
0.263584
-0.0909391
0.286497
-0.0833319
0.308743
-0.0802884
0.330107
-0.0739488
0.349758
-0.0655479
0.367533
-0.0583865
0.383638
-0.0496677
0.397855
-0.0420446
0.410303
-0.0347991
0.420981
-0.027628
0.429953
-0.0209046
0.437286
-0.0146977
0.443336
-0.00826379
0.447665
-0.00205213
0.450342
0.00471942
0.451086
0.0112295
0.45022
0.0182884
0.447686
0.0245747
0.443662
0.0305472
0.438195
0.033827
0.431057
0.0345719
0.422903
0.0327823
0.414581
0.0306567
0.404496
0.0328249
0.390813
0.0386175
0.375303
0.0420808
0.359494
0.0431567
0.34341
0.0449263
0.327908
0.048351
0.312795
0.0553083
0.297553
0.0680225
0.28897
0.0994166
0.285215
0.186337
0.269244
0.208186
0.232361
0.129248
0.129655
0.0832951
0.0195788
0.180987
-0.170628
-0.0892321
-0.146637
-0.0953154
-0.117544
-0.114432
-0.0876991
-0.12061
-0.0566036
-0.1266
-0.024299
-0.131302
0.00735343
-0.129499
0.0365867
-0.12085
0.0632454
-0.110091
0.0873757
-0.0984658
0.108647
-0.0858145
0.127327
-0.0743449
0.143846
-0.0644485
0.158452
-0.0556728
0.17147
-0.0487195
0.183125
-0.0429486
0.193716
-0.0385107
0.203424
-0.0350514
0.212477
-0.0325967
0.221015
-0.0306693
0.229146
-0.0293711
0.236935
-0.0281983
0.244333
-0.0266805
0.251002
-0.0234228
0.256695
-0.0191607
0.261478
-0.0155679
0.265399
-0.0120668
0.268514
-0.00879362
0.270874
-0.0056322
0.272554
-0.00255254
0.27357
0.000502814
0.273924
0.0035754
0.273621
0.00674867
0.272763
0.0101812
0.271433
0.0140094
0.269609
0.0198533
0.267325
0.0225189
0.259474
0.0290915
0.244927
0.0316015
-0.189369
0.212888
-0.109097
0.236564
-0.112445
0.26304
-0.117414
0.286702
-0.106993
0.309926
-0.103514
0.332329
-0.0963535
0.352795
-0.0860163
0.371439
-0.0770335
0.388544
-0.0667758
0.403463
-0.0569665
0.416578
-0.0479162
0.427822
-0.0388724
0.437466
-0.0305473
0.445193
-0.0224214
0.451186
-0.0142521
0.45544
-0.00629955
0.45819
0.00197548
0.459537
0.00988887
0.459273
0.0185576
0.457621
0.0262281
0.454291
0.0338738
0.449103
0.0390067
0.441854
0.0418059
0.433154
0.0414615
0.42426
0.0395221
0.4159
0.0411564
0.407829
0.0466779
0.398912
0.0510105
0.388409
0.053525
0.376173
0.0567445
0.362655
0.0618671
0.347387
0.0707743
0.329199
0.086204
0.310822
0.117844
0.300752
0.196295
0.29375
0.215292
0.262337
0.16044
0.137237
0.208041
0.0110897
0.306767
-0.165917
-0.112679
-0.141198
-0.120031
-0.110844
-0.144781
-0.0801423
-0.151306
-0.0483098
-0.158425
-0.0153579
-0.164245
0.0167204
-0.161567
0.0460293
-0.150148
0.0725721
-0.136624
0.0965294
-0.122414
0.117599
-0.106876
0.136145
-0.0928821
0.152667
-0.0809619
0.16738
-0.0703785
0.180605
-0.0619376
0.192608
-0.054946
0.203567
-0.0494665
0.213669
-0.0451526
0.223111
-0.042039
0.232031
-0.0395916
0.240521
-0.0378634
0.24862
-0.0362995
0.2563
-0.0343624
0.263274
-0.0303973
0.269279
-0.0251645
0.274357
-0.0206408
0.278542
-0.0162417
0.281888
-0.0121205
0.284437
-0.00814405
0.286234
-0.00428877
0.287321
-0.000509916
0.287747
0.00320346
0.287509
0.00699058
0.286671
0.0110299
0.285282
0.0154388
0.283215
0.0218953
0.279925
0.0259206
0.27206
0.0369543
0.258737
0.0449747
-0.186378
0.210912
-0.133629
0.235897
-0.137426
0.263744
-0.145261
0.288598
-0.131847
0.312833
-0.127749
0.336584
-0.120106
0.358007
-0.107441
0.377915
-0.0969429
0.396004
-0.084867
0.412156
-0.0731205
0.426605
-0.0623662
0.439169
-0.051437
0.450074
-0.0414501
0.459316
-0.0316587
0.466775
-0.0217058
0.47279
-0.0123076
0.476995
-0.00222272
0.479466
0.00742357
0.480285
0.0177427
0.479224
0.0272889
0.476214
0.0368785
0.471223
0.043987
0.464055
0.0489591
0.455158
0.050338
0.445535
0.0491141
0.436068
0.0505911
0.426996
0.0557425
0.417892
0.0601383
0.4081
0.0631543
0.397346
0.0669847
0.386102
0.0731357
0.373594
0.0835491
0.358798
0.10098
0.340434
0.13627
0.323964
0.212668
0.313227
0.226141
0.277662
0.195779
0.139514
0.345791
0.00662164
0.439322
-0.161959
-0.137092
-0.136422
-0.145564
-0.104756
-0.176442
-0.0729092
-0.183147
-0.0400704
-0.191257
-0.00617984
-0.198126
0.0266449
-0.194381
0.05634
-0.179833
0.0830108
-0.163285
0.106944
-0.146339
0.127898
-0.127821
0.146286
-0.111262
0.16271
-0.0973769
0.177432
-0.0850922
0.190758
-0.0752566
0.202949
-0.0671314
0.214169
-0.0606834
0.224619
-0.0556009
0.234426
-0.051845
0.243719
-0.0488862
0.252591
-0.0467374
0.261063
-0.0447731
0.269086
-0.0423871
0.27647
-0.0377811
0.282881
-0.0315738
0.288314
-0.0260696
0.29286
-0.0207779
0.296518
-0.0157588
0.299348
-0.0109372
0.301398
-0.00627566
0.302703
-0.00173832
0.303274
0.0026882
0.303114
0.0071542
0.302346
0.0118081
0.300927
0.0169002
0.298808
0.0239887
0.295335
0.0295068
0.287559
0.0447239
0.274124
0.0584797
-0.184652
0.21051
-0.159484
0.236539
-0.163449
0.265949
-0.174669
0.292066
-0.157964
0.317542
-0.153225
0.342357
-0.144922
0.364924
-0.13001
0.385658
-0.117678
0.404758
-0.103969
0.421806
-0.0901702
0.437037
-0.0775983
0.450588
-0.0649876
0.462333
-0.0531929
0.472344
-0.0416661
0.480693
-0.0300487
0.487216
-0.0188234
0.492058
-0.00705851
0.495153
0.0043344
0.496542
0.0163581
0.496139
0.0276912
0.493891
0.0391207
0.489647
0.0482205
0.483436
0.0551566
0.475405
0.0583496
0.466426
0.0580662
0.457223
0.0597646
0.44799
0.0649676
0.438412
0.0697443
0.428025
0.0733829
0.416704
0.0777922
0.405261
0.0845961
0.393225
0.0958344
0.380394
0.113788
0.365964
0.150792
0.350918
0.227633
0.337569
0.239609
0.293512
0.239541
0.147182
0.491566
0.0279248
0.558785
-0.159026
-0.162712
-0.132381
-0.172204
-0.0992562
-0.209561
-0.0660871
-0.216309
-0.0320285
-0.225308
0.00311119
-0.233256
0.0369296
-0.228189
0.067314
-0.210208
0.0943607
-0.190323
0.118481
-0.170451
0.139414
-0.148746
0.157705
-0.129545
0.174032
-0.113697
0.188698
-0.0997502
0.202036
-0.0885889
0.214331
-0.0794217
0.22576
-0.0721086
0.236464
-0.0663037
0.246581
-0.0619612
0.256203
-0.0585094
0.265404
-0.0559396
0.274196
-0.0535675
0.282562
-0.0507543
0.290251
-0.0454708
0.297036
-0.0383571
0.302839
-0.0318684
0.307687
-0.0256164
0.311636
-0.0196888
0.314701
-0.0139642
0.31696
-0.00847069
0.318412
-0.00311031
0.3191
0.0020575
0.319033
0.00722477
0.318272
0.0125791
0.31688
0.0183363
0.314692
0.026151
0.311109
0.0332037
0.304021
0.0518025
0.29067
0.0719391
-0.1836
0.21079
-0.186671
0.238242
-0.190898
0.269328
-0.205754
0.296643
-0.185279
0.3234
-0.179981
0.349455
-0.170977
0.373028
-0.153584
0.394951
-0.139602
0.414854
-0.123872
0.432817
-0.108134
0.449076
-0.0938575
0.463476
-0.0793861
0.476095
-0.0658089
0.48706
-0.0526257
0.496316
-0.0392975
0.50383
-0.0263297
0.509644
-0.0128643
0.513688
0.00029708
0.515872
0.0141787
0.516152
0.0274116
0.514513
0.0407528
0.510787
0.0519359
0.504989
0.0609413
0.497439
0.0658797
0.48878
0.0667
0.47971
0.068806
0.470464
0.0742065
0.46073
0.079509
0.449977
0.083982
0.438097
0.0891555
0.425909
0.0967977
0.41311
0.108877
0.399686
0.127187
0.386886
0.163717
0.375003
0.239446
0.362269
0.252441
0.315341
0.286102
0.180501
0.625905
0.0915883
0.647951
-0.156742
-0.189565
-0.128933
-0.200009
-0.0940878
-0.244401
-0.0593903
-0.251
-0.0238877
-0.260802
0.0126265
-0.269761
0.0476753
-0.263228
0.078959
-0.241483
0.106572
-0.217928
0.131019
-0.19489
0.152067
-0.169786
0.170321
-0.147792
0.186565
-0.129935
0.201146
-0.114326
0.21444
-0.101878
0.226794
-0.0917724
0.238324
-0.0836364
0.249214
-0.0771936
0.259565
-0.0723119
0.26947
-0.0684161
0.278961
-0.0654329
0.288084
-0.0626932
0.296778
-0.0594501
0.304836
-0.0535301
0.311991
-0.0455119
0.318163
-0.0380359
0.323367
-0.0308115
0.327642
-0.0239435
0.330992
-0.0172754
0.333477
-0.0108905
0.335145
-0.00469636
0.33598
0.00128181
0.336011
0.00719699
0.335309
0.0132906
0.33388
0.0198129
0.331591
0.0284148
0.327806
0.0371035
0.321146
0.0584436
0.307667
0.0855569
-0.183346
0.211907
-0.21523
0.240804
-0.219792
0.273587
-0.238536
0.302288
-0.21398
0.330503
-0.208196
0.357906
-0.19838
0.382686
-0.178366
0.405487
-0.162403
0.426482
-0.144868
0.445263
-0.126915
0.462214
-0.110808
0.477408
-0.0945785
0.490864
-0.0792609
0.502601
-0.0643569
0.512628
-0.0493175
0.520977
-0.03467
0.527523
-0.0194017
0.532216
-0.00438919
0.535045
0.0113546
0.535932
0.0265246
0.534877
0.0418009
0.531778
0.0550247
0.526614
0.0660911
0.519652
0.0728227
0.511469
0.0748583
0.502648
0.0775995
0.493434
0.0834146
0.483664
0.0893109
0.472841
0.0946544
0.460722
0.100758
0.448162
0.109366
0.434834
0.122445
0.420465
0.141526
0.407049
0.177279
0.396129
0.250308
0.383898
0.264743
0.342837
0.326758
0.240968
0.727498
0.176537
0.712248
-0.155001
-0.217907
-0.125835
-0.229172
-0.089208
-0.281022
-0.0529387
-0.287263
-0.0157835
-0.297949
0.0223221
-0.307857
0.0588533
-0.29975
0.0912049
-0.273825
0.119561
-0.246277
0.144502
-0.219824
0.165781
-0.191058
0.184097
-0.166102
0.200304
-0.146137
0.214808
-0.128826
0.228041
-0.115107
0.240359
-0.104089
0.251956
-0.0952323
0.262961
-0.088199
0.273487
-0.0828386
0.283624
-0.0785555
0.29341
-0.0752208
0.302808
-0.0720939
0.311808
-0.0684528
0.320215
-0.0619384
0.327756
-0.0530526
0.334276
-0.0445514
0.339831
-0.0363573
0.344401
-0.0284937
0.348047
-0.0208816
0.350782
-0.0135579
0.352638
-0.00646726
0.35363
0.000350892
0.353747
0.00708354
0.353096
0.013951
0.351681
0.0212771
0.349321
0.030752
0.345351
0.0411887
0.338677
0.0650824
0.325241
0.0991261
-0.183504
0.213674
-0.245399
0.244119
-0.250235
0.278791
-0.273208
0.308947
-0.244136
0.33845
-0.237699
0.367317
-0.227247
0.393261
-0.204311
0.417189
-0.186332
0.439158
-0.166838
0.458803
-0.146561
0.476593
-0.128598
0.492644
-0.110628
0.50679
-0.0934025
0.519226
-0.0767874
0.530092
-0.0601756
0.539122
-0.0436911
0.546413
-0.0266841
0.55183
-0.00979956
0.555415
0.0077743
0.557036
0.0249034
0.556534
0.0422953
0.554033
0.0575143
0.549445
0.0706647
0.543034
0.079214
0.53525
0.0826176
0.526585
0.0862374
0.5174
0.0925935
0.507576
0.0991681
0.496588
0.105493
0.484288
0.112541
0.471479
0.122177
0.457857
0.136303
0.442962
0.156387
0.428618
0.191784
0.416999
0.261883
0.403361
0.278438
0.371754
0.357958
0.309558
0.789659
0.26308
0.758457
-0.153783
-0.247625
-0.123152
-0.2598
-0.0845649
-0.319604
-0.0464369
-0.325384
-0.00758873
-0.336789
0.0323622
-0.347799
0.070444
-0.337823
0.104048
-0.307421
0.133318
-0.275539
0.158918
-0.245416
0.180546
-0.21268
0.198993
-0.184544
0.215227
-0.162366
0.229674
-0.143269
0.242831
-0.128263
0.255109
-0.116365
0.266698
-0.106821
0.277759
-0.0992608
0.288431
-0.0935127
0.298751
-0.0888775
0.30873
-0.0852029
0.318414
-0.0817803
0.327723
-0.0777646
0.336462
-0.0706783
0.344353
-0.0609425
0.351257
-0.0514516
0.357145
-0.0422353
0.362061
-0.0333886
0.365993
-0.0247732
0.368986
-0.0164806
0.371076
-0.00847007
0.37222
-0.000729331
0.372465
0.00684165
0.371881
0.0145445
0.370461
0.0227493
0.368003
0.0331897
0.363915
0.0453927
0.357057
0.0718869
0.343678
0.112608
-0.184253
0.215996
-0.277141
0.24802
-0.282258
0.28462
-0.309808
0.31645
-0.275967
0.347563
-0.268813
0.377897
-0.257583
0.404984
-0.2314
0.43013
-0.21148
0.453123
-0.189834
0.473697
-0.167136
0.492266
-0.147166
0.508939
-0.1273
0.523863
-0.108323
0.537118
-0.0900368
0.548549
-0.0715987
0.558319
-0.0534523
0.566288
-0.0346445
0.572439
-0.0159437
0.576617
0.00360047
0.578832
0.0226876
0.578975
0.0421436
0.577006
0.0594702
0.573005
0.0746502
0.567166
0.0850326
0.559849
0.0899085
0.551505
0.0945534
0.542396
0.101696
0.532487
0.109109
0.521417
0.116415
0.508877
0.124563
0.495798
0.135253
0.481923
0.150406
0.466744
0.171529
0.451803
0.206899
0.439199
0.27446
0.423042
0.294652
0.398647
0.381973
0.369512
0.818973
0.335922
0.791703
-0.152863
-0.279014
-0.120723
-0.291937
-0.0800599
-0.360262
-0.0399956
-0.365442
0.000821376
-0.377598
0.0426543
-0.389623
0.082512
-0.377672
0.117521
-0.342422
0.14787
-0.305881
0.174207
-0.271746
0.196321
-0.234788
0.215004
-0.20322
0.231332
-0.178691
0.245756
-0.15769
0.258848
-0.141354
0.271055
-0.128571
0.282611
-0.118377
0.293701
-0.110352
0.304425
-0.104239
0.314876
-0.0993308
0.325075
-0.095405
0.334992
-0.0917
0.344563
-0.0873379
0.353635
-0.0797508
0.361878
-0.0691849
0.369136
-0.0587049
0.375392
-0.0484811
0.380631
-0.0386058
0.384881
-0.0289812
0.388139
-0.0196662
0.390434
-0.010675
0.391779
-0.00200818
0.392138
0.00648637
0.391626
0.0150644
0.39021
0.0242206
0.387692
0.0356913
0.383469
0.0497351
0.376418
0.0788685
0.363175
0.125923
-0.185309
0.218848
-0.310679
0.252628
-0.316038
0.291265
-0.348445
0.324698
-0.309401
0.357419
-0.301537
0.389332
-0.289499
0.417915
-0.259986
0.44419
-0.237759
0.468249
-0.213897
0.489717
-0.188607
0.50917
-0.16662
0.526691
-0.14482
0.542217
-0.123846
0.556075
-0.10389
0.568251
-0.0837677
0.578677
-0.0638695
0.587269
-0.0432271
0.594008
-0.0226766
0.598814
-0.0012025
0.601659
0.0198405
0.60242
0.0413738
0.601071
0.0608045
0.59765
0.0780546
0.59235
0.0903103
0.585472
0.0967581
0.577415
0.10258
0.56842
0.110682
0.558533
0.119027
0.547339
0.127459
0.534634
0.136751
0.521288
0.148587
0.507097
0.164815
0.491645
0.18694
0.476296
0.222434
0.462983
0.287762
0.444485
0.313216
0.423344
0.402775
0.415722
0.826939
0.391334
0.815717
-0.152279
-0.312042
-0.118411
-0.325802
-0.0756078
-0.403061
-0.0334445
-0.407599
0.00941842
-0.420454
0.0533059
-0.433503
0.0951208
-0.419479
0.131642
-0.378935
0.163179
-0.33741
0.190432
-0.298991
0.213138
-0.257486
0.232154
-0.222229
0.248611
-0.195143
0.263066
-0.172141
0.276112
-0.154397
0.288255
-0.140713
0.299742
-0.129865
0.310808
-0.121419
0.321583
-0.115015
0.332116
-0.109867
0.342451
-0.105743
0.352561
-0.101812
0.362416
-0.0971942
0.371792
-0.0891281
0.380378
-0.0777693
0.387992
-0.0663135
0.394589
-0.0550677
0.400178
-0.0441723
0.404716
-0.0334749
0.408263
-0.0231383
0.410802
-0.0131202
0.412324
-0.0034622
0.412836
0.00597739
0.412385
0.0155232
0.410997
0.0256668
0.408404
0.0382729
0.404058
0.054204
0.396881
0.0859659
0.3838
0.13905
-0.186842
0.222095
-0.345931
0.257734
-0.351675
0.298527
-0.389237
0.333809
-0.344684
0.368279
-0.336009
0.401829
-0.323052
0.431826
-0.289988
0.459429
-0.265366
0.484544
-0.239016
0.506989
-0.211055
0.527268
-0.186901
0.545515
-0.163067
0.561842
-0.140171
0.576386
-0.118429
0.589155
-0.0965302
0.600147
-0.0748534
0.609372
-0.0524435
0.616754
-0.0300518
0.622168
-0.00661407
0.625523
0.0164822
0.626854
0.0400333
0.626046
0.0615966
0.623183
0.0808979
0.618466
0.0950038
0.612126
0.103067
0.604383
0.110291
0.595564
0.119491
0.585687
0.128932
0.574428
0.138567
0.56158
0.149083
0.548013
0.162135
0.533533
0.179504
0.517736
0.202692
0.501973
0.238393
0.48809
0.301651
0.468059
0.333318
0.447392
0.423152
0.450946
0.823842
0.432759
0.833533
-0.151897
-0.346985
-0.11636
-0.361336
-0.071189
-0.448228
-0.0268305
-0.451952
0.0182806
-0.465558
0.0644402
-0.479655
0.108233
-0.463264
0.146467
-0.417161
0.179315
-0.370251
0.207588
-0.327256
0.230982
-0.280873
0.250415
-0.241655
0.267115
-0.211838
0.281652
-0.186673
0.294677
-0.167419
0.306758
-0.152793
0.318177
-0.141284
0.329192
-0.132436
0.33995
-0.125774
0.35054
-0.120459
0.360977
-0.116182
0.371268
-0.112106
0.381341
-0.107269
0.391018
-0.0988048
0.399924
-0.0866735
0.407881
-0.0742645
0.414825
-0.0620004
0.420727
-0.0500499
0.425594
-0.038296
0.429424
-0.0268916
0.432217
-0.0158155
0.433955
-0.00512884
0.434605
0.00533004
0.434252
0.0158832
0.432876
0.0271024
0.430247
0.0408974
0.425795
0.058785
0.418452
0.0932222
0.405596
0.151934
-0.188605
0.225803
-0.383127
0.263406
-0.389276
0.306495
-0.432326
0.343664
-0.381855
0.379915
-0.372262
0.41522
-0.358361
0.446759
-0.321532
0.475671
-0.294284
0.502012
-0.265362
0.525447
-0.234494
0.546681
-0.208137
0.565702
-0.182088
0.582726
-0.157193
0.597926
-0.133624
0.611219
-0.109816
0.622864
-0.08649
0.632675
-0.0622468
0.640608
-0.0379778
0.646624
-0.012629
0.65059
0.0125126
0.652451
0.0381622
0.652214
0.0618149
0.649917
0.0831738
0.645731
0.0991645
0.639848
0.108916
0.632449
0.117656
0.62384
0.128086
0.614046
0.13875
0.602756
0.149704
0.589787
0.161539
0.576002
0.175892
0.561262
0.194441
0.545132
0.218774
0.528944
0.254786
0.514453
0.316167
0.493654
0.354189
0.472194
0.44437
0.479912
0.81665
0.465439
0.847662
-0.151873
-0.383715
-0.114297
-0.398907
-0.0667412
-0.49578
-0.0200063
-0.498682
0.0274264
-0.512984
0.075927
-0.528148
0.121989
-0.509318
0.16202
-0.457184
0.196348
-0.404571
0.225741
-0.35664
0.24993
-0.305054
0.269853
-0.26157
0.286851
-0.228829
0.301511
-0.201328
0.314545
-0.18045
0.326592
-0.164837
0.337949
-0.152639
0.34888
-0.143367
0.359604
-0.136498
0.370214
-0.13107
0.380725
-0.126695
0.391142
-0.122524
0.40143
-0.117559
0.411368
-0.108742
0.420577
-0.0958798
0.428861
-0.0825414
0.436142
-0.0692695
0.44239
-0.0562723
0.447575
-0.0434331
0.451696
-0.0309327
0.45474
-0.0187587
0.456679
-0.00699396
0.457496
0.00451672
0.457239
0.0161448
0.4559
0.0285041
0.453223
0.043576
0.448682
0.0634625
0.44127
0.100546
0.42863
0.164592
-0.190669
0.229971
-0.422428
0.269598
-0.428901
0.315097
-0.477826
0.354222
-0.42098
0.392401
-0.410444
0.429654
-0.395617
0.462718
-0.354601
0.493069
-0.324641
0.52076
-0.293058
0.545289
-0.259028
0.567404
-0.230255
0.587263
-0.201948
0.604909
-0.174837
0.620768
-0.14948
0.63479
-0.123832
0.646976
-0.0986678
0.657357
-0.0726194
0.665821
-0.0464359
0.672283
-0.0190892
0.67677
0.00802145
0.679195
0.0357252
0.679446
0.0615449
0.677693
0.0849035
0.674049
0.102781
0.668667
0.114263
0.661687
0.124599
0.653272
0.136485
0.643581
0.14846
0.63233
0.160799
0.619279
0.174081
0.605327
0.189807
0.590326
0.209628
0.57394
0.235106
0.557303
0.271634
0.542101
0.331412
0.520998
0.375362
0.49863
0.46654
0.506422
0.80941
0.493834
0.859939
-0.151933
-0.422446
-0.112474
-0.438363
-0.0622577
-0.545991
-0.0130346
-0.547899
0.0368933
-0.562906
0.0879673
-0.579215
0.13633
-0.557674
0.178349
-0.499195
0.214214
-0.440428
0.244879
-0.387297
0.269939
-0.330106
0.290477
-0.282099
0.307843
-0.246188
0.322694
-0.216172
0.335795
-0.193546
0.347806
-0.176844
0.359089
-0.16392
0.369966
-0.154243
0.38063
-0.147163
0.391213
-0.141654
0.401762
-0.137245
0.412298
-0.133062
0.422763
-0.128024
0.432936
-0.118915
0.442447
-0.105388
0.451039
-0.0911258
0.458646
-0.0768626
0.465208
-0.0628081
0.470711
-0.0488859
0.475115
-0.0352533
0.478429
-0.0219692
0.480607
-0.00909443
0.481575
0.00355237
0.481442
0.0162824
0.480153
0.0298573
0.477441
0.046296
0.472826
0.068223
0.465316
0.107971
0.452961
0.176961
-0.193088
0.234549
-0.463887
0.276305
-0.470654
0.324318
-0.525838
0.365508
-0.462171
0.405801
-0.45074
0.445005
-0.434825
0.47977
-0.389371
0.511674
-0.35655
0.540655
-0.322044
0.566275
-0.284653
0.589376
-0.253358
0.610102
-0.222675
0.628605
-0.193338
0.645081
-0.165953
0.65967
-0.138416
0.672414
-0.111404
0.683315
-0.0835117
0.692299
-0.055414
0.699364
-0.0261532
0.704325
0.00305591
0.707202
0.0328353
0.708005
0.0607223
0.706739
0.0861455
0.703605
0.105886
0.698688
0.119144
0.692094
0.131155
0.683971
0.144588
0.674418
0.158027
0.663193
0.171865
0.6501
0.186671
0.636016
0.203843
0.620816
0.225
0.604141
0.251723
0.587092
0.288898
0.571176
0.347386
0.549981
0.396617
0.526965
0.489395
0.532905
0.804014
0.520973
0.871592
-0.152189
-0.463341
-0.110584
-0.479964
-0.0576616
-0.598909
-0.00580563
-0.599749
0.046773
-0.615478
0.100541
-0.632976
0.15141
-0.608536
0.195512
-0.543289
0.233086
-0.477994
0.265086
-0.419288
0.291149
-0.356161
0.312343
-0.303285
0.33014
-0.263977
0.345241
-0.231266
0.358441
-0.206741
0.370465
-0.188864
0.381692
-0.175144
0.392488
-0.165037
0.403084
-0.157759
0.413634
-0.152204
0.424187
-0.1478
0.434786
-0.143662
0.445404
-0.138642
0.455821
-0.12933
0.465586
-0.115149
0.474465
-0.0999963
0.482381
-0.0847641
0.489261
-0.0696605
0.495078
-0.0546506
0.49979
-0.0398797
0.503372
-0.0254428
0.505758
-0.0114005
0.50693
0.00238594
0.506904
0.0163093
0.505678
0.03115
0.502951
0.0490385
0.498265
0.073064
0.490725
0.115431
0.478705
0.189
-0.195715
0.239397
-0.507567
0.283481
-0.514735
0.334172
-0.576528
0.377594
-0.505595
0.420045
-0.493192
0.461281
-0.476065
0.497896
-0.425992
0.531406
-0.390065
0.561763
-0.352407
0.588609
-0.311503
0.612834
-0.277586
0.634407
-0.244248
0.653663
-0.212592
0.670853
-0.183139
0.686023
-0.15358
0.699342
-0.124715
0.710753
-0.0949145
0.720265
-0.0649207
0.727758
-0.0336454
0.733235
-0.00242585
0.736577
0.0294807
0.737817
0.059462
0.737068
0.0868693
0.734418
0.108506
0.730001
0.123523
0.72379
0.137325
0.715947
0.152408
0.706565
0.167416
0.695402
0.182867
0.682323
0.199256
0.668129
0.217979
0.652746
0.240542
0.63584
0.268565
0.618417
0.306536
0.601805
0.364068
0.580508
0.417962
0.557238
0.512536
0.560637
0.801119
0.548646
0.883331
-0.152593
-0.506458
-0.108775
-0.523778
-0.0529812
-0.654697
0.00171092
-0.654436
0.05707
-0.670831
0.113654
-0.689554
0.167235
-0.66211
0.213533
-0.58958
0.252948
-0.517401
0.286399
-0.452731
0.313522
-0.383275
0.335464
-0.325219
0.353785
-0.28229
0.369186
-0.24666
0.38253
-0.22008
0.394607
-0.200937
0.405806
-0.186339
0.416535
-0.175765
0.427054
-0.168277
0.437537
-0.162688
0.448087
-0.158351
0.45873
-0.154306
0.469471
-0.149384
0.480068
-0.139926
0.490071
-0.125148
0.499235
-0.109153
0.507442
-0.0929553
0.51464
-0.0768296
0.520752
-0.0607079
0.525761
-0.0447995
0.529611
-0.0291823
0.532255
-0.0139598
0.533601
0.00104593
0.533698
0.0162122
0.532551
0.0323639
0.529814
0.0517979
0.525108
0.0779361
0.517535
0.122932
0.505845
0.200719
-0.198658
0.244741
-0.553647
0.291264
-0.561253
0.344643
-0.629907
0.390524
-0.551476
0.435144
-0.537814
0.478644
-0.519569
0.517105
-0.464459
0.552324
-0.42529
0.584216
-0.384305
0.612363
-0.339654
0.637567
-0.302793
0.660165
-0.266847
0.680175
-0.232601
0.698066
-0.201026
0.713949
-0.169456
0.727785
-0.138544
0.739745
-0.106866
0.749728
-0.0748978
0.757733
-0.0416506
0.763627
-0.00832515
0.767404
0.0256911
0.769136
0.0577093
0.76879
0.0871902
0.766607
0.110658
0.762618
0.127473
0.756801
0.143101
0.749276
0.159907
0.740095
0.176597
0.729078
0.193719
0.71602
0.21183
0.701754
0.232175
0.686207
0.256231
0.669084
0.285618
0.65134
0.324495
0.634021
0.381465
0.612672
0.439343
0.58938
0.535723
0.590081
0.800857
0.577748
0.895429
-0.153193
-0.551918
-0.106993
-0.569974
-0.0481143
-0.71357
0.00948865
-0.712033
0.0678424
-0.729178
0.127446
-0.749151
0.183778
-0.718435
0.232508
-0.638303
0.273841
-0.558726
0.308891
-0.487773
0.337184
-0.411559
0.359961
-0.347989
0.378852
-0.301174
0.39461
-0.262411
0.408157
-0.233621
0.420292
-0.213068
0.431502
-0.197545
0.44216
-0.186421
0.452601
-0.178717
0.463016
-0.173104
0.47353
-0.168866
0.484196
-0.164973
0.495041
-0.16023
0.505811
-0.150695
0.516037
-0.13537
0.52544
-0.118548
0.533916
-0.101415
0.541391
-0.0842746
0.547813
-0.0670737
0.553101
-0.0499965
0.557237
-0.0332028
0.560105
-0.0167403
0.561664
-0.000504684
0.561921
0.015952
0.560827
0.0335245
0.55814
0.0545135
0.553395
0.0828588
0.545876
0.13039
0.534564
0.212073
-0.201829
0.250441
-0.602256
0.299435
-0.610244
0.355875
-0.686346
0.40407
-0.599672
0.451204
-0.58495
0.496967
-0.565336
0.537529
-0.505025
0.574476
-0.462243
0.607945
-0.417779
0.637417
-0.36913
0.663889
-0.329266
0.687408
-0.290366
0.708345
-0.253536
0.726977
-0.219654
0.743471
-0.185945
0.757905
-0.152971
0.770357
-0.11931
0.780792
-0.0853284
0.789197
-0.0500554
0.795539
-0.0146729
0.799776
0.0214404
0.801855
0.0556099
0.801942
0.0870776
0.800212
0.112358
0.796651
0.130995
0.791264
0.148445
0.784053
0.167091
0.775079
0.185564
0.764175
0.204455
0.751211
0.224322
0.736913
0.246391
0.72124
0.272031
0.703934
0.302849
0.685876
0.342762
0.66797
0.399453
0.646509
0.46082
0.623339
0.558802
0.621466
0.803086
0.608648
0.908027
-0.153895
-0.599847
-0.10519
-0.618675
-0.0430935
-0.775662
0.0175825
-0.772702
0.0790805
-0.79067
0.141879
-0.811943
0.201223
-0.777772
0.252438
-0.689511
0.295851
-0.602132
0.332566
-0.52448
0.362133
-0.441118
0.385831
-0.37168
0.40536
-0.320696
0.421549
-0.278594
0.43534
-0.247407
0.447599
-0.225322
0.458816
-0.20876
0.46944
-0.197043
0.479805
-0.189082
0.490168
-0.183468
0.500618
-0.179317
0.5113
-0.175657
0.522211
-0.171142
0.533131
-0.161614
0.543553
-0.145788
0.553167
-0.128153
0.561913
-0.110145
0.56966
-0.0919905
0.576342
-0.0736983
0.581942
-0.0555016
0.586336
-0.0374783
0.589459
-0.0197721
0.591199
-0.00223496
0.591606
0.0155403
0.590635
0.0345613
0.587966
0.0572159
0.583252
0.0877614
0.575766
0.137826
0.564878
0.223023
-0.205284
0.256516
-0.653484
0.308182
-0.661908
0.367673
-0.745836
0.418585
-0.650584
0.46816
-0.634528
0.516446
-0.613626
0.559022
-0.547607
0.597915
-0.501141
0.633074
-0.452943
0.664022
-0.400082
0.691663
-0.356909
0.716323
-0.315026
0.73813
-0.275341
0.757541
-0.239062
0.774663
-0.203061
0.789716
-0.168017
0.802654
-0.132241
0.813548
-0.0962177
0.822426
-0.0589344
0.829144
-0.0213985
0.833739
0.0168323
0.83622
0.0531071
0.836694
0.0865782