/*--------------------------------*- C++ -*----------------------------------*\
| =========                 |                                                 |
| \\      /  F ield         | OpenFOAM: The Open Source CFD Toolbox           |
|  \\    /   O peration     | Version:  2312                                  |
|   \\  /    A nd           | Website:  www.openfoam.com                      |
|    \\/     M anipulation  |                                                 |
\*---------------------------------------------------------------------------*/
FoamFile
{
    version     2.0;
    format      ascii;
    arch        "LSB;label=32;scalar=64";
    class       volSymmTensorField;
    location    "300";
    object      turbulenceProperties:R;
}
// * * * * * * * * * * * * * * * * * * * * * * * * * * * * * * * * * * * * * //

dimensions      [0 2 -2 0 0 0 0];

internalField   nonuniform List<symmTensor> 
10720
(
(0.025865 0.0103625 -5.97017e-21 0.0173007 -1.53385e-19 0.0220775)
(0.0307618 0.0144058 5.4593e-21 0.0160333 1.99487e-19 0.0238261)
(0.0371718 0.0177276 5.0438e-20 0.0126735 2.13826e-19 0.0258784)
(0.0445081 0.0183465 2.39376e-19 0.0123776 1.82304e-18 0.0295274)
(0.050831 0.0160914 -7.25564e-19 0.015029 -2.85485e-18 0.0338695)
(0.057904 0.0132928 -6.71134e-19 0.0186938 -1.36039e-18 0.0393719)
(0.0672372 0.0110624 1.88615e-19 0.0231576 1.71304e-20 0.0462912)
(0.0796942 0.00894845 8.95382e-20 0.028284 1.41576e-19 0.0551312)
(0.0969973 0.00641688 2.16691e-19 0.0345855 -1.75035e-19 0.0671448)
(0.121483 0.00297165 -3.26875e-20 0.0434209 -3.27951e-20 0.0840347)
(0.157299 -0.00242616 3.82027e-18 0.0567605 1.54969e-18 0.108985)
(0.213195 -0.0114151 -9.62882e-19 0.078546 -7.3951e-19 0.148403)
(0.303645 -0.0273057 2.18085e-18 0.115515 -3.27367e-18 0.213002)
(0.457893 -0.0572853 1.23718e-18 0.181867 2.67969e-18 0.32482)
(0.741792 -0.118123 2.45996e-18 0.310715 -4.36127e-18 0.533983)
(1.33241 -0.25592 1.0924e-18 0.593159 2.05774e-17 0.976198)
(2.46726 -0.552777 1.39354e-16 1.17506 7.20997e-17 1.84579)
(5.18297 -1.32066 -5.11276e-17 2.65252 7.44792e-17 3.9685)
(9.85048 -2.80637 -3.07739e-17 5.4409 -4.615e-16 7.74187)
(14.9691 -4.7013 2.69816e-17 8.95123 -9.33018e-19 12.1018)
(20.9775 -7.19107 -5.41083e-16 13.6327 -4.05808e-16 17.4984)
(31.5673 -11.7109 1.1124e-15 22.371 1.68419e-15 27.2514)
(54.0258 -21.5155 -7.35022e-16 41.8423 -1.88312e-15 48.4341)
(105.351 -44.548 9.10676e-16 88.8671 2.02925e-16 98.1416)
(190.566 -84.0513 -3.01511e-16 172.199 -1.48868e-17 182.805)
(270.463 -122.334 9.43807e-17 255.429 -2.11935e-15 264.956)
(547.823 -252.661 7.39348e-16 536.177 -2.26719e-16 546.8)
(891.121 -419.797 8.4553e-16 912.828 1.5495e-15 905.414)
(622.76 -296.726 1.76795e-14 673.076 5.29545e-16 645.687)
(269.808 -107.065 1.00415e-14 297.761 5.16957e-15 282.728)
(88.018 -32.8496 -3.4977e-15 98.8737 -8.24378e-16 93.2601)
(13.2623 -4.0439 -7.28316e-16 14.852 -3.50799e-16 14.0447)
(2.44261 -0.666933 -3.36344e-17 2.73566 -1.24757e-16 2.58872)
(0.333651 -0.0917035 -2.6572e-17 0.376021 -3.07484e-17 0.354981)
(6.33231e-16 -1.50064e-16 1.65671e-32 7.00629e-16 5.25522e-32 6.6614e-16)
(6.57838e-16 -4.75434e-17 5.65471e-33 6.76685e-16 6.15855e-32 6.65477e-16)
(6.40437e-16 -2.11093e-17 1.0884e-32 6.96514e-16 -2.29106e-33 6.63049e-16)
(4.94088e-16 -3.76223e-16 -8.774e-32 8.48994e-16 3.12933e-31 6.56918e-16)
(0.329491 0.0157872 -3.58974e-17 0.332009 -6.6496e-17 0.331861)
(0.0116098 0.00489472 1.86671e-21 0.00885194 -6.19917e-21 0.0103309)
(0.0101014 0.00423717 -1.04981e-20 0.00838928 1.09458e-20 0.00942023)
(0.0189951 0.00844192 -1.31227e-19 0.0173524 -9.26989e-20 0.0183917)
(0.0223816 0.0146462 3.21766e-19 0.0223369 -4.32075e-19 0.022699)
(0.0161964 0.00778765 -2.88708e-19 0.0173098 -1.76424e-19 0.0168702)
(0.0135025 0.00655668 -1.56271e-18 0.014793 1.93603e-18 0.0141016)
(0.0099177 0.00511798 7.11821e-19 0.0103688 1.7973e-18 0.00985653)
(0.0103213 0.00543327 -1.62522e-19 0.00871494 -3.60506e-18 0.00902226)
(0.0127044 0.00573293 1.76763e-18 0.0075658 -3.44224e-20 0.00983268)
(0.0168548 0.00611496 -1.10306e-18 0.00816243 -3.23432e-19 0.0124961)
(0.0227698 0.00716073 8.04798e-19 0.0106214 1.9346e-18 0.0168103)
(0.03171 0.00933449 1.43406e-18 0.0154577 -6.80615e-19 0.0237535)
(0.044952 0.0130635 -1.31292e-18 0.023384 -2.96025e-19 0.034421)
(0.0675067 0.0199384 2.06443e-19 0.0373643 4.31569e-19 0.0528301)
(0.0990316 0.0304819 4.26844e-18 0.0572071 7.05091e-19 0.0786619)
(0.168273 0.0543191 4.72013e-18 0.100974 -1.03233e-18 0.135519)
(0.241976 0.0909834 2.25799e-18 0.139942 3.26992e-18 0.192295)
(0.602118 0.284779 2.90465e-18 0.312757 6.87393e-18 0.461233)
(0.801319 0.31869 2.50063e-18 0.507344 -1.40574e-18 0.65811)
(0.974237 0.383224 3.52212e-18 0.654248 1.80094e-19 0.818476)
(1.20548 0.501357 -4.32457e-18 0.828293 -2.61709e-17 1.02208)
(1.83209 0.81124 -1.51027e-17 1.28939 -2.99243e-19 1.56901)
(2.52334 1.04845 1.04597e-17 1.9135 1.60818e-17 2.22906)
(3.48221 1.44534 4.98061e-18 2.78134 -7.95193e-19 3.14783)
(4.55112 1.93372 1.49273e-16 3.81131 -2.49396e-17 4.20413)
(5.6653 2.47749 -4.99661e-19 4.96352 -8.71436e-18 5.343)
(4.9555 1.99792 2.30729e-20 4.58126 8.50396e-19 4.79041)
(2.90032 1.06454 6.82729e-20 2.79779 -2.09749e-21 2.86024)
(1.144 0.391719 6.58772e-20 1.13992 8.92149e-22 1.14591)
(0.289092 0.0956836 2.33518e-18 0.29588 -8.02856e-20 0.29342)
(0.0277045 0.0092616 -8.90802e-21 0.0290767 -4.47183e-22 0.0284784)
(0.00164653 0.000580074 -1.78888e-21 0.00177494 4.47524e-21 0.00171604)
(0.000428246 0.000164479 -2.489e-20 0.000476055 -2.76658e-21 0.00045359)
(0.000169158 7.24755e-05 -1.96177e-20 0.000194964 2.20058e-21 0.000182661)
(6.24348e-05 3.00572e-05 7.59034e-21 7.50017e-05 5.01978e-22 6.89533e-05)
(2.11118e-05 1.13874e-05 -1.58388e-23 2.65484e-05 -1.06859e-22 2.39149e-05)
(5.74643e-16 3.36567e-16 -9.79542e-34 7.57228e-16 1.33025e-33 6.6813e-16)
(0.658335 0.410844 -2.67377e-18 0.913674 4.54304e-18 0.79377)
(50.6551 26.4174 -9.19004e-15 70.728 -8.86492e-16 60.9447)
(0.0203923 -0.0110784 -1.00262e-19 -0.00677249 -3.03329e-19 0.00469646)
(0.0204966 -0.015358 2.02629e-19 -0.00590427 4.75254e-19 0.00451145)
(0.0152516 -0.0131913 -1.4142e-21 0.000831244 2.3625e-21 0.00552713)
(0.0111434 -0.00913207 2.12583e-19 0.00520131 3.07695e-20 0.00627072)
(0.00897122 -0.00585311 1.06358e-19 0.00735225 8.34544e-19 0.00681412)
(0.00799716 -0.00415035 4.79808e-19 0.00835263 8.42063e-19 0.00707804)
(0.00748608 -0.00353155 -2.1984e-19 0.00895047 3.55194e-20 0.00711388)
(0.0070605 -0.0032416 -1.97345e-19 0.00941688 -5.29238e-20 0.00702337)
(0.00670464 -0.00298465 -1.23653e-18 0.00979546 -1.3602e-18 0.00688822)
(0.00646763 -0.00273137 -4.49273e-19 0.0100536 -1.50858e-19 0.00673693)
(0.00634866 -0.00250315 -4.38312e-18 0.0102194 -4.2632e-18 0.00658923)
(0.0063323 -0.00233423 -5.76314e-20 0.0102698 7.73404e-19 0.0064467)
(0.00709857 -0.00250366 -2.90516e-18 0.0112505 8.215e-20 0.00697653)
(0.00973323 -0.00337571 2.70546e-18 0.0146416 1.60162e-18 0.00910372)
(0.0168199 -0.00588896 -9.34597e-18 0.0231497 -2.69638e-18 0.0147625)
(0.0369101 -0.0131983 4.12553e-17 0.0445843 9.78775e-18 0.0302164)
(0.0881137 -0.0320089 -7.76661e-17 0.0912087 -6.62125e-17 0.0684861)
(0.23794 -0.0865984 -1.62756e-16 0.214008 -6.07817e-17 0.181335)
(0.64057 -0.232779 -3.85866e-16 0.520992 1.62576e-16 0.491814)
(1.49012 -0.544613 8.10747e-17 1.14766 5.99574e-20 1.16947)
(2.90398 -1.08046 6.04425e-16 2.20268 7.19357e-16 2.34462)
(5.00102 -1.90901 -9.33537e-16 3.83914 -1.74121e-15 4.15059)
(8.29643 -3.26305 7.53388e-17 6.57805 1.77954e-15 7.04303)
(12.1369 -4.86137 2.55971e-17 9.90851 -4.53119e-16 10.3896)
(37.9022 -12.7492 -0 32.4116 -0 33.3971)
(61.7856 -10.6681 -2.99285e-17 59.9631 5.11998e-16 58.7342)
(185.136 -13.3812 -1.05365e-15 190.144 2.64816e-16 181.807)
(386.196 -7.5258 -1.15508e-16 387.91 -9.77033e-16 384.176)
(335.911 -4.73458 -1.30064e-14 328.332 -6.20251e-15 334.45)
(209.848 -4.68107 -6.9081e-16 197.263 -2.45903e-14 207.965)
(100.732 -2.96835 1.08088e-15 95.6042 1.57104e-14 99.8645)
(36.77 -1.45126 2.87858e-16 36.2441 7.71674e-15 36.8011)
(10.1069 -0.806533 -1.54671e-15 10.3191 1.51256e-15 10.25)
(1.52219 -0.294944 5.83193e-16 1.63513 9.72999e-16 1.58039)
(0.0288509 -0.00970327 -5.5069e-19 0.0323159 -4.79518e-18 0.0304214)
(6.02463e-16 -2.98981e-16 1.64142e-31 7.30887e-16 -9.5664e-32 6.6665e-16)
(5.80038e-16 -2.71633e-16 -1.9357e-32 7.34799e-16 3.92926e-33 6.85163e-16)
(0.0021186 -0.00103378 2.28852e-19 0.00277936 -3.39357e-18 0.00250808)
(0.193327 -0.000426851 4.68805e-18 0.168497 6.31813e-17 0.18834)
(0.0161571 -0.00256324 3.70168e-20 0.0066243 1.15098e-19 0.0108371)
(0.0153179 -0.00149781 -1.92232e-20 0.00604644 -4.78078e-19 0.010212)
(0.00702571 -0.000213673 -1.43695e-19 0.00262492 -4.2098e-19 0.00465469)
(0.0061632 0.000445453 4.5474e-20 0.000344404 8.81386e-19 0.00308914)
(0.00370278 0.000516171 2.05103e-19 0.00138628 -1.92241e-19 0.00250873)
(0.00422784 0.000947069 -8.03175e-20 0.0020106 -3.76115e-19 0.00311392)
(0.00425429 0.00133235 3.8424e-19 0.00253551 -1.00907e-18 0.0034178)
(0.00493421 0.0019226 -1.13976e-18 0.00370457 -1.12745e-19 0.00438951)
(0.00418726 0.00190714 -6.80466e-19 0.00398067 1.4772e-18 0.0041625)
(0.00345654 0.00175496 -2.47551e-19 0.00425916 -5.70315e-20 0.00389953)
(0.00280271 0.00146762 -3.10915e-19 0.00436796 -8.70471e-19 0.0035585)
(0.00225537 0.00112349 6.38221e-20 0.0041831 -4.67762e-19 0.00312683)
(0.00172435 0.000769112 3.19273e-19 0.00359237 8.21936e-19 0.00252831)
(0.00118838 0.00045839 -2.56871e-19 0.00266048 -1.56663e-19 0.00179367)
(3.32349e-05 9.89956e-05 -4.31038e-20 0.000430074 -1.52066e-19 0.000188716)
(0.0152934 0.00435703 -1.00689e-17 0.0359136 -2.53044e-18 0.022973)
(0.0223991 0.00576563 -2.80067e-18 0.0525363 3.74735e-20 0.0330265)
(0.00494816 0.00121066 -4.40421e-20 0.0114906 -4.05111e-19 0.00713231)
(0.0796012 0.0192893 -9.67797e-18 0.182133 6.35057e-18 0.112009)
(0.146144 0.00605692 5.54728e-18 0.176865 -1.86108e-18 0.155311)
(0.0294517 0.00113256 -7.62903e-18 0.0348866 4.95816e-18 0.0309695)
(0.215378 0.0549249 -7.87201e-17 0.462656 1.55665e-17 0.278403)
(0.036927 0.00935423 4.94796e-19 0.0777217 -1.13388e-17 0.0463921)
(0.0804926 0.000631028 4.55184e-18 0.0831416 8.24828e-20 0.0810048)
(0.879631 0.00991338 -5.65843e-17 0.914885 4.96353e-18 0.884718)
(0.029014 0.000434844 -1.9092e-18 0.0302151 3.04132e-19 0.0291373)
(0.0327292 0.000740035 -2.51907e-20 0.0342834 -1.80772e-20 0.0328466)
(0.033704 0.00102233 -1.0895e-22 0.0354075 -5.70039e-21 0.033818)
(0.0192529 0.000712608 -6.37865e-22 0.0202133 -8.66748e-24 0.0193296)
(0.0153495 0.000810444 2.01537e-20 0.0162412 5.93721e-20 0.0154461)
(0.00924451 0.000612693 1.43524e-21 0.00980605 -2.5763e-20 0.00932826)
(0.00451142 0.000382817 1.65589e-20 0.00481343 -4.77474e-20 0.00457177)
(0.0019679 0.000216691 8.35768e-19 0.00212083 4.676e-20 0.00200708)
(0.000779271 0.000114111 2.98376e-19 0.000854001 -5.60199e-20 0.000802589)
(0.000288033 5.69333e-05 -1.04462e-19 0.000323875 2.82401e-22 0.000301079)
(9.71235e-05 2.669e-05 3.95245e-20 0.000113664 4.98369e-21 0.000103796)
(1.53683e-06 6.00345e-07 -1.26439e-21 1.91528e-06 -1.79763e-22 1.70764e-06)
(0.141307 0.0793003 -1.26655e-16 0.19909 -2.43612e-17 0.164355)
(11.4503 2.74824 -7.66087e-15 13.3177 -1.86259e-15 12.2433)
(0.0178056 -0.00404459 -2.0417e-20 0.00845738 -6.82744e-20 0.0136308)
(0.014925 -0.00437533 -4.0801e-19 0.00819379 -9.34879e-19 0.0121058)
(0.0134745 -0.00487563 2.98306e-19 0.00899857 6.83291e-19 0.0118735)
(0.0118368 -0.00507868 4.11124e-19 0.0098328 7.61793e-19 0.0116123)
(0.0103011 -0.00503186 7.59069e-19 0.0107793 1.08897e-18 0.0114418)
(0.00881588 -0.00469197 -2.38949e-18 0.0117576 -4.11314e-18 0.0113281)
(0.00750073 -0.00406601 1.73498e-18 0.0126865 3.4146e-18 0.0113068)
(0.00644376 -0.00320094 2.39458e-18 0.0134678 2.13923e-18 0.0113316)
(0.00569106 -0.00214557 -1.4678e-19 0.0140741 2.98582e-19 0.0114203)
(0.00527593 -0.00099524 1.60072e-18 0.0144302 2.79991e-18 0.0115476)
(0.00519147 0.000154828 -3.55798e-18 0.0145624 -1.81547e-19 0.0117025)
(0.00539644 0.00123849 5.02094e-18 0.0145071 5.51962e-18 0.0118828)
(0.00585347 0.00219196 2.43371e-18 0.014442 1.00686e-18 0.0121311)
(0.00663837 0.00307176 1.26332e-18 0.0147155 -1.20236e-18 0.0126973)
(0.00778607 0.00395366 3.90314e-18 0.0154791 3.84979e-18 0.0137007)
(0.00473304 0.00308558 -6.87449e-18 0.00947916 -7.00232e-18 0.00844616)
(0.0112396 0.00598921 3.13283e-18 0.0187784 4.60239e-18 0.0172)
(0.0291706 0.0154344 6.45327e-17 0.0454271 1.85853e-17 0.0420612)
(0.0801275 0.0424517 5.23503e-17 0.117771 3.84626e-17 0.109872)
(0.19647 0.103562 -3.99413e-17 0.273064 -2.44682e-18 0.25651)
(0.410657 0.213675 9.51319e-17 0.53481 -2.15013e-16 0.508314)
(0.772732 0.391192 3.33895e-17 0.918841 2.92033e-16 0.897288)
(1.44301 0.684858 1.15905e-15 1.4686 -3.00408e-16 1.54445)
(2.76391 1.04756 -1.66483e-15 1.98701 -6.91206e-16 2.59467)
(5.60401 -0.22671 6.81329e-17 3.4169 5.03014e-17 4.75146)
(11.4412 -2.82834 -3.10232e-15 6.89195 8.43535e-16 9.49126)
(64.2754 -7.57023 1.08902e-15 56.1184 1.37324e-16 60.6175)
(149.629 -6.14066 -3.66734e-16 145.124 1.96073e-18 147.535)
(142.43 -3.19432 -5.70207e-15 141.105 3.32304e-15 141.525)
(109.183 -1.94503 -7.38131e-15 108.626 2.99136e-16 108.596)
(66.0794 -1.17873 1.39227e-14 65.6767 -3.90499e-15 65.6204)
(32.4757 -0.325935 7.87195e-15 32.1712 3.12598e-15 32.1343)
(11.73 0.0739979 3.08218e-16 11.6147 1.77975e-15 11.6315)
(2.47684 0.0387452 4.93491e-16 2.45178 -2.9066e-16 2.46311)
(0.199173 -0.00743171 3.08957e-17 0.199394 -1.18272e-17 0.199025)
(0.0258949 -0.00578809 -6.79386e-18 0.0285542 -4.0609e-18 0.0272398)
(5.69028e-16 -2.97206e-16 -8.51629e-33 7.54821e-16 -5.21492e-32 6.7615e-16)
(0.0138752 -0.00604037 1.03011e-17 0.0166196 5.03081e-18 0.0150442)
(1.22099 -0.141394 2.48612e-16 0.904506 -1.4376e-16 1.09376)
(0.010064 -0.00185634 -6.19028e-20 0.00337384 -1.444e-19 0.00699713)
(0.00134485 -0.000410225 -1.74909e-20 -0.00117933 -1.33228e-20 0.0001594)
(0.00312303 -0.000188392 2.50662e-19 -0.00084812 4.05345e-19 0.0012256)
(0.00307885 0.00033559 -1.92818e-19 -0.00180722 -1.26473e-20 0.000704841)
(0.00827804 0.00119714 5.93766e-20 0.00237113 2.82268e-19 0.00537727)
(0.0115354 0.00247376 -1.36536e-19 0.00496786 1.38494e-18 0.00827613)
(0.0118476 0.00350266 -2.53559e-19 0.00642208 1.40522e-18 0.00913073)
(0.0111495 0.00417625 4.74624e-18 0.00763637 3.17263e-18 0.00941064)
(0.0101325 0.00454522 8.77334e-19 0.0088872 -9.90633e-19 0.00953977)
(0.00897302 0.00458208 2.99248e-18 0.0100944 3.77365e-19 0.00956243)
(0.00793018 0.00436328 -2.97783e-18 0.0111801 -1.76905e-18 0.00960415)
(0.00702908 0.00396565 -2.48059e-18 0.0120344 3.74645e-18 0.00963893)
(0.00625511 0.00345594 3.59962e-18 0.0126645 -1.7537e-18 0.00966516)
(0.0056172 0.00288599 3.24638e-18 0.0131357 -1.53695e-20 0.00972872)
(0.00511922 0.00228951 -3.3215e-18 0.0134961 2.92847e-18 0.00984847)
(0.00446415 0.00162381 -2.70306e-18 0.0132012 6.16741e-18 0.00959054)
(0.00399429 0.00099992 8.5166e-18 0.0129644 -4.84366e-18 0.00949612)
(0.00248704 0.00035081 8.16317e-18 0.0105844 -1.50836e-18 0.00770034)
(0.00268641 -0.000200389 3.90659e-18 0.0111475 -3.88795e-19 0.00840815)
(0.00142637 -0.000717928 -1.40477e-18 0.00905691 4.79048e-18 0.0068523)
(0.000669709 -0.000338265 6.08454e-18 0.00260628 5.16739e-19 0.00212367)
(0.00158388 -0.000812164 3.70835e-19 0.00445057 -1.69745e-18 0.00389193)
(6.47461e-06 -3.17612e-06 -9.91936e-23 1.43277e-05 -3.26825e-22 1.30954e-05)
(0.0130819 -0.00601672 -9.78067e-19 0.0214466 -5.33144e-18 0.0218676)
(0.00175571 -0.0008216 -6.98588e-20 0.00220575 4.37723e-19 0.00262759)
(0.00517063 -0.00210484 2.86012e-17 0.004885 -1.59112e-18 0.00686235)
(0.00138328 -0.000451368 -2.58688e-20 0.00105293 1.92033e-21 0.00165988)
(0.00072058 -0.000174465 -2.97425e-19 0.000489494 7.93425e-21 0.00080094)
(0.00140983 -0.000283405 -5.08805e-21 0.000909609 1.15679e-22 0.001492)
(0.00204546 -0.000443948 -1.18379e-18 0.00121731 -4.20049e-20 0.00209764)
(0.00228225 -0.000583833 2.3315e-18 0.00129556 1.79397e-19 0.00227409)
(0.00213212 -0.000559411 -5.01897e-20 0.0013222 -1.23833e-21 0.00207557)
(0.00191938 -0.000543726 -4.66644e-18 0.00124729 2.78717e-19 0.00183367)
(0.00172765 -0.000534739 -7.15314e-21 0.00115053 3.1955e-19 0.00162154)
(0.00151589 -0.000509152 3.37566e-20 0.00102786 -3.15929e-19 0.00140201)
(0.00144782 -0.000521021 -1.48927e-19 0.000971253 2.62107e-19 0.00131214)
(2.45159e-05 -8.66117e-06 3.73094e-21 1.76411e-05 -7.97813e-22 2.21203e-05)
(0.0697724 -0.019959 3.37412e-16 0.038269 7.72589e-17 0.0582406)
(3.87832 1.66008 3.66754e-14 3.7934 8.43322e-15 3.93056)
(0.00542569 -0.00294953 -7.94952e-20 -0.00169134 -1.4258e-19 0.00171526)
(0.00616059 -0.00357098 -1.71552e-19 4.97964e-05 -2.7581e-19 0.00293312)
(0.00491803 -0.00400353 3.26481e-19 0.000407883 4.81966e-19 0.00244428)
(0.00381612 -0.00433511 4.4358e-19 0.000974244 4.45301e-19 0.00213161)
(0.00274143 -0.00447755 5.13818e-20 0.00163384 -2.03324e-20 0.00187055)
(0.001706 -0.00446287 -1.68296e-19 0.00237401 4.22739e-19 0.00165499)
(0.000747473 -0.00429166 3.5193e-18 0.00310622 3.51306e-18 0.00146528)
(-7.54319e-05 -0.00398175 -3.4387e-18 0.00380837 -4.51557e-18 0.0013174)
(-0.000725204 -0.00356224 9.85386e-19 0.00450294 2.55431e-19 0.00123241)
(-0.00123743 -0.00307398 5.09728e-18 0.0051067 3.76497e-18 0.00115935)
(-0.00165338 -0.00254307 4.34921e-18 0.00558812 4.38388e-18 0.00105266)
(-0.00182394 -0.0019975 5.15089e-18 0.00612257 1.49361e-18 0.00107416)
(-0.00176691 -0.00145736 -6.3645e-18 0.00671203 -4.80458e-18 0.00121639)
(-0.00167334 -0.000922749 -4.52144e-18 0.00718749 -4.47569e-18 0.00130942)
(-0.00149792 -0.000410853 5.53269e-19 0.00761336 -1.71763e-18 0.00139137)
(-0.00116429 0.000141757 -1.4682e-17 0.00812512 1.05403e-18 0.00158489)
(-0.000697792 0.000817511 -4.91688e-18 0.0086641 -6.19707e-18 0.00186534)
(-0.000390325 0.00164616 -3.35386e-17 0.00877602 -2.60534e-17 0.00190127)
(-0.000178565 0.000428065 6.86215e-19 0.00118788 -9.25888e-19 0.000134192)
(-7.87798e-17 9.50856e-16 5.17821e-31 1.76677e-15 -1.2378e-30 3.12008e-16)
(7.25198e-17 1.25853e-15 -5.92656e-30 1.56064e-15 5.51327e-32 3.66837e-16)
(1.01348e-16 2.11851e-15 1.35908e-30 1.55731e-15 2.70212e-31 3.41339e-16)
(-2.81341e-15 3.12527e-14 -9.09953e-29 7.325e-15 -1.74085e-29 -2.51159e-15)
(8.30467e-16 1.06921e-14 -1.04542e-29 1.24447e-15 1.17154e-29 -7.49322e-17)
(1.0321 0.440651 1.28064e-16 0.899743 8.43306e-18 0.945858)
(0.000237274 4.62047e-10 9.28663e-25 0.000237274 3.73885e-25 0.000237274)
(0.000151305 -4.30237e-12 -2.15683e-27 0.000151305 1.76772e-27 0.000151305)
(0.000549746 -8.65054e-11 1.5853e-26 0.000549745 1.17698e-27 0.000549745)
(0.000974446 -5.31455e-10 9.65736e-25 0.000974446 -1.92247e-25 0.000974446)
(0.00252635 -5.94765e-09 -9.7348e-25 0.00252635 4.26864e-24 0.00252635)
(0.01602 -4.15535e-07 -1.00025e-21 0.0160198 -5.27064e-22 0.0160199)
(0.320899 -0.000397747 1.97448e-18 0.320776 -1.72484e-18 0.320847)
(1.79722 -0.0838085 3.61336e-16 1.77377 -3.22093e-17 1.78748)
(1.59839 -0.025281 -1.39949e-16 1.57919 -8.25219e-16 1.59157)
(0.674224 0.0163077 -2.55706e-16 0.654883 -5.05297e-17 0.664375)
(0.117378 -0.0145547 4.66076e-18 0.123423 2.67801e-17 0.120448)
(0.0263236 -0.0098911 -2.36878e-17 0.0318063 3.27564e-18 0.0295924)
(0.0239231 -0.00637784 -1.6751e-17 0.0217988 1.18376e-17 0.0223425)
(2.04987 -0.278934 -3.26857e-16 1.04021 -9.82887e-17 1.48942)
(0.00549726 -0.00239719 -4.50052e-20 -0.00302073 -3.68721e-20 0.00113221)
(0.00540047 -0.00140151 1.39321e-19 -0.00252468 6.47899e-19 0.00135808)
(0.00939826 -0.000611251 4.71825e-19 0.000347162 9.99936e-19 0.00483319)
(0.013247 0.000461375 6.25523e-19 0.00281519 -3.10147e-19 0.00801234)
(0.0132159 0.00169729 -1.30785e-18 0.00321325 -1.06848e-18 0.00822293)
(0.0111674 0.00274268 -1.72837e-19 0.00278567 -1.5607e-18 0.00698284)
(0.00889126 0.00354374 -2.1562e-18 0.00250835 -2.03259e-18 0.0056979)
(0.00808182 0.00428302 -3.39647e-18 0.00362773 -1.08485e-19 0.00586194)
(0.00713009 0.00477004 -9.73481e-19 0.00492191 -6.03291e-19 0.0060515)
(0.00610836 0.00497319 1.40854e-18 0.00631594 -9.54599e-19 0.00625059)
(0.00518717 0.00491171 1.50624e-18 0.00773433 3.45448e-18 0.00649749)
(0.004416 0.00463814 3.63577e-18 0.00909 -1.40078e-18 0.00676992)
(0.00381552 0.00421606 -3.68532e-18 0.0103501 -3.82749e-18 0.00705782)
(0.00340085 0.00370645 -6.59361e-19 0.0115259 1.71817e-18 0.00737408)
(0.00314685 0.00316227 5.00807e-18 0.012589 -1.12609e-18 0.00768597)
(0.00300663 0.0026206 1.24801e-17 0.0135301 -1.0234e-18 0.00797026)
(0.00291159 0.00210664 -9.61077e-18 0.0143079 -2.21488e-18 0.00817007)
(0.00297859 0.00164255 -3.08704e-18 0.0151785 -4.45067e-18 0.00847492)
(0.00308466 0.00120242 -1.64234e-18 0.016031 9.28932e-19 0.00877492)
(0.00306421 0.000742349 2.27515e-17 0.0166598 -8.3559e-18 0.0089004)
(0.00301411 0.000233649 4.26952e-18 0.0171192 -5.90941e-18 0.00892397)
(0.00302893 -0.000365817 -2.83997e-17 0.0175442 7.66088e-18 0.00896)
(0.00305245 -0.00117126 -1.16026e-18 0.0178035 3.95439e-18 0.00893836)
(0.00366057 -0.00193251 -4.60328e-19 0.017286 -2.62313e-18 0.00888532)
(0.00475066 -0.00227863 3.27621e-19 0.0158557 -2.72219e-20 0.00871682)
(0.00564617 -0.00230683 -2.36331e-17 0.0146909 -2.6588e-18 0.00849672)
(0.00626672 -0.00217315 -2.42213e-19 0.0137125 4.12562e-20 0.00823576)
(0.00675016 -0.00198684 4.66495e-18 0.0130273 -4.30233e-20 0.0080603)
(0.00707179 -0.00175347 -1.83051e-19 0.0123753 -3.21725e-21 0.00787068)
(0.0072763 -0.00150412 4.66411e-20 0.011801 -3.64467e-19 0.00769322)
(0.00738567 -0.00128747 -1.20615e-17 0.0112148 1.27841e-19 0.00752331)
(0.00737107 -0.00113355 -2.75807e-19 0.0105304 -1.69249e-20 0.00730164)
(0.00724136 -0.00108163 2.4357e-19 0.00972334 -8.84337e-19 0.00701532)
(0.0070952 -0.00119421 3.03596e-17 0.00888246 4.24761e-18 0.00672523)
(0.00675457 -0.00143378 1.48142e-19 0.00778194 1.47776e-20 0.00625816)
(0.00686647 -0.00213975 -4.35987e-17 0.00699139 -4.44351e-18 0.00608445)
(0.000295051 -0.000124253 6.6593e-18 0.000255262 9.41632e-19 0.000248663)
(0.0376126 -0.0138535 2.83821e-18 0.0271129 -1.26619e-17 0.0308052)
(3.03576 0.417905 1.25897e-15 1.27069 -6.9978e-15 2.03751)
(0.00656121 -0.00465675 -1.93535e-19 -0.00448078 -2.76763e-19 0.00114192)
(0.00483431 -0.00478983 -3.09962e-19 -0.00315498 -4.17321e-19 0.000967288)
(0.00390996 -0.00558265 1.08337e-18 -0.00218823 1.37676e-18 0.0010063)
(0.00264754 -0.0058681 -4.50799e-18 -0.000981752 -6.04021e-18 0.00101619)
(0.00142755 -0.00607454 1.13635e-18 0.000241312 1.71159e-18 0.00106443)
(0.000158633 -0.00601122 2.52752e-18 0.00153134 2.60632e-18 0.00112157)
(-1.82603e-05 -9.68318e-05 -3.81291e-20 4.75039e-05 -6.10652e-20 2.0465e-05)
(-0.000246103 -0.000571588 -1.68479e-19 0.000442889 2.80063e-20 0.000145568)
(-0.000616535 -0.000834069 -1.90224e-18 0.000969511 -1.78209e-18 0.000275544)
(-0.00103782 -0.000865654 -3.94031e-19 0.00153373 -1.01958e-18 0.000411148)
(-0.00140389 -0.0006715 9.31572e-20 0.002021 -3.01627e-19 0.000542239)
(-0.00162568 -0.000307972 -2.02513e-18 0.00233242 -2.53675e-18 0.000657468)
(-0.00175075 0.000138255 1.11875e-18 0.00255198 1.32389e-18 0.000786792)
(-0.0017451 0.000629816 -5.15242e-18 0.00263941 -2.65505e-18 0.000918418)
(-0.0016414 0.00114809 1.25244e-18 0.00264843 6.97501e-19 0.00106958)
(-0.00144292 0.00167893 6.28773e-18 0.00259286 5.20897e-18 0.00123897)
(-0.00109338 0.00207416 -9.26159e-18 0.00237239 -2.58976e-18 0.00134005)
(-0.00063226 0.00218996 -1.69595e-18 0.00195985 7.61313e-18 0.00131435)
(-0.000162648 0.00185684 -4.84189e-19 0.00134008 -8.07343e-19 0.00108004)
(0.000228622 0.0022763 -7.07314e-18 0.00134489 -1.0514e-18 0.00132726)
(0.00049384 0.0017043 5.80271e-18 0.00082728 3.55185e-18 0.00102329)
(0.000205022 0.000430168 4.98019e-20 0.000165977 -7.85897e-20 0.00026733)
(8.40969e-16 1.31775e-15 3.94728e-30 3.43384e-16 1.09022e-30 8.15646e-16)
(1.07806e-15 1.6189e-15 3.84778e-30 9.73632e-17 1.25453e-30 8.24579e-16)
(3.78235e-15 1.02599e-14 -2.80646e-30 -3.06738e-15 -2.39989e-31 1.28502e-15)
(4.99879e-05 2.90072e-10 8.11407e-27 4.99877e-05 -1.64363e-26 4.99878e-05)
(3.23919e-05 3.29115e-16 1.38626e-31 3.23919e-05 -3.66415e-32 3.23919e-05)
(0.000119457 1.23014e-15 -5.57496e-31 0.000119457 -8.03433e-31 0.000119457)
(0.000214685 -1.57133e-15 -3.79305e-29 0.000214685 -4.43039e-31 0.000214685)
(0.00056375 -8.19723e-14 3.30188e-29 0.00056375 2.02066e-30 0.00056375)
(0.00361728 -4.08599e-12 -1.81539e-27 0.00361728 4.26318e-28 0.00361728)
(0.0732381 -1.09725e-09 -5.80694e-24 0.0732381 -4.3421e-24 0.0732381)
(0.411844 -0.000190632 -9.01948e-20 0.411811 -3.11519e-19 0.411831)
(5.89145e-06 -4.75409e-12 -5.81186e-26 5.89145e-06 4.73264e-27 5.89145e-06)
(0.261043 -0.0129339 3.947e-17 0.25366 1.17031e-16 0.256922)
(0.225551 -0.00719158 9.02056e-20 0.222574 -1.68938e-20 0.224218)
(0.118282 -0.0145454 5.35979e-18 0.119157 5.90439e-17 0.120887)
(0.0343024 -0.00156596 -1.75703e-18 0.0229754 -9.08665e-18 0.0280401)
(2.27725 -0.248284 7.3264e-17 1.19155 -6.19461e-16 1.60157)
(0.00885295 -0.00369465 3.57991e-19 -0.00398724 2.0596e-19 0.00254346)
(0.0144324 -0.00270207 -1.08553e-18 -0.000329355 -1.67845e-18 0.00711659)
(0.0160679 -0.0012338 -6.63742e-19 3.78367e-05 1.09474e-18 0.00811743)
(0.0133914 0.000466277 2.96692e-18 -0.00194325 1.96017e-18 0.00575774)
(0.010077 0.00212778 -1.08106e-18 -0.00422491 -5.52637e-18 0.00295015)
(0.00566663 0.00278825 -1.53894e-18 -0.0038568 1.19332e-18 0.000902863)
(0.00185437 0.00146248 1.54189e-18 -0.00111987 1.18956e-18 0.000364001)
(0.00159196 0.0019124 -6.18325e-19 -0.000740793 -1.55056e-18 0.000425681)
(0.00124167 0.00234003 -1.67054e-18 -0.000222742 -7.19429e-19 0.000513359)
(0.000810543 0.00273424 -1.54306e-18 0.000458759 6.04347e-19 0.000642497)
(0.000325977 0.00311667 2.27738e-18 0.00133483 3.93729e-20 0.000840194)
(-0.000200674 0.00333354 -1.76073e-18 0.00236195 -1.52973e-18 0.00109287)
(-0.000682515 0.00330859 -2.63624e-18 0.0034195 2.02643e-18 0.00138737)
(-0.00104624 0.00311274 3.14117e-18 0.004475 1.2489e-18 0.00174738)
(-0.00124578 0.0028039 -5.89305e-18 0.00552103 1.04011e-18 0.00219423)
(-0.00121977 0.00234804 -1.58148e-18 0.0063715 -4.69804e-18 0.00266748)
(-0.000962374 0.00179711 2.1226e-18 0.00688954 2.72135e-18 0.00309768)
(-0.00055448 0.00126757 -9.48831e-18 0.00724744 5.72084e-19 0.00353037)
(-5.02951e-05 0.000761224 3.96366e-18 0.00730207 -1.2587e-19 0.00385556)
(0.00045195 0.000310422 -1.57063e-17 0.00708556 1.27828e-18 0.00403551)
(0.000903857 -7.13343e-05 -1.8934e-18 0.0067668 5.22871e-19 0.00412889)
(0.00131531 -0.000404504 1.26109e-17 0.00643739 7.44438e-19 0.00419042)
(0.0017082 -0.000705978 1.18128e-17 0.00607911 -2.49116e-18 0.00421799)
(0.00212534 -0.000960627 -9.92449e-18 0.00564857 7.62973e-19 0.00422416)
(0.00256401 -0.00110906 -1.28384e-19 0.00516996 6.27663e-20 0.00421751)
(0.00296018 -0.00113483 -9.16172e-18 0.00470849 2.05118e-18 0.00419311)
(0.00328187 -0.00108774 -1.22083e-19 0.00428541 2.42573e-21 0.0041648)
(0.00353623 -0.00100567 -2.38947e-22 0.00390988 -1.25057e-20 0.00414004)
(0.00373451 -0.000904186 7.27301e-21 0.00358589 -5.84907e-22 0.00411595)
(0.00388973 -0.000792412 3.14448e-18 0.00331395 1.19115e-19 0.0040957)
(0.00402797 -0.000684654 4.15476e-21 0.00312325 -2.43207e-19 0.00409974)
(0.00419801 -0.000590299 -1.00469e-19 0.00304792 -1.48535e-20 0.00416707)
(0.0043635 -0.000498625 -2.00359e-17 0.00303901 -2.27035e-18 0.00425253)
(0.00458563 -0.000419278 -1.90848e-17 0.00312366 -1.46838e-18 0.00440621)
(0.00464908 -0.000332994 3.23685e-20 0.0031508 1.72489e-20 0.00442131)
(0.00580351 -0.000398105 -4.03179e-17 0.0039112 -6.8109e-18 0.00542098)
(0.000752123 -4.92251e-05 1.41192e-20 0.000493393 -1.90779e-19 0.000688648)
(0.0266121 -0.00352731 7.83996e-19 0.0130868 1.7561e-19 0.0220817)
(1.81837 0.279157 -2.96839e-14 0.749675 -3.03022e-15 1.33574)
(0.0135794 -0.00732122 7.45012e-19 -0.00370384 8.42743e-19 0.00486963)
(0.0123514 -0.00868269 -5.57799e-19 -0.00234518 -6.05136e-19 0.00494029)
(0.0108823 -0.0100565 -2.27645e-21 -0.00054956 -5.04159e-20 0.00506141)
(0.00908821 -0.0111024 -2.94133e-19 0.00154146 2.61883e-19 0.00518926)
(0.00708772 -0.0117802 7.51529e-18 0.00380636 7.84018e-18 0.00529322)
(0.00488897 -0.0120117 -4.90311e-18 0.00626818 -6.15809e-18 0.00536965)
(0.00265278 -0.0117619 -3.63763e-19 0.00872515 1.57297e-18 0.00542534)
(0.000505496 -0.0110704 1.79297e-17 0.0110746 1.70576e-17 0.00545534)
(-0.00147969 -0.00997273 -4.30414e-18 0.0132611 3.37467e-19 0.00545734)
(-0.00321192 -0.0085409 -2.24441e-17 0.0151864 -1.49262e-17 0.00543856)
(-0.00464468 -0.00684323 7.42475e-18 0.0168164 6.16926e-18 0.00539072)
(-0.00575235 -0.00494702 -2.12106e-17 0.0181307 -6.73854e-18 0.00531145)
(-0.00652068 -0.00293211 -8.49645e-18 0.0191219 -3.17194e-18 0.0052011)
(-0.00695879 -0.000857442 -1.58023e-17 0.0198089 8.73324e-18 0.00504923)
(-0.00708556 0.00123459 1.50192e-18 0.0202171 8.32524e-19 0.00485495)
(-0.00692817 0.00329949 1.43107e-17 0.0203789 3.14951e-18 0.00461003)
(-0.00624815 0.00541408 2.25362e-17 0.0205604 3.28477e-17 0.00461728)
(-0.0050493 0.00718319 9.06199e-17 0.0189685 2.4403e-17 0.00423214)
(-0.00210175 0.00707997 -3.15681e-17 0.0144495 -1.23831e-18 0.00392066)
(0.000152465 0.00688536 2.62768e-17 0.0112901 1.1501e-17 0.00385811)
(0.00175161 0.00566459 3.15453e-18 0.0076521 -9.48355e-18 0.00339143)
(0.00084979 0.00141424 -8.53959e-19 0.00161655 1.54745e-18 0.000948113)
(0.00111868 0.00119675 -4.54172e-18 0.0011952 -2.60555e-18 0.00093946)
(0.0008575 0.000641867 1.14151e-19 0.000599334 -1.35094e-19 0.000612664)
(9.36414e-16 5.7198e-16 2.15934e-31 4.63065e-16 -4.64861e-32 6.00521e-16)
(6.66668e-16 1.89354e-21 4.69408e-36 6.66666e-16 -1.41736e-36 6.66666e-16)
(6.66667e-16 8.61664e-27 -7.82401e-42 6.66667e-16 -2.78218e-42 6.66667e-16)
(6.66667e-16 8.27179e-27 -7.40624e-42 6.66667e-16 -3.89939e-43 6.66667e-16)
(6.66667e-16 1.1642e-26 6.76903e-41 6.66667e-16 2.94659e-41 6.66667e-16)
(6.66667e-16 1.86236e-26 -2.5424e-41 6.66667e-16 -1.04211e-40 6.66667e-16)
(6.66667e-16 1.6567e-26 -8.5632e-40 6.66667e-16 3.33991e-40 6.66667e-16)
(6.66667e-16 -1.53529e-25 -4.65445e-39 6.66667e-16 4.741e-39 6.66667e-16)