/*--------------------------------*- C++ -*----------------------------------*\
| =========                 |                                                 |
| \\      /  F ield         | OpenFOAM: The Open Source CFD Toolbox           |
|  \\    /   O peration     | Version:  2312                                  |
|   \\  /    A nd           | Website:  www.openfoam.com                      |
|    \\/     M anipulation  |                                                 |
\*---------------------------------------------------------------------------*/
FoamFile
{
    version     2.0;
    format      ascii;
    arch        "LSB;label=32;scalar=64";
    class       volVectorField;
    location    "300";
    object      U;
}
// * * * * * * * * * * * * * * * * * * * * * * * * * * * * * * * * * * * * * //

dimensions      [0 1 -1 0 0 0 0];

internalField   nonuniform List<vector> 
10720
(
(0.359722 26.7913 1.14909e-17)
(2.04288 29.0897 -1.05431e-17)
(4.16148 31.3169 0)
(6.60671 33.0738 -3.76908e-16)
(9.31453 34.4386 4.20802e-16)
(12.2186 35.3672 3.11092e-16)
(15.1668 35.7609 4.36444e-16)
(18.0643 35.6522 0)
(20.8275 35.1018 0)
(23.375 34.1478 0)
(25.669 32.8672 1.19105e-16)
(27.6845 31.3558 0)
(29.3632 29.591 2.39505e-15)
(30.6902 27.6071 0)
(31.6317 25.425 0)
(32.1768 23.0781 0)
(32.2871 20.5739 -4.30829e-15)
(31.9481 17.9575 -6.63996e-15)
(31.1429 15.2464 6.118e-15)
(29.9283 12.5165 0)
(28.4054 9.86028 5.50712e-15)
(26.9222 7.43752 -1.1228e-14)
(26.1649 5.47771 5.56918e-15)
(26.7736 3.9835 -1.44823e-16)
(29.3728 2.63505 0)
(31.489 2.07126 1.14128e-15)
(33.1494 1.51875 1.12474e-17)
(33.2384 0.0162308 -2.34643e-16)
(32.474 -1.90532 -8.88968e-16)
(31.5993 -2.75597 -3.34868e-15)
(30.426 -2.95761 2.01427e-15)
(28.5085 -3.09563 5.91509e-15)
(25.4555 -2.92087 6.10272e-15)
(19.8983 -2.33869 2.34917e-14)
(10.9952 -1.31131 -1.24209e-14)
(-2.47513 0.183605 -1.59153e-16)
(0.0861067 -1.1307 2.02705e-17)
(9.55752 -2.60816 -2.19017e-14)
(-0.142411 -0.224017 2.51312e-15)
(-0.956288 24.346 -2.32686e-18)
(-2.00434 21.5995 -1.69008e-17)
(-2.70839 18.5154 6.63611e-17)
(-2.94865 14.9572 -1.87086e-16)
(-2.56637 11.2842 -6.25423e-16)
(-1.54111 7.64708 1.11179e-15)
(0.00728182 4.37822 6.04449e-15)
(1.82565 1.70844 3.17347e-15)
(3.81338 -0.625335 0)
(6.06864 -2.6035 0)
(8.34428 -4.03448 1.94004e-15)
(10.4304 -4.94077 7.08921e-16)
(12.2776 -5.45397 -1.18615e-15)
(13.8931 -5.69168 9.7439e-16)
(15.2982 -5.74884 1.60265e-15)
(16.5257 -5.68729 1.02955e-15)
(17.6075 -5.55839 1.30067e-15)
(18.5771 -5.38377 8.54281e-16)
(19.4657 -5.18158 0)
(20.295 -4.956 0)
(21.0815 -4.71426 -1.1268e-15)
(21.8365 -4.44172 -4.89944e-17)
(22.5738 -4.08826 6.86713e-16)
(23.232 -3.70076 -4.45899e-16)
(23.7608 -3.2356 2.731e-17)
(24.1392 -2.71654 0)
(24.3857 -2.16555 2.06202e-17)
(24.5223 -1.62426 0)
(24.4978 -1.10894 0)
(24.2804 -0.622741 -6.57685e-17)
(23.8604 -0.164758 0)
(23.2363 0.26211 3.80882e-16)
(22.3984 0.650848 7.02188e-16)
(21.3303 0.990957 3.38515e-15)
(19.9891 1.27295 -1.10244e-15)
(18.3331 1.4716 4.05307e-18)
(16.168 1.66386 0)
(14.1947 1.29676 1.59622e-15)
(17.6135 2.99916 2.34088e-15)
(7.08152 23.2502 -9.86818e-18)
(8.9156 24.9816 1.65577e-18)
(11.1604 26.558 0)
(13.7562 27.8756 0)
(16.5619 28.8733 -1.23641e-16)
(19.5819 29.4912 -2.98468e-16)
(22.7058 29.6818 0)
(25.8033 29.4638 0)
(28.8211 28.8458 6.50498e-16)
(31.6747 27.8751 0)
(34.314 26.6104 2.42556e-15)
(36.7122 25.102 0)
(38.8848 23.4708 8.71839e-16)
(40.8437 21.7614 -8.55987e-16)
(42.6046 19.9892 1.73165e-15)
(44.1196 18.192 -3.45325e-15)
(45.374 16.3852 3.68085e-15)
(46.3384 14.5847 3.35584e-15)
(46.9708 12.7805 3.27594e-15)
(47.2063 10.9635 2.00016e-16)
(46.9764 9.09777 -3.4462e-15)
(46.2183 7.15417 3.32212e-15)
(44.8087 5.10737 -1.88238e-16)
(42.6412 3.12139 0)
(39.2569 1.64796 0)
(36.5157 0.533257 0)
(34.9678 -0.132915 5.21955e-17)
(34.0446 -0.630662 -9.34214e-18)
(33.1372 -1.09321 6.31121e-16)
(32.1967 -1.67456 -1.96016e-17)
(31.2006 -2.25327 4.95696e-18)
(30.3171 -2.70612 -4.01482e-17)
(29.5903 -3.06382 4.21377e-15)
(28.9575 -3.18837 -6.89156e-15)
(25.2586 -2.80032 -3.67649e-17)
(11.6516 -1.254 -1.13649e-14)
(3.15173 -0.853065 0)
(12.9752 -2.84369 6.88608e-15)
(-1.03576 0.302013 1.55174e-15)
(5.544 21.4112 1.32082e-17)
(4.21802 19.3726 -5.46186e-17)
(3.07209 16.9915 -6.47385e-16)
(2.22104 14.2929 8.05785e-16)
(1.84669 11.3654 0)
(2.03746 8.3543 -1.73807e-15)
(2.79873 5.48021 -1.32621e-15)
(4.00612 2.93518 -9.53632e-15)
(5.52053 0.67954 2.53304e-15)
(7.30792 -1.14791 -1.8476e-15)
(9.20203 -2.44218 2.29694e-15)
(11.041 -3.27677 -6.46725e-16)
(12.7538 -3.77257 0)
(14.3155 -4.02276 -4.19065e-16)
(15.7187 -4.10869 6.15342e-17)
(16.9759 -4.08343 -9.15206e-16)
(18.1061 -3.98943 0)
(19.1332 -3.85318 0)
(20.082 -3.69 -9.17241e-17)
(20.9741 -3.49776 8.83449e-17)
(21.8261 -3.26907 -1.01342e-15)
(22.6536 -2.98677 -1.0623e-16)
(23.4327 -2.65957 4.40265e-17)
(24.1789 -2.18697 4.6428e-16)
(24.8229 -1.61404 -2.77726e-16)
(25.3374 -1.01054 -1.76261e-16)
(25.745 -0.408049 0)
(26.0542 0.187699 0)
(26.3182 0.767241 0)
(26.5631 1.32467 9.50261e-18)
(26.7907 1.84768 0)
(26.9936 2.32855 0)
(27.1584 2.76237 -1.05945e-15)
(27.2696 3.14519 -9.7035e-16)
(27.2841 3.47137 7.61684e-16)
(27.1965 3.75401 -4.22087e-16)
(26.6518 3.92678 1.84502e-16)
(26.5323 4.55028 -1.20555e-15)
(22.6893 4.22004 -1.36093e-15)
(8.33932 21.4233 -2.23166e-18)
(9.64209 22.952 5.38729e-19)
(11.2347 24.4447 -1.9535e-18)
(13.0711 25.829 -3.24258e-17)
(15.1006 26.9883 -1.60156e-16)
(17.3229 27.8997 5.67019e-16)
(19.6654 28.523 -3.9916e-16)
(22.055 28.8201 -4.77978e-16)
(24.4357 28.79 9.78325e-18)
(26.7501 28.4431 -6.35309e-16)
(28.9454 27.7999 5.98638e-16)
(30.9882 26.888 -1.56119e-15)
(32.8491 25.7346 -7.45951e-16)
(34.5173 24.3654 0)
(35.9697 22.8204 -1.82068e-15)
(37.2535 21.11 3.67462e-15)
(38.4035 19.2492 0)
(39.4277 17.2786 -7.00396e-15)
(40.356 15.2223 -3.50922e-15)
(41.1761 13.1207 4.10502e-16)
(41.8707 10.9868 -4.0394e-16)
(42.3323 8.85056 -1.84133e-16)
(42.4008 6.75545 -2.59135e-15)
(41.9844 4.8449 1.24229e-15)
(40.9037 3.15937 0)
(39.2301 1.72321 8.3334e-16)
(36.9644 0.451285 -6.57326e-17)
(35.241 -0.421042 0)
(33.8817 -1.08919 9.47985e-16)
(32.5793 -1.74453 1.5286e-15)
(31.3921 -2.31688 -3.01631e-15)
(30.2894 -2.77189 -3.5788e-15)
(29.082 -3.08148 -9.61391e-17)
(28.4982 -3.12913 -6.24671e-15)
(28.7172 -3.02081 -3.97014e-15)
(22.6601 -2.49169 7.05796e-15)
(17.8235 -2.76331 0)
(19.2548 -3.8579 6.46685e-15)
(-0.601483 0.715606 -2.56949e-15)
(7.28348 19.817 -1.80842e-17)
(6.36369 18.0688 -6.43907e-17)
(5.60966 16.0168 2.61528e-16)
(5.01568 13.7254 0)
(4.73488 11.2691 4.86467e-16)
(4.81245 8.72238 0)
(5.27304 6.22823 3.72944e-15)
(6.07113 3.92275 2.07102e-15)
(7.18497 1.86084 1.69356e-15)
(8.56003 0.124263 0)
(10.0624 -1.23876 -2.37276e-15)
(11.5778 -2.25514 -4.98377e-16)
(13.0415 -2.98276 2.24096e-15)
(14.4188 -3.47732 0)
(15.6916 -3.79024 -1.01791e-15)
(16.8588 -3.96529 -3.05506e-16)
(17.9283 -4.03997 1.24054e-15)
(18.9149 -4.03985 6.34961e-16)
(19.836 -3.98095 1.70668e-16)
(20.709 -3.86825 -9.42269e-17)
(21.5458 -3.70378 9.3049e-16)
(22.3542 -3.47926 0)
(23.1416 -3.17612 0)
(23.8751 -2.78304 2.74e-17)
(24.5184 -2.31104 0)
(25.0475 -1.81124 3.77961e-16)
(25.4726 -1.30354 -4.31167e-18)
(25.806 -0.794734 -6.65927e-18)
(26.0537 -0.28861 0)
(26.2196 0.205378 4.61871e-17)
(26.3155 0.686386 -1.02864e-16)
(26.355 1.15293 0)
(26.3511 1.60384 4.97821e-16)
(26.3251 2.03808 0)
(26.2841 2.45953 0)
(26.3057 2.87367 4.99718e-17)
(26.2063 3.33098 -1.10929e-16)
(26.3267 3.83613 1.10544e-15)
(23.9388 4.18874 1.46504e-15)
(10.8932 19.6165 -1.4428e-17)
(12.1109 20.9146 -1.31756e-17)
(13.5785 22.1829 4.50785e-18)
(15.2721 23.3475 -2.46665e-18)
(17.1472 24.3189 0)
(19.2107 25.0787 0)
(21.4082 25.5822 -6.65648e-16)
(23.6805 25.7937 8.08756e-16)
(25.9818 25.7046 0)
(28.2581 25.3155 -1.00296e-15)
(30.4587 24.639 -1.28611e-15)
(32.5456 23.6953 -1.21741e-15)
(34.4841 22.5148 1.4633e-15)
(36.2464 21.1334 1.38258e-15)
(37.8181 19.5842 0)
(39.181 17.9049 2.21263e-15)
(40.2903 16.1487 7.63567e-16)
(41.132 14.3506 6.2017e-15)
(41.7032 12.5351 3.77152e-16)
(42.022 10.717 -3.74009e-16)
(42.1068 8.90814 3.20041e-15)
(41.9767 7.12689 -5.2843e-16)
(41.6201 5.4088 2.91668e-15)
(41.0506 3.87017 1.19609e-15)
(40.3207 2.66294 -6.59211e-17)
(39.5703 1.6781 -9.39146e-16)
(38.4122 0.773363 6.0059e-18)
(36.9406 -0.112214 -6.1153e-18)
(35.4441 -0.959241 -1.52056e-15)
(33.889 -1.69347 -4.11295e-17)
(32.2998 -2.28452 2.60557e-15)
(30.7927 -2.73482 -4.62061e-15)
(29.2822 -3.028 -3.95944e-15)
(27.8057 -3.02355 -5.07454e-17)
(27.9424 -2.85424 3.65408e-15)
(26.3446 -2.90526 0)
(24.5262 -3.62415 3.77808e-15)
(23.2731 -4.15258 -5.12156e-15)
(-0.424621 1.26499 1.04393e-15)
(9.87721 18.2611 -3.10558e-17)
(8.97199 16.7959 8.77349e-17)
(8.19152 15.0714 3.71353e-16)
(7.54865 13.1281 0)
(7.17254 11.0361 -4.26911e-16)
(7.09523 8.84819 0)
(7.33976 6.66765 -2.7123e-15)
(7.87537 4.60184 -1.11301e-16)
(8.68639 2.71654 1.22734e-15)
(9.73514 1.08048 1.06509e-15)
(10.93 -0.260986 3.53928e-17)
(12.1881 -1.30575 1.76872e-15)
(13.4527 -2.0854 -1.1251e-15)
(14.6844 -2.63991 3.57341e-16)
(15.8574 -3.0089 1.20306e-15)
(16.9604 -3.23185 1.31067e-15)
(17.9918 -3.3427 -1.16219e-15)
(18.9565 -3.36784 8.6376e-18)
(19.8651 -3.32665 0)
(20.7293 -3.22781 1.165e-15)
(21.5581 -3.074 5.51271e-17)
(22.3574 -2.85971 -8.36705e-16)
(23.1264 -2.5747 0)
(23.8485 -2.20004 2.73043e-17)
(24.4875 -1.74216 0)
(25.0199 -1.23799 -1.86207e-16)
(25.4511 -0.709535 0)
(25.7918 -0.168556 6.28977e-18)
(26.0472 0.373449 2.61893e-19)
(26.2217 0.905654 -3.05385e-19)
(26.3202 1.41547 9.45791e-17)
(26.3479 1.88943 2.92383e-18)
(26.3092 2.3221 0)
(26.212 2.70965 -3.44413e-16)
(26.0555 3.05555 -5.03857e-18)
(25.8718 3.35745 3.46075e-16)
(25.5718 3.67592 -1.84604e-17)
(25.3283 4.01894 2.23557e-18)
(23.9615 4.15425 0)
(12.4441 18.2661 -1.97964e-17)
(13.4696 19.4175 -5.68536e-18)
(14.7119 20.5641 7.73347e-18)
(16.1368 21.644 9.39957e-17)
(17.7059 22.5752 -3.96742e-17)
(19.4401 23.3535 -1.69401e-16)
(21.2938 23.9388 2.83639e-16)
(23.2212 24.2952 0)
(25.1922 24.4123 1.14934e-15)
(27.1614 24.2825 5.42017e-16)
(29.0881 23.9067 0)
(30.9386 23.295 1.17048e-15)
(32.6791 22.4654 -6.23727e-16)
(34.2818 21.4378 1.73844e-15)
(35.7267 20.2356 0)
(36.9939 18.8807 -2.92409e-15)
(38.0806 17.3792 2.79067e-15)
(38.9888 15.7362 -1.70825e-16)
(39.7082 13.9719 0)
(40.2208 12.1209 3.05627e-15)
(40.5067 10.2168 -3.11098e-15)
(40.541 8.3104 -1.60859e-16)
(40.3 6.45959 -2.4761e-15)
(39.7772 4.7751 -2.3001e-15)
(39.0924 3.34071 0)
(38.3538 2.16871 0)
(37.6573 1.18383 -2.43966e-16)
(36.9256 0.247569 -2.74023e-17)
(36.0569 -0.655456 1.71077e-15)
(35.0102 -1.44262 -4.52251e-17)
(33.7872 -2.09077 4.61453e-17)
(32.4215 -2.5922 4.72141e-15)
(30.8792 -2.93819 0)
(29.0247 -2.99948 1.12718e-14)
(27.7479 -2.75574 -3.29927e-17)
(26.5903 -2.89355 0)
(26.2345 -3.69005 -1.09077e-16)
(23.7302 -3.54292 0)
(-0.272135 1.70926 -9.45212e-16)
(11.5825 17.0703 3.16526e-17)
(10.8121 15.7905 -1.95346e-16)
(10.1273 14.2832 -4.46515e-17)
(9.53577 12.5873 8.50773e-16)
(9.15208 10.768 -1.34135e-15)
(8.99924 8.85718 -1.74509e-15)
(9.10275 6.92823 2.05306e-15)
(9.45434 5.07275 -2.1012e-15)
(10.0469 3.35901 -9.28637e-16)
(10.851 1.83832 -8.15691e-16)
(11.8028 0.547874 1.56495e-15)
(12.84 -0.501576 -1.48923e-15)
(13.9165 -1.32802 -6.45231e-16)
(14.9955 -1.95804 6.27945e-16)
(16.0499 -2.41749 -1.34566e-15)
(17.0641 -2.73633 2.47847e-16)
(18.0307 -2.94086 0)
(18.9487 -3.05302 -9.11696e-16)
(19.8228 -3.08898 3.19658e-16)
(20.6601 -3.05789 -1.22343e-15)
(21.467 -2.96278 0)
(22.2467 -2.80042 7.28016e-16)
(22.9972 -2.56265 5.58504e-16)
(23.7038 -2.2378 -3.96406e-16)
(24.3354 -1.83228 0)
(24.8696 -1.37862 -2.21726e-16)
(25.3073 -0.902153 0)
(25.6568 -0.415661 0)
(25.9226 0.0710439 0)
(26.1082 0.547584 -1.80571e-17)
(26.2183 1.00563 0)
(26.2592 1.44496 0)
(26.2352 1.86334 3.31352e-16)
(26.1525 2.25764 3.31583e-16)
(26.0088 2.62881 0)
(25.8158 2.97625 2.31282e-16)
(25.5007 3.34041 9.59779e-17)
(25.108 3.66325 0)
(23.9547 4.05948 -6.4266e-16)
(13.9288 17.0772 2.45736e-17)
(14.8599 18.096 -1.74561e-17)
(15.9834 19.1165 0)
(17.2675 20.0804 9.37626e-18)
(18.675 20.9151 -9.3596e-17)
(20.2354 21.6215 1.58965e-16)
(21.9095 22.1609 4.58063e-17)
(23.6604 22.5009 -7.11303e-16)
(25.4679 22.628 -9.15779e-17)
(27.2945 22.5304 1.10169e-15)
(29.1057 22.203 -3.94105e-16)
(30.8722 21.6483 8.99309e-16)
(32.5613 20.8752 4.51887e-16)
(34.1449 19.8968 3.24331e-16)
(35.5988 18.7304 0)
(36.9018 17.3952 -6.316e-16)
(38.0345 15.9155 -1.40513e-15)
(38.9666 14.3361 -5.19241e-15)
(39.6783 12.6934 1.53682e-15)
(40.1613 11.0106 -1.96332e-15)
(40.4078 9.30951 -3.07998e-16)
(40.4101 7.61487 0)
(40.1551 5.96489 2.20257e-15)
(39.6425 4.43745 1.4144e-16)
(38.9402 3.11939 -6.27393e-17)
(38.1598 2.01559 -8.74154e-16)
(37.3893 1.05673 2.00035e-16)
(36.6341 0.158395 4.19234e-16)
(35.8339 -0.687587 -1.57779e-15)
(34.9431 -1.43463 -8.30725e-17)
(33.9542 -2.06536 2.63672e-15)
(32.8836 -2.56577 4.15211e-15)
(31.6758 -2.91406 0)
(30.2611 -3.00845 1.74742e-17)
(28.6621 -2.76057 -3.31709e-15)
(26.8604 -2.8649 0)
(26.6721 -3.49657 -5.18896e-15)
(23.0949 -2.59805 0)
(-0.195611 2.18448 1.16522e-15)
(13.1383 16.0224 -3.14087e-17)
(12.4278 14.9002 7.88566e-17)
(11.7827 13.5748 -1.94797e-16)
(11.2113 12.08 0)
(10.8149 10.4777 5.67748e-16)
(10.609 8.78888 2.84223e-15)
(10.6161 7.0664 0)
(10.8376 5.39241 -1.51348e-15)
(11.2693 3.83318 -1.43717e-15)
(11.8875 2.42629 1.4331e-15)
(12.6467 1.2025 -5.73907e-17)
(13.5002 0.177423 6.17533e-16)
(14.4125 -0.657958 3.48248e-17)
(15.3524 -1.32025 1.60635e-15)
(16.2942 -1.82534 1.42706e-15)
(17.2214 -2.19477 -1.33226e-15)
(18.1232 -2.44867 1.85025e-16)
(18.9943 -2.6052 -3.42885e-16)
(19.8345 -2.67873 1.58163e-16)
(20.6465 -2.67876 9.04041e-16)
(21.4331 -2.60961 1.16117e-16)
(22.1953 -2.47027 -8.0281e-17)
(22.9295 -2.25502 -4.72909e-16)
(23.6221 -1.95594 0)
(24.2466 -1.57772 1.69947e-17)
(24.7813 -1.14621 4.21254e-16)
(25.2238 -0.684563 -1.64763e-18)
(25.5797 -0.205016 1.65001e-18)
(25.8529 0.282766 0)
(26.0463 0.768218 1.70854e-17)
(26.1642 1.24256 0)
(26.212 1.69475 0)
(26.1939 2.11673 -3.10573e-16)
(26.1163 2.50313 -2.53359e-16)
(25.9781 2.85538 0)
(25.7907 3.16884 -2.18768e-16)
(25.4861 3.48875 -3.61455e-16)
(25.0968 3.75087 5.23386e-18)
(24.0196 3.98703 1.09776e-15)
(15.1313 16.0711 8.43167e-19)
(15.9679 16.9856 -1.63343e-17)
(16.9767 17.9087 1.12043e-17)
(18.1246 18.7865 -1.08687e-17)
(19.3742 19.5541 6.52985e-17)
(20.7604 20.218 0)
(22.2474 20.7446 -3.122e-16)
(23.8038 21.1044 4.24377e-18)
(25.4177 21.286 -3.27889e-16)
(27.057 21.277 -6.66153e-16)
(28.6942 21.0699 0)
(30.3054 20.6634 -1.63004e-15)
(31.8607 20.0612 -1.40843e-15)
(33.3337 19.2711 -3.43965e-15)
(34.7001 18.3059 0)
(35.9365 17.1813 -2.14079e-15)
(37.0206 15.9171 -2.25802e-15)
(37.9379 14.5247 2.45203e-15)
(38.6766 13.0158 -2.41873e-15)
(39.2215 11.4146 2.24868e-15)
(39.5575 9.75126 2.78536e-16)
(39.6675 8.06837 -2.41027e-15)
(39.5343 6.41861 0)
(39.1545 4.8799 -2.09976e-15)
(38.577 3.53107 1.24001e-16)
(37.8967 2.38037 9.10634e-16)
(37.1836 1.36973 0)
(36.4436 0.435049 -3.08931e-17)
(35.6389 -0.438153 6.6597e-17)
(34.7442 -1.21508 2.55503e-15)
(33.7694 -1.87296 -2.32559e-15)
(32.7635 -2.39728 -3.89269e-15)
(31.6839 -2.77379 3.11746e-15)
(30.6047 -2.90767 -1.65852e-17)
(29.4655 -2.73494 3.0581e-15)
(27.6249 -2.88427 4.78883e-15)
(27.1936 -3.2833 2.20266e-15)
(22.4881 -1.62768 6.17537e-18)
(0.74721 2.41954 -1.0088e-17)
(14.4151 15.1265 1.26005e-17)
(13.768 14.1278 1.50249e-16)
(13.1683 12.9456 1.99945e-16)
(12.6247 11.6112 -3.84487e-16)
(12.2278 10.1839 -1.51721e-15)
(11.9892 8.67496 4.97424e-16)
(11.9301 7.12358 1.23175e-15)
(12.0578 5.60624 3.07379e-15)
(12.3697 4.18525 1.22727e-15)
(12.8463 2.8871 -1.14607e-15)
(13.4538 1.73746 -3.54805e-17)
(14.1564 0.752666 -5.45939e-16)
(14.927 -0.0725142 0)
(15.7404 -0.748724 -2.56407e-17)
(16.5741 -1.28552 -8.76517e-16)
(17.4124 -1.69808 3.78992e-16)
(18.2438 -2.00099 -3.72405e-16)
(19.0601 -2.20795 0)
(19.8578 -2.33037 5.52774e-16)
(20.6362 -2.37647 -9.51189e-16)
(21.3953 -2.35002 0)
(22.134 -2.25076 6.76597e-16)
(22.8476 -2.07466 0)
(23.5233 -1.81669 -2.33449e-17)
(24.1377 -1.48123 2.33032e-17)
(24.6703 -1.08957 -2.10347e-16)
(25.1158 -0.663589 -4.07844e-18)
(25.4775 -0.216704 -1.83154e-18)
(25.7584 0.240362 8.55699e-20)
(25.9611 0.696426 1.33573e-18)
(26.0889 1.14072 3.22433e-17)
(26.147 1.56678 -9.59237e-17)
(26.1392 1.97089 -3.60001e-18)
(26.0713 2.34937 3.23586e-17)
(25.9417 2.70295 0)
(25.7609 3.02857 -1.64864e-19)
(25.4636 3.36005 2.07806e-16)
(25.0837 3.62712 -9.44716e-18)
(24.1273 3.88019 1.84552e-15)
(16.1856 15.1857 4.76107e-18)
(16.9525 16.0103 2.4741e-17)
(17.8758 16.8464 0)
(18.9223 17.6431 -2.49798e-17)
(20.0549 18.3416 1.68393e-17)
(21.3109 18.9523 0)
(22.6578 19.4438 -1.1546e-16)
(24.0686 19.7901 9.19664e-16)
(25.5366 19.9806 -1.29022e-15)
(27.0357 20.0027 4.10843e-16)
(28.543 19.8468 5.67231e-16)
(30.0399 19.5085 2.06735e-15)
(31.5004 18.9867 1.48658e-15)
(32.9003 18.2838 1.78135e-15)
(34.2164 17.4068 4.72878e-16)
(35.4244 16.366 1.56969e-15)
(36.5022 15.1746 2.15989e-15)
(37.4283 13.8514 2.09573e-15)
(38.1786 12.4278 -1.54236e-15)
(38.7357 10.9308 -4.73907e-15)
(39.0857 9.38797 0)
(39.2178 7.83129 9.28634e-17)
(39.1216 6.30223 1.88026e-15)
(38.7979 4.86093 1.98511e-15)
(38.2872 3.57087 -1.13161e-16)
(37.668 2.44849 -8.17225e-16)
(37.0017 1.45567 5.82185e-18)
(36.295 0.539539 -4.12991e-16)
(35.5143 -0.317129 4.36585e-17)
(34.6337 -1.08335 -4.76203e-15)
(33.6594 -1.73348 -9.78305e-18)
(32.645 -2.2509 -6.20199e-17)
(31.5623 -2.63098 -2.97569e-15)
(30.5095 -2.77422 -1.84144e-17)
(29.7106 -2.65834 -2.89032e-15)
(28.206 -2.87711 -8.93356e-15)
(27.6886 -3.06309 1.85794e-15)
(22.8069 -0.907509 -1.08739e-15)
(4.66273 1.78421 4.70284e-16)
(15.5241 14.3353 -5.48127e-17)
(14.9247 13.4394 -2.02876e-16)
(14.3604 12.3766 -1.44923e-16)
(13.8405 11.1752 -3.69466e-16)
(13.4465 9.89298 8.40519e-16)
(13.1862 8.53314 -6.06251e-17)
(13.0811 7.12612 -3.02097e-15)
(13.1406 5.7447 -1.04299e-15)
(13.3617 4.44578 1.88736e-17)
(13.7295 3.24804 0)
(14.2169 2.17349 -9.68142e-16)
(14.7959 1.23761 8.99488e-16)
(15.446 0.436648 -8.63356e-16)
(16.1472 -0.236544 -4.41539e-16)
(16.8809 -0.787162 3.64935e-16)
(17.6336 -1.22565 3.63338e-16)
(18.3939 -1.56163 1.29218e-15)
(19.1528 -1.80457 -3.05206e-16)
(19.9048 -1.96288 -5.1315e-16)
(20.6467 -2.04317 0)
(21.3761 -2.04864 -7.64693e-16)
(22.0898 -1.97953 -5.58594e-16)
(22.782 -1.83303 -1.31659e-17)
(23.4403 -1.6062 -5.83637e-17)
(24.0438 -1.30307 -1.72106e-17)
(24.5727 -0.940797 2.56131e-16)
(25.0198 -0.539441 -3.97625e-18)
(25.3861 -0.1126 2.97241e-17)
(25.6735 0.32903 3.43035e-18)
(25.8839 0.774401 -1.54503e-18)
(26.02 1.21336 -1.28716e-17)
(26.0863 1.63763 1.69841e-16)
(26.0861 2.03945 1.67303e-16)
(26.025 2.41304 1.94793e-16)
(25.9017 2.75809 3.74397e-18)
(25.7247 3.06971 -1.33668e-18)
(25.4341 3.37979 -3.72176e-16)
(25.0526 3.61218 -1.23307e-15)
(24.2144 3.8083 -2.27266e-15)
(17.0965 14.4029 -1.46108e-17)
(17.8033 15.1515 -9.54219e-18)
(18.6528 15.9132 -2.82204e-17)
(19.6118 16.6406 3.54627e-17)
(20.6435 17.2796 3.52049e-17)
(21.786 17.8435 -1.25045e-16)
(23.0094 18.3043 4.29467e-16)
(24.2894 18.6384 0)
(25.6232 18.838 3.92226e-16)
(26.9886 18.8906 1.30446e-17)
(28.367 18.787 -4.85159e-16)
(29.7441 18.5214 -1.90174e-15)
(31.0975 18.0907 -7.76846e-16)
(32.4058 17.4944 0)
(33.6474 16.7359 0)
(34.7988 15.8222 0)
(35.8371 14.7648 0)
(36.74 13.5794 -2.02438e-15)
(37.489 12.2796 2.01752e-15)
(38.0653 10.8861 1.98067e-15)
(38.4529 9.42527 -1.59818e-15)
(38.6377 7.9331 1.41266e-15)
(38.6082 6.45445 -1.46507e-15)
(38.3627 5.04727 -1.07705e-16)
(37.933 3.76989 -4.87838e-17)
(37.3841 2.64205 8.2191e-16)
(36.771 1.63637 1.76311e-16)
(36.1056 0.710572 0)
(35.3633 -0.150268 0)
(34.5206 -0.920113 4.03776e-17)
(33.5785 -1.57506 0)
(32.582 -2.09676 3.33651e-15)
(31.5124 -2.48585 -2.81125e-15)
(30.4111 -2.64298 -4.03575e-15)
(29.6629 -2.55894 5.45508e-15)
(28.4019 -2.81952 4.23775e-15)
(27.8558 -2.81574 -1.65864e-15)
(24.1539 -0.542524 1.74527e-15)
(11.0355 0.708937 -4.051e-16)
(16.4831 13.6316 0)
(15.9257 12.8217 5.67402e-17)
(15.3937 11.8593 2.75292e-16)
(14.8961 10.7699 -1.18618e-15)
(14.5084 9.60945 1.04409e-15)
(14.2346 8.37517 -8.21743e-16)
(14.0971 7.09143 1.17105e-17)
(14.106 5.82823 7.9344e-16)
(14.2582 4.63707 8.35207e-16)
(14.5413 3.53142 0)
(14.9334 2.52991 3.97585e-16)
(15.4116 1.64682 -1.21436e-15)
(15.9601 0.87857 1.91399e-15)
(16.5632 0.219768 3.46073e-16)
(17.206 -0.332601 -7.03261e-16)
(17.8775 -0.78554 -6.51271e-16)
(18.5677 -1.14515 -5.94867e-16)
(19.2676 -1.41747 0)
(19.9708 -1.60806 0)
(20.6725 -1.72155 0)
(21.3684 -1.7602 7.13448e-16)
(22.0539 -1.72411 0)
(22.7223 -1.6111 -4.45948e-16)
(23.3614 -1.41952 -5.62242e-17)
(23.9519 -1.15304 -3.19312e-16)
(24.475 -0.825775 -2.24529e-16)
(24.9218 -0.455823 0)
(25.2914 -0.0568716 -2.42512e-17)
(25.5846 0.360101 -3.64012e-18)
(25.8025 0.783906 5.95812e-19)
(25.9472 1.2037 -2.12102e-17)
(26.0226 1.61092 -2.17621e-17)
(26.0315 1.99944 -1.62183e-16)
(25.9789 2.36402 1.19753e-16)
(25.8633 2.70399 0)
(25.6916 3.01432 -1.20568e-18)
(25.4083 3.32036 -8.06681e-17)
(25.0299 3.54662 1.17305e-15)
(24.2544 3.72219 -1.29514e-17)
(17.8979 13.7011 1.66014e-17)
(18.5544 14.3836 0)
(19.3424 15.0797 7.09642e-17)
(20.2286 15.745 -3.71333e-17)
(21.1767 16.3293 -2.41041e-17)
(22.225 16.8479 1.16933e-16)
(23.3454 17.2751 -1.88636e-16)
(24.5156 17.5905 -2.33415e-16)
(25.7358 17.7873 0)
(26.9867 17.8542 -4.18034e-16)
(28.2536 17.7821 -4.50627e-16)
(29.5256 17.5648 4.47104e-16)
(30.7835 17.1973 1.68225e-15)
(32.0095 16.6763 6.78768e-16)
(33.1838 16.0022 -2.0588e-15)
(34.284 15.1786 -1.49004e-15)
(35.2881 14.2129 1.17772e-15)
(36.1742 13.1163 8.74017e-16)
(36.9207 11.9057 -4.39502e-16)
(37.5061 10.6045 4.40468e-16)
(37.9134 9.23876 1.12272e-15)
(38.1296 7.84037 2.0925e-16)
(38.1446 6.44852 -1.97565e-16)
(37.9571 5.11207 -1.31907e-15)
(37.5921 3.88047 0)
(37.1026 2.77474 -6.91649e-16)
(36.5359 1.77826 -3.29274e-16)
(35.9059 0.859547 -3.03395e-16)
(35.1968 0.00650234 -1.12191e-15)
(34.3891 -0.759194 4.17861e-15)
(33.4834 -1.41458 1.69112e-15)
(32.5191 -1.93941 8.70369e-18)
(31.487 -2.33544 2.81907e-17)
(30.3869 -2.51159 0)
(29.5911 -2.45285 -2.61397e-15)
(28.4146 -2.7282 0)
(27.7017 -2.56523 0)
(25.7587 -0.432058 -7.38898e-16)
(17.3888 -0.263115 7.6639e-18)
(17.325 12.9981 -5.57932e-17)
(16.8031 12.2622 1.87379e-16)
(16.299 11.3861 1.29507e-17)
(15.8221 10.3928 2.6363e-16)
(15.4423 9.33586 -9.43643e-16)
(15.1611 8.20856 6.80372e-16)
(15.0004 7.03151 3.17377e-17)
(14.9716 5.87189 -6.57429e-16)
(15.0708 4.77609 -6.42126e-16)
(15.2877 3.75395 -6.8314e-16)
(15.6036 2.82172 -1.34858e-15)
(15.9995 1.99221 0)
(16.4626 1.26139 -6.88642e-16)
(16.9807 0.62453 -2.46308e-17)
(17.5422 0.0800071 0)
(18.1384 -0.377297 -5.72413e-16)
(18.7611 -0.750768 -2.72318e-16)
(19.4022 -1.04383 -2.55052e-16)
(20.0552 -1.25962 8.70843e-16)
(20.7145 -1.4007 7.71215e-16)
(21.3746 -1.46799 -7.85292e-17)
(22.0299 -1.4612 5.84314e-16)
(22.6728 -1.37844 1.11236e-16)
(23.2913 -1.21862 -5.4025e-17)
(23.8674 -0.985094 2.82932e-16)
(24.383 -0.689489 1.70253e-17)
(24.828 -0.347749 0)
(25.1995 0.0267487 0)
(25.4973 0.422954 -7.63883e-19)
(25.7219 0.829768 1.28281e-18)
(25.8744 1.23627 -3.7722e-18)
(25.9581 1.63368 -2.12585e-17)
(25.9752 2.01433 -8.60997e-17)
(25.9304 2.3718 -1.14232e-16)
(25.8221 2.70449 -9.66828e-19)
(25.6558 3.00632 2.75149e-18)
(25.3799 3.29831 8.94453e-16)
(25.0103 3.5052 -1.21073e-15)
(24.2758 3.65184 1.23438e-17)
(18.6058 13.0674 6.37518e-18)
(19.2187 13.692 0)
(19.9533 14.3302 -4.03787e-17)
(20.7767 14.9402 0)
(21.6527 15.4757 -6.17706e-17)
(22.6195 15.9528 5.97399e-17)
(23.6503 16.3484 1.42429e-16)
(24.7247 16.6441 2.19441e-16)
(25.8446 16.8348 0)
(26.9929 16.9104 -2.7387e-16)
(28.158 16.8628 4.60485e-16)
(29.3318 16.6855 -9.47318e-16)
(30.4981 16.3729 -5.31805e-16)
(31.6416 15.9206 -5.42661e-16)
(32.745 15.3268 1.30882e-15)
(33.788 14.5927 1.42009e-15)
(34.7493 13.7231 -1.52623e-15)
(35.6073 12.7272 -1.52154e-15)
(36.3409 11.6179 0)
(36.9296 10.4124 4.03289e-16)
(37.3554 9.13423 -7.82189e-16)
(37.6043 7.81414 1.93038e-16)
(37.6657 6.49015 4.44483e-18)
(37.5367 5.20754 3.10262e-15)
(37.2361 4.01062 -1.69667e-16)
(36.8069 2.92076 1.03016e-16)
(36.2889 1.92943 3.03756e-16)
(35.6972 1.01436 3.20968e-16)
(35.0221 0.166177 9.62425e-16)
(34.2481 -0.596913 -1.91477e-15)
(33.3764 -1.25289 -1.54388e-15)
(32.4441 -1.78074 -5.85235e-15)
(31.4495 -2.18212 4.79919e-15)
(30.3847 -2.37709 -6.41255e-17)
(29.5617 -2.34455 2.51478e-15)
(28.4199 -2.61938 -7.74217e-17)
(27.4346 -2.34672 3.57884e-17)
(26.9014 -0.427465 4.50644e-18)
(22.1067 -0.927303 -1.09744e-16)
(18.0683 12.4242 2.76177e-17)
(17.5776 11.7522 -9.59731e-17)
(17.0987 10.9508 1.87935e-16)
(16.6411 10.0404 0)
(16.2704 9.073 5.46821e-16)
(15.9862 8.03808 0)
(15.8094 6.95455 0)
(15.7521 5.88621 0)
(15.8104 4.87517 1.18715e-15)
(15.975 3.92875 -5.83152e-16)
(16.2297 3.06132 6.60573e-16)
(16.5581 2.28446 0)
(16.9496 1.59342 0)
(17.3947 0.983449 -5.89143e-16)
(17.884 0.453522 0)
(18.4114 -0.000260594 5.30884e-16)
(18.9703 -0.379911 1.21926e-17)
(19.5539 -0.686768 0)
(20.1563 -0.92192 -6.20247e-16)
(20.7716 -1.08624 -9.10624e-16)
(21.394 -1.17944 -6.2721e-16)
(22.017 -1.2005 -5.37277e-16)
(22.6326 -1.14729 9.05502e-16)
(23.2291 -1.01894 0)
(23.789 -0.818416 2.88584e-16)
(24.2951 -0.555171 2.55244e-16)
(24.7365 -0.243203 8.92889e-17)
(25.1087 0.104644 0)
(25.4101 0.477321 -5.12903e-18)
(25.6406 0.863795 -2.29815e-17)
(25.8006 1.25306 2.54387e-17)
(25.8926 1.63583 -2.04265e-17)
(25.9182 2.0047 7.84267e-17)
(25.8815 2.35307 -4.68877e-17)
(25.7809 2.6787 -1.40492e-18)
(25.6207 2.97487 -1.79827e-19)
(25.3525 3.2576 -9.89308e-16)
(24.9933 3.4524 1.12155e-15)
(24.2961 3.57951 3.94164e-15)
(19.2356 12.491 3.13438e-18)
(19.8104 13.0644 -1.87647e-17)
(20.4984 13.651 0)
(21.2671 14.2113 -2.28066e-17)
(22.0808 14.7024 0)
(22.9771 15.1409 0)
(23.9303 15.5059 1.97209e-17)
(24.9214 15.7809 1.9145e-16)
(25.9535 15.9619 4.45601e-16)
(27.0114 16.0403 1.14967e-15)
(28.0857 16.0087 6.55005e-16)
(29.1705 15.8609 7.60326e-16)
(30.2524 15.5912 0)
(31.3186 15.194 1.49352e-15)
(32.3542 14.6662 -5.30035e-16)
(33.3406 14.0069 0)
(34.2584 13.2186 1.26758e-15)
(35.0865 12.3075 1.45212e-15)
(35.8045 11.2844 0)
(36.3915 10.1655 1.42583e-15)
(36.8286 8.97318 -1.39668e-15)
(37.102 7.73553 0)
(37.2011 6.48674 -1.66413e-16)
(37.1218 5.26671 3.07394e-17)
(36.8782 4.11411 7.96799e-17)
(36.5048 3.04976 1.18979e-15)
(36.0344 2.07151 -4.03206e-18)
(35.4816 1.16522 -3.14602e-17)
(34.8414 0.324861 -2.61047e-17)
(34.1018 -0.433587 5.79416e-17)
(33.2639 -1.08871 1.54213e-15)
(32.3629 -1.61902 5.25527e-15)
(31.4012 -2.02547 4.81048e-17)
(30.3746 -2.23816 -3.35431e-15)
(29.5498 -2.23292 -2.29187e-15)
(28.4573 -2.49815 -3.49543e-15)
(27.2305 -2.17293 -1.46161e-15)
(27.4323 -0.448787 2.17722e-18)
(24.9587 -1.27569 8.54913e-17)
(18.7292 11.9004 -6.20079e-17)
(18.2662 11.2843 -2.28366e-16)
(17.8104 10.548 4.50778e-16)
(17.3711 9.71045 0)
(17.01 8.82103 8.66272e-16)
(16.7258 7.86713 0)
(16.5382 6.86624 -4.65996e-16)
(16.4593 5.87884 1.86683e-15)
(16.4857 4.94338 -1.44022e-15)
(16.6088 4.06575 0)
(16.8141 3.2585 1.06257e-15)
(17.087 2.53212 1.02355e-15)
(17.4186 1.8813 0)
(17.801 1.30118 -1.00337e-15)
(18.227 0.790751 2.41429e-16)
(18.6921 0.346415 -2.41798e-16)
(19.1916 -0.0328863 2.3439e-16)
(19.72 -0.347185 4.08218e-16)
(20.2723 -0.596082 -1.65461e-17)
(20.8432 -0.778943 4.86495e-16)
(21.4265 -0.894283 1.41178e-16)
(22.0155 -0.940242 -1.36172e-16)
(22.6024 -0.914382 -4.28192e-16)
(23.1754 -0.815583 3.62022e-16)
(23.7178 -0.646196 -2.54475e-16)
(24.2126 -0.413935 -2.57554e-16)
(24.6487 -0.130854 -8.41934e-17)
(25.0199 0.190983 -8.20818e-19)
(25.3238 0.540694 5.67739e-18)
(25.5593 0.907482 2.17399e-17)
(25.7261 1.28036 1.06861e-17)
(25.8257 1.64985 -1.96483e-17)
(25.8596 2.00802 -8.51848e-18)
(25.8309 2.34751 4.80041e-17)
(25.7381 2.6652 5.47153e-19)
(25.5843 2.95349 -1.13743e-16)
(25.3247 3.22433 5.06173e-16)
(24.9768 3.40406 0)
(24.3176 3.51043 -3.72508e-15)
(19.7988 11.9634 1.0401e-17)
(20.3398 12.4913 0)
(20.9864 13.0316 0)
(21.7068 13.5471 2.12248e-17)
(22.4657 13.998 -2.02582e-17)
(23.3001 14.4011 0)
(24.1851 14.7371 0)
(25.1027 14.9915 -6.20968e-16)
(26.057 15.1614 -3.1951e-17)
(27.0344 15.2392 -3.92915e-17)
(28.0268 15.2184 -1.51278e-15)
(29.0305 15.0935 -3.98687e-16)
(30.034 14.8587 7.60862e-16)
(31.0268 14.5084 -6.60633e-17)
(31.9963 14.0383 0)
(32.926 13.4462 0)
(33.798 12.7329 -3.46534e-15)
(34.5926 11.9023 -6.39462e-16)
(35.2899 10.9634 6.55907e-16)
(35.8701 9.92886 -1.38028e-15)
(36.3143 8.81856 2.62405e-15)
(36.6079 7.65833 1.24448e-15)
(36.7403 6.47961 -1.20679e-15)
(36.706 5.31863 -1.36438e-15)
(36.5149 4.20981 2.16085e-16)
(36.1943 3.17287 -1.16518e-15)
(35.7709 2.21018 -1.31129e-16)
(35.2579 1.31449 2.90686e-17)
(34.6539 0.483095 -2.91276e-17)
(33.9497 -0.269445 9.59482e-17)
(33.1467 -0.922601 -4.08532e-17)
(32.2781 -1.45474 -2.57579e-15)
(31.3483 -1.86594 -8.52792e-17)
(30.356 -2.0952 8.27134e-17)
(29.5345 -2.11674 0)
(28.5041 -2.36514 3.23915e-15)
(27.1481 -2.0338 1.39648e-15)
(27.5493 -0.474982 0)
(26.4125 -1.39293 0)
(19.3204 11.4194 0)
(18.882 10.8525 2.03421e-16)
(18.4475 10.1739 -6.70978e-16)
(18.0257 9.4007 -3.23615e-16)
(17.6744 8.58012 -7.82362e-16)
(17.3923 7.6978 0)
(17.1977 6.7705 0)
(17.1026 5.85531 -8.32038e-16)
(17.1042 4.98775 8.67057e-16)
(17.194 4.17247 0)
(17.3592 3.4207 -4.46851e-16)
(17.5864 2.74214 -4.81054e-16)
(17.8677 2.1311 4.5318e-16)
(18.1967 1.58222 4.68738e-16)
(18.5672 1.09424 -8.67667e-16)
(18.9766 0.663761 0)
(19.4214 0.29001 -1.93857e-16)
(19.8976 -0.0263054 1.32829e-17)
(20.4013 -0.283862 8.52958e-16)
(20.9278 -0.480874 -1.55666e-16)
(21.4714 -0.614749 1.49229e-16)
(22.0256 -0.682856 -1.11635e-16)
(22.5824 -0.682266 1.57619e-16)
(23.1306 -0.611447 -7.33558e-16)
(23.6538 -0.471943 -2.55005e-16)
(24.1358 -0.269874 2.11703e-16)
(24.5647 -0.0155582 -1.27087e-17)
(24.9335 0.279881 0)
(25.2387 0.605883 -5.96492e-18)
(25.4782 0.951902 2.98853e-17)
(25.6511 1.30706 -2.51126e-17)
(25.7582 1.66162 1.69904e-17)
(25.8001 2.00754 -1.70336e-17)