/*--------------------------------*- C++ -*----------------------------------*\
| =========                 |                                                 |
| \\      /  F ield         | OpenFOAM: The Open Source CFD Toolbox           |
|  \\    /   O peration     | Version:  2312                                  |
|   \\  /    A nd           | Website:  www.openfoam.com                      |
|    \\/     M anipulation  |                                                 |
\*---------------------------------------------------------------------------*/
FoamFile
{
    version     2.0;
    format      ascii;
    arch        "LSB;label=32;scalar=64";
    class       volScalarField;
    location    "79.909171074549249";
    object      p;
}
// * * * * * * * * * * * * * * * * * * * * * * * * * * * * * * * * * * * * * //

dimensions      [0 2 -2 0 0 0 0];

internalField   nonuniform List<scalar> 
21039
(
0.592354
0.45847
0.416356
0.388121
0.366825
0.35078
0.338385
0.328538
0.320558
0.313995
0.308532
0.303941
0.300052
0.296733
0.293883
0.29142
0.289278
0.287401
0.285742
0.284262
0.282926
0.281703
0.280566
0.279545
0.278664
0.27788
0.277155
0.276458
0.275778
0.445189
0.407342
0.393545
0.375185
0.358447
0.345194
0.334484
0.325686
0.318405
0.312332
0.307224
0.302898
0.299212
0.296052
0.293329
0.29097
0.288915
0.287111
0.285515
0.284089
0.282798
0.281614
0.280509
0.27951
0.278638
0.277856
0.277132
0.276436
0.275757
0.355721
0.353348
0.355529
0.348799
0.340382
0.332616
0.3254
0.318915
0.313236
0.308304
0.304032
0.300334
0.297131
0.294352
0.291936
0.28983
0.287985
0.286361
0.284921
0.283632
0.282462
0.281384
0.280372
0.279448
0.278629
0.277887
0.277193
0.276522
0.275864
0.317561
0.319684
0.324172
0.323109
0.320515
0.317323
0.313553
0.309676
0.305958
0.302502
0.299354
0.296528
0.294012
0.291786
0.289822
0.288091
0.286566
0.285218
0.28402
0.282946
0.281971
0.281069
0.280219
0.279432
0.278721
0.278063
0.277436
0.276818
0.2762
0.292449
0.296422
0.302327
0.304056
0.304281
0.303581
0.302079
0.300188
0.298131
0.296035
0.293997
0.292076
0.290305
0.288697
0.287254
0.285968
0.284829
0.28382
0.282926
0.282127
0.281404
0.280737
0.280107
0.279511
0.278953
0.278417
0.277885
0.277341
0.276778
0.272696
0.277956
0.285315
0.289196
0.291225
0.292059
0.292021
0.291491
0.290652
0.28963
0.288528
0.287419
0.286348
0.285347
0.284434
0.283615
0.282893
0.282261
0.281711
0.281231
0.280807
0.280423
0.280062
0.279704
0.279338
0.278954
0.278543
0.278093
0.277601
0.259794
0.26482
0.271915
0.276866
0.280105
0.282071
0.283122
0.283601
0.283686
0.28351
0.283177
0.282761
0.282316
0.281879
0.281476
0.281123
0.280827
0.280592
0.280415
0.280288
0.280201
0.280141
0.280095
0.28002
0.279886
0.279689
0.279427
0.279094
0.278691
0.252345
0.256448
0.262182
0.267125
0.270841
0.273445
0.275218
0.276426
0.277219
0.277716
0.278017
0.278193
0.278299
0.278375
0.278452
0.278549
0.27868
0.278851
0.279064
0.279315
0.279599
0.279902
0.280216
0.28047
0.280609
0.280634
0.280553
0.280364
0.280071
0.247652
0.250855
0.25521
0.259686
0.263383
0.266197
0.268338
0.269998
0.271285
0.272291
0.273098
0.273768
0.274351
0.274887
0.275407
0.275934
0.276481
0.27706
0.277674
0.278323
0.279004
0.279706
0.280425
0.281054
0.281507
0.281789
0.281916
0.281896
0.281743
0.24406
0.246513
0.249823
0.253759
0.257254
0.260071
0.262363
0.264274
0.265878
0.267247
0.268441
0.26951
0.270497
0.271438
0.272361
0.273289
0.274238
0.275219
0.276239
0.2773
0.278401
0.279536
0.280696
0.281748
0.282562
0.283145
0.283513
0.283679
0.283667
0.240873
0.242723
0.245282
0.248701
0.251946
0.254695
0.257042
0.25909
0.2609
0.262525
0.264012
0.265399
0.266724
0.268017
0.269302
0.270602
0.271933
0.273306
0.274731
0.276212
0.27775
0.279342
0.280984
0.282506
0.283732
0.284663
0.285322
0.285718
0.285871
0.237785
0.239186
0.241214
0.244162
0.247145
0.249796
0.252147
0.25427
0.256215
0.258025
0.259735
0.261379
0.262986
0.264583
0.266193
0.267835
0.269525
0.271277
0.273101
0.275003
0.276987
0.279055
0.281209
0.283243
0.284926
0.286252
0.287243
0.287906
0.288262
0.234645
0.235731
0.237389
0.239931
0.242662
0.245197
0.247517
0.249671
0.251702
0.253645
0.255527
0.257376
0.259219
0.261078
0.262975
0.264929
0.266956
0.269069
0.27128
0.273597
0.276027
0.278575
0.281254
0.283825
0.286002
0.287765
0.28913
0.290102
0.290697
0.231396
0.232262
0.233654
0.235856
0.238353
0.240765
0.243033
0.245188
0.247267
0.249299
0.251309
0.25332
0.255356
0.257438
0.259588
0.261823
0.264161
0.266617
0.269201
0.271919
0.274779
0.277791
0.280976
0.28407
0.286738
0.288951
0.290717
0.292029
0.292896
0.228029
0.22874
0.229922
0.231823
0.234094
0.236379
0.238582
0.240716
0.242814
0.244901
0.246999
0.249131
0.251319
0.253585
0.25595
0.258437
0.261062
0.26384
0.266777
0.269879
0.273146
0.276584
0.280214
0.283745
0.286821
0.289425
0.291567
0.293222
0.294385
0.224842
0.22544
0.226455
0.22813
0.230218
0.232382
0.234516
0.236618
0.238714
0.240827
0.242979
0.245192
0.247489
0.249895
0.252435
0.255134
0.258009
0.261075
0.264335
0.267788
0.271418
0.275204
0.279136
0.282864
0.286033
0.288694
0.290927
0.29274
0.294118
0.222161
0.222686
0.223597
0.225128
0.227078
0.229138
0.23121
0.233287
0.235381
0.237511
0.239699
0.24197
0.24435
0.246866
0.24955
0.252429
0.255523
0.258848
0.262407
0.266189
0.270159
0.274252
0.278383
0.282057
0.284867
0.286936
0.288497
0.289787
0.291022
0.219957
0.220434
0.221272
0.222698
0.224542
0.226532
0.228577
0.230651
0.232755
0.234905
0.237128
0.239452
0.241906
0.244525
0.247343
0.250391
0.253696
0.257277
0.261139
0.265269
0.269617
0.274076
0.278466
0.282057
0.284206
0.284899
0.284364
0.283088
0.282169
0.218194
0.21872
0.219576
0.220901
0.222574
0.224447
0.226469
0.228567
0.230702
0.232886
0.235153
0.237537
0.240074
0.242801
0.245758
0.248981
0.252503
0.256353
0.260542
0.265062
0.269866
0.274833
0.279725
0.283581
0.285349
0.284482
0.280597
0.273071
0.261531
0.27511
0.274439
0.273775
0.273117
0.272464
0.271814
0.271168
0.270523
0.269879
0.269235
0.268591
0.267944
0.267295
0.266643
0.265987
0.265326
0.26466
0.263988
0.26331
0.262626
0.261934
0.261236
0.26053
0.259818
0.259098
0.258371
0.257637
0.256897
0.256151
0.255399
0.254641
0.253878
0.253111
0.252341
0.251567
0.250791
0.250014
0.249236
0.248458
0.247682
0.246908
0.246137
0.245369
0.244607
0.243851
0.243101
0.242359
0.241625
0.240899
0.275093
0.274431
0.273778
0.273131
0.272488
0.271849
0.271213
0.270578
0.269944
0.26931
0.268675
0.268037
0.267397
0.266753
0.266104
0.26545
0.26479
0.264123
0.263449
0.262768
0.262079
0.261382
0.260678
0.259965
0.259244
0.258515
0.257779
0.257035
0.256285
0.255527
0.254764
0.253995
0.253221
0.252443
0.251661
0.250877
0.25009
0.249303
0.248515
0.247728
0.246943
0.24616
0.245382
0.244608
0.24384
0.243078
0.242325
0.241579
0.240842
0.275223
0.274587
0.273959
0.273337
0.272718
0.272102
0.271488
0.270874
0.27026
0.269645
0.269026
0.268404
0.267778
0.267145
0.266507
0.265861
0.265207
0.264545
0.263874
0.263194
0.262504
0.261804
0.261095
0.260375
0.259646
0.258907
0.258159
0.257402
0.256636
0.255862
0.255081
0.254293
0.253498
0.252699
0.251894
0.251086
0.250275
0.249462
0.248648
0.247835
0.247022
0.246211
0.245404
0.244601
0.243803
0.243011
0.242226
0.24145
0.240682
0.275598
0.275002
0.274411
0.273824
0.273239
0.272655
0.27207
0.271484
0.270896
0.270303
0.269705
0.269101
0.26849
0.26787
0.267241
0.266603
0.265954
0.265293
0.264621
0.263936
0.26324
0.262531
0.261809
0.261075
0.260328
0.25957
0.2588
0.258019
0.257227
0.256424
0.255613
0.254792
0.253964
0.253129
0.252287
0.251441
0.25059
0.249736
0.248879
0.248022
0.247165
0.246308
0.245454
0.244603
0.243756
0.242915
0.24208
0.241253
0.240434
0.276228
0.275685
0.275143
0.274601
0.274058
0.273514
0.272966
0.272414
0.271855
0.271289
0.270715
0.270131
0.269536
0.268929
0.268309
0.267676
0.267028
0.266366
0.265688
0.264995
0.264286
0.263561
0.26282
0.262063
0.261291
0.260504
0.259702
0.258886
0.258056
0.257214
0.25636
0.255495
0.25462
0.253736
0.252843
0.251944
0.251038
0.250128
0.249214
0.248297
0.247379
0.246461
0.245543
0.244628
0.243716
0.242808
0.241905
0.241009
0.24012
0.277116
0.276639
0.276157
0.275671
0.275182
0.274686
0.274183
0.27367
0.273148
0.272613
0.272066
0.271504
0.270927
0.270334
0.269723
0.269093
0.268445
0.267777
0.26709
0.266383
0.265655
0.264907
0.264139
0.263352
0.262545
0.261719
0.260875
0.260013
0.259135
0.258241
0.257332
0.256409
0.255474
0.254526
0.253568
0.252601
0.251626
0.250644
0.249656
0.248665
0.24767
0.246673
0.245676
0.244679
0.243685
0.242693
0.241706
0.240724
0.23975
0.278284
0.277885
0.277475
0.277058
0.276631
0.276193
0.275743
0.275278
0.274797
0.274299
0.273783
0.273246
0.272688
0.272109
0.271506
0.270879
0.270227
0.269551
0.268849
0.268122
0.26737
0.266592
0.265789
0.264962
0.264111
0.263236
0.262339
0.261421
0.260481
0.259522
0.258545
0.25755
0.25654
0.255515
0.254476
0.253426
0.252365
0.251295
0.250217
0.249134
0.248045
0.246953
0.245859
0.244764
0.24367
0.242577
0.241487
0.240403
0.239326
0.279756
0.279446
0.279122
0.278784
0.278432
0.278061
0.277672
0.277262
0.276829
0.276373
0.275891
0.275382
0.274845
0.274279
0.273684
0.273057
0.2724
0.271711
0.270991
0.270239
0.269455
0.26864
0.267794
0.266919
0.266013
0.265079
0.264118
0.26313
0.262117
0.26108
0.26002
0.258939
0.257839
0.25672
0.255584
0.254434
0.25327
0.252095
0.250909
0.249715
0.248515
0.247309
0.246099
0.244887
0.243675
0.242463
0.241252
0.240047
0.23885
0.28156
0.281344
0.281116
0.280869
0.2806
0.280307
0.279988
0.27964
0.279262
0.278852
0.278409
0.277931
0.277418
0.276867
0.276279
0.275653
0.274987
0.274283
0.27354
0.272758
0.271938
0.271079
0.270182
0.26925
0.268281
0.267277
0.26624
0.265171
0.264071
0.262942
0.261785
0.260602
0.259395
0.258165
0.256915
0.255646
0.25436
0.25306
0.251747
0.250423
0.24909
0.247749
0.246403
0.245054
0.243702
0.24235
0.240999
0.239652
0.238316
0.283636
0.283597
0.283479
0.283327
0.283148
0.282934
0.282692
0.282414
0.282099
0.281743
0.281345
0.280903
0.280417
0.279885
0.279307
0.278682
0.278009
0.277289
0.276522
0.275708
0.274847
0.27394
0.272988
0.271991
0.270951
0.269868
0.268745
0.267583
0.266383
0.265147
0.263877
0.262575
0.261244
0.259884
0.258499
0.257091
0.255661
0.254213
0.252749
0.25127
0.249781
0.248281
0.246775
0.245263
0.243748
0.242232
0.240715
0.239205
0.237707
0.285976
0.28607
0.286126
0.286144
0.286112
0.285866
0.285733
0.285549
0.285312
0.285025
0.284684
0.28429
0.283841
0.283337
0.282777
0.28216
0.281486
0.280756
0.279969
0.279125
0.278225
0.277271
0.27626
0.275197
0.27408
0.272912
0.271694
0.270429
0.269115
0.267759
0.266359
0.26492
0.263443
0.261931
0.260386
0.258814
0.257212
0.255589
0.253944
0.252281
0.250605
0.248914
0.247216
0.24551
0.243801
0.24209
0.240378
0.238674
0.236987
0.288537
0.288769
0.288941
0.289069
0.289156
0.289188
0.28916
0.289063
0.288897
0.288687
0.288416
0.288083
0.287686
0.287226
0.2867
0.286109
0.285449
0.284723
0.283931
0.28307
0.282142
0.281147
0.280085
0.278958
0.277766
0.276509
0.275192
0.273814
0.272376
0.270883
0.269335
0.267735
0.266089
0.264395
0.26266
0.260888
0.25908
0.257242
0.255376
0.253488
0.251582
0.249658
0.247725
0.245783
0.243837
0.24189
0.239943
0.238007
0.236093
0.291178
0.291586
0.291921
0.2922
0.292422
0.292585
0.29269
0.292733
0.292709
0.292612
0.292448
0.292215
0.291912
0.291538
0.291085
0.290557
0.289948
0.28926
0.288493
0.287642
0.286711
0.285699
0.284602
0.283426
0.282168
0.280827
0.279409
0.277913
0.276338
0.274692
0.272973
0.271185
0.269335
0.267421
0.265452
0.263433
0.261365
0.259258
0.257113
0.254939
0.252742
0.250523
0.248293
0.246053
0.24381
0.241568
0.239328
0.237106
0.234916
0.293613
0.294219
0.294748
0.295218
0.295626
0.295972
0.296255
0.296471
0.296621
0.296698
0.296702
0.296624
0.296471
0.2963
0.295985
0.295591
0.295094
0.294502
0.293816
0.293026
0.292138
0.29115
0.290054
0.288857
0.287555
0.286144
0.284631
0.283013
0.281289
0.279468
0.277547
0.27553
0.273426
0.271234
0.268965
0.266626
0.264217
0.261754
0.25924
0.256686
0.254101
0.25149
0.248866
0.246233
0.243602
0.240979
0.238365
0.235781
0.233245
0.295365
0.296185
0.296941
0.297658
0.298329
0.298957
0.299532
0.300047
0.300497
0.30087
0.301162
0.301359
0.301456
0.301448
0.30133
0.301391
0.30107
0.300652
0.30013
0.299481
0.29871
0.297813
0.296777
0.29561
0.294303
0.29285
0.291257
0.289521
0.287634
0.28561
0.283445
0.281142
0.278713
0.276157
0.273489
0.270719
0.267848
0.264899
0.261877
0.258797
0.255676
0.252519
0.249352
0.246178
0.243018
0.239879
0.23677
0.233714
0.230736
0.295326
0.296315
0.297339
0.298436
0.299571
0.300718
0.301834
0.302888
0.303859
0.304722
0.305476
0.306107
0.306619
0.30701
0.307258
0.307382
0.307403
0.307369
0.307145
0.306751
0.306205
0.305498
0.304613
0.303555
0.302311
0.300866
0.299227
0.297386
0.295333
0.29308
0.290625
0.28797
0.285132
0.282109
0.278923
0.275587
0.272107
0.268512
0.26481
0.261025
0.257178
0.253283
0.249374
0.245464
0.241587
0.237762
0.234009
0.230364
0.226861
0.292385
0.293439
0.294907
0.296776
0.29884
0.300944
0.302958
0.304816
0.306489
0.307957
0.309243
0.310342
0.311283
0.312076
0.312717
0.313219
0.313551
0.313726
0.314077
0.313981
0.313728
0.313299
0.312656
0.311797
0.310699
0.309336
0.307713
0.305811
0.303615
0.30114
0.298381
0.295342
0.292046
0.288493
0.284716
0.280733
0.276553
0.272217
0.267734
0.263137
0.258449
0.253686
0.24889
0.24408
0.239304
0.234603
0.230025
0.225648
0.221539
0.282068
0.283551
0.287205
0.291725
0.296147
0.300111
0.303501
0.306358
0.308762
0.310783
0.312514
0.313994
0.315286
0.316423
0.317417
0.3183
0.319047
0.319636
0.320067
0.320616
0.320759
0.320715
0.32043
0.319886
0.319041
0.317852
0.316315
0.314399
0.312081
0.309379
0.306284
0.302809
0.298985
0.29482
0.290361
0.285635
0.280664
0.275501
0.270161
0.264684
0.259092
0.253396
0.247632
0.241799
0.235936
0.230081
0.224316
0.218844
0.213944
0.252745
0.263958
0.276725
0.287238
0.295158
0.301011
0.305365
0.308714
0.311386
0.313587
0.31547
0.317104
0.318574
0.31992
0.321166
0.322351
0.323458
0.324495
0.325411
0.326167
0.326954
0.327384
0.32755
0.327427
0.326953
0.326056
0.324707
0.322858
0.320475
0.317578
0.314165
0.310251
0.305888
0.301092
0.29593
0.29045
0.284685
0.278708
0.272545
0.266247
0.259842
0.253334
0.246739
0.24001
0.233113
0.225963
0.218478
0.210732
0.203345
0.240192
0.23947
0.238707
0.237898
0.23703
0.236099
0.235133
0.234257
0.23356
0.233073
0.232827
0.232859
0.233214
0.233933
0.235072
0.236695
0.23888
0.241726
0.245361
0.249953
0.255725
0.262992
0.2722
0.284028
0.299575
0.320446
0.348331
0.390108
0.523714
0.240121
0.239382
0.238602
0.237769
0.23687
0.235901
0.234891
0.233966
0.233219
0.232679
0.232375
0.232348
0.232631
0.233267
0.234305
0.235806
0.237837
0.240487
0.243864
0.248106
0.253394
0.259966
0.26813
0.278275
0.291029
0.307332
0.325329
0.338779
0.376369
0.239929
0.239155
0.238331
0.237443
0.236477
0.235427
0.234317
0.233279
0.232412
0.231746
0.231306
0.231126
0.231235
0.231668
0.232465
0.23367
0.235334
0.237513
0.240275
0.243694
0.247853
0.252833
0.258691
0.265347
0.272614
0.280585
0.286926
0.284353
0.286474
0.239627
0.238793
0.237897
0.236924
0.235854
0.234677
0.233412
0.2322
0.231151
0.230289
0.22964
0.229226
0.229072
0.229202
0.229641
0.230414
0.231545
0.233058
0.234968
0.237282
0.239982
0.243016
0.246278
0.249494
0.252189
0.25433
0.254972
0.250069
0.24772
0.23924
0.238324
0.23733
0.236242
0.235033
0.233687
0.232219
0.230782
0.229498
0.22839
0.227477
0.226776
0.226303
0.226071
0.226091
0.226372
0.226913
0.22771
0.228743
0.229974
0.231338
0.232732
0.234023
0.234984
0.235195
0.234513
0.232349
0.226041
0.221885
0.238777
0.237758
0.236644
0.235412
0.234031
0.232477
0.230762
0.229053
0.227493
0.226098
0.224885
0.223864
0.223044
0.222428
0.222017
0.221804
0.221777
0.221911
0.222169
0.222498
0.222821
0.223026
0.222982
0.2225
0.22119
0.218713
0.214397
0.20666
0.201264
0.238243
0.237099
0.235839
0.234434
0.232846
0.231047
0.229041
0.22702
0.225145
0.223433
0.221894
0.220535
0.219357
0.218357
0.217527
0.216852
0.21631
0.215867
0.215478
0.215084
0.214603
0.213923
0.212905
0.211365
0.208948
0.205278
0.199909
0.192471
0.187353
0.237635
0.236344
0.234911
0.233301
0.231472
0.229386
0.227047
0.224674
0.222454
0.2204
0.218519
0.216813
0.215279
0.213909
0.212688
0.211594
0.2106
0.209667
0.208747
0.207776
0.206676
0.20534
0.203639
0.201417
0.198398
0.194282
0.188953
0.182927
0.178773
0.236948
0.235483
0.233847
0.231999
0.229889
0.227475
0.224759
0.221997
0.219403
0.216989
0.214758
0.212708
0.210832
0.209115
0.207539
0.206079
0.204701
0.203367
0.202028
0.200623
0.199081
0.197314
0.19522
0.192685
0.189506
0.185456
0.180645
0.176058
0.172837
0.23616
0.234492
0.23262
0.230495
0.228062
0.225273
0.222136
0.218949
0.215959
0.213173
0.210593
0.20821
0.206012
0.203982
0.202097
0.200329
0.198641
0.196997
0.195348
0.193644
0.191823
0.189817
0.187547
0.184928
0.181812
0.178029
0.173824
0.170346
0.167899
0.235231
0.233325
0.231176
0.228729
0.225924
0.222711
0.219107
0.215462
0.212057
0.208897
0.205975
0.20328
0.200792
0.198489
0.196344
0.194337
0.192411
0.190542
0.188685
0.186793
0.184817
0.1827
0.180382
0.177794
0.174825
0.171373
0.167763
0.165098
0.16327
0.234087
0.231899
0.229426
0.226604
0.22337
0.21968
0.215562
0.21143
0.207602
0.204074
0.200831
0.197855
0.195119
0.192596
0.190252
0.188056
0.18597
0.183956
0.181975
0.179985
0.177943
0.175803
0.173516
0.171023
0.168248
0.165151
0.162097
0.160022
0.158654
0.232607
0.230082
0.227224
0.223963
0.220238
0.216013
0.211341
0.206706
0.202461
0.198588
0.195062
0.191851
0.18892
0.186234
0.183755
0.181445
0.179266
0.177181
0.17515
0.173136
0.171101
0.169006
0.166809
0.164462
0.161911
0.159171
0.15661
0.154957
0.153911
0.230562
0.227632
0.224317
0.220546
0.216267
0.21146
0.206213
0.201085
0.196456
0.192288
0.188538
0.185158
0.182103
0.179328
0.176787
0.174439
0.172242
0.170159
0.16815
0.16618
0.164214
0.16222
0.160161
0.157996
0.15569
0.153294
0.151159
0.149815
0.148991
0.227586
0.224164
0.220312
0.215964
0.211083
0.205679
0.199878
0.194314
0.189378
0.185002
0.181119
0.177665
0.174578
0.171803
0.169288
0.166985
0.164849
0.162841
0.160924
0.159062
0.157223
0.155378
0.153495
0.151538
0.149493
0.147435
0.145679
0.144574
0.143897
0.223177
0.21922
0.214822
0.209927
0.204523
0.198646
0.192451
0.186622
0.181543
0.177113
0.17324
0.169842
0.166842
0.164175
0.161783
0.159612
0.157617
0.155756
0.153991
0.152289
0.150618
0.148953
0.147265
0.145529
0.143739
0.14198
0.140525
0.13961
0.139034
0.217266
0.212782
0.207958
0.202721
0.197046
0.190964
0.184638
0.178776
0.173746
0.169424
0.165699
0.16247
0.159654
0.157176
0.154973
0.152992
0.151183
0.149506
0.147922
0.146399
0.144907
0.143421
0.14192
0.140391
0.138839
0.137335
0.136109
0.135333
0.134828
0.209155
0.20444
0.199684
0.194576
0.189012
0.183027
0.176814
0.171108
0.166276
0.16218
0.158694
0.15571
0.153135
0.150892
0.148915
0.147149
0.145547
0.144067
0.142672
0.141331
0.140014
0.138694
0.137354
0.135996
0.134645
0.133362
0.132332
0.131678
0.131232
0.197505
0.193971
0.19036
0.18595
0.180837
0.175175
0.169244
0.163829
0.159294
0.155498
0.152309
0.14961
0.147304
0.145314
0.143573
0.142028
0.140632
0.139346
0.138134
0.136964
0.135806
0.134628
0.13342
0.132222
0.13111
0.130113
0.12928
0.128672
0.128205
0.216407
0.216715
0.217387
0.21873
0.220589
0.22266
0.2248
0.226946
0.229106
0.231324
0.233643
0.236101
0.238734
0.241584
0.244691
0.248097
0.251843
0.255963
0.260477
0.265383
0.270643
0.276134
0.281588
0.285894
0.287644
0.285584
0.278113
0.262794
0.230978
0.214642
0.21507
0.215856
0.217185
0.218955
0.220946
0.223041
0.225182
0.227375
0.229652
0.232051
0.234607
0.237358
0.240348
0.243622
0.247227
0.251211
0.255618
0.260479
0.265817
0.271636
0.27788
0.284369
0.2901
0.293756
0.294569
0.291911
0.287747
0.292141
0.212855
0.213364
0.214231
0.215553
0.217251
0.219161
0.221193
0.223307
0.225509
0.227823
0.230278
0.232908
0.235753
0.238857
0.242273
0.246055
0.250264
0.254959
0.260205
0.266069
0.272652
0.280073
0.288482
0.297387
0.305932
0.314303
0.322797
0.33021
0.347477
0.21102
0.211506
0.212345
0.21365
0.215348
0.217261
0.219281
0.221383
0.223584
0.225914
0.228401
0.23108
0.23399
0.237181
0.24071
0.244641
0.249048
0.254015
0.25964
0.266057
0.273483
0.282267
0.29298
0.305689
0.319746
0.335333
0.353495
0.370189
0.392657
0.20914
0.20959
0.210377
0.211648
0.213343
0.215265
0.217287
0.219384
0.221582
0.223916
0.226418
0.229125
0.232078
0.235328
0.238939
0.242983
0.247549
0.252739
0.258688
0.265592
0.273775
0.283787
0.296549
0.31245
0.330922
0.351518
0.376459
0.400201
0.42638
0.207217
0.207649
0.208402
0.209632
0.211294
0.213193
0.215197
0.217278
0.219462
0.221787
0.224287
0.226999
0.229967
0.233244
0.236897
0.241006
0.245667
0.251003
0.257172
0.264419
0.273138
0.283996
0.29816
0.315991
0.337021
0.359945
0.387486
0.417216
0.447363
0.205248
0.205669
0.206397
0.207584
0.209194
0.211046
0.213011
0.215057
0.217211
0.219507
0.221982
0.224671
0.22762
0.230883
0.234527
0.238637
0.243315
0.248692
0.25494
0.262325
0.271272
0.282441
0.29718
0.315152
0.337526
0.362146
0.388723
0.416637
0.444886
0.203227
0.203635
0.204337
0.205477
0.207025
0.208818
0.210728
0.212723
0.214826
0.217071
0.219493
0.222128
0.225019
0.228221
0.231799
0.235837
0.240439
0.245736
0.25189
0.259177
0.267988
0.27884
0.293281
0.311608
0.332882
0.355831
0.379399
0.403222
0.427102
0.201154
0.201548
0.202221
0.203308
0.204786
0.206506
0.208348
0.210274
0.212306
0.214476
0.216817
0.219363
0.222156
0.225245
0.228694
0.232582
0.237003
0.242089
0.247964
0.254918
0.263102
0.273614
0.287194
0.304048
0.322722
0.342367
0.362203
0.381948
0.400958
0.199026
0.199408
0.200051
0.201079
0.202477
0.204112
0.205868
0.207708
0.209648
0.211719
0.213949
0.216372
0.219023
0.221949
0.225205
0.228861
0.232994
0.237736
0.243142
0.249514
0.257122
0.266601
0.278491
0.292751
0.308144
0.323938
0.339589
0.355092
0.369501
0.196843
0.197211
0.19782
0.198785
0.200096
0.201635
0.203292
0.205028
0.206857
0.208804
0.210896
0.213161
0.21563
0.218342
0.221344
0.224693
0.228441
0.232696
0.237596
0.24322
0.249835
0.257818
0.267525
0.278777
0.290575
0.302266
0.313455
0.324435
0.33438
0.194606
0.194959
0.195535
0.196434
0.197649
0.199081
0.200624
0.20224
0.203938
0.205739
0.207666
0.209741
0.21199
0.214442
0.217133
0.220108
0.223413
0.227115
0.231316
0.236028
0.241392
0.247651
0.254967
0.263059
0.27116
0.27877
0.285655
0.292281
0.298084
0.192318
0.192663
0.193206
0.194036
0.195148
0.196457
0.19787
0.199347
0.200894
0.202528
0.204265
0.206122
0.208116
0.210267
0.212602
0.215151
0.217946
0.221011
0.224374
0.228046
0.232049
0.23649
0.241345
0.246284
0.250827
0.254681
0.257784
0.260651
0.262947
0.18998
0.190311
0.190817
0.191574
0.192579
0.193762
0.195036
0.196363
0.197744
0.199192
0.200717
0.20233
0.20404
0.20586
0.207801
0.209878
0.212099
0.214457
0.216929
0.219492
0.222088
0.224695
0.227141
0.229117
0.230463
0.231094
0.231098
0.230983
0.230599
0.187598
0.187916
0.188386
0.189067
0.189962
0.19101
0.192135
0.193299
0.194501
0.195749
0.197044
0.198398
0.199804
0.201267
0.202786
0.204356
0.205963
0.207577
0.209138
0.210574
0.211766
0.212598
0.212795
0.212128
0.210749
0.208754
0.206341
0.204007
0.201774
0.185177
0.185485
0.185919
0.186524
0.187303
0.18821
0.189177
0.190168
0.19118
0.192216
0.193275
0.194353
0.19544
0.196527
0.197603
0.198646
0.199621
0.200476
0.20112
0.201442
0.201277
0.200446
0.198613
0.195666
0.19204
0.187982
0.18376
0.17987
0.176496
0.182721
0.183017
0.183412
0.183939
0.184604
0.18537
0.186177
0.186988
0.187803
0.188624
0.189438
0.190232
0.19099
0.191695
0.192319
0.192828
0.19317
0.19327
0.193015
0.192264
0.190824
0.188476
0.184856
0.179986
0.174553
0.168923
0.16339
0.158454
0.154457
0.180238
0.180524
0.180881
0.181331
0.18188
0.182504
0.183152
0.18377
0.184396
0.184998
0.185563
0.186072
0.186501
0.186823
0.187
0.186983
0.186705
0.186073
0.184958
0.183199
0.180586
0.17688
0.171715
0.165249
0.158386
0.151573
0.145088
0.139439
0.135126
0.177737
0.178017
0.178337
0.178712
0.179144
0.179624
0.180097
0.180552
0.180976
0.181358
0.181676
0.181905
0.182011
0.181959
0.1817
0.181175
0.180303
0.178978
0.177057
0.174365
0.170688
0.165778
0.159282
0.151494
0.143494
0.13578
0.128575
0.122408
0.117942
0.175224
0.175495
0.175777
0.176076
0.176398
0.17673
0.177057
0.177335
0.177565
0.177735
0.177815
0.177772
0.177569
0.177159
0.176488
0.175485
0.174058
0.172089
0.169428
0.165891
0.16126
0.155288
0.147644
0.138756
0.129846
0.121438
0.113672
0.107109
0.102575
0.172706
0.172971
0.17322
0.173441
0.173657
0.17386
0.174029
0.174137
0.174186
0.174154
0.174008
0.173711
0.173218
0.172478
0.171427
0.169987
0.168057
0.165512
0.162192
0.157907
0.152438
0.145542
0.136913
0.127098
0.11745
0.108502
0.100287
0.0934203
0.0888948
0.170193
0.170453
0.170679
0.17081
0.170944
0.171016
0.171027
0.170978
0.170858
0.170639
0.170285
0.169754
0.168998
0.167959
0.166569
0.164743
0.162374
0.159328
0.155441
0.150518
0.144335
0.136647
0.127171
0.116559
0.106287
0.0969057
0.0883291
0.0812469
0.0768482
0.167692
0.167945
0.168137
0.168244
0.168265
0.168202
0.168069
0.167873
0.167597
0.167207
0.166666
0.165927
0.164938
0.163639
0.161957
0.159802
0.157065
0.153606
0.149256
0.143814
0.13705
0.128709
0.118513
0.10719
0.0963419
0.086569
0.0776727
0.0704652
0.0663825
0.165209
0.165456
0.165624
0.165678
0.165601
0.165421
0.165163
0.164837
0.164422
0.163883
0.163178
0.162259
0.161072
0.159555
0.157633
0.155215
0.152188
0.148413
0.143717
0.137894
0.130705
0.121873
0.111103
0.0991527
0.0877283
0.0775276
0.0682743
0.0609821
0.0574265
0.162754
0.163001
0.16315
0.163148
0.162981
0.162692
0.16232
0.161879
0.161346
0.160682
0.15984
0.158773
0.157426
0.155737
0.153632
0.151021
0.147792
0.143807
0.138895
0.13285
0.125423
0.116309
0.105173
0.0927237
0.080711
0.0699539
0.0601558
0.0527051
0.0499538
0.160331
0.160573
0.160693
0.160635
0.160388
0.160005
0.159541
0.159013
0.158389
0.157626
0.156677
0.155494
0.154027
0.152216
0.149988
0.147258
0.143919
0.139838
0.134853
0.128763
0.12132
0.1122
0.10102
0.0883669
0.0759001
0.0644752
0.0537353
0.0456676
0.0438903
0.157964
0.158253
0.158406
0.158318
0.157966
0.157443
0.156854
0.156234
0.155538
0.154703
0.153678
0.152418
0.150873
0.14899
0.146701
0.143927
0.140569
0.136505
0.131589
0.125638
0.118421
0.1096
0.0987302
0.0862455
0.0736117
0.0616084
0.049637
0.0398467
0.0381742
0.166688
0.150257
0.127296
0.0978177
0.0649416
0.0327091
0.00388645
-0.0226446
-0.0468251
-0.0732357
-0.0999819
-0.131831
-0.164704
-0.195587
-0.220553
-0.237081
-0.245259
-0.247279
-0.246744
0.17516
0.163178
0.141235
0.111
0.0748391
0.0361606
-0.00156252
-0.0395625
-0.0752255
-0.114981
-0.155246
-0.196346
-0.235913
-0.270686
-0.297427
-0.31497
-0.324567
-0.328768
-0.330283
0.171644
0.160926
0.140286
0.11015
0.0720039
0.0285633
-0.0160553
-0.0646649
-0.113375
-0.162825
-0.212503
-0.261248
-0.306302
-0.344413
-0.373121
-0.392131
-0.403207
-0.408942
-0.411785
0.162757
0.15226
0.133413
0.104062
0.0636699
0.0156012
-0.0367693
-0.0923598
-0.149821
-0.208227
-0.2666
-0.322927
-0.373605
-0.415112
-0.445534
-0.46543
-0.477295
-0.483981
-0.487765
0.150876
0.141308
0.124039
0.0951569
0.0533458
0.00214032
-0.0554549
-0.117473
-0.182676
-0.249687
-0.316147
-0.378789
-0.433389
-0.476642
-0.507593
-0.527781
-0.540279
-0.547889
-0.552489
0.134691
0.125698
0.109886
0.0821023
0.0402362
-0.0126847
-0.0738718
-0.141536
-0.213608
-0.287717
-0.360368
-0.427277
-0.484064
-0.528116
-0.559517
-0.580505
-0.594386
-0.603689
-0.609871
0.114569
0.104818
0.0895175
0.0627769
0.0215111
-0.0321317
-0.0956221
-0.167051
-0.24364
-0.321958
-0.39752
-0.465335
-0.521237
-0.563566
-0.593405
-0.613502
-0.627251
-0.636779
-0.643202
0.0915467
0.0799769
0.0639002
0.0372642
-0.00357793
-0.0572643
-0.121568
-0.194394
-0.27254
-0.351801
-0.426935
-0.492699
-0.54559
-0.585039
-0.612908
-0.63211
-0.6458
-0.655576
-0.662318
0.0665163
0.0527068
0.0349097
0.00731068
-0.0336298
-0.08696
-0.150756
-0.22289
-0.299892
-0.376989
-0.448511
-0.509475
-0.557366
-0.59263
-0.617612
-0.635161
-0.648101
-0.657571
-0.664155
0.0403165
0.0243243
0.00442056
-0.0247852
-0.0662642
-0.119066
-0.181487
-0.251468
-0.325376
-0.398105
-0.463976
-0.518703
-0.560884
-0.591786
-0.613981
-0.630093
-0.642555
-0.652167
-0.659186
0.0138759
-0.00399909
-0.0259824
-0.0569723
-0.0992414
-0.151529
-0.212133
-0.278929
-0.348048
-0.414212
-0.472176
-0.518764
-0.553735
-0.578959
-0.597008
-0.610192
-0.6205
-0.628528
-0.634355
-0.0117274
-0.0310261
-0.0547394
-0.0872278
-0.130146
-0.181761
-0.240155
-0.302974
-0.366146
-0.424582
-0.473965
-0.512427
-0.540682
-0.560865
-0.575302
-0.585883
-0.594123
-0.600533
-0.605103
-0.0354908
-0.0556787
-0.0805803
-0.113957
-0.157007
-0.207524
-0.263307
-0.321743
-0.378699
-0.429593
-0.471219
-0.50286
-0.525828
-0.542247
-0.554112
-0.562944
-0.56991
-0.575524
-0.579628
-0.0567029
-0.0772844
-0.102823
-0.136426
-0.178988
-0.227881
-0.280568
-0.334137
-0.384521
-0.427889
-0.462233
-0.487788
-0.506186
-0.519364
-0.528954
-0.536144
-0.541805
-0.546427
-0.549775
-0.0749321
-0.0954854
-0.121157
-0.15438
-0.195845
-0.242561
-0.291681
-0.340081
-0.383998
-0.42055
-0.448832
-0.469725
-0.4849
-0.495995
-0.504269
-0.510607
-0.515653
-0.519842
-0.522893
-0.0901054
-0.110311
-0.135706
-0.168078
-0.207986
-0.252152
-0.297515
-0.340894
-0.379016
-0.409938
-0.433596
-0.451203
-0.464311
-0.474243
-0.481952
-0.488096
-0.493173
-0.49753
-0.50081
-0.102489
-0.122144
-0.146994
-0.178241
-0.216332
-0.257707
-0.299127
-0.337488
-0.370181
-0.39619
-0.416079
-0.431167
-0.442772
-0.4519
-0.459233
-0.465241
-0.470309
-0.474674
-0.477966
-0.112473
-0.131463
-0.155606
-0.185605
-0.221795
-0.260352
-0.297931
-0.331664
-0.359684
-0.381764
-0.398848
-0.4122
-0.422873
-0.431586
-0.438797
-0.444819
-0.449948
-0.454336
-0.457636
-0.120546
-0.138822
-0.162199
-0.19097
-0.225383
-0.261391
-0.295611
-0.325472
-0.349775
-0.368864
-0.383876
-0.395962
-0.405943
-0.41432
-0.421388
-0.427353
-0.432451
-0.43678
-0.440031
-0.127248
-0.144812
-0.16747
-0.195134
-0.227923
-0.261559
-0.292679
-0.319105
-0.340276
-0.356946
-0.3703
-0.381322
-0.390623
-0.398536
-0.405245
-0.410885
-0.415658
-0.41964
-0.422586
-0.133001
-0.149912
-0.171994
-0.198741
-0.230099
-0.261609
-0.290029
-0.313625
-0.332343
-0.347156
-0.359201
-0.369299
-0.377907
-0.385251
-0.391451
-0.396608
-0.400893
-0.404391
-0.40694
-0.138179
-0.154583
-0.176335
-0.202352