/*--------------------------------*- C++ -*----------------------------------*\
| =========                 |                                                 |
| \\      /  F ield         | OpenFOAM: The Open Source CFD Toolbox           |
|  \\    /   O peration     | Version:  2312                                  |
|   \\  /    A nd           | Website:  www.openfoam.com                      |
|    \\/     M anipulation  |                                                 |
\*---------------------------------------------------------------------------*/
FoamFile
{
    version     2.0;
    format      ascii;
    arch        "LSB;label=32;scalar=64";
    class       volVectorField;
    location    "28.565731315420074";
    object      U;
}
// * * * * * * * * * * * * * * * * * * * * * * * * * * * * * * * * * * * * * //

dimensions      [0 1 -1 0 0 0 0];

internalField   nonuniform List<vector> 
21039
(
(0.913783 0.0474577 0)
(1.02606 0.0664931 0)
(1.00449 0.0294671 0)
(1.00177 0.0188834 0)
(1.00121 0.0138699 0)
(1.0008 0.0104843 0)
(1.00055 0.00815295 0)
(1.0004 0.00650517 0)
(1.00031 0.00528986 0)
(1.00024 0.00436316 0)
(1.00019 0.00363958 0)
(1.00015 0.00306414 0)
(1.00012 0.00259983 0)
(1.0001 0.00222109 0)
(1.00008 0.00190981 0)
(1.00006 0.00165289 0)
(1.00005 0.00144067 0)
(1.00004 0.00126585 0)
(1.00003 0.00112283 0)
(1.00003 0.00100708 0)
(1.00002 0.000914778 0)
(1.00001 0.000843922 0)
(1.00001 0.000796199 0)
(1.00001 0.000753618 0)
(1.00001 0.000721138 0)
(1.00001 0.000695355 0)
(1.00001 0.000671902 0)
(1.00001 0.000640772 0)
(1.00002 0.00057999 0)
(0.794616 0.0730693 0)
(1.07451 0.121665 0)
(1.03989 0.0707847 0)
(1.01812 0.0496538 0)
(1.0113 0.0382193 0)
(1.00766 0.02942 0)
(1.0054 0.0231053 0)
(1.00397 0.018511 0)
(1.00302 0.0150366 0)
(1.00235 0.0123409 0)
(1.00186 0.0102073 0)
(1.0015 0.00848904 0)
(1.00123 0.00708546 0)
(1.00101 0.00592614 0)
(1.00084 0.00496085 0)
(1.00069 0.00415307 0)
(1.00058 0.00347591 0)
(1.00048 0.00290922 0)
(1.00039 0.00243774 0)
(1.00031 0.00204961 0)
(1.00025 0.00173504 0)
(1.00019 0.00148774 0)
(1.00014 0.00131173 0)
(1.00011 0.00117822 0)
(1.0001 0.0010932 0)
(1.0001 0.00103822 0)
(1.0001 0.000998835 0)
(1.00011 0.000955626 0)
(1.00012 0.000878327 0)
(0.667412 0.0572727 0)
(1.08307 0.12477 0)
(1.08438 0.090223 0)
(1.04632 0.0675896 0)
(1.0291 0.0540465 0)
(1.02029 0.0430596 0)
(1.01474 0.0347268 0)
(1.01104 0.0283178 0)
(1.00849 0.0232597 0)
(1.00667 0.0192208 0)
(1.00534 0.0159557 0)
(1.00434 0.0132819 0)
(1.00357 0.0110679 0)
(1.00296 0.0092187 0)
(1.00247 0.00766411 0)
(1.00207 0.00635228 0)
(1.00173 0.0052444 0)
(1.00145 0.00431122 0)
(1.00119 0.00353054 0)
(1.00097 0.00288531 0)
(1.00078 0.00236171 0)
(1.0006 0.00194963 0)
(1.00045 0.00165484 0)
(1.00034 0.00144449 0)
(1.00028 0.00131924 0)
(1.00025 0.00124386 0)
(1.00024 0.00119399 0)
(1.00025 0.00114435 0)
(1.00026 0.00106139 0)
(0.541146 0.0352568 0)
(1.05085 0.110792 0)
(1.11597 0.0969457 0)
(1.07617 0.0761815 0)
(1.04931 0.0619892 0)
(1.03535 0.0508484 0)
(1.0265 0.0421408 0)
(1.02034 0.0350786 0)
(1.01592 0.029259 0)
(1.01269 0.0244565 0)
(1.01027 0.0204668 0)
(1.00843 0.0171257 0)
(1.00699 0.014309 0)
(1.00584 0.0119214 0)
(1.00491 0.00988968 0)
(1.00414 0.00815795 0)
(1.00348 0.00668338 0)
(1.00292 0.00543314 0)
(1.00242 0.00438205 0)
(1.00198 0.00351083 0)
(1.00158 0.00280405 0)
(1.00122 0.00224941 0)
(1.0009 0.0018541 0)
(1.00066 0.00158321 0)
(1.00051 0.00142909 0)
(1.00043 0.0013413 0)
(1.0004 0.00128705 0)
(1.0004 0.00123622 0)
(1.0004 0.00115055 0)
(0.444353 0.0186601 0)
(0.997875 0.0918443 0)
(1.1291 0.0955927 0)
(1.10152 0.0793761 0)
(1.06834 0.065295 0)
(1.04988 0.0545804 0)
(1.03839 0.0461561 0)
(1.03018 0.0390807 0)
(1.0241 0.0330654 0)
(1.01952 0.0279605 0)
(1.01602 0.0236077 0)
(1.01329 0.0198786 0)
(1.01112 0.0166734 0)
(1.00937 0.0139116 0)
(1.00793 0.0115288 0)
(1.00672 0.00947449 0)
(1.00568 0.00770876 0)
(1.00478 0.00620058 0)
(1.00398 0.00492585 0)
(1.00326 0.0038661 0)
(1.00261 0.00300679 0)
(1.00201 0.00233539 0)
(1.00146 0.00186102 0)
(1.00105 0.00154792 0)
(1.00077 0.00137889 0)
(1.00061 0.00129019 0)
(1.00054 0.00124193 0)
(1.00052 0.00119932 0)
(1.00051 0.00111727 0)
(0.378837 0.00809487 0)
(0.939873 0.071824 0)
(1.1271 0.088249 0)
(1.12095 0.07854 0)
(1.08564 0.065748 0)
(1.06321 0.0557205 0)
(1.04946 0.0478106 0)
(1.03966 0.0410165 0)
(1.03225 0.0351049 0)
(1.02654 0.0299714 0)
(1.02208 0.0254956 0)
(1.01853 0.0215833 0)
(1.01567 0.0181594 0)
(1.01331 0.0151618 0)
(1.01135 0.0125397 0)
(1.00967 0.0102521 0)
(1.00822 0.00826658 0)
(1.00695 0.00655737 0)
(1.0058 0.00510457 0)
(1.00476 0.00389305 0)
(1.0038 0.00291128 0)
(1.00291 0.00214854 0)
(1.00209 0.00161686 0)
(1.00145 0.00128059 0)
(1.00103 0.00111234 0)
(1.00077 0.00103619 0)
(1.00065 0.0010061 0)
(1.0006 0.000982978 0)
(1.00056 0.000913522 0)
(0.333652 0.00232422 0)
(0.883615 0.0538215 0)
(1.1142 0.0778085 0)
(1.13404 0.0747274 0)
(1.10107 0.0641315 0)
(1.07552 0.0550107 0)
(1.0597 0.0477457 0)
(1.04859 0.0414075 0)
(1.04011 0.0357731 0)
(1.03347 0.0307711 0)
(1.02819 0.0263207 0)
(1.02393 0.0223591 0)
(1.02043 0.0188345 0)
(1.01751 0.0157024 0)
(1.01503 0.0129261 0)
(1.0129 0.010476 0)
(1.01102 0.00832852 0)
(1.00935 0.00646522 0)
(1.00783 0.00487224 0)
(1.00643 0.00353962 0)
(1.00513 0.00246056 0)
(1.0039 0.00162776 0)
(1.00276 0.00105686 0)
(1.00187 0.000714013 0)
(1.00126 0.000561067 0)
(1.00088 0.00050975 0)
(1.00068 0.000509277 0)
(1.00059 0.000517523 0)
(1.00051 0.000472805 0)
(0.30139 -0.000204735 0)
(0.831921 0.039551 0)
(1.09404 0.0669026 0)
(1.14078 0.0692893 0)
(1.11411 0.0612123 0)
(1.08678 0.0530771 0)
(1.06913 0.0464618 0)
(1.05692 0.0406423 0)
(1.04759 0.0353725 0)
(1.0402 0.0305935 0)
(1.03424 0.0262584 0)
(1.02935 0.0223321 0)
(1.02529 0.0187834 0)
(1.02185 0.0155845 0)
(1.0189 0.0127127 0)
(1.01632 0.0101495 0)
(1.01402 0.00788084 0)
(1.01194 0.00589632 0)
(1.01003 0.00418923 0)
(1.00825 0.002756 0)
(1.00656 0.00159599 0)
(1.00496 0.000707372 0)
(1.00346 0.000105673 0)
(1.00226 -0.000233534 0)
(1.00144 -0.00035864 0)
(1.00092 -0.00037943 0)
(1.00062 -0.000345056 0)
(1.00047 -0.000291721 0)
(1.00033 -0.000278731 0)
(0.278459 -0.00100001 0)
(0.7863 0.0290493 0)
(1.06991 0.0568899 0)
(1.14203 0.0632638 0)
(1.12448 0.0576599 0)
(1.09689 0.050497 0)
(1.07776 0.0444361 0)
(1.06462 0.0390877 0)
(1.05463 0.0341832 0)
(1.04665 0.0296542 0)
(1.04013 0.0254734 0)
(1.03473 0.0216251 0)
(1.03018 0.0180943 0)
(1.02628 0.0148675 0)
(1.02289 0.0119341 0)
(1.01988 0.00928615 0)
(1.01717 0.00691875 0)
(1.01469 0.0048298 0)
(1.01237 0.00302012 0)
(1.01018 0.00149319 0)
(1.00809 0.000255137 0)
(1.00607 -0.000690629 0)
(1.00417 -0.00131636 0)
(1.00263 -0.00165008 0)
(1.00155 -0.00175042 0)
(1.00085 -0.00172878 0)
(1.00044 -0.00164711 0)
(1.0002 -0.0015571 0)
(0.999983 -0.00153623 0)
(0.26207 -0.00104462 0)
(0.747143 0.0216094 0)
(1.04435 0.0481863 0)
(1.13907 0.0572106 0)
(1.13232 0.053857 0)
(1.1059 0.0476363 0)
(1.08569 0.042023 0)
(1.07176 0.0370491 0)
(1.06124 0.0324556 0)
(1.0528 0.0281539 0)
(1.04585 0.0241233 0)
(1.04002 0.0203593 0)
(1.03506 0.0168575 0)
(1.03076 0.0136151 0)
(1.02696 0.010631 0)
(1.02356 0.00790622 0)
(1.02046 0.00544413 0)
(1.01758 0.00325047 0)
(1.01485 0.00133365 0)
(1.01225 -0.000295994 0)
(1.00972 -0.00162516 0)
(1.00726 -0.00264203 0)
(1.0049 -0.00330864 0)
(1.00297 -0.00364924 0)
(1.00159 -0.00372982 0)
(1.00068 -0.00366869 0)
(1.00011 -0.00353573 0)
(0.999748 -0.00339381 0)
(0.999425 -0.0033441 0)
(0.249906 -0.00082535 0)
(0.713959 0.0164432 0)
(1.01898 0.0408137 0)
(1.13317 0.0514112 0)
(1.13795 0.0499863 0)
(1.11394 0.0446673 0)
(1.09307 0.0394242 0)
(1.07843 0.0347296 0)
(1.06748 0.0303754 0)
(1.05869 0.0262541 0)
(1.05139 0.0223438 0)
(1.04523 0.0186448 0)
(1.03992 0.0151593 0)
(1.03528 0.0118915 0)
(1.03113 0.00884725 0)
(1.02737 0.00603469 0)
(1.0239 0.00346403 0)
(1.02063 0.00114817 0)
(1.0175 -0.00089868 0)
(1.01446 -0.00265904 0)
(1.01148 -0.00411031 0)
(1.00854 -0.00523125 0)
(1.00569 -0.00597399 0)
(1.00332 -0.0063536 0)
(1.00159 -0.00643798 0)
(1.00041 -0.00635416 0)
(0.999637 -0.00617898 0)
(0.999101 -0.00598538 0)
(0.998625 -0.00589788 0)
(0.240445 -0.000565711 0)
(0.685915 0.0128658 0)
(0.994707 0.0346504 0)
(1.12528 0.0460101 0)
(1.14171 0.0461509 0)
(1.1211 0.0416731 0)
(1.10003 0.0367483 0)
(1.0848 0.0322533 0)
(1.07346 0.0280674 0)
(1.06439 0.0240725 0)
(1.05683 0.0202409 0)
(1.05039 0.0165735 0)
(1.04481 0.0130761 0)
(1.03987 0.0097571 0)
(1.03542 0.00662721 0)
(1.03134 0.0036996 0)
(1.02752 0.000990272 0)
(1.02388 -0.00148417 0)
(1.02035 -0.00370271 0)
(1.01689 -0.00563915 0)
(1.01344 -0.00726336 0)
(1.00999 -0.00854468 0)
(1.0066 -0.00942383 0)
(1.00373 -0.00990058 0)
(1.0016 -0.0100367 0)
(1.00009 -0.0099667 0)
(0.999047 -0.00977466 0)
(0.998276 -0.00954511 0)
(0.997585 -0.00942576 0)
(0.232817 -0.00035614 0)
(0.662185 0.0103402 0)
(0.972023 0.0295185 0)
(1.11617 0.0410662 0)
(1.14391 0.0424191 0)
(1.12745 0.0387048 0)
(1.10665 0.034062 0)
(1.09095 0.0297027 0)
(1.07928 0.0256197 0)
(1.06997 0.0216968 0)
(1.06221 0.017898 0)
(1.05556 0.0142221 0)
(1.04976 0.0106756 0)
(1.04458 0.00726903 0)
(1.03988 0.00401602 0)
(1.03551 0.00093324 0)
(1.03138 -0.00196168 0)
(1.0274 -0.0046469 0)
(1.02349 -0.00709394 0)
(1.0196 -0.00927058 0)
(1.01567 -0.0111397 0)
(1.0117 -0.0126624 0)
(1.00774 -0.0137683 0)
(1.00433 -0.0144353 0)
(1.00173 -0.0147061 0)
(0.999822 -0.0147182 0)
(0.998431 -0.0145618 0)
(0.99734 -0.0143339 0)
(0.996353 -0.0142053 0)
(0.226512 -0.000214721 0)
(0.642043 0.00849264 0)
(0.951143 0.0252358 0)
(1.10641 0.0365825 0)
(1.14486 0.038833 0)
(1.1331 0.0357967 0)
(1.11301 0.03141 0)
(1.09698 0.027138 0)
(1.08501 0.0231017 0)
(1.07553 0.0191996 0)
(1.06761 0.0153879 0)
(1.06081 0.0116606 0)
(1.05484 0.00802304 0)
(1.04948 0.00448598 0)
(1.04457 0.00106374 0)
(1.03997 -0.00222736 0)
(1.03558 -0.00536704 0)
(1.03129 -0.00832797 0)
(1.02703 -0.011077 0)
(1.02273 -0.0135765 0)
(1.01833 -0.0157836 0)
(1.01382 -0.0176536 0)
(1.00928 -0.0191079 0)
(1.00529 -0.0200991 0)
(1.00218 -0.0206349 0)
(0.999802 -0.0208455 0)
(0.997962 -0.020821 0)
(0.996437 -0.0206701 0)
(0.995042 -0.020583 0)
(0.221204 -0.000131588 0)
(0.624877 0.00709277 0)
(0.932123 0.0216696 0)
(1.0964 0.0325636 0)
(1.14478 0.0354324 0)
(1.13805 0.0329739 0)
(1.1191 0.028818 0)
(1.1029 0.0245985 0)
(1.09069 0.0205638 0)
(1.08106 0.0166377 0)
(1.07304 0.0127706 0)
(1.06614 0.00895043 0)
(1.06006 0.00517956 0)
(1.05457 0.00146678 0)
(1.0495 -0.00217612 0)
(1.04473 -0.0057333 0)
(1.04012 -0.00918174 0)
(1.03557 -0.012491 0)
(1.03099 -0.0156248 0)
(1.0263 -0.0185403 0)
(1.02146 -0.0211899 0)
(1.01643 -0.0235258 0)
(1.01132 -0.0254689 0)
(1.00681 -0.0269564 0)
(1.00321 -0.0279521 0)
(1.00035 -0.0285642 0)
(0.997995 -0.0288623 0)
(0.995919 -0.028947 0)
(0.993979 -0.0290054 0)
(0.217046 -7.61681e-05 0)
(0.611253 0.00608463 0)
(0.916207 0.0188993 0)
(1.08727 0.0292386 0)
(1.1441 0.0324887 0)
(1.14218 0.0304868 0)
(1.12458 0.0265278 0)
(1.10838 0.0223391 0)
(1.09601 0.0182793 0)
(1.08628 0.0143018 0)
(1.07822 0.0103528 0)
(1.07128 0.00641334 0)
(1.06515 0.00248071 0)
(1.05961 -0.00144067 0)
(1.05448 -0.00534278 0)
(1.0496 -0.00921159 0)
(1.04485 -0.0130242 0)
(1.04012 -0.0167504 0)
(1.03531 -0.0203515 0)
(1.03032 -0.0237796 0)
(1.02509 -0.0269795 0)
(1.01961 -0.0298963 0)
(1.01401 -0.0324459 0)
(1.00907 -0.034556 0)
(1.00512 -0.0361703 0)
(1.00189 -0.0373976 0)
(0.999057 -0.0382756 0)
(0.996348 -0.0388475 0)
(0.993663 -0.0392319 0)
(0.213989 -4.26963e-05 0)
(0.601258 0.00539687 0)
(0.904047 0.0169044 0)
(1.07983 0.0267278 0)
(1.1432 0.0301978 0)
(1.14533 0.0285312 0)
(1.12906 0.0247247 0)
(1.11299 0.0205534 0)
(1.10052 0.0164625 0)
(1.09074 0.0124306 0)
(1.08268 0.00839936 0)
(1.07575 0.00434268 0)
(1.06964 0.000251934 0)
(1.06411 -0.00387412 0)
(1.05898 -0.00803214 0)
(1.05409 -0.0122121 0)
(1.0493 -0.0163952 0)
(1.04448 -0.020555 0)
(1.03953 -0.0246545 0)
(1.03434 -0.0286431 0)
(1.02885 -0.0324581 0)
(1.02303 -0.0360316 0)
(1.01705 -0.0392526 0)
(1.01182 -0.0420088 0)
(1.00771 -0.0442415 0)
(1.0044 -0.0461423 0)
(1.00144 -0.0478303 0)
(0.998449 -0.0493351 0)
(0.995297 -0.0504981 0)
(0.211625 5.22903e-06 0)
(0.593605 0.00492795 0)
(0.894459 0.015452 0)
(1.07364 0.0248194 0)
(1.14217 0.0284151 0)
(1.14776 0.0270035 0)
(1.13275 0.0233262 0)
(1.11685 0.0191771 0)
(1.10432 0.0150658 0)
(1.09453 0.0109907 0)
(1.08649 0.00689012 0)
(1.07961 0.00273167 0)
(1.07355 -0.00149857 0)
(1.06807 -0.00580776 0)
(1.06299 -0.0101984 0)
(1.05813 -0.0146664 0)
(1.05336 -0.0192004 0)
(1.04854 -0.0237812 0)
(1.04355 -0.0283779 0)
(1.03826 -0.0329434 0)
(1.0326 -0.0374125 0)
(1.02654 -0.041707 0)
(1.02026 -0.0456738 0)
(1.01476 -0.0490793 0)
(1.01052 -0.0517773 0)
(1.00729 -0.0540279 0)
(1.00471 -0.0561969 0)
(1.00247 -0.0586726 0)
(0.999962 -0.0608921 0)
(0.210121 -1.56071e-06 0)
(0.58835 0.00456291 0)
(0.887642 0.0144138 0)
(1.06913 0.0234632 0)
(1.14144 0.0271309 0)
(1.14966 0.0258643 0)
(1.13567 0.0222511 0)
(1.11996 0.0181124 0)
(1.10744 0.0139921 0)
(1.09766 0.00988916 0)
(1.08967 0.00573474 0)
(1.08286 0.00149158 0)
(1.07688 -0.00285779 0)
(1.07149 -0.00732581 0)
(1.06649 -0.0119215 0)
(1.06173 -0.0166484 0)
(1.05704 -0.021505 0)
(1.05229 -0.0264821 0)
(1.04735 -0.0315597 0)
(1.04209 -0.0367013 0)
(1.03642 -0.0418507 0)
(1.0303 -0.0469416 0)
(1.02394 -0.0518111 0)
(1.01836 -0.0560722 0)
(1.01406 -0.0593525 0)
(1.01089 -0.0616881 0)
(1.00857 -0.0631047 0)
(1.00712 -0.0643156 0)
(1.00741 -0.0692456 0)
(1.00002 0.000586268 0)
(1.00002 0.000585383 0)
(1.00001 0.000579755 0)
(1.00001 0.000575175 9.87147e-22)
(1.00001 0.000572684 4.92481e-21)
(1.00001 0.000572105 -8.86289e-21)
(1.00001 0.000573281 4.92285e-21)
(1.00001 0.000576088 -3.92407e-21)
(1.00001 0.000580387 5.00449e-22)
(1 0.000586185 3.92326e-21)
(1 0.000593318 0)
(1 0.000601777 -4.39007e-21)
(1 0.00061144 4.97701e-22)
(0.999999 0.000622188 3.89884e-21)
(0.999997 0.000633999 0)
(0.999996 0.00064671 0)
(0.999995 0.000660288 -3.86691e-21)
(0.999994 0.00067459 3.86934e-21)
(0.999992 0.000689463 0)
(0.999991 0.000704908 -1.92089e-21)
(0.99999 0.000720741 2.0417e-21)
(0.999989 0.000736851 1.79186e-21)
(0.999988 0.000753185 -2.86541e-21)
(0.999987 0.000769566 9.23736e-22)
(0.999987 0.0007859 2.96255e-23)
(0.999986 0.000802121 -5.92196e-23)
(0.999986 0.000818053 8.2434e-22)
(0.999985 0.000833668 -9.4225e-22)
(0.999985 0.000848771 0)
(0.999985 0.000863198 0)
(0.999984 0.000877051 -2.32778e-22)
(0.999984 0.000890215 -2.31899e-22)
(0.999984 0.000902579 -3.92015e-21)
(0.999984 0.00091413 3.2263e-21)
(0.999985 0.000924745 -4.11791e-21)
(0.999985 0.000934373 4.11283e-21)
(0.999985 0.000942982 -3.17457e-21)
(0.999986 0.000950445 3.17308e-21)
(0.999987 0.000956764 4.50518e-22)
(0.999988 0.000961839 4.48532e-22)
(0.999988 0.000965656 -4.46513e-22)
(0.99999 0.000968195 0)
(0.999991 0.000969367 0)
(0.999992 0.000969222 0)
(0.999993 0.000967658 0)
(0.999995 0.000964819 0)
(0.999996 0.000960693 1.73433e-21)
(0.999998 0.000954363 -1.73153e-21)
(0.999999 0.000941727 0)
(1.00011 0.000878972 0)
(1.0001 0.000873672 1.99091e-21)
(1.00008 0.000865747 -1.98496e-21)
(1.00006 0.000861989 -9.90943e-22)
(1.00005 0.000863523 -9.9126e-22)
(1.00003 0.000869747 -2.96528e-21)
(1.00002 0.000880412 4.95005e-21)
(1.00001 0.000895466 0)
(0.999992 0.00091441 -4.92945e-22)
(0.999979 0.00093738 -9.8515e-22)
(0.999967 0.000963898 0)
(0.999955 0.000993873 4.90649e-22)
(0.999943 0.00102713 -4.40384e-21)
(0.999933 0.00106321 3.9175e-21)
(0.999923 0.00110212 0)
(0.999913 0.00114345 9.75227e-22)
(0.999904 0.001187 0)
(0.999896 0.0012326 0)
(0.999889 0.00127976 0)
(0.999882 0.00132843 -1.92957e-21)
(0.999876 0.00137829 1.80984e-21)
(0.999871 0.00142896 -1.20412e-22)
(0.999867 0.00148033 0)
(0.999864 0.00153205 -4.4756e-22)
(0.999861 0.00158382 4.70037e-22)
(0.999859 0.00163545 8.91737e-23)
(0.999858 0.00168664 1.18451e-22)
(0.999858 0.00173712 0)
(0.999859 0.00178667 -1.88059e-21)
(0.99986 0.00183501 1.88017e-21)
(0.999862 0.00188192 -3.50142e-21)
(0.999865 0.00192715 7.68843e-21)
(0.999869 0.00197047 -3.48794e-21)
(0.999873 0.00201167 4.62347e-22)
(0.999878 0.00205044 4.6054e-22)
(0.999884 0.00208668 4.59209e-22)
(0.999891 0.00212019 -4.56742e-22)
(0.999898 0.00215073 4.08802e-21)
(0.999907 0.00217821 -3.17628e-21)
(0.999916 0.0022023 -1.35311e-21)
(0.999925 0.00222296 4.93289e-21)
(0.999936 0.00224002 -3.58183e-21)
(0.999947 0.00225304 -1.77996e-21)
(0.999958 0.00226206 3.53674e-21)
(0.99997 0.00226682 -7.05273e-21)
(0.999983 0.00226742 3.51502e-21)
(0.999996 0.00226368 1.74318e-21)
(1.00001 0.00225479 -3.36035e-24)
(1.00003 0.00223576 0)
(1.00023 0.00105095 2.99502e-21)
(1.00019 0.00104257 -9.99981e-22)
(1.00015 0.00103722 -3.98571e-21)
(1.00011 0.00103899 1.98783e-21)
(1.00006 0.00104905 -1.98786e-21)
(1.00002 0.00106656 0)
(0.99998 0.00109125 -1.97957e-21)
(0.999942 0.00112321 -5.9299e-21)
(0.999905 0.00116139 5.93182e-21)
(0.99987 0.0012062 9.85157e-22)
(0.999837 0.00125674 0)
(0.999805 0.00131285 -5.89419e-21)
(0.999776 0.00137441 9.80071e-24)
(0.999748 0.00144046 3.92195e-21)
(0.999722 0.00151118 0)
(0.999698 0.00158581 -9.74646e-22)
(0.999677 0.00166397 -9.74949e-22)
(0.999657 0.00174563 0)
(0.99964 0.00182973 -9.70625e-22)
(0.999624 0.00191626 -1.93118e-21)
(0.999611 0.00200485 1.93177e-21)
(0.9996 0.00209471 -2.41422e-22)
(0.999592 0.00218572 -2.40227e-22)
(0.999585 0.00227739 0)
(0.999581 0.00236913 3.7219e-23)
(0.999579 0.00246067 -2.08247e-22)
(0.999579 0.00255159 0)
(0.999582 0.00264133 0)
(0.999587 0.0027296 -1.88123e-21)
(0.999594 0.00281599 1.88086e-21)
(0.999603 0.00290002 -3.73608e-21)
(0.999614 0.00298137 3.73483e-21)
(0.999627 0.00305963 0)
(0.999642 0.00313443 0)
(0.999659 0.00320536 0)
(0.999678 0.00327214 -9.17309e-22)
(0.999699 0.00333436 -1.82894e-21)
(0.999722 0.00339165 0)
(0.999747 0.00344382 -9.05813e-22)
(0.999774 0.00349031 -8.95381e-22)
(0.999803 0.00353103 2.70078e-21)
(0.999834 0.00356559 0)
(0.999866 0.00359354 3.55349e-21)
(0.9999 0.00361491 -5.32012e-21)
(0.999936 0.00362897 0)
(0.999973 0.00363591 0)
(1.00001 0.00363517 0)
(1.00005 0.00362591 -1.73831e-21)
(1.0001 0.00360414 -1.72829e-21)
(1.00035 0.00113126 -2.00084e-21)
(1.00027 0.00112542 4.00501e-21)
(1.00019 0.00112922 3.99867e-21)
(1.0001 0.00114287 5.98061e-21)
(1.00002 0.00116784 -1.99787e-21)
(0.999938 0.00120318 -3.97264e-21)
(0.999861 0.00124857 7.94448e-21)
(0.999786 0.00130435 -3.32227e-24)
(0.999716 0.00136871 -1.97773e-21)
(0.999649 0.00144253 1.98056e-21)
(0.999585 0.00152432 0)
(0.999525 0.00161392 1.96782e-21)
(0.999469 0.00171129 -1.95782e-21)
(0.999417 0.00181479 7.85331e-21)
(0.999369 0.00192494 -7.83749e-21)
(0.999325 0.00204052 5.8754e-21)
(0.999286 0.00216095 -9.81311e-22)
(0.99925 0.00228643 9.75519e-22)
(0.999218 0.00241517 9.69843e-22)
(0.999191 0.00254727 -9.7098e-22)
(0.999168 0.00268231 0)
(0.99915 0.00281901 -1.44379e-21)
(0.999136 0.00295726 1.20555e-21)
(0.999126 0.00309647 9.59986e-22)
(0.999121 0.00323563 4.47814e-23)
(0.99912 0.00337447 8.91178e-23)
(0.999123 0.00351246 1.42395e-21)
(0.999131 0.00364864 -9.48112e-22)
(0.999143 0.0037827 1.88358e-21)
(0.999159 0.00391412 -1.88327e-21)
(0.99918 0.00404209 0)
(0.999204 0.00416624 4.66051e-21)
(0.999233 0.004286 -3.72471e-21)
(0.999265 0.00440075 3.69669e-21)
(0.999302 0.00451005 -3.69532e-21)
(0.999343 0.00461341 0)
(0.999387 0.00471024 3.64799e-21)
(0.999435 0.00480009 -1.82629e-21)
(0.999487 0.00488261 0)
(0.999543 0.00495708 3.60501e-21)
(0.999602 0.00502336 -3.59987e-21)
(0.999665 0.00508081 1.78871e-21)
(0.999732 0.00512893 1.77997e-21)
(0.999801 0.00516771 5.31373e-21)
(0.999875 0.00519606 6.15426e-24)
(0.999951 0.0052143 3.51511e-21)
(1.00003 0.00522142 1.74251e-21)
(1.00012 0.00521658 1.7323e-21)
(1.00021 0.0051972 1.72957e-21)
(1.00042 0.0010945 0)
(1.0003 0.00109931 -4.01027e-21)
(1.00017 0.00112106 -4.00222e-21)
(1.00003 0.00115534 0)
(0.999893 0.00120416 -3.99413e-21)
(0.999761 0.00126639 8.47861e-24)
(0.999635 0.00134171 7.98988e-21)
(0.999514 0.00143075 -2.00086e-21)
(0.999398 0.00153084 -8.76109e-24)
(0.999289 0.00164344 -5.95398e-21)
(0.999186 0.00176639 0)
(0.999089 0.0018995 -5.93503e-21)
(0.998998 0.00204292 1.98277e-21)
(0.998915 0.00219417 0)
(0.998837 0.00235419 -1.97203e-21)
(0.998767 0.00252122 9.54244e-24)
(0.998703 0.00269447 -1.95744e-21)
(0.998647 0.00287449 6.83977e-21)
(0.998597 0.00305851 -1.07224e-23)
(0.998555 0.00324686 -9.8238e-22)
(0.99852 0.0034391 -9.69704e-22)
(0.998492 0.00363328 1.93097e-21)
(0.998471 0.00382944 -1.93126e-21)
(0.998457 0.0040268 -2.38957e-22)
(0.998451 0.00422391 4.94878e-22)
(0.998452 0.00442048 -2.67357e-22)
(0.998461 0.00461589 9.52166e-22)
(0.998476 0.00480875 -9.50409e-22)
(0.998499 0.00499869 9.47495e-22)
(0.998529 0.0051851 1.88074e-21)
(0.998565 0.0053668 -5.62703e-21)
(0.998609 0.00554337 -9.19923e-22)
(0.998659 0.00571409 5.59662e-21)
(0.998716 0.00587806 1.85733e-21)
(0.99878 0.0060348 -3.68679e-21)
(0.99885 0.00618364 3.68455e-21)
(0.998927 0.00632376 7.58048e-24)
(0.99901 0.00645466 5.46981e-21)
(0.9991 0.00657585 -3.64558e-21)
(0.999195 0.00668639 -9.03895e-21)
(0.999297 0.00678616 3.59689e-21)
(0.999404 0.00687428 1.79069e-21)
(0.999517 0.00695015 7.11556e-21)
(0.999636 0.00701376 -3.54862e-21)
(0.999761 0.00706371 -7.32661e-24)
(0.999892 0.00710047 -7.88289e-24)
(1.00003 0.00712259 0)
(1.00017 0.00712933 -3.4744e-21)
(1.00033 0.00712028 -3.45178e-21)
(1.00043 0.00089461 0)
(1.00025 0.00092012 -6.06189e-21)
(1.00006 0.00097026 6.05408e-21)
(0.999854 0.00103582 0)
(0.999653 0.00111957 0)
(0.999457 0.00122007 -4.00967e-21)
(0.999269 0.00133697 -2.70953e-24)
(0.999088 0.00147133 -4.01114e-21)
(0.998916 0.00161938 -8.59113e-24)
(0.998753 0.00178335 0)
(0.998599 0.00196025 0)
(0.998455 0.00214991 1.98318e-21)
(0.99832 0.0023527 0)
(0.998196 0.0025651 0)
(0.998081 0.00278867 -1.977e-21)
(0.997977 0.00302095 3.9617e-21)
(0.997884 0.0032609 1.97492e-21)
(0.997801 0.00350951 0)
(0.997729 0.00376289 1.94603e-21)
(0.997667 0.00402163 -4.8919e-21)
(0.997617 0.00428527 -1.94835e-21)
(0.997577 0.00455111 -1.93921e-21)
(0.997549 0.00481931 1.9394e-21)
(0.997531 0.00508896 1.38043e-24)
(0.997525 0.00535805 1.50784e-23)
(0.997529 0.00562628 2.39455e-22)
(0.997545 0.00589295 -4.78556e-22)
(0.997571 0.00615615 0)
(0.997609 0.00641547 -9.46372e-22)
(0.997657 0.00667021 0)
(0.997715 0.00691875 0)
(0.997785 0.00716065 -1.87869e-21)
(0.997864 0.007395 -7.45984e-21)
(0.997954 0.00762056 2.14869e-23)
(0.998054 0.00783689 1.85449e-21)
(0.998163 0.00804307 0)
(0.998283 0.00823805 -1.8311e-21)
(0.998412 0.0084213 -3.6552e-21)
(0.99855 0.00859213 3.62851e-21)
(0.998698 0.00874943 7.231e-21)
(0.998855 0.00889311 -7.19445e-21)
(0.99902 0.00902199 3.61709e-24)
(0.999194 0.00913543 -3.56054e-21)
(0.999377 0.00923344 9.25187e-25)
(0.999569 0.00931426 0)
(0.999769 0.00937858 -3.50637e-21)
(0.999979 0.00942441 -1.73967e-21)
(1.0002 0.00945133 1.73836e-21)
(1.00044 0.00946225 3.45328e-21)
(1.00033 0.000468293 0)
(1.00009 0.000525851 4.05174e-21)
(0.999817 0.000615592 -1.21748e-20)
(0.999535 0.000724666 0)
(0.999253 0.000856487 0)
(0.998978 0.00100905 -8.09056e-21)
(0.998713 0.00118186 8.06303e-21)
(0.998458 0.00137641 -4.04319e-21)
(0.998216 0.00158765 -8.7651e-24)
(0.997986 0.00181875 4.02008e-21)
(0.997769 0.00206569 0)
(0.997566 0.00232834 0)
(0.997377 0.00260734 4.01101e-21)
(0.997202 0.00289795 0)
(0.997041 0.00320244 0)
(0.996895 0.00351756 -3.97119e-21)
(0.996764 0.00384197 1.51122e-23)
(0.996649 0.00417718 0)
(0.996548 0.00451799 1.96343e-21)
(0.996463 0.00486531 4.91377e-21)
(0.996394 0.00521865 -1.96909e-21)
(0.996341 0.00557442 0)
(0.996303 0.00593297 -9.71839e-22)
(0.996281 0.00629318 1.21431e-21)
(0.996275 0.00665244 -5.29657e-22)
(0.996285 0.00701042 -2.4173e-22)
(0.996311 0.0073663 4.76463e-22)
(0.996352 0.00771761 -9.5793e-22)
(0.996409 0.00806387 0)
(0.996482 0.00840425 -3.79614e-21)
(0.996569 0.00873666 5.66252e-21)
(0.996672 0.00906058 1.86085e-21)
(0.99679 0.00937495 -6.95141e-24)
(0.996922 0.00967811 1.85921e-21)
(0.997069 0.00996962 -1.8667e-21)
(0.997229 0.0102483 -3.68406e-21)
(0.997404 0.0105129 7.3476e-21)
(0.997592 0.0107628 -3.66142e-21)
(0.997794 0.0109971 7.28708e-21)
(0.998008 0.0112145 7.80765e-24)
(0.998235 0.011415 7.2003e-21)
(0.998474 0.011597 -3.57802e-21)
(0.998726 0.0117599 0)
(0.998989 0.0119037 1.4256e-24)
(0.999264 0.0120263 7.04697e-21)
(0.999552 0.0121287 0)
(0.999853 0.0122082 0)
(1.00017 0.0122649 6.05963e-21)
(1.00051 0.0123066 8.63262e-22)
(1.00008 -0.000255412 1.02335e-21)
(0.999749 -0.000167636 7.19176e-21)
(0.999395 -2.71715e-05 8.14254e-21)
(0.999018 0.000139272 -8.19763e-21)
(0.998639 0.000334735 0)
(0.998267 0.000555782 -1.13086e-23)
(0.997908 0.000801629 -4.1011e-21)
(0.997563 0.00107432 -4.09067e-21)
(0.997234 0.00136728 1.2189e-20)
(0.996921 0.00168474 -4.05264e-21)
(0.996627 0.00202147 0)
(0.996351 0.00237739 8.08778e-21)
(0.996094 0.00275342 -8.04155e-21)
(0.995857 0.00314341 2.44962e-23)
(0.995639 0.00355049 8.0206e-21)
(0.995442 0.00397044 -2.01379e-21)
(0.995265 0.0044016 -1.96257e-21)
(0.995109 0.00484606 3.98578e-21)
(0.994974 0.0052971 0)
(0.99486 0.00575604 -1.97118e-21)
(0.994769 0.00622226 1.97369e-21)
(0.994698 0.00669124 1.96341e-21)
(0.99465 0.00716347 -1.96336e-21)
(0.994624 0.00763756 2.45242e-22)
(0.99462 0.00811026 3.02922e-23)
(0.994637 0.00858114 7.25117e-22)
(0.994677 0.00904922 -2.61874e-24)
(0.994738 0.00951144 0)
(0.994821 0.00996712 0)
(0.994925 0.0104153 -1.78527e-24)
(0.99505 0.0108534 -1.88498e-21)
(0.995196 0.0112807 3.78575e-21)
(0.995363 0.011696 -3.76051e-21)
(0.99555 0.0120971 3.73153e-21)
(0.995757 0.0124835 -7.46385e-21)
(0.995983 0.012854 1.80429e-23)
(0.996228 0.0132066 3.69196e-21)
(0.996491 0.013541 3.65543e-21)
(0.996772 0.0138559 -7.30568e-21)
(0.997071 0.0141497 -7.25344e-21)
(0.997387 0.0144226 -3.61347e-21)
(0.997719 0.0146727 -3.59147e-21)
(0.998067 0.0148991 0)
(0.998431 0.0151022 -3.53954e-21)
(0.998811 0.0152792 1.11908e-25)
(0.999207 0.0154316 6.99713e-21)
(0.99962 0.0155558 -8.6875e-21)
(1.00005 0.0156528 1.72231e-21)
(1.00052 0.0157372 0)
(0.999633 -0.00146494 0)
(0.999197 -0.00123262 -8.22841e-21)
(0.99872 -0.0010172 0)
(0.998228 -0.000823483 8.20931e-21)
(0.997742 -0.000550551 4.11297e-21)
(0.997257 -0.000241361 -8.22183e-21)
(0.996784 9.76918e-05 1.22909e-20)
(0.996328 0.000469869 4.08163e-21)
(0.995894 0.000866652 -4.07798e-21)
(0.995481 0.00129351 0)
(0.995091 0.00174383 4.07859e-21)
(0.994726 0.00221762 -8.13617e-21)
(0.994385 0.002716 4.08915e-21)
(0.99407 0.00323132 -4.03929e-21)
(0.993782 0.0037676 2.80979e-23)
(0.99352 0.00431957 4.04409e-21)
(0.993287 0.00488515 -8.06256e-21)
(0.993081 0.005467 0)
(0.992903 0.00605683 3.99982e-21)
(0.992754 0.00665632 -3.9998e-21)
(0.992634 0.00726463 -9.90292e-22)
(0.992544 0.00787624 0)
(0.992483 0.00849174 9.93383e-22)
(0.992451 0.00910937 2.46234e-22)
(0.99245 0.0097252 -5.21934e-22)
(0.992478 0.0103386 7.32479e-22)
(0.992536 0.0109482 4.83019e-22)
(0.992623 0.0115505 -9.69888e-22)
(0.99274 0.0121445 0)
(0.992885 0.0127288 -1.91326e-21)
(0.993059 0.0133004 3.82846e-21)
(0.993261 0.0138584 0)
(0.993491 0.0144011 1.88299e-21)
(0.993749 0.0149259 0)
(0.994032 0.0154322 3.72744e-21)
(0.994341 0.0159184 -7.43362e-21)
(0.994676 0.0163822 3.68433e-21)
(0.995035 0.016823 -2.00499e-23)
(0.995418 0.0172394 3.62456e-21)
(0.995823 0.0176295 -3.64071e-21)
(0.996251 0.0179936 3.60369e-21)
(0.9967 0.0183292 7.17744e-21)
(0.997169 0.0186357 0)
(0.997658 0.0189132 0)
(0.998168 0.0191587 -7.03862e-21)
(0.998697 0.019374 -1.39811e-20)
(0.99925 0.0195547 1.38897e-20)
(0.999829 0.0197028 -7.76896e-21)
(1.00044 0.0198421 7.70726e-21)
(0.998965 -0.00324924 0)
(0.9984 -0.00297246 8.37133e-21)
(0.997771 -0.00264108 8.36257e-21)
(0.997132 -0.00225147 1.25349e-20)
(0.996493 -0.00186811 -1.25293e-20)
(0.995864 -0.00149664 -4.15528e-21)
(0.995256 -0.00105088 1.25151e-20)
(0.994674 -0.000556611 -4.14398e-21)
(0.99411 -3.24451e-05 4.14648e-21)
(0.993572 0.000529847 0)
(0.993064 0.00112152 8.31025e-21)
(0.992587 0.00174231 0)
(0.992142 0.00239339 -4.08972e-21)
(0.991731 0.00306545 -4.13192e-21)
(0.991354 0.00376344 4.96898e-23)
(0.991012 0.00448086 0)
(0.990706 0.00521515 4.08346e-21)
(0.990437 0.00596945 8.15374e-21)
(0.990205 0.00673387 0)
(0.990012 0.00751039 2.01447e-21)
(0.989856 0.00829776 -2.01383e-21)
(0.98974 0.00908948 -1.99949e-21)
(0.989663 0.00988604 2.01061e-21)
(0.989626 0.0106852 -4.04143e-24)
(0.989628 0.0114823 -4.95772e-22)
(0.989671 0.0122762 -2.1812e-22)
(0.989752 0.0130654 -4.91274e-22)
(0.989873 0.0138454 9.80944e-22)
(0.990034 0.0146147 0)
(0.990233 0.0153718 1.92665e-21)
(0.99047 0.0161128 -3.8389e-21)
(0.990745 0.0168364 0)
(0.991057 0.0175406 0)
(0.991405 0.0182219 3.76591e-21)
(0.991787 0.0188795 -7.51068e-21)
(0.992204 0.0195118 3.74283e-21)
(0.992654 0.0201155 3.71901e-21)
(0.993135 0.0206899 0)
(0.993647 0.0212336 1.09878e-20)
(0.994188 0.0217439 -7.27611e-21)
(0.994757 0.0222214 -3.61392e-21)
(0.995354 0.0226631 1.68774e-23)
(0.995975 0.0230683 -7.13751e-21)
(0.996622 0.0234374 -7.07992e-21)
(0.997293 0.0237667 -7.03317e-21)
(0.997989 0.0240586 4.54382e-24)
(0.998713 0.0243076 -9.93794e-24)
(0.999469 0.0245172 0)
(1.00027 0.0247231 -1.36673e-20)
(0.998015 -0.0057628 0)
(0.997294 -0.00539765 2.186e-21)
(0.996506 -0.00495778 -1.04661e-20)
(0.995689 -0.00447712 -8.37406e-21)
(0.994858 -0.00395803 8.36953e-21)
(0.994048 -0.00338844 4.25827e-21)
(0.993263 -0.00275786 -4.15855e-21)
(0.992504 -0.00212886 0)
(0.991777 -0.00148285 0)
(0.991087 -0.000757259 8.43651e-21)
(0.990431 9.08537e-06 -8.31631e-21)
(0.989814 0.000811576 4.17383e-21)
(0.989237 0.00165198 -4.17047e-21)
(0.988702 0.00251907 4.16738e-21)
(0.988212 0.00341858 4.1744e-21)
(0.987767 0.0043427 -4.14224e-21)
(0.987369 0.00528841 -4.10016e-21)
(0.987018 0.00625908 -4.08582e-21)
(0.986716 0.0072433 4.09285e-21)
(0.986464 0.0082432 -4.09189e-21)
(0.986263 0.00925688 0)
(0.986113 0.0102768 2.04146e-21)
(0.986015 0.0113032 -2.01002e-21)
(0.985969 0.0123331 1.50602e-21)
(0.985977 0.0133611 0)
(0.986037 0.0143851 9.95692e-22)
(0.98615 0.0154032 0)
(0.986315 0.0164101 -9.79577e-22)
(0.986533 0.0174034 1.7451e-23)