/*--------------------------------*- C++ -*----------------------------------*\
| =========                 |                                                 |
| \\      /  F ield         | OpenFOAM: The Open Source CFD Toolbox           |
|  \\    /   O peration     | Version:  2312                                  |
|   \\  /    A nd           | Website:  www.openfoam.com                      |
|    \\/     M anipulation  |                                                 |
\*---------------------------------------------------------------------------*/
FoamFile
{
    version     2.0;
    format      ascii;
    arch        "LSB;label=32;scalar=64";
    class       volScalarField;
    location    "500";
    object      magR;
}
// * * * * * * * * * * * * * * * * * * * * * * * * * * * * * * * * * * * * * //

dimensions      [0 2 -2 0 0 0 0];

internalField   nonuniform List<scalar> 
10720
(
0.0337504
0.0355193
0.0437635
0.0501698
0.0549084
0.0615057
0.0713331
0.084822
0.10358
0.130118
0.168759
0.229614
0.326753
0.492301
0.815469
1.4746
2.75302
5.89102
11.7234
19.3841
30.742
52.2171
100.133
200.142
354.59
499.841
1008.63
1652.93
1156.99
483.692
151.026
20.0754
4.0694
0.526341
1.17117e-15
1.15824e-15
0.000508904
0.0384866
0.663501
0.0411523
0.0366694
0.0262858
0.0250082
0.0143394
0.0232419
0.0261056
0.0270838
0.0298579
0.0337696
0.0401407
0.0504038
0.0666533
0.0963526
0.140688
0.243371
0.354829
0.907207
1.26354
1.58924
2.07319
3.12336
4.35172
6.14548
8.28375
10.5947
9.61544
5.81255
2.37452
0.631309
0.0728808
0.00407692
0.00102933
0.000420135
0.000161795
5.80956e-05
1.2619e-15
2.33545
174.7
0.00945156
0.0167722
0.020198
0.0146061
0.00971125
0.00724097
0.00610131
0.00540272
0.00495035
0.0046345
0.00445735
0.00427353
0.0052604
0.00902894
0.0194199
0.0471112
0.11264
0.297263
0.794626
1.88674
3.90697
7.33058
12.8712
22.6717
70.1848
112.884
327.065
662.385
557.152
336.727
159.445
58.2569
15.9711
2.32757
0.0460712
1.21798e-15
1.19042e-15
0.00886998
0.708444
0.00627482
0.000830814
0.00863989
0.0129765
0.0141931
0.0113888
0.00625524
0.00535206
0.00574122
0.00624368
0.00614051
0.00529467
0.00513599
0.00525077
0.00151846
0.042247
0.0620332
0.00697101
0.230624
0.284366
0.0393961
0.616796
0.0943713
0.143712
1.64966
0.0571446
0.0692714
0.0722514
0.043276
0.0338296
0.0204027
0.0100681
0.00444086
0.00178789
0.000679439
0.000241495
4.02641e-06
0.563412
39.1026
4.38221e-05
0.00324099
0.0033884
0.00342912
0.00355961
0.00368015
0.0038351
0.00401438
0.00419752
0.00438515
0.00456986
0.00476004
0.00496837
0.00481604
0.00576132
0.0113885
0.0224306
0.0559345
0.148392
0.360278
0.762602
1.46105
2.61646
5.15001
9.64486
23.0654
111.486
254.435
236.784
176.834
105.418
51.534
18.5923
3.86643
0.318695
0.0328067
1.27238e-15
0.00804434
0.55093
0.00791377
0.0149772
0.0161599
0.011802
0.00642516
0.00331791
0.00323782
0.00315367
0.00320524
0.000306688
0.00279496
0.00369637
0.00400575
0.00435147
0.00477977
0.00430378
0.00293747
0.000227278
9.13473e-05
0.000229768
0.008765
0.000382996
0.0197444
0.031854
0.000447546
0.013382
0.0162493
0.0169964
0.0104305
0.00841513
0.00536468
0.0028786
0.0015177
0.000858071
0.000481885
0.000679948
1.23889e-15
0.212404
14.2346
0.0142998
0.0139382
0.0141106
0.0146635
0.0147169
0.0144619
0.0146169
0.0147471
0.014869
0.0149938
0.0150722
0.0151379
0.0152368
0.0153288
0.0154051
0.0155125
0.0146195
0.0116669
0.00577606
0.0018091
2.36584e-15
3.3289e-15
4.36278e-14
0.00292546
0.0618694
0.000814345
0.000287355
0.000935467
0.00158457
0.00393878
0.0244329
0.494761
2.92103
2.62266
1.06855
0.144308
0.0461897
0.0314207
2.01901
0.0182197
0.0134236
0.00705089
0.00619149
0.00598299
0.00508806
0.00478513
0.00442925
0.00407402
0.00371537
0.00360593
0.00344306
0.00320456
0.00299038
0.00286539
0.00261764
0.00225465
0.000433349
0.00095561
0.0014852
0.0020618
0.0023293
0.00259924
0.00265401
0.00236761
0.00220258
0.0019739
0.00201715
0.00201349
0.00202939
0.00203273
0.00200393
0.00192529
0.00181674
0.00134322
0.002641
4.89736e-05
0.151676
10.0722
0.0169477
0.0158067
0.0154974
0.0152708
0.0150974
0.0149801
0.0149095
0.0148881
0.0149252
0.0150237
0.0151129
0.0153414
0.0157666
0.0160851
0.0163939
0.0168949
0.0175804
0.0183891
0.0187175
0.01156
0.00297354
0.00110926
2.22104e-15
2.64231e-15
0.0128098
0.000171562
6.15178e-05
0.000203273
0.000349106
0.000878931
0.00551693
0.112956
0.000672882
1.33484e-05
0.359406
0.326861
0.172409
0.034811
2.10176
0.0120172
0.0106574
0.00429853
0.00604214
0.010691
0.0119668
0.012427
0.0125315
0.0126777
0.0128391
0.0130102
0.0131955
0.0134034
0.0126027
0.01101
0.00971541
0.00857688
0.00764043
0.00693263
0.00640901
0.00601504
0.00614402
0.00578045
0.00495358
0.0047104
0.00451132
0.00434037
0.00419431
0.00406648
0.00395102
0.00381423
0.00364666
0.00348034
0.00339661
0.00282445
0.00357066
6.78841e-05
0.118016
7.70101
0.00984665
0.0145183
0.0109394
0.00863271
0.00661059
0.00495394
0.00376411
0.0029445
0.00244248
0.00221403
0.00220754
0.00233532
0.0026497
0.00314751
0.00373655
0.00443588
0.00513523
0.00615926
0.00781722
0.00910449
0.00954605
0.00444732
0.00120794
0.000615277
1.4502e-15
1.1547e-15
1.1547e-15
1.1547e-15
1.1547e-15
1.1547e-15
1.1547e-15
1.1547e-15
0.000154313
3.09556e-06
2.04255e-07
3.60085e-06
2.28969e-05
6.82254e-05
0.00413543
0.00486413
0.00458796
0.0129211
0.0178842
0.0186978
0.0191213
0.0192826
0.0194994
0.0197804
0.0201191
0.0204935
0.0209018
0.0213513
0.0194561
0.0178603
0.0165627
0.0151693
0.0140012
0.013187
0.0125433
0.0120128
0.0115546
0.0111954
0.0108252
0.0104446
0.0100841
0.00975812
0.0094587
0.00917449
0.00890332
0.0086458
0.00831893
0.00788196
0.00746963
0.00665977
0.00638715
0.000127187
0.0821653
5.19331
0.00311877
0.00307685
0.00311856
0.00298414
0.00296975
0.00298605
0.00296171
0.00296752
0.00297109
0.00296271
0.00296226
0.00295206
0.00294606
0.00295619
0.0029742
0.00301268
0.00307326
4.75105e-05
0.000616882
0.00185511
0.00371321
0.00525178
0.0054855
0.00338824
0.00161894
1.52491e-06
1.1547e-15
1.1547e-15
1.1547e-15
1.1547e-15
1.1547e-15
1.1547e-15
1.1547e-15
1.1547e-15
4.74888e-08
8.44374e-07
5.41153e-06
1.1547e-15
0.000990959
0.00405202
0.0215851
0.0253701
0.0254094
0.0205216
0.0150011
0.0144214
0.0140618
0.0136298
0.013215
0.0127587
0.012286
0.0118342
0.0114202
0.0110297
0.0107713
0.0104451
0.0100097
0.00957538
0.0091738
0.00880831
0.00847385
0.00816122
0.00786191
0.00757418
0.00730857
0.00707133
0.00685749
0.00666101
0.00647767
0.00631506
0.00619447
0.00608333
0.00594886
0.00574924
0.00633418
0.000132496
0.0484159
2.82021
0.0122799
0.0124696
0.0137901
0.0147557
0.0156208
0.01644
0.0170723
0.0174779
0.0176537
0.0176126
0.0173747
0.0169622
0.0164024
0.0157266
0.0149666
0.0141517
0.0132983
0.0122828
0.0116182
0.00974747
0.0076491
0.00720912
0.00728991
0.00685814
0.00715677
7.74055e-06
3.74901e-07
1.1547e-15
1.1547e-15
1.1547e-15
1.1547e-15
1.1547e-15
1.1547e-15
1.1547e-15
1.1547e-15
1.1547e-15
1.1547e-15
1.1547e-15
1.1547e-15
0.0250058
0.0258876
0.0154242
0.00598288
0.000490114
0.00183178
0.00175397
0.00173025
0.00170952
6.12516e-05
0.000378079
0.000706083
0.0010427
0.00138355
0.00174085
0.00207607
0.00222546
0.00224604
0.00220373
0.00213013
0.0020404
0.00194368
0.00184536
0.00175288
0.00167096
0.00159918
0.00153891
0.00148976
0.00145084
0.00141971
0.00139414
0.00140986
0.00152276
0.00171555
0.00189449
0.00305297
6.69478e-05
0.0196403
1.08357
0.0225555
0.02049
0.020492
0.0202952
0.0199911
0.019726
0.0194462
0.0190657
0.0186309
0.0181916
0.017727
0.0172125
0.0166588
0.0160902
0.0155156
0.0149473
0.0143905
0.0138134
0.0134456
0.0129334
0.0116877
0.0102933
0.00940142
0.00813708
0.00963297
2.28302e-05
1.14888e-06
1.1547e-15
1.1547e-15
1.1547e-15
1.1547e-15
1.1547e-15
1.1547e-15
1.1547e-15
1.1547e-15
1.1547e-15
1.1547e-15
1.1547e-15
1.1547e-15
0.0180667
0.00650298
0.00255616
0.00089386
0.000630676
0.000609797
0.000590986
0.000556831
0.000520916
0.000493721
0.000497167
0.000505467
0.000524746
0.000551216
0.000587064
0.000627829
0.000646417
0.000649859
0.000645879
0.000638226
0.000628426
0.000617526
0.000605969
0.000594485
0.000583518
0.000573448
0.000565047
0.000558304
0.000552996
0.000548576
0.00054423
0.000547521
0.000562311
0.000587843
0.000632185
0.000840833
0.000131908
0.00455354
0.237583
0.00984436
0.00953779
0.00849458
0.0075826
0.00692405
0.00648977
0.00613963
0.00581184
0.0055535
0.00543505
0.00538438
0.00532771
0.00531276
0.00538167
0.00550817
0.00569307
0.00589038
0.00611282
0.00672942
0.00758161
0.00809114
0.00814743
0.00810368
0.00737703
0.0087775
4.6349e-05
2.42171e-06
1.1547e-15
1.1547e-15
1.1547e-15
1.1547e-15
1.1547e-15
1.1547e-15
1.1547e-15
1.1547e-15
1.1547e-15
1.1547e-15
1.1547e-15
1.1547e-15
0.00184968
0.000941161
0.000947005
0.00139668
0.00370038
0.00382715
0.00367017
0.00348997
0.00329713
0.00309478
0.00288699
0.00267751
0.00249132
0.00231991
0.00215785
0.00201083
0.0018806
0.0017699
0.00167659
0.0015981
0.00153169
0.00147482
0.00142468
0.00137991
0.00133953
0.00130248
0.00126846
0.00123682
0.00120653
0.00117676
0.00114551
0.00111046
0.00102914
0.00091439
0.000900489
0.000598082
0.000593627
0.000259153
0.00681909
0.00107513
0.000122371
0.00101942
0.000878327
0.000820777
0.00082887
0.000842252
0.000861345
0.000880225
0.00090518
0.000938873
0.000966177
0.000994638
0.001035
0.00108138
0.00116863
0.00120742
0.00121844
0.00139639
0.000723605
0.00187888
0.00294114
0.00390982
0.00420619
0.00611933
7.59197e-05
4.11655e-06
1.1547e-15
1.1547e-15
1.1547e-15
1.1547e-15
1.1547e-15
1.1547e-15
1.1547e-15
1.1547e-15
1.1547e-15
1.1547e-15
1.1547e-15
1.1547e-15
0.000531902
0.000134487
0.00525597
0.00798285
0.00869836
0.00849057
0.00822867
0.00795338
0.00766655
0.00737152
0.00706826
0.00675426
0.00645158
0.00615252
0.00585089
0.00556056
0.00529471
0.00505356
0.00483659
0.00464188
0.00446662
0.00430694
0.00415999
0.00402416
0.00389819
0.00378169
0.00367455
0.00357528
0.00348164
0.0033912
0.00330245
0.00321571
0.00309169
0.00291991
0.00270823
0.00247555
0.00214082
0.000488331
0.00161698
0.000853036
0.000581916
0.000670986
0.000720822
0.000813875
0.000264256
0.00062324
0.000933856
0.00118108
0.00136924
0.00151494
0.00161294
0.00166949
0.00170195
0.00170819
0.00189146
0.00174863
0.00140516
0.00128883
0.00112207
0.00118498
0.0015313
0.00211754
0.00232636
0.00408182
0.000127766
7.18435e-06
1.1547e-15
1.1547e-15
1.1547e-15
1.1547e-15
1.1547e-15
1.1547e-15
1.1547e-15
1.1547e-15
1.1547e-15
1.1547e-15
1.1547e-15
1.1547e-15
0.00237948
0.00672713
0.00797173
0.00617726
0.0052605
0.00513428
0.00501737
0.0049071
0.00480344
0.00470529
0.00460061
0.00448014
0.00435198
0.0042195
0.00407243
0.00392531
0.00378149
0.00364326
0.00351173
0.00338746
0.00327003
0.00315907
0.00305425
0.00295619
0.00286528
0.00278125
0.00270398
0.00263275
0.00256646
0.00250349
0.00244344
0.00239401
0.00236449
0.00233553
0.00229962
0.00222352
0.00211024
0.00192009
0.000234494
0.00402327
0.00410664
0.00452564
0.00500667
0.00535168
0.00570664
0.00600397
0.00621779
0.00635866
0.00643859
0.00647247
0.00646976
0.00643177
0.00636048
0.00625842
0.00612448
0.00598391
0.00581854
0.00561864
0.00542836
0.00474505
0.0038495
0.00348786
0.00299044
0.00385307
0.000289739
1.68851e-05
1.1547e-15
1.1547e-15
1.1547e-15
1.1547e-15
1.1547e-15
1.1547e-15
1.1547e-15
1.1547e-15
1.1547e-15
1.1547e-15
1.1547e-15
1.1547e-15
0.00688346
0.00631234
0.0031529
0.00108848
0.000542576
0.00053535
0.000552786
0.000565396
0.000583746
0.000610578
0.000625267
0.000633866
0.000632606
0.000630224
0.000627333
0.00062348
0.000617746
0.000609881
0.000599673
0.000587296
0.000572949
0.000557317
0.00054113
0.000525878
0.000512485
0.000500559
0.000490078
0.000481073
0.000473534
0.000467283
0.000461131
0.00045649
0.000484478
0.000565191
0.000676893
0.000823302
0.000978579
0.00119466
0.000798902
0.00590678
0.00509533
0.00484199
0.0047673
0.00468625
0.00463166
0.00461667
0.00459775
0.0045836
0.00458738
0.00460724
0.00464005
0.00468032
0.00472542
0.00477421
0.00482713
0.00488065
0.00492371
0.00497752
0.00501162
0.0049791
0.00477246
0.0043693
0.00371692
0.00402152
0.000657074
3.56502e-10
2.01513e-11
1.1547e-15
1.1547e-15
1.1547e-15
1.1547e-15
1.1547e-15
1.1547e-15
1.1547e-15
1.1547e-15
1.1547e-15
1.1547e-15
1.1547e-15
0.00429261
0.0012493
0.000555528
0.000180774
0.000131394
0.000134699
0.000138206
0.000137114
0.000136251
0.000137035
0.000134963
0.000132425
0.000130045
0.000128109
0.000127055
0.000126975
0.000127239
0.000127807
0.000128469
0.000129072
0.000129463
0.000129697
0.000129805
0.000129833
0.000129701
0.000129501
0.000129435
0.000129526
0.000129786
0.000130177
0.000130426
0.000130627
0.000136136
0.00014968
0.00017704
0.000196965
0.000229409
0.000236608
0.000441138
0.00200928
0.00176812
0.0014001
0.00119314
0.00101335
0.000857005
0.000761944
0.000699849
0.000665857
0.000670393
0.000704998
0.000760592
0.000833618
0.000922307
0.0010317
0.00116368
0.00129953
0.00144447
0.00159145
0.0018243
0.00226111
0.00269335
0.00295935
0.00292569
0.00331541
0.00111091
4.20724e-09
2.46494e-10
1.1547e-15
1.1547e-15
1.1547e-15
1.1547e-15
1.1547e-15
1.1547e-15
1.1547e-15
1.1547e-15
1.1547e-15
1.1547e-15
1.1547e-15
6.00421e-05
0.000207301
0.000306191
0.000259188
0.000381947
0.000384205
0.000382011
0.000372972
0.000360203
0.000346557
0.000331662
0.000315812
0.000300638
0.00028632
0.000272587
0.000259961
0.00024835
0.000237662
0.000227937
0.000219121
0.000211118
0.000203871
0.000197429
0.000191927
0.000187198
0.000182823
0.000178828
0.000175214
0.000171924
0.000168867
0.000165836
0.000161779
0.000149833
0.000120789
0.000123449
5.25025e-05
0.000182332
0.000206167
0.000196603
0.000244469
0.000219206
0.000214464
0.000218276
0.000226499
0.000235751
0.000238439
0.000242836
0.000246794
0.000251635
0.000260856
0.000272229
0.000285847
0.000303841
0.000323193
0.000344235
0.00036861
0.00039662
0.000426047
0.000484893
0.000557689
0.000218318
0.000731435
0.00113503
0.00168371
0.00113551
1.55867e-08
9.46003e-10
1.1547e-15
1.1547e-15
1.1547e-15
1.1547e-15
1.1547e-15
1.1547e-15
1.1547e-15
1.1547e-15
1.1547e-15
1.1547e-15
1.15705e-15
0.000223494
0.000372529
0.00184869
0.0024249
0.00241777
0.00237403
0.0023279
0.00228393
0.002241
0.00219899
0.00215792
0.00211733
0.00207705
0.00203663
0.00199559
0.00195383
0.00191133
0.00186814
0.00182456
0.00178086
0.00173741
0.00169447
0.00165232
0.00161139
0.00157212
0.00153452
0.00149862
0.00146439
0.00143162
0.00139987
0.0013687
0.00133788
0.00130419
0.00123911
0.00114101
0.00100471
0.000839853
0.000675426
0.000549956
0.000410033
0.000290638
0.000193747
0.000455028
0.000649405
0.000824802
0.000944642
0.00102533
0.00107761
0.00110948
0.00112909
0.00114025
0.00114459
0.00115203
0.00114152
0.00111123
0.00108984
0.00107396
0.00105644
0.00112452
0.000950911
0.000687852
0.000692495
0.000809623
0.00101173
0.00106006
5.16449e-08
3.24486e-09
1.1547e-15
1.1547e-15
1.1547e-15
1.1547e-15
1.1547e-15
1.1547e-15
1.1547e-15
1.1547e-15
1.1547e-15
1.15475e-15
1.15868e-15
0.0012697
0.00249005
0.00248745
0.00224514
0.00217654
0.00212786
0.00208431
0.00204911
0.00201907
0.00199172
0.00196684
0.00194354
0.00192054
0.00189715
0.00187291
0.00184728
0.00182005
0.0017912
0.00176074
0.00172883
0.0016957
0.00166169
0.00162699
0.00159216
0.00155788
0.00152454
0.00149219
0.00146086
0.0014305
0.0014008
0.00137167
0.00134316
0.00132232
0.0013006
0.0012652
0.00121153
0.00112707
0.000976823
0.000791974
0.00187313
0.00193779
0.00209826
0.00228059
0.00241745
0.00252847
0.00259761
0.00263139
0.00264844
0.00265736
0.00266265
0.0026662
0.00266596
0.00270687
0.00268254
0.00255064
0.00253865
0.00258074
0.00254853
0.00250731
0.00236615
0.00220092
0.00187189
0.00152712
0.00132584
0.00123876
1.88113e-07
1.22272e-08
1.1547e-15
1.1547e-15
1.1547e-15
1.1547e-15
1.1547e-15
1.1547e-15
1.1547e-15
1.1547e-15
1.1547e-15
1.15476e-15
1.1547e-15
0.00253616
0.00182162
0.000799708
0.000585258
0.000556096
0.000543805
0.000532795
0.000523386
0.000516696
0.000511998
0.000508348
0.000505607
0.000503494
0.000501699
0.000499967
0.000498127
0.000495948
0.000493379
0.000490278
0.000486605
0.000482321
0.000477535
0.000472322
0.000466873
0.000461328
0.000455718
0.000450014
0.000444232
0.000438405
0.000432519
0.000427979
0.000421713
0.000420577
0.000455121
0.000500143
0.000547922
0.000618387
0.000670183
0.000655047
0.00209582
0.00183586
0.00173994
0.00169098
0.00163433
0.00160478
0.00159045
0.00156847
0.00155161
0.00154515
0.00154744
0.00155607
0.00156877
0.00158375
0.00160832
0.00163321
0.00165204
0.00167179
0.00169191
0.00173011
0.00180062
0.00183206
0.0018042
0.001735
0.00151866
0.00137184
6.05539e-07
4.06914e-08
1.1547e-15
1.1547e-15
1.1547e-15
1.1547e-15
1.1547e-15
1.1547e-15
1.1547e-15
1.1547e-15
1.1547e-15
1.1547e-15
1.15481e-15
0.00116023
0.000111575
0.000125649
8.30711e-05
8.06104e-05
8.10667e-05
8.00884e-05
7.75497e-05
7.53402e-05
7.36925e-05
7.14095e-05
6.93837e-05
6.81817e-05
6.72394e-05
6.68633e-05
6.71906e-05
6.78892e-05
6.90267e-05
7.04988e-05
7.22114e-05
7.40349e-05
7.59629e-05
7.79451e-05
7.97306e-05
8.10217e-05
8.20536e-05
8.29853e-05
8.38104e-05
8.45271e-05
8.51269e-05
8.58902e-05
8.62037e-05
8.74761e-05
9.62194e-05
0.000107379
0.000121507
6.00613e-05
0.000204473
0.000331509
0.000544583
0.000519813
0.000340769
0.000219582
0.00013236
7.56292e-05
5.21313e-05
3.62051e-05
2.31041e-05
1.94283e-05
2.31904e-05
3.10368e-05
4.21692e-05
5.64632e-05
7.41413e-05
9.5026e-05
0.000120082
0.00014966
0.000182445
0.000223181
0.000321311
0.000495777
0.00071982
0.000926746
0.000985739
0.00114749
1.53504e-06
1.06566e-07
1.1547e-15
1.1547e-15
1.1547e-15
1.1547e-15
1.1547e-15
1.1547e-15
1.1547e-15
1.1547e-15
1.1547e-15
1.47373e-15
1.15491e-15
0.000211803
5.05303e-05
0.000122122
0.000124087
0.000125419
0.000126951
0.000125825
0.000121841
0.000117741
0.000114124
0.000109305
0.000104718
0.000101368
9.83534e-05
9.62075e-05
9.51453e-05
9.46889e-05
9.49282e-05
9.57283e-05
9.69421e-05
9.83804e-05
0.000100039
0.000101815
0.000103303
0.000104056
0.000104436
0.00010474
0.000104962
0.000105102
0.00010514
0.000105506
0.000105535
0.000105123
0.000101424
9.28921e-05
8.03674e-05
8.09095e-05
9.46997e-05
6.14718e-05
7.12704e-05
7.36557e-05
6.91198e-05
6.26915e-05
6.07757e-05
6.11659e-05
6.23627e-05
6.44791e-05
6.61352e-05
6.78392e-05
7.06312e-05
7.36384e-05
7.68339e-05
8.05648e-05
8.46577e-05
8.92026e-05
9.43676e-05
0.000100196
0.000106504
0.000113922
0.000127697
0.000152569
0.000180013
6.54219e-05
0.000224264
0.00061081
2.79212e-06
2.00096e-07
1.1547e-15
1.1547e-15
1.1547e-15
1.1547e-15
1.1547e-15
1.1547e-15
1.1547e-15
1.1547e-15
1.1547e-15
1.15476e-15
1.15471e-15
0.000122716
0.000262304
0.000804378
0.00081572
0.000809747
0.000799468
0.000788964
0.000779189
0.000769684
0.000760628
0.000752388
0.000744528
0.000736888
0.000729424
0.000721888
0.000714132
0.00070607
0.000697565
0.000688545
0.000678949
0.000668755
0.000657975
0.000646658
0.000635038
0.000623403
0.00061183
0.000600331
0.000588951
0.000577717
0.000566605
0.000557908
0.000548054
0.000536576
0.000509269
0.00045921
0.000391426
0.000325335
0.000224121
0.000171708
0.000212155
3.30719e-05
0.000138986
0.000228055
0.000292605
0.000343286
0.000380707
0.000411241
0.000436076
0.000455389
0.000471035
0.000483677
0.000493534
0.000500976
0.000506212
0.000509336
0.000510634
0.000510087
0.000507859
0.000503354
0.000480379
0.000447509
0.000341262
0.000252367
0.000224698
0.000455666
7.72961e-06
5.71516e-07
1.1547e-15
1.1547e-15
1.1547e-15
1.1547e-15
1.1547e-15
1.1547e-15
1.1547e-15
1.1547e-15
1.1547e-15
1.15471e-15
1.15473e-15
0.00067902
0.00114514
0.00124272
0.00118903
0.00117022
0.00115305
0.00113757
0.00112474
0.00111358
0.00110347
0.00109453
0.0010864
0.00107872
0.00107131
0.00106393
0.00105631
0.00104831
0.00103977
0.00103051
0.00102042
0.0010094
0.000997401
0.000984351
0.000970389
0.000955851
0.000940909
0.000925599
0.000910017
0.000894248
0.000878343
0.00086219
0.000845632
0.000830768
0.000813458
0.00077894
0.000731112
0.000661194
0.000530662
0.000410179
0.000943253
0.000940057
0.00101115
0.00108629
0.00113442
0.00116801
0.00119295
0.00121168
0.00122675
0.00123831
0.00124679
0.00125281
0.00125657
0.00125841
0.00125851
0.001257
0.00125402
0.00124924
0.00124216
0.00123282
0.00121888
0.00115752
0.00104319
0.000936642
0.00074519
0.000700319
3.74573e-05
2.88472e-06
1.1547e-15
1.1547e-15
1.1547e-15
1.1547e-15
1.1547e-15
1.1547e-15
1.1547e-15
1.1547e-15
1.1547e-15
1.1547e-15
1.1547e-15
0.00118549
0.00089452
0.000567299
0.000506155
0.000493121
0.000486132
0.000480335
0.000475835
0.000472403
0.00046951
0.000467108
0.000465188
0.000463521
0.000461978
0.000460496
0.000458912
0.000457155
0.000455151
0.000452796
0.000450041
0.000446839
0.000443147
0.000438954
0.000434323
0.00042934
0.000424085
0.000418642
0.00041293
0.000407059
0.000401027
0.000394791
0.000388223
0.000382865
0.000387164
0.000404416
0.000428525
0.000447365
0.000444731
0.000409614
0.00100306
0.000916224
0.000884217
0.000874525
0.000850116
0.000821311
0.000799364
0.000780033
0.000764002
0.000751738
0.000742226
0.000735647
0.000731888
0.000730278
0.000730365
0.00073176
0.000734199
0.000737447
0.000741293
0.000745867
0.000762709
0.000800097
0.000818545
0.000829252
0.000780676
0.000779406
0.000123519
1.71039e-07
1.27481e-08
1.1547e-15
1.1547e-15
1.1547e-15
1.1547e-15
1.1547e-15
1.1547e-15
1.1547e-15
1.1547e-15
1.1547e-15
1.1547e-15
0.000520092
0.000118419
9.77456e-05
7.57883e-05
7.51962e-05
7.60177e-05
7.54711e-05
7.33057e-05
7.11767e-05
6.93287e-05
6.66383e-05
6.40196e-05
6.21351e-05
6.0386e-05
5.91827e-05
5.87326e-05
5.87103e-05
5.92408e-05
6.0239e-05
6.162e-05
6.32775e-05
6.51765e-05
6.72619e-05
6.9147e-05
7.04238e-05
7.13717e-05
7.22583e-05
7.30493e-05
7.3746e-05
7.43402e-05
7.48179e-05
7.51395e-05
7.56097e-05
7.79494e-05
8.40008e-05
2.23058e-05
9.16427e-05
0.000176815
0.000231392
0.000247218
0.000258693
0.000190256
0.000148798
0.000117454
8.83944e-05
6.46409e-05
4.55811e-05
3.01163e-05
1.81862e-05
9.46432e-06
3.90568e-06
1.51987e-06
1.52736e-06
3.36782e-06
6.75489e-06
1.16003e-05
1.7941e-05
2.58096e-05
3.38527e-05
4.61475e-05
0.000101219
0.000188403
0.000297855
0.000385856
0.000498322
0.000219716
1.85034e-06
1.42215e-07
1.1547e-15
1.1547e-15
1.1547e-15
1.1547e-15
1.1547e-15
1.1547e-15
1.1547e-15
1.1547e-15
1.1547e-15
1.1547e-15
9.80075e-05
2.71839e-05
3.67255e-05
3.55096e-05
3.57496e-05
3.58878e-05
3.51827e-05
3.36374e-05
3.21052e-05
3.07888e-05
2.9127e-05
2.75162e-05
2.62799e-05
2.51411e-05
2.42654e-05
2.37489e-05
2.34444e-05
2.33999e-05
2.35872e-05
2.39646e-05
2.44873e-05
2.51391e-05
2.59076e-05
2.66208e-05
2.70682e-05
2.73688e-05
2.76442e-05
2.78942e-05
2.8116e-05
2.83031e-05
2.84546e-05
2.85647e-05
2.85644e-05
2.7972e-05
2.51233e-05
2.50728e-05
3.44812e-05
4.78264e-05
4.48627e-05
3.39642e-05
3.59979e-05
3.0082e-05
2.48493e-05
2.22737e-05
2.03989e-05
1.85418e-05
1.75931e-05
1.70635e-05
1.66905e-05
1.65771e-05
1.66156e-05
1.69136e-05
1.75029e-05
1.82753e-05
1.92379e-05
2.03772e-05
2.17041e-05
2.32216e-05
2.47162e-05
2.66678e-05
3.30827e-05
4.49843e-05
5.58977e-05
7.49172e-05
0.00011397
0.000171707
7.09357e-06
5.61782e-07
1.1547e-15
1.1547e-15
1.1547e-15
1.1547e-15
1.1547e-15
1.1547e-15
1.1547e-15
1.1547e-15
1.1547e-15
1.15471e-15
5.7827e-05
7.94805e-05
0.000239951
0.000231864
0.000229534
0.000224997
0.000219939
0.000214994
0.000210459
0.000206623
0.00020325
0.000200134
0.000197392
0.00019494
0.000192653
0.000190546
0.000188596
0.000186718
0.000184907
0.000183119
0.000181329
0.000179487
0.000177595
0.000175693
0.000173695
0.000171535
0.000169246
0.000166879
0.000164446
0.000161947
0.000159384
0.000156736
0.00015365
0.000147602
0.000130135
0.000104104
7.60433e-05
4.04088e-05
4.64403e-05
0.000117413
7.92036e-05
1.20661e-05
2.54381e-05
3.70866e-05
5.12644e-05
6.46651e-05
7.75649e-05
8.98605e-05
0.000100635
0.000108932
0.000115099
0.000119793
0.000123478
0.000126425
0.000128676
0.000130328
0.000131381
0.000131865
0.000131706
0.000130147
0.000114652
0.000101403
5.79107e-05
1.90866e-05
3.0442e-05
0.000117784
2.30124e-05
2.26788e-06
1.1547e-15
1.1547e-15
1.1547e-15
1.1547e-15
1.1547e-15
1.1547e-15
1.1547e-15
1.1547e-15
1.1547e-15
1.1547e-15
0.00035528
0.000593074
0.000663891
0.00063865
0.000627633
0.000617758
0.000608206
0.000599986
0.000592954
0.000586978
0.000581896
0.000577381
0.000573377
0.000569736
0.000566246
0.000562892
0.000559588
0.000556208
0.000552692
0.000548956
0.000544913
0.00054047
0.000535578
0.000530253
0.000524474
0.000518212
0.000511558
0.00050459
0.000497335
0.000489791
0.000481945
0.000473792
0.000465305
0.000456467
0.000436346
0.000403201
0.000353002
0.000293256
0.000215789
0.000556949
0.00055247
0.000571463
0.000580568
0.000582268
0.000586045
0.000590713
0.000595466
0.000600871
0.000606949
0.000611521
0.00061478
0.000617518
0.000619754
0.000621341
0.000622161
0.000622157
0.000621221
0.000619233
0.000616188
0.000612607
0.000595412
0.00055376
0.000488869
0.000414896
0.000348215
0.000289952
0.000114052
2.33972e-06
1.87003e-07
1.1547e-15
1.1547e-15
1.1547e-15
1.1547e-15
1.1547e-15
1.1547e-15
1.1547e-15
1.1547e-15
1.1547e-15
0.00072598
0.000573824
0.000449801
0.000438196
0.000428594
0.000423698
0.000419783
0.000416806
0.000414479
0.00041241
0.000410706
0.00040933
0.000408037
0.000406811
0.000405624
0.000404358
0.000402983
0.000401477
0.000399741
0.000397759
0.000395454
0.000392764
0.00038964
0.000386016
0.000382027
0.000377779
0.000373269
0.000368483
0.000363462
0.000358198
0.000352716
0.000346956
0.000340879
0.000337639
0.000339762
0.000340321
0.000332993
0.000311596
0.000265746
0.00067751
0.000626161
0.00060731
0.000590927
0.000576174
0.000566618
0.000560515
0.000555544
0.000552091
0.000550867
0.000548814
0.000545793
0.000543771
0.000542133
0.00054054
0.000538947
0.000537349
0.000535735
0.000534075
0.000532343
0.00053343
0.000540313
0.000542397
0.000530034
0.000507128
0.000468222
0.000401311
0.000269716
1.94598e-05
1.64534e-06
1.1547e-15
1.1547e-15
1.1547e-15
1.1547e-15
1.1547e-15
1.1547e-15
1.1547e-15
1.1547e-15
1.1547e-15
0.000412152
0.000147717
4.49076e-05
4.77542e-05
4.63344e-05
4.75122e-05
4.89316e-05
4.96286e-05
5.00449e-05
5.0267e-05
5.01903e-05
4.99579e-05
4.96749e-05
4.93474e-05
4.90404e-05
4.87391e-05
4.84658e-05
4.82164e-05
4.80184e-05
4.78682e-05
4.77938e-05
4.78025e-05
4.79118e-05
4.80899e-05
4.82954e-05
4.84943e-05
4.86728e-05
4.87893e-05
4.88363e-05
4.87997e-05
4.86515e-05
4.83991e-05
4.76707e-05
4.78771e-05
6.09172e-05
8.60285e-05
0.000121309
0.000157244
0.000170888
0.000199145
0.00018503
0.000136274
0.00013997
0.000143994
0.000142688
0.000138824
0.000134266
0.000130104
0.000126459
0.000123651
0.000121128
0.000118996
0.000117228
0.000115804
0.000114804
0.000114342
0.00011451
0.00011533
0.000116596
0.000118932
0.000133649
0.000169871
0.000213183
0.000257587
0.000293473
0.000303994
0.000290192
6.49603e-05
2.62351e-07
2.11838e-08
1.1547e-15
1.1547e-15
1.1547e-15
1.1547e-15
1.1547e-15
1.1547e-15
1.1547e-15
1.1547e-15
7.92689e-05
2.0779e-05
6.96534e-06
7.40897e-06
7.30788e-06
7.67133e-06
7.92106e-06
7.85202e-06
7.71037e-06
7.55019e-06
7.22386e-06
6.8624e-06
6.5651e-06
6.26554e-06
6.02553e-06
5.87599e-06
5.78203e-06
5.76383e-06
5.82036e-06
5.94597e-06
6.1326e-06
6.38445e-06
6.70127e-06
7.02313e-06
7.27457e-06
7.49038e-06
7.7113e-06
7.92856e-06
8.13932e-06
8.33771e-06
8.51642e-06
8.67602e-06
8.74617e-06
8.98482e-06
1.16874e-05
1.68653e-05
2.44496e-05
3.20234e-06
5.09712e-05
2.81602e-05
2.64725e-05
2.08047e-05
2.04369e-05
2.11918e-05
2.12139e-05
2.01737e-05
1.9357e-05
1.8593e-05
1.77646e-05
1.72443e-05
1.67757e-05
1.63938e-05
1.61627e-05
1.60058e-05
1.59608e-05
1.60227e-05
1.62025e-05
1.64945e-05
1.68589e-05
1.73727e-05
1.96738e-05
2.51526e-05
3.16381e-05
4.41057e-05
5.52697e-05
0.000107643
0.000166217
0.000103561
3.75695e-06
3.12434e-07
1.1547e-15
1.1547e-15
1.1547e-15
1.1547e-15
1.1547e-15
1.1547e-15
1.1547e-15
1.1547e-15
1.62987e-05
3.97876e-05
4.85525e-05
4.61127e-05
4.64771e-05
4.7086e-05
4.6463e-05
4.46357e-05
4.27416e-05
4.10373e-05
3.87739e-05
3.65029e-05
3.46754e-05
3.28903e-05
3.14272e-05
3.04652e-05
2.97875e-05
2.95169e-05
2.96201e-05
3.00641e-05
3.07775e-05
3.17623e-05
3.29945e-05
3.41423e-05
3.48183e-05
3.52597e-05
3.56954e-05
3.61184e-05
3.65216e-05
3.68892e-05
3.72177e-05
3.75076e-05
3.77528e-05
3.79791e-05
3.71957e-05
3.46602e-05
3.00116e-05
2.5499e-05
2.86453e-05
4.36637e-05
2.88264e-05
3.23843e-05
3.14492e-05
3.28745e-05
3.44053e-05
3.46754e-05
3.53082e-05
3.5775e-05
3.57718e-05
3.59844e-05
3.60946e-05
3.61474e-05
3.63412e-05
3.6515e-05
3.67397e-05
3.69765e-05
3.72143e-05
3.74152e-05
3.75626e-05
3.76126e-05
3.73986e-05
3.48734e-05
3.04655e-05
2.56015e-05
3.01993e-05
3.65709e-05
3.20645e-05
7.54058e-05
1.3487e-05
1.48804e-06
1.1547e-15
1.1547e-15
1.1547e-15
1.1547e-15
1.1547e-15
1.1547e-15
1.1547e-15
1.1547e-15
0.00011682
0.000283023
0.000313195
0.000297635
0.000295293
0.000292405
0.000288024
0.000283485
0.000279235
0.000275511
0.000272406
0.00026971
0.000267341
0.000265261
0.000263349
0.000261557
0.000259846
0.000258149
0.000256434
0.000254657
0.000252776
0.000250744
0.000248532
0.00024617
0.000243687
0.000241058
0.000238295
0.000235405
0.000232381
0.00022922
0.000225913
0.00022246
0.000218872
0.000215315
0.000206268
0.000188043
0.000159382
0.00012914
9.35098e-05
0.000218912
0.000201943
0.00021251
0.000215938
0.000223982
0.000232089
0.000239503
0.000245991
0.000251656
0.000256317
0.00026006
0.000263031
0.00026528
0.000266904
0.000267978
0.000268545
0.000268635
0.000268264
0.000267431
0.000266151
0.000264479
0.000261791
0.000243598
0.000213282
0.000178295
0.000149388
0.000112338
8.08498e-05
9.46665e-05
4.96658e-05
2.04251e-06
2.00601e-07
1.1547e-15
1.1547e-15
1.1547e-15
1.1547e-15
1.1547e-15
1.1547e-15
1.1547e-15
0.000427229
0.000397015
0.000371297
0.000356485
0.000349309
0.000345109
0.000340376
0.000335929
0.000332056
0.000328711
0.000325954
0.000323631
0.000321596
0.000319813
0.000318195
0.000316668
0.0003152
0.000313747
0.00031226
0.000310696
0.000309011
0.000307145
0.000305023
0.000302624
0.000300009
0.000297194
0.000294157
0.000290892
0.000287404
0.000283703
0.000279779
0.00027564
0.000271364
0.000267888
0.000263863
0.000254606
0.000240633
0.000215675
0.00017495
0.000442182
0.000404004
0.000396974
0.000394469
0.000391738
0.000389024
0.000387675
0.00038662
0.000385648
0.000384587
0.000383247
0.000381779
0.000380205
0.000378514