/*--------------------------------*- C++ -*----------------------------------*\
| =========                 |                                                 |
| \\      /  F ield         | OpenFOAM: The Open Source CFD Toolbox           |
|  \\    /   O peration     | Version:  2312                                  |
|   \\  /    A nd           | Website:  www.openfoam.com                      |
|    \\/     M anipulation  |                                                 |
\*---------------------------------------------------------------------------*/
FoamFile
{
    version     2.0;
    format      ascii;
    arch        "LSB;label=32;scalar=64";
    class       surfaceScalarField;
    location    "500";
    object      phi;
}
// * * * * * * * * * * * * * * * * * * * * * * * * * * * * * * * * * * * * * //

dimensions      [0 3 -1 0 0 0 0];

oriented        oriented;

internalField   nonuniform List<scalar> 
21254
(
-0.220327
0.240228
-0.0199005
0.262473
-0.0222495
0.281892
-0.019419
0.299373
-0.0174837
0.31596
-0.0165912
0.329415
-0.013459
0.34019
-0.0107801
0.349007
-0.00882081
0.354927
-0.00592527
0.358913
-0.00399119
0.361149
-0.00224117
0.361286
-0.000141322
0.359354
0.00192649
0.355095
0.00425386
0.348253
0.00683642
0.33889
0.0093575
0.326653
0.0122329
0.311604
0.0150467
0.293917
0.0176862
0.274886
0.0190315
0.256487
0.0184023
0.243607
0.0128843
0.241426
0.00218555
0.253237
-0.0118206
0.271962
-0.0187168
0.286669
-0.0147128
0.291261
-0.00459234
0.287429
0.00383374
0.281002
0.00643549
0.272097
0.00891998
0.258011
0.0140921
0.234912
0.0230592
0.193388
0.0418526
0.123105
0.0709515
0.0381089
0.0832495
0.0207477
0.014929
-0.0189791
0.0446753
0.0197754
-0.0415829
0.0903853
-0.0647896
-0.197145
-0.0231888
-0.173027
-0.0241187
-0.143638
-0.0293905
-0.111575
-0.0320652
-0.0779264
-0.0336501
-0.0433945
-0.034532
-0.00972931
-0.0336652
0.0213892
-0.0311118
0.0498465
-0.0284445
0.0747794
-0.0249238
0.096087
-0.0212985
0.114095
-0.0179979
0.129144
-0.0150388
0.141626
-0.0124692
0.152275
-0.010635
0.161401
-0.00910982
0.169471
-0.00805238
0.176704
-0.00721357
0.183421
-0.00669807
0.18973
-0.00629011
0.195799
-0.00605008
0.201652
-0.00583554
0.207117
-0.00545373
0.211558
-0.00442663
0.21476
-0.00318993
0.217003
-0.00223184
0.218278
-0.00126828
0.218483
-0.000200655
0.217227
0.00125726
0.21438
0.00284587
0.209872
0.00450695
0.203708
0.00616444
0.19585
0.00786462
0.186127
0.00974373
0.174194
0.0119699
0.159921
0.0143001
0.145296
0.0145807
0.156577
-0.0114226
0.181743
-0.0253042
-0.200662
0.222159
-0.0414018
0.244206
-0.0443028
0.267321
-0.0425373
0.288972
-0.0391408
0.31019
-0.0378158
0.330011
-0.0332871
0.348014
-0.0287911
0.364474
-0.0252897
0.379018
-0.020479
0.391728
-0.0167119
0.402656
-0.01318
0.412132
-0.00962919
0.420697
-0.00665202
0.428603
-0.00366551
0.43572
-0.000294341
0.441654
0.00340957
0.446137
0.00773763
0.448938
0.0122348
0.449044
0.0175698
0.446017
0.0220481
0.438618
0.0257923
0.425934
0.0255642
0.406165
0.0219604
0.378505
0.0158785
0.350658
0.00914524
0.331502
0.00446805
0.319772
0.0071563
0.31079
0.0128281
0.301826
0.0153972
0.292791
0.0179362
0.284364
0.0227562
0.277732
0.0301725
0.269875
0.0488542
0.243158
0.097105
0.170282
0.158408
0.0487217
0.136268
-0.00574483
0.10003
0.0418003
-0.0877798
0.0747856
-0.0982514
-0.178749
-0.0451075
-0.155285
-0.0475838
-0.127832
-0.056845
-0.0988359
-0.061063
-0.0680768
-0.064409
-0.0359512
-0.0666542
-0.00383532
-0.0657697
0.0266204
-0.0615492
0.0540628
-0.0558702
0.0784863
-0.0493298
0.0996871
-0.0424796
0.118056
-0.0363451
0.134015
-0.0309719
0.147779
-0.0262052
0.159816
-0.0226409
0.170423
-0.0196821
0.179895
-0.0174864
0.188539
-0.0158182
0.196602
-0.0147217
0.204197
-0.0138462
0.211501
-0.0133141
0.21851
-0.0128054
0.225178
-0.012083
0.231119
-0.0103353
0.236016
-0.00805542
0.240094
-0.00628218
0.243355
-0.00450483
0.246051
-0.002875
0.24856
-0.00123386
0.25101
0.000415882
0.253349
0.00219277
0.255485
0.00406773
0.257236
0.00617566
0.258407
0.00863945
0.25873
0.0116699
0.257237
0.0157867
0.255909
0.0160154
0.240405
0.00413343
0.218002
-0.00274966
-0.194828
0.216603
-0.0631814
0.238579
-0.0662837
0.262341
-0.0663057
0.284116
-0.0609233
0.304887
-0.0585957
0.324809
-0.0532174
0.342586
-0.0465764
0.358603
-0.0413154
0.372418
-0.0343027
0.384273
-0.0285755
0.394185
-0.0231014
0.402249
-0.0177035
0.408283
-0.0126958
0.412747
-0.00814069
0.415431
-0.00298858
0.4173
0.00153133
0.418369
0.00665942
0.419355
0.0112401
0.420253
0.0166634
0.421086
0.0212092
0.421331
0.0255415
0.419625
0.0272665
0.414848
0.0267367
0.405698
0.0250168
0.391139
0.0236956
0.371738
0.0238772
0.352817
0.0260861
0.337662
0.0279924
0.324289
0.0287794
0.312
0.0302241
0.300981
0.0339426
0.290244
0.0412629
0.281351
0.0572703
0.277368
0.101041
0.247547
0.188387
0.154379
0.229568
0.0890232
0.163157
0.0679281
-0.0677524
0.0601346
-0.0944402
-0.172942
-0.0669984
-0.149033
-0.0714975
-0.120477
-0.0854054
-0.0908325
-0.0907107
-0.0599054
-0.0953365
-0.0278642
-0.098693
0.00376898
-0.0973953
0.0332205
-0.0909887
0.0600743
-0.0827114
0.0843271
-0.0735687
0.105644
-0.0637808
0.124237
-0.054922
0.140494
-0.0472096
0.15469
-0.0403788
0.167138
-0.0350642
0.178187
-0.0307037
0.188104
-0.0273737
0.197158
-0.0248404
0.20555
-0.0230825
0.213448
-0.021712
0.221033
-0.020866
0.228331
-0.0200741
0.235261
-0.0189787
0.241434
-0.0164755
0.246616
-0.0132087
0.250919
-0.0105587
0.254398
-0.00796212
0.257091
-0.00554995
0.259088
-0.00321542
0.26043
-0.000910111
0.261268
0.00137389
0.261701
0.00366761
0.261912
0.00601785
0.262019
0.00859005
0.262278
0.0114391
0.262534
0.0155377
0.262603
0.0160118
0.252875
0.0138446
0.236355
0.0138878
-0.187732
0.210436
-0.085886
0.23326
-0.0891133
0.258393
-0.0914452
0.281369
-0.0839055
0.303698
-0.0809316
0.325166
-0.0746922
0.344928
-0.0663458
0.362831
-0.0592253
0.379073
-0.0505526
0.393433
-0.0429433
0.406032
-0.0357085
0.416863
-0.0285438
0.425982
-0.0218248
0.433453
-0.0156219
0.439637
-0.00918199
0.444134
-0.00297501
0.446992
0.00379411
0.447923
0.0103027
0.447227
0.0173543
0.44482
0.0236117
0.440846
0.029513
0.43532
0.0327968
0.428177
0.0338934
0.420256
0.0329499
0.412159
0.0318216
0.402021
0.0340237
0.388482
0.0396326
0.373295
0.0431935
0.357748
0.0443413
0.341829
0.0461416
0.326116
0.0498511
0.310574
0.0571671
0.294313
0.073107
0.286902
0.10852
0.279858
0.195207
0.241662
0.267527
0.194342
0.209126
0.118258
0.00791621
0.0529215
-0.0325906
-0.165321
-0.0894161
-0.141332
-0.0954899
-0.11225
-0.11449
-0.0824331
-0.120528
-0.0513876
-0.126381
-0.019162
-0.130915
0.0123645
-0.128915
0.0414598
-0.120076
0.0679724
-0.109215
0.0919345
-0.0975204
0.113021
-0.0848549
0.131514
-0.0734013
0.147854
-0.0635318
0.162289
-0.0547941
0.175147
-0.0478981
0.186651
-0.0421813
0.197106
-0.0378003
0.206691
-0.0343947
0.215634
-0.0319953
0.224074
-0.0301208
0.23212
-0.0288789
0.239834
-0.027756
0.247168
-0.0262812
0.253776
-0.0230526
0.259413
-0.0188153
0.264144
-0.0152634
0.268018
-0.0118131
0.271088
-0.00860098
0.273405
-0.00551547
0.275046
-0.0025331
0.276042
0.000398016
0.276438
0.00330512
0.276276
0.00623407
0.275617
0.00930676
0.274487
0.0125944
0.272926
0.0171017
0.270705
0.0182979
0.262883
0.0216282
0.250121
0.0267278
-0.18414
0.207676
-0.109425
0.231378
-0.112823
0.2579
-0.117974
0.281619
-0.107632
0.304915
-0.104234
0.327407
-0.0971915
0.347971
-0.0869168
0.366728
-0.0779898
0.383954
-0.067786
0.399006
-0.0580028
0.412262
-0.0489725
0.423652
-0.0399426
0.433442
-0.0316226
0.441314
-0.0235031
0.447457
-0.0153336
0.451858
-0.00738235
0.454737
0.000908034
0.456206
0.00882873
0.456059
0.0174954
0.454509
0.0251569
0.451244
0.0327746
0.446084
0.0379566
0.438903
0.0410755
0.430401
0.0414557
0.421816
0.0404198
0.413631
0.0422269
0.40565
0.0476338
0.396814
0.0520543
0.38651
0.0546624
0.374647
0.0579899
0.361219
0.0635766
0.345691
0.0731427
0.326115
0.0922204
0.308199
0.126523
0.297771
0.205371
0.283199
0.281788
0.254277
0.237279
0.155483
0.107285
0.0518167
0.0698658
-0.160689
-0.112876
-0.135978
-0.120203
-0.105644
-0.144825
-0.0749739
-0.151198
-0.0431949
-0.158158
-0.0103229
-0.163784
0.0216452
-0.160878
0.0508349
-0.149259
0.0772471
-0.13562
0.101062
-0.121326
0.121975
-0.105757
0.140364
-0.0917751
0.15673
-0.0798801
0.171292
-0.0693348
0.184371
-0.0609534
0.196237
-0.0540194
0.207067
-0.0486024
0.217052
-0.0443499
0.226388
-0.0413006
0.235212
-0.0389151
0.243616
-0.0372519
0.251638
-0.0357478
0.259251
-0.033864
0.266163
-0.0299354
0.272111
-0.0247348
0.277135
-0.0202621
0.28127
-0.0159262
0.284571
-0.0118826
0.287075
-0.00800251
0.288829
-0.00426969
0.289894
-0.000643867
0.290359
0.00287569
0.290263
0.0063886
0.289628
0.0100049
0.288469
0.0137822
0.286738
0.018836
0.283913
0.0211877
0.276418
0.0290713
0.264175
0.0390027
-0.181206
0.205751
-0.133974
0.230747
-0.137829
0.258631
-0.145865
0.283527
-0.132536
0.30782
-0.128535
0.331639
-0.121018
0.353141
-0.108427
0.373136
-0.0979927
0.391324
-0.0859823
0.407582
-0.0742689
0.422143
-0.0635424
0.434827
-0.0526351
0.445851
-0.0426556
0.45521
-0.0328717
0.462791
-0.0229225
0.468919
-0.0135178
0.473252
-0.00342911
0.475852
0.00622422
0.4768
0.016545
0.475857
0.0260986
0.472936
0.0356968
0.468004
0.0428926
0.460916
0.0481725
0.45218
0.050204
0.442824
0.0497874
0.433536
0.0515326
0.424538
0.0566568
0.415452
0.0611705
0.405769
0.0643642
0.395327
0.0684072
0.38418
0.0750601
0.37164
0.0861625
0.35595
0.107439
0.337412
0.145162
0.320149
0.222434
0.306798
0.294878
0.285966
0.257663
0.18261
0.211165
0.0568887
0.195865
-0.156793
-0.137299
-0.131264
-0.145736
-0.099617
-0.176473
-0.0678032
-0.183012
-0.0350198
-0.19094
-0.00120341
-0.197597
0.0315242
-0.193601
0.0611091
-0.178838
0.0876637
-0.162167
0.111473
-0.145126
0.132294
-0.126567
0.150547
-0.110013
0.166835
-0.0961497
0.181424
-0.083902
0.194621
-0.0741253
0.206686
-0.0660588
0.217788
-0.0596765
0.228128
-0.0546617
0.237833
-0.0509767
0.247034
-0.0480878
0.255823
-0.0460122
0.26422
-0.0441166
0.272177
-0.0417925
0.2795
-0.037231
0.285855
-0.0310634
0.291237
-0.0256202
0.295735
-0.0204049
0.29935
-0.0154797
0.302137
-0.0107751
0.304145
-0.00626113
0.305429
-0.00190741
0.306045
0.00229396
0.306038
0.00645202
0.305486
0.0106198
0.304309
0.0149865
0.302521
0.0206242
0.299583
0.0241872
0.292301
0.0363264
0.279561
0.0517424
-0.179502
0.205363
-0.159842
0.231403
-0.163879
0.260842
-0.175312
0.286992
-0.158694
0.312515
-0.154065
0.337388
-0.145901
0.36002
-0.131067
0.38083
-0.118812
0.400012
-0.105174
0.417151
-0.0914167
0.43248
-0.0788814
0.446133
-0.0662982
0.457983
-0.0545164
0.468103
-0.0430015
0.476561
-0.0313897
0.483197
-0.0201617
0.488156
-0.00839477
0.491361
0.00301462
0.492854
0.0150483
0.492544
0.0264062
0.490367
0.0378725
0.486179
0.047084
0.480047
0.0543117
0.47218
0.0580818
0.463454
0.0585268
0.454431
0.0605737
0.445271
0.0658407
0.435685
0.070784
0.425368
0.0746986
0.414305
0.0794421
0.40287
0.0868226
0.390742
0.0987587
0.37732
0.120419
0.3627
0.159909
0.345834
0.239147
0.330634
0.309823
0.309866
0.278145
0.206861
0.314311
0.0566241
0.346584
-0.153882
-0.162928
-0.127247
-0.172375
-0.0941393
-0.209583
-0.0610067
-0.216146
-0.0269995
-0.224947
0.00805325
-0.232647
0.0417709
-0.227314
0.072065
-0.209127
0.0990089
-0.189104
0.123017
-0.169124
0.143837
-0.147375
0.162013
-0.128174
0.178225
-0.112343
0.192776
-0.098431
0.206001
-0.0873267
0.218185
-0.0782163
0.229506
-0.0709711
0.240109
-0.0652371
0.25013
-0.0609703
0.259664
-0.0575939
0.268784
-0.0551039
0.277503
-0.0528076
0.285803
-0.0500643
0.293431
-0.0448319
0.30016
-0.0377664
0.305911
-0.0313487
0.310711
-0.0251858
0.314617
-0.0193688
0.317638
-0.0137815
0.319853
-0.00846076
0.321281
-0.00331446
0.322015
0.00159547
0.322108
0.0064176
0.321569
0.0112237
0.320424
0.0161575
0.318571
0.0224758
0.315528
0.0272875
0.30894
0.0428781
0.297034
0.0636328
-0.178447
0.205639
-0.18704
0.233098
-0.191347
0.264207
-0.206429
0.291549
-0.186044
0.318342
-0.180866
0.344445
-0.172012
0.368071
-0.154703
0.390054
-0.140804
0.410026
-0.125157
0.428062
-0.109463
0.4444
-0.0952301
0.458885
-0.0807941
0.471592
-0.0672356
0.482647
-0.0540683
0.491996
-0.0407495
0.499606
-0.0277822
0.505517
-0.0143134
0.509661
-0.0011354
0.511943
0.0127596
0.512316
0.0260293
0.510756
0.0394308
0.507097
0.0507465
0.50138
0.0600346
0.49398
0.0654926
0.485545
0.066976
0.476651
0.0694859
0.467481
0.0750341
0.457733
0.0805601
0.447047
0.0854018
0.435428
0.0910314
0.423229
0.0993469
0.410239
0.112217
0.396197
0.134036
0.38324
0.173025
0.369474
0.252769
0.356119
0.32292
0.332927
0.301052
0.223304
0.423662
0.0406394
0.52972
-0.151597
-0.189788
-0.123802
-0.200173
-0.0889856
-0.244401
-0.0543314
-0.2508
-0.0188855
-0.260391
0.0175514
-0.269081
0.052512
-0.26227
0.0837059
-0.240314
0.111226
-0.216616
0.135575
-0.193463
0.156523
-0.168309
0.174679
-0.146314
0.190825
-0.12847
0.205309
-0.112893
0.218504
-0.100498
0.230762
-0.0904486
0.242197
-0.0823795
0.252996
-0.0760091
0.263259
-0.0712056
0.273083
-0.0673893
0.282498
-0.0644904
0.291552
-0.0618331
0.300182
-0.0586663
0.308182
-0.0528043
0.315283
-0.0448425
0.321405
-0.0374477
0.326564
-0.0303253
0.330796
-0.0235844
0.334102
-0.0170739
0.336544
-0.0108867
0.338188
-0.00493742
0.339072
0.000748843
0.339273
0.0062782
0.338805
0.0117607
0.337633
0.0173606
0.335709
0.024401
0.332442
0.0306185
0.326517
0.048775
0.315804
0.0743395
-0.178177
0.206736
-0.215604
0.235636
-0.220255
0.268438
-0.239237
0.297159
-0.214773
0.325402
-0.209116
0.352843
-0.199461
0.377666
-0.179535
0.400517
-0.163664
0.421568
-0.146218
0.440409
-0.128315
0.457426
-0.112258
0.47269
-0.0960696
0.486217
-0.0807752
0.498028
-0.0658929
0.508133
-0.050867
0.516563
-0.0362223
0.523193
-0.0209523
0.527974
-0.00592402
0.530887
0.00983997
0.531855
0.0250564
0.530876
0.0404087
0.527846
0.0537793
0.522767
0.0651197
0.515944
0.0723253
0.507963
0.0749716
0.499312
0.078155
0.490175
0.0841941
0.480389
0.0903757
0.469635
0.0961734
0.457793
0.102843
0.445245
0.112216
0.431713
0.126216
0.416656
0.148675
0.402995
0.186871
0.390404
0.265216
0.379924
0.333169
0.354658
0.326067
0.23614
0.541868
0.054922
0.711894
-0.149848
-0.218124
-0.120703
-0.229321
-0.0841078
-0.280998
-0.0478781
-0.287031
-0.0107776
-0.297491
0.027258
-0.307113
0.0637049
-0.298711
0.0959723
-0.272574
0.124242
-0.244876
0.149093
-0.218302
0.170285
-0.189487
0.188515
-0.164528
0.204638
-0.144573
0.21906
-0.127293
0.23221
-0.113624
0.244446
-0.102658
0.255961
-0.0938683
0.266885
-0.0869055
0.277332
-0.0816242
0.287395
-0.077423
0.29711
-0.0741763
0.306443
-0.0711359
0.315382
-0.0675772
0.323733
-0.0611271
0.331223
-0.0523063
0.337694
-0.0438961
0.343206
-0.0358172
0.347735
-0.028097
0.351339
-0.0206632
0.35403
-0.0135621
0.355862
-0.00674664
0.356905
-0.000256496
0.357201
0.00604632
0.356794
0.0122383
0.355644
0.0185426
0.353679
0.0263647
0.350193
0.0341614
0.344694
0.0542459
0.334366
0.0847334
-0.178317
0.208478
-0.245771
0.238921
-0.250703
0.273604
-0.273925
0.303777
-0.244952
0.333303
-0.23865
0.3622
-0.228366
0.388178
-0.205521
0.412147
-0.187642
0.434162
-0.168242
0.453856
-0.148019
0.471699
-0.130112
0.487804
-0.112187
0.502008
-0.0949914
0.514505
-0.0784035
0.525433
-0.0618075
0.534529
-0.0453305
0.54189
-0.028323
0.547381
-0.0114237
0.551036
0.00617728
0.552728
0.0233588
0.552298
0.0408368
0.549866
0.0562129
0.545363
0.0696303
0.53908
0.0786189
0.531474
0.0825915
0.522968
0.0866801
0.513857
0.0933292
0.504009
0.100253
0.493087
0.107114
0.481072
0.114828
0.46829
0.125314
0.45449
0.14048
0.438902
0.163853
0.42423
0.20175
0.410906
0.278403
0.401255
0.342626
0.375797
0.35138
0.258561
0.658966
0.107108
0.864301
-0.148608
-0.247838
-0.117998
-0.259933
-0.0794414
-0.319556
-0.0413534
-0.325119
-0.00255441
-0.336288
0.0373292
-0.346993
0.075332
-0.336708
0.108856
-0.30609
0.138046
-0.274056
0.163562
-0.243807
0.185113
-0.211023
0.203486
-0.182884
0.219647
-0.160715
0.234023
-0.141647
0.247112
-0.126689
0.25932
-0.11484
0.270838
-0.10536
0.281829
-0.0978683
0.292432
-0.0921983
0.302684
-0.0876455
0.312599
-0.0840604
0.322222
-0.0807283
0.331474
-0.0767995
0.340159
-0.0697833
0.348001
-0.0601208
0.35486
-0.0507313
0.360706
-0.0416429
0.365583
-0.0329563
0.369474
-0.0245397
0.372424
-0.0164949
0.37449
-0.0087897
0.375689
-0.00141553
0.376123
0.00567882
0.375797
0.0126395
0.37465
0.0197232
0.372613
0.0284004
0.369013
0.0378168
0.363557
0.0596844
0.35313
0.0953075
-0.179029
0.210764
-0.277509
0.242785
-0.282729
0.279392
-0.310536
0.31123
-0.276795
0.342359
-0.269784
0.372716
-0.25873
0.399833
-0.232645
0.425011
-0.212827
0.448041
-0.19128
0.468653
-0.168641
0.487264
-0.148732
0.503981
-0.128915
0.51895
-0.109972
0.532251
-0.0917174
0.543732
-0.073301
0.553555
-0.0551648
0.561581
-0.0363591
0.567792
-0.0176437
0.572027
0.00193347
0.574302
0.0210776
0.574509
0.0406284
0.572606
0.0581178
0.568685
0.0735588
0.562961
0.0843539
0.555801
0.0897656
0.547603
0.0948979
0.538562
0.102395
0.528623
0.110223
0.517614
0.118143
0.505361
0.127052
0.49231
0.138678
0.478275
0.154975
0.462417
0.179313
0.44712
0.217271
0.432755
0.292646
0.421612
0.353602
0.397769
0.375164
0.298922
0.757801
0.183785
0.979918
-0.147652
-0.279219
-0.115529
-0.292058
-0.0748949
-0.36019
-0.034868
-0.365145
0.00589368
-0.377047
0.0476587
-0.388754
0.0874456
-0.376489
0.12238
-0.341016
0.152653
-0.304319
0.178916
-0.270057
0.200961
-0.233052
0.219578
-0.201484
0.235844
-0.176962
0.25021
-0.155991
0.263246
-0.139701
0.275394
-0.126964
0.286891
-0.11683
0.297921
-0.108871
0.308585
-0.102833
0.318977
-0.0980067
0.329118
-0.0941713
0.33898
-0.0905585
0.348497
-0.0862861
0.357519
-0.0787752
0.365716
-0.0682902
0.372932
-0.057922
0.379149
-0.0478393
0.384351
-0.0381405
0.388562
-0.0287354
0.391778
-0.0196934
0.39405
-0.0110377
0.395453
-0.00277817
0.396009
0.0051912
0.395768
0.0129578
0.394636
0.0208912
0.392556
0.0304763
0.388849
0.0415729
0.383207
0.0653116
0.372852
0.105844
-0.180035
0.213563
-0.311039
0.247339
-0.316509
0.285978
-0.349179
0.319417
-0.310238
0.352149
-0.302522
0.38408
-0.290666
0.412683
-0.261254
0.438984
-0.239135
0.463072
-0.215374
0.484569
-0.190146
0.504053
-0.168225
0.521605
-0.146477
0.537165
-0.125543
0.551058
-0.105622
0.563271
-0.0855251
0.573737
-0.065641
0.582372
-0.0450039
0.589158
-0.024439
0.594012
-0.00292942
0.596907
0.0181764
0.597723
0.0398108
0.596436
0.0594082
0.593088
0.0769145
0.58789
0.0895631
0.581151
0.0965207
0.573225
0.102844
0.56429
0.111355
0.554366
0.120179
0.543231
0.1293
0.530812
0.139444
0.517496
0.152303
0.503148
0.169776
0.487023
0.195057
0.471299
0.233235
0.456403
0.307438
0.442647
0.367199
0.420555
0.397222
0.350857
0.827491
0.273977
1.05672
-0.147017
-0.312241
-0.113169
-0.325907
-0.070396
-0.402964
-0.028274
-0.407266
0.0145367
-0.419855
0.0583619
-0.432574
0.100107
-0.418228
0.136559
-0.377459
0.168027
-0.335776
0.195212
-0.297228
0.217854
-0.255679
0.236813
-0.220426
0.25322
-0.193349
0.267627
-0.170376
0.280627
-0.152678
0.292724
-0.139036
0.304164
-0.128244
0.315181
-0.119861
0.325906
-0.113529
0.336389
-0.10846
0.346674
-0.104426
0.356734
-0.100587
0.366541
-0.0960611
0.375872
-0.0880756
0.384415
-0.0768055
0.39199
-0.0654716
0.398552
-0.0543796
0.404107
-0.0436775
0.408608
-0.0332199
0.412115
-0.0231819
0.414631
-0.01353
0.416215
-0.00431997
0.416934
0.00454375
0.416766
0.0132069
0.415673
0.0220227
0.413532
0.0326134
0.409735
0.0454145
0.403926
0.0711068
0.393649
0.116302
-0.181506
0.21675
-0.346285
0.252381
-0.352144
0.293173
-0.389974
0.328455
-0.345524
0.362931
-0.337002
0.396494
-0.324233
0.426506
-0.291271
0.454126
-0.266761
0.479264
-0.240517
0.50173
-0.212618
0.522031
-0.188533
0.540299
-0.164755
0.556647
-0.1419
0.571213
-0.120198
0.584006
-0.0983291
0.595026
-0.0766702
0.604281
-0.0542675
0.611695
-0.0318615
0.617147
-0.00838962
0.620542
0.0147751
0.62192
0.0384317
0.621168
0.0601638
0.618373
0.0797181
0.613745
0.094203
0.607525
0.102757
0.599899
0.110491
0.591131
0.12015
0.581213
0.13013
0.570009
0.140528
0.557446
0.151981
0.543911
0.166143
0.529276
0.184856
0.512807
0.21116
0.496627
0.249667
0.481528
0.322449
0.465291
0.383275
0.443622
0.418841
0.402735
0.868314
0.35768
1.10139
-0.146579
-0.347171
-0.111063
-0.361424
-0.0659256
-0.4481
-0.0216072
-0.451583
0.0234527
-0.464912
0.0695527
-0.478669
0.113282
-0.46195
0.15145
-0.415618
0.184235
-0.36855
0.212445
-0.325425
0.235783
-0.279002
0.255168
-0.239793
0.271824
-0.209987
0.286323
-0.184853
0.299312
-0.165644
0.311357
-0.151058
0.322741
-0.139602
0.333719
-0.130813
0.344438
-0.124219
0.354987
-0.118979
0.365383
-0.11479
0.375632
-0.110805
0.385664
-0.106061
0.395301
-0.0976811
0.404169
-0.0856453
0.412092
-0.0733683
0.419005
-0.0612706
0.424876
-0.0495295
0.429709
-0.0380361
0.433501
-0.0269558
0.436274
-0.016277
0.438077
-0.00607922
0.438942
0.00375187
0.438885
0.0133485
0.437817
0.0231323
0.435651
0.0347747
0.431776
0.0493293
0.425753
0.0771131
0.415582
0.126637
-0.183206
0.220392
-0.383473
0.257984
-0.389739
0.301069
-0.433062
0.338234
-0.382694
0.374487
-0.373259
0.4098
-0.35955
0.441347
-0.322823
0.470273
-0.295691
0.496627
-0.266877
0.520075
-0.236072
0.541321
-0.209786
0.560355
-0.183795
0.577389
-0.158943
0.5926
-0.135418
0.605906
-0.111644
0.617564
-0.0883367
0.627393
-0.0641035
0.635344
-0.039821
0.641384
-0.0144376
0.645377
0.0107763
0.647275
0.0365337
0.647087
0.0603557
0.64485
0.0819647
0.640741
0.0983246
0.634962
0.108553
0.627664
0.117811
0.619097
0.128744
0.609256
0.140005
0.598019
0.15179
0.585333
0.164645
0.571582
0.180192
0.55669
0.200184
0.539898
0.227604
0.523235
0.266588
0.507914
0.337701
0.489923
0.401094
0.467083
0.441616
0.447817
0.887439
0.425478
1.12325
-0.146493
-0.383887
-0.108944
-0.398974
-0.0614193
-0.495624
-0.0147241
-0.498276
0.0326624
-0.512294
0.0811078
-0.527109
0.127108
-0.507943
0.167079
-0.455579
0.201348
-0.402807
0.230684
-0.354747
0.254824
-0.303126
0.274704
-0.259656
0.291667
-0.22693
0.306297
-0.199463
0.319306
-0.178631
0.331327
-0.163056
0.342659
-0.150909
0.353564
-0.141692
0.364259
-0.134886
0.374839
-0.129529
0.385318
-0.125238
0.395701
-0.121157
0.405956
-0.116284
0.41586
-0.107554
0.425037
-0.0947933
0.433292
-0.0815963
0.440547
-0.0685032
0.446769
-0.0557316
0.451924
-0.0431732
0.456009
-0.0310222
0.459035
-0.0192766
0.461043
-0.008042
0.462084
0.00278774
0.462137
0.0133837
0.461118
0.0241973
0.458916
0.0369726
0.45497
0.0533077
0.448831
0.0832323
0.438724
0.136887
-0.185204
0.22449
-0.422761
0.264103
-0.429356
0.309594
-0.478555
0.348712
-0.421815
0.38689
-0.411441
0.424143
-0.396807
0.457213
-0.355897
0.487571
-0.326053
0.515267
-0.294578
0.539802
-0.260612
0.561921
-0.231911
0.581783
-0.203664
0.599431
-0.176599
0.615291
-0.151287
0.629313
-0.125674
0.641502
-0.100532
0.651887
-0.0744949
0.660357
-0.0482988
0.66683
-0.0209177
0.671331
0.00627003
0.673782
0.0340835
0.674071
0.0600717
0.672367
0.0836786
0.668788
0.101918
0.663491
0.113866
0.656597
0.124727
0.648213
0.137156
0.638469
0.149783
0.627268
0.163018
0.614496
0.177399
0.600582
0.1944
0.58543
0.21576
0.568399
0.244307
0.551239
0.284011
0.535498
0.353391
0.516485
0.419922
0.491725
0.466318
0.4854
0.893539
0.477656
1.1305
-0.146488
-0.422606
-0.107051
-0.438411
-0.0568677
-0.545806
-0.00768157
-0.54746
0.0422023
-0.562174
0.0932235
-0.578125
0.14153
-0.556241
0.183492
-0.497531
0.219304
-0.438606
0.249918
-0.385347
0.274935
-0.328126
0.295437
-0.28014
0.312774
-0.244247
0.327604
-0.214271
0.340687
-0.191692
0.352683
-0.175029
0.36395
-0.162152
0.37481
-0.152526
0.385457
-0.145506
0.396019
-0.140063
0.406546
-0.135734
0.417058
-0.131638
0.427496
-0.12669
0.437643
-0.117669
0.447129
-0.10425
0.455698
-0.0901383
0.463284
-0.0760659
0.469825
-0.0622527
0.475302
-0.0486317
0.479673
-0.0353735
0.482973
-0.0225492
0.485224
-0.0102459
0.486425
0.00166657
0.486614
0.0132868
0.485659
0.0252034
0.483431
0.0391955
0.479425
0.0573412
0.473134
0.0894979
0.463132
0.147009
-0.187547
0.228991
-0.464206
0.270732
-0.471101
0.318733
-0.526559
0.359913
-0.463
0.400199
-0.451731
0.439401
-0.436012
0.474165
-0.390666
0.50607
-0.357962
0.535051
-0.323564
0.560671
-0.286237
0.583769
-0.255014
0.604489
-0.22439
0.622982
-0.1951
0.63945
-0.167761
0.65403
-0.140261
0.666765
-0.113273
0.677658
-0.0853931
0.686636
-0.0572833
0.693698
-0.0279869
0.698661
0.00130293
0.701554
0.0311926
0.702382
0.059249
0.701153
0.084919
0.698068
0.105017
0.693219
0.118733
0.686693
0.131276
0.67859
0.145288
0.668979
0.159429
0.6578
0.174225
0.644981
0.190205
0.630937
0.208729
0.615586
0.23152
0.598288
0.261297
0.580688
0.301874
0.564405
0.369641
0.544867
0.439268
0.518236
0.492919
0.517911
0.893557
0.518286
1.12968
-0.14667
-0.463486
-0.105088
-0.479994
-0.052197
-0.598696
-0.000376694
-0.599278
0.0521611
-0.614708
0.105879
-0.631837
0.156696
-0.60705
0.200747
-0.541571
0.238272
-0.476119
0.270227
-0.417286
0.296253
-0.354136
0.317418
-0.301287
0.335194
-0.262004
0.350279
-0.229336
0.36347
-0.204862
0.375486
-0.187023
0.386708
-0.17335
0.397497
-0.163291
0.408085
-0.156068
0.418625
-0.150575
0.429166
-0.146245
0.43975
-0.14219
0.45035
-0.137259
0.460749
-0.128036
0.470496
-0.113968
0.479358
-0.0989735
0.48726
-0.0839439
0.494125
-0.069097
0.49992
-0.0544082
0.504604
-0.0400368
0.508174
-0.0260908
0.510638
-0.0126611
0.51205
0.000337215
0.512362
0.0130717
0.511481
0.0261403
0.509246
0.0414268
0.505176
0.0614343
0.498798
0.0958437
0.488929
0.156975
-0.190094
0.233759
-0.507873
0.277826
-0.515171
0.328501
-0.577237
0.37191
-0.506413
0.414349
-0.494173
0.455579
-0.477246
0.492188
-0.427279
0.525692
-0.39147
0.556044
-0.353921
0.582882
-0.313079
0.607095
-0.279232
0.628654
-0.245956
0.647893
-0.214346
0.665064
-0.184939
0.680215
-0.155418
0.693514
-0.126577
0.704906
-0.0967897
0.7144
-0.0667832
0.721878
-0.0354707
0.727346
-0.00416812
0.73069
0.0278505
0.731944
0.058002
0.731219
0.0856561
0.728603
0.107648
0.724235
0.123119
0.718075
0.137459
0.710239
0.153153
0.700794
0.168911
0.689674
0.185375
0.676862
0.203009
0.662709
0.223158
0.647176
0.247447
0.629669
0.278517
0.611689
0.320114
0.594789
0.386524
0.574891
0.458972
0.547019
0.520799
0.548243
0.89196
0.552172
1.12537
-0.146993
-0.506589
-0.103198
-0.52379
-0.0474354
-0.654458
0.00721904
-0.65393
0.0625386
-0.670023
0.119079
-0.688371
0.172612
-0.660574
0.218865
-0.587814
0.258236
-0.515478
0.291648
-0.450683
0.318739
-0.381211
0.34066
-0.323189
0.358965
-0.280289
0.374358
-0.244709
0.387701
-0.218183
0.399779
-0.19908
0.41098
-0.184529
0.421712
-0.173999
0.432233
-0.166563
0.442717
-0.161031
0.453265
-0.156764
0.463902
-0.152797
0.474635
-0.147961
0.485221
-0.138591
0.495214
-0.123931
0.504371
-0.108103
0.51257
-0.0921193
0.519759
-0.0762656
0.525855
-0.0604844
0.53084
-0.0450003
0.534683
-0.0299047
0.537408
-0.0153355
0.539002
-0.00117196
0.539449
0.012726
0.53866
0.026991
0.536421
0.0436643
0.53233
0.0655448
0.525858
0.102276
0.516092
0.166816
-0.192951
0.239016
-0.55394
0.285518
-0.561676
0.338881
-0.630605
0.384744
-0.552279
0.429351
-0.538785
0.472838
-0.520738
0.511289
-0.465735
0.546497
-0.426682
0.578377
-0.385805
0.606508
-0.341215
0.631694
-0.304425
0.654269
-0.268537
0.674255
-0.234338
0.692118
-0.202809
0.70797
-0.171276
0.721777
-0.140389
0.733705
-0.108722
0.743658
-0.0767406
0.751635
-0.0434535
0.757509
-0.0100451
0.761275
0.0240872
0.763008
0.056277
0.762672
0.0860041
0.760509
0.109827
0.756553
0.127094
0.75077
0.143266
0.743238
0.160715
0.733989
0.178197
0.723011
0.196384
0.710211
0.215806
0.695987
0.237649
0.68029
0.263521
0.662589
0.295952
0.644298
0.338661
0.626715
0.404106
0.606575
0.478922
0.578164
0.549262
0.578527
0.891184
0.583219
1.12038
-0.147509
-0.552034
-0.101332
-0.569967
-0.0424862
-0.713303
0.0150819
-0.711495
0.0733983
-0.728335
0.132962
-0.747928
0.189252
-0.716855
0.23794
-0.636491
0.279236
-0.55676
0.314253
-0.485685
0.34252
-0.409461
0.365281
-0.345932
0.384163
-0.299152
0.39992
-0.260445
0.413472
-0.231715
0.425617
-0.211203
0.436838
-0.195727
0.447508
-0.184647
0.457961
-0.176991
0.468387
-0.17143
0.478908
-0.167258
0.489579
-0.163439
0.500426
-0.158778
0.511196
-0.14933
0.52142
-0.134127
0.530824
-0.11748
0.5393
-0.100572
0.546773
-0.0837183
0.553186
-0.0668771
0.558456
-0.0502484
0.562589
-0.0340069
0.565541
-0.0182361
0.567356
-0.00289922
0.567976
0.0122116
0.567252
0.0277841
0.565067
0.0458512
0.560927
0.0697015
0.554444
0.108713
0.54482
0.176493
-0.196035
0.244626
-0.602534
0.2936
-0.610654
0.350018
-0.687026
0.398195
-0.600461
0.44531
-0.585905
0.491057
-0.56649
0.531601
-0.506284
0.568533
-0.463619
0.601983
-0.41926
0.631434
-0.370671
0.657879
-0.330876
0.681369
-0.292034
0.702271
-0.255247
0.720865
-0.22141
0.73732
-0.187737
0.751714
-0.154786
0.764124
-0.121136
0.774518
-0.0871394
0.782883
-0.0518239
0.789192
-0.0163564
0.793405
0.0198773
0.795471
0.0542195
0.795554
0.0859337
0.793829
0.111569
0.790284
0.130657
0.784914
0.148661
0.777683
0.167976
0.768636
0.187281
0.757767
0.207286
0.74505
0.228526
0.730795
0.25216
0.714972
0.2797
0.697111
0.31357
0.678526
0.357494
0.660353
0.422292
0.639922
0.499174
0.611583
0.577694
0.610119
0.892223
0.614033
1.11625
-0.148123
-0.599948
-0.0994434
-0.618647
-0.0373789
-0.775366
0.0232654
-0.772136
0.0847288
-0.789794
0.147491
-0.810683
0.206796
-0.776151
0.257976
-0.68766
0.301358
-0.600128
0.338045
-0.522356
0.367594
-0.438991
0.391281
-0.3696
0.410809
-0.318659
0.427004
-0.276619
0.440806
-0.245496
0.453081
-0.223456
0.464318
-0.206942
0.474962
-0.195268
0.485349
-0.187354
0.495733
-0.181789
0.5062
-0.177698
0.516897
-0.174108
0.527821
-0.169672
0.53875
-0.16023
0.549181
-0.144531
0.558804
-0.127077
0.56756
-0.109304
0.575314
-0.091451
0.581994
-0.0735373
0.587581
-0.0558131
0.591977
-0.0383718
0.595189
-0.0213945
0.597192
-0.00481269
0.597972
0.0115417
0.597382
0.0284508
0.595216
0.0480236
0.591092
0.0738424
0.584571
0.115183
0.575118
0.185979
-0.1994
0.250609
-0.653746
0.302254
-0.662302
0.361721
-0.746498
0.412608
-0.651353
0.462164
-0.635465
0.510427
-0.614759
0.552984
-0.548846
0.591854
-0.502495
0.626988
-0.454401
0.657907
-0.401596
0.685515
-0.35849
0.710136
-0.316662
0.731901
-0.277019
0.751267
-0.240783
0.76834
-0.204816
0.783343
-0.169793
0.796229
-0.134025
0.80707
-0.097985
0.815896
-0.0606555
0.82257
-0.0230323
0.827127
0.0153241
0.829581
0.051774
0.830036
0.0854923