/*--------------------------------*- C++ -*----------------------------------*\
| =========                 |                                                 |
| \\      /  F ield         | OpenFOAM: The Open Source CFD Toolbox           |
|  \\    /   O peration     | Version:  2312                                  |
|   \\  /    A nd           | Website:  www.openfoam.com                      |
|    \\/     M anipulation  |                                                 |
\*---------------------------------------------------------------------------*/
FoamFile
{
    version     2.0;
    format      ascii;
    arch        "LSB;label=32;scalar=64";
    class       volScalarField;
    location    "500";
    object      turbulenceProperties:I;
}
// * * * * * * * * * * * * * * * * * * * * * * * * * * * * * * * * * * * * * //

dimensions      [0 0 0 0 0 0 0];

internalField   nonuniform List<scalar> 
10720
(
0.00509585
0.0045154
0.00443781
0.00446213
0.00457205
0.00475445
0.00501806
0.00536505
0.00582673
0.00644919
0.00728942
0.00847234
0.0101297
0.0125401
0.0163949
0.0225662
0.03185
0.0486101
0.072393
0.0993738
0.134718
0.188141
0.270151
0.374751
0.461555
0.517058
0.70456
0.904897
0.776296
0.520715
0.303225
0.119234
0.0609392
0.0292087
2.82811e-09
4.46081e-08
0.00282463
0.0188506
0.155786
0.0062893
0.00669511
0.00660627
0.00697882
0.00805495
0.0155523
0.0300873
0.0470612
0.0291319
0.0187591
0.0149196
0.0136244
0.0135975
0.0147405
0.016438
0.0202772
0.0229793
0.0342845
0.0399267
0.0434025
0.0478725
0.0569866
0.0658436
0.0765059
0.0872217
0.097413
0.0926371
0.0721648
0.0463819
0.0241809
0.00835927
0.00202547
0.00105068
0.000699165
0.000457645
0.000293795
1.50587e-09
0.0706432
0.483431
0.00177384
0.00228211
0.00210337
0.00196582
0.00181132
0.00165102
0.00150775
0.00138011
0.0012789
0.00120012
0.00114582
0.0010968
0.00119298
0.00153488
0.00221419
0.00339887
0.00518909
0.0083473
0.0135805
0.02097
0.0305134
0.0427374
0.0587625
0.0826583
0.16051
0.221312
0.394459
0.577967
0.545448
0.436676
0.309999
0.19262
0.102778
0.0404734
0.00674281
2.07547e-09
3.53956e-09
0.00725566
0.194372
0.00243025
0.00109972
0.0040878
0.00592657
0.0079458
0.00957946
0.00980759
0.0106856
0.00944203
0.00739879
0.00576365
0.00446509
0.0038338
0.00348468
0.00171598
0.00847895
0.00970148
0.00309616
0.0170535
0.018748
0.00673193
0.0250253
0.00949621
0.0117307
0.0388083
0.00708847
0.007688
0.00776009
0.00594329
0.00520097
0.00399944
0.00278354
0.00183349
0.00115521
0.000708518
0.000420574
5.46032e-05
0.0200466
0.197519
7.34068e-05
0.000754016
0.00108057
0.00109403
0.00111337
0.00110251
0.0010918
0.00108472
0.00107849
0.00107557
0.00107417
0.00107712
0.00108609
0.00102206
0.0011772
0.00181081
0.00257849
0.00407116
0.00661566
0.0102855
0.0149382
0.0206984
0.0279121
0.0397819
0.0573893
0.0917173
0.217869
0.345949
0.347388
0.312468
0.250377
0.18141
0.113184
0.0527621
0.015164
0.0062249
3.62888e-09
0.00514156
0.17124
0.00299638
0.00480622
0.00564304
0.00554376
0.00463049
0.00220368
0.00275229
0.0026786
0.00269112
0.000663171
0.00185009
0.00218702
0.00223553
0.00227076
0.00234464
0.00221165
0.0018463
0.000514124
0.000323109
0.000504405
0.00305253
0.000623117
0.00436664
0.00542713
0.000627062
0.00336475
0.00366131
0.00372003
0.00289533
0.00257387
0.00203613
0.00149359
0.00108353
0.000812987
0.000607606
0.000716839
9.67813e-10
0.0126625
0.114613
0.00380714
0.00347651
0.00325853
0.0031086
0.00292072
0.00272104
0.00259244
0.00248191
0.00238836
0.00231074
0.00224274
0.00218591
0.00214273
0.00210811
0.00208018
0.00206147
0.00196672
0.00166747
0.000933109
0.000539711
6.03656e-10
6.10246e-10
6.19297e-10
0.000970288
0.00454987
0.000550922
0.000337478
0.000632943
0.000857834
0.00141318
0.00369019
0.0174252
0.0445143
0.0446385
0.0281266
0.0109972
0.00800472
0.00635131
0.24439
0.00473374
0.0043692
0.0027536
0.00214868
0.00178034
0.00193243
0.0022034
0.0023691
0.00235666
0.00220132
0.0020757
0.00194593
0.00182061
0.00172576
0.00167244
0.00159139
0.00147308
0.000643778
0.000951056
0.00117687
0.00137162
0.00143921
0.00150109
0.00150051
0.00140645
0.00134756
0.00126766
0.0012743
0.00126784
0.00126938
0.00126908
0.0012607
0.00123816
0.00120618
0.00104041
0.00145682
0.000197523
0.0110102
0.0942966
0.00397407
0.00350879
0.00321578
0.0029615
0.00274924
0.0025618
0.00240404
0.00227376
0.002168
0.0020852
0.00201274
0.00197033
0.00196254
0.00194565
0.00193185
0.00194406
0.0019772
0.00202282
0.00201326
0.00131008
0.000694915
0.000441783
6.36848e-10
6.48692e-10
0.00213273
0.000260618
0.000159111
0.000295108
0.00039597
0.000646458
0.00167579
0.00789747
0.00063985
9.64852e-05
0.0164643
0.0161238
0.0130144
0.00577214
0.19207
0.00284539
0.00184078
0.00122746
0.00162409
0.00257752
0.00449153
0.00522078
0.0054878
0.00549657
0.00524695
0.00485517
0.00443975
0.00405968
0.00373017
0.00347051
0.00325811
0.00306194
0.00288517
0.0027334
0.00260115
0.00248349
0.00246683
0.00234853
0.00213642
0.00205299
0.00198489
0.00192642
0.00187598
0.0018323
0.00179452
0.00175522
0.00171225
0.00167265
0.00165567
0.00151595
0.00171321
0.000238092
0.00993654
0.0823194
0.00158095
0.00180457
0.00147766
0.00124037
0.00103292
0.000854943
0.000716733
0.00061445
0.000546663
0.000512414
0.000507821
0.000522432
0.000560772
0.000620317
0.000690558
0.000773791
0.000863189
0.000988203
0.00116927
0.00132769
0.00143101
0.00102844
0.000564275
0.000422946
6.65206e-10
6.79932e-10
6.94629e-10
7.0931e-10
7.25102e-10
7.43082e-10
7.63732e-10
7.88027e-10
0.000298688
4.44534e-05
1.20614e-05
5.3171e-05
0.000144641
0.000245783
0.00675998
0.0011878
0.00125304
0.00228104
0.00383212
0.00463765
0.00523449
0.00563658
0.00591543
0.00600352
0.00589888
0.0056514
0.00534324
0.00503203
0.00473846
0.00450394
0.00430887
0.00409664
0.00390491
0.00375087
0.00360845
0.00347494
0.00334932
0.00323992
0.00313621
0.00304126
0.00295682
0.00288179
0.00281445
0.00275361
0.00269926
0.00265164
0.00259793
0.00253051
0.00246918
0.00234099
0.002305
0.000328153
0.00842415
0.0679424
0.000978026
0.000920734
0.000878692
0.000815532
0.000775945
0.000744529
0.000713534
0.000692209
0.000676045
0.000663765
0.000657387
0.000654521
0.000656337
0.000663857
0.000675761
0.000693203
0.000715573
9.10615e-05
0.000336859
0.000602646
0.000884666
0.00109761
0.0011766
0.000975867
0.000710923
2.4873e-05
6.98506e-10
7.13225e-10
7.29442e-10
7.47909e-10
7.68745e-10
7.92006e-10
8.18084e-10
8.48378e-10
5.66154e-06
2.52341e-05
6.84204e-05
9.90209e-10
0.00265562
0.00119167
0.00293884
0.00377514
0.00388868
0.00365479
0.00341696
0.00363609
0.00383641
0.00395298
0.00399047
0.00395573
0.00387753
0.00378309
0.00368956
0.00360089
0.00353504
0.00345704
0.00335672
0.00324733
0.00313478
0.00302277
0.00291373
0.00280928
0.00271185
0.00262365
0.00254548
0.00247674
0.00241623
0.00236299
0.00231642
0.00227779
0.00225077
0.00222953
0.00220768
0.00217734
0.00229588
0.000334775
0.00644972
0.0504678
0.00209978
0.00201536
0.00201145
0.00197778
0.00194081
0.0019043
0.00186497
0.00182457
0.0017839
0.00174437
0.00170722
0.00167256
0.00164081
0.00161254
0.00158802
0.00156738
0.00155017
0.00152885
0.00153459
0.00145682
0.00134112
0.0013539
0.00141951
0.00144052
0.0015402
5.63863e-05
1.26505e-05
7.16319e-10
7.32227e-10
7.50585e-10
7.71669e-10
7.9541e-10
8.22252e-10
8.51637e-10
8.75858e-10
9.16277e-10
9.71547e-10
9.85038e-10
2.66682e-09
0.00318721
0.00341848
0.00281717
0.00188852
0.00058231
0.00121377
0.00127312
0.00133967
0.00138906
0.000269914
0.000679375
0.000931868
0.00113011
0.00129538
0.00144399
0.00156562
0.00160772
0.00159943
0.00156419
0.00151478
0.00145786
0.00139797
0.00133831
0.00128307
0.00123476
0.00119289
0.00115747
0.00112821
0.00110481
0.00108648
0.00107236
0.00107613
0.00111815
0.00118859
0.00125318
0.00159822
0.000238628
0.00412415
0.0312989
0.00306032
0.00278127
0.00264754
0.00250959
0.00237928
0.00226383
0.00216205
0.00207041
0.00198986
0.0019223
0.00186579
0.00181779
0.00177805
0.00174723
0.00172492
0.00171082
0.00170444
0.00170224
0.00171781
0.00172992
0.00169287
0.00164148
0.00162856
0.00157941
0.00179352
9.75595e-05
2.22857e-05
7.2021e-10
7.35565e-10
7.53322e-10
7.73869e-10
7.9728e-10
8.24076e-10
8.54988e-10
8.77746e-10
9.10628e-10
9.51036e-10
9.87573e-10
2.58171e-09
0.00287826
0.00181091
0.00120499
0.000758486
0.000679239
0.000712592
0.000744908
0.000760647
0.000764465
0.000763513
0.000777506
0.000788999
0.000804379
0.000821926
0.000843802
0.000866628
0.000872012
0.000865102
0.000851213
0.000833495
0.000813552
0.000792678
0.000771828
0.000752128
0.000734245
0.000718438
0.00070502
0.000693889
0.000684915
0.000677821
0.000672109
0.000672385
0.000680912
0.000696901
0.000724803
0.000839531
0.000335087
0.0019883
0.014666
0.00214503
0.00201861
0.00181911
0.0016398
0.00149983
0.00139268
0.00130375
0.00122648
0.00116423
0.00112367
0.00109658
0.0010748
0.00106298
0.00106522
0.00107869
0.00110334
0.00113463
0.00117404
0.0012574
0.00136714
0.00145058
0.00150021
0.00154762
0.0015323
0.00173635
0.000140049
3.25657e-05
7.24332e-10
7.39241e-10
7.56472e-10
7.76408e-10
7.99184e-10
8.25105e-10
8.56024e-10
8.80195e-10
9.11859e-10
9.43468e-10
9.84351e-10
2.26384e-09
0.000969611
0.000724408
0.000764239
0.000980335
0.00168818
0.0018163
0.00187403
0.00191056
0.00192201
0.00190748
0.0018703
0.00181521
0.00175494
0.00169083
0.00162373
0.00155733
0.00149309
0.00143219
0.00137533
0.00132263
0.00127392
0.00122906
0.00118782
0.00115029
0.00111658
0.00108647
0.00105968
0.00103582
0.00101445
0.00099526
0.000977364
0.000959622
0.000923015
0.000870808
0.000866567
0.000709285
0.000711948
0.000475436
0.00248588
0.000744176
0.000241048
0.000665859
0.000591042
0.000548062
0.000529034
0.000513741
0.000502411
0.000492946
0.000487183
0.000485757
0.000484634
0.000485907
0.000492255
0.000502202
0.000523585
0.000536244
0.000545172
0.000592746
0.000434464
0.000715438
0.000918447
0.00109099
0.00117025
0.00146226
0.000180652
4.2747e-05
7.28647e-10
7.43092e-10
7.5983e-10
7.79219e-10
8.01405e-10
8.26467e-10
8.56384e-10
8.81193e-10
9.13315e-10
9.46363e-10
9.70232e-10
1.77274e-09
0.000544826
0.000285642
0.00186326
0.00241163
0.00264603
0.00274613
0.00283011
0.00289406
0.00293064
0.00293874
0.00292047
0.00287878
0.00282262
0.00275477
0.00267691
0.00259349
0.00250794
0.0024226
0.00233903
0.00225819
0.00218069
0.00210692
0.00203725
0.0019722
0.00191249
0.00185855
0.00181032
0.0017673
0.0017289
0.0016946
0.00166396
0.0016369
0.00160311
0.00155884
0.00150502
0.00144489
0.00135338
0.000653293
0.00121097
0.000691648
0.000550359
0.000566763
0.000563182
0.000575224
0.000315348
0.000467027
0.000553114
0.000603748
0.000633322
0.000651696
0.000660537
0.000662928
0.00066325
0.000661429
0.000695892
0.000671826
0.000606832
0.000587511
0.000556202
0.000582243
0.000676735
0.00081693
0.000882252
0.00120664
0.000236253
5.68683e-05
7.33124e-10
7.47073e-10
7.63294e-10
7.82138e-10
8.03755e-10
8.28124e-10
8.5698e-10
8.81681e-10
9.12629e-10
9.53765e-10
9.54147e-10
1.38652e-09
0.00120017
0.00208911
0.00236346
0.0021755
0.00209893
0.00216622
0.00223064
0.00228529
0.00232521
0.00234929
0.00235565
0.00234372
0.002318
0.00228186
0.00223393
0.00217885
0.0021194
0.00205753
0.00199463
0.00193175
0.00186972
0.00180928
0.00175107
0.00169606
0.00164527
0.00159923
0.00155797
0.00152126
0.00148872
0.00145997
0.00143486
0.00141557
0.00140482
0.00139671
0.00138912
0.00137144
0.00134552
0.00129688
0.000461405
0.00156132
0.00152401
0.00153838
0.00155533
0.00154903
0.00154171
0.001527
0.00150493
0.00147816
0.00144961
0.00142168
0.00139529
0.00137068
0.00134817
0.00132793
0.00130927
0.00129394
0.0012801
0.00126676
0.00125837
0.0011934
0.00109464
0.0010656
0.00101306
0.00118374
0.000358751
8.78169e-05
7.37793e-10
7.51213e-10
7.66883e-10
7.85147e-10
8.0616e-10
8.29873e-10
8.57789e-10
8.82373e-10
9.10779e-10
9.60231e-10
9.45082e-10
1.15867e-09
0.00211252
0.00208446
0.00152885
0.000935892
0.000687657
0.000710346
0.000748829
0.000781779
0.000814622
0.000848789
0.000869804
0.000882176
0.000883875
0.000881428
0.000875902
0.000867494
0.000856013
0.000841644
0.000824568
0.000805219
0.00078402
0.000761712
0.000739103
0.00071756
0.000698088
0.000680693
0.000665441
0.000652354
0.00064142
0.000632554
0.000624972
0.000619606
0.000637249
0.000688366
0.000754876
0.000835719
0.000917409
0.00102394
0.000851952
0.00195821
0.00176129
0.00165538
0.00158257
0.00151458
0.00145373
0.0014034
0.0013578
0.00131772
0.00128512
0.00125945
0.00123968
0.00122491
0.0012146
0.0012086
0.00120684
0.00120904
0.00121432
0.00122546
0.00123868
0.00124864
0.00124135
0.00121118
0.00114356
0.00122113
0.000544897
4.06545e-07
9.81076e-08
7.55519e-10
7.70614e-10
7.88269e-10
8.08642e-10
8.3167e-10
8.58657e-10
8.8327e-10
9.09151e-10
9.63062e-10
9.44405e-10
1.03803e-09
0.00171883
0.000954045
0.00065897
0.000390165
0.000344758
0.000361474
0.000378311
0.000387541
0.000394946
0.000402554
0.000403801
0.000402351
0.000399475
0.00039597
0.000392789
0.000390251
0.000387513
0.000384599
0.000381292
0.000377442
0.00037292
0.000367946
0.000362709
0.000357427
0.000352182
0.000347267
0.00034303
0.000339529
0.000336792
0.000334803
0.000333243
0.00033224
0.000338525
0.000354924
0.000386711
0.000409387
0.000444777
0.000456146
0.000633289
0.0011752
0.00106901
0.000919145
0.000819283
0.000730321
0.000649594
0.000593175
0.000551836
0.000523607
0.000512329
0.000513639
0.000522805
0.00053765
0.000557021
0.000582013
0.000612468
0.000643268
0.000676381
0.000710647
0.000764344
0.000858219
0.00094864
0.00101131
0.00102661
0.00111916
0.000714751
1.40743e-06
3.4546e-07
7.59995e-10
7.74494e-10
7.91518e-10
8.11224e-10
8.33542e-10
8.59558e-10
8.84168e-10
9.08298e-10
9.62288e-10
9.48707e-10
9.78714e-10
0.000208601
0.000398465
0.000499884
0.000475383
0.000595965
0.00061676
0.000633204
0.000641375
0.000642584
0.000639171
0.000631047
0.000618865
0.000604715
0.00058935
0.000572941
0.000556354
0.000539772
0.000523303
0.000507173
0.000491502
0.000476351
0.000461822
0.000448139
0.000435626
0.000424298
0.000413871
0.000404469
0.000396133
0.000388812
0.000382432
0.000376785
0.000370656
0.000355939
0.000319467
0.000323482
0.000211689
0.000397043
0.000426218
0.000422895
0.000419293
0.00038562
0.000369373
0.000360645
0.000356106
0.000352074
0.000343529
0.000337066
0.000330918
0.000326014
0.000324504
0.000324696
0.000326561
0.000331241
0.000337008
0.000344047
0.000353177
0.000364619
0.000377428
0.000403537
0.000435321
0.000275084
0.000510599
0.000647508
0.000805475
0.000729099
2.73051e-06
6.81509e-07
7.64638e-10
7.78525e-10
7.94897e-10
8.13914e-10
8.35508e-10
8.60534e-10
8.84963e-10
9.08133e-10
9.59232e-10
9.54015e-10
9.52733e-10
0.000411073
0.000544699
0.0012484
0.00147325
0.00151494
0.00154487
0.00157089
0.00159104
0.00160332
0.00160795
0.00160567
0.00159728
0.00158383
0.00156621
0.00154502
0.00152077
0.00149386
0.00146467
0.00143358
0.001401
0.00136742
0.0013333
0.00129912
0.00126551
0.00123322
0.00120282
0.00117467
0.0011489
0.0011255
0.00110439
0.00108547
0.00106864
0.00105256
0.00102533
0.00098524
0.00092753
0.000853293
0.000772248
0.000707491
0.000553649
0.0004539
0.000359773
0.000534822
0.000620594
0.000679181
0.000706494
0.000716601
0.000716059
0.000709191
0.000699468
0.000688363
0.000676643
0.000667463
0.000654884
0.000638454
0.000626368
0.000617809
0.000610811
0.000630223
0.000581545
0.000498195
0.000505414
0.000554618
0.000631385
0.000710798
5.01067e-06
1.27126e-06
7.69445e-10
7.82704e-10
7.98408e-10
8.16716e-10
8.37569e-10
8.61613e-10
8.85664e-10
9.08369e-10
9.5525e-10
9.57855e-10
9.43891e-10
0.000997985
0.00143117
0.00146798
0.00143408
0.00145081
0.00147266
0.00149296
0.00151018
0.00152218
0.00152846
0.00152958
0.00152607
0.00151835
0.00150702
0.00149254
0.0014751
0.00145494
0.00143228
0.00140735
0.00138044
0.00135192
0.00132222
0.00129175
0.00126112
0.00123117
0.00120265
0.00117593
0.00115123
0.00112863
0.00110812
0.00108975
0.00107356
0.00106238
0.00105271
0.00103943
0.00102022
0.000989859
0.000929663
0.000849244
0.00120502
0.00119634
0.001211
0.00122706
0.00122936
0.00122301
0.00120662
0.00118356
0.00115819
0.00113298
0.00110922
0.00108723
0.00106675
0.00105678
0.00103654
0.00099804
0.000985395
0.000985876
0.000975047
0.000965404
0.000939099
0.000910154
0.000846441
0.000773682
0.000732027
0.000774734
9.64223e-06
2.48591e-06
7.74412e-10
7.87031e-10
8.02052e-10
8.19632e-10
8.39728e-10
8.62805e-10
8.86323e-10
9.0876e-10
9.51209e-10
9.5947e-10
9.42925e-10
0.0014342
0.00124164
0.000842567
0.000739694
0.000739168
0.000748595
0.000757217
0.000764069
0.000769606
0.000773577
0.000775602
0.000775962
0.000774869
0.000772462
0.000768813
0.000763958
0.000757841
0.000750513
0.000741944
0.000732199
0.000721355
0.000709628
0.000697224
0.000684479
0.000671788
0.000659496
0.000647804
0.000636865
0.000626783
0.000617625
0.000610471
0.000603161
0.000600611
0.000624097
0.00065479
0.000687272
0.000734246
0.000770846
0.000772562
0.0012952
0.00118531
0.0011245
0.00107939
0.00103431
0.000998471
0.000968725
0.000938494
0.000911278
0.000888812
0.000870589
0.000855676
0.000843394
0.0008333
0.000827311
0.000822906
0.000818518
0.000816231
0.000816176
0.000822587
0.000838783
0.000848477
0.000847143
0.000838548
0.000794532
0.000818494
1.74454e-05
4.56903e-06
7.79533e-10
7.91502e-10
8.05829e-10
8.22668e-10
8.41986e-10
8.64108e-10
8.86989e-10
9.09162e-10
9.47499e-10
9.59191e-10
9.4482e-10
0.000983764
0.000310995
0.000337427
0.000280983
0.000283144
0.000290161
0.000294117
0.000294128
0.000293483
0.000292787
0.000289803
0.000286452
0.00028411
0.000281779
0.000280207
0.000279733
0.000279677
0.000280171
0.000280977
0.000281887
0.000282646
0.000283256
0.00028365
0.000283433
0.000282228
0.000280625
0.000279019
0.000277484
0.000276076
0.000274837
0.000274273
0.000273441
0.000274595
0.000287603
0.000304002
0.000324209
0.000229155
0.000426226
0.000549745
0.000668893
0.000639931
0.000505777
0.000395994
0.000300134
0.000221328
0.000179311
0.00014595
0.000113953
0.000102244
0.000109442
0.000124199
0.000142203
0.00016187
0.00018276
0.000204195
0.000226914
0.000250937
0.000275118
0.000302893
0.000362706
0.000451019
0.000545682
0.000623601
0.000649807
0.000743239
2.80127e-05
7.45057e-06
7.84797e-10
7.96114e-10
8.09736e-10
8.25822e-10
8.44347e-10
8.65522e-10
8.87692e-10
9.09516e-10
9.44222e-10
9.57722e-10
9.47185e-10
0.000424989
0.000211305
0.000335357
0.000345546
0.000354689
0.000363975
0.00036889
0.000368367
0.000366157
0.000363318
0.000357312
0.000350583
0.000345068
0.00033948
0.000334889
0.000331772
0.000329351
0.000327797
0.000326866
0.000326287
0.000325734
0.000325204
0.000324548
0.000323176
0.000320547
0.000317411
0.000314357
0.00031146
0.000308784
0.000306359
0.000304863
0.000303376
0.000301779
0.000295953
0.000283326
0.00026414
0.000266353
0.000290365
0.000236789
0.000244437
0.000243665
0.000230799
0.000214739
0.00020671
0.000202595
0.000199898
0.000198795
0.000197039
0.000195503
0.000195657
0.000196154
0.000196953
0.00019849
0.000200524
0.000203139
0.000206499
0.000210678
0.000215526
0.000221672
0.000233939
0.000255596
0.000278293
0.000168645
0.00031482
0.00053634
3.81049e-05
1.02885e-05
7.90195e-10
8.00858e-10
8.13772e-10
8.29097e-10
8.46813e-10
8.67045e-10
8.88452e-10
9.09816e-10
9.41354e-10
9.55687e-10
9.4913e-10
0.000326235
0.000485001
0.000865819
0.000889738
0.000903589
0.000914317
0.000923324
0.000930001
0.000933721
0.000934829
0.000933875
0.000930986
0.000926485
0.000920708
0.000913753
0.000905673
0.000896514
0.000886242
0.000874849
0.000862328
0.000848717
0.000834082
0.000818536
0.000802376
0.000786084
0.000770062
0.000754584
0.000739873
0.000726074
0.000713284
0.000703059
0.000693229
0.000683526
0.000664705
0.00063124
0.000583979
0.000534875
0.000447149
0.000395839
0.000424983
0.000164757
0.000330769
0.000414575
0.000459767
0.000487237
0.000502135
0.000511147
0.000515835
0.000517062
0.000516343
0.000514206
0.000510952
0.000506929
0.000502364
0.000497385
0.000492193
0.000486948
0.000481891
0.000476764
0.00046383
0.000446938
0.000390656
0.000337143
0.000320171
0.000463245
6.39486e-05
1.75242e-05
7.95715e-10
8.05726e-10
8.17931e-10
8.32489e-10
8.49385e-10
8.68678e-10
8.8928e-10
9.10079e-10
9.38849e-10
9.53496e-10
9.50485e-10
0.000772352
0.00101894
0.00108061
0.00107702
0.00108755
0.00109788
0.00110716
0.00111462
0.00111945
0.00112164
0.0011216
0.0011196
0.00111593
0.0011109
0.00110464
0.0010972
0.00108859
0.00107879
0.00106772
0.00105533
0.00104162
0.00102658
0.00101025
0.000992849
0.000974893
0.000956895
0.000939205
0.000922119
0.000905861
0.000890607
0.000876451
0.000863423
0.000852658
0.00084203
0.000823833
0.000799552
0.000763621
0.000688733
0.00061193
0.000901361
0.000884708
0.000899875
0.000913934
0.000915684
0.000910395
0.00090169
0.00089128
0.000880023
0.000868296
0.00085637
0.000844396
0.000832509
0.000820897
0.000809683
0.000798949
0.000788785
0.000779273
0.000770475
0.00076244
0.00075446
0.000733306
0.000695981
0.000660932
0.000592396
0.000579644
0.000141992
3.96818e-05
8.01342e-10
8.10709e-10
8.22208e-10
8.35996e-10
8.52065e-10
8.70422e-10
8.90184e-10
9.10329e-10
9.36666e-10
9.5137e-10
9.51341e-10
0.00102552
0.000904098
0.000732045
0.000703626
0.000706041
0.000712075
0.000717848
0.000722716
0.000726322
0.000728453
0.000729291
0.000729095
0.000727971
0.000726055
0.00072346
0.000720154
0.000716138
0.000711377
0.000705795
0.00069935
0.000692007
0.000683743
0.000674566
0.000664604
0.000654137
0.000643495
0.000632963
0.000622645
0.000612757
0.000603409
0.000594682
0.000586565
0.000580282
0.000582247
0.000594837
0.000613228
0.00062902
0.000631114
0.000611618
0.000933652
0.000878381
0.00084738
0.000826866
0.000800348
0.000771855
0.000747275
0.000724916
0.000704844
0.000687367
0.000671992
0.000658647
0.000647254
0.000637485
0.000629127
0.00062201
0.000616021
0.000611176
0.00060752
0.000605147
0.000608694
0.000621353
0.000627742
0.000632516
0.000615897
0.000619387
0.000260077
9.73905e-06
2.6816e-06
8.15796e-10
8.26594e-10
8.39614e-10
8.54851e-10
8.72279e-10
8.91174e-10
9.10592e-10
9.34784e-10
9.4941e-10
9.51839e-10
0.000681719
0.000329822
0.000304319
0.000272358
0.00027549
0.000281053
0.000283726
0.000282615
0.000280707
0.000278583
0.000274067
0.000269076
0.000265156
0.000261176
0.000258107
0.000256468
0.000255577
0.0002557
0.000256623
0.000258117
0.000259912
0.000261894
0.000263912
0.000265213
0.000265125
0.000264329
0.000263429
0.00026244
0.000261432
0.000260455
0.000259551
0.00025871
0.000258501
0.000261849
0.000271652
0.000140156
0.000285095
0.000398307
0.000459759
0.000465058
0.000468794
0.000395269
0.000343411
0.000299897
0.000255586
0.000214751
0.000177294
0.000141739
0.000108395
7.70071e-05
4.87456e-05
2.99829e-05
2.96568e-05
4.34849e-05
6.08602e-05
7.88862e-05
9.71407e-05
0.000115519
0.000131362
0.000152511
0.000224996
0.000306386
0.000385309
0.000439638
0.000502069
0.000349853
3.2287e-05
9.02092e-06
8.20973e-10
8.31081e-10
8.43338e-10
8.57742e-10
8.74248e-10
8.92256e-10
9.10894e-10
9.33186e-10
9.4766e-10
9.52099e-10
0.000296682
0.000158279
0.000186646
0.000186339
0.000189666
0.000192627
0.000193058
0.000190645
0.000187636
0.0001847
0.000180224
0.000175446
0.000171509
0.00016763
0.00016443
0.000162303
0.000160787
0.000160061
0.000160018
0.000160494
0.000161309
0.000162378
0.000163626
0.000164504
0.000164422
0.000163834
0.000163168
0.000162468
0.000161766
0.000161082
0.000160454
0.000159901
0.000159261
0.000157205
0.00014886
0.000148854
0.000175115
0.000207335
0.000202463
0.000172782
0.000175453
0.000157864
0.000141117
0.00013147
0.000123741
0.000116044
0.000111249
0.000107865
0.000105086
0.000103229
0.000101925
0.000101478
0.000101933
0.000102917
0.000104408
0.000106332
0.000108695
0.00011149
0.000114206
0.000117942
0.000130808
0.000152164
0.000169532
0.000196581
0.000243384
0.000311907
6.37174e-05
1.80584e-05
8.26227e-10
8.35659e-10
8.47162e-10
8.60737e-10
8.76329e-10
8.93438e-10
9.11257e-10
9.31863e-10
9.46135e-10
9.52209e-10
0.00022825
0.000270848
0.000477006
0.000475609
0.000479589
0.000480868
0.00048085
0.000479811
0.000478006
0.000475918
0.00047344
0.000470503
0.000467419
0.000464226
0.000460872
0.000457432
0.000453907
0.000450209
0.000446328
0.000442198
0.000437774
0.00043298
0.000427803
0.000422302
0.000416474
0.000410375
0.000404159
0.000397986
0.000391951
0.000386132
0.000380607
0.000375424
0.000370208
0.000361895
0.000339457
0.000303827
0.000260396
0.000190736
0.000206005
0.000321742
0.00026087
0.000100318
0.000143413
0.000170572
0.00019744
0.000218341
0.000235574
0.000249868
0.000260712
0.000267595
0.000271503
0.000273548
0.000274435
0.000274562
0.000274047
0.000273051
0.000271643
0.000269929
0.000267875
0.000264731
0.000247367
0.000231979
0.000175123
0.000100627
0.000127453
0.000260383
0.000115668
3.65444e-05
8.31544e-10
8.40316e-10
8.51076e-10
8.63832e-10
8.78523e-10
8.94724e-10
9.11701e-10
9.30807e-10
9.44837e-10
9.52227e-10
0.000566204
0.0007399
0.000792808
0.00078801
0.000791021
0.0007941
0.000796319
0.000797753
0.00079819
0.000797753
0.000796549
0.000794597
0.000792118
0.000789212
0.000785876
0.000782177
0.000778101
0.000773573
0.000768541
0.000762921
0.000756621
0.00074954
0.000741606
0.000732839
0.000723372
0.000713398
0.000703165
0.000692884
0.000682713
0.000672781
0.000663215
0.000654138
0.000645629
0.000637728
0.000622761
0.000598909
0.000561743
0.000514218
0.000444072
0.000701322
0.000690088
0.000692133
0.00068753
0.000678863
0.000671157
0.000664089
0.000657438
0.000651381
0.000646034
0.000640269
0.000634164
0.000628173
0.000622305
0.000616487
0.000610686
0.000604901
0.00059916
0.000593502
0.000587985
0.00058288
0.000572026
0.000549953
0.000515969
0.000475485
0.000436555
0.000410258
0.000259512
3.73851e-05
1.06504e-05
8.4504e-10
8.55074e-10
8.67021e-10
8.80826e-10
8.96122e-10
9.12243e-10
9.30007e-10
9.43763e-10
9.52192e-10
0.0008095
0.000727422
0.000651735
0.000651351
0.00065177
0.000655244
0.000658706
0.000661679
0.00066383
0.000664993
0.000665405
0.000665217
0.000664427
0.000663174
0.000661546
0.000659509
0.000657072
0.000654225
0.000650879
0.000646997
0.000642487
0.000637265
0.000631251
0.000624388
0.000616894
0.000609018
0.000600898
0.000592648
0.000584415
0.000576301
0.00056844
0.000560895
0.000553724
0.00054955
0.000550523
0.000551088
0.00054624
0.000530423
0.000492789
0.000773738
0.000735415
0.000714841
0.000695541
0.000677732
0.000662893
0.000650354
0.000638961
0.000628788
0.000620316
0.000611819
0.000603171
0.000595475
0.000588364
0.000581633
0.000575264
0.000569262
0.000563679
0.000558567
0.000553963
0.000551384
0.000552398
0.00055167
0.000544386
0.000532426
0.000512407
0.000481494
0.000402149
0.000108585
3.1795e-05
8.49817e-10
8.59143e-10
8.70299e-10
8.83236e-10
8.97635e-10
9.12897e-10
9.29456e-10
9.42907e-10
9.52126e-10
0.000609734
0.000368726
0.000205588
0.000214503
0.000213626
0.000218581
0.000223896
0.000227201
0.000229454
0.000230888
0.000231304
0.000231082
0.000230526
0.000229701
0.000228792
0.000227788
0.000226752
0.000225679
0.00022463
0.000223587
0.000222605
0.000221687
0.000220851
0.000220014
0.000219108
0.000218103
0.000217013
0.000215787
0.000214451
0.000213017
0.00021147
0.000209874
0.000207461
0.000207322
0.000233507
0.000277485
0.000330064
0.000377042
0.000395143
0.000419441
0.000399992
0.000339071
0.000339238
0.000339802
0.000333902
0.000325139
0.000315811
0.000307127
0.000299276
0.000292644
0.000286544
0.000281101
0.000276269
0.000272011
0.000268415
0.000265609
0.000263709
0.000262752
0.000262508
0.000263668
0.000278248
0.000312659
0.000349572
0.000384078
0.000410408
0.000420011
0.000420192
0.000199793
1.27777e-05
3.66056e-06
8.63274e-10
8.7366e-10
8.85748e-10
8.99263e-10
9.13673e-10
9.29139e-10
9.42259e-10
9.5205e-10
0.000267218
0.000138119
8.0811e-05
8.42681e-05
8.45608e-05
8.74879e-05
8.9683e-05
8.99313e-05
8.95968e-05
8.89998e-05
8.7269e-05
8.5171e-05
8.33447e-05
8.14057e-05
7.97752e-05
7.86898e-05
7.79398e-05
7.76701e-05
7.78722e-05
7.84949e-05
7.94629e-05
8.07748e-05
8.23923e-05
8.39204e-05
8.4927e-05
8.56569e-05
8.63663e-05
8.70203e-05
8.76206e-05
8.81545e-05
8.86066e-05
8.90052e-05
8.90166e-05
8.99665e-05
0.000102443
0.000123032
0.000148334
5.3837e-05
0.000215782
0.000157661
0.000151328
0.000132608
0.000129844
0.000130672
0.000129155
0.000124434
0.000120475
0.000116735
0.000112862
0.000110037
0.000107442
0.000105192
0.000103487
0.000102077
0.000101078
0.000100468
0.000100278
0.000100489
0.000100975
0.000101961
0.000108029
0.000121745
0.000136258
0.000160765
0.000180091
0.000251992
0.000319625
0.000254023
4.86617e-05
1.41376e-05
8.67456e-10
8.77094e-10
8.88358e-10
9.01008e-10
9.14578e-10
9.29048e-10
9.41808e-10
9.51982e-10
0.000121055
0.000190839
0.000212909
0.000209654
0.00021254
0.000215905
0.000216252
0.000213392
0.000209881
0.0002064
0.000201101
0.000195378
0.00019052
0.000185532
0.000181253
0.000178285
0.00017606
0.000174971
0.000174927
0.000175815
0.00017739
0.00017961
0.000182348
0.000184652
0.000185522
0.000185671
0.000185746
0.000185755
0.00018571
0.000185603
0.000185463
0.000185331
0.000185232
0.00018526
0.000183026
0.0001766
0.000164499
0.000151993
0.000161739
0.000196199
0.000157906
0.000165548
0.000161284
0.000163078
0.000164927
0.000163698
0.000163383
0.000162708
0.000161036
0.000159934
0.000158671
0.000157356
0.000156417
0.000155497
0.000154746
0.000154084
0.000153496
0.00015292
0.000152336
0.000151669
0.000150599
0.000144954
0.000135196
0.000123824
0.000134535
0.000148309
0.000140454
0.000218238
9.2781e-05
3.10278e-05
8.71675e-10
8.80594e-10
8.91059e-10
9.02867e-10
9.15614e-10
9.29169e-10
9.41541e-10
9.51937e-10
0.000323725
0.000508157
0.000539563
0.00053116
0.000533948
0.000535965
0.000536108
0.000535273
0.000533817
0.000532081
0.000530273
0.00052832
0.000526275
0.000524209
0.000522074
0.000519867
0.000517579
0.000515152
0.000512547
0.00050971
0.000506576
0.000503068
0.000499119
0.000494734
0.000489984
0.000484924
0.000479628
0.000474169
0.000468604
0.000462994
0.000457407
0.000451921
0.000446623
0.000441738
0.000431588
0.000411824
0.00037941
0.000342195
0.00029217
0.000438972
0.000417843
0.00042424
0.000423056
0.000426382
0.000429359
0.000431513
0.00043283
0.000433403
0.000433194
0.000432339
0.000430962
0.000429146
0.00042698
0.00042453
0.000421845
0.00041896
0.000415919
0.000412756
0.00040952
0.00040628
0.000402579
0.000387117
0.000361459
0.00033015
0.000302247
0.000262447
0.000223708
0.000246055