/*--------------------------------*- C++ -*----------------------------------*\
| =========                 |                                                 |
| \\      /  F ield         | OpenFOAM: The Open Source CFD Toolbox           |
|  \\    /   O peration     | Version:  2312                                  |
|   \\  /    A nd           | Website:  www.openfoam.com                      |
|    \\/     M anipulation  |                                                 |
\*---------------------------------------------------------------------------*/
FoamFile
{
    version     2.0;
    format      ascii;
    arch        "LSB;label=32;scalar=64";
    class       volScalarField;
    location    "500";
    object      turbulenceProperties:nuEff;
}
// * * * * * * * * * * * * * * * * * * * * * * * * * * * * * * * * * * * * * //

dimensions      [0 2 -1 0 0 0 0];

internalField   nonuniform List<scalar> 
10720
(
9.07557e-05
0.00012189
0.000154427
0.000160176
0.000146022
0.000132407
0.000126979
0.000130118
0.00014286
0.000166173
0.000203619
0.000265268
0.000365685
0.000539046
0.000880289
0.00158137
0.0029567
0.00638493
0.0129291
0.0219364
0.0359744
0.0634336
0.125776
0.257766
0.461906
0.655286
1.32577
2.21223
1.55993
0.563377
0.170947
0.0198132
0.00388598
0.000579482
1e-05
1e-05
1.13395e-05
0.000207599
0.00686329
0.000102155
9.89566e-05
8.22462e-05
0.00016449
6.36425e-05
0.000117251
0.000164409
0.000201717
0.000216803
0.00020808
0.000203763
0.000213387
0.00023984
0.000301025
0.000397972
0.00063741
0.000988505
0.00289368
0.00315218
0.00365037
0.00471725
0.00690328
0.00860752
0.0115167
0.0150901
0.018983
0.0156052
0.00841533
0.00316566
0.000812604
0.000102898
1.54449e-05
1.14913e-05
1.06761e-05
1.02923e-05
1.01182e-05
1e-05
0.00573785
0.353178
0.00014655
0.000247554
0.000303544
0.00021607
0.000132795
8.55318e-05
6.40045e-05
5.43566e-05
5.07666e-05
5.04096e-05
5.24208e-05
5.49506e-05
7.13439e-05
0.00012711
0.000286885
0.000718482
0.00165882
0.00387959
0.00863918
0.0167638
0.0288055
0.0471719
0.0791771
0.149906
0.483039
0.573168
1.39988
1.50855
1.30654
1.80123
1.10613
0.277991
0.0736354
0.0105645
0.000179422
1e-05
1e-05
9.44446e-05
0.0096421
7.37895e-05
1.47067e-05
6.07308e-05
0.000104684
0.000105256
9.47904e-05
6.28398e-05
6.14378e-05
7.23844e-05
8.80821e-05
9.93642e-05
9.97409e-05
0.000111255
0.000130533
5.25064e-05
0.00131831
0.00221903
0.000292444
0.0104943
0.00362937
0.000497838
0.0349673
0.00567638
0.000418374
0.00599391
0.000238919
0.000352769
0.000407612
0.000244114
0.00021377
0.000129206
6.82041e-05
3.58616e-05
2.07744e-05
1.42974e-05
1.16273e-05
1.00293e-05
0.00450488
0.298052
1.10909e-05
9.07543e-05
9.01683e-05
9.109e-05
9.37841e-05
9.81794e-05
0.00010458
0.000112163
0.000120468
0.000128916
0.000137281
0.000145482
0.000152466
0.000156691
0.000164879
0.000206928
0.000326541
0.000773065
0.00205634
0.00514279
0.011671
0.0256018
0.0587763
0.192218
0.304897
0.605231
1.03058
0.907204
0.573946
0.472059
0.441098
0.297523
0.079781
0.0125167
0.00094593
0.00011723
1e-05
7.70642e-05
0.0125415
0.000117698
0.000144102
0.000156173
0.000134355
0.000107588
9.91604e-05
0.000104191
0.000112794
0.000125834
2.27693e-05
0.000146164
0.000220869
0.000281145
0.000363092
0.000472682
0.000499691
0.00038377
4.12073e-05
2.30933e-05
4.35235e-05
0.00128798
6.49787e-05
0.00277568
0.0043339
7.59836e-05
0.00203469
0.00235681
0.00218918
0.00120219
0.000968364
0.000604153
0.000267122
0.000126537
6.94774e-05
4.16809e-05
5.51448e-05
1e-05
0.0119816
0.982979
0.000231646
0.000228665
0.000228511
0.00023301
0.000236133
0.000239974
0.000248502
0.000259837
0.000274375
0.000292932
0.000315894
0.000344196
0.000379816
0.000425025
0.000482014
0.000558731
0.000647741
0.000727758
0.000561247
0.000188633
1e-05
1e-05
1e-05
0.000117667
0.00287966
1.00003e-05
1e-05
1e-05
1.00001e-05
1.0001e-05
1.00663e-05
8.13056e-05
0.0185116
0.0190696
0.006978
0.00107659
0.00040825
0.000375711
0.0588863
0.000265873
0.000219892
0.000196482
0.000200587
0.000208154
0.000188699
0.000190426
0.000190834
0.000192561
0.000196471
0.000215826
0.000234762
0.000248985
0.000263534
0.000283605
0.000288019
0.000272132
6.42085e-05
0.000136412
0.000214658
0.000302657
0.000347949
0.00039384
0.00040786
0.00036905
0.000344765
0.000308466
0.000311732
0.000306923
0.000304868
0.000302369
0.000295611
0.000281434
0.000262999
0.00019418
0.000364705
1.68135e-05
0.0153277
3.91571
0.000439694
0.000434569
0.000437896
0.000445267
0.000456042
0.000473569
0.000495841
0.000524016
0.000559029
0.000600635
0.000648573
0.000703478
0.000764863
0.000829014
0.000895236
0.000963092
0.00103931
0.00113188
0.001247
0.000980636
0.000273667
0.000113885
1e-05
1e-05
0.00065629
1.00001e-05
1e-05
1e-05
1e-05
1e-05
1e-05
1.00002e-05
1.00326e-05
1e-05
0.00614388
0.00574575
0.00238182
0.000531457
0.0598161
0.00042418
0.000423567
0.000179759
0.000254221
0.000455061
0.000486796
0.000524727
0.000570389
0.00062937
0.000707737
0.000809801
0.000939509
0.00110303
0.00118831
0.0011642
0.00114161
0.00110457
0.00105978
0.00101596
0.00097735
0.000943466
0.000981627
0.000935541
0.000811202
0.000778914
0.000750637
0.000724367
0.00070109
0.000681213
0.000663157
0.000642085
0.000617542
0.000594963
0.000588983
0.000499991
0.00064347
2.24288e-05
0.0220928
2.89217
0.000471499
0.000687574
0.000520384
0.00041389
0.000322016
0.000247296
0.000194005
0.000157881
0.000136858
0.000129656
0.000134948
0.000149271
0.000177402
0.000221713
0.000278695
0.000352327
0.000438426
0.000569782
0.000783975
0.000985397
0.00110539
0.000551018
0.000165458
9.51451e-05
1e-05
1e-05
1e-05
1e-05
1e-05
1e-05
1e-05
1e-05
1e-05
1e-05
1e-05
1e-05
1e-05
1.00003e-05
1.01178e-05
0.000239973
0.000229286
0.000638844
0.000857716
0.000897841
0.000948566
0.00100991
0.0010874
0.00118843
0.00132075
0.00149028
0.00170247
0.00196453
0.00197403
0.00198594
0.00200121
0.00196872
0.00192516
0.00189452
0.001865
0.00183414
0.00180088
0.00177408
0.00174201
0.00170434
0.00166277
0.00162209
0.00158218
0.00154466
0.00151277
0.00148542
0.00144777
0.00139004
0.0013359
0.0012066
0.00116998
3.31508e-05
0.0145799
1.48469
0.000188694
0.000185487
0.000187578
0.000180182
0.000180511
0.000183563
0.000185206
0.000189772
0.000195467
0.00020169
0.000209786
0.000218597
0.00022899
0.000241834
0.000256377
0.000273493
0.000292789
1.45716e-05
7.18672e-05
0.000203767
0.000414328
0.000607947
0.000667325
0.000440303
0.000229717
1e-05
1e-05
1e-05
1e-05
1e-05
1e-05
1e-05
1e-05
1e-05
1e-05
1e-05
1e-05
1e-05
1.00001e-05
0.000243743
0.0012675
0.00148368
0.00153567
0.00128843
0.000980593
0.000983806
0.00100725
0.00103398
0.00107061
0.0011117
0.00115693
0.00120725
0.00126224
0.00131724
0.0013817
0.0014267
0.00143998
0.0014367
0.00142419
0.00140491
0.00138047
0.00135199
0.00132064
0.0012863
0.00125126
0.00121918
0.00118908
0.00116214
0.00113958
0.00112274
0.00111571
0.0011121
0.00110702
0.00109008
0.00122345
3.57271e-05
0.00928471
0.607675
0.000848052
0.000855128
0.000940583
0.00100349
0.00106386
0.00112604
0.00118075
0.00122669
0.00126373
0.00129213
0.00131312
0.00132702
0.00133424
0.00133543
0.00133093
0.00132085
0.0013047
0.00127036
0.00126868
0.0011221
0.000924168
0.000910202
0.000959909
0.000942283
0.00102303
1e-05
1e-05
1e-05
1e-05
1e-05
1e-05
1e-05
1e-05
1e-05
1e-05
1e-05
1e-05
1e-05
1e-05
0.00172999
0.00181215
0.00110023
0.000441834
4.63391e-05
0.000150437
0.000149515
0.000153566
0.000158982
1.56406e-05
4.69884e-05
8.36572e-05
0.000126209
0.000174765
0.000231054
0.000289743
0.000325953
0.00034299
0.000349031
0.000347958
0.000341994
0.000332809
0.000321668
0.00031
0.000299058
0.000289247
0.000280947
0.000274188
0.000269315
0.000266142
0.000264361
0.000270734
0.000296013
0.000338271
0.00037988
0.000619557
2.36415e-05
0.00405815
0.22688
0.00182163
0.0016442
0.0016353
0.00161376
0.00158953
0.00157353
0.00156136
0.00154736
0.00153505
0.00152831
0.00152567
0.00152445
0.00152465
0.00152739
0.00153194
0.00153788
0.0015443
0.00154453
0.00156179
0.00155599
0.00145663
0.00133019
0.00126112
0.00113525
0.00139243
1.00001e-05
1e-05
1e-05
1e-05
1e-05
1e-05
1e-05
1e-05
1e-05
1e-05
1e-05
1e-05
1e-05
1e-05
0.00147492
0.000543514
0.000222583
8.58551e-05
6.48518e-05
6.46137e-05
6.46472e-05
6.34008e-05
6.20781e-05
6.16774e-05
6.46924e-05
6.85982e-05
7.41993e-05
8.11815e-05
8.9898e-05
9.97349e-05
0.000106509
0.000110817
0.000113657
0.000115466
0.000116445
0.000116777
0.000116523
0.00011584
0.000114993
0.000114158
0.000113493
0.000113033
0.000112888
0.000113017
0.000113314
0.000115266
0.000119669
0.00012664
0.000137838
0.00018372
3.78237e-05
0.000993082
0.0510061
0.00092781
0.000892695
0.000790743
0.000703407
0.00064171
0.000602126
0.000571665
0.000544933
0.000526123
0.000521919
0.000526072
0.000531683
0.000543466
0.000566049
0.000597278
0.000637765
0.000682688
0.000733417
0.000835521
0.000974621
0.00107746
0.00112277
0.00115452
0.00108614
0.00132902
1.00006e-05
1e-05
1e-05
1e-05
1e-05
1e-05
1e-05
1e-05
1e-05
1e-05
1e-05
1e-05
1e-05
1e-05
0.000184353
9.9629e-05
0.000101436
0.000147508
0.000382582
0.00040535
0.000399876
0.000392635
0.000384418
0.000375077
0.000364699
0.000353204
0.000343481
0.000334327
0.000324694
0.000315101
0.00030589
0.00029807
0.00029139
0.000285577
0.000280376
0.000275528
0.000270496
0.000265402
0.000260682
0.000256178
0.000251943
0.000247902
0.000244141
0.000240571
0.000236917
0.000232714
0.000219261
0.000198985
0.000199474
0.000138419
0.000140007
6.8352e-05
0.00152474
0.00012511
2.29978e-05
0.000117495
0.000102083
9.57289e-05
9.64062e-05
9.78181e-05
0.000100083
0.000102624
0.00010614
0.000111004
0.000115647
0.000120918
0.000128082
0.000136553
0.00015059
0.00015955
0.000165462
0.00019357
0.000108111
0.000272659
0.000433726
0.00059054
0.000652921
0.000970053
1.00024e-05
1e-05
1e-05
1e-05
1e-05
1e-05
1e-05
1e-05
1e-05
1e-05
1e-05
1e-05
1e-05
1e-05
6.7533e-05
2.46912e-05
0.000592592
0.000911299
0.00101243
0.00101084
0.00100409
0.000997498
0.000990394
0.000982633
0.000973852
0.000962832
0.000952036
0.000939843
0.000924517
0.000907673
0.000892308
0.000877981
0.000864282
0.000850797
0.000837148
0.000822475
0.000806556
0.000790418
0.000774911
0.000760112
0.000746257
0.000733024
0.000720741
0.000708976
0.000698013
0.000687734
0.000669761
0.000642262
0.0006059
0.000564685
0.000498221
0.000124463
0.000382336
0.000113687
8.01411e-05
9.03044e-05
9.57268e-05
0.000106336
4.11712e-05
8.33819e-05
0.000120014
0.000149556
0.000172685
0.000191514
0.000205448
0.000215191
0.000222754
0.000227702
0.000256286
0.000243031
0.000201979
0.000190867
0.00017199
0.000186068
0.000244186
0.000343088
0.000385583
0.000683945
1.00099e-05
1e-05
1e-05
1e-05
1e-05
1e-05
1e-05
1e-05
1e-05
1e-05
1e-05
1e-05
1e-05
1e-05
0.000301885
0.000845083
0.00101359
0.000800917
0.000696145
0.000693115
0.000691925
0.000692595
0.000694618
0.000697805
0.000700355
0.000700472
0.000699032
0.000696396
0.000690716
0.000684517
0.000677925
0.000670861
0.000663161
0.000654619
0.000644955
0.000634082
0.000622444
0.0006109
0.000599974
0.000589613
0.000579833
0.000570462
0.000561852
0.000553678
0.000546314
0.000541322
0.000540891
0.000541415
0.000540889
0.000531791
0.000513095
0.000479668
6.61074e-05
0.000558678
0.000565336
0.000617761
0.000677993
0.000720242
0.000763987
0.000800704
0.000827717
0.000846596
0.000859099
0.00086755
0.000873278
0.00087651
0.000877372
0.00087584
0.000871619
0.000868449
0.000863075
0.000853028
0.00084478
0.000759041
0.000634092
0.000590404
0.000519672
0.0006801
1.0057e-05
1e-05
1e-05
1e-05
1e-05
1e-05
1e-05
1e-05
1e-05
1e-05
1e-05
1e-05
1e-05
1e-05
0.000958074
0.000891133
0.000455225
0.000166016
8.90748e-05
8.938e-05
9.34566e-05
9.70114e-05
0.000101613
0.000107763
0.000112201
0.000115811
0.00011788
0.000119899
0.000121964
0.00012394
0.000125599
0.000126809
0.000127429
0.000127387
0.000126666
0.000125423
0.000123839
0.000122269
0.000120952
0.000119786
0.000118773
0.000117921
0.000117332
0.000117011
0.000116717
0.000116777
0.000124564
0.000145297
0.000174194
0.000212699
0.000254414
0.000315541
0.000209199
0.000903491
0.000774571
0.000731725
0.000716146
0.000700372
0.000688957
0.000683995
0.000679371
0.000676296
0.000676822
0.000680963
0.000688463
0.00069871
0.00071158
0.000727008
0.000745328
0.000766121
0.000787306
0.000811975
0.000835734
0.000850335
0.000835392
0.000783766
0.000682442
0.000750513
1.034e-05
1e-05
1e-05
1e-05
1e-05
1e-05
1e-05
1e-05
1e-05
1e-05
1e-05
1e-05
1e-05
1e-05
0.000667056
0.000203569
9.68557e-05
3.86443e-05
3.11343e-05
3.20003e-05
3.29302e-05
3.31218e-05
3.33552e-05
3.38814e-05
3.39275e-05
3.38983e-05
3.39044e-05
3.40033e-05
3.42803e-05
3.47585e-05
3.53193e-05
3.59505e-05
3.6597e-05
3.72195e-05
3.77882e-05
3.83079e-05
3.87794e-05
3.92146e-05
3.95986e-05
3.99412e-05
4.02864e-05
4.06359e-05
4.10152e-05
4.14332e-05
4.18127e-05
4.21964e-05
4.39063e-05
4.77116e-05
5.51577e-05
6.09347e-05
7.01242e-05
7.33721e-05
0.000125045
0.000344234
0.0003023
0.000240109
0.000204977
0.000174704
0.000148567
0.000132628
0.000122211
0.000116457
0.000117016
0.000122559
0.000131708
0.000144016
0.000159324
0.000178595
0.000202413
0.000227988
0.000256338
0.000286364
0.000333228
0.000419479
0.000508688
0.000569709
0.000573951
0.000659064
1.1561e-05
1e-05
1e-05
1e-05
1e-05
1e-05
1e-05
1e-05
1e-05
1e-05
1e-05
1e-05
1e-05
1e-05
2.01135e-05
4.52601e-05
6.25279e-05
5.50631e-05
7.73231e-05
7.86577e-05
7.92202e-05
7.85483e-05
7.71498e-05
7.55414e-05
7.36523e-05
7.15273e-05
6.94837e-05
6.75674e-05
6.57236e-05
6.40513e-05
6.25351e-05
6.11555e-05
5.99164e-05
5.88003e-05
5.77875e-05
5.68703e-05
5.60645e-05
5.54157e-05
5.48991e-05
5.44077e-05
5.39496e-05
5.35225e-05
5.3142e-05
5.28136e-05
5.24652e-05
5.18603e-05
4.91708e-05
4.19321e-05
4.30229e-05
2.42293e-05
6.00631e-05
6.77576e-05
6.37297e-05
5.44613e-05
4.96879e-05
4.86287e-05
4.91049e-05
5.03569e-05
5.17767e-05
5.20295e-05
5.25967e-05
5.31177e-05
5.38477e-05
5.54144e-05
5.74478e-05
5.99881e-05
6.34268e-05
6.72516e-05
7.15696e-05
7.67294e-05
8.28189e-05
8.94583e-05
0.000102052
0.000118002
5.31624e-05
0.000157516
0.00024302
0.000360742
1.44592e-05
1e-05
1e-05
1e-05
1e-05
1e-05
1e-05
1e-05
1e-05
1e-05
1e-05
1e-05
1e-05
1e-05
5.11151e-05
7.91046e-05
0.000356014
0.000469767
0.000474
0.000470914
0.00046727
0.000464031
0.000460888
0.000457837
0.000454943
0.000452107
0.000449344
0.000446617
0.000443793
0.000440825
0.000437668
0.000434266
0.000430597
0.000426636
0.000422421
0.000417986
0.000413345
0.000408622
0.000403965
0.000399277
0.000394564
0.000389777
0.000385077
0.000380588
0.000375964
0.000371493
0.000366057
0.000352052
0.000328653
0.000294202
0.000250694
0.000207305
0.000167368
9.08756e-05
6.70499e-05
4.78421e-05
9.84267e-05
0.000135527
0.000168508
0.000190485
0.000204868
0.000213942
0.000219394
0.000222856
0.000225095
0.000226442
0.000228751
0.000227985
0.000223823
0.000221797
0.000221195
0.000220563
0.000237621
0.000205937
0.000154463
0.000158203
0.000186278
0.000233526
2.1852e-05
1e-05
1e-05
1e-05
1e-05
1e-05
1e-05
1e-05
1e-05
1e-05
1e-05
1e-05
1e-05
1e-05
0.000262793
0.000509898
0.000513774
0.00046971
0.000460117
0.000454306
0.000449571
0.000446604
0.000444666
0.000443232
0.000442303
0.000441708
0.000441217
0.000440726
0.000440132
0.000439299
0.000438193
0.000436764
0.000434966
0.000432752
0.000430137
0.000427149
0.000423756
0.000420057
0.000416242
0.000412302
0.000408237
0.000404012
0.000399786
0.000395724
0.000391599
0.000387648
0.00038567
0.000383556
0.000377551
0.000366383
0.000345889
0.000306482
0.000246533
0.000405806
0.000417311
0.00044926
0.000485445
0.000511588
0.000531785
0.000543207
0.000547661
0.000549259
0.000549869
0.000550425
0.000551304
0.000552162
0.000562107
0.000559403
0.000535449
0.000537191
0.000551254
0.000550653
0.000549071
0.000526793
0.000499035
0.000433188
0.000360927
0.000319151
4.88759e-05
1e-05
1e-05
1e-05
1e-05
1e-05
1e-05
1e-05
1e-05
1e-05
1e-05
1e-05
1e-05
1e-05
0.000550241
0.000401827
0.000183412
0.000138063
0.000132716
0.000131035
0.000129656
0.00012863
0.000128189
0.00012817
0.000128376
0.000128788
0.000129359
0.000130037
0.000130766
0.000131514
0.000132237
0.000132923
0.00013353
0.000134034
0.000134411
0.000134675
0.000134815
0.000134863
0.000134854
0.00013476
0.000134565
0.000134259
0.000133885
0.000133511
0.000133527
0.00013305
0.000134024
0.00014568
0.000160784
0.000177212
0.000201157
0.000220787
0.000213516
0.000479293
0.000419196
0.00039682
0.000384839
0.000370913
0.000362864
0.000358302
0.000352365
0.000347866
0.000345928
0.000346149
0.000348016
0.000351098
0.000355013
0.000361356
0.000368364
0.000374855
0.00038228
0.000390451
0.000403567
0.000425347
0.00043911
0.000439212
0.000429006
0.000381956
0.000119242
1e-05
1e-05
1e-05
1e-05
1e-05
1e-05
1e-05
1e-05
1e-05
1e-05
1e-05
1e-05
1e-05
0.000272044
3.54834e-05
3.88985e-05
2.92561e-05
2.88291e-05
2.90877e-05
2.90165e-05
2.85704e-05
2.81909e-05
2.79351e-05
2.75148e-05
2.71486e-05
2.69809e-05
2.68774e-05
2.6918e-05
2.71428e-05
2.74736e-05
2.79319e-05
2.84944e-05
2.91387e-05
2.98325e-05
3.0575e-05
3.13501e-05
3.20862e-05
3.2698e-05
3.32416e-05
3.37582e-05
3.42437e-05
3.46995e-05
3.51354e-05
3.56385e-05
3.60195e-05
3.6693e-05
3.96881e-05
4.3508e-05
4.83788e-05
2.92157e-05
7.65088e-05
0.000116872
0.000138241
0.000132018
8.98997e-05
6.13998e-05
4.09039e-05
2.76086e-05
2.21074e-05
1.83918e-05
1.53468e-05
1.44908e-05
1.53558e-05
1.71652e-05
1.97389e-05
2.30551e-05
2.71757e-05
3.20879e-05
3.8062e-05
4.52206e-05
5.32962e-05
6.34976e-05
8.79767e-05
0.000131959
0.000189543
0.000244325
0.000262547
0.000190547
1e-05
1e-05
1e-05
1e-05
1e-05
1e-05
1e-05
1e-05
1e-05
1e-05
1e-05
1e-05
1e-05
6.04112e-05
2.2165e-05
3.95657e-05
4.02524e-05
4.0797e-05
4.1409e-05
4.13744e-05
4.06178e-05
3.98098e-05
3.91012e-05
3.80658e-05
3.70709e-05
3.63817e-05
3.5772e-05
3.53859e-05
3.52874e-05
3.53583e-05
3.56284e-05
3.60669e-05
3.66373e-05
3.7291e-05
3.80295e-05
3.88225e-05
3.95516e-05
4.00848e-05
4.0514e-05
4.09213e-05
4.13036e-05
4.16611e-05
4.20029e-05
4.24686e-05
4.2843e-05
4.3083e-05
4.22823e-05
3.991e-05
3.61964e-05
3.67191e-05
4.17822e-05
3.05129e-05
2.75646e-05
2.81196e-05
2.70027e-05
2.54138e-05
2.49239e-05
2.49985e-05
2.52723e-05
2.57715e-05
2.61579e-05
2.65562e-05
2.72209e-05
2.79435e-05
2.87242e-05
2.96494e-05
3.06785e-05
3.18493e-05
3.3222e-05
3.48077e-05
3.6561e-05
3.86604e-05
4.24788e-05
4.92743e-05
5.6913e-05
2.72593e-05
6.98855e-05
0.000148434
1e-05
1e-05
1e-05
1e-05
1e-05
1e-05
1e-05
1e-05
1e-05
1e-05
1e-05
1e-05
1e-05
4.06307e-05
7.61614e-05
0.000213789
0.000217986
0.000217839
0.000216608
0.000215322
0.000214189
0.000213057
0.000211966
0.000211036
0.000210165
0.000209324
0.000208526
0.000207712
0.000206857
0.000205959
0.000204989
0.000203931
0.000202765
0.000201487
0.000200101
0.000198598
0.000197016
0.00019544
0.000193844
0.000192214
0.000190563
0.000188897
0.00018728
0.000186491
0.000185346
0.000183654
0.000176736
0.000162133
0.000141302
0.000120593
8.74142e-05
6.91539e-05
6.45157e-05
1.84894e-05
4.57021e-05
6.86159e-05
8.5196e-05
9.81808e-05
0.000107729
0.000115471
0.000121723
0.000126546
0.000130438
0.000133608
0.000136153
0.000138169
0.000139699
0.000140837
0.000141726
0.00014231
0.000142573
0.000142412
0.000137599
0.000130146
0.000102629
7.92545e-05
7.23458e-05
0.000131104
1.00004e-05
1e-05
1e-05
1e-05
1e-05
1e-05
1e-05
1e-05
1e-05
1e-05
1e-05
1e-05
1e-05
0.000186896
0.000311065
0.000337922
0.000325578
0.000322414
0.000319634
0.00031731
0.000315686
0.000314462
0.000313462
0.00031274
0.000312209
0.000311784
0.000311438
0.000311108
0.000310737
0.000310312
0.000309801
0.000309158
0.000308355
0.000307381
0.000306242
0.000304902
0.000303369
0.000301741
0.0003
0.000298112
0.000296101
0.000293977
0.000291827
0.000289706
0.000287508
0.000285862
0.000283338
0.000274922
0.000261825
0.000240849
0.000198236
0.000155521
0.000261694
0.000260613
0.000279948
0.000300466
0.00031355
0.000322556
0.000329092
0.00033384
0.000337558
0.000340362
0.000342416
0.000343983
0.000345195
0.000346111
0.000346721
0.000347205
0.000347771
0.000348194
0.000348202
0.000347972
0.000347067
0.000333179
0.000304109
0.000276665
0.000224283
0.000210324
1.00065e-05
1e-05
1e-05
1e-05
1e-05
1e-05
1e-05
1e-05
1e-05
1e-05
1e-05
1e-05
1e-05
0.000330678
0.000253979
0.000165243
0.000149215
0.000146296
0.000145005
0.000144066
0.000143511
0.000143257
0.00014315
0.000143182
0.00014335
0.00014359
0.000143871
0.000144176
0.000144463
0.000144721
0.000144932
0.00014507
0.000145124
0.000145091
0.000144976
0.000144778
0.000144507
0.000144189
0.000143821
0.000143403
0.000142906
0.00014235
0.000141754
0.000141145
0.000140485
0.000140249
0.000143318
0.000150986
0.00016132
0.000170156
0.000171732
0.000159334
0.000286644
0.00026244
0.000254163
0.000252084
0.000245628
0.000237715
0.000231576
0.000226092
0.000221529
0.00021806
0.000215427
0.000213716
0.000212927
0.000212842
0.000213295
0.00021426
0.000215762
0.000217671
0.000219852
0.000222471
0.000229
0.00024174
0.000249165
0.000254415
0.000242164
0.000242959
1.00821e-05
1e-05
1e-05
1e-05
1e-05
1e-05
1e-05
1e-05
1e-05
1e-05
1e-05
1e-05
1e-05
0.000155333
4.33602e-05
3.762e-05
3.1506e-05
3.14212e-05
3.17388e-05
3.16757e-05
3.1154e-05
3.0642e-05
3.02083e-05
2.95248e-05
2.88553e-05
2.83957e-05
2.79717e-05
2.77062e-05
2.76647e-05
2.77538e-05
2.80144e-05
2.84242e-05
2.89607e-05
2.9596e-05
3.03255e-05
3.11369e-05
3.19102e-05
3.25158e-05
3.30361e-05
3.35517e-05
3.4051e-05
3.45313e-05
3.49909e-05
3.54329e-05
3.58472e-05
3.63317e-05
3.74837e-05
3.99905e-05
1.80675e-05
4.36065e-05
7.58508e-05
9.65478e-05
8.01503e-05
8.33367e-05
6.4103e-05
5.24491e-05
4.35637e-05
3.5275e-05
2.84855e-05
2.30344e-05
1.8613e-05
1.52034e-05
1.27102e-05
1.11199e-05
1.04366e-05
1.04398e-05
1.09721e-05
1.19558e-05
1.33724e-05
1.52404e-05
1.75763e-05
1.99956e-05
2.37272e-05
4.03529e-05
6.69488e-05
0.00010074
0.000128491
0.000164124
1.0581e-05
1.00001e-05
1e-05
1e-05
1e-05
1e-05
1e-05
1e-05
1e-05
1e-05
1e-05
1e-05
1e-05
3.81662e-05
1.7878e-05
2.06713e-05
2.03523e-05
2.04544e-05
2.05294e-05
2.03636e-05
1.99538e-05
1.9547e-05
1.92021e-05
1.87508e-05
1.831e-05
1.79777e-05
1.76712e-05
1.74417e-05
1.73204e-05
1.72639e-05
1.72887e-05
1.73875e-05
1.75489e-05
1.7761e-05
1.80213e-05
1.83282e-05
1.86275e-05
1.88507e-05
1.9034e-05
1.9215e-05
1.93936e-05
1.95677e-05
1.97348e-05
1.98974e-05
2.0055e-05
2.01819e-05
2.00965e-05
1.9184e-05
1.92856e-05
2.29479e-05
2.82333e-05
2.71991e-05
1.98781e-05
2.04635e-05
1.87786e-05
1.7279e-05
1.65382e-05
1.59946e-05
1.54531e-05
1.51782e-05
1.50275e-05
1.49245e-05
1.48994e-05
1.49209e-05
1.50214e-05
1.52105e-05
1.5456e-05
1.57625e-05
1.61294e-05
1.65595e-05
1.70526e-05
1.7549e-05
1.8203e-05
2.02547e-05
2.4048e-05
2.7581e-05
3.37322e-05
4.63561e-05
1.18538e-05
1.00012e-05
1e-05
1e-05
1e-05
1e-05
1e-05
1e-05
1e-05
1e-05
1e-05
1e-05
1e-05
2.70342e-05
3.36154e-05
8.1444e-05
7.92111e-05
7.86913e-05
7.75426e-05
7.62872e-05
7.51018e-05
7.40538e-05
7.32207e-05
7.25262e-05
7.18996e-05
7.13735e-05
7.09231e-05
7.05105e-05
7.0146e-05
6.98288e-05
6.95376e-05
6.9275e-05
6.90309e-05
6.88051e-05
6.85938e-05
6.84054e-05
6.82504e-05
6.80997e-05
6.79222e-05
6.77156e-05
6.74961e-05
6.72596e-05
6.70033e-05
6.67395e-05
6.64695e-05
6.60646e-05
6.4548e-05
5.87137e-05
4.94825e-05
3.9241e-05
2.57705e-05
2.82416e-05
4.49082e-05
3.3549e-05
1.36044e-05
1.76317e-05
2.11557e-05
2.5449e-05
2.952e-05
3.34549e-05
3.72281e-05
4.05637e-05
4.31669e-05
4.51397e-05
4.66797e-05
4.79238e-05
4.89511e-05
4.97873e-05
5.04768e-05
5.10043e-05
5.13609e-05
5.15436e-05
5.13375e-05
4.66906e-05
4.2683e-05
2.87897e-05
1.62333e-05
2.00047e-05
1.50425e-05
1.00146e-05
1.00001e-05
1e-05
1e-05
1e-05
1e-05
1e-05
1e-05
1e-05
1e-05
1e-05
1e-05
0.000117029
0.000190205
0.000212035
0.00020474
0.000201835
0.000199423
0.000197286
0.000195686
0.000194512
0.000193694
0.000193156
0.000192766
0.000192491
0.000192284
0.000192081
0.000191894
0.000191719
0.000191535
0.000191336
0.00019111
0.000190852
0.000190566
0.000190258
0.000189924
0.000189544
0.000189084
0.000188534
0.000187922
0.00018724
0.000186466
0.00018563
0.000184747
0.000183822
0.000182746
0.000177292
0.000166633
0.000149038
0.000127199
9.68509e-05
0.000179009
0.000177773
0.000184465
0.000188115
0.000189233
0.00019089
0.000192811
0.000194777
0.000196999
0.000199482
0.000201521
0.000203167
0.000204672
0.000206033
0.000207213
0.000208246
0.000209183
0.000209918
0.000210318
0.000210474
0.00021069
0.000206521
0.000194061
0.000173535
0.000149632
0.00012786
4.96487e-05
1.02902e-05
1.00002e-05
1e-05
1e-05
1e-05
1e-05
1e-05
1e-05
1e-05
1e-05
1e-05
1e-05
0.000233348
0.000188005
0.000149698
0.00014633
0.00014367
0.000142607
0.000141992
0.000141772
0.00014181
0.000141956
0.000142221
0.000142568
0.000142903
0.00014322
0.000143513
0.000143756
0.000143959
0.000144131
0.000144253
0.00014433
0.000144355
0.00014433
0.000144256
0.000144097
0.000143889
0.000143649
0.000143352
0.000142995
0.000142585
0.000142102
0.000141579
0.000140998
0.000140368
0.000140843
0.000143416
0.000145428
0.000144362
0.000137554
0.00011962
0.000219666
0.00020403
0.0001993
0.000195228
0.000191359
0.000189004
0.000187699
0.000186738
0.00018628
0.000186551
0.000186556
0.000186239
0.000186237
0.000186354
0.0001865
0.000186733
0.000187108
0.00018756
0.000187993
0.000188466
0.000190077
0.000193778
0.000195786
0.000192699
0.00018582
0.000173183
0.000116975
1.28213e-05
1.00062e-05
1e-05
1e-05
1e-05
1e-05
1e-05
1e-05
1e-05
1e-05
1e-05
1e-05
0.00013937
5.67392e-05
2.42252e-05
2.51539e-05
2.47433e-05
2.51767e-05
2.57093e-05
2.6027e-05
2.62637e-05
2.64425e-05
2.65245e-05
2.65512e-05
2.65549e-05
2.65375e-05
2.65208e-05
2.6502e-05
2.64913e-05
2.64897e-05
2.65089e-05
2.65495e-05
2.66238e-05
2.67383e-05
2.69021e-05
2.71041e-05
2.73287e-05
2.75625e-05
2.77984e-05
2.80221e-05
2.8231e-05
2.84172e-05
2.85731e-05
2.87009e-05
2.86584e-05
2.89917e-05
3.44904e-05
4.50568e-05
6.01301e-05
7.59249e-05
8.22448e-05
7.28139e-05
6.84618e-05
5.33378e-05
5.48009e-05
5.63224e-05
5.61094e-05
5.50518e-05
5.37515e-05
5.25728e-05
5.15565e-05
5.08067e-05
5.01424e-05
4.95992e-05
4.91703e-05
4.88566e-05
4.8702e-05
4.87595e-05
4.90494e-05
4.95629e-05
5.02445e-05
5.13397e-05
5.68095e-05
6.99188e-05
8.56731e-05
0.000101957
0.00011529
0.000113011
2.2186e-05
1.00801e-05
1e-05
1e-05
1e-05
1e-05
1e-05
1e-05
1e-05
1e-05
1e-05
1e-05
3.53686e-05
1.67036e-05
1.22501e-05
1.23984e-05
1.23729e-05
1.25014e-05
1.25968e-05
1.25903e-05
1.25606e-05
1.25246e-05
1.24319e-05
1.23252e-05
1.2238e-05
1.21481e-05
1.20769e-05
1.20358e-05
1.20134e-05
1.20174e-05
1.20481e-05
1.21041e-05
1.21833e-05
1.22882e-05
1.24197e-05
1.25567e-05
1.26713e-05
1.27759e-05
1.28851e-05
1.2996e-05
1.31079e-05
1.32183e-05
1.33252e-05
1.34286e-05
1.35011e-05
1.36457e-05
1.48071e-05
1.70329e-05
2.03412e-05
1.13743e-05
3.20761e-05
1.90484e-05
1.85231e-05
1.67468e-05
1.66765e-05
1.6964e-05
1.70076e-05
1.66963e-05
1.64545e-05
1.62282e-05
1.59786e-05
1.5831e-05
1.56994e-05
1.55956e-05
1.5542e-05
1.55138e-05
1.55267e-05
1.55813e-05
1.56804e-05
1.58197e-05
1.59867e-05
1.62132e-05
1.70904e-05
1.91301e-05
2.1558e-05
2.62045e-05
3.04051e-05
4.94388e-05
3.29818e-05
1.05142e-05
1.0001e-05
1e-05
1e-05
1e-05
1e-05
1e-05
1e-05
1e-05
1e-05
1e-05
1.53156e-05
2.30869e-05
2.59979e-05
2.52304e-05
2.54016e-05
2.5673e-05
2.55536e-05
2.50399e-05
2.45016e-05
2.40219e-05
2.33413e-05
2.26433e-05
2.20852e-05
2.153e-05
2.10775e-05
2.07949e-05
2.06094e-05
2.05681e-05
2.06624e-05
2.08839e-05
2.121e-05
2.16459e-05
2.21872e-05
2.27131e-05
2.30764e-05
2.3362e-05
2.36541e-05
2.39514e-05
2.42533e-05
2.45524e-05
2.48504e-05
2.51474e-05
2.54435e-05
2.57498e-05
2.56386e-05
2.47779e-05
2.29812e-05
2.1194e-05
2.27014e-05
2.42866e-05
1.94532e-05
2.07053e-05
2.04827e-05
2.10303e-05
2.16106e-05
2.17636e-05
2.20373e-05
2.22565e-05
2.23176e-05
2.24554e-05
2.25599e-05
2.26443e-05
2.27776e-05
2.29054e-05
2.30582e-05
2.32269e-05
2.34039e-05
2.35683e-05
2.37142e-05
2.3832e-05
2.38605e-05
2.30186e-05
2.14471e-05
1.96749e-05
2.14679e-05
2.39211e-05
1.90356e-05
1.15248e-05
1.0013e-05
1.00001e-05
1e-05
1e-05
1e-05
1e-05
1e-05
1e-05
1e-05
1e-05
4.88192e-05
0.000104923
0.000115265
0.000110298
0.000109852
0.000109328
0.000108412
0.000107516
0.00010674
0.000106143
0.00010574
0.000105435
0.000105198
0.000105021
0.000104867
0.000104728
0.000104608
0.000104492
0.000104378
0.00010426
0.000104131
0.00010399
0.00010384
0.000103688
0.000103528
0.000103343
0.000103124
0.000102883
0.000102629
0.000102348
0.000102056
0.000101746
0.000101429
0.000101189
9.85803e-05
9.19079e-05
8.04417e-05
6.79429e-05
5.24118e-05
8.29266e-05
7.74464e-05
8.16052e-05
8.34245e-05
8.6706e-05
8.99748e-05
9.2997e-05
9.56933e-05
9.81273e-05
0.000100249
0.00010209
0.000103691
0.000105048
0.000106179
0.00010712
0.000107922
0.000108626
0.000109211
0.000109621
0.000109852
0.000109959
0.000109725
0.000103477
9.23842e-05
7.92708e-05
6.83258e-05
5.40493e-05
3.96667e-05
1.72235e-05
1.01873e-05
1.00006e-05
1e-05
1e-05
1e-05
1e-05
1e-05
1e-05
1e-05
1e-05
0.000154678
0.0001458
0.000137288
0.000132537
0.000130482
0.000129579
0.00012864
0.0001279
0.000127394
0.000127076
0.000126945
0.000126918
0.00012694
0.000127004
0.000127085
0.000127169
0.00012726
0.000127355
0.000127445
0.000127524
0.000127588
0.000127637
0.000127659
0.000127646
0.000127601
0.000127518
0.000127377
0.000127183
0.000126952
0.000126677
0.000126373
0.000126037
0.000125705
0.000125811
0.000125681
0.000123235
0.000118604
0.000108836
9.11021e-05
0.000160011
0.00014746
0.000146369
0.000146833
0.000146915
0.000146857
0.000147202
0.000147593
0.000148015
0.00014844
0.000148812
0.000149173
0.000149498
0.000149755
0.00014997
0.000150192
0.000150468
0.000150766
0.000151003
0.000151152
0.000151293
0.000152368
0.000151163
0.000145903
0.000137898
0.000126836
0.00010982
8.98293e-05
4.53069e-05
1.18773e-05
1.00224e-05
1e-05
1e-05
1e-05
1e-05
1e-05
1e-05
1e-05
1e-05
0.000125587
6.07546e-05
4.87704e-05
4.8007e-05
4.62922e-05
4.59665e-05
4.59361e-05
4.59271e-05
4.59933e-05
4.609e-05
4.61966e-05
4.63148e-05
4.64339e-05
4.65463e-05
4.66565e-05
4.67577e-05
4.68614e-05
4.69563e-05
4.70489e-05
4.71303e-05
4.72112e-05
4.72778e-05
4.73312e-05
4.7375e-05
4.74019e-05
4.74176e-05
4.74103e-05
4.73894e-05
4.73655e-05
4.73329e-05
4.72917e-05
4.72466e-05
4.71763e-05
4.73865e-05
4.9775e-05
5.5089e-05
6.26433e-05
6.98357e-05
7.0413e-05
9.19147e-05
8.80305e-05
8.05716e-05
7.7619e-05