/*--------------------------------*- C++ -*----------------------------------*\
| =========                 |                                                 |
| \\      /  F ield         | OpenFOAM: The Open Source CFD Toolbox           |
|  \\    /   O peration     | Version:  2312                                  |
|   \\  /    A nd           | Website:  www.openfoam.com                      |
|    \\/     M anipulation  |                                                 |
\*---------------------------------------------------------------------------*/
FoamFile
{
    version     2.0;
    format      ascii;
    arch        "LSB;label=32;scalar=64";
    class       volScalarField;
    location    "500";
    object      turbulenceProperties:nut;
}
// * * * * * * * * * * * * * * * * * * * * * * * * * * * * * * * * * * * * * //

dimensions      [0 2 -1 0 0 0 0];

internalField   nonuniform List<scalar> 
10720
(
8.07557e-05
0.00011189
0.000144427
0.000150176
0.000136022
0.000122407
0.000116979
0.000120118
0.00013286
0.000156173
0.000193619
0.000255268
0.000355685
0.000529046
0.000870289
0.00157137
0.0029467
0.00637493
0.0129191
0.0219264
0.0359644
0.0634236
0.125766
0.257756
0.461896
0.655276
1.32576
2.21222
1.55992
0.563367
0.170937
0.0198032
0.00387598
0.000569482
1.50244e-18
1.93947e-18
1.33955e-06
0.000197599
0.00685329
9.21547e-05
8.89566e-05
7.22462e-05
0.00015449
5.36425e-05
0.000107251
0.000154409
0.000191717
0.000206803
0.00019808
0.000193763
0.000203387
0.00022984
0.000291025
0.000387972
0.00062741
0.000978505
0.00288368
0.00314218
0.00364037
0.00470725
0.00689328
0.00859752
0.0115067
0.0150801
0.018973
0.0155952
0.00840533
0.00315566
0.000802604
9.28976e-05
5.44488e-06
1.49127e-06
6.76095e-07
2.92256e-07
1.18167e-07
2.87201e-18
0.00572785
0.353168
0.00013655
0.000237554
0.000293544
0.00020607
0.000122795
7.55318e-05
5.40045e-05
4.43566e-05
4.07666e-05
4.04096e-05
4.24208e-05
4.49506e-05
6.13439e-05
0.00011711
0.000276885
0.000708482
0.00164882
0.00386959
0.00862918
0.0167538
0.0287955
0.0471619
0.0791671
0.149896
0.483029
0.573158
1.39987
1.50854
1.30653
1.80122
1.10612
0.277981
0.0736254
0.0105545
0.000169422
4.48695e-18
6.04577e-18
8.44446e-05
0.0096321
6.37895e-05
4.70674e-06
5.07308e-05
9.46842e-05
9.5256e-05
8.47904e-05
5.28398e-05
5.14378e-05
6.23844e-05
7.80821e-05
8.93642e-05
8.97409e-05
0.000101255
0.000120533
4.25064e-05
0.00130831
0.00220903
0.000282444
0.0104843
0.00361937
0.000487838
0.0349573
0.00566638
0.000408374
0.00598391
0.000228919
0.000342769
0.000397612
0.000234114
0.00020377
0.000119206
5.82041e-05
2.58616e-05
1.07744e-05
4.29741e-06
1.6273e-06
2.92944e-08
0.00449488
0.298042
1.0909e-06
8.07543e-05
8.01683e-05
8.109e-05
8.37841e-05
8.81794e-05
9.45797e-05
0.000102163
0.000110468
0.000118916
0.000127281
0.000135482
0.000142466
0.000146691
0.000154879
0.000196928
0.000316541
0.000763065
0.00204634
0.00513279
0.011661
0.0255918
0.0587663
0.192208
0.304887
0.605221
1.03057
0.907194
0.573936
0.472049
0.441088
0.297513
0.079771
0.0125067
0.00093593
0.00010723
5.65379e-18
6.70642e-05
0.0125315
0.000107698
0.000134102
0.000146173
0.000124355
9.7588e-05
8.91604e-05
9.41906e-05
0.000102794
0.000115834
1.27693e-05
0.000136164
0.000210869
0.000271145
0.000353092
0.000462682
0.000489691
0.00037377
3.12073e-05
1.30933e-05
3.35235e-05
0.00127798
5.49787e-05
0.00276568
0.0043239
6.59836e-05
0.00202469
0.00234681
0.00217918
0.00119219
0.000958364
0.000594153
0.000257122
0.000116537
5.94774e-05
3.16809e-05
4.51448e-05
9.69225e-17
0.0119716
0.982969
0.000221646
0.000218665
0.000218511
0.00022301
0.000226133
0.000229974
0.000238502
0.000249837
0.000264375
0.000282932
0.000305894
0.000334196
0.000369816
0.000415025
0.000472014
0.000548731
0.000637741
0.000717758
0.000551247
0.000178633
2.31793e-16
3.27381e-16
4.4184e-15
0.000107667
0.00286966
3.0304e-10
4.82971e-12
2.42534e-11
1.04028e-10
9.69347e-10
6.62602e-08
7.13056e-05
0.0185016
0.0190596
0.006968
0.00106659
0.00039825
0.000365711
0.0588763
0.000255873
0.000209892
0.000186482
0.000190587
0.000198154
0.000178699
0.000180426
0.000180834
0.000182561
0.000186471
0.000205826
0.000224762
0.000238985
0.000253534
0.000273605
0.000278019
0.000262132
5.42085e-05
0.000126412
0.000204658
0.000292657
0.000337949
0.00038384
0.00039786
0.00035905
0.000334765
0.000298466
0.000301732
0.000296923
0.000294868
0.000292369
0.000285611
0.000271434
0.000252999
0.00018418
0.000354705
6.81345e-06
0.0153177
3.9157
0.000429694
0.000424569
0.000427896
0.000435267
0.000446042
0.000463569
0.000485841
0.000514016
0.000549029
0.000590635
0.000638573
0.000693478
0.000754863
0.000819014
0.000885236
0.000953092
0.00102931
0.00112188
0.001237
0.000970636
0.000263667
0.000103885
2.24314e-16
3.05776e-16
0.00064629
1.30616e-10
1.11307e-16
8.53183e-16
4.07526e-15
3.56043e-14
9.99371e-13
2.07442e-10
3.26313e-08
1.09014e-12
0.00613388
0.00573575
0.00237182
0.000521457
0.0598061
0.00041418
0.000413567
0.000169759
0.000244221
0.000445061
0.000476796
0.000514727
0.000560389
0.00061937
0.000697737
0.000799801
0.000929509
0.00109303
0.00117831
0.0011542
0.00113161
0.00109457
0.00104978
0.00100596
0.00096735
0.000933466
0.000971627
0.000925541
0.000801202
0.000768914
0.000740637
0.000714367
0.00069109
0.000671213
0.000653157
0.000632085
0.000607542
0.000584963
0.000578983
0.000489991
0.00063347
1.24288e-05
0.0220828
2.89216
0.000461499
0.000677574
0.000510384
0.00040389
0.000312016
0.000237296
0.000184005
0.000147881
0.000126858
0.000119656
0.000124948
0.000139271
0.000167402
0.000211713
0.000268695
0.000342327
0.000428426
0.000559782
0.000773975
0.000975397
0.00109539
0.000541018
0.000155458
8.51451e-05
2.30907e-16
9.27663e-22
4.60516e-27
4.73889e-27
7.99241e-27
1.92802e-26
5.97438e-26
2.40295e-25
1.59469e-13
1.23041e-14
1.95471e-15
2.73732e-13
2.74854e-11
2.79894e-10
1.178e-07
0.000229973
0.000219286
0.000628844
0.000847716
0.000887841
0.000938566
0.000999908
0.0010774
0.00117843
0.00131075
0.00148028
0.00169247
0.00195453
0.00196403
0.00197594
0.00199121
0.00195872
0.00191516
0.00188452
0.001855
0.00182414
0.00179088
0.00176408
0.00173201
0.00169434
0.00165277
0.00161209
0.00157218
0.00153466
0.00150277
0.00147542
0.00143777
0.00138004
0.0013259
0.0011966
0.00115998
2.31508e-05
0.0145699
1.48468
0.000178694
0.000175487
0.000177578
0.000170182
0.000170511
0.000173563
0.000175206
0.000179772
0.000185467
0.00019169
0.000199786
0.000208597
0.00021899
0.000231834
0.000246377
0.000263493
0.000282789
4.57157e-06
6.18672e-05
0.000193767
0.000404328
0.000597947
0.000657325
0.000430303
0.000219717
1.83998e-12
1.04311e-26
6.33211e-27
7.27078e-27
1.27979e-26
3.00484e-26
8.44287e-26
2.36758e-25
5.98144e-25
3.94014e-17
2.18904e-15
6.59487e-14
3.35902e-23
1.40997e-10
0.000233743
0.0012575
0.00147368
0.00152567
0.00127843
0.000970593
0.000973806
0.00099725
0.00102398
0.00106061
0.0011017
0.00114693
0.00119725
0.00125224
0.00130724
0.0013717
0.0014167
0.00142998
0.0014267
0.00141419
0.00139491
0.00137047
0.00134199
0.00131064
0.0012763
0.00124126
0.00120918
0.00117908
0.00115214
0.00112958
0.00111274
0.00110571
0.0011021
0.00109702
0.00108008
0.00121345
2.57271e-05
0.00927471
0.607665
0.000838052
0.000845128
0.000930583
0.000993493
0.00105386
0.00111604
0.00117075
0.00121669
0.00125373
0.00128213
0.00130312
0.00131702
0.00132424
0.00132543
0.00132093
0.00131085
0.0012947
0.00126036
0.00125868
0.0011121
0.000914168
0.000900202
0.000949909
0.000932283
0.00101303
1.9518e-11
7.87099e-18
9.77089e-27
8.1126e-27
1.07954e-26
1.99544e-26
4.41048e-26
9.56961e-26
1.74682e-25
2.71531e-25
5.6331e-25
1.52366e-24
3.46346e-24
1.32659e-23
0.00171999
0.00180215
0.00109023
0.000431834
3.63391e-05
0.000140437
0.000139515
0.000143566
0.000148982
5.64057e-06
3.69884e-05
7.36572e-05
0.000116209
0.000164765
0.000221054
0.000279743
0.000315953
0.00033299
0.000339031
0.000337958
0.000331994
0.000322809
0.000311668
0.0003
0.000289058
0.000279247
0.000270947
0.000264188
0.000259315
0.000256142
0.000254361
0.000260734
0.000286013
0.000328271
0.00036988
0.000609557
1.36415e-05
0.00404815
0.22687
0.00181163
0.0016342
0.0016253
0.00160376
0.00157953
0.00156353
0.00155136
0.00153736
0.00152505
0.00151831
0.00151567
0.00151445
0.00151465
0.00151739
0.00152194
0.00152788
0.0015343
0.00153453
0.00155179
0.00154599
0.00144663
0.00132019
0.00125112
0.00112525
0.00138243
1.28615e-10
5.73844e-17
1.65977e-26
1.03497e-26
1.06951e-26
1.58869e-26
2.88668e-26
5.29047e-26
8.60618e-26
1.24188e-25
2.1091e-25
4.55045e-25
9.14023e-25
2.55583e-24
0.00146492
0.000533514
0.000212583
7.58551e-05
5.48518e-05
5.46137e-05
5.46472e-05
5.34008e-05
5.20781e-05
5.16774e-05
5.46924e-05
5.85982e-05
6.41993e-05
7.11815e-05
7.9898e-05
8.97349e-05
9.65089e-05
0.000100817
0.000103657
0.000105466
0.000106445
0.000106777
0.000106523
0.00010584
0.000104993
0.000104158
0.000103493
0.000103033
0.000102888
0.000103017
0.000103314
0.000105266
0.000109669
0.00011664
0.000127838
0.00017372
2.78237e-05
0.000983082
0.0509961
0.00091781
0.000882695
0.000780743
0.000693407
0.00063171
0.000592126
0.000561665
0.000534933
0.000516123
0.000511919
0.000516072
0.000521683
0.000533466
0.000556049
0.000587278
0.000627765
0.000672688
0.000723417
0.000825521
0.000964621
0.00106746
0.00111277
0.00114452
0.00107614
0.00131902
6.05534e-10
2.94455e-16
3.02388e-26
1.45985e-26
1.19865e-26
1.45244e-26
2.21464e-26
3.5428e-26
5.29372e-26
7.27267e-26
1.09651e-25
2.0571e-25
3.73041e-25
7.49703e-25
0.000174353
8.9629e-05
9.14359e-05
0.000137508
0.000372582
0.00039535
0.000389876
0.000382635
0.000374418
0.000365077
0.000354699
0.000343204
0.000333481
0.000324327
0.000314694
0.000305101
0.00029589
0.00028807
0.00028139
0.000275577
0.000270376
0.000265528
0.000260496
0.000255402
0.000250682
0.000246178
0.000241943
0.000237902
0.000234141
0.000230571
0.000226917
0.000222714
0.000209261
0.000188985
0.000189474
0.000128419
0.000130007
5.8352e-05
0.00151474
0.00011511
1.29978e-05
0.000107495
9.20825e-05
8.57289e-05
8.64062e-05
8.78181e-05
9.00832e-05
9.26239e-05
9.61398e-05
0.000101004
0.000105647
0.000110918
0.000118082
0.000126553
0.00014059
0.00014955
0.000155462
0.00018357
9.81108e-05
0.000262659
0.000423726
0.00058054
0.000642921
0.000960053
2.37381e-09
1.24738e-15
5.83072e-26
2.23658e-26
1.48698e-26
1.4898e-26
1.92981e-26
2.73302e-26
3.78971e-26
5.01871e-26
7.05154e-26
1.20196e-25
2.00939e-25
3.27603e-25
5.7533e-05
1.46912e-05
0.000582592
0.000901299
0.00100243
0.00100084
0.000994092
0.000987498
0.000980394
0.000972633
0.000963852
0.000952832
0.000942036
0.000929843
0.000914517
0.000897673
0.000882308
0.000867981
0.000854282
0.000840797
0.000827148
0.000812475
0.000796556
0.000780418
0.000764911
0.000750112
0.000736257
0.000723024
0.000710741
0.000698976
0.000688013
0.000677734
0.000659761
0.000632262
0.0005959
0.000554685
0.000488221
0.000114463
0.000372336
0.000103687
7.01411e-05
8.03044e-05
8.57268e-05
9.6336e-05
3.11712e-05
7.33819e-05
0.000110014
0.000139556
0.000162685
0.000181514
0.000195448
0.000205191
0.000212754
0.000217702
0.000246286
0.000233031
0.000191979
0.000180867
0.00016199
0.000176068
0.000234186
0.000333088
0.000375583
0.000673945
9.8626e-09
5.55763e-15
1.18085e-25
3.67365e-26
2.01169e-26
1.68873e-26
1.87708e-26
2.37067e-26
3.06003e-26
3.86159e-26
5.17683e-26
8.19109e-26
1.27681e-25
1.82089e-25
0.000291885
0.000835083
0.00100359
0.000790917
0.000686145
0.000683115
0.000681925
0.000682595
0.000684618
0.000687805
0.000690355
0.000690472
0.000689032
0.000686396
0.000680716
0.000674517
0.000667925
0.000660861
0.000653161
0.000644619
0.000634955
0.000624082
0.000612444
0.0006009
0.000589974
0.000579613
0.000569833
0.000560462
0.000551852
0.000543678
0.000536314
0.000531322
0.000530891
0.000531415
0.000530889
0.000521791
0.000503095
0.000469668
5.61074e-05
0.000548678
0.000555336
0.000607761
0.000667993
0.000710242
0.000753987
0.000790704
0.000817717
0.000836596
0.000849099
0.00085755
0.000863278
0.00086651
0.000867372
0.00086584
0.000861619
0.000858449
0.000853075
0.000843028
0.00083478
0.000749041
0.000624092
0.000580404
0.000509672
0.0006701
5.69911e-08
3.41894e-14
2.50047e-25
6.41446e-26
2.93642e-26
2.09178e-26
2.01458e-26
2.2811e-26
2.74151e-26
3.31706e-26
4.22716e-26
6.19786e-26
9.0022e-26
1.17688e-25
0.000948074
0.000881133
0.000445225
0.000156016
7.90748e-05
7.938e-05
8.34566e-05
8.70114e-05
9.1613e-05
9.77628e-05
0.000102201
0.000105811
0.00010788
0.000109899
0.000111964
0.00011394
0.000115599
0.000116809
0.000117429
0.000117387
0.000116666
0.000115423
0.000113839
0.000112269
0.000110952
0.000109786
0.000108773
0.000107921
0.000107332
0.000107011
0.000106717
0.000106777
0.000114564
0.000135297
0.000164194
0.000202699
0.000244414
0.000305541
0.000199199
0.000893491
0.000764571
0.000721725
0.000706146
0.000690372
0.000678957
0.000673995
0.000669371
0.000666296
0.000666822
0.000670963
0.000678463
0.00068871
0.00070158
0.000717008
0.000735328
0.000756121
0.000777306
0.000801975
0.000825734
0.000840335
0.000825392
0.000773766
0.000672442
0.000740513
3.40049e-07
1.93948e-18
9.63471e-21
1.18396e-25
4.58873e-26
2.80645e-26
2.36406e-26
2.41163e-26
2.69868e-26
3.13164e-26
3.79193e-26
5.13453e-26
8.14225e-26
1.0216e-25
0.000657056
0.000193569
8.68557e-05
2.86443e-05
2.11343e-05
2.20003e-05
2.29302e-05
2.31218e-05
2.33552e-05
2.38814e-05
2.39275e-05
2.38983e-05
2.39044e-05
2.40033e-05
2.42803e-05
2.47585e-05
2.53193e-05
2.59505e-05
2.6597e-05
2.72195e-05
2.77882e-05
2.83079e-05
2.87794e-05
2.92146e-05
2.95986e-05
2.99412e-05
3.02864e-05
3.06359e-05
3.10152e-05
3.14332e-05
3.18127e-05
3.21964e-05
3.39063e-05
3.77116e-05
4.51577e-05
5.09347e-05
6.01242e-05
6.33721e-05
0.000115045
0.000334234
0.0002923
0.000230109
0.000194977
0.000164704
0.000138567
0.000122628
0.000112211
0.000106457
0.000107016
0.000112559
0.000121708
0.000134016
0.000149324
0.000168595
0.000192413
0.000217988
0.000246338
0.000276364
0.000323228
0.000409479
0.000498688
0.000559709
0.000563951
0.000649064
1.56105e-06
6.32242e-17
2.70936e-19
2.30152e-25
7.63363e-26
4.04973e-26
3.00993e-26
2.77976e-26
2.89785e-26
3.21535e-26
3.71538e-26
5.92935e-26
6.92555e-25
1.20224e-23
1.01135e-05
3.52601e-05
5.25279e-05
4.50631e-05
6.73231e-05
6.86577e-05
6.92202e-05
6.85483e-05
6.71498e-05
6.55414e-05
6.36523e-05
6.15273e-05
5.94837e-05
5.75674e-05
5.57236e-05
5.40513e-05
5.25351e-05
5.11555e-05
4.99164e-05
4.88003e-05
4.77875e-05
4.68703e-05
4.60645e-05
4.54157e-05
4.48991e-05
4.44077e-05
4.39496e-05
4.35225e-05
4.3142e-05
4.28136e-05
4.24652e-05
4.18603e-05
3.91708e-05
3.19321e-05
3.30229e-05
1.42293e-05
5.00631e-05
5.77576e-05
5.37297e-05
4.44613e-05
3.96879e-05
3.86287e-05
3.91049e-05
4.03569e-05
4.17767e-05
4.20295e-05
4.25967e-05
4.31177e-05
4.38477e-05
4.54144e-05
4.74478e-05
4.99881e-05
5.34268e-05
5.72516e-05
6.15696e-05
6.67294e-05
7.28189e-05
7.94583e-05
9.20524e-05
0.000108002
4.31624e-05
0.000147516
0.00023302
0.000350742
4.45925e-06
6.66367e-16
2.48807e-18
4.70132e-25
1.34651e-25
6.25056e-26
4.1308e-26
3.47032e-26
3.3736e-26
3.57046e-26
4.01242e-26
4.59471e-24
7.77427e-19
3.97416e-17
4.11151e-05
6.91046e-05
0.000346014
0.000459767
0.000464
0.000460914
0.00045727
0.000454031
0.000450888
0.000447837
0.000444943
0.000442107
0.000439344
0.000436617
0.000433793
0.000430825
0.000427668
0.000424266
0.000420597
0.000416636
0.000412421
0.000407986
0.000403345
0.000398622
0.000393965
0.000389277
0.000384564
0.000379777
0.000375077
0.000370588
0.000365964
0.000361493
0.000356057
0.000342052
0.000318653
0.000284202
0.000240694
0.000197305
0.000157368
8.08756e-05
5.70499e-05
3.78421e-05
8.84267e-05
0.000125527
0.000158508
0.000180485
0.000194868
0.000203942
0.000209394
0.000212856
0.000215095
0.000216442
0.000218751
0.000217985
0.000213823
0.000211797
0.000211195
0.000210563
0.000227621
0.000195937
0.000144463
0.000148203
0.000176278
0.000223526
1.1852e-05
6.48387e-15
2.12626e-17
1.00787e-24
2.51168e-25
1.02763e-25
6.07801e-26
4.66428e-26
4.23413e-26
4.26943e-26
1.11313e-25
2.0544e-19
4.331e-17
1.67685e-16
0.000252793
0.000499898
0.000503774
0.00045971
0.000450117
0.000444306
0.000439571
0.000436604
0.000434666
0.000433232
0.000432303
0.000431708
0.000431217
0.000430726
0.000430132
0.000429299
0.000428193
0.000426764
0.000424966
0.000422752
0.000420137
0.000417149
0.000413756
0.000410057
0.000406242
0.000402302
0.000398237
0.000394012
0.000389786
0.000385724
0.000381599
0.000377648
0.00037567
0.000373556
0.000367551
0.000356383
0.000335889
0.000296482
0.000236533
0.000395806
0.000407311
0.00043926
0.000475445
0.000501588
0.000521785
0.000533207
0.000537661
0.000539259
0.000539869
0.000540425
0.000541304
0.000542162
0.000552107
0.000549403
0.000525449
0.000527191
0.000541254
0.000540653
0.000539071
0.000516793
0.000489035
0.000423188
0.000350927
0.000309151
3.88759e-05
7.17437e-14
2.08019e-16
2.26631e-24
4.94599e-25
1.79409e-25
9.54712e-26
6.71444e-26
5.6979e-26
5.46994e-26
9.33658e-26
2.88765e-20
3.51371e-17
2.70547e-17
0.000540241
0.000391827
0.000173412
0.000128063
0.000122716
0.000121035
0.000119656
0.00011863
0.000118189
0.00011817
0.000118376
0.000118788
0.000119359
0.000120037
0.000120766
0.000121514
0.000122237
0.000122923
0.00012353
0.000124034
0.000124411
0.000124675
0.000124815
0.000124863
0.000124854
0.00012476
0.000124565
0.000124259
0.000123885
0.000123511
0.000123527
0.00012305
0.000124024
0.00013568
0.000150784
0.000167212
0.000191157
0.000210787
0.000203516
0.000469293
0.000409196
0.00038682
0.000374839
0.000360913
0.000352864
0.000348302
0.000342365
0.000337866
0.000335928
0.000336149
0.000338016
0.000341098
0.000345013
0.000351356
0.000358364
0.000364855
0.00037228
0.000380451
0.000393567
0.000415347
0.00042911
0.000429212
0.000419006
0.000371956
0.000109242
7.27187e-13
1.87475e-15
5.34426e-24
1.02691e-24
3.31828e-25
1.59532e-25
1.03066e-25
8.17944e-26
7.46345e-26
1.00829e-25
6.47719e-21
1.95581e-19
1.03739e-16
0.000262044
2.54834e-05
2.88985e-05
1.92561e-05
1.88291e-05
1.90877e-05
1.90165e-05
1.85704e-05
1.81909e-05
1.79351e-05
1.75148e-05
1.71486e-05
1.69809e-05
1.68774e-05
1.6918e-05
1.71428e-05
1.74736e-05
1.79319e-05
1.84944e-05
1.91387e-05
1.98325e-05
2.0575e-05
2.13501e-05
2.20862e-05
2.2698e-05
2.32416e-05
2.37582e-05
2.42437e-05
2.46995e-05
2.51354e-05
2.56385e-05
2.60195e-05
2.6693e-05
2.96881e-05
3.3508e-05
3.83788e-05
1.92157e-05
6.65088e-05
0.000106872
0.000128241
0.000122018
7.98997e-05
5.13998e-05
3.09039e-05
1.76086e-05
1.21074e-05
8.3918e-06
5.34685e-06
4.49081e-06
5.35583e-06
7.16522e-06
9.73893e-06
1.30551e-05
1.71757e-05
2.20879e-05
2.8062e-05
3.52206e-05
4.32962e-05
5.34976e-05
7.79767e-05
0.000121959
0.000179543
0.000234325
0.000252547
0.000180547
6.02583e-12
1.38774e-14
1.32141e-23
2.24605e-24
6.48931e-25
2.82744e-25
1.68045e-25
1.24678e-25
1.07903e-25
1.22507e-25
1.90099e-21
2.2317e-15
1.68848e-16
5.04112e-05
1.2165e-05
2.95657e-05
3.02524e-05
3.0797e-05
3.1409e-05
3.13744e-05
3.06178e-05
2.98098e-05
2.91012e-05
2.80658e-05
2.70709e-05
2.63817e-05
2.5772e-05
2.53859e-05
2.52874e-05
2.53583e-05
2.56284e-05
2.60669e-05
2.66373e-05
2.7291e-05
2.80295e-05
2.88225e-05
2.95516e-05
3.00848e-05
3.0514e-05
3.09213e-05
3.13036e-05
3.16611e-05
3.20029e-05
3.24686e-05
3.2843e-05
3.3083e-05
3.22823e-05
2.991e-05
2.61964e-05
2.67191e-05
3.17822e-05
2.05129e-05
1.75646e-05
1.81196e-05
1.70027e-05
1.54138e-05
1.49239e-05
1.49985e-05
1.52723e-05
1.57715e-05
1.61579e-05
1.65562e-05
1.72209e-05
1.79435e-05
1.87242e-05
1.96494e-05
2.06785e-05
2.18493e-05
2.3222e-05
2.48077e-05
2.6561e-05
2.86604e-05
3.24788e-05
3.92743e-05
4.6913e-05
1.72593e-05
5.98855e-05
0.000138434
3.72378e-11
7.69033e-14
3.42493e-23
5.16965e-24
1.33941e-24
5.30088e-25
2.90017e-25
2.00987e-25
1.64543e-25
1.65665e-25
6.927e-22
3.02722e-17
6.08453e-17
3.06307e-05
6.61614e-05
0.000203789
0.000207986
0.000207839
0.000206608
0.000205322
0.000204189
0.000203057
0.000201966
0.000201036
0.000200165
0.000199324
0.000198526
0.000197712
0.000196857
0.000195959
0.000194989
0.000193931
0.000192765
0.000191487
0.000190101
0.000188598
0.000187016
0.00018544
0.000183844
0.000182214
0.000180563
0.000178897
0.00017728
0.000176491
0.000175346
0.000173654
0.000166736
0.000152133
0.000131302
0.000110593
7.74142e-05
5.91539e-05
5.45157e-05
8.48939e-06
3.57021e-05
5.86159e-05
7.5196e-05
8.81808e-05
9.77293e-05
0.000105471
0.000111723
0.000116546
0.000120438
0.000123608
0.000126153
0.000128169
0.000129699
0.000130837
0.000131726
0.00013231
0.000132573
0.000132412
0.000127599
0.000120146
9.26288e-05
6.92545e-05
6.23458e-05
0.000121104
3.64315e-10
6.77189e-13
9.30246e-23
1.25101e-23
2.9127e-24
1.04859e-24
5.28119e-25
3.41355e-25
2.63543e-25
2.41839e-25
2.95678e-22
8.83788e-18
1.29058e-16
0.000176896
0.000301065
0.000327922
0.000315578
0.000312414
0.000309634
0.00030731
0.000305686
0.000304462
0.000303462
0.00030274
0.000302209
0.000301784
0.000301438
0.000301108
0.000300737
0.000300312
0.000299801
0.000299158
0.000298355
0.000297381
0.000296242
0.000294902
0.000293369
0.000291741
0.00029
0.000288112
0.000286101
0.000283977
0.000281827
0.000279706
0.000277508
0.000275862
0.000273338
0.000264922
0.000251825
0.000230849
0.000188236
0.000145521
0.000251694
0.000250613
0.000269948
0.000290466
0.00030355
0.000312556
0.000319092
0.00032384
0.000327558
0.000330362
0.000332416
0.000333983
0.000335195
0.000336111
0.000336721
0.000337205
0.000337771
0.000338194
0.000338202
0.000337972
0.000337067
0.000323179
0.000294109
0.000266665
0.000214283
0.000200324
6.49556e-09
1.10092e-11
2.64656e-22
3.17905e-23
6.66326e-24
2.18368e-24
1.01183e-24
6.08598e-25
4.41663e-25
3.74898e-25
1.42972e-22
8.15154e-19
2.21898e-17
0.000320678
0.000243979
0.000155243
0.000139215
0.000136296
0.000135005
0.000134066
0.000133511
0.000133257
0.00013315
0.000133182
0.00013335
0.00013359
0.000133871
0.000134176
0.000134463
0.000134721
0.000134932
0.00013507
0.000135124
0.000135091
0.000134976
0.000134778
0.000134507
0.000134189
0.000133821
0.000133403
0.000132906
0.00013235
0.000131754
0.000131145
0.000130485
0.000130249
0.000133318
0.000140986
0.00015132
0.000160156
0.000161732
0.000149334
0.000276644
0.00025244
0.000244163
0.000242084
0.000235628
0.000227715
0.000221576
0.000216092
0.000211529
0.00020806
0.000205427
0.000203716
0.000202927
0.000202842
0.000203295
0.00020426
0.000205762
0.000207671
0.000209852
0.000212471
0.000219
0.00023174
0.000239165
0.000244415
0.000232164
0.000232959
8.20554e-08
2.19614e-12
8.70538e-15
8.47653e-23
1.60161e-23
4.77691e-24
2.03462e-24
1.13588e-24
7.72194e-25
6.0991e-25
7.65591e-23
1.42433e-19
3.72511e-18
0.000145333
3.33602e-05
2.762e-05
2.1506e-05
2.14212e-05
2.17388e-05
2.16757e-05
2.1154e-05
2.0642e-05
2.02083e-05
1.95248e-05
1.88553e-05
1.83957e-05
1.79717e-05
1.77062e-05
1.76647e-05
1.77538e-05
1.80144e-05
1.84242e-05
1.89607e-05
1.9596e-05
2.03255e-05
2.11369e-05
2.19102e-05
2.25158e-05
2.30361e-05
2.35517e-05
2.4051e-05
2.45313e-05
2.49909e-05
2.54329e-05
2.58472e-05
2.63317e-05
2.74837e-05
2.99905e-05
8.06753e-06
3.36065e-05
6.58508e-05
8.65478e-05
7.01503e-05
7.33367e-05
5.4103e-05
4.24491e-05
3.35637e-05
2.5275e-05
1.84855e-05
1.30344e-05
8.61303e-06
5.20344e-06
2.71016e-06
1.11988e-06
4.36618e-07
4.39775e-07
9.72138e-07
1.95581e-06
3.3724e-06
5.24038e-06
7.57628e-06
9.99565e-06
1.37272e-05
3.03529e-05
5.69488e-05
9.07401e-05
0.000118491
0.000154124
5.80959e-07
8.3523e-11
3.02917e-13
2.37079e-22
4.04005e-23
1.09642e-23
4.28537e-24
2.21417e-24
1.40507e-24
1.03394e-24
4.49067e-23
3.01813e-20
7.52404e-19
2.81662e-05
7.87798e-06
1.06713e-05
1.03523e-05
1.04544e-05
1.05294e-05
1.03636e-05
9.95375e-06
9.54702e-06
9.20213e-06
8.75077e-06
8.30996e-06
7.97768e-06
7.67122e-06
7.44171e-06
7.32037e-06
7.2639e-06
7.28869e-06
7.3875e-06
7.54894e-06
7.76101e-06
8.02132e-06
8.32822e-06
8.62751e-06
8.85067e-06
9.03397e-06
9.21499e-06
9.39364e-06
9.5677e-06
9.73484e-06
9.89742e-06
1.0055e-05
1.01819e-05
1.00965e-05
9.18401e-06
9.28561e-06
1.29479e-05
1.82333e-05
1.71991e-05
9.87813e-06
1.04635e-05
8.77856e-06
7.27898e-06
6.53822e-06
5.99457e-06
5.45315e-06
5.17819e-06
5.02753e-06
4.92446e-06
4.89936e-06
4.92089e-06
5.02145e-06
5.21053e-06
5.45599e-06
5.76247e-06
6.12939e-06
6.55953e-06
7.05256e-06
7.549e-06
8.20299e-06
1.02547e-05
1.4048e-05
1.7581e-05
2.37322e-05
3.63561e-05
1.85383e-06
1.17638e-09
3.90696e-12
6.94873e-22
1.06899e-22
2.63685e-23
9.44309e-24
4.50309e-24
2.65651e-24
1.81959e-24
2.9036e-23
7.39241e-21
2.77658e-17
1.70342e-05
2.36154e-05
7.1444e-05
6.92111e-05
6.86913e-05
6.75426e-05
6.62872e-05
6.51018e-05
6.40538e-05
6.32207e-05
6.25262e-05
6.18996e-05
6.13735e-05
6.09231e-05
6.05105e-05
6.0146e-05
5.98288e-05
5.95376e-05
5.9275e-05
5.90309e-05
5.88051e-05
5.85938e-05
5.84054e-05
5.82504e-05
5.80997e-05
5.79222e-05
5.77156e-05
5.74961e-05
5.72596e-05
5.70033e-05
5.67395e-05
5.64695e-05
5.60646e-05
5.4548e-05
4.87137e-05
3.94825e-05
2.9241e-05
1.57705e-05
1.82416e-05
3.49082e-05
2.3549e-05
3.60439e-06
7.63172e-06
1.11557e-05
1.5449e-05
1.952e-05
2.34549e-05
2.72281e-05
3.05637e-05
3.31669e-05
3.51397e-05
3.66797e-05
3.79238e-05
3.89511e-05
3.97873e-05
4.04768e-05
4.10043e-05
4.13609e-05
4.15436e-05
4.13375e-05
3.66906e-05
3.2683e-05
1.87897e-05
6.23326e-06
1.00047e-05
5.04251e-06
1.46442e-08
5.38934e-11
2.13247e-21
2.96407e-22
6.64247e-23
2.17534e-23
9.54509e-24
5.21668e-24
3.318e-24
2.13471e-23
2.12909e-21
2.23022e-18
0.000107029
0.000180205
0.000202035
0.00019474
0.000191835
0.000189423
0.000187286
0.000185686
0.000184512
0.000183694
0.000183156
0.000182766
0.000182491
0.000182284
0.000182081
0.000181894
0.000181719
0.000181535
0.000181336
0.00018111
0.000180852
0.000180566
0.000180258
0.000179924
0.000179544
0.000179084
0.000178534
0.000177922
0.00017724
0.000176466
0.00017563
0.000174747
0.000173822
0.000172746
0.000167292
0.000156633
0.000139038
0.000117199
8.68509e-05
0.000169009
0.000167773
0.000174465
0.000178115
0.000179233
0.00018089
0.000182811
0.000184777
0.000186999
0.000189482
0.000191521
0.000193167
0.000194672
0.000196033
0.000197213
0.000198246
0.000199183
0.000199918
0.000200318
0.000200474
0.00020069
0.000196521
0.000184061
0.000163535
0.000139632
0.00011786
3.96487e-05
2.9021e-07
1.98672e-10
1.10915e-12
8.6042e-22
1.75037e-22
5.23564e-23
2.10806e-23
1.06365e-23
6.26578e-24
1.88137e-23
7.59671e-22
3.5036e-19
0.000223348
0.000178005
0.000139698
0.00013633
0.00013367
0.000132607
0.000131992
0.000131772
0.00013181
0.000131956
0.000132221
0.000132568
0.000132903
0.00013322
0.000133513
0.000133756
0.000133959
0.000134131
0.000134253
0.00013433
0.000134355
0.00013433
0.000134256
0.000134097
0.000133889
0.000133649
0.000133352
0.000132995
0.000132585
0.000132102
0.000131579
0.000130998
0.000130368
0.000130843
0.000133416
0.000135428
0.000134362
0.000127554
0.00010962
0.000209666
0.00019403
0.0001893
0.000185228
0.000181359
0.000179004
0.000177699
0.000176738
0.00017628
0.000176551
0.000176556
0.000176239
0.000176237
0.000176354
0.0001765
0.000176733
0.000177108
0.00017756
0.000177993
0.000178466
0.000180077
0.000183778
0.000185786
0.000182699
0.00017582
0.000163183
0.000106975
2.82125e-06
6.16798e-09
3.27549e-11
2.61096e-21
4.82058e-22
1.31481e-22
4.84952e-23
2.25167e-23
1.22516e-23
2.05773e-23
3.50467e-22
7.45924e-20
0.00012937
4.67392e-05
1.42252e-05
1.51539e-05
1.47433e-05
1.51767e-05
1.57093e-05
1.6027e-05
1.62637e-05
1.64425e-05
1.65245e-05
1.65512e-05
1.65549e-05
1.65375e-05
1.65208e-05
1.6502e-05
1.64913e-05
1.64897e-05
1.65089e-05
1.65495e-05
1.66238e-05
1.67383e-05
1.69021e-05
1.71041e-05
1.73287e-05
1.75625e-05
1.77984e-05
1.80221e-05
1.8231e-05
1.84172e-05
1.85731e-05
1.87009e-05
1.86584e-05
1.89917e-05
2.44904e-05
3.50568e-05
5.01301e-05
6.59249e-05
7.22448e-05
6.28139e-05
5.84618e-05
4.33378e-05
4.48009e-05
4.63224e-05
4.61094e-05
4.50518e-05
4.37515e-05
4.25728e-05
4.15565e-05
4.08067e-05
4.01424e-05
3.95992e-05
3.91703e-05
3.88566e-05
3.8702e-05
3.87595e-05
3.90494e-05
3.95629e-05
4.02445e-05
4.13397e-05
4.68095e-05
5.99188e-05
7.56731e-05
9.19567e-05
0.00010529
0.000103011
1.2186e-05
8.00811e-08
1.82904e-11
1.51718e-13
1.38531e-21
3.44138e-22
1.16037e-22
4.94662e-23
2.47952e-23
2.73976e-23
2.09741e-22
2.08291e-20
2.53686e-05
6.70357e-06
2.25015e-06
2.39838e-06
2.37286e-06
2.50139e-06
2.59683e-06
2.59034e-06
2.56059e-06
2.52457e-06
2.43187e-06
2.32518e-06
2.23801e-06
2.14811e-06
2.07692e-06
2.03578e-06
2.01338e-06
2.01737e-06
2.04806e-06
2.10408e-06
2.18333e-06
2.28824e-06
2.41973e-06
2.55665e-06
2.67131e-06
2.77587e-06
2.88505e-06
2.99595e-06
3.10788e-06
3.21831e-06
3.32516e-06
3.42856e-06
3.5011e-06
3.64566e-06
4.80713e-06
7.03293e-06
1.03412e-05
1.37434e-06
2.20761e-05
9.04839e-06
8.52309e-06
6.74677e-06
6.67651e-06
6.96402e-06
7.00763e-06
6.69628e-06
6.45454e-06
6.22822e-06
5.9786e-06
5.83096e-06
5.69936e-06
5.59561e-06
5.542e-06
5.51378e-06
5.5267e-06
5.58131e-06
5.6804e-06
5.81967e-06
5.98674e-06
6.21318e-06
7.09037e-06
9.1301e-06
1.1558e-05
1.62045e-05
2.04051e-05
3.94388e-05
2.29818e-05
5.14226e-07
9.5516e-10
7.38005e-12
4.14328e-21
9.36802e-22
2.88424e-22
1.1263e-22
5.18932e-23
4.24122e-23
1.60719e-22
7.50927e-21
5.3156e-06
1.30869e-05
1.59979e-05
1.52304e-05
1.54016e-05
1.5673e-05
1.55536e-05
1.50399e-05
1.45016e-05
1.40219e-05
1.33413e-05
1.26433e-05
1.20852e-05
1.153e-05
1.10775e-05
1.07949e-05
1.06094e-05
1.05681e-05
1.06624e-05
1.08839e-05
1.121e-05
1.16459e-05
1.21872e-05
1.27131e-05
1.30764e-05
1.3362e-05
1.36541e-05
1.39514e-05
1.42533e-05
1.45524e-05
1.48504e-05
1.51474e-05
1.54435e-05
1.57498e-05
1.56386e-05
1.47779e-05
1.29812e-05
1.1194e-05
1.27014e-05
1.42866e-05
9.45322e-06
1.07053e-05
1.04827e-05
1.10303e-05
1.16106e-05
1.17636e-05
1.20373e-05
1.22565e-05
1.23176e-05
1.24554e-05
1.25599e-05
1.26443e-05
1.27776e-05
1.29054e-05
1.30582e-05
1.32269e-05
1.34039e-05
1.35683e-05
1.37142e-05
1.3832e-05
1.38605e-05
1.30186e-05
1.14471e-05
9.67487e-06
1.14679e-05
1.39211e-05
9.03564e-06
1.52483e-06
1.29888e-08
1.20467e-10
1.28731e-20
2.6461e-21
7.43117e-22
2.65375e-22
1.12188e-22
7.31867e-23
1.55477e-22
3.46584e-21
3.88192e-05
9.49225e-05
0.000105265
0.000100298
9.98524e-05
9.93278e-05
9.84122e-05
9.7516e-05
9.67403e-05
9.61433e-05
9.574e-05
9.54353e-05
9.51979e-05
9.50213e-05
9.48666e-05
9.47284e-05
9.46079e-05
9.44922e-05
9.43784e-05