/*--------------------------------*- C++ -*----------------------------------*\
| =========                 |                                                 |
| \\      /  F ield         | OpenFOAM: The Open Source CFD Toolbox           |
|  \\    /   O peration     | Version:  2312                                  |
|   \\  /    A nd           | Website:  www.openfoam.com                      |
|    \\/     M anipulation  |                                                 |
\*---------------------------------------------------------------------------*/
FoamFile
{
    version     2.0;
    format      ascii;
    arch        "LSB;label=32;scalar=64";
    class       volScalarField;
    location    "500";
    object      turbulenceProperties:k;
}
// * * * * * * * * * * * * * * * * * * * * * * * * * * * * * * * * * * * * * //

dimensions      [0 2 -2 0 0 0 0];

internalField   nonuniform List<scalar> 
10720
(
0.0266119
0.0248832
0.0283416
0.0327917
0.0386625
0.046143
0.0555557
0.0674077
0.0831195
0.104909
0.136389
0.1858
0.26453
0.398598
0.660259
1.19393
2.22902
4.76973
9.49193
15.6943
24.8904
42.2777
81.0729
162.046
287.092
404.694
816.636
1338.28
938.993
400.351
125.693
16.9208
3.44795
0.446329
1e-15
1e-15
0.000436324
0.0311456
0.54279
0.033314
0.0296907
0.0212824
0.0155114
0.0116002
0.0188046
0.0210648
0.0217214
0.0238556
0.0269561
0.0320689
0.0403693
0.0535882
0.0777729
0.113647
0.196511
0.280287
0.681984
1.00018
1.2682
1.64637
2.47845
3.50209
4.9661
6.70037
8.56988
7.86828
4.81076
1.97895
0.527877
0.0609422
0.00339893
0.000853089
0.000345117
0.000131416
4.65749e-05
1e-15
1.83529
141.444
0.0026563
0.00525757
0.00528761
0.00539624
0.00526909
0.00496486
0.00462536
0.0042655
0.00397789
0.00375681
0.00363258
0.00349477
0.00431478
0.00741949
0.0159778
0.0387568
0.0924308
0.242927
0.646899
1.53211
3.16817
5.94054
10.4288
18.3717
58.4255
96.8841
282.76
573.565
482.446
291.444
137.999
50.4195
13.7944
1.98617
0.038396
1e-15
1e-15
0.00754053
0.612789
0.00411029
0.000672607
0.00699669
0.0102175
0.0114914
0.0092207
0.00506306
0.00433133
0.00464762
0.00505474
0.00497137
0.00428719
0.00416045
0.00425579
0.00122299
0.0342891
0.0503881
0.00566678
0.187613
0.245342
0.034014
0.503035
0.0770438
0.124443
1.42837
0.0494766
0.059967
0.0625365
0.037452
0.0292614
0.0176384
0.00869601
0.00382966
0.00153746
0.000581333
0.000204704
3.35753e-06
0.457531
33.5487
4.08965e-06
0.000507515
0.0012207
0.00145281
0.00172164
0.00190826
0.00208731
0.00226528
0.00242907
0.0025874
0.00273071
0.00287372
0.00302687
0.00275134
0.00371419
0.00888557
0.0181407
0.0454223
0.120418
0.292174
0.618126
1.18386
2.12029
4.17787
8.1786
19.078
95.9427
220.203
205.022
153.123
91.281
44.627
16.101
3.34826
0.275698
0.0280259
1e-15
0.00663583
0.469101
0.00572946
0.0120935
0.0130314
0.00928554
0.00452092
0.000683548
0.000733569
0.00057206
0.000638929
5.24979e-05
0.000570591
0.0010691
0.00142397
0.00179214
0.0022491
0.00229159
0.00179081
0.000153286
6.60617e-05
0.000174177
0.0068563
0.000305478
0.0159708
0.026093
0.000365297
0.0109284
0.0133406
0.014107
0.00870246
0.00696529
0.00439432
0.00237509
0.00125213
0.000705263
0.000393881
0.000550331
1e-15
0.172226
12.017
0.0105296
0.0102048
0.0104026
0.0109152
0.0109827
0.0107642
0.0109139
0.0110401
0.0111556
0.0112685
0.011334
0.0113836
0.0114601
0.0115254
0.011572
0.0116383
0.0107654
0.00780241
0.00244359
0.000811352
1e-15
1e-15
1e-15
0.00236964
0.050095
0.000705244
0.000248856
0.000810138
0.00137228
0.00341109
0.0211595
0.428476
2.52759
2.27111
0.925281
0.123937
0.0348209
0.0243266
1.63674
0.0139124
0.00995362
0.00320338
0.00151934
0.000789771
0.000696976
0.000705905
0.000710292
0.000720454
0.000740034
0.000822447
0.000905561
0.000972435
0.00104374
0.00114149
0.00117755
0.00112927
0.000238021
0.000567063
0.000940015
0.00137332
0.00161746
0.00187286
0.00198019
0.00182613
0.00174422
0.00159369
0.00165211
0.0016681
0.00169646
0.00171163
0.001697
0.00163722
0.00154812
0.00114321
0.00222028
4.01613e-05
0.122928
8.16333
0.0111857
0.009978
0.00960526
0.00929957
0.0090634
0.00883966
0.00866659
0.00854215
0.00847254
0.00846488
0.00843336
0.00856025
0.00891434
0.00911718
0.00927743
0.00962163
0.0101167
0.0106907
0.0106223
0.00448188
0.00124753
0.0004948
1e-15
1e-15
0.0103741
0.000148577
5.3276e-05
0.000176039
0.000302335
0.000761177
0.0047778
0.0978231
0.000582733
1.15601e-05
0.311062
0.282542
0.143768
0.0288962
1.69266
0.00499169
0.00179721
0.000669036
0.000954161
0.00193259
0.00472595
0.00531605
0.00526527
0.00524992
0.00523273
0.00519344
0.0051373
0.00507098
0.00499211
0.00495928
0.00493787
0.00485804
0.00474765
0.00464501
0.00454968
0.00445759
0.00470154
0.00453264
0.00396658
0.00384454
0.00374071
0.00364024
0.00354346
0.00344965
0.00335813
0.00324374
0.00310221
0.00296237
0.00289355
0.00240909
0.00304666
5.78555e-05
0.0986206
6.23502
0.00176737
0.00260037
0.00197544
0.00157355
0.00122423
0.000936418
0.000729556
0.000589247
0.000508302
0.000482508
0.000507527
0.000570442
0.000692231
0.000885042
0.00113732
0.00146992
0.00186966
0.00248686
0.00350758
0.00452171
0.00521023
0.00264671
0.000776534
0.000421347
1e-15
1e-15
1e-15
1e-15
1e-15
1e-15
1e-15
1e-15
0.000133639
2.68084e-06
1.7689e-07
3.11843e-06
1.98293e-05
5.90849e-05
0.00358139
0.00088201
0.000861055
0.00245171
0.00583161
0.00716272
0.00769744
0.00773336
0.00777908
0.00785625
0.00796447
0.00806326
0.00815761
0.0082564
0.00833439
0.00850338
0.00870153
0.00870522
0.0086721
0.00870162
0.00869821
0.00866187
0.00859673
0.0085517
0.00847132
0.00836319
0.00823448
0.00808829
0.00792646
0.00775039
0.00756564
0.00737896
0.00712486
0.0067697
0.0064298
0.00574264
0.00551481
0.000109917
0.0709714
4.27234
0.00068114
0.000673202
0.000686964
0.000662419
0.000667106
0.000681081
0.000689748
0.000710534
0.000736699
0.000766175
0.000804553
0.000847428
0.00089859
0.000962183
0.0010359
0.00112445
0.00122719
2.02098e-05
0.000279256
0.000896025
0.00192133
0.00291979
0.00328475
0.00219366
0.00112264
1.32061e-06
1e-15
1e-15
1e-15
1e-15
1e-15
1e-15
1e-15
1e-15
4.11265e-08
7.31249e-07
4.68652e-06
1e-15
0.000858196
0.00090663
0.00491928
0.00712462
0.00654128
0.004996
0.00380184
0.00382926
0.00394499
0.00408191
0.0042657
0.00447497
0.00470891
0.00497259
0.00526664
0.00557382
0.00593783
0.0062365
0.00641365
0.00650557
0.00653291
0.00651223
0.00645636
0.0063742
0.00627526
0.00616539
0.00604705
0.00592318
0.00579563
0.00566574
0.00553465
0.0054119
0.0053183
0.00522872
0.00511671
0.00494743
0.00545109
0.000114004
0.0414832
2.37818
0.00318413
0.00323594
0.00357561
0.0038348
0.00407551
0.00432174
0.00454501
0.00474068
0.00490991
0.00505398
0.00517657
0.00527806
0.00535967
0.00542502
0.0054767
0.00551608
0.00554063
0.00549643
0.00560826
0.00508151
0.00429683
0.00433475
0.00467854
0.00469274
0.00519003
6.70351e-06
3.24674e-07
1e-15
1e-15
1e-15
1e-15
1e-15
1e-15
1e-15
1e-15
1e-15
1e-15
1e-15
1e-15
0.00665551
0.00692544
0.00419897
0.00166638
0.000140113
0.000541976
0.000540267
0.000559143
0.000584398
2.23066e-05
0.000147614
0.000296906
0.00047357
0.000679588
0.00092399
0.00118681
0.00136285
0.00146249
0.00150967
0.00152119
0.00150743
0.00147674
0.0014357
0.0013931
0.00135389
0.00131699
0.00128359
0.0012546
0.00123063
0.00121072
0.00119365
0.00121067
0.00131051
0.00147876
0.0016348
0.00263543
5.78154e-05
0.0169035
0.923176
0.00688046
0.00620998
0.00618587
0.00611429
0.00602003
0.00596354
0.00593062
0.00589884
0.0058816
0.00589251
0.00592467
0.00596776
0.00602277
0.00609732
0.00619168
0.00630605
0.00643834
0.00656197
0.00678201
0.00693092
0.00663893
0.00619604
0.00600708
0.00552243
0.0069135
1.97716e-05
9.94955e-07
1e-15
1e-15
1e-15
1e-15
1e-15
1e-15
1e-15
1e-15
1e-15
1e-15
1e-15
1e-15
0.005578
0.00202036
0.000809707
0.000287912
0.000207747
0.000206982
0.000207763
0.000204056
0.000200247
0.000200153
0.000213621
0.000231063
0.000255845
0.000287039
0.000326445
0.000372042
0.000406643
0.00043112
0.000448317
0.00046022
0.000467859
0.000472275
0.000474304
0.000475001
0.000474804
0.000473784
0.000472476
0.000471085
0.000469756
0.000468334
0.000466317
0.000470343
0.000483902
0.000506453
0.000545058
0.000724981
0.000113725
0.00391475
0.203723
0.00344452
0.00330603
0.00292783
0.00259751
0.00236395
0.00221659
0.00210643
0.00201247
0.00194986
0.00194381
0.00197119
0.00200638
0.00206837
0.00217724
0.00232724
0.00252314
0.00274837
0.00301197
0.00351323
0.0041944
0.00473441
0.00503947
0.00529716
0.00509133
0.00636666
4.01394e-05
2.09726e-06
1e-15
1e-15
1e-15
1e-15
1e-15
1e-15
1e-15
1e-15
1e-15
1e-15
1e-15
1e-15
0.000650643
0.000335491
0.000341817
0.000511314
0.00138275
0.00146761
0.00145032
0.00142878
0.00140533
0.00137929
0.00135094
0.00131946
0.00129568
0.00127505
0.00125344
0.00123281
0.00121293
0.00119404
0.00117652
0.00116032
0.00114514
0.00113079
0.00111687
0.00110328
0.00108962
0.00107507
0.0010593
0.00104223
0.00102369
0.00100364
0.000980791
0.000953504
0.000885536
0.000787947
0.000776736
0.000516036
0.000512185
0.000223257
0.00586104
0.000422653
4.77155e-05
0.000394233
0.000336835
0.00031311
0.000315442
0.000320895
0.000329809
0.000340052
0.000354293
0.00037407
0.000393737
0.000416621
0.000447892
0.000485873
0.000547521
0.000592077
0.000627157
0.000755088
0.00041044
0.00111822
0.00183829
0.00256895
0.00290666
0.00443305
6.57484e-05
3.56504e-06
1e-15
1e-15
1e-15
1e-15
1e-15
1e-15
1e-15
1e-15
1e-15
1e-15
1e-15
1e-15
0.000210985
5.40053e-05
0.00212333
0.00326782
0.00362622
0.00361773
0.00359672
0.00358325
0.00357426
0.00356891
0.00356543
0.00355801
0.00355494
0.00355023
0.00353628
0.00351568
0.00349028
0.00346104
0.00342857
0.00339314
0.00335484
0.00331365
0.00326965
0.00322303
0.003174
0.00312254
0.0030687
0.00301243
0.00295356
0.00289184
0.00282715
0.00276075
0.00265971
0.0025154
0.00233516
0.00213509
0.00184609
0.000420629
0.00139019
0.000372135
0.000251956
0.000287495
0.00030596
0.000343104
0.0001109
0.00026112
0.000391882
0.000498157
0.000582767
0.000653546
0.000708429
0.000749879
0.000785456
0.000813754
0.000933852
0.000897727
0.000751299
0.000718133
0.000652242
0.00071947
0.000971643
0.00140579
0.00161681
0.0029626
0.000110649
6.22183e-06
1e-15
1e-15
1e-15
1e-15
1e-15
1e-15
1e-15
1e-15
1e-15
1e-15
1e-15
1e-15
0.00105023
0.00298358
0.00355624
0.00279226
0.00241681
0.00240408
0.00240256
0.00241283
0.00243248
0.00246041
0.00248984
0.00251341
0.00253381
0.00255149
0.00255675
0.00255464
0.00254692
0.0025343
0.00251708
0.00249548
0.00246959
0.00243981
0.0024065
0.00237084
0.00233387
0.00229578
0.00225666
0.00221654
0.00217551
0.00213337
0.00209057
0.0020544
0.00203351
0.00201165
0.00198274
0.00191782
0.00181999
0.00165433
0.000201674
0.00193178
0.0019574
0.00213395
0.00233806
0.00248012
0.00262925
0.00275635
0.0028527
0.00292536
0.00298131
0.00302852
0.00307086
0.00310861
0.00314282
0.00317383
0.00319759
0.00322173
0.00323618
0.00323474
0.003239
0.00293721
0.00247523
0.00233415
0.00208569
0.002797
0.000250921
1.4623e-05
1e-15
1e-15
1e-15
1e-15
1e-15
1e-15
1e-15
1e-15
1e-15
1e-15
1e-15
1e-15
0.0033331
0.00306042
0.00154343
0.000539902
0.000272988
0.000273895
0.000288499
0.000301979
0.000319693
0.000343445
0.000361714
0.000377423
0.000387936
0.000397998
0.000407865
0.000417149
0.000425071
0.000431169
0.000435017
0.000436482
0.00043547
0.000432328
0.000427582
0.000422446
0.000417741
0.000413221
0.000408892
0.000404852
0.000401223
0.000398032
0.000394394
0.000391617
0.000416555
0.000486704
0.000583496
0.000709981
0.00084386
0.00102922
0.000687129
0.00309314
0.00264834
0.00249052
0.00242787
0.00236697
0.00232328
0.00230405
0.00228917
0.00228361
0.00229429
0.00232075
0.00236133
0.00241355
0.00247622
0.00254936
0.00263293
0.0027255
0.0028225
0.00293602
0.00304696
0.00312611
0.00310016
0.0029429
0.00259972
0.00291891
0.000569042
3.0874e-10
1.74515e-11
1e-15
1e-15
1e-15
1e-15
1e-15
1e-15
1e-15
1e-15
1e-15
1e-15
1e-15
0.00225689
0.000659041
0.000296436
9.76112e-05
7.18126e-05
7.46527e-05
7.78762e-05
7.87336e-05
7.98282e-05
8.20051e-05
8.25442e-05
8.27981e-05
8.31447e-05
8.37869e-05
8.50296e-05
8.69678e-05
8.91919e-05
9.16584e-05
9.42065e-05
9.66883e-05
9.89419e-05
0.00010098
0.000102808
0.000104437
0.000105784
0.000106908
0.000107959
0.000108953
0.000109912
0.000110831
0.000111504
0.000112025
0.000117018
0.000128868
0.000152591
0.000169842
0.000197826
0.000203852
0.000379471
0.00113297
0.000987938
0.000774052
0.000653042
0.000550002
0.000461691
0.000408067
0.000373496
0.000354968
0.000357874
0.000377798
0.000410062
0.000453103
0.000506646
0.000574429
0.000658339
0.000748721
0.000849823
0.000958568
0.00112726
0.00143658
0.00176383
0.00200253
0.00204929
0.00240362
0.000962074
3.64358e-09
2.1347e-10
1e-15
1e-15
1e-15
1e-15
1e-15
1e-15
1e-15
1e-15
1e-15
1e-15
1e-15
3.39491e-05
0.000117924
0.00017584
0.00015017
0.00022354
0.000227495
0.00022931
0.000227298
0.00022301
0.000218101
0.000212283
0.000205648
0.000199225
0.000193171
0.000187315
0.000182026
0.000177251
0.000172905
0.000169006
0.000165509
0.000162333
0.000159433
0.000156855
0.000154714
0.00015288
0.00015103
0.000149192
0.000147381
0.000145574
0.000143741
0.000141746
0.000138712
0.000128769
0.000103978
0.000106387
4.52686e-05
0.000157225
0.000177634
0.000169139
0.000146528
0.000130113
0.000126016
0.00012705
0.000130785
0.00013513
0.000135875
0.00013787
0.000139835
0.000142506
0.000147897
0.000154764
0.000163222
0.000174644
0.000187484
0.000202023
0.000219352
0.000239968
0.000262779
0.000305536
0.000359759
0.000144547
0.000498316
0.000797336
0.00122031
0.000983334
1.34985e-08
8.19263e-10
1e-15
1e-15
1e-15
1e-15
1e-15
1e-15
1e-15
1e-15
1e-15
1e-15
1e-15
0.000134447
0.000225589
0.00112753
0.00148971
0.00149863
0.00148707
0.00147564
0.00146608
0.00145699
0.00144837
0.0014403
0.00143232
0.00142441
0.0014165
0.00140829
0.0013997
0.00139063
0.00138088
0.00137038
0.00135901
0.0013467
0.00133332
0.00131885
0.00130334
0.0012869
0.00126956
0.00125137
0.00123235
0.00121246
0.00119164
0.00116984
0.00114705
0.00112077
0.0010666
0.00098328
0.000866274
0.00072424
0.000582024
0.000473215
0.000259313
0.000182355
0.000120495
0.000280578
0.000397475
0.000501467
0.000571169
0.000617385
0.000646754
0.000664276
0.000675165
0.000681868
0.000685532
0.000692486
0.000690357
0.000677645
0.000671529
0.000670291
0.000669583
0.000725279
0.000625317
0.000462266
0.000476726
0.000572152
0.0007348
0.000917744
4.47258e-08
2.81013e-09
1e-15
1e-15
1e-15
1e-15
1e-15
1e-15
1e-15
1e-15
1e-15
1e-15
1e-15
0.000807012
0.00159139
0.00159914
0.0014537
0.00142101
0.00140221
0.00138737
0.00137792
0.00137157
0.00136691
0.00136392
0.00136195
0.00136026
0.00135856
0.00135662
0.00135409
0.00135081
0.00134656
0.0013412
0.00133457
0.00132654
0.00131702
0.00130589
0.00129317
0.0012791
0.00126393
0.0012477
0.00123043
0.00121213
0.00119278
0.00117255
0.00115166
0.00113638
0.00111955
0.00109033
0.00104465
0.000972009
0.000841898
0.00068164
0.00124567
0.00128066
0.00137561
0.00148326
0.00156135
0.00162253
0.00165731
0.00167041
0.0016735
0.00167245
0.00167085
0.0016702
0.00166963
0.00169802
0.00168919
0.00161539
0.00161988
0.00166272
0.00166179
0.00165783
0.00158926
0.00150505
0.00130594
0.00108908
0.000967853
0.00107037
1.62911e-07
1.05891e-08
1e-15
1e-15
1e-15
1e-15
1e-15
1e-15
1e-15
1e-15
1e-15
1e-15
1e-15
0.00169514
0.00122191
0.000539215
0.000397277
0.000380198
0.000374666
0.000370056
0.000366459
0.000364664
0.00036425
0.000364589
0.000365588
0.000367088
0.000368931
0.000370959
0.000373074
0.00037512
0.00037704
0.000378702
0.000380032
0.000380927
0.000381385
0.000381378
0.000380942
0.000380074
0.000378748
0.000376924
0.000374589
0.00037176
0.000368465
0.000365958
0.000361654
0.000361482
0.000391802
0.000431049
0.000472502
0.00053339
0.000577752
0.000563978
0.00145796
0.00127013
0.00119477
0.00115257
0.00110662
0.00107962
0.00106338
0.00104265
0.00102582
0.00101661
0.00101426
0.00101725
0.0010242
0.00103429
0.00105257
0.00107286
0.00109082
0.00111159
0.00113525
0.00117351
0.00123659
0.00127663
0.00127806
0.00125161
0.00111723
0.0011727
5.24412e-07
3.52398e-08
1e-15
1e-15
1e-15
1e-15
1e-15
1e-15
1e-15
1e-15
1e-15
1e-15
1e-15
0.000810202
7.80817e-05
8.83479e-05
5.87508e-05
5.73486e-05
5.80301e-05
5.76964e-05
5.62204e-05
5.49584e-05
5.40913e-05
5.27446e-05
5.15716e-05
5.10031e-05
5.0633e-05
5.07003e-05
5.13224e-05
5.22595e-05
5.35722e-05
5.51887e-05
5.70413e-05
5.90291e-05
6.11421e-05
6.33315e-05
6.53746e-05
6.70005e-05
6.83834e-05
6.96452e-05
7.07697e-05
7.17464e-05
7.25671e-05
7.34752e-05
7.39488e-05
7.52006e-05
8.28463e-05
9.25573e-05
0.000104798
5.18156e-05
0.000176321
0.000285532
0.000393608
0.000373794
0.000243376
0.000155766
9.331e-05
5.29778e-05
3.62883e-05
2.50519e-05
1.58969e-05
1.33013e-05
1.58133e-05
2.10999e-05
2.86122e-05
3.82855e-05
5.03132e-05
6.46208e-05
8.19234e-05
0.000102591
0.000125899
0.000155274
0.000225694
0.000352283
0.000518326
0.00067733
0.00073227
0.000949068
1.32938e-06
9.22888e-08
1e-15
1e-15
1e-15
1e-15
1e-15
1e-15
1e-15
1e-15
1e-15
1e-15
1e-15
0.000153426
3.66645e-05
8.90002e-05
9.08741e-05
9.22915e-05
9.38818e-05
9.35227e-05
9.10132e-05
8.83784e-05
8.60764e-05
8.28395e-05
7.9746e-05
7.75724e-05
7.56474e-05
7.43914e-05
7.39863e-05
7.40769e-05
7.47445e-05
7.58955e-05
7.74219e-05
7.91753e-05
8.11491e-05
8.3253e-05
8.51336e-05
8.63899e-05
8.72987e-05
8.80986e-05
8.8773e-05
8.93127e-05
8.96999e-05
9.03065e-05
9.05684e-05
9.0398e-05
8.73479e-05
8.00864e-05
6.933e-05
6.98177e-05
8.16869e-05
5.2969e-05
5.31618e-05
5.46853e-05
5.10101e-05
4.59864e-05
4.4325e-05
4.43413e-05
4.49396e-05
4.62035e-05
4.71407e-05
4.81287e-05
4.9914e-05
5.1876e-05
5.39997e-05
5.65437e-05
5.94022e-05
6.264e-05
6.63798e-05
7.06913e-05
7.54905e-05
8.12336e-05
9.17135e-05
0.000110559
0.000131828
4.8487e-05
0.000168445
0.000485052
2.41804e-06
1.73288e-07
1e-15
1e-15
1e-15
1e-15
1e-15
1e-15
1e-15
1e-15
1e-15
1e-15
1e-15
9.16384e-05
0.000196216
0.000604087
0.000615085
0.000612988
0.000607674
0.000602181
0.000597102
0.000592085
0.000587312
0.000583101
0.000579123
0.000575297
0.000571651
0.000568027
0.000564346
0.000560574
0.00055661
0.00055241
0.000547916
0.000543074
0.000537824
0.000532121
0.000526036
0.00051968
0.000513058
0.000506163
0.000499001
0.000491566
0.000483853
0.00047786
0.000470566
0.000461588
0.000438722
0.000396006
0.000337753
0.00028081
0.00019339
0.000148025
0.000162398
2.52134e-05
0.000105413
0.000172044
0.000219596
0.000256237
0.000282659
0.000303808
0.000320647
0.000333428
0.000343616
0.000351725
0.000357953
0.000362657
0.000366066
0.000368245
0.000369381
0.000369586
0.000369093
0.000367376
0.000352458
0.000330557
0.000254145
0.000189734
0.000170766
0.000355146
6.69404e-06
4.94947e-07
1e-15
1e-15
1e-15
1e-15
1e-15
1e-15
1e-15
1e-15
1e-15
1e-15
1e-15
0.000520109
0.000878736
0.000956855
0.000918602
0.000907064
0.000896835
0.000887856
0.000880703
0.000874638
0.00086924
0.000864646
0.000860606
0.000856897
0.000853459
0.000850144
0.000846803
0.000843378
0.000839763
0.000835838
0.000831517
0.000826694
0.000821237
0.000814989
0.000807899
0.000800068
0.00079155
0.000782345
0.000772476
0.000761957
0.000750836
0.000739045
0.000726479
0.000714973
0.000701013
0.000671927
0.000631041
0.000570871
0.000458065
0.000353775
0.000737711
0.000732754
0.000784691
0.000839067
0.000872256
0.000893882
0.000908792
0.000919106
0.000926722
0.000931892
0.000935036
0.000936618
0.000936825
0.000936087
0.000934688
0.000932708
0.000930231
0.000927257
0.000923691
0.000919377
0.000912358
0.000870713
0.000789602
0.000714215
0.000573142
0.000545787
3.2439e-05
2.49824e-06
1e-15
1e-15
1e-15
1e-15
1e-15
1e-15
1e-15
1e-15
1e-15
1e-15
1e-15
0.000927689
0.000701185
0.000445948
0.000399013
0.000389843
0.000385446
0.000381949
0.000379376
0.000377562
0.000376111
0.000375005
0.000374251
0.000373689
0.000373248
0.000372896
0.000372526
0.000372103
0.000371578
0.000370882
0.00036998
0.000368827
0.00036736
0.000365533
0.000363337
0.00036078
0.000357887
0.00035472
0.000351182
0.000347337
0.000343178
0.000338676
0.000333723
0.000329653
0.000333772
0.000348968
0.000369984
0.000386372
0.000384031
0.000353457
0.000798742
0.000727611
0.000699538
0.000689084
0.000667239
0.000642072
0.000622492
0.000605193
0.00059062
0.000579133
0.00056996
0.000563195
0.000558756
0.000556186
0.000555202
0.00055551
0.000556893
0.000559309
0.000562742
0.000567233
0.000581482
0.000612109
0.000629125
0.000640977
0.000607543
0.000611789
0.00010697
1.48124e-07
1.10402e-08
1e-15
1e-15
1e-15
1e-15
1e-15
1e-15
1e-15
1e-15
1e-15
1e-15
0.000414394
9.44866e-05
7.81749e-05
6.07604e-05
6.04328e-05
6.12444e-05
6.09487e-05
5.93269e-05
5.77156e-05
5.63176e-05
5.42229e-05
5.21751e-05
5.0719e-05
4.93712e-05
4.84702e-05
4.81908e-05
4.82714e-05
4.8819e-05
4.9769e-05
5.10563e-05
5.25964e-05
5.43621e-05
5.63071e-05
5.81028e-05
5.93952e-05
6.04102e-05
6.13698e-05
6.22401e-05
6.30153e-05
6.36848e-05
6.42353e-05
6.4631e-05
6.51327e-05
6.7226e-05
7.2508e-05
1.92646e-05
7.91732e-05
0.000152738
0.000199762
0.000199855
0.000208665
0.000152967
0.000119224
9.3799e-05
7.03553e-05
5.12788e-05
3.60426e-05
2.37376e-05
1.42894e-05
7.41404e-06
3.05079e-06
1.184e-06
1.18697e-06
2.61203e-06
5.23067e-06
8.97217e-06
1.38684e-05
1.99559e-05
2.62005e-05
3.57705e-05
7.86414e-05
0.000146867
0.000233184
0.000303682
0.000394703
0.000190278
1.60245e-06
1.23161e-07
1e-15
1e-15
1e-15
1e-15
1e-15
1e-15
1e-15
1e-15
1e-15
1e-15
7.92738e-05
2.20124e-05
2.97976e-05
2.88705e-05
2.91257e-05
2.92982e-05
2.87779e-05
2.75607e-05
2.63452e-05
2.52998e-05
2.39648e-05
2.26668e-05
2.1674e-05
2.07601e-05
2.00629e-05
1.96635e-05
1.94417e-05
1.94389e-05
1.96333e-05
1.9992e-05
2.04792e-05
2.10821e-05
2.17904e-05
2.24587e-05
2.29057e-05
2.32291e-05
2.35304e-05
2.38081e-05
2.40574e-05
2.42716e-05
2.44494e-05
2.45849e-05
2.46182e-05
2.41334e-05
2.16933e-05
2.16612e-05
2.97988e-05
4.13285e-05
3.87476e-05
2.78036e-05
2.94133e-05
2.45119e-05
2.01894e-05
1.80465e-05
1.64804e-05
1.49371e-05
1.41328e-05
1.3668e-05
1.33312e-05
1.32042e-05
1.31997e-05
1.34026e-05
1.38378e-05
1.44197e-05
1.51539e-05
1.60295e-05
1.70581e-05
1.82467e-05
1.94284e-05
2.09791e-05
2.60628e-05
3.55209e-05
4.42774e-05
5.95855e-05
9.10966e-05
0.000148691
6.14321e-06
4.86517e-07
1e-15
1e-15
1e-15
1e-15
1e-15
1e-15
1e-15
1e-15
1e-15
1e-15
4.73589e-05
6.51505e-05
0.000197019
0.000190711
0.000189117
0.000185688
0.000181792
0.000177941
0.000174392
0.000171394
0.000168758
0.000166322
0.00016419
0.000162299
0.000160552
0.000158966
0.000157527
0.000156168
0.00015489
0.000153659
0.000152456
0.000151235
0.000149993
0.000148752
0.000147427
0.000145953
0.000144354
0.000142666
0.000140889
0.000139019
0.000137055
0.00013498
0.000132486
0.000127396
0.000112405
8.99668e-05
6.57365e-05
3.49303e-05
4.01268e-05
9.71113e-05
6.54042e-05
9.94067e-06
2.09061e-05
3.04077e-05
4.19292e-05
5.27579e-05
6.31244e-05
7.29442e-05
8.14823e-05
8.79809e-05
9.27387e-05
9.62995e-05
9.90521e-05
0.000101224
0.000102854
0.000104026
0.000104752
0.00010508
0.000104946
0.00010373
9.145e-05
8.10025e-05
4.6364e-05
1.53282e-05
2.45426e-05
0.000101896
1.99293e-05
1.96404e-06
1e-15
1e-15
1e-15
1e-15
1e-15
1e-15
1e-15
1e-15
1e-15
1e-15
0.000293944
0.000491044
0.000550457
0.000530299
0.00052188
0.000514356
0.000507011
0.000500678
0.000495256
0.000490657
0.000486762
0.000483314
0.000480284
0.000477566
0.000474995
0.000472567
0.000470224
0.000467866
0.000465458
0.000462936
0.000460233
0.000457263
0.000453975
0.000450355
0.000446355
0.000441924
0.000437132
0.000432028
0.000426604
0.000420845
0.000414735
0.000408264
0.000401399
0.000394128
0.000377018
0.000348548
0.000305243
0.000253576
0.000186524
0.000464527
0.000460166
0.000475052
0.00048163
0.000482071
0.00048417
0.000486969
0.000489811
0.000493146
0.000497013
0.000499653
0.00050124
0.000502441
0.000503294
0.000503696
0.000503553
0.000502822
0.000501474
0.000499482
0.000496835
0.000493888
0.000480152
0.00044695
0.00039518
0.000336149
0.000282975
0.000248799
9.87716e-05
2.02626e-06
1.61949e-07
1e-15
1e-15
1e-15
1e-15
1e-15
1e-15
1e-15
1e-15
1e-15
0.000605646
0.000479009
0.000375924
0.000366663
0.000359034
0.000355309
0.000352359
0.000350141
0.000348429
0.000346901
0.000345658
0.000344676
0.000343763
0.00034291
0.000342103
0.00034125
0.000340329
0.000339328
0.00033817
0.000336848
0.000335299
0.000333469
0.000331312
0.000328756
0.000325899
0.000322817
0.000319502
0.000315931
0.00031212
0.000308051
0.000303742
0.000299136
0.000294192
0.000291633
0.000293656
0.000294272
0.000288017
0.000269511
0.000229784
0.000568944
0.000525218
0.000508566
0.000493985
0.000480823
0.000471982
0.000466021
0.000461008
0.000457247
0.000455337
0.000452765
0.000449422
0.000446944
0.000444831
0.000442811
0.000440841
0.000438916
0.000437067
0.00043532
0.000433652
0.000434375
0.000439942
0.000441819
0.000432169
0.000414172
0.000383278
0.000337162
0.000233571
1.68527e-05
1.42491e-06
1e-15
1e-15
1e-15
1e-15
1e-15
1e-15
1e-15
1e-15
1e-15
0.000346163
0.000124132
3.77743e-05
4.02078e-05
3.90478e-05
4.00741e-05
4.1302e-05
4.19168e-05
4.22912e-05
4.24988e-05
4.24518e-05
4.22719e-05
4.20488e-05
4.17885e-05
4.15466e-05
4.13113e-05
4.1102e-05
4.09158e-05
4.07769e-05
4.06827e-05
4.06578e-05
4.07089e-05
4.08507e-05
4.10554e-05
4.12867e-05
4.15141e-05
4.17256e-05
4.18842e-05
4.19813e-05
4.20029e-05
4.19242e-05
4.17503e-05
4.11589e-05
4.13677e-05
5.26658e-05
7.44073e-05
0.000104949
0.000136041
0.000147807
0.000168162
0.000156092
0.000114801
0.000117739
0.000120945
0.000119659
0.00011623
0.00011223
0.000108568
0.000105347
0.000102835
0.00010057
9.86417e-05
9.7027e-05
9.5709e-05
9.47499e-05
9.42428e-05
9.42679e-05
9.48516e-05
9.58252e-05
9.76927e-05
0.000109747
0.000139501
0.000175167
0.000211893
0.000241828
0.000252486
0.000251168
5.62572e-05
2.27203e-07
1.83457e-08
1e-15
1e-15
1e-15
1e-15
1e-15
1e-15
1e-15
1e-15
6.6944e-05
1.75559e-05
5.88954e-06
6.26958e-06
6.18853e-06
6.5007e-06
6.7163e-06
6.66107e-06
6.54369e-06
6.41011e-06
6.13506e-06
5.82987e-06
5.57899e-06
5.3261e-06
5.12382e-06
4.99852e-06
4.92068e-06
4.90755e-06
4.95845e-06
5.06872e-06
5.23171e-06
5.45119e-06
5.72716e-06
6.00848e-06
6.23046e-06
6.4226e-06
6.61976e-06
6.81431e-06
7.00348e-06
7.18198e-06
7.34334e-06
7.48784e-06
7.55443e-06
7.76572e-06
1.0107e-05
1.45905e-05
2.1157e-05
2.77117e-06
4.40986e-05
2.38865e-05
2.24367e-05
1.76123e-05
1.72789e-05
1.78944e-05
1.78889e-05
1.69882e-05
1.62777e-05
1.56127e-05
1.48954e-05
1.44382e-05
1.40255e-05
1.36869e-05
1.34756e-05
1.33272e-05
1.32727e-05
1.33076e-05
1.34415e-05
1.36704e-05
1.39617e-05
1.43782e-05
1.62752e-05
2.08044e-05
2.61753e-05
3.65174e-05
4.58181e-05
8.94743e-05
0.000143182
8.96861e-05
3.25361e-06
2.70576e-07
1e-15
1e-15
1e-15
1e-15
1e-15
1e-15
1e-15
1e-15
1.38263e-05
3.37636e-05
4.12275e-05
3.91806e-05
3.95134e-05
4.00529e-05
3.95419e-05
3.80019e-05
3.64017e-05
3.49604e-05
3.30408e-05
3.11132e-05
2.95626e-05
2.80477e-05
2.6807e-05
2.59941e-05
2.54243e-05
2.52028e-05
2.53019e-05
2.56943e-05
2.63195e-05
2.718e-05
2.82561e-05
2.92636e-05
2.98698e-05
3.02767e-05
3.06806e-05
3.10749e-05
3.14523e-05
3.17984e-05
3.21096e-05
3.23857e-05
3.26205e-05
3.28356e-05
3.21739e-05
2.99915e-05
2.59749e-05
2.207e-05
2.47886e-05
3.71739e-05
2.45253e-05
2.75247e-05
2.67008e-05
2.78807e-05
2.91456e-05
2.93398e-05
2.98399e-05
3.01973e-05
3.01571e-05
3.02983e-05
3.03529e-05
3.03594e-05
3.04852e-05
3.05949e-05
3.07476e-05
3.09105e-05
3.10757e-05
3.12139e-05
3.13122e-05
3.13332e-05
3.11381e-05
2.9027e-05
2.5359e-05
2.132e-05
2.51711e-05
3.05237e-05
2.72486e-05
6.52974e-05
1.168e-05
1.28868e-06
1e-15
1e-15
1e-15
1e-15
1e-15
1e-15
1e-15
1e-15
9.94615e-05
0.00024103
0.000266861
0.000253733
0.000251859
0.000249507
0.000245864
0.000242067
0.000238504
0.00023538
0.000232776
0.000230516
0.000228535
0.000226802
0.000225215
0.000223733
0.000222327
0.000220941
0.000219548
0.000218115
0.000216605
0.00021498
0.000213215
0.000211332
0.000209352
0.000207253
0.000205042
0.000202722
0.000200282
0.000197713
0.000195007
0.000192161
0.00018918
0.000186204
0.000178458
0.000162743
0.000137966
0.000111792
8.09353e-05
0.000186937
0.000172348
0.000181212
0.000183964
0.000190642
0.00019735
0.000203453
0.000208754
0.000213339
0.00021706
0.000219992
0.000222261
0.000223917
0.000225047
0.000225716
0.000225959
0.000225801
0.000225265
0.000224364
0.000223118
0.000221569
0.000219191
0.00020388
0.000178488
0.000149244
0.000125123
9.41752e-05
6.81466e-05
8.18951e-05
4.30117e-05
1.76887e-06
1.73726e-07
1e-15
1e-15
1e-15
1e-15
1e-15
1e-15
1e-15
0.000364832
0.000339095
0.000317262
0.000304734
0.000298719
0.000295236
0.000291279
0.00028755
0.000284298
0.000281489
0.000279175
0.00027723
0.000275529
0.000274044
0.000272703
0.000271443
0.000270241
0.000269058
0.000267856
0.000266599
0.000265252
0.000263765
0.000262072
0.000260154
0.000258059
0.000255798
0.000253352
0.000250712
0.000247876
0.000244848
0.000241616
0.000238186
0.00023462
0.000231723
0.000228329
0.000220384
0.000208328
0.000186727
0.000151447
0.000378523
0.000345675
0.000339415
0.000337007
0.000334415
0.000331826
0.000330398
0.000329218
0.0003281
0.000326899
0.000325458
0.000323904
0.000322262
0.000320526
0.00031873
0.000316866
0.000314924
0.000312897
0.000310777
0.000308558
0.000306336
0.000306021
0.000301058
0.000287858
0.000269335
0.000244906
0.000208398
0.000168614
0.00014407
0.000108255
1.8291e-05
1.5161e-07
1.25192e-08
1e-15
1e-15
1e-15
1e-15
1e-15
1e-15
0.000286568
0.00012453
9.49651e-05
9.28954e-05
8.84434e-05
8.72795e-05
8.67068e-05
8.60953e-05
8.56273e-05
8.52187e-05
8.48409e-05
8.45226e-05
8.42431e-05
8.39819e-05
8.37465e-05
8.3513e-05
8.32977e-05
8.30686e-05
8.28336e-05
8.25669e-05
8.22832e-05
8.19382e-05
8.15181e-05
8.1029e-05
8.04661e-05
7.98499e-05
7.9162e-05
7.84184e-05
7.76295e-05
7.6789e-05
7.58836e-05
7.49262e-05
7.38728e-05
7.3303e-05
7.69214e-05
8.59715e-05
9.89217e-05
0.00011073
0.000110442
0.00020326
0.000192913
0.000172591
0.000163584
0.000158586
0.000153485
0.000148813
0.000144377
0.000140136
0.000136259
0.00013267
0.000129485
0.000126711
0.000124296
0.000122219
0.000120448
0.000118974
0.000117774
0.000116833
0.000116159
0.000115652
0.000117252
0.00012796
0.000141854
0.00015552
0.000165095
0.000169478
0.000165501
0.000150464
0.00013569
5.71994e-05
2.98928e-06
2.54336e-07
1e-15
1e-15
1e-15
1e-15
1e-15
1e-15
4.17679e-05
2.23972e-05
1.50239e-05
1.46846e-05
1.41976e-05
1.43288e-05
1.42555e-05
1.38112e-05
1.33448e-05