/*--------------------------------*- C++ -*----------------------------------*\
| =========                 |                                                 |
| \\      /  F ield         | OpenFOAM: The Open Source CFD Toolbox           |
|  \\    /   O peration     | Version:  2312                                  |
|   \\  /    A nd           | Website:  www.openfoam.com                      |
|    \\/     M anipulation  |                                                 |
\*---------------------------------------------------------------------------*/
FoamFile
{
    version     2.0;
    format      ascii;
    arch        "LSB;label=32;scalar=64";
    class       volVectorField;
    location    "500";
    object      U;
}
// * * * * * * * * * * * * * * * * * * * * * * * * * * * * * * * * * * * * * //

dimensions      [0 1 -1 0 0 0 0];

internalField   nonuniform List<vector> 
10720
(
(0.497306 26.1335 8.07909e-18)
(2.13542 28.444 -7.39376e-18)
(4.20867 30.6868 0)
(6.61062 32.4695 -3.47897e-16)
(9.27925 33.8664 3.88082e-16)
(12.1496 34.8318 2.91055e-16)
(15.0709 35.2662 4.15185e-16)
(17.9483 35.2009 0)
(20.6985 34.6948 0)
(23.2399 33.7856 0)
(25.534 32.5458 1.1743e-16)
(27.5603 31.0815 0)
(29.2587 29.37 2.31662e-15)
(30.6094 27.4389 0)
(31.5777 25.307 0)
(32.1513 23.0073 0)
(32.2918 20.5458 -4.15742e-15)
(31.983 17.9664 -6.41382e-15)
(31.2048 15.2876 5.90699e-15)
(30.0171 12.5892 0)
(28.5485 9.96406 5.28616e-15)
(27.1808 7.58031 -1.06984e-14)
(26.6187 5.65901 5.23211e-15)
(27.4258 4.13063 -1.33631e-16)
(29.8499 2.72212 0)
(31.6964 2.11957 1.07276e-15)
(33.0807 1.54906 1.07059e-17)
(33.0087 0.0150313 -2.22785e-16)
(32.1723 -1.92494 -8.53036e-16)
(31.253 -2.75697 -3.23847e-15)
(30.046 -2.93211 1.94713e-15)
(28.0061 -3.02005 5.58799e-15)
(24.7219 -2.79402 5.63507e-15)
(18.5531 -2.13338 2.15702e-14)
(9.06762 -1.063 -1.15471e-14)
(-0.53056 0.231374 -2.46368e-16)
(-5.92406 1.16772 2.46976e-17)
(7.34493 -2.11774 -2.94683e-14)
(2.93346 -2.51096 1.18377e-14)
(-0.775188 23.6828 -4.14621e-18)
(-1.77726 20.9386 -2.09335e-17)
(-2.43381 17.8655 7.55422e-17)
(-2.62761 14.3324 -2.08404e-16)
(-2.20239 10.6931 -6.90603e-16)
(-1.14503 7.1077 1.22431e-15)
(0.406408 3.91765 6.95032e-15)
(2.1901 1.3198 3.2028e-15)
(4.20628 -1.02315 0)
(6.49417 -2.98211 0)
(8.7725 -4.36911 1.81938e-15)
(10.8461 -5.22964 6.67674e-16)
(12.6769 -5.70247 -1.12282e-15)
(14.2743 -5.90492 9.23212e-16)
(15.6592 -5.93153 1.51914e-15)
(16.8662 -5.84433 9.75838e-16)
(17.929 -5.6937 1.22781e-15)
(18.882 -5.50193 8.03438e-16)
(19.7569 -5.28571 0)
(20.5748 -5.04917 0)
(21.3514 -4.79992 -1.03235e-15)
(22.0996 -4.51713 -4.31091e-17)
(22.8314 -4.154 5.91356e-16)
(23.4841 -3.75924 -3.54873e-16)
(24.0075 -3.28642 2.76471e-17)
(24.3815 -2.75965 0)
(24.6254 -2.19979 -2.64505e-17)
(24.7614 -1.64872 0)
(24.7386 -1.12465 0)
(24.5248 -0.631607 -1.18094e-16)
(24.1121 -0.167937 0)
(23.5002 0.264388 6.06935e-16)
(22.688 0.65937 1.15569e-15)
(21.6715 1.00752 5.7638e-15)
(20.4112 1.30205 -2.12201e-15)
(18.9057 1.51699 8.36874e-18)
(17.0529 1.78673 0)
(15.6053 1.28354 -1.55854e-15)
(19.7989 3.38892 4.64797e-16)
(7.05659 22.6497 -1.19026e-17)
(8.84553 24.3879 4.10525e-18)
(11.0419 25.978 0)
(13.5885 27.318 0)
(16.3488 28.3439 -1.13755e-16)
(19.3274 28.995 -2.79411e-16)
(22.4152 29.2229 0)
(25.4831 29.0447 0)
(28.4779 28.4677 6.18772e-16)
(31.3145 27.5375 0)
(33.9438 26.3129 2.33233e-15)
(36.3335 24.8318 0)
(38.4979 23.2176 8.4358e-16)
(40.451 21.5244 -8.2795e-16)
(42.2128 19.768 1.67912e-15)
(43.7393 17.9854 -3.35291e-15)
(45.0135 16.194 3.58147e-15)
(46.007 14.4104 3.25962e-15)
(46.6801 12.6228 3.18171e-15)
(46.9652 10.8177 1.94156e-16)
(46.7789 8.95663 -3.34696e-15)
(46.0343 7.0095 3.21627e-15)
(44.5968 4.95898 -1.83013e-16)
(42.2299 3.04073 0)
(38.8468 1.66363 0)
(36.3088 0.624795 0)
(34.8065 -0.0820588 4.91761e-17)
(33.8278 -0.605186 -8.85723e-18)
(32.8621 -1.0695 6.07731e-16)
(31.8783 -1.64416 -2.00037e-17)
(30.8618 -2.21079 4.9215e-18)
(29.9822 -2.64925 -3.84523e-17)
(29.3543 -2.98506 3.82506e-15)
(28.2701 -3.02057 -6.04918e-15)
(23.5905 -2.54868 -3.0911e-17)
(12.3702 -1.32061 -1.24999e-14)
(-7.20069 1.16712 0)
(9.44617 -2.50194 8.44788e-15)
(2.63081 -1.97283 7.26227e-15)
(5.56407 20.8086 1.61526e-17)
(4.2841 18.7728 -6.07274e-17)
(3.1913 16.3999 -7.01488e-16)
(2.39526 13.7184 8.74911e-16)
(2.07674 10.8179 0)
(2.32209 7.84824 -1.85697e-15)
(3.12954 5.02962 -1.43628e-15)
(4.35284 2.51832 -9.62154e-15)
(5.88832 0.28643 2.38721e-15)
(7.70297 -1.49078 -1.75011e-15)
(9.60893 -2.7269 2.19177e-15)
(11.4472 -3.50994 -6.18849e-16)
(13.1534 -3.962 0)
(14.7045 -4.17437 -3.99325e-16)
(16.0938 -4.22845 6.29909e-17)
(17.3353 -4.17762 -8.6856e-16)
(18.4497 -4.06451 0)
(19.4622 -3.91383 0)
(20.3982 -3.74015 -8.5777e-17)
(21.2794 -3.53947 8.27344e-17)
(22.1237 -3.30237 -9.36342e-16)
(22.9432 -3.01605 -9.57564e-17)
(23.7141 -2.68558 3.91311e-17)
(24.4542 -2.20702 3.82743e-16)
(25.0922 -1.62753 -1.93065e-16)
(25.6011 -1.01751 -9.62341e-17)
(26.0042 -0.40991 0)
(26.3114 0.190575 0)
(26.5755 0.77474 0)
(26.8212 1.33705 9.60558e-18)
(27.0492 1.86577 0)
(27.2523 2.35374 0)
(27.4163 2.79658 -1.78022e-15)
(27.5294 3.19137 -1.68717e-15)
(27.5599 3.53276 1.48437e-15)
(27.5089 3.8456 -1.16314e-15)
(27.0987 4.05019 1.75613e-15)
(27.1255 4.81831 6.2696e-16)
(23.5384 4.38461 -3.83963e-16)
(8.39016 20.8704 -2.84549e-18)
(9.65799 22.4016 -1.07275e-17)
(11.2126 23.9007 6.36494e-18)
(13.0104 25.297 -2.46052e-17)
(15.0036 26.4728 -1.43835e-16)
(17.1921 27.4049 5.18998e-16)
(19.5044 28.0529 -3.67705e-16)
(21.8682 28.3775 -4.47884e-16)
(24.2279 28.3772 1.03449e-17)
(26.5262 28.0612 -6.04149e-16)
(28.7102 27.4497 5.70633e-16)
(30.7461 26.5705 -1.49975e-15)
(32.6034 25.4499 -7.17164e-16)
(34.2708 24.1124 0)
(35.723 22.5975 -1.76014e-15)
(36.9989 20.9195 3.56382e-15)
(38.1395 19.0888 0)
(39.1544 17.1448 -6.79728e-15)
(40.0733 15.1115 -3.40941e-15)
(40.8833 13.0287 3.98675e-16)
(41.5655 10.9078 -3.92468e-16)
(42.0125 8.78326 -1.78213e-16)
(42.0619 6.71827 -2.55311e-15)
(41.6738 4.81824 1.15811e-15)
(40.5658 3.14784 0)
(38.8471 1.69088 7.33714e-16)
(36.7055 0.45412 -6.14648e-17)
(35.0208 -0.398709 0)
(33.6375 -1.06091 9.08983e-16)
(32.2892 -1.71411 1.47939e-15)
(31.0733 -2.27768 -2.91859e-15)
(29.9442 -2.71648 -3.39392e-15)
(28.792 -2.98773 -8.65842e-17)
(28.1597 -2.97731 -5.38708e-15)
(28.129 -2.83953 -3.29761e-15)
(21.8439 -2.24022 5.8869e-15)
(7.0842 -0.662538 0)
(12.5842 -2.99735 5.5336e-15)
(2.85963 -1.57723 -9.87015e-15)
(7.36696 19.2655 -2.04108e-17)
(6.47945 17.5225 -6.91238e-17)
(5.76024 15.4802 2.85346e-16)
(5.20263 13.2043 0)
(4.95764 10.7698 5.14902e-16)
(5.06841 8.2553 0)
(5.56014 5.80038 3.82977e-15)
(6.38303 3.52289 2.01228e-15)
(7.5227 1.49167 1.63088e-15)
(8.9184 -0.203626 0)
(10.4313 -1.52415 -2.28427e-15)
(11.948 -2.50177 -4.78376e-16)
(13.407 -3.19475 2.15398e-15)
(14.7758 -3.6584 0)
(16.0371 -3.9447 -9.73822e-16)
(17.1912 -4.0979 -2.92178e-16)
(18.2472 -4.15542 1.17984e-15)
(19.2213 -4.14172 6.01028e-16)
(20.1314 -4.07198 1.59933e-16)
(20.995 -3.95039 -8.90901e-17)
(21.8235 -3.77877 8.58296e-16)
(22.6257 -3.54729 0)
(23.4077 -3.23655 0)
(24.1362 -2.83584 2.76584e-17)
(24.7749 -2.35574 0)
(25.3002 -1.848 2.19118e-16)
(25.7232 -1.33221 -1.84323e-18)
(26.0563 -0.816279 1.3923e-17)
(26.3056 -0.302778 0)
(26.4743 0.198679 9.01756e-17)
(26.5736 0.686788 -1.91706e-16)
(26.6164 1.16015 0)
(26.6159 1.61734 8.51315e-16)
(26.592 2.05699 0)
(26.5535 2.48491 0)
(26.562 2.9059 5.31715e-17)
(26.4638 3.37863 -1.2606e-16)
(26.4766 3.88354 -5.78778e-16)
(24.317 4.30793 2.54587e-16)
(10.9202 19.1064 -1.63152e-17)
(12.1037 20.4057 -1.66667e-17)
(13.534 21.6789 1.12196e-17)
(15.1898 22.8539 3.41531e-18)
(17.0284 23.8397 0)
(19.0569 24.6182 0)
(21.2218 25.1445 -6.11586e-16)
(23.4649 25.3818 7.52925e-16)
(25.741 25.3214 0)
(27.9964 24.9629 -9.4937e-16)
(30.1804 24.3181 -1.2292e-15)
(32.2552 23.4066 -1.16375e-15)
(34.1858 22.2569 1.40733e-15)
(35.9438 20.904 1.32893e-15)
(37.5127 19.3817 0)
(38.879 17.7252 2.13551e-15)
(39.9985 15.9871 7.39138e-16)
(40.853 14.2061 6.01118e-15)
(41.4374 12.407 3.65462e-16)
(41.7672 10.6035 -3.62374e-16)
(41.856 8.80692 3.09723e-15)
(41.7211 7.03834 -5.10866e-16)
(41.3493 5.33656 2.84009e-15)
(40.7825 3.84486 1.13305e-15)
(40.076 2.68017 -6.19376e-17)
(39.3218 1.69069 -8.55436e-16)
(38.1587 0.777852 5.61942e-18)
(36.717 -0.0980407 -5.78806e-18)
(35.2468 -0.934881 -1.43285e-15)
(33.7034 -1.66308 -3.85504e-17)
(32.1069 -2.24699 2.44214e-15)
(30.5543 -2.68213 -4.2774e-15)
(29.0135 -2.93293 -3.53824e-15)
(27.415 -2.8755 -4.92033e-17)
(27.7954 -2.67425 2.94919e-15)
(26.0122 -2.56162 0)
(18.9095 -2.17294 3.3885e-15)
(19.7013 -3.72739 -5.03732e-15)
(4.15313 -1.01033 3.43188e-15)
(9.93653 17.7531 -3.27926e-17)
(9.06339 16.2929 9.63297e-17)
(8.31744 14.5765 3.96545e-16)
(7.71053 12.6467 0)
(7.36981 10.5735 -4.49655e-16)
(7.32527 8.41242 0)
(7.59738 6.26194 -2.74318e-15)
(8.15772 4.22138 -1.05706e-16)
(8.9937 2.36527 1.19456e-15)
(10.0612 0.763975 1.03152e-15)
(11.2679 -0.540651 3.31642e-17)
(12.5312 -1.54942 1.71415e-15)
(13.7955 -2.29546 -1.08278e-15)
(15.0229 -2.81943 3.44764e-16)
(16.1887 -3.16154 1.15597e-15)
(17.2823 -3.36162 1.2552e-15)
(18.3034 -3.4536 -1.10921e-15)
(19.2581 -3.46344 9.12044e-18)
(20.1576 -3.40966 0)
(21.0138 -3.30028 1.09233e-15)
(21.8358 -3.13737 5.06762e-17)
(22.6293 -2.91513 -7.62924e-16)
(23.3931 -2.62263 0)
(24.1102 -2.24039 2.77667e-17)
(24.7447 -1.77454 0)
(25.2735 -1.26247 -1.13459e-16)
(25.7027 -0.72675 0)
(26.0431 -0.178509 -1.33488e-17)
(26.3002 0.370763 1.20248e-18)
(26.4774 0.910184 -9.40914e-19)
(26.5794 1.42745 1.765e-16)
(26.6115 1.90973 5.54336e-18)
(26.579 2.35201 0)
(26.4919 2.75147 -6.71967e-16)
(26.3516 3.11175 -1.0259e-17)
(26.1846 3.43584 1.03401e-15)
(25.9221 3.78059 -2.95524e-15)
(25.665 4.16411 -3.44793e-18)
(24.3676 4.27371 0)
(12.4791 17.7889 -2.21325e-17)
(13.4751 18.94 -8.73878e-18)
(14.6847 20.0892 1.93784e-17)
(16.0763 21.1763 4.63671e-17)
(17.6132 22.1177 -2.81117e-17)
(19.3158 22.9096 -1.46445e-16)
(21.14 23.5119 2.58409e-16)
(23.0406 23.888 0)
(24.988 24.0275 1.07592e-15)
(26.9372 23.9221 5.15156e-16)
(28.8477 23.5719 0)
(30.6859 22.9865 1.11821e-15)
(32.4176 22.1829 -5.9797e-16)
(34.0145 21.1806 1.66358e-15)
(35.4562 20.0029 0)
(36.723 18.6718 -2.81749e-15)
(37.8082 17.1979 2.69801e-15)
(38.717 15.5824 -1.69068e-16)
(39.4397 13.8436 0)
(39.9566 12.0148 2.95689e-15)
(40.245 10.1286 -3.01055e-15)
(40.2774 8.23792 -1.55132e-16)
(40.0338 6.40703 -2.38052e-15)
(39.5187 4.74932 -2.20154e-15)
(38.85 3.34323 0)
(38.1253 2.18511 0)
(37.4366 1.19994 -2.30308e-16)
(36.7086 0.263897 -2.56517e-17)
(35.8482 -0.635777 1.59494e-15)
(34.8175 -1.41645 -4.17756e-17)
(33.6155 -2.05545 4.25829e-17)
(32.236 -2.54158 4.29731e-15)
(30.6725 -2.84624 0)
(28.6294 -2.86321 9.72556e-15)
(27.5403 -2.55921 -2.74148e-17)
(26.7963 -2.54856 0)
(23.633 -2.71207 -7.88205e-17)
(23.7095 -4.00687 0)
(5.4993 -0.588311 -3.38753e-15)
(11.645 16.5959 3.47781e-17)
(10.9014 15.3217 -2.08662e-16)
(10.246 13.8223 -4.51086e-17)
(9.68551 12.139 8.93683e-16)
(9.33238 10.3361 -1.40591e-15)
(9.20906 8.44791 -1.81873e-15)
(9.33838 6.54369 2.07838e-15)
(9.71391 4.71119 -2.05601e-15)
(10.3296 3.02393 -9.0572e-16)
(11.1517 1.53362 -7.9404e-16)
(12.1162 0.275117 1.52364e-15)
(13.1605 -0.742886 -1.44584e-15)
(14.2392 -1.53965 -6.24073e-16)
(15.3165 -2.14241 6.07987e-16)
(16.3663 -2.57746 -1.29589e-15)
(17.3737 -2.87507 2.39405e-16)
(18.3322 -3.06161 0)
(19.2419 -3.15875 -8.68431e-16)
(20.1082 -3.18223 3.03009e-16)
(20.9386 -3.14067 -1.15023e-15)
(21.7393 -3.03644 0)
(22.5136 -2.86583 6.6458e-16)
(23.2592 -2.62006 4.99544e-16)
(23.9611 -2.28698 -3.36039e-16)
(24.5886 -1.8731 0)
(25.1195 -1.41127 -1.5458e-16)
(25.5554 -0.927047 0)
(25.9048 -0.4331 0)
(26.1724 0.0610474 0)
(26.361 0.545039 -5.70612e-17)
(26.4746 1.01038 0)
(26.5198 1.45695 0)
(26.5018 1.88282 6.48974e-16)
(26.4289 2.28537 6.49274e-16)
(26.3013 2.66631 0)
(26.1311 3.02945 8.84202e-16)
(25.8605 3.41137 1.03444e-16)
(25.5267 3.77895 0)
(24.4058 4.21347 -9.52605e-17)
(13.9595 16.6296 2.80316e-17)
(14.863 17.6477 -1.9955e-17)
(15.9559 18.6698 0)
(17.2087 19.6394 9.63855e-18)
(18.5856 20.4825 -6.41436e-17)
(20.1157 21.2003 1.37305e-16)
(21.7609 21.7544 4.46741e-17)
(23.485 22.1119 -6.48081e-16)
(25.268 22.2592 -8.858e-17)
(27.0733 22.184 1.03488e-15)
(28.8664 21.8809 -3.71395e-16)
(30.618 21.3516 8.53785e-16)
(32.2953 20.6044 4.29337e-16)
(33.8699 19.6518 3.04481e-16)
(35.3174 18.5111 0)
(36.6163 17.2014 -6.07318e-16)
(37.7485 15.7449 -1.3571e-15)
(38.6843 14.1862 -5.01876e-15)
(39.4021 12.5628 1.48448e-15)
(39.8913 10.8976 -1.89987e-15)
(40.1414 9.21254 -2.97559e-16)
(40.1432 7.53373 0)
(39.8875 5.90492 2.11877e-15)
(39.3811 4.4068 1.35507e-16)
(38.6896 3.11649 -5.9614e-17)
(37.9202 2.02595 -8.28481e-16)
(37.1553 1.06954 1.88921e-16)
(36.401 0.174012 3.93185e-16)
(35.6024 -0.664917 -1.47244e-15)
(34.7187 -1.40174 -7.67759e-17)
(33.7471 -2.02123 2.42469e-15)
(32.6692 -2.50617 3.7772e-15)
(31.4758 -2.81139 0)
(29.9358 -2.8749 1.85879e-17)
(28.3567 -2.55373 -2.69125e-15)
(27.004 -2.47765 0)
(24.9858 -2.75456 -4.74088e-15)
(25.2578 -3.75429 0)
(7.22365 -0.258617 3.73871e-15)
(13.1947 15.5778 -3.43186e-17)
(12.5094 14.4609 8.42407e-17)
(11.8914 13.1425 -2.06046e-16)
(11.3492 11.6591 0)
(10.981 10.0716 5.93726e-16)
(10.8023 8.40222 2.95485e-15)
(10.8339 6.70066 0)
(11.0782 5.04756 -1.48682e-15)
(11.5316 3.51244 -1.40921e-15)
(12.1673 2.13243 1.40232e-15)
(12.9395 0.936721 -5.58357e-17)
(13.8015 -0.0603548 6.02197e-16)
(14.7181 -0.868688 3.57554e-17)
(15.6587 -1.50547 1.55635e-15)
(16.5984 -1.98712 1.37689e-15)
(17.5212 -2.3355 -1.28242e-15)
(18.4173 -2.57096 1.76955e-16)
(19.282 -2.71161 -3.27254e-16)
(20.1159 -2.7716 1.50572e-16)
(20.9219 -2.76 8.51949e-16)
(21.7033 -2.68062 1.08789e-16)
(22.4606 -2.532 -7.28389e-17)
(23.1903 -2.30792 -4.21017e-16)
(23.8785 -2.0001 0)
(24.499 -1.61316 1.31088e-17)
(25.0306 -1.17318 2.99084e-16)
(25.4715 -0.703489 -6.09738e-19)
(25.8276 -0.216219 6.10556e-19)
(26.1029 0.279255 0)
(26.2994 0.772453 5.3908e-17)
(26.4209 1.25462 0)
(26.4731 1.7156 0)
(26.461 2.14744 -6.07086e-16)
(26.393 2.54569 -5.5642e-16)
(26.2699 2.9123 0)
(26.1045 3.24683 -8.36607e-16)
(25.8374 3.59377 2.25236e-15)
(25.5239 3.90475 -4.79401e-18)
(24.4904 4.15127 1.61783e-16)
(15.1608 15.6486 1.53217e-18)
(15.9721 16.5618 -1.84461e-17)
(16.953 17.4858 1.98685e-17)
(18.072 18.3681 -1.92624e-17)
(19.2934 19.1421 4.69923e-17)
(20.6513 19.8151 0)
(22.1111 20.3536 -2.76583e-16)
(23.6421 20.7279 2.49965e-18)
(25.2326 20.9265 -3.06514e-16)
(26.8511 20.9368 -6.24543e-16)
(28.4702 20.7506 0)
(30.0661 20.3663 -1.54576e-15)
(31.609 19.7868 -1.34315e-15)
(33.0722 19.0198 -3.28725e-15)
(34.4313 18.0774 0)
(35.6631 16.9754 -2.05254e-15)
(36.7454 15.7335 -2.16828e-15)
(37.6625 14.3646 2.37101e-15)
(38.4029 12.8786 -2.33934e-15)
(38.95 11.2988 2.17149e-15)
(39.2864 9.65458 2.68696e-16)
(39.394 7.98983 -2.32169e-15)
(39.2599 6.36086 0)
(38.8866 4.8476 -2.00733e-15)
(38.3199 3.52326 1.18244e-16)
(37.6481 2.38555 8.63575e-16)
(36.9388 1.37826 0)
(36.1988 0.447624 -2.92768e-17)
(35.3943 -0.417087 6.20517e-17)
(34.5025 -1.18177 2.36622e-15)
(33.5374 -1.82583 -2.13908e-15)
(32.517 -2.33367 -3.54522e-15)
(31.4487 -2.66459 2.76702e-15)
(30.3077 -2.77384 -1.0114e-17)
(29.138 -2.52184 2.48548e-15)
(27.5618 -2.43794 3.47075e-15)
(25.6917 -2.70857 2.12292e-15)
(25.8694 -3.26921 1.24205e-17)
(9.00535 0.174111 -1.52014e-17)
(14.4682 14.707 1.37918e-17)
(13.8444 13.7131 1.58843e-16)
(13.2699 12.5374 2.07405e-16)
(12.7529 11.2135 -4.02925e-16)
(12.3817 9.80008 -1.57217e-15)
(12.1677 8.30838 5.04053e-16)
(12.1321 6.77499 1.21481e-15)
(12.282 5.27671 3.0254e-15)
(12.6141 3.87756 1.20346e-15)
(13.1076 2.60322 -1.12304e-15)
(13.7284 1.47842 -3.28201e-17)
(14.4404 0.518579 -5.30887e-16)
(15.2168 -0.282195 0)
(16.0328 -0.935054 -2.45224e-17)
(16.8664 -1.45005 -8.46194e-16)
(17.7025 -1.8427 3.64011e-16)
(18.53 -2.12782 -3.57801e-16)
(19.3416 -2.3192 0)
(20.1342 -2.4281 5.24476e-16)
(20.9078 -2.46243 -8.94722e-16)
(21.6625 -2.42557 0)
(22.3969 -2.31683 6.21475e-16)
(23.1064 -2.13173 0)
(23.7778 -1.86491 -1.97868e-17)
(24.3885 -1.5207 1.97534e-17)
(24.9183 -1.12061 -1.52836e-16)
(25.3625 -0.686662 -3.16959e-18)
(25.7247 -0.232166 -8.53117e-19)
(26.0078 0.232457 -4.41859e-19)
(26.2137 0.696166 3.63461e-17)
(26.3453 1.14831 1.03271e-16)
(26.4078 1.58248 -2.34847e-16)
(26.406 1.99532 -8.03129e-18)
(26.3477 2.38397 3.36019e-17)
(26.2328 2.74976 0)
(26.0742 3.0936 -9.47791e-18)
(25.8118 3.44908 -9.98156e-16)
(25.508 3.76185 -8.06169e-18)
(24.6147 4.07394 3.21953e-16)
(16.2129 14.7848 5.26189e-18)
(16.9563 15.6082 2.83237e-17)
(17.8534 16.4447 0)
(18.873 17.2449 -2.39863e-17)
(19.979 17.9486 2.16786e-18)
(21.2081 18.5667 0)
(22.5291 19.0685 -1.00972e-16)
(23.9153 19.4273 8.33755e-16)
(25.3603 19.6328 -1.18631e-15)
(26.8386 19.672 3.76826e-16)
(28.3274 19.5351 5.30613e-16)
(29.8081 19.2171 1.95357e-15)
(31.2548 18.7166 1.41014e-15)
(32.6435 18.0358 1.69996e-15)
(33.9505 17.1811 4.52514e-16)
(35.152 16.1628 1.50618e-15)
(36.2258 14.9943 2.0745e-15)
(37.1508 13.693 2.01765e-15)
(37.9026 12.29 -1.48819e-15)
(38.4618 10.8124 -4.57693e-15)
(38.8121 9.28777 0)
(38.9419 7.74901 9.18426e-17)
(38.8451 6.2405 1.80434e-15)
(38.5274 4.82412 1.89888e-15)
(38.0249 3.5589 -1.07892e-16)
(37.4112 2.45206 -7.73864e-16)
(36.7473 1.46609 5.47523e-18)
(36.041 0.556841 -3.87096e-16)
(35.261 -0.29035 4.08023e-17)
(34.3838 -1.04405 -4.40862e-15)
(33.4176 -1.67953 -9.40197e-18)
(32.3878 -2.18013 -5.66826e-17)
(31.3006 -2.51419 -2.64437e-15)
(30.2033 -2.63424 -1.18009e-17)
(29.3786 -2.43702 -2.3652e-15)
(28.0774 -2.3919 -6.52071e-15)
(26.4421 -2.66526 1.83503e-15)
(26.081 -2.61828 -1.54989e-15)
(9.64191 0.879043 2.23544e-15)
(15.5737 13.9372 -5.85621e-17)
(14.996 13.0463 -2.1397e-16)
(14.4551 11.9903 -1.50826e-16)
(13.9596 10.799 -3.82684e-16)
(13.5893 9.52915 8.71018e-16)
(13.3518 8.1843 -6.1956e-17)
(13.2691 6.79317 -2.9868e-15)
(13.35 5.42932 -1.02563e-15)
(13.5902 4.15003 2.05731e-17)
(13.9743 2.97347 0)
(14.475 1.921 -9.47571e-16)
(15.064 1.00737 8.77718e-16)
(15.721 0.228366 -8.40033e-16)
(16.4262 -0.423545 -4.28822e-16)
(17.1615 -0.953963 3.5221e-16)
(17.9137 -1.37363 3.50806e-16)
(18.6721 -1.69242 1.24018e-15)
(19.428 -1.91991 -2.92289e-16)
(20.1764 -2.0645 -4.87068e-16)
(20.9147 -2.13258 0)
(21.6406 -2.12708 -7.13765e-16)
(22.3508 -2.04786 -5.13663e-16)
(23.0394 -1.89173 -1.33211e-17)
(23.694 -1.65548 -5.19148e-17)
(24.2941 -1.3431 -1.38096e-17)
(24.8207 -0.971934 1.97582e-16)
(25.2668 -0.562169 -2.15028e-18)
(25.6338 -0.127282 1.29655e-17)
(25.9236 0.32234 -9.60719e-19)
(26.1374 0.775865 -3.36356e-17)
(26.2773 1.22315 -1.31456e-17)
(26.348 1.65649 4.46542e-16)
(26.3537 2.06844 4.2662e-16)
(26.302 2.45418 4.61601e-16)
(26.1927 2.81407 1.21439e-17)
(26.0373 3.14649 -5.53144e-18)
(25.7824 3.48529 7.68115e-16)
(25.4632 3.76495 -4.46751e-17)
(24.7405 4.02053 -5.85067e-16)
(17.1221 14.0215 -1.62776e-17)
(17.8068 14.7687 -1.13189e-17)
(18.6317 15.5303 -4.08644e-17)
(19.5655 16.2606 8.70644e-17)
(20.5722 16.9037 9.67296e-18)
(21.6892 17.4738 -9.84945e-17)
(22.8879 17.9433 3.71636e-16)
(24.1443 18.2882 0)
(25.456 18.5008 3.59797e-16)
(26.8009 18.5686 1.34349e-17)
(28.1609 18.4818 -4.51903e-16)
(29.5215 18.2345 -1.79456e-15)
(30.8606 17.8232 -7.387e-16)
(32.1567 17.247 0)
(33.3883 16.5093 0)
(34.5319 15.6168 0)
(35.5651 14.5809 0)
(36.4654 13.417 -1.94355e-15)
(37.2137 12.1389 1.94684e-15)
(37.7901 10.7661 1.91131e-15)
(38.1766 9.3248 -1.53892e-15)
(38.3586 7.85139 1.35997e-15)
(38.3286 6.39302 -1.40618e-15)
(38.089 5.00901 -1.03057e-16)
(37.666 3.75442 -4.63284e-17)
(37.12 2.64232 7.78683e-16)
(36.5081 1.64549 1.6598e-16)
(35.8431 0.728499 0)
(35.1019 -0.122116 0)
(34.2635 -0.878808 3.89307e-17)
(33.3301 -1.51783 0)
(32.3218 -2.02126 3.03382e-15)
(31.2426 -2.36463 -2.50009e-15)
(30.0957 -2.4969 -3.51504e-15)
(29.3238 -2.32953 4.47383e-15)
(28.2591 -2.31701 3.12313e-15)
(27.0267 -2.57682 -1.67381e-15)
(26.0807 -1.82958 2.49153e-15)
(9.85969 1.67567 -1.78289e-15)
(16.5295 13.2534 0)
(15.9921 12.4488 6.00471e-17)
(15.4816 11.4928 2.86722e-16)
(15.0071 10.4126 -1.23083e-15)
(14.6419 9.26315 1.07928e-15)
(14.3899 8.04208 -8.3147e-16)
(14.2739 6.77286 1.36164e-17)
(14.3033 5.52592 7.86499e-16)
(14.4737 4.35266 8.23957e-16)
(14.7726 3.26611 0)
(15.1778 2.28445 3.89291e-16)
(15.6662 1.42135 -1.18798e-15)
(16.2222 0.672944 1.86525e-15)
(16.8303 0.0335462 3.35722e-16)
(17.476 -0.500184 -6.81173e-16)
(18.1485 -0.93549 -6.28567e-16)
(18.8382 -1.2787 -5.71808e-16)
(19.5366 -1.53601 0)
(20.2376 -1.71301 0)
(20.9368 -1.81422 0)
(21.6301 -1.84169 6.66741e-16)
(22.3128 -1.7952 0)
(22.9781 -1.67226 -4.04946e-16)
(23.6139 -1.47098 -5.02885e-17)
(24.2015 -1.19504 -2.69846e-16)
(24.7226 -0.858723 -1.72902e-16)
(25.1689 -0.480205 0)
(25.5395 -0.0730445 -1.0197e-17)
(25.8353 0.352106 9.68999e-19)
(26.0568 0.784284 -3.45149e-19)
(26.2054 1.21276 -1.47749e-16)
(26.2852 1.62924 -2.24296e-17)
(26.2999 2.02799 -4.13384e-16)
(26.2567 2.40467 3.67097e-16)
(26.1549 2.75939 0)
(26.0038 3.08996 7.04393e-18)
(25.7584 3.42545 -9.76524e-17)
(25.4263 3.69613 4.69563e-17)
(24.8152 3.95434 -3.52371e-18)
(17.9214 13.3381 1.79068e-17)
(18.557 14.0188 0)
(19.3216 14.7145 9.19079e-17)
(20.1839 15.3821 -5.94652e-17)
(21.1083 15.9698 -1.21398e-17)
(22.1323 16.4938 9.2025e-17)
(23.2291 16.9286 -1.62248e-16)
(24.3768 17.2535 -2.07301e-16)
(25.5756 17.4619 0)
(26.8067 17.5423 -3.8794e-16)
(28.0554 17.4855 -4.2073e-16)
(29.3108 17.2848 4.17094e-16)
(30.5541 16.9351 1.5852e-15)
(31.7672 16.4329 6.44428e-16)
(32.9306 15.7783 -1.95535e-15)
(34.0222 14.9749 -1.41932e-15)
(35.02 14.03 1.12356e-15)
(35.9022 12.9544 8.36235e-16)
(36.6468 11.7645 -4.22771e-16)
(37.2314 10.4831 4.23867e-16)
(37.6367 9.13631 1.0812e-15)
(37.8495 7.75664 2.01085e-16)
(37.8638 6.38496 -1.89055e-16)
(37.6816 5.07099 -1.2584e-15)
(37.3217 3.86137 0)
(36.8327 2.77218 -6.54075e-16)
(36.2656 1.78654 -3.09884e-16)
(35.6357 0.878377 -2.83695e-16)
(34.9276 0.0363775 -1.04335e-15)
(34.1245 -0.715491 3.86218e-15)
(33.228 -1.35381 1.55063e-15)
(32.2543 -1.85892 6.94713e-18)
(31.2147 -2.20992 2.45393e-17)
(30.0701 -2.35989 0)
(29.2506 -2.21468 -2.14853e-15)
(28.2279 -2.22738 0)
(27.259 -2.42881 0)
(26.2093 -1.05215 -1.02766e-15)
(11.2066 2.12026 1.26343e-17)
(17.368 12.6384 -5.98345e-17)
(16.8649 11.9073 1.97684e-16)
(16.3813 11.0369 1.37173e-17)
(15.9264 10.0519 2.74433e-16)
(15.5681 9.005 -9.71987e-16)
(15.3079 7.88969 6.86283e-16)
(15.168 6.7261 2.85998e-17)
(15.1588 5.58165 -6.52434e-16)
(15.2756 4.50233 -6.34862e-16)
(15.5077 3.49764 -6.73734e-16)
(15.8365 2.58344 -1.32359e-15)
(16.2426 1.77209 0)
(16.7136 1.05932 -6.72059e-16)
(17.2376 0.440227 -2.401e-17)
(17.8028 -0.0870688 0)
(18.4012 -0.527876 -5.5317e-16)
(19.0246 -0.885764 -2.62681e-16)
(19.6653 -1.16432 -2.44981e-16)
(20.3173 -1.36675 8.29702e-16)
(20.9751 -1.49554 7.29581e-16)
(21.6335 -1.55148 -7.31583e-17)
(22.2866 -1.53401 5.41864e-16)
(22.927 -1.44098 9.99139e-17)
(23.5427 -1.27114 -4.85438e-17)
(24.1162 -1.0279 2.39575e-16)
(24.6302 -0.722995 1.40843e-17)
(25.0749 -0.372436 0)
(25.4478 0.0105514 0)
(25.7485 0.415242 1.10948e-19)
(25.9767 0.830807 -1.42107e-18)
(26.1332 1.24641 1.17299e-16)
(26.2213 1.65365 -2.19161e-17)
(26.2442 2.04529 -3.30124e-16)
(26.2086 2.41585 -3.4956e-16)
(26.1137 2.7646 -8.5437e-18)
(25.9671 3.08797 2.44297e-18)
(25.7297 3.41159 -1.10571e-15)
(25.3973 3.66585 -1.75159e-16)
(24.8414 3.89934 4.3027e-18)
(18.627 12.7212 6.93916e-18)
(19.22 13.344 0)
(19.9324 13.9815 -4.97034e-17)
(20.7329 14.5934 0)
(21.5863 15.1317 -4.07464e-17)
(22.5301 15.6134 3.93867e-17)
(23.5384 16.0157 1.20421e-16)
(24.5913 16.3199 1.94873e-16)
(25.6905 16.521 0)
(26.8196 16.6088 -2.49236e-16)
(27.9669 16.575 4.30806e-16)
(29.1243 16.4128 -8.88293e-16)
(30.2758 16.1166 -5.00906e-16)
(31.4061 15.6817 -5.12127e-16)
(32.4982 15.1062 1.24355e-15)
(33.5318 14.3911 1.35293e-15)
(34.4861 13.5413 -1.45719e-15)
(35.3392 12.5656 -1.45275e-15)
(36.0699 11.4765 0)
(36.6566 10.2909 3.87638e-16)
(37.0792 9.03169 -7.51254e-16)
(37.3239 7.73035 1.85537e-16)
(37.3841 6.42621 4.57336e-18)
(37.2599 5.16505 2.95931e-15)
(36.9629 3.989 -1.61163e-16)
(36.5321 2.91601 9.82503e-17)
(36.0125 1.93709 2.85605e-16)
(35.4203 1.03421 3.00096e-16)
(34.746 0.198143 8.95278e-16)
(33.9767 -0.550306 -1.76889e-15)
(33.1143 -1.18815 -1.41577e-15)
(32.1737 -1.69499 -5.31743e-15)
(31.1738 -2.05182 4.27339e-15)
(30.0681 -2.21975 -5.66124e-17)
(29.226 -2.09542 2.0822e-15)
(28.1896 -2.13749 -6.09969e-17)
(27.1902 -2.25243 3.19126e-17)
(26.6085 -0.439067 8.96067e-18)
(14.4234 2.0259 -6.81184e-16)
(18.1081 12.0809 3.00851e-17)
(17.6354 11.4131 -1.00719e-16)
(17.1762 10.6168 1.95938e-16)
(16.7396 9.71433 0)
(16.3893 8.75628 5.55164e-16)
(16.1254 7.73233 0)
(15.9686 6.66135 0)
(15.9303 5.60715 0)
(16.0055 4.61131 1.17259e-15)
(16.1849 3.68088 -5.73284e-16)
(16.4523 2.82994 6.49849e-16)
(16.7909 2.06966 0)
(17.1907 1.39513 0)
(17.6421 0.80147 -5.73271e-16)
(18.1359 0.287479 0)
(18.6664 -0.150887 5.13111e-16)
(19.227 -0.515783 1.17328e-17)
(19.8114 -0.808698 0)
(20.4138 -1.0308 -5.91526e-16)
(21.0286 -1.18293 -8.62216e-16)
(21.65 -1.26472 -5.88338e-16)
(22.2715 -1.27491 -4.97311e-16)
(22.8851 -1.21121 8.24674e-16)
(23.4792 -1.07261 0)
(24.037 -0.862166 2.48537e-16)
(24.5419 -0.589438 2.07924e-16)
(24.9834 -0.268452 6.59374e-17)
(25.3571 0.0881061 0)
(25.6616 0.469516 -1.90544e-18)
(25.8959 0.865029 4.01832e-18)
(26.06 1.26375 -8.67832e-17)
(26.1563 1.6567 -2.10508e-17)
(26.1878 2.03686 2.99905e-16)
(26.1601 2.39861 -2.56901e-16)
(26.0727 2.74069 -1.24184e-18)
(25.9315 3.05881 -7.18915e-18)
(25.701 3.37379 8.82472e-16)
(25.3759 3.62015 1.61924e-16)
(24.8447 3.83876 2.05037e-15)
(19.2548 12.1597 3.7401e-18)
(19.8107 12.7314 -2.06983e-17)
(20.4774 13.3173 0)
(21.2242 13.8791 -3.94049e-17)
(22.0163 14.3726 0)
(22.8906 14.8151 0)
(23.8223 15.186 1.96491e-17)
(24.7926 15.4687 1.70571e-16)
(25.8048 15.6591 4.0174e-16)
(26.8441 15.7485 1.05464e-15)
(27.9009 15.7294 6.06362e-16)
(28.9696 15.5956 7.09426e-16)
(30.0366 15.3409 0)
(31.0894 14.9599 1.40989e-15)
(32.1132 14.4493 -5.01255e-16)
(33.0897 13.8081 0)
(33.9997 13.0387 1.20642e-15)
(34.8223 12.1472 1.38708e-15)
(35.5364 11.1437 0)
(36.1205 10.044 1.36845e-15)
(36.5538 8.87023 -1.33945e-15)
(36.8223 7.65103 0)
(36.9196 6.42175 -1.58913e-16)
(36.8444 5.22247 2.80544e-17)
(36.6031 4.08998 7.57587e-17)
(36.2263 3.04292 1.12389e-15)
(35.7529 2.07856 -3.94322e-18)
(35.199 1.18604 -2.93111e-17)
(34.5595 0.358971 -2.4036e-17)
(33.8247 -0.384055 5.3628e-17)
(32.9962 -1.02014 1.41233e-15)
(32.0877 -1.52842 4.7732e-15)
(31.1214 -1.89068 4.39296e-17)
(30.0574 -2.07542 -2.93688e-15)
(29.2184 -1.97222 -1.90006e-15)
(28.2178 -2.04479 -2.73443e-15)
(26.9916 -2.07914 -1.33638e-15)
(27.0607 -0.0345409 -4.31919e-18)
(18.5547 1.58189 5.96095e-16)
(18.7663 11.5718 -6.61793e-17)
(18.3204 10.9596 -2.39483e-16)
(17.8833 10.2282 4.69727e-16)
(17.4641 9.39812 0)
(17.1224 8.51743 8.781e-16)
(16.8579 7.57362 0)
(16.6897 6.58447 -4.622e-16)
(16.6291 5.61024 1.8489e-15)
(16.672 4.68884 -1.42257e-15)
(16.8094 3.82594 0)
(17.0271 3.03383 1.04308e-15)
(17.3103 2.32263 1.00131e-15)
(17.6503 1.68692 0)
(18.0395 1.12179 -9.7582e-16)
(18.4705 0.626091 2.33715e-16)
(18.9395 0.196117 -2.34075e-16)
(19.4416 -0.169284 2.26065e-16)
(19.9717 -0.470267 3.91174e-16)
(20.525 -0.706507 -1.68454e-17)
(21.0962 -0.877375 4.59891e-16)
(21.6793 -0.981305 1.31435e-16)
(22.2676 -1.01629 -1.27092e-16)
(22.8531 -0.979743 -3.90328e-16)
(23.4242 -0.870479 3.23537e-16)
(23.9648 -0.690945 -2.19238e-16)
(24.4589 -0.448979 -2.10351e-16)
(24.8954 -0.156632 -6.21432e-17)
(25.2685 0.174198 -4.53132e-19)
(25.5757 0.532955 2.2576e-18)
(25.8151 0.909143 -3.79839e-18)
(25.9861 1.29188 1.10048e-17)
(26.0901 1.67201 -2.02742e-17)
(26.1296 2.042 -2.23052e-16)
(26.1098 2.3955 2.60946e-16)
(26.0297 2.73048 -6.17275e-18)
(25.8944 3.04166 3.18378e-16)
(25.6708 3.34584 -3.77842e-16)
(25.3557 3.581 0)
(24.844 3.78223 -1.94832e-15)
(19.8162 11.6458 1.13046e-17)
(20.3391 12.172 0)
(20.9654 12.7115 0)
(21.6648 13.2283 5.23797e-17)
(22.403 13.6813 -1.99933e-17)
(23.2161 14.0878 0)
(24.0804 14.4292 0)
(24.9781 14.6905 -5.44814e-16)
(25.9132 14.8689 -2.99553e-17)
(26.8725 14.9568 -3.72504e-17)
(27.8478 14.9476 -1.39955e-15)
(28.8355 14.8354 -3.73458e-16)
(29.8242 14.6146 7.12429e-16)
(30.8036 14.2793 -6.40099e-17)
(31.761 13.8253 0)
(32.6803 13.2503 0)
(33.5439 12.5551 -3.29403e-15)
(34.3322 11.7433 -6.09651e-16)
(35.0248 10.8236 6.25398e-16)
(35.6012 9.80794 -1.32493e-15)
(36.0407 8.71597 2.51517e-15)
(36.329 7.57395 1.18996e-15)
(36.4592 6.41436 -1.15131e-15)
(36.4283 5.2734 -1.29955e-15)
(36.2384 4.18389 2.05038e-16)
(35.9129 3.16443 -1.09975e-15)
(35.4853 2.21683 -1.23119e-16)
(34.9706 1.33629 2.70561e-17)
(34.367 0.519354 -2.70975e-17)
(33.6679 -0.217012 8.82639e-17)
(32.8744 -0.850362 -3.86572e-17)
(31.9994 -1.35965 -2.33917e-15)
(31.0651 -1.727 -7.51724e-17)
(30.0388 -1.92717 7.01432e-17)
(29.2036 -1.84627 0)
(28.2828 -1.93976 2.55232e-15)
(26.8206 -1.92025 1.26339e-15)
(27.3195 0.198764 0)
(22.2581 1.07764 0)
(19.3548 11.1044 0)
(18.9328 10.5413 2.13041e-16)
(18.5162 9.86742 -6.97717e-16)
(18.1136 9.10123 -3.3353e-16)
(17.781 8.2887 -7.92975e-16)
(17.5179 7.41579 0)
(17.3422 6.4995 0)
(17.2648 5.59663 -8.24471e-16)
(17.2823 4.74213 8.56343e-16)
(17.3862 3.94048 0)
(17.5636 3.20266 -4.37877e-16)
(17.801 2.53806 -4.70255e-16)
(18.0908 1.9409 4.41468e-16)
(18.4267 1.40581 4.55426e-16)
(18.8029 0.931421 -8.41072e-16)
(19.2167 0.51429 0)
(19.6649 0.153578 -1.86207e-16)
(20.1436 -0.1501 1.3595e-17)
(20.6491 -0.395478 8.13411e-16)
(21.1768 -0.580777 -1.46764e-16)
(21.721 -0.703347 1.40491e-16)
(22.275 -0.760455 -1.02952e-16)
(22.831 -0.749058 1.44596e-16)
(23.3778 -0.667615 -6.57163e-16)
(23.8999 -0.517785 -2.22539e-16)
(24.3815 -0.30581 1.75082e-16)
(24.8113 -0.0419935 -1.01903e-17)
(25.1823 0.262717 0)
(25.4909 0.598086 -3.1245e-18)
(25.7346 0.953878 7.55924e-18)
(25.9118 1.31932 2.31655e-17)
(26.0232 1.685 -8.51685e-17)
(26.0706 2.0432 3.89865e-16)
(26.0587 2.38723 -3.83091e-16)
(25.9861 2.7144 6.01663e-18)