/*--------------------------------*- C++ -*----------------------------------*\
| =========                 |                                                 |
| \\      /  F ield         | OpenFOAM: The Open Source CFD Toolbox           |
|  \\    /   O peration     | Version:  2312                                  |
|   \\  /    A nd           | Website:  www.openfoam.com                      |
|    \\/     M anipulation  |                                                 |
\*---------------------------------------------------------------------------*/
FoamFile
{
    version     2.0;
    format      ascii;
    arch        "LSB;label=32;scalar=64";
    class       surfaceScalarField;
    location    "83.438085662216039";
    object      phi;
}
// * * * * * * * * * * * * * * * * * * * * * * * * * * * * * * * * * * * * * //

dimensions      [0 3 -1 0 0 0 0];

oriented        oriented;

internalField   nonuniform List<scalar> 
41713
(
0.00736727
0.0568792
0.00362927
0.0679844
0.00211756
0.0657581
0.00148568
0.0648783
0.00110022
0.0646319
0.000846228
0.0645004
0.00067125
0.0644214
0.000544372
0.0643733
0.000448987
0.0643418
0.000375442
0.06432
0.000317613
0.0643043
0.000271447
0.0642926
0.000234176
0.0642837
0.000203861
0.0642768
0.000179105
0.0642712
0.000158887
0.0642667
0.000142441
0.0642629
0.000129181
0.0642597
0.000118648
0.064257
0.000110458
0.0642546
0.00010425
0.0642526
9.96614e-05
0.064251
9.64072e-05
0.0642497
9.41635e-05
0.0548134
9.22645e-05
0.0456779
9.04887e-05
0.0380651
8.8837e-05
0.0317211
8.73316e-05
0.0264344
0.0220288
8.59484e-05
0.00999763
0.0468815
0.00843435
0.0695477
0.00572284
0.0684697
0.00412989
0.0664713
0.00313028
0.0656315
0.00244006
0.0651906
0.00194339
0.0649181
0.00157485
0.0647419
0.00129412
0.0646226
0.00107541
0.0645387
0.000901782
0.0644779
0.000761857
0.0644325
0.000647782
0.0643978
0.000554014
0.0643705
0.00047656
0.0643486
0.000412493
0.0643307
0.000359634
0.0643157
0.000316334
0.064303
0.000281321
0.064292
0.000253589
0.0642824
0.000232313
0.0642739
0.000216772
0.0642666
0.000206236
0.0642602
0.000200299
0.0548194
0.000196911
0.0456813
0.000194773
0.0380672
0.000193149
0.0317227
0.000191695
0.0264358
0.02203
0.00019043
0.0086012
0.0382803
0.00971865
0.0684303
0.00748284
0.0707055
0.00571541
0.0682387
0.00452928
0.0668176
0.00364647
0.0660735
0.00296659
0.065598
0.00243805
0.0652704
0.00202218
0.0650384
0.00169042
0.0648704
0.00142233
0.064746
0.00120328
0.0646516
0.0010227
0.0645784
0.000872911
0.0645203
0.000748218
0.0644733
0.000644398
0.0644345
0.000558268
0.0644019
0.000487406
0.0643739
0.000429944
0.0643494
0.000384422
0.0643279
0.000349666
0.0643087
0.000324694
0.0642915
0.000308514
0.0642764
0.000300384
0.0548275
0.000296714
0.0456849
0.000295151
0.0380688
0.000294352
0.0317235
0.000293697
0.0264365
0.0220306
0.000293141
0.00678
0.0315003
0.00948841
0.0657219
0.00813863
0.0720552
0.00646185
0.0699155
0.00527456
0.0680049
0.00437341
0.0669746
0.00364656
0.0663248
0.0030546
0.0658624
0.00257037
0.0655226
0.00217185
0.065269
0.00184176
0.0650761
0.00156671
0.0649266
0.00133639
0.0648087
0.00114291
0.0647138
0.000980204
0.064636
0.000843645
0.0645711
0.000729667
0.0645158
0.000635519
0.064468
0.000559062
0.0644259
0.000498616
0.0643883
0.000452837
0.0643545
0.0004206
0.0643238
0.000400685
0.0642963
0.000391795
0.0548364
0.000388899
0.0456878
0.000388705
0.038069
0.000389384
0.0317228
0.00039015
0.0264357
0.0220298
0.000390923
0.00506979
0.0264305
0.00858454
0.0622071
0.00820414
0.0724357
0.00676538
0.0713542
0.00561527
0.069155
0.00474537
0.0678445
0.0040338
0.0670364
0.00343657
0.0664596
0.00293272
0.0660265
0.00250631
0.0656954
0.00214439
0.065438
0.00183644
0.0652346
0.001574
0.0650711
0.00135027
0.0649375
0.00115988
0.0648264
0.000998554
0.0647324
0.000862937
0.0646515
0.00075039
0.0645806
0.000658839
0.0645175
0.000586644
0.0644605
0.000532487
0.0644086
0.000495238
0.064361
0.000473563
0.064318
0.00046548
0.0548445
0.000464627
0.0456887
0.00046688
0.0380667
0.000469995
0.0317197
0.000473037
0.0264327
0.022027
0.000475885
0.00362255
0.022808
0.00732624
0.0585034
0.00780868
0.0719532
0.00675746
0.0724054
0.00570358
0.0702089
0.0048859
0.0686622
0.0042133
0.067709
0.00363716
0.0670357
0.00313953
0.0665241
0.00270887
0.066126
0.00233566
0.0658112
0.00201205
0.0655582
0.0017316
0.0653516
0.00148902
0.0651801
0.00128002
0.0650354
0.00110113
0.0649113
0.000949572
0.064803
0.000823138
0.064707
0.000720088
0.0646205
0.000639048
0.0645416
0.000578916
0.0644687
0.000538717
0.0644012
0.000517153
0.0643396
0.000511438
0.0548502
0.000513956
0.0456862
0.00051982
0.0380609
0.00052641
0.0317131
0.000532654
0.0264264
0.0220212
0.000538394
0.00252644
0.0202815
0.006033
0.0549969
0.00712497
0.0708612
0.00650611
0.0730243
0.00560345
0.0711116
0.00485763
0.069408
0.00423846
0.0683281
0.00369852
0.0675757
0.00322176
0.0670009
0.00280053
0.0665473
0.00242857
0.0661832
0.00210046
0.0658863
0.00181166
0.0656404
0.00155839
0.0654334
0.00133755
0.0652563
0.00114659
0.0651023
0.000983486
0.0649661
0.000846656
0.0648438
0.000734868
0.0647323
0.000647186
0.0646292
0.000582883
0.064533
0.000541293
0.0644428
0.000521295
0.0643596
0.000519212
0.0548523
0.000526236
0.0456791
0.000536763
0.0380503
0.000547825
0.0317021
0.000558211
0.026416
0.0220117
0.000567707
0.00176142
0.0185201
0.00490059
0.0518577
0.00634713
0.0694147
0.00611305
0.0732584
0.00538003
0.0718446
0.00471116
0.0700769
0.00414841
0.0688909
0.00365115
0.0680729
0.00320312
0.0674489
0.00279919
0.0669512
0.00243589
0.0665465
0.00211005
0.0662121
0.00181892
0.0659315
0.00156014
0.0656921
0.00133178
0.0654846
0.00113228
0.0653018
0.000960424
0.065138
0.000815332
0.0649889
0.000696399
0.0648512
0.000603246
0.0647224
0.000535657
0.0646006
0.000493401
0.0644851
0.000475677
0.0643773
0.000477945
0.05485
0.000490254
0.0456668
0.000506299
0.0380343
0.000522738
0.0316856
0.000538181
0.0264006
0.0219976
0.000552318
0.00124978
0.0172703
0.00397745
0.04913
0.00558932
0.0678028
0.00566176
0.073186
0.00509337
0.072413
0.00449596
0.0706743
0.00398206
0.0694048
0.0035245
0.0685305
0.00310586
0.0678676
0.00272161
0.0673354
0.00237
0.0668981
0.00204959
0.0665326
0.00175907
0.066222
0.00149736
0.0659539
0.00126359
0.0657184
0.00105713
0.0655082
0.000877608
0.0653175
0.000724877
0.0651416
0.000599015
0.0649771
0.000500291
0.0648211
0.000429105
0.0646718
0.0003858
0.0645284
0.000370036
0.064393
0.000376602
0.0548434
0.000394411
0.045649
0.000416436
0.0380123
0.00043892
0.0316631
0.000460215
0.0263793
0.021978
0.000479827
0.000914467
0.0163559
0.00324482
0.0467997
0.00489515
0.0661525
0.00519598
0.0728851
0.00477827
0.0728307
0.00424574
0.0712068
0.0037704
0.0698801
0.00334456
0.0689563
0.00295082
0.0682613
0.0025841
0.0677022
0.0022434
0.0672388
0.00192834
0.0668476
0.00163864
0.0665117
0.0013742
0.0662183
0.00113504
0.0659576
0.000921355
0.0657219
0.000733548
0.0655053
0.000572205
0.065303
0.000438119
0.0651112
0.000332273
0.064927
0.000255776
0.0647483
0.000209672
0.0645745
0.000194206
0.0644085
0.000203901
0.0548337
0.000226576
0.0456263
0.000254372
0.0379845
0.000283148
0.0316344
0.000310796
0.0263516
0.0219522
0.000336567
0.00069573
0.0156602
0.0026696
0.0448258
0.00427753
0.0645446
0.00473712
0.0724255
0.00445111
0.0731167
0.0039778
0.0716801
0.00353233
0.0703256
0.00312956
0.0693591
0.00275428
0.0686366
0.00240056
0.0680559
0.00206753
0.0675718
0.00175538
0.0671598
0.00146454
0.0668026
0.00119556
0.0664873
0.000949179
0.066204
0.000726271
0.0659448
0.000527923
0.0657037
0.000355447
0.0654755
0.000210338
0.0652563
9.42855e-05
0.065043
9.17119e-06
0.0648334
-4.32072e-05
0.0646269
-6.17256e-05
0.064427
-5.14679e-05
0.0548235
-2.55989e-05
0.0456005
7.06697e-06
0.0379518
4.12965e-05
0.0316001
7.48663e-05
0.0263181
0.0219204
0.0001067
0.000550012
0.0151101
0.00221795
0.0431579
0.00373653
0.063026
0.00429732
0.0718647
0.0041213
0.0732927
0.00370137
0.0721
0.00327888
0.0707481
0.00289135
0.0697466
0.00252783
0.0690001
0.00218173
0.068402
0.00185194
0.0679016
0.00153892
0.0674728
0.0012435
0.067098
0.000966708
0.0667641
0.000709782
0.0664609
0.000474181
0.0661804
0.000261578
0.0659163
7.38343e-05
0.0656632
-8.69427e-05
0.0654171
-0.000218314
0.0651744
-0.000317557
0.0649327
-0.000381894
0.0646912
-0.000409308
0.0644544
-0.000403452
0.0548176
-0.000378419
0.0455754
-0.000343826
0.0379172
-0.000305293
0.0315616
-0.00026617
0.026279
0.0218826
-0.00022836
0.000448127
0.014662
0.00185984
0.0417461
0.00326571
0.0616201
0.00388329
0.0712472
0.0037955
0.0733805
0.00342261
0.0724729
0.00301753
0.0711532
0.00263843
0.0701257
0.00228023
0.0693583
0.0019362
0.068746
0.00160476
0.068233
0.00128638
0.0677912
0.000982084
0.0674023
0.000693199
0.0670529
0.000421344
0.0667327
0.000168337
0.0664334
-6.37807e-05
0.0661484
-0.000272616
0.065872
-0.000455344
0.0655998
-0.00060873
0.0653278
-0.000729253
0.0650532
-0.00081332
0.0647753
-0.000858046
0.0644992
-0.000864103
0.0548237
-0.000845863
0.0455572
-0.000813715
0.0378851
-0.000774193
0.0315221
-0.000731378
0.0262361
0.0218393
-0.000688074
0.000372452
0.0142896
0.00157164
0.040547
0.00285623
0.0603355
0.00349779
0.0706056
0.0034783
0.0734
0.00314605
0.0728052
0.00275398
0.0715453
0.00237764
0.0705021
0.00201896
0.069717
0.00167164
0.0690933
0.0013336
0.0685711
0.00100509
0.0681197
0.000687155
0.0677202
0.000381278
0.0673588
8.91468e-05
0.0670249
-0.000187235
0.0667098
-0.000445429
0.0664066
-0.000682456
0.0661091
-0.000894846
0.0658122
-0.00107869
0.0655116
-0.00122977
0.0652043
-0.00134383
0.0648893
-0.00141758
0.0645729
-0.0014472
0.0548533
-0.00144661
0.0455566
-0.00142619
0.0378646
-0.00139285
0.0314887
-0.00135174
0.026195
0.0217945
-0.00130702
0.000312923
0.0139766
0.0013376
0.0395223
0.00250225
0.0591709
0.00314356
0.0699643
0.00317357
0.07337
0.00287487
0.0731039
0.0024921
0.071928
0.00211407
0.0708801
0.00174996
0.0700811
0.0013945
0.0694488
0.00104517
0.0689204
0.000701856
0.068463
0.000365482
0.0680566
3.73132e-05
0.067687
-0.000280948
0.0673431
-0.000587151
0.067016
-0.000878468
0.0666979
-0.0011515
0.0663821
-0.00140222
0.0660629
-0.00162608
0.0657355
-0.00181822
0.0653964
-0.00197416
0.0650453
-0.00209124
0.06469
-0.00216054
0.0549226
-0.00219511
0.0455912
-0.00220382
0.0378734
-0.00219185
0.0314768
-0.00216379
0.026167
0.0217558
-0.00212505
0.000227354
0.0137493
0.000977133
0.0387725
0.00187011
0.0582779
0.00239903
0.0694354
0.00245171
0.0733173
0.00222117
0.0733344
0.00190357
0.0722456
0.00158133
0.0712023
0.0012675
0.0703949
0.000958681
0.0697576
0.000652383
0.0692267
0.000348139
0.0687672
4.63706e-05
0.0683584
-0.000252086
0.0679855
-0.000545991
0.067637
-0.000833449
0.0673035
-0.00111203
0.0669765
-0.00137869
0.0666487
-0.00162964
0.0663139
-0.00186043
0.0659663
-0.00206616
0.0656021
-0.00224246
0.0652216
-0.00238754
0.0648351
-0.00248975
0.0550248
-0.00256174
0.0456632
-0.00261077
0.0379224
-0.00263819
0.0315042
-0.00264389
0.0261727
0.0217432
-0.00263132
0.000168591
0.0135807
0.000724989
0.0382161
0.00141075
0.0575922
0.00183948
0.0690066
0.00189771
0.0732591
0.00171786
0.0735143
0.0014556
0.0725079
0.00118368
0.0714743
0.000916394
0.0706622
0.000651543
0.0700225
0.000386751
0.0694915
0.000121274
0.0690327
-0.000144928
0.0686246
-0.000411452
0.068252
-0.000677397
0.067903
-0.000941443
0.0675675
-0.00120175
0.0672368
-0.00145586
0.0669029
-0.00170054
0.0665585
-0.00193173
0.0661975
-0.00214461
0.065815
-0.00233437
0.0654113
-0.00249832
0.064999
-0.00262139
0.0551479
-0.00271842
0.0457602
-0.00280112
0.0380051
-0.00287431
0.0315774
-0.00293567
0.026234
0.0217793
-0.00297176
0.000129157
0.0134515
0.000550843
0.0377944
0.00108398
0.057059
0.001431
0.0686596
0.00148713
0.073203
0.00134496
0.0736564
0.0011282
0.0727246
0.000899472
0.071703
0.000672763
0.0708889
0.000446701
0.0702485
0.000219107
0.0697191
-1.0956e-05
0.0692628
-0.000243775
0.0688574
-0.000479257
0.0684875
-0.000716962
0.0681407
-0.000956114
0.0678067
-0.0011955
0.0674762
-0.00143337
0.0671407
-0.00166723
0.0667924
-0.00189376
0.066424
-0.0021086
0.0660299
-0.00230674
0.0656095
-0.00248326
0.0651755
-0.00261583
0.0552804
-0.00271704
0.0458614
-0.00280384
0.0380919
-0.00289061
0.0316642
-0.00299533
0.0263387
0.0219121
-0.00312815
9.83233e-05
0.0133532
0.000425976
0.0374668
0.000849158
0.0566359
0.00113237
0.0683764
0.00118183
0.0731535
0.00106582
0.0737724
0.000885161
0.0729053
0.000693069
0.0718951
0.000501697
0.0710803
0.00030977
0.0704404
0.000115276
0.0699136
-8.27366e-05
0.0694608
-0.000284678
0.0690593
-0.000490694
0.0686935
-0.000700731
0.0683507
-0.000914486
0.0680204
-0.00113134
0.067693
-0.00135024
0.0673596
-0.00156952
0.0670117
-0.00178686
0.0666413
-0.00199911
0.0662421
-0.0022024
0.0658128
-0.00239161
0.0653648
-0.00253674
0.0554256
-0.00263891
0.0459636
-0.00270519
0.0381582
-0.00274564
0.0317046
-0.00277887
0.026372
-0.00294074
0.022074
0.000130612
0.0219827
0.00017275
0.0219852
0.000205944
0.0219942
0.000236787
0.0219965
0.000261807
0.0220023
0.000282291
0.0220069
0.000299738
0.0220099
0.000310864
0.0220162
0.000319976
0.0220182
0.000324062
0.0220233
0.000325073
0.0220263
0.000323549
0.0220289
0.000317575
0.0220333
0.000309989
0.0220349
0.000299144
0.0220382
0.000285985
0.0220405
0.000271477
0.0220419
0.000253984
0.0220448
0.000235413
0.0220459
0.00021559
0.0220472
0.000194192
0.0220488
0.000172165
0.0220494
0.000149454
0.0220501
0.000126223
0.0220506
0.000102866
0.0220507
7.95542e-05
0.0220507
5.66736e-05
0.0220502
3.42189e-05
0.0220498
1.2512e-05
0.0220491
-7.80548e-06
0.0220477
-2.72353e-05
0.0220468
-4.49447e-05
0.0220451
-6.06297e-05
0.022043
-7.50584e-05
0.0220418
-8.61865e-05
0.0220385
-9.53417e-05
0.0220365
-0.000102216
0.0220342
-0.000104911
0.0220301
-0.000105824
0.0220283
-0.000102059
0.0220236
-9.51324e-05
0.0220204
-8.50795e-05
0.0220173
-6.92199e-05
0.0220115
-5.11981e-05
0.0220093
-2.64506e-05
0.0220026
1.74418e-06
0.0219992
3.47534e-05
0.0219943
7.41272e-05
0.021988
0.0219855
0.000116008
0.000235071
0.0219381
0.000277395
0.0219429
0.000310997
0.0219606
0.000342469
0.021965
0.000368355
0.0219764
0.000389935
0.0219853
0.000408694
0.0219911
0.000421351
0.0220036
0.000432184
0.0220074
0.000438183
0.0220173
0.000441278
0.0220232
0.000441993
0.0220282
0.000438413
0.0220369
0.000433344
0.02204
0.000425141
0.0220464
0.000414728
0.0220509
0.000403051
0.0220535
0.000388479
0.0220594
0.000372886
0.0220615
0.00035609
0.022064
0.000337765
0.0220671
0.000318828
0.0220683
0.000299218
0.0220697
0.000279091
0.0220707
0.000258817
0.022071
0.000238557
0.0220709
0.000218696
0.0220701
0.000199198
0.0220693
0.000180381
0.0220679
0.000162884
0.0220652
0.000146173
0.0220635
0.00013108
0.0220602
0.000117895
0.0220562
0.00010582
0.0220539
9.69123e-05
0.0220474
8.98094e-05
0.0220436
8.48088e-05
0.0220392
8.38129e-05
0.022031
8.43871e-05
0.0220277
8.94394e-05
0.0220185
9.74249e-05
0.0220124
0.000108296
0.0220064
0.000124738
0.0219951
0.000143067
0.021991
0.000167864
0.0219778
0.000195811
0.0219712
0.000228262
0.0219619
0.000266747
0.0219495
0.0219448
0.000307379
0.000338222
0.021893
0.000381181
0.0218999
0.000415664
0.0219261
0.000448252
0.0219325
0.000475494
0.0219492
0.000498658
0.0219621
0.000519213
0.0219706
0.000533882
0.0219889
0.00054691
0.0219944
0.000555292
0.0220089
0.000560935
0.0220176
0.000564349
0.0220248
0.000563619
0.0220376
0.00056152
0.0220421
0.000556408
0.0220515
0.000549187
0.0220581
0.00054078
0.0220619
0.000529568
0.0220706
0.000517386
0.0220737
0.000504044
0.0220773
0.000489216
0.0220819
0.000473786
0.0220838
0.000457688
0.0220858
0.000441071
0.0220873
0.000424279
0.0220878
0.000407461
0.0220877
0.000391003
0.0220866
0.000374836
0.0220855
0.000359271
0.0220834
0.000344945
0.0220795
0.00033129
0.0220772
0.000319141
0.0220723
0.000308773
0.0220666
0.00029936
0.0220633
0.000292972
0.0220538
0.000288212
0.0220484
0.000285366
0.0220421
0.000286344
0.0220301
0.000288669
0.0220254
0.000295263
0.0220119
0.000304553
0.0220032
0.000316476
0.0219945
0.000333725
0.0219778
0.000352573
0.0219722
0.000377619
0.0219528
0.000405506
0.0219433
0.000437583
0.0219298
0.000475369
0.0219117
0.0219053
0.000514928
0.000437154
0.0218467
0.000481436
0.0218557
0.000517471
0.02189
0.000551837
0.0218981
0.000581098
0.0219199
0.000606515
0.0219367
0.000629541
0.0219476
0.000646905
0.0219715
0.000662818
0.0219785
0.00067428
0.0219974
0.000683175
0.0220087
0.000689994
0.0220179
0.000692826
0.0220348
0.00069441
0.0220405
0.000693104
0.0220528
0.000689791
0.0220615
0.00068537
0.0220664
0.000678231
0.0220778
0.000670172
0.0220818
0.000660992
0.0220865
0.000650364
0.0220925
0.000639138
0.022095
0.000627241
0.0220977
0.000614817
0.0220998
0.000602178
0.0221004
0.000589465
0.0221005
0.00057706
0.022099
0.000564863
0.0220977
0.000553176
0.0220951
0.000542634
0.02209
0.000532634
0.0220872
0.000524013
0.0220809
0.000517031
0.0220736
0.000510832
0.0220695
0.000507503
0.0220571
0.000505609
0.0220503
0.000505426
0.0220423
0.000508871
0.0220266
0.000513424
0.0220208
0.000522027
0.0220033
0.000533073
0.0219921
0.000546488
0.0219811
0.000564976
0.0219593
0.000584763
0.0219524
0.000610476
0.0219271
0.000638712
0.0219151
0.000670817
0.0218977
0.000708308
0.0218742
0.0218664
0.000747198
0.000524174
0.0217985
0.000570682
0.0218091
0.000609164
0.0218516
0.000646203
0.021861
0.00067838
0.0218878
0.000706953
0.0219081
0.000733362
0.0219212
0.000754339
0.0219506
0.000774068
0.0219587
0.000789548
0.0219819
0.000802641
0.0219956
0.000813822
0.0220068
0.000821179
0.0220274
0.000827415
0.0220343
0.000830889
0.0220493
0.000832463
0.0220599
0.000833008
0.0220658
0.000830925
0.0220799
0.000827971
0.0220847
0.000823933
0.0220905
0.000818483
0.022098
0.000812434
0.022101
0.000805706
0.0221044
0.000798433
0.022107
0.000790897
0.022108
0.000783229
0.0221081
0.000775805
0.0221064
0.000768493
0.022105
0.000761584
0.022102
0.00075571
0.0220959
0.000750234
0.0220926
0.00074599
0.0220852
0.000743228
0.0220763
0.000741056
0.0220716
0.00074158
0.0220566
0.000743327
0.0220485
0.000746561
0.022039
0.000753211
0.02202
0.00076071
0.0220133
0.000772022
0.021992
0.00078551
0.0219786
0.000801085
0.0219655
0.00082147
0.0219389
0.000842839
0.021931
0.000869855
0.0219
0.000899073
0.0218859
0.000931838
0.0218649
0.000969666
0.0218364
0.0218275
0.00100852
0.000589818
0.021747
0.000639645
0.0217593
0.000681668
0.0218095
0.000722489
0.0218202
0.000758701
0.0218516
0.000791563
0.0218753
0.000822506
0.0218902
0.000848263
0.0219248
0.000872993
0.021934
0.000893693
0.0219612
0.000912204
0.0219771
0.000928981
0.02199
0.00094211
0.0220143
0.000954261
0.0220221
0.000963787
0.0220398
0.000971528
0.0220521
0.00097833
0.022059
0.000982596
0.0220756
0.000986044
0.0220813
0.000988447
0.0220881
0.000989471
0.022097
0.000989894
0.0221006
0.000989622
0.0221047
0.000988783
0.0221079
0.000987621
0.0221091
0.000986256
0.0221095
0.000985059
0.0221076
0.000983859
0.0221062
0.000982937
0.022103
0.000982923
0.0220959
0.000983137
0.0220924
0.000984415
0.0220839
0.000986992
0.0220738
0.000989941
0.0220687
0.000995387
0.0220511
0.00100182
0.0220421
0.00100948
0.0220314
0.00102032
0.0220091
0.00103172
0.0220019
0.00104667
0.0219771
0.00106351
0.0219618
0.00108212
0.0219469
0.00110526
0.0219158
0.00112904
0.0219072
0.00115817
0.0218709
0.00118916
0.0218549
0.00122336
0.0218308
0.00126229
0.0217975
0.021788
0.00130183
0.000623517
0.0216912
0.000677947
0.0217049
0.000724818
0.0217627
0.000770753
0.0217743
0.000812358
0.02181
0.000850893
0.0218367
0.000887788
0.0218533
0.000919766
0.0218928
0.000950973
0.0219028
0.000978395
0.0219338
0.00100385
0.0219516
0.00102778
0.021966
0.00104826
0.0219938
0.00106793
0.0220025
0.00108513
0.0220226
0.00110067
0.0220366
0.00111538
0.0220443
0.00112766
0.0220633
0.00113918
0.0220697
0.00114971
0.0220776
0.00115888
0.0220878
0.00116746
0.022092
0.00117532
0.0220968
0.00118258
0.0221006
0.00118945
0.0221022
0.00119603
0.0221029
0.00120268
0.0221009
0.0012092
0.0220997
0.00121585
0.0220963
0.00122324
0.0220885
0.00123067
0.022085
0.00123896
0.0220756
0.00124833
0.0220644
0.00125782
0.0220592
0.00126956
0.0220394
0.00128201
0.0220296
0.00129539
0.022018
0.00131167
0.0219929
0.00132818
0.0219854
0.00134793
0.0219573
0.00136923
0.0219405
0.00139195
0.0219242
0.00141887
0.0218889
0.00144606
0.02188
0.00147826
0.0218387
0.00151194
0.0218212
0.00154844
0.0217942
0.0015893
0.0217566
0.021747
0.00163035
0.000613914
0.0216296
0.000674407
0.0216444
0.000727622
0.0217094
0.00078022
0.0217217
0.00082881
0.0217614
0.000874659
0.0217909
0.000919195
0.0218088
0.00095913
0.0218529
0.000998601
0.0218633
0.00103458
0.0218979
0.00106886
0.0219174
0.00110187
0.021933
0.00113165
0.0219641
0.00116083
0.0219733
0.00118773
0.0219957
0.00121314
0.0220112
0.00123785
0.0220196
0.00126025
0.0220409
0.00128197
0.022048
0.00130275
0.0220568
0.00132223
0.0220683
0.00134111
0.0220732
0.00135925
0.0220787
0.00137676
0.0220831
0.00139379
0.0220852
0.00141043
0.0220863
0.00142703
0.0220843
0.00144333
0.0220834
0.00145957
0.0220801
0.00147638
0.0220717
0.00149297
0.0220684
0.00151018
0.0220584
0.0015282
0.0220464
0.00154602
0.0220414
0.0015658
0.0220196
0.00158595
0.0220095
0.00160667
0.0219973
0.00162994
0.0219696
0.00165304
0.0219623
0.00167901
0.0219313
0.00170612
0.0219134
0.00173423
0.0218961
0.00176615
0.0218569
0.00179788
0.0218483
0.00183424
0.0218023
0.00187162
0.0217838
0.00191139
0.0217545
0.00195509
0.0217129
0.0217036
0.00199847
0.00054873
0.0215607
0.000616888
0.0215762
0.000678125
0.0216482
0.000739154
0.0216607
0.000796572
0.0217039
0.000851655
0.0217358
0.000905835
0.0217546
0.000955794
0.0218029
0.00100568
0.0218134
0.00105242
0.0218511
0.00109781
0.021872
0.00114225
0.0218886
0.00118376
0.0219226
0.00122493
0.0219321
0.00126406
0.0219566
0.00130191
0.0219733
0.00133925
0.0219823
0.00137441
0.0220058
0.00140903
0.0220134
0.00144279
0.0220231
0.00147531
0.0220358
0.00150723
0.0220412
0.00153841
0.0220475
0.0015689
0.0220526
0.00159884
0.0220553
0.00162826
0.0220569
0.00165748
0.0220551
0.00168622
0.0220546
0.00171467
0.0220516
0.00174343
0.022043
0.00177168
0.0220401
0.00180023
0.0220298
0.00182925
0.0220174
0.00185768
0.022013
0.00188769
0.0219896
0.00191762
0.0219796
0.00194768
0.0219672
0.00197984
0.0219374
0.00201132
0.0219308
0.00204521
0.0218975
0.00207971
0.0218789
0.0021147
0.0218611
0.002153
0.0218186
0.00219055
0.0218108
0.00223224
0.0217607
0.0022744
0.0217417
0.00231842
0.0217104
0.00236585
0.0216655
0.0216571
0.00241236
0.00041438
0.0214829
0.00049194
0.0214987
0.000563039
0.0215771
0.000634443
0.0215893
0.000702744
0.0216356
0.000769245
0.0216693
0.000835385
0.0216885
0.000897799
0.0217405
0.000960653
0.0217506
0.00102083
0.0217909
0.00108011
0.0218127
0.00113886
0.0218298
0.00119506
0.0218664
0.0012513
0.0218759
0.00130581
0.0219021
0.00135934
0.0219198
0.00141261
0.021929
0.00146393
0.0219544
0.00151487
0.0219625
0.00156508
0.0219729
0.00161413
0.0219867
0.00166265
0.0219927
0.00171041
0.0219997
0.00175743
0.0220056
0.0018038
0.0220089
0.0018495
0.0220111
0.00189483
0.0220098
0.00193942
0.0220101
0.00198344
0.0220076
0.00202744
0.021999
0.00207055
0.021997
0.00211355
0.0219868
0.00215656
0.0219743
0.00219845
0.0219711
0.00224144
0.0219466
0.00228376
0.0219372
0.00232561
0.0219254
0.00236899
0.021894
0.00241101
0.0218888
0.00245482
0.0218537
0.00249857
0.0218351
0.00254211
0.0218175
0.00258834
0.0217724
0.00263308
0.021766
0.00268133
0.0217124
0.00272936
0.0216936
0.00277856
0.0216612
0.00283052
0.0216135
0.0216068
0.00288081
0.000194867
0.0213947
0.000283826
0.0214097
0.000366645
0.0214943
0.00045061
0.0215053
0.000532255
0.021554
0.000612786
0.0215888
0.000693634
0.0216076
0.000771372
0.0216628
0.000850244
0.0216717
0.000927056
0.0217141
0.00100359
0.0217362
0.00108019
0.0217532
0.00115476
0.0217918
0.00122989
0.0218007
0.00130376
0.0218282
0.00137705
0.0218465
0.00145046
0.0218556
0.00152223
0.0218827
0.00159389
0.0218908
0.00166503
0.0219017
0.00173516
0.0219166
0.00180483
0.021923
0.00187378
0.0219308
0.00194195
0.0219374
0.00200935
0.0219415
0.00207591
0.0219446
0.00214187
0.0219438
0.00220677
0.0219452
0.00227072
0.0219437
0.00233424
0.0219354
0.00239634
0.0219349
0.00245777
0.0219254
0.00251861
0.0219135
0.00257763
0.021912
0.00263705
0.0218872
0.00269503
0.0218793
0.00275171
0.0218687
0.00280912
0.0218366
0.00286426
0.0218337
0.00292034
0.0217976
0.00297546
0.02178
0.00302943
0.0217636
0.00308522
0.0217166
0.00313857
0.0217127
0.00319457
0.0216564
0.00324943
0.0216388
0.00330457
0.0216061
0.00336162
0.0215565
0.0215523
0.00341606
-0.000129109
0.0212955
-2.81981e-05
0.0213088
6.88876e-05
0.0213972
0.000168303
0.0214059
0.000266194
0.0214561
0.000363923
0.021491
0.000462517
0.021509
0.000559015
0.0215663
0.000657627
0.0215731
0.000755025
0.0216167
0.000853008
0.0216382
0.000951885
0.0216544
0.00104947
0.0216942
0.00114835
0.0217019
0.00124663
0.0217299
0.00134494
0.0217482
0.00144393
0.0217566
0.00154173
0.0217849
0.00163983
0.0217927
0.00173774
0.0218038
0.00183488
0.0218195
0.00193173
0.0218262
0.00202792
0.0218346
0.00212332
0.021842
0.00221784
0.021847
0.00231131
0.0218511
0.00240388
0.0218512
0.00249499
0.021854
0.00258464
0.021854
0.0026733
0.0218468
0.00275982
0.0218484
0.00284491
0.0218403
0.00292855
0.0218299
0.00300941
0.0218312
0.0030897
0.0218069
0.00316745
0.0218015
0.00324275
0.0217934
0.00331765
0.0217617
0.00338901
0.0217623
0.00346012
0.0217265
0.00352898
0.0217112
0.0035954
0.0216971
0.00366243
0.0216496
0.0037257
0.0216494
0.00379045
0.0215916
0.00385281
0.0215764
0.00391426
0.0215446
0.00397649
0.0214942
0.021494
0.00403487
-0.000575074
0.0211825
-0.000458786
0.0211925
-0.000346617
0.021285
-0.00023105
0.0212903
-0.000115637
0.0213407
9.41992e-07
0.0213745
0.000121096
0.0213889
0.000240169
0.0214472
0.000362575
0.0214507
0.000485031
0.0214943
0.000609415
0.0215138
0.000735953
0.0215278
0.000862349
0.0215678
0.000991212
0.021573
0.00112043
0.0216007
0.00125059
0.021618
0.00138223
0.021625
0.00151336
0.0216538
0.00164541
0.0216606
0.00177778
0.0216714
0.00190978
0.0216875
0.00204176
0.0216942
0.00217325
0.0217031
0.00230399
0.0217113
0.00243375
0.0217172
0.00256222
0.0217226
0.00268944
0.021724
0.00281465
0.0217288
0.00293774
0.0217309
0.00305905
0.0217255
0.00317724
0.0217302
0.00329293
0.0217246
0.00340597
0.0217168
0.00351484
0.0217223
0.00362175
0.0217
0.00372455
0.0216987
0.00382324
0.0216947
0.00391989
0.0216651
0.00401117
0.021671
0.00410047
0.0216372
0.00418568
0.0216259
0.00426661
0.0216162
0.00434644
0.0215698
0.00442062
0.0215752
0.00449468
0.0215176
0.0045646
0.0215065
0.00463201
0.0214772
0.00469869
0.0214276
0.0214328
0.00475988
-0.00118158
0.021057
-0.00105057
0.0210615
-0.000921098
0.0211556
-0.000785726
0.0211549
-0.000648348
0.0212033
-0.000507546
0.0212337
-0.000362278
0.0212436
-0.000215898
0.0213008
-6.38668e-05
0.0212987
8.99409e-05
0.0213405
0.000247194
0.0213565
0.000408198
0.0213668
0.000570946
0.0214051
0.000737751
0.0214062
0.000906299
0.0214322
0.00107713
0.0214472
0.00125065
0.0214514
0.00142466
0.0214797
0.00160054
0.0214848
0.00177751
0.0214945
0.00195476
0.0215102
0.0021325
0.0215165
0.00231008
0.0215255
0.0024871
0.0215342
0.00266311
0.0215412
0.00283759
0.0215482
0.00301043
0.0215512
0.00318058
0.0215587
0.00334772
0.0215638
0.00351201
0.0215612
0.00367181
0.0215704
0.00382756
0.0215689
0.00397895
0.0215654
0.00412413
0.0215771
0.00426533
0.0215588
0.0044001
0.0215639
0.00452832
0.0215665
0.00465207
0.0215413
0.00476776
0.0215553
0.00487889
0.021526
0.00498322
0.0215216
0.00508054
0.0215189
0.00517421
0.0214761
0.00525953
0.0214899
0.00534236
0.0214348
0.0054186
0.0214303
0.00549007
0.0214058
0.00555878
0.0213589
0.0213717
0.00561985
-0.00198945
0.0209215
-0.00184468
0.0209167
-0.00169876
0.0210096
-0.00154359
0.0209998
-0.00138294
0.0210427
-0.00121504
0.0210658
-0.00103826
0.0210668
-0.000856871
0.0211194
-0.000666491
0.0211083
-0.000471233
0.0211452
-0.000269568
0.0211549
-6.18718e-05
0.0211591
0.000147988
0.0211952
0.000363115
0.0211911
0.000581882
0.0212134
0.000804981
0.0212241
0.0010324
0.021224
0.00126188
0.0212503
0.00149456
0.0212521
0.00172954
0.0212595
0.00196591
0.0212739
0.00220369
0.0212787
0.00244203
0.0212872
0.00268035
0.0212959
0.00291785
0.0213037
0.00315373
0.0213123
0.00338761
0.0213173
0.00361797
0.0213283
0.00384415
0.0213376
0.00406602
0.0213393
0.00428142
0.021355
0.00449053
0.0213598
0.0046927
0.0213633
0.00488565
0.0213842
0.00507155
0.0213729
0.00524753
0.021388
0.00541327
0.0214007
0.0055709
0.0213837
0.00571639
0.0214098
0.00585346
0.021389
0.00597965
0.0213954
0.00609471
0.0214038
0.00620229
0.0213685
0.00629744
0.0213947
0.00638661
0.0213456
0.00646564
0.0213512
0.00653676
0.0213347
0.00660234
0.0212933
0.0213166
0.0066574
-0.00251997
0.0208101
-0.00239784
0.0207946
-0.00226985
0.0208817
-0.00212665
0.0208566
-0.00197112
0.0208871
-0.0018023
0.020897
-0.00161993
0.0208844
-0.00142889
0.0209284
-0.00122652
0.0209059
-0.00101748
0.0209362
-0.000801198
0.0209386
-0.000578285
0.0209362
-0.000350962
0.0209679
-0.000117676
0.0209578
0.000118139
0.0209776
0.000356673
0.0209856
0.000602133
0.0209786
0.000850186
0.0210022
0.00110238
0.0209999
0.00135808
0.0210038
0.00161649
0.0210154
0.00187753
0.0210177
0.00214035
0.0210244
0.00240424
0.021032
0.00266817
0.0210398
0.00293108
0.0210494
0.00319226
0.0210561
0.00344986
0.0210707
0.0037028
0.0210846
0.00395055
0.0210916
0.00419059
0.021115
0.00442273
0.0211276
0.00464595
0.02114
0.0048578
0.0211723
0.00506005
0.0211706
0.00524979
0.0211982
0.00542658
0.0212239
0.00559228
0.021218
0.00574309
0.021259
0.0058824
0.0212497
0.00600789
0.0212699
0.00611931
0.0212924
0.00621992
0.0212679
0.00630519
0.0213095
0.00638096
0.0212698
0.00644362
0.0212886
0.00649551
0.0212828
0.00653947
0.0212493
0.0212843
0.00657178
-0.00288344
0.0207218
-0.00279384
0.020705
-0.00269468
0.0207825
-0.0025696
0.0207315
-0.00242067
0.0207382
-0.0022498
0.0207261
-0.00206025
0.0206949
-0.00185928
0.0207274
-0.00164666
0.0206933
-0.00142769
0.0207172
-0.00120252
0.0207134
-0.000972047
0.0207057
-0.000738712
0.0207345
-0.000500468
0.0207195
-0.000258147
0.0207353
-1.11069e-05
0.0207385
0.000235414
0.020732
0.000487315
0.0207503
0.000744724
0.0207425
0.00100703
0.0207415
0.00127362
0.0207488
0.00154449
0.0207468
0.00181883