/*--------------------------------*- C++ -*----------------------------------*\
| =========                 |                                                 |
| \\      /  F ield         | OpenFOAM: The Open Source CFD Toolbox           |
|  \\    /   O peration     | Version:  2312                                  |
|   \\  /    A nd           | Website:  www.openfoam.com                      |
|    \\/     M anipulation  |                                                 |
\*---------------------------------------------------------------------------*/
FoamFile
{
    version     2.0;
    format      ascii;
    arch        "LSB;label=32;scalar=64";
    class       volVectorField;
    location    "72.697199064929436";
    object      U;
}
// * * * * * * * * * * * * * * * * * * * * * * * * * * * * * * * * * * * * * //

dimensions      [0 1 -1 0 0 0 0];

internalField   nonuniform List<vector> 
21039
(
(0.913751 0.0474334 0)
(1.02607 0.0665109 0)
(1.00449 0.0295371 0)
(1.00176 0.0189441 0)
(1.0012 0.0139471 0)
(1.00079 0.0105788 0)
(1.00055 0.00826462 0)
(1.0004 0.00663474 0)
(1.0003 0.00543818 0)
(1.00023 0.00453107 0)
(1.00018 0.00382795 0)
(1.00014 0.00327382 0)
(1.00011 0.00283167 0)
(1.00009 0.00247591 0)
(1.00007 0.00218838 0)
(1.00006 0.00195593 0)
(1.00004 0.00176879 0)
(1.00003 0.00161959 0)
(1.00002 0.00150258 0)
(1.00002 0.00141308 0)
(1.00001 0.00134708 0)
(1.00001 0.00130247 0)
(1 0.00128061 0)
(1 0.00126143 0)
(1 0.00124815 0)
(1 0.00123798 0)
(1.00001 0.00122696 0)
(1.00001 0.00120555 0)
(1.00001 0.00115316 0)
(0.794502 0.0730742 0)
(1.07448 0.121749 0)
(1.03986 0.0709491 0)
(1.01807 0.0498321 0)
(1.01125 0.0384451 0)
(1.00761 0.0296943 0)
(1.00535 0.0234295 0)
(1.00392 0.0188877 0)
(1.00296 0.0154681 0)
(1.00229 0.0128295 0)
(1.0018 0.0107553 0)
(1.00144 0.00909895 0)
(1.00116 0.00775951 0)
(1.00094 0.00666655 0)
(1.00077 0.00576971 0)
(1.00062 0.0050323 0)
(1.0005 0.00442718 0)
(1.0004 0.00393392 0)
(1.00031 0.00353686 0)
(1.00023 0.0032237 0)
(1.00017 0.00298412 0)
(1.00011 0.00281141 0)
(1.00006 0.00270895 0)
(1.00004 0.00264164 0)
(1.00003 0.00261064 0)
(1.00003 0.00259936 0)
(1.00004 0.00259479 0)
(1.00005 0.00257892 0)
(1.00006 0.00252437 0)
(0.667207 0.0573018 0)
(1.08293 0.124899 0)
(1.08428 0.0904513 0)
(1.0462 0.0678661 0)
(1.02897 0.0543929 0)
(1.02015 0.0434804 0)
(1.01459 0.0352259 0)
(1.01089 0.0288989 0)
(1.00833 0.0239262 0)
(1.0065 0.0199763 0)
(1.00517 0.0168037 0)
(1.00416 0.0142259 0)
(1.00338 0.0121116 0)
(1.00277 0.0103653 0)
(1.00228 0.00891686 0)
(1.00187 0.00771414 0)
(1.00153 0.00671797 0)
(1.00123 0.00589863 0)
(1.00098 0.00523335 0)
(1.00076 0.0047044 0)
(1.00056 0.0042971 0)
(1.00039 0.00400059 0)
(1.00024 0.00381975 0)
(1.00014 0.0037118 0)
(1.00008 0.00366998 0)
(1.00006 0.00366184 0)
(1.00006 0.00366565 0)
(1.00008 0.00365856 0)
(1.00009 0.0036107 0)
(0.54082 0.0352862 0)
(1.05053 0.110933 0)
(1.11574 0.0972093 0)
(1.07595 0.076526 0)
(1.04906 0.062418 0)
(1.03508 0.0513707 0)
(1.02622 0.0427629 0)
(1.02005 0.0358049 0)
(1.01562 0.0300936 0)
(1.01237 0.0254038 0)
(1.00994 0.0215311 0)
(1.00808 0.0183115 0)
(1.00663 0.0156206 0)
(1.00547 0.0133631 0)
(1.00453 0.0114657 0)
(1.00375 0.0098721 0)
(1.00308 0.00853907 0)
(1.00251 0.00743322 0)
(1.00201 0.00652867 0)
(1.00157 0.00580528 0)
(1.00117 0.00524655 0)
(1.00082 0.00483908 0)
(1.00051 0.00458893 0)
(1.00028 0.00444856 0)
(1.00014 0.00440079 0)
(1.00007 0.00439864 0)
(1.00005 0.00441288 0)
(1.00006 0.00441658 0)
(1.00008 0.00437548 0)
(0.443907 0.0186849 0)
(0.997366 0.0919747 0)
(1.12871 0.0958582 0)
(1.10117 0.0797487 0)
(1.06795 0.065764 0)
(1.04946 0.0551546 0)
(1.03794 0.0468431 0)
(1.02972 0.0398851 0)
(1.02362 0.0339916 0)
(1.01903 0.0290134 0)
(1.0155 0.0247919 0)
(1.01275 0.0211992 0)
(1.01057 0.0181354 0)
(1.00879 0.0155199 0)
(1.00733 0.0132883 0)
(1.00611 0.0113898 0)
(1.00506 0.0097841 0)
(1.00415 0.00843953 0)
(1.00334 0.00733126 0)
(1.00262 0.00643984 0)
(1.00196 0.00574953 0)
(1.00137 0.00524649 0)
(1.00084 0.00493854 0)
(1.00044 0.00477533 0)
(1.00019 0.00472859 0)
(1.00005 0.00473839 0)
(0.999999 0.00476897 0)
(1 0.00478917 0)
(1 0.00475765 0)
(0.378292 0.00811855 0)
(0.939191 0.0719324 0)
(1.12653 0.0884848 0)
(1.12043 0.0788976 0)
(1.0851 0.0662131 0)
(1.06263 0.0562959 0)
(1.04885 0.0485026 0)
(1.03902 0.0418295 0)
(1.03159 0.0360432 0)
(1.02585 0.0310395 0)
(1.02136 0.0266984 0)
(1.01779 0.0229258 0)
(1.01489 0.0196471 0)
(1.01251 0.0168001 0)
(1.01052 0.014334 0)
(1.00883 0.0122078 0)
(1.00736 0.0103886 0)
(1.00607 0.00885016 0)
(1.00491 0.00757184 0)
(1.00386 0.00653752 0)
(1.0029 0.00573448 0)
(1.00202 0.00515056 0)
(1.00122 0.00479644 0)
(1.00061 0.00462061 0)
(1.00021 0.00458347 0)
(0.999986 0.00461308 0)
(0.999889 0.00466766 0)
(0.999869 0.00471166 0)
(0.999853 0.00469459 0)
(0.333024 0.00234895 0)
(0.882798 0.0539047 0)
(1.11345 0.0779929 0)
(1.13335 0.0750325 0)
(1.10037 0.0645501 0)
(1.07478 0.0555389 0)
(1.05891 0.0483855 0)
(1.04777 0.0421621 0)
(1.03926 0.036646 0)
(1.03259 0.0317661 0)
(1.02728 0.0274423 0)
(1.02298 0.0236123 0)
(1.01944 0.0202247 0)
(1.01649 0.0172353 0)
(1.01398 0.0146077 0)
(1.01182 0.0123124 0)
(1.00991 0.0103254 0)
(1.00822 0.00862813 0)
(1.00668 0.00720598 0)
(1.00527 0.00604812 0)
(1.00397 0.00514656 0)
(1.00275 0.00449269 0)
(1.00163 0.00410136 0)
(1.00077 0.00392128 0)
(1.0002 0.00390143 0)
(0.999862 0.00395841 0)
(0.999702 0.00404487 0)
(0.999645 0.00412076 0)
(0.999598 0.00412476 0)
(0.300691 -0.000179431 0)
(0.831015 0.0396117 0)
(1.09315 0.067027 0)
(1.13993 0.0695166 0)
(1.11325 0.0615488 0)
(1.08588 0.0535161 0)
(1.06819 0.0469995 0)
(1.05594 0.0412792 0)
(1.04658 0.0361105 0)
(1.03915 0.0314355 0)
(1.03315 0.0272081 0)
(1.02822 0.023394 0)
(1.02411 0.0199629 0)
(1.02063 0.0168876 0)
(1.01764 0.0141457 0)
(1.01502 0.0117193 0)
(1.01268 0.0095942 0)
(1.01057 0.00775998 0)
(1.00864 0.00620946 0)
(1.00684 0.00493832 0)
(1.00515 0.00394478 0)
(1.00355 0.00322538 0)
(1.00208 0.00280019 0)
(1.00092 0.00261985 0)
(1.00013 0.00262225 0)
(0.999658 0.00271238 0)
(0.999413 0.0028377 0)
(0.999299 0.00295384 0)
(0.999202 0.00298713 0)
(0.277703 -0.000976348 0)
(0.78535 0.0290927 0)
(1.06893 0.0569575 0)
(1.14103 0.0634029 0)
(1.12347 0.0578908 0)
(1.09586 0.0508151 0)
(1.0767 0.0448327 0)
(1.06352 0.0395593 0)
(1.05349 0.0347297 0)
(1.04546 0.0302769 0)
(1.0389 0.0261752 0)
(1.03345 0.02241 0)
(1.02885 0.0189674 0)
(1.0249 0.015835 0)
(1.02145 0.0130029 0)
(1.01839 0.0104639 0)
(1.01564 0.00821365 0)
(1.01311 0.00625014 0)
(1.01076 0.0045742 0)
(1.00855 0.00318915 0)
(1.00644 0.00210065 0)
(1.00443 0.00131065 0)
(1.00254 0.000845552 0)
(1.00104 0.00066168 0)
(1.00001 0.000686177 0)
(0.99936 0.000810283 0)
(0.999001 0.000977351 0)
(0.998804 0.00114228 0)
(0.998632 0.00122145 0)
(0.261271 -0.00102519 0)
(0.746185 0.0216418 0)
(1.04332 0.0482099 0)
(1.13798 0.0572664 0)
(1.13119 0.0539739 0)
(1.10476 0.0478152 0)
(1.08453 0.042253 0)
(1.07057 0.0373225 0)
(1.06001 0.0327697 0)
(1.05153 0.0285085 0)
(1.04452 0.0245203 0)
(1.03864 0.0208021 0)
(1.03362 0.0173511 0)
(1.02926 0.0141657 0)
(1.0254 0.0112464 0)
(1.02194 0.00859515 0)
(1.01877 0.00621631 0)
(1.01583 0.00411646 0)
(1.01306 0.00230455 0)
(1.01042 0.000790799 0)
(1.00787 -0.000411748 0)
(1.0054 -0.00129265 0)
(1.00305 -0.0018157 0)
(1.00116 -0.00201869 0)
(0.999827 -0.00198223 0)
(0.998969 -0.00182568 0)
(0.998461 -0.00161581 0)
(0.998149 -0.00140958 0)
(0.997872 -0.00129983 0)
(0.249075 -0.000812035 0)
(0.713011 0.0164708 0)
(1.01796 0.0408125 0)
(1.13203 0.0514019 0)
(1.13676 0.0499965 0)
(1.11274 0.0447038 0)
(1.09186 0.039477 0)
(1.07721 0.034788 0)
(1.06622 0.0304341 0)
(1.05738 0.0263114 0)
(1.05004 0.0224006 0)
(1.04381 0.018704 0)
(1.03844 0.0152258 0)
(1.03372 0.0119719 0)
(1.0295 0.00895021 0)
(1.02566 0.00617034 0)
(1.02211 0.00364421 0)
(1.01876 0.00138583 0)
(1.01557 -0.000589931 0)
(1.01248 -0.0022651 0)
(1.00946 -0.0036165 0)
(1.00649 -0.00462319 0)
(1.00364 -0.00523815 0)
(1.00129 -0.00549024 0)
(0.999613 -0.00546284 0)
(0.998493 -0.00528467 0)
(0.997784 -0.00503096 0)
(0.997308 -0.00477134 0)
(0.996884 -0.00462707 0)
(0.23959 -0.000559305 0)
(0.684979 0.0128945 0)
(0.99373 0.034646 0)
(1.12418 0.0459632 0)
(1.14052 0.0460759 0)
(1.1199 0.041579 0)
(1.09884 0.0366286 0)
(1.0836 0.0320965 0)
(1.07224 0.027866 0)
(1.06312 0.0238236 0)
(1.0555 0.0199444 0)
(1.049 0.0162321 0)
(1.04334 0.0126947 0)
(1.03832 0.00934289 0)
(1.03378 0.00618983 0)
(1.0296 0.00325108 0)
(1.02568 0.000543806 0)
(1.02195 -0.00191319 0)
(1.01834 -0.00409701 0)
(1.01479 -0.00598013 0)
(1.01128 -0.00753077 0)
(1.00778 -0.00871761 0)
(1.00437 -0.00948162 0)
(1.00151 -0.00983621 0)
(0.999413 -0.00986028 0)
(0.997962 -0.00969263 0)
(0.996982 -0.00941691 0)
(0.996269 -0.00911409 0)
(0.99563 -0.00893023 0)
(0.231943 -0.000356505 0)
(0.661247 0.0103751 0)
(0.971106 0.0295319 0)
(1.11515 0.041014 0)
(1.14279 0.0422913 0)
(1.12632 0.0385057 0)
(1.10554 0.0337891 0)
(1.08984 0.0293461 0)
(1.07815 0.0251711 0)
(1.06881 0.0211521 0)
(1.06099 0.0172569 0)
(1.05427 0.0134868 0)
(1.04838 0.00985124 0)
(1.04311 0.00636358 0)
(1.03829 0.00304035 0)
(1.03381 -0.000100124 0)
(1.02956 -0.00303718 0)
(1.02546 -0.00574549 0)
(1.02144 -0.00819421 0)
(1.01743 -0.0103481 0)
(1.01341 -0.0121674 0)
(1.00934 -0.0136113 0)
(1.00533 -0.014609 0)
(1.0019 -0.015152 0)
(0.999324 -0.0153027 0)
(0.997465 -0.0152061 0)
(0.996127 -0.0149537 0)
(0.995088 -0.014639 0)
(0.994147 -0.014431 0)
(0.22562 -0.000221421 0)
(0.641075 0.00853757 0)
(0.950284 0.025285 0)
(1.10551 0.0365582 0)
(1.14388 0.0386914 0)
(1.13211 0.0355292 0)
(1.11205 0.0310161 0)
(1.09603 0.0266114 0)
(1.08406 0.0224346 0)
(1.07454 0.0183876 0)
(1.06656 0.0144302 0)
(1.05969 0.0105595 0)
(1.05362 0.00678385 0)
(1.04815 0.00311719 0)
(1.04311 -0.000423784 0)
(1.03838 -0.00381938 0)
(1.03384 -0.00704472 0)
(1.0294 -0.0100686 0)
(1.02499 -0.012854 0)
(1.02053 -0.0153588 0)
(1.01598 -0.0175362 0)
(1.01134 -0.0193379 0)
(1.00669 -0.0206836 0)
(1.00265 -0.0215395 0)
(0.999526 -0.0219368 0)
(0.997173 -0.0220169 0)
(0.99537 -0.0218736 0)
(0.993883 -0.0216125 0)
(0.992524 -0.0214224 0)
(0.220294 -0.00014404 0)
(0.62384 0.00715026 0)
(0.931295 0.0217679 0)
(1.09566 0.0325971 0)
(1.14402 0.0353186 0)
(1.13728 0.0326823 0)
(1.11836 0.0283461 0)
(1.10219 0.0239441 0)
(1.08998 0.0197211 0)
(1.08031 0.0156025 0)
(1.07224 0.0115419 0)
(1.06525 0.00753044 0)
(1.05907 0.00357354 0)
(1.05345 -0.000317265 0)
(1.04825 -0.00412661 0)
(1.04331 -0.00783369 0)
(1.03852 -0.0114104 0)
(1.03378 -0.0148213 0)
(1.029 -0.0180244 0)
(1.02411 -0.0209709 0)
(1.01905 -0.0236075 0)
(1.01382 -0.0258807 0)
(1.00855 -0.0277075 0)
(1.00391 -0.0290389 0)
(1.00026 -0.029866 0)
(0.997381 -0.0303131 0)
(0.995029 -0.0304566 0)
(0.992966 -0.0303945 0)
(0.991042 -0.0303145 0)
(0.216115 -9.39973e-05 0)
(0.610111 0.00615476 0)
(0.915367 0.0190513 0)
(1.08667 0.0293482 0)
(1.14358 0.0324363 0)
(1.14168 0.0302153 0)
(1.12411 0.0260285 0)
(1.10795 0.0216126 0)
(1.09558 0.0173225 0)
(1.08582 0.0131111 0)
(1.0777 0.00892698 0)
(1.07067 0.00475414 0)
(1.06443 0.000592792 0)
(1.05875 -0.00354976 0)
(1.05346 -0.00766083 0)
(1.04839 -0.0117204 0)
(1.04344 -0.0157001 0)
(1.03847 -0.019563 0)
(1.0334 -0.0232634 0)
(1.02814 -0.0267454 0)
(1.02264 -0.0299465 0)
(1.01689 -0.0328039 0)
(1.01104 -0.035227 0)
(1.0059 -0.0371569 0)
(1.00182 -0.0385677 0)
(0.998516 -0.0395882 0)
(0.995637 -0.0402661 0)
(0.992901 -0.0406438 0)
(0.9902 -0.0408445 0)
(0.213038 -6.56184e-05 0)
(0.599996 0.00547715 0)
(0.903159 0.0171054 0)
(1.07934 0.0269159 0)
(1.1429 0.0302225 0)
(1.1451 0.0283092 0)
(1.12887 0.024238 0)
(1.11283 0.019804 0)
(1.10036 0.0154498 0)
(1.09057 0.0111516 0)
(1.08244 0.00685258 0)
(1.07543 0.00252872 0)
(1.0692 -0.00182533 0)
(1.06352 -0.00620756 0)
(1.05821 -0.0106096 0)
(1.0531 -0.0150149 0)
(1.04807 -0.0193983 0)
(1.04298 -0.0237256 0)
(1.03773 -0.0279507 0)
(1.03222 -0.0320138 0)
(1.02637 -0.0358427 0)
(1.0202 -0.0393601 0)
(1.01389 -0.0424468 0)
(1.00838 -0.0450036 0)
(1.00406 -0.0470047 0)
(1.0006 -0.0486627 0)
(0.997533 -0.0501083 0)
(0.994457 -0.0513699 0)
(0.991251 -0.0522955 0)
(0.210655 -2.23221e-05 0)
(0.592221 0.00501595 0)
(0.893498 0.015695 0)
(1.07322 0.0250811 0)
(1.14207 0.0285208 0)
(1.14778 0.026846 0)
(1.13282 0.0228769 0)
(1.11695 0.0184376 0)
(1.10443 0.0140374 0)
(1.09462 0.00967123 0)
(1.08651 0.0052774 0)
(1.07954 0.000825182 0)
(1.07336 -0.00369641 0)
(1.06773 -0.00829073 0)
(1.06245 -0.0129549 0)
(1.05736 -0.0176781 0)
(1.05232 -0.0224419 0)
(1.04719 -0.0272178 0)
(1.04185 -0.0319648 0)
(1.03618 -0.0366245 0)
(1.03011 -0.0411205 0)
(1.02362 -0.0453634 0)
(1.01693 -0.049191 0)
(1.01107 -0.0523837 0)
(1.00655 -0.0548323 0)
(1.0031 -0.0568199 0)
(1.00033 -0.0587201 0)
(0.99791 -0.0609052 0)
(0.99524 -0.0628341 0)
(0.209131 -3.31376e-05 0)
(0.586847 0.0046565 0)
(0.886599 0.0146917 0)
(1.06876 0.0237906 0)
(1.14151 0.0273145 0)
(1.1499 0.0257757 0)
(1.13597 0.0218506 0)
(1.12029 0.0174004 0)
(1.10778 0.0129716 0)
(1.09798 0.00855833 0)
(1.08993 0.0040904 0)
(1.08303 -0.000467848 0)
(1.07692 -0.00513138 0)
(1.07137 -0.00990879 0)
(1.06617 -0.0148034 0)
(1.06115 -0.0198121 0)
(1.05617 -0.024925 0)
(1.05108 -0.0301229 0)
(1.04575 -0.035374 0)
(1.04006 -0.0406288 0)
(1.03392 -0.0458179 0)
(1.02731 -0.0508619 0)
(1.02045 -0.055588 0)
(1.01444 -0.0596252 0)
(1.00979 -0.062646 0)
(1.00631 -0.0647189 0)
(1.00372 -0.0658895 0)
(1.002 -0.0668691 0)
(1.00206 -0.0714622 0)
(1.00001 0.00116585 0)
(1.00001 0.00117081 0)
(1.00001 0.00117072 0)
(1.00001 0.00117139 1.03948e-21)
(1.00001 0.00117393 5.17914e-21)
(1.00001 0.00117816 -9.31543e-21)
(1 0.0011839 5.17139e-21)
(1 0.00119105 -4.11481e-21)
(1 0.00119945 5.28485e-22)
(1 0.00120912 4.11001e-21)
(1 0.00121987 0)
(0.999999 0.00123169 -4.58576e-21)
(0.999998 0.00124448 5.23727e-22)
(0.999996 0.00125809 4.06825e-21)
(0.999995 0.00127251 0)
(0.999994 0.00128757 0)
(0.999993 0.00130321 -4.01818e-21)
(0.999992 0.00131932 4.02071e-21)
(0.999991 0.00133573 0)
(0.99999 0.00135242 -1.98959e-21)
(0.999989 0.00136925 2.11465e-21)
(0.999989 0.00138607 1.8518e-21)
(0.999988 0.00140282 -2.96027e-21)
(0.999987 0.00141936 9.53624e-22)
(0.999987 0.00143558 3.05148e-23)
(0.999986 0.0014514 -6.09797e-23)
(0.999986 0.00146668 8.47084e-22)
(0.999986 0.00148131 -9.68327e-22)
(0.999985 0.00149524 0)
(0.999985 0.00150831 0)
(0.999985 0.0015205 -2.38353e-22)
(0.999986 0.00153159 -2.37193e-22)
(0.999986 0.00154154 -4.0029e-21)
(0.999986 0.00155041 3.29459e-21)
(0.999987 0.00155803 -4.1951e-21)
(0.999987 0.00156439 4.18938e-21)
(0.999988 0.00156944 -3.22604e-21)
(0.999989 0.00157307 3.22506e-21)
(0.99999 0.00157532 4.57018e-22)
(0.999991 0.00157604 4.54467e-22)
(0.999992 0.00157528 -4.51887e-22)
(0.999994 0.00157296 0)
(0.999995 0.001569 0)
(0.999997 0.00156348 0)
(0.999998 0.00155633 0)
(1 0.00154758 0)
(1 0.00153712 1.74146e-21)
(1 0.00152436 -1.73845e-21)
(1.00001 0.00150523 0)
(1.00005 0.00254286 0)
(1.00004 0.00255357 2.0998e-21)
(1.00003 0.00256111 -2.0904e-21)
(1.00001 0.00257218 -1.04249e-21)
(1 0.00258794 -1.04245e-21)
(0.999987 0.0026078 -3.11393e-21)
(0.999975 0.00263141 5.19875e-21)
(0.999963 0.0026588 0)
(0.999952 0.00268938 -5.16467e-22)
(0.999941 0.00272329 -1.03135e-21)
(0.999931 0.00276006 0)
(0.999922 0.00279952 5.12545e-22)
(0.999913 0.00284156 -4.59383e-21)
(0.999905 0.00288565 4.08628e-21)
(0.999898 0.00293181 0)
(0.999891 0.00297963 1.01468e-21)
(0.999885 0.00302882 0)
(0.999879 0.00307931 0)
(0.999875 0.00313057 0)
(0.999871 0.00318246 -1.99774e-21)
(0.999868 0.00323476 1.87386e-21)
(0.999866 0.00328706 -1.24465e-22)
(0.999864 0.00333917 0)
(0.999863 0.00339083 -4.61288e-22)
(0.999863 0.0034417 4.84478e-22)
(0.999864 0.00349157 9.17544e-23)
(0.999866 0.00354018 1.21742e-22)
(0.999869 0.00358722 0)
(0.999872 0.00363247 -1.92725e-21)
(0.999876 0.00367571 1.92682e-21)
(0.999881 0.00371668 -3.57978e-21)
(0.999887 0.00375512 7.85624e-21)
(0.999894 0.00379086 -3.56211e-21)
(0.999901 0.00382367 4.71362e-22)
(0.999909 0.00385328 4.69e-22)
(0.999918 0.0038796 4.66957e-22)
(0.999927 0.00390234 -4.64093e-22)
(0.999937 0.00392132 4.14662e-21)
(0.999948 0.00393648 -3.22203e-21)
(0.999959 0.00394745 -1.36981e-21)
(0.999972 0.00395426 4.98575e-21)
(0.999984 0.00395666 -3.61944e-21)
(0.999998 0.00395445 -1.79503e-21)
(1.00001 0.00394767 3.56115e-21)
(1.00003 0.00393591 -7.09728e-21)
(1.00004 0.00391942 3.53517e-21)
(1.00006 0.00389792 1.74911e-21)
(1.00007 0.00387073 -4.82074e-24)
(1.00009 0.00383313 0)
(1.00007 0.00362787 3.16118e-21)
(1.00004 0.00364486 -1.05545e-21)
(0.999998 0.00366413 -4.20076e-21)
(0.99996 0.00368947 2.0921e-21)
(0.999923 0.00372214 -2.09111e-21)
(0.999887 0.00376132 0)
(0.999854 0.00380661 -2.07764e-21)
(0.999822 0.00385818 -6.21707e-21)
(0.999792 0.00391486 6.217e-21)
(0.999764 0.00397707 1.03096e-21)
(0.999737 0.00404389 0)
(0.999713 0.00411507 -6.15474e-21)
(0.999691 0.00419055 1.44631e-23)
(0.999671 0.00426928 4.09012e-21)
(0.999652 0.00435143 0)
(0.999636 0.00443626 -1.01367e-21)
(0.999623 0.00452326 -1.01306e-21)
(0.999611 0.00461252 0)
(0.999601 0.00470293 -1.00633e-21)
(0.999594 0.00479436 -1.99874e-21)
(0.999589 0.00488655 1.99935e-21)
(0.999586 0.00497867 -2.4946e-22)
(0.999586 0.00507051 -2.4793e-22)
(0.999587 0.0051617 0)
(0.999591 0.00525158 3.83064e-23)
(0.999598 0.00533984 -2.14195e-22)
(0.999606 0.00542615 0)
(0.999617 0.00550991 0)
(0.999629 0.00559078 -1.9269e-21)
(0.999644 0.00566845 1.92654e-21)
(0.999661 0.0057424 -3.81772e-21)
(0.999681 0.0058123 3.81646e-21)
(0.999702 0.00587784 0)
(0.999725 0.00593857 0)
(0.99975 0.00599416 0)
(0.999777 0.00604437 -9.32448e-22)
(0.999806 0.00608871 -1.85625e-21)
(0.999836 0.00612693 0)
(0.999868 0.00615884 -9.17485e-22)
(0.999903 0.00618389 -9.03829e-22)
(0.999938 0.00620208 2.73062e-21)
(0.999976 0.00621294 0)
(1.00002 0.00621616 3.58032e-21)
(1.00006 0.00621178 -5.35727e-21)
(1.0001 0.00619905 0)
(1.00014 0.00617829 0)
(1.00019 0.00614886 0)
(1.00023 0.00611001 -1.74216e-21)
(1.00028 0.00605811 -1.72897e-21)
(1.00004 0.00439134 -2.1118e-21)
(0.99997 0.00441933 4.22618e-21)
(0.999897 0.004456 4.21601e-21)
(0.999824 0.00450103 6.29603e-21)
(0.999753 0.0045561 -2.10406e-21)
(0.999684 0.00462025 -4.17288e-21)
(0.999619 0.00469304 8.34078e-21)
(0.999558 0.0047749 -5.37915e-24)
(0.9995 0.00486386 -2.07184e-21)
(0.999446 0.00496081 2.07362e-21)
(0.999396 0.00506424 0)
(0.999351 0.00517383 2.05515e-21)
(0.999309 0.00528967 -2.04027e-21)
(0.999271 0.00540997 8.18564e-21)
(0.999238 0.00553523 -8.16027e-21)
(0.999209 0.00566424 6.11319e-21)
(0.999184 0.0057963 -1.01982e-21)
(0.999164 0.00593171 1.01243e-21)
(0.999148 0.00606861 1.00522e-21)
(0.999136 0.00620698 -1.00539e-21)
(0.999129 0.00634654 0)
(0.999126 0.0064859 -1.49025e-21)
(0.999128 0.00662491 1.24559e-21)
(0.999134 0.00676308 9.899e-22)
(0.999144 0.00689932 4.60762e-23)
(0.999159 0.00703332 9.16094e-23)
(0.999178 0.00716465 1.4616e-21)
(0.999202 0.00729233 -9.73013e-22)
(0.99923 0.00741596 1.92838e-21)
(0.999262 0.00753515 -1.92806e-21)
(0.999298 0.00764907 0)
(0.999338 0.00775732 4.75433e-21)
(0.999382 0.00785946 -3.79939e-21)
(0.999429 0.0079548 3.76154e-21)
(0.999481 0.00804295 -3.76017e-21)
(0.999536 0.00812353 0)
(0.999595 0.00819584 3.69925e-21)
(0.999657 0.00825957 -1.85323e-21)
(0.999723 0.00831442 0)
(0.999793 0.00835961 3.64011e-21)
(0.999865 0.00839519 -3.63611e-21)
(0.999941 0.00842043 1.80264e-21)
(1.00002 0.00843494 1.79295e-21)
(1.0001 0.00843878 5.34325e-21)
(1.00019 0.00843084 6.65205e-24)
(1.00028 0.00841162 3.52891e-21)
(1.00037 0.00838 1.74513e-21)
(1.00046 0.00833518 1.73094e-21)
(1.00056 0.0082748 1.7298e-21)
(0.999935 0.00477481 0)
(0.99983 0.00482081 -4.2311e-21)
(0.999712 0.00488269 -4.21872e-21)
(0.999593 0.00495518 0)
(0.999476 0.0050406 -4.20155e-21)
(0.999363 0.00513784 1.30507e-23)
(0.999256 0.00524644 8.39583e-21)
(0.999155 0.00536719 -2.10252e-21)
(0.99906 0.00549713 -1.35011e-23)
(0.998972 0.00563783 -6.23592e-21)
(0.99889 0.00578701 0)
(0.998816 0.00594437 -6.19937e-21)
(0.998748 0.00611017 2.07202e-21)
(0.998687 0.0062817 0)
(0.998633 0.00645997 -2.05399e-21)
(0.998586 0.00664317 1.05996e-23)
(0.998546 0.00683036 -2.03162e-21)
(0.998514 0.00702222 7.09812e-21)
(0.998489 0.00721586 -1.5851e-23)
(0.998471 0.00741154 -1.02072e-21)
(0.998461 0.0076089 -1.00389e-21)
(0.998458 0.00780591 1.99319e-21)
(0.998463 0.00800255 -1.99348e-21)
(0.998474 0.00819814 -2.45909e-22)
(0.998494 0.00839115 5.09552e-22)
(0.99852 0.00858125 -2.74525e-22)
(0.998553 0.00876792 9.77095e-22)
(0.998594 0.00894973 -9.75025e-22)
(0.998642 0.00912628 9.70067e-22)
(0.998696 0.00929705 1.9222e-21)
(0.998758 0.00946085 -5.74626e-21)
(0.998826 0.00961728 -9.33743e-22)
(0.998901 0.00976569 5.70387e-21)
(0.998982 0.00990516 1.88932e-21)
(0.999069 0.0100353 -3.74423e-21)
(0.999163 0.0101555 3.74199e-21)
(0.999262 0.0102648 9.89542e-24)
(0.999368 0.010363 5.53679e-21)
(0.999479 0.0104496 -3.689e-21)
(0.999596 0.0105236 -9.12858e-21)
(0.999718 0.0105851 3.62562e-21)
(0.999846 0.0106332 1.80096e-21)
(0.999979 0.0106673 7.15353e-21)
(1.00012 0.0106876 -3.57118e-21)
(1.00026 0.0106926 -1.12616e-23)
(1.00041 0.010683 -1.24051e-23)
(1.00056 0.0106574 0)
(1.00072 0.0106148 -3.47514e-21)
(1.0009 0.0105547 -3.44389e-21)
(0.999749 0.00471724 0)
(0.999594 0.00479046 -6.40548e-21)
(0.999421 0.00488749 6.39296e-21)
(0.999243 0.00499738 0)
(0.999067 0.00512343 0)
(0.998898 0.00526427 -4.21682e-21)
(0.998737 0.00541951 -3.29621e-24)
(0.998584 0.00559035 -4.21312e-21)
(0.998442 0.0057727 -8.56528e-24)
(0.998308 0.00596897 0)
(0.998185 0.00617595 0)
(0.998072 0.00639343 2.07253e-21)
(0.99797 0.00662185 0)
(0.997878 0.00685743 0)
(0.997796 0.00710183 -2.05749e-21)
(0.997726 0.00735247 4.12536e-21)
(0.997667 0.00760822 2.05283e-21)
(0.997618 0.00787018 0)
(0.997581 0.00813424 2.0147e-21)
(0.997555 0.00840103 -5.06786e-21)
(0.99754 0.00867011 -2.01491e-21)
(0.997536 0.00893865 -2.00167e-21)
(0.997544 0.00920686 2.00186e-21)
(0.997562 0.00947382 1.4149e-24)
(0.997592 0.00973746 1.55138e-23)
(0.997632 0.00999752 2.45731e-22)
(0.997684 0.0102533 -4.91449e-22)
(0.997746 0.0105029 0)
(0.997819 0.0107459 -9.68852e-22)
(0.997903 0.0109816 0)
(0.997997 0.0112085 0)
(0.998101 0.0114261 -1.91488e-21)
(0.998215 0.0116336 -7.59304e-21)
(0.998338 0.0118298 2.56527e-23)
(0.998471 0.0120143 1.88654e-21)
(0.998614 0.0121862 0)
(0.998766 0.0123446 -1.85526e-21)
(0.998926 0.0124889 -3.69516e-21)
(0.999095 0.0126187 3.66681e-21)
(0.999273 0.0127326 7.29392e-21)
(0.999459 0.012831 -7.24738e-21)
(0.999653 0.0129126 -6.82971e-25)
(0.999855 0.0129767 -3.57949e-21)
(1.00006 0.0130238 -3.81286e-24)
(1.00028 0.0130518 0)
(1.00051 0.0130618 -3.51148e-21)
(1.00074 0.0130518 -1.73768e-21)
(1.00098 0.013021 1.73641e-21)
(1.00124 0.0129715 3.44525e-21)
(0.999446 0.00415929 0)
(0.999231 0.00427142 4.28324e-21)
(0.998988 0.00441539 -1.28686e-20)
(0.998738 0.00457464 0)
(0.99849 0.0047539 0)
(0.99825 0.00495144 -8.5224e-21)
(0.99802 0.00516691 8.48401e-21)
(0.997802 0.005402 -4.25177e-21)
(0.997598 0.00565124 -8.59561e-24)
(0.997407 0.00591814 4.21786e-21)
(0.997231 0.00619834 0)
(0.997069 0.00649175 0)
(0.996921 0.00679904 4.19268e-21)
(0.996789 0.00711516 0)
(0.996672 0.00744257 0)
(0.996571 0.00777778 -4.13424e-21)
(0.996485 0.00811943 1.66614e-23)
(0.996415 0.0084691 0)
(0.996361 0.0088213 2.03591e-21)
(0.996323 0.00917709 5.08817e-21)
(0.996301 0.0095359 -2.03828e-21)
(0.996295 0.00989402 0)
(0.996306 0.0102519 -1.00192e-21)
(0.996332 0.0106083 1.25139e-21)
(0.996374 0.0109606 -5.45286e-22)
(0.996432 0.0113086 -2.48348e-22)
(0.996505 0.0116513 4.88286e-22)
(0.996594 0.0119864 -9.82243e-22)
(0.996698 0.0123133 0)
(0.996818 0.0126313 -3.8772e-21)
(0.996952 0.0129383 5.77687e-21)
(0.997101 0.0132339 1.89141e-21)
(0.997264 0.013517 -9.91725e-24)
(0.997441 0.0137861 1.88589e-21)
(0.997631 0.0140406 -1.89611e-21)
(0.997835 0.0142797 -3.73043e-21)
(0.998052 0.014502 7.43492e-21)
(0.998282 0.014707 -3.69782e-21)
(0.998523 0.0148941 7.35301e-21)
(0.998777 0.0150617 3.01048e-24)
(0.999042 0.0152102 7.24442e-21)
(0.999318 0.0153381 -3.5976e-21)
(0.999605 0.0154448 0)
(0.999902 0.0155305 -4.49681e-24)
(1.00021 0.0155931 7.04443e-21)
(1.00053 0.0156339 0)
(1.00086 0.0156502 0)
(1.00121 0.0156416 6.03138e-21)
(1.00157 0.0156142 8.59672e-22)
(0.998988 0.00304294 1.0848e-21)
(0.998699 0.0032085 7.62524e-21)
(0.998372 0.00341297 8.61159e-21)
(0.998033 0.00363539 -8.67365e-21)
(0.997695 0.00388258 0)
(0.997366 0.00415223 -1.21021e-23)
(0.997051 0.0044441 -4.32458e-21)
(0.996752 0.00476049 -4.30755e-21)
(0.99647 0.00509431 1.28144e-20)
(0.996206 0.00545035 -4.25704e-21)
(0.995962 0.00582286 0)
(0.995738 0.0062119 8.46907e-21)
(0.995533 0.00661837 -8.4114e-21)
(0.99535 0.00703574 3.01627e-23)
(0.995187 0.00746743 8.3668e-21)
(0.995045 0.00790884 -2.10129e-21)
(0.994925 0.00835836 -2.03725e-21)
(0.994827 0.00881812 4.14404e-21)
(0.99475 0.009281 0)
(0.994696 0.0097486 -2.04219e-21)
(0.994664 0.0102201 2.04229e-21)
(0.994654 0.0106909 2.02736e-21)
(0.994666 0.0111616 -2.02731e-21)
(0.9947 0.0116306 2.52689e-22)
(0.994756 0.0120947 3.11695e-23)
(0.994835 0.0125536 7.44669e-22)
(0.994935 0.0130061 -2.97775e-24)
(0.995056 0.0134493 0)
(0.995199 0.0138826 0)
(0.995362 0.0143049 1.43169e-25)
(0.995546 0.0147137 -1.91823e-21)
(0.99575 0.0151085 3.85835e-21)
(0.995974 0.0154879 -3.82388e-21)
(0.996217 0.0158501 3.78608e-21)
(0.996479 0.0161944 -7.56786e-21)
(0.996759 0.0165198 1.85683e-23)
(0.997056 0.0168246 3.73476e-21)
(0.997371 0.0171081 3.68667e-21)
(0.997702 0.0173696 -7.36761e-21)
(0.998049 0.0176074 -7.30449e-21)
(0.998412 0.0178218 -3.63282e-21)
(0.998789 0.0180112 -3.60598e-21)
(0.999181 0.0181746 0)
(0.999587 0.0183129 -3.54389e-21)
(1.00001 0.018423 -1.51049e-23)
(1.00044 0.0185068 6.96993e-21)
(1.00089 0.0185609 -8.64159e-21)
(1.00136 0.0185855 1.69703e-21)
(1.00186 0.0185922 0)
(0.998331 0.00131478 0)
(0.997948 0.00154598 -8.72848e-21)
(0.997526 0.00182019 0)
(0.99708 0.0021194 8.68815e-21)
(0.99663 0.00245172 4.34869e-21)
(0.996191 0.0028125 -8.68762e-21)
(0.995769 0.00320084 1.29677e-20)
(0.995367 0.0036194 4.29926e-21)
(0.994987 0.00405935 -4.29009e-21)
(0.994632 0.0045271 0)
(0.994301 0.00501533 4.27946e-21)
(0.993998 0.00552429 -8.53172e-21)
(0.99372 0.00605509 4.28439e-21)
(0.99347 0.00659948 -4.222e-21)
(0.993248 0.00716195 3.43791e-23)
(0.993054 0.00773665 4.22005e-21)
(0.992889 0.00832165 -8.39592e-21)
(0.992753 0.0089196 0)
(0.992646 0.00952164 4.15001e-21)
(0.992569 0.0101299 -4.14995e-21)
(0.992522 0.0107433 -1.02506e-21)
(0.992505 0.011356 0)
(0.992518 0.011969 1.02537e-21)
(0.992561 0.0125802 2.53375e-22)
(0.992633 0.0131856 -5.37457e-22)
(0.992736 0.0137848 7.52139e-22)
(0.992867 0.0143763 4.94324e-22)
(0.993028 0.0149565 -9.94156e-22)
(0.993218 0.0155246 0)
(0.993435 0.0160793 -1.95186e-21)
(0.993681 0.0166175 3.90327e-21)
(0.993954 0.0171383 0)
(0.994253 0.0176403 1.91427e-21)
(0.994578 0.018121 0)
(0.994928 0.0185796 3.77763e-21)
(0.995303 0.0190149 -7.51643e-21)
(0.995701 0.0194248 3.71662e-21)
(0.996121 0.0198083 -2.62476e-23)
(0.996564 0.020165 3.64458e-21)
(0.997027 0.0204923 -3.66081e-21)
(0.99751 0.0207911 3.61827e-21)
(0.998012 0.0210592 7.17906e-21)
(0.998532 0.0212955 0)
(0.99907 0.0215013 0)
(0.999626 0.0216727 -7.02361e-21)
(1.0002 0.0218125 -1.39108e-20)
(1.00079 0.0219162 1.3798e-20)
(1.00141 0.0219847 -7.71536e-21)
(1.00207 0.0220375 7.62257e-21)
(0.997457 -0.00114388 0)
(0.996943 -0.000763987 8.93176e-21)
(0.996378 -0.000394414 8.90762e-21)
(0.995792 -4.05375e-05 1.33188e-20)
(0.995207 0.000388298 -1.32965e-20)
(0.99464 0.000860288 -4.39665e-21)
(0.994092 0.00136712 1.3244e-20)
(0.993562 0.0019129 -4.3732e-21)
(0.99306 0.00248565 4.37575e-21)
(0.992589 0.00309348 0)
(0.992149 0.00372682 8.74709e-21)
(0.991744 0.00438609 0)
(0.991372 0.00507257 -4.28623e-21)
(0.991037 0.00577622 -4.32959e-21)
(0.990738 0.0065027 5.67047e-23)
(0.990475 0.00724475 0)
(0.990251 0.00800002 4.26035e-21)
(0.990065 0.00877167 8.49154e-21)
(0.989918 0.00954904 0)
(0.98981 0.0103348 2.08845e-21)
(0.989742 0.0111271 -2.08777e-21)
(0.989713 0.0119194 -2.06624e-21)
(0.989725 0.0127125 2.07785e-21)
(0.989776 0.0135037 -4.5898e-24)
(0.989867 0.0142884 -5.10612e-22)
(0.989998 0.0150657 -2.24455e-22)
(0.990168 0.0158337 -5.04321e-22)
(0.990377 0.0165882 1.00413e-21)
(0.990625 0.0173279 0)
(0.99091 0.0180508 1.96437e-21)
(0.991233 0.0187535 -3.91328e-21)
(0.991592 0.0194347 0)
(0.991986 0.0200924 0)
(0.992414 0.0207236 3.81301e-21)
(0.992875 0.0213271 -7.59801e-21)
(0.993369 0.0219016 3.7894e-21)
(0.993893 0.0224444 3.75238e-21)
(0.994446 0.0229542 0)
(0.995028 0.0234306 1.10252e-20)
(0.995635 0.0238704 -7.29633e-21)
(0.996268 0.0242748 -3.60406e-21)
(0.996926 0.024641 -2.85953e-24)
(0.997605 0.024968 -7.10845e-21)
(0.998307 0.0252574 -7.03824e-21)
(0.999031 0.0255046 -6.97906e-21)
(0.999776 0.0257131 2.79357e-23)
(1.00055 0.0258773 -3.41293e-23)
(1.00135 0.0259992 0)
(1.00219 0.0261089 -1.34913e-20)
(0.996322 -0.00444997 0)
(0.995648 -0.00400335 2.35858e-21)
(0.994902 -0.00350118 -1.11555e-20)
(0.994141 -0.00297244 -8.91105e-21)
(0.99338 -0.00236345 8.89501e-21)
(0.992635 -0.00172993 4.53864e-21)
(0.991916 -0.00110597 -4.39682e-21)
(0.991226 -0.000429733 0)
(0.990572 0.000300504 0)
(0.989959 0.00107953 8.91335e-21)
(0.989381 0.00189163 -8.75625e-21)
(0.988846 0.00273702 4.38819e-21)
(0.988354 0.00361694 -4.38457e-21)
(0.987907 0.00451936 4.37527e-21)
(0.987508 0.00545104 4.37395e-21)
(0.987155 0.006403 -4.3341e-21)
(0.986853 0.00737235 -4.27745e-21)
(0.9866 0.00836266 -4.25564e-21)
(0.986397 0.00936142 4.25392e-21)
(0.986247 0.0103716 -4.25287e-21)
(0.986148 0.0113908 0)
(0.986102 0.0124111 2.113e-21)
(0.986109 0.0134333 -2.07534e-21)
(0.986168 0.0144537 1.55386e-21)
(0.98628 0.0154671 0)
(0.986446 0.0164718 1.02297e-21)
(0.986664 0.0174653 0)
(0.986933 0.0184425 -1.00302e-21)
(0.987254 0.0194013 1.87736e-23)
(0.987625 0.0203393 1.45697e-23)
(0.988045 0.0212522 3.95952e-21)
(0.988514 0.0221378 0)
(0.989028 0.0229937 0)
(0.989589 0.0238162 0)
(0.990193 0.0246032 0)
(0.990837 0.0253536 -7.55839e-21)
(0.991523 0.0260634 3.76382e-21)
(0.992245 0.0267314 0)