/*--------------------------------*- C++ -*----------------------------------*\
| =========                 |                                                 |
| \\      /  F ield         | OpenFOAM: The Open Source CFD Toolbox           |
|  \\    /   O peration     | Version:  2312                                  |
|   \\  /    A nd           | Website:  www.openfoam.com                      |
|    \\/     M anipulation  |                                                 |
\*---------------------------------------------------------------------------*/
FoamFile
{
    version     2.0;
    format      ascii;
    arch        "LSB;label=32;scalar=64";
    class       surfaceScalarField;
    location    "3.009213599345333";
    object      phi;
}
// * * * * * * * * * * * * * * * * * * * * * * * * * * * * * * * * * * * * * //

dimensions      [0 3 -1 0 0 0 0];

oriented        oriented;

internalField   nonuniform List<scalar> 
41713
(
0.00728351
0.0569629
0.0036594
0.0678705
0.00214117
0.0657647
0.00150022
0.0648874
0.00111771
0.0646289
0.00087085
0.0644933
0.000704453
0.0644128
0.000586484
0.0643644
0.00049972
0.0643332
0.000434127
0.064312
0.000383306
0.0642973
0.00034299
0.0642868
0.000310239
0.0642792
0.000282998
0.0642737
0.000259756
0.0642697
0.00023939
0.0642668
0.000221037
0.0642648
0.000204031
0.0642634
0.000187832
0.0642626
0.00017198
0.0642623
0.000155964
0.0642625
0.000139174
0.0642632
0.000121344
0.0642643
0.000104514
0.054828
8.85523e-05
0.0456919
7.36508e-05
0.0380782
6.02071e-05
0.0317329
4.82996e-05
0.0264448
0.0220381
3.75812e-05
0.00995179
0.0470111
0.00833393
0.0694884
0.00567816
0.0684204
0.00414429
0.0664212
0.00319149
0.0655818
0.00254539
0.0651394
0.00209152
0.0648667
0.00176414
0.0646918
0.00152259
0.0645747
0.00134064
0.064494
0.00120092
0.064437
0.0010916
0.0643961
0.00100447
0.0643663
0.000933646
0.0643445
0.000874768
0.0643286
0.000824524
0.064317
0.000780374
0.0643089
0.000740335
0.0643035
0.000702834
0.0643001
0.000666605
0.0642985
0.000630645
0.0642984
0.000594079
0.0642998
0.000555614
0.0643027
0.000519906
0.0548637
0.000487116
0.0457247
0.000457111
0.0381082
0.000429855
0.0317601
0.000405381
0.0264692
0.0220594
0.000384087
0.00845446
0.0385567
0.00946344
0.0684794
0.00728774
0.0705961
0.00559115
0.0681178
0.00445957
0.0667133
0.00362683
0.0659721
0.00299416
0.0654994
0.00250938
0.0651766
0.00213328
0.0649508
0.00183678
0.0647905
0.00159896
0.0646748
0.00140474
0.0645903
0.00124316
0.0645279
0.00110609
0.0644816
0.000987359
0.0644473
0.000882308
0.0644221
0.000787362
0.0644039
0.000699791
0.0643911
0.000617499
0.0643824
0.000538898
0.0643771
0.000462877
0.0643744
0.00038878
0.0643739
0.000315919
0.0643756
0.000253059
0.0549266
0.000199758
0.045778
0.000153963
0.038154
0.00011388
0.0318002
7.85859e-05
0.0265045
0.0220899
4.81042e-05
0.00655036
0.0320063
0.00901956
0.0660102
0.00767732
0.0719384
0.00607308
0.0697221
0.00493442
0.067852
0.00406648
0.0668401
0.00336697
0.0661989
0.00279698
0.0657466
0.00232841
0.0654194
0.00193868
0.0651802
0.00161008
0.0650034
0.00132884
0.0648715
0.00108426
0.0647725
0.000867954
0.0646979
0.00067347
0.0646418
0.000495832
0.0645997
0.000331238
0.0645685
0.00017682
0.0645455
3.04645e-05
0.0645288
-0.00010929
0.0645169
-0.000243354
0.0645085
-0.000372109
0.0645026
-0.000495815
0.0644993
-0.000598298
0.0550291
-0.000682357
0.0458621
-0.000752137
0.0382238
-0.000810754
0.0318588
-0.00086054
0.0265543
0.0221321
-0.000902734
0.00477965
0.0272267
0.00789943
0.0628904
0.00741815
0.0724197
0.00603788
0.0711023
0.00493333
0.0689565
0.00407715
0.0676962
0.00336581
0.0669102
0.00275993
0.0663524
0.00223809
0.0659413
0.00178397
0.0656343
0.0013844
0.065403
0.00102857
0.0652274
0.000707572
0.0650935
0.00041422
0.0649912
0.000142891
0.0649131
-0.000110745
0.0648534
-0.000349974
0.0648077
-0.000577252
0.0647727
-0.000794333
0.0647459
-0.00100236
0.0647249
-0.00120188
0.064708
-0.00139291
0.0646937
-0.00157532
0.0646817
-0.00172489
0.0551786
-0.00184572
0.0459829
-0.00194428
0.0383224
-0.00202556
0.0319401
-0.00209316
0.0266219
0.0221882
-0.00214931
0.00329041
0.0239363
0.00644217
0.0597387
0.00668542
0.0721764
0.00565489
0.0721329
0.00464509
0.0699663
0.00382662
0.0685147
0.00312761
0.0676092
0.00251056
0.0669695
0.00195888
0.0664929
0.00146104
0.0661322
0.00100753
0.0658565
0.000590239
0.0656447
0.000202341
0.0654814
-0.000161347
0.0653549
-0.000504946
0.0652567
-0.000831682
0.0651801
-0.00114408
0.0651201
-0.00144403
0.0650727
-0.00173278
0.0650346
-0.00201099
0.0650031
-0.00227874
0.0649758
-0.00253556
0.0649505
-0.00278076
0.0649269
-0.00298099
0.0553789
-0.00314161
0.0461435
-0.00327134
0.0384521
-0.00337699
0.0320458
-0.00346366
0.0267086
0.0222593
-0.00353476
0.00215192
0.0217843
0.00496044
0.0569302
0.0056673
0.0714696
0.00501079
0.0727894
0.00414813
0.070829
0.00339281
0.06927
0.00272326
0.0682788
0.0021102
0.0675825
0.0015424
0.0670607
0.00101296
0.0666616
0.000515651
0.0663538
4.51045e-05
0.0661152
-0.000402524
0.065929
-0.000830664
0.0657831
-0.00124194
0.065668
-0.00163857
0.0655767
-0.00202225
0.0655038
-0.00239414
0.0654446
-0.00275486
0.0653953
-0.00310447
0.0653527
-0.00344246
0.0653138
-0.00376766
0.0652757
-0.00407859
0.0652378
-0.00433209
0.0556324
-0.00453452
0.046346
-0.00469693
0.0386145
-0.0048281
0.0321769
-0.00493469
0.0268152
0.022346
-0.00502136
0.00133639
0.020448
0.00364688
0.0546197
0.00456766
0.0705488
0.00422265
0.0731344
0.00351772
0.0715339
0.00283356
0.0699542
0.00219926
0.0689131
0.00159693
0.0681849
0.00101975
0.0676379
0.000464451
0.0672169
-7.17161e-05
0.06689
-0.000590648
0.0666341
-0.00109395
0.0664323
-0.00158307
0.0662722
-0.00205948
0.0661444
-0.00252436
0.0660416
-0.0029785
0.0659579
-0.00342228
0.0658884
-0.00385558
0.0658286
-0.00427782
0.065775
-0.0046878
0.0657237
-0.00508358
0.0656715
-0.00546268
0.0656169
-0.00577155
0.0559412
-0.00601738
0.0465918
-0.0062136
0.0388107
-0.00637107
0.0323344
-0.00649811
0.0269422
0.0224486
-0.00660072
0.000770298
0.0196777
0.00255936
0.0528306
0.00351949
0.0695886
0.00339874
0.0732551
0.00283499
0.0720977
0.00221542
0.0705738
0.00161117
0.0695173
0.0010175
0.0687785
0.00043086
0.0682246
-0.000149244
0.067797
-0.00072208
0.0674628
-0.0012867
0.0671988
-0.00184286
0.0669885
-0.00239072
0.06682
-0.00293048
0.0666841
-0.0034622
0.0665733
-0.00398574
0.0664815
-0.00450066
0.0664033
-0.00500613
0.0663341
-0.00550089
0.0662697
-0.00598307
0.0662059
-0.0064499
0.0661383
-0.006898
0.066065
-0.00726316
0.0563064
-0.00755328
0.0468819
-0.00778409
0.0390415
-0.00796847
0.0325188
-0.00811636
0.0270901
0.0225674
-0.00823519
0.000388082
0.0192896
0.00169662
0.0515221
0.00259408
0.0686912
0.00262016
0.0732291
0.00217342
0.0725444
0.00160888
0.0711383
0.00102712
0.0700991
0.000436784
0.0693689
-0.000162131
0.0688235
-0.000767062
0.0684019
-0.00137458
0.0680703
-0.00198217
0.0678063
-0.00258831
0.0675946
-0.00319182
0.0674235
-0.00379169
0.067284
-0.00438696
0.0671686
-0.0049766
0.0670711
-0.00555936
0.066986
-0.00613373
0.0669085
-0.00669781
0.0668338
-0.00724915
0.0667573
-0.00778447
0.0666736
-0.00829989
0.0665804
-0.00872099
0.0567275
-0.009056
0.0472169
-0.00932248
0.039308
-0.00953492
0.0327312
-0.00970472
0.0272599
0.0227034
-0.00984071
0.00014179
0.0191478
0.00104422
0.0506196
0.00183245
0.067903
0.00194845
0.0731131
0.00159644
0.0728965
0.00107965
0.0716551
0.000515418
0.0706633
-7.52157e-05
0.0699595
-0.000687349
0.0694356
-0.0013155
0.0690301
-0.00195479
0.0687096
-0.0026016
0.0684532
-0.00325315
0.0682462
-0.0039071
0.0680775
-0.0045614
0.0679383
-0.00521418
0.0678214
-0.00586359
0.0677205
-0.00650769
0.0676301
-0.00714434
0.0675451
-0.00777115
0.0674606
-0.00838546
0.0673716
-0.00898419
0.0672724
-0.00956412
0.0671604
-0.0100415
0.0572049
-0.0104239
0.0475994
-0.0107296
0.0396136
-0.0109737
0.0329754
-0.0111687
0.027455
0.0228595
-0.0113248
-5.98207e-06
0.0191538
0.000579005
0.0500347
0.00124826
0.0672337
0.00141935
0.072942
0.00114618
0.0731696
0.000673001
0.0721283
0.000124106
0.0712122
-0.000467688
0.0705513
-0.00109178
0.0700597
-0.00174045
0.0696788
-0.00240769
0.0693768
-0.00308876
0.0691342
-0.00377978
0.0689372
-0.00447743
0.0687751
-0.00517882
0.0686397
-0.00588129
0.0685239
-0.00658229
0.0684215
-0.00727926
0.0683271
-0.00796964
0.0682355
-0.00865093
0.0681419
-0.00932098
0.0680416
-0.00997831
0.0679297
-0.0106224
0.0678044
-0.0111607
0.0577432
-0.0115982
0.0480369
-0.0119518
0.0399672
-0.0122359
0.0332595
-0.0124636
0.0276827
0.023042
-0.0126462
-7.4036e-05
0.0192278
0.000270514
0.0496901
0.000824935
0.0666793
0.00103054
0.0727364
0.000826009
0.0733742
0.000394723
0.0725596
-0.00013906
0.071746
-0.000731262
0.0711435
-0.00136533
0.0706938
-0.00203147
0.0703449
-0.00272244
0.0700678
-0.00343246
0.0698442
-0.00415675
0.0696615
-0.00489124
0.0695096
-0.00563231
0.0693808
-0.00637663
0.0692682
-0.00712104
0.0691659
-0.00786255
0.0690686
-0.0085984
0.0689714
-0.00932657
0.0688701
-0.0100467
0.0687618
-0.0107611
0.0686441
-0.0114747
0.0685181
-0.0120863
0.0583547
-0.0125946
0.0485452
-0.0130119
0.0403845
-0.0133506
0.0335982
-0.0136234
0.0279554
0.0232615
-0.0138429
-9.69332e-05
0.0193247
7.66478e-05
0.0495165
0.00052075
0.0662352
0.000742796
0.0725143
0.000597205
0.0735197
0.000206772
0.07295
-0.000310513
0.0722633
-0.000901021
0.071734
-0.00154231
0.0713351
-0.00222226
0.0710249
-0.00293238
0.0707779
-0.00366606
0.0705779
-0.00441787
0.0704133
-0.00518313
0.0702749
-0.00595761
0.0701553
-0.00673735
0.0700479
-0.00751859
0.0699472
-0.00829787
0.0698479
-0.00907247
0.069746
-0.0098415
0.0696391
-0.0106079
0.0695281
-0.0113801
0.0694163
-0.0121727
0.0693107
-0.0128757
0.0590577
-0.0134775
0.0491471
-0.0139819
0.0408888
-0.0143959
0.0340122
-0.0147312
0.0282907
0.0235326
-0.0150023
-9.07858e-05
0.0194155
-3.71867e-05
0.0494629
0.000294295
0.0659037
0.000506263
0.0723024
0.000402439
0.0736236
4.89008e-05
0.0733035
-0.000449712
0.0727619
-0.00103391
0.0723182
-0.00167693
0.0719781
-0.00236456
0.0717125
-0.0030873
0.0715006
-0.00383798
0.0713286
-0.00461073
0.071186
-0.00540038
0.0710645
-0.0062021
0.070957
-0.00701118
0.070857
-0.007823
0.070759
-0.00863335
0.0706583
-0.00943927
0.0705519
-0.0102412
0.070441
-0.0110464
0.0703333
-0.0118725
0.0702424
-0.0127486
0.0701868
-0.0135616
0.0598707
-0.0142875
0.049873
-0.0149147
0.041516
-0.0154376
0.0345352
-0.0158616
0.0287147
0.0238731
-0.0162021
-5.95703e-05
0.0194751
-8.19641e-05
0.0494853
0.000105651
0.0657161
0.000252561
0.0721554
0.000179792
0.0736963
-9.57446e-05
0.0735791
-0.000499996
0.0731662
-0.000983389
0.0728016
-0.00152191
0.0725166
-0.00210272
0.0722933
-0.00271752
0.0721155
-0.00336021
0.0719713
-0.00402579
0.0718516
-0.00470977
0.0717485
-0.00540772
0.0716549
-0.00611507
0.0715643
-0.006827
0.0714709
-0.00753873
0.07137
-0.00824657
0.0712597
-0.00895055
0.071145
-0.00965861
0.0710414
-0.0103914
0.0709752
-0.0111859
0.0709812
-0.0119545
0.0606393
-0.0126748
0.0505933
-0.0133236
0.0421647
-0.0138801
0.0350917
-0.0143382
0.0291729
0.0242462
-0.0147113
-3.54829e-05
0.0195106
-8.71098e-05
0.0495369
3.50322e-06
0.0656255
8.95928e-05
0.0720694
2.64777e-05
0.0737595
-0.000191858
0.0737974
-0.000516491
0.0734908
-0.000909841
0.073195
-0.00135241
0.0729592
-0.00183365
0.0727746
-0.00234695
0.0726287
-0.00288752
0.0725119
-0.00345147
0.0724156
-0.00403526
0.0723323
-0.00463523
0.0722549
-0.00524729
0.0721764
-0.00586675
0.0720904
-0.00648843
0.0719917
-0.0071075
0.0718788
-0.00772195
0.0717595
-0.00833674
0.0716561
-0.00896946
0.0716079
-0.00965631
0.0716681
-0.0103383
0.0613213
-0.0110117
0.0512668
-0.0116577
0.0428107
-0.012253
0.0356869
-0.0127717
0.0296917
0.0246554
-0.0131809
-1.91048e-05
0.0195297
-7.79689e-05
0.0495958
-4.75266e-05
0.065595
-8.23317e-06
0.0720301
-6.86578e-05
0.0738199
-0.000244732
0.0739735
-0.000505608
0.0737517
-0.000824325
0.0735137
-0.00118594
0.0733208
-0.00158229
0.0731709
-0.00200832
0.0730548
-0.00246049
0.072964
-0.00293602
0.0728911
-0.00343234
0.0728286
-0.00394671
0.0727693
-0.00447578
0.0727055
-0.00501532
0.0726299
-0.00556014
0.0725365
-0.00610445
0.0724231
-0.00664379
0.0722988
-0.00717814
0.0721905
-0.00771697
0.0721468
-0.00828565
0.0722368
-0.00884623
0.0618819
-0.00942442
0.051845
-0.01002
0.0434063
-0.0105969
0.0362637
-0.0111371
0.0302319
0.0252244
-0.0117062
-1.00922e-05
0.0195398
-6.23525e-05
0.0496481
-6.48477e-05
0.0655975
-5.7533e-05
0.0720227
-0.000117768
0.0738801
-0.000262276
0.074118
-0.000472676
0.0739621
-0.00073068
0.0737717
-0.00102547
0.0736156
-0.00135097
0.0734964
-0.0017035
0.0734073
-0.0020806
0.0733411
-0.00248044
0.0732909
-0.00290136
0.0732496
-0.00334157
0.0732095
-0.00379871
0.0731626
-0.00426939
0.0731006
-0.0047491
0.0730162
-0.00523211
0.0729061
-0.00571393
0.0727806
-0.00618946
0.072666
-0.00666217
0.0726195
-0.00714948
0.0727241
-0.00762471
0.0623571
-0.00811384
0.0523341
-0.00864437
0.0439368
-0.00913716
0.0367565
-0.00957129
0.0306661
-0.00980355
0.0254567
7.41123e-05
0.0219908
0.000108009
0.0219935
0.000132924
0.0220024
0.000155558
0.0220047
0.000172411
0.0220105
0.000184798
0.022015
0.000194262
0.0220179
0.000197478
0.0220241
0.000198835
0.022026
0.00019528
0.0220309
0.000188807
0.0220338
0.00017998
0.0220362
0.000166838
0.0220405
0.000152297
0.0220419
0.000134664
0.022045
0.000114909
0.0220471
9.40354e-05
0.0220482
7.0329e-05
0.0220511
4.57777e-05
0.0220519
2.01937e-05
0.0220529
-6.78888e-06
0.0220543
-3.41656e-05
0.0220547
-6.20148e-05
0.0220552
-9.02007e-05
0.0220555
-0.000118281
0.0220554
-0.000146104
0.0220552
-0.000173318
0.0220546
-0.000199875
0.0220539
-0.000225473
0.022053
-0.000249506
0.0220514
-0.000272417
0.0220503
-0.00029342
0.0220484
-0.000312211
0.0220461
-0.000329516
0.0220447
-0.000343377
0.0220412
-0.000355057
0.022039
-0.000364258
0.0220366
-0.000369135
0.0220322
-0.000372013
0.0220302
-0.000370069
0.0220254
-0.000364775
0.0220221
-0.000356161
0.0220187
-0.000341596
0.0220128
-0.000324651
0.0220104
-0.000300839
0.0220035
-0.000273375
0.0219999
-0.000240906
0.0219949
-0.000201902
0.0219884
0.0219857
-0.000160233
0.000410641
0.0219643
0.00043466
0.0219694
0.000449616
0.0219875
0.000462206
0.0219921
0.000468937
0.0220038
0.000471134
0.0220128
0.000470329
0.0220187
0.000463179
0.0220313
0.000454091
0.0220351
0.000439984
0.022045
0.000422867
0.0220509
0.000403306
0.0220557
0.000379325
0.0220645
0.000353864
0.0220674
0.000325211
0.0220736
0.000294353
0.022078
0.000262306
0.0220803
0.000227334
0.022086
0.000191459
0.0220878
0.000154492
0.0220899
0.000116056
0.0220928
7.71903e-05
0.0220936
3.78141e-05
0.0220946
-1.93775e-06
0.0220953
-4.15936e-05
0.0220951
-8.10001e-05
0.0220946
-0.000119812
0.0220934
-0.000157945
0.022092
-0.000195097
0.0220901
-0.000230664
0.022087
-0.000265053
0.0220847
-0.000297483
0.0220808
-0.000327644
0.0220763
-0.000356222
0.0220732
-0.000381271
0.0220663
-0.00040402
0.0220618
-0.000424162
0.0220567
-0.000439863
0.0220479
-0.000453393
0.0220438
-0.00046196
0.022034
-0.000467002
0.0220271
-0.000468544
0.0220203
-0.000463977
0.0220082
-0.000456819
0.0220033
-0.000442624
0.0219893
-0.000424577
0.0219818
-0.000401351
0.0219717
-0.000371454
0.0219585
0.0219529
-0.0003387
6.95244e-05
0.0219429
8.84326e-05
0.0219505
9.81521e-05
0.0219778
0.00010562
0.0219847
0.000107192
0.0220022
0.000104204
0.0220158
9.82357e-05
0.0220247
8.5803e-05
0.0220437
7.14767e-05
0.0220494
5.20479e-05
0.0220644
2.95854e-05
0.0220734
4.66977e-06
0.0220807
-2.47947e-05
0.0220939
-5.57103e-05
0.0220983
-8.98922e-05
0.0221078
-0.000126315
0.0221144
-0.000163887
0.0221178
-0.000204522
0.0221267
-0.000246016
0.0221293
-0.000288581
0.0221325
-0.000332669
0.0221369
-0.000377105
0.022138
-0.000422006
0.0221395
-0.000467273
0.0221406
-0.000512329
0.0221401
-0.000557038
0.0221393
-0.000601107
0.0221375
-0.000644334
0.0221353
-0.000686439
0.0221322
-0.000726872
0.0221274
-0.000765916
0.0221237
-0.000802858
0.0221177
-0.000837375
0.0221108
-0.000870065
0.0221059
-0.00089913
0.0220953
-0.000925673
0.0220883
-0.00094939
0.0220804
-0.000968539
0.0220671
-0.000985261
0.0220605
-0.000996886
0.0220456
-0.00100478
0.022035
-0.00100897
0.0220245
-0.00100693
0.0220062
-0.00100208
0.0219984
-0.000990103
0.0219774
-0.000974108
0.0219658
-0.000952816
0.0219504
-0.000924804
0.0219304
0.021922
-0.000893881
-0.000886413
0.0219265
-0.000872206
0.0219363
-0.000867037
0.0219726
-0.000863733
0.0219814
-0.0008661
0.0220046
-0.000872734
0.0220224
-0.000881979
0.0220339
-0.000897536
0.0220593
-0.000914577
0.0220665
-0.000936548
0.0220864
-0.000961239
0.0220981
-0.000988036
0.0221075
-0.00101922
0.0221251
-0.00105146
0.0221305
-0.00108676
0.0221431
-0.00112401
0.0221516
-0.00116202
0.0221559
-0.00120296
0.0221676
-0.00124436
0.0221707
-0.00128651
0.0221746
-0.00132999
0.0221803
-0.00137343
0.0221815
-0.00141705
0.0221831
-0.00146081
0.0221843
-0.001504
0.0221833
-0.00154654
0.0221818
-0.00158823
0.0221791
-0.00162872
0.0221758
-0.00166779
0.0221713
-0.00170497
0.0221646
-0.00174041
0.0221591
-0.00177349
0.0221508
-0.0018039
0.0221412
-0.00183213
0.0221342
-0.00185657
0.0221198
-0.00187819
0.0221099
-0.00189669
0.0220989
-0.00191048
0.0220809
-0.00192151
0.0220715
-0.00192732
0.0220514
-0.00192916
0.0220368
-0.00192707
0.0220224
-0.00191866
0.0219978
-0.00190717
0.0219869
-0.00188851
0.0219587
-0.00186566
0.021943
-0.00183739
0.0219221
-0.00180235
0.0218954
0.0218839
-0.00176427
-0.00213921
0.0219164
-0.00213057
0.0219277
-0.00213063
0.0219727
-0.0021319
0.0219826
-0.00213838
0.0220111
-0.00214863
0.0220326
-0.00216091
0.0220462
-0.00217915
0.0220775
-0.00219824
0.0220855
-0.00222185
0.02211
-0.00224766
0.0221239
-0.00227501
0.0221348
-0.00230639
0.0221565
-0.00233821
0.0221623
-0.00237267
0.0221776
-0.0024086
0.0221876
-0.00244468
0.0221919
-0.0024834
0.0222063
-0.00252201
0.0222093
-0.00256085
0.0222135
-0.00260066
0.0222202
-0.0026399
0.0222207
-0.00267884
0.022222
-0.00271756
0.022223
-0.0027552
0.022221
-0.00279173
0.0222184
-0.00282708
0.0222145
-0.00286073
0.0222094
-0.00289254
0.0222031
-0.00292216
0.0221942
-0.00294955
0.0221865
-0.00297425
0.0221755
-0.00299595
0.0221629
-0.00301502
0.0221532
-0.00303009
0.0221348
-0.00304195
0.0221218
-0.00305035
0.0221073
-0.00305385
0.0220844
-0.00305421
0.0220719
-0.00304917
0.0220464
-0.0030399
0.0220276
-0.00302641
0.0220089
-0.00300648
0.0219779
-0.00298317
0.0219636
-0.0029526
0.0219282
-0.00291759
0.021908
-0.00287699
0.0218815
-0.0028295
0.0218479
0.0218332
-0.00277876
-0.00353151
0.0219132
-0.00352894
0.0219251
-0.0035347
0.0219784
-0.00354092
0.0219888
-0.00355185
0.022022
-0.00356595
0.0220468
-0.00358142
0.0220617
-0.00360242
0.0220985
-0.00362355
0.0221067
-0.00364873
0.0221352
-0.00367547
0.0221507
-0.00370311
0.0221624
-0.00373435
0.0221877
-0.00376529
0.0221933
-0.00379837
0.0222107
-0.00383233
0.0222215
-0.00386575
0.0222254
-0.00390141
0.022242
-0.00393626
0.0222441
-0.00397074
0.0222479
-0.00400573
0.0222552
-0.00403948
0.0222545
-0.00407237
0.0222549
-0.00410456
0.0222552
-0.00413504
0.0222515
-0.00416385
0.0222472
-0.00419106
0.0222417
-0.00421597
0.0222343
-0.00423851
0.0222256
-0.00425845
0.0222141
-0.00427559
0.0222037
-0.00428961
0.0221895
-0.00430022
0.0221736
-0.00430765
0.0221607
-0.0043108
0.022138
-0.00431028
0.0221213
-0.00430589
0.0221029
-0.00429633
0.0220748
-0.00428319
0.0220587
-0.00426441
0.0220276
-0.00424106
0.0220042
-0.00421317
0.021981
-0.00417868
0.0219434
-0.00414044
0.0219254
-0.00409481
0.0218825
-0.00404444
0.0218576
-0.00398826
0.0218253
-0.00392504
0.0217847
0.0217664
-0.0038583
-0.00502495
0.0219168
-0.00502845
0.0219286
-0.00503989
0.0219899
-0.00505104
0.022
-0.00506637
0.0220373
-0.00508428
0.0220647
-0.00510285
0.0220802
-0.00512652
0.0221222
-0.00514954
0.0221297
-0.00517611
0.0221618
-0.00520359
0.0221781
-0.00523124
0.0221901
-0.00526199
0.0222185
-0.00529167
0.0222229
-0.00532291
0.0222419
-0.00535437
0.022253
-0.00538448
0.0222555
-0.00541636
0.0222739
-0.00544665
0.0222744
-0.00547584
0.0222771
-0.00550499
0.0222843
-0.00553211
0.0222816
-0.0055577
0.0222805
-0.005582
0.0222795
-0.00560385
0.0222733
-0.00562335
0.0222667
-0.0056407
0.0222591
-0.00565502
0.0222486
-0.00566633
0.0222369
-0.00567454
0.0222223
-0.00567924
0.0222084
-0.0056803
0.0221906
-0.00567741
0.0221707
-0.00567071
0.0221539
-0.00565934
0.0221266
-0.00564374
0.0221057
-0.00562376
0.0220829
-0.00559829
0.0220493
-0.00556868
0.0220291
-0.00553315
0.0219921
-0.00549264
0.0219637
-0.0054472
0.0219356
-0.00539494
0.0218911
-0.00533851
0.0218689
-0.00527452
0.0218185
-0.00520547
0.0217886
-0.00513035
0.0217502
-0.00504802
0.0217024
0.0216804
-0.00496193
-0.00661107
0.0219271
-0.00662052
0.0219381
-0.00663753
0.0220069
-0.00665346
0.0220159
-0.00667302
0.0220569
-0.00669452
0.0220862
-0.00671593
0.0221016
-0.00674196
0.0221482
-0.00676649
0.0221542
-0.00679401
0.0221893
-0.00682168
0.0222058
-0.00684873
0.0222171
-0.00687831
0.0222481
-0.00690591
0.0222505
-0.0069344
0.0222704
-0.00696231
0.0222809
-0.00698796
0.0222811
-0.00701476
0.0223007
-0.00703904
0.0222987
-0.00706135
0.0222994
-0.00708292
0.0223059
-0.00710152
0.0223002
-0.00711775
0.0222967
-0.00713194
0.0222937
-0.00714276
0.0222841
-0.0071504
0.0222743
-0.00715518
0.0222638
-0.00715605
0.0222495
-0.00715311
0.022234
-0.0071464
0.0222156
-0.00713534
0.0221973
-0.00711995
0.0221752
-0.00709997
0.0221507
-0.00707539
0.0221294
-0.00704564
0.0220969
-0.00701101
0.0220711
-0.00697138
0.0220433
-0.00692582
0.0220038
-0.00687552
0.0219788
-0.00681893
0.0219355
-0.0067569
0.0219017
-0.00668951
0.0218682
-0.00661503
0.0218166
-0.00653595
0.0217898
-0.00644913
0.0217317
-0.00635692
0.0216964
-0.00625841
0.0216517
-0.00615257
0.0215965
0.0215705
-0.00604276
-0.00825292
0.0219449
-0.00826889
0.021954
-0.00829199
0.02203
-0.00831315
0.0220371
-0.0083373
0.022081
-0.00836267
0.0221115
-0.0083871
0.0221261
-0.00841555
0.0221767
-0.00844155
0.0221802
-0.00846982
0.0222176
-0.00849737
0.0222334
-0.00852335
0.0222431
-0.00855111
0.0222759
-0.00857582
0.0222752
-0.00860055
0.0222951
-0.00862372
0.0223041
-0.00864351
0.0223009
-0.00866362
0.0223208
-0.00868007
0.0223152
-0.00869345
0.0223128
-0.00870515
0.0223176
-0.00871272
0.0223078
-0.00871684
0.0223009
-0.00871794
0.0222948
-0.00871453
0.0222807
-0.00870689
0.0222667
-0.00869544
0.0222524
-0.008679
0.0222331
-0.00865776
0.0222128
-0.00863188
0.0221898
-0.00860065
0.0221661
-0.00856425
0.0221388
-0.00852245
0.0221089
-0.00847518
0.0220821
-0.00842211
0.0220438
-0.0083634
0.0220123
-0.00829901
0.0219789
-0.00822822
0.021933
-0.00815204
0.0219027
-0.00806918
0.0218526
-0.00798041
0.0218129
-0.00788585
0.0217736
-0.00778397
0.0217148
-0.00767708
0.0216829
-0.00756229
0.0216169
-0.00744182
0.0215759
-0.00731487
0.0215247
-0.00718052
0.0214622
0.0214321
-0.00704208
-0.00986806
0.0219722
-0.00989277
0.0219787
-0.00992407
0.0220613
-0.00995251
0.0220655
-0.00998319
0.0221117
-0.0100142
0.0221426
-0.0100433
0.0221552
-0.0100757
0.022209
-0.0101045
0.022209
-0.0101347
0.0222477
-0.010163
0.0222617
-0.0101886
0.0222687
-0.0102151
0.0223023
-0.0102371
0.0222973
-0.0102581
0.0223161
-0.0102762
0.0223222
-0.0102896
0.0223143
-0.0103021
0.0223333
-0.0103096
0.0223226
-0.0103126
0.0223158
-0.0103127
0.0223176
-0.0103072
0.0223022
-0.0102968
0.0222905
-0.0102822
0.0222802
-0.0102616
0.0222602
-0.0102355
0.0222405
-0.0102044
0.0222213
-0.010167
0.0221956
-0.0101235
0.0221693
-0.0100744
0.0221406
-0.0100187
0.0221104
-0.00995689
0.022077
-0.00988877
0.0220408
-0.0098142
0.0220075
-0.00973315
0.0219628
-0.0096457
0.0219249
-0.00955189
0.0218851
-0.0094512
0.0218323
-0.00934454
0.021796
-0.00923083
0.0217389
-0.00911083
0.0216929
-0.00898468
0.0216475
-0.00885101
0.0215811
-0.00871198
0.0215439
-0.00856492
0.0214699
-0.00841194
0.0214229
-0.00825231
0.0213651
-0.00808522
0.0212951
0.0212609
-0.00791399
-0.0113661
0.0220135
-0.0114039
0.0220165
-0.0114477
0.0221051
-0.0114877
0.0221055
-0.0115291
0.0221531
-0.01157
0.0221834
-0.0116078
0.022193
-0.0116479
0.0222492
-0.0116832
0.0222443
-0.0117188
0.0222833
-0.0117513
0.0222942
-0.0117797
0.0222971
-0.0118076
0.0223302
-0.0118296
0.0223193
-0.0118491
0.0223356
-0.0118642
0.0223373
-0.0118728
0.0223229
-0.0118791
0.0223396
-0.0118786
0.0223221
-0.0118719
0.0223091
-0.0118605
0.0223063
-0.0118418
0.0222835
-0.0118165
0.0222653
-0.0117853
0.022249
-0.0117465
0.0222213
-0.0117004
0.0221945
-0.0116478
0.0221687
-0.0115873
0.0221352
-0.0115194
0.0221014
-0.0114445
0.0220657
-0.0113618
0.0220277
-0.0112717
0.021987
-0.0111744
0.0219435
-0.0110697
0.0219028
-0.0109578
0.0218508
-0.0108387
0.0218058
-0.0107127
0.0217591
-0.0105793
0.021699
-0.0104396
0.0216562
-0.0102925
0.0215918
-0.0101388
0.0215392
-0.00997871
0.0214874
-0.00981093
0.0214133
-0.00963743
0.0213704
-0.00945577
0.0212882
-0.00926787
0.021235
-0.00907309
0.0211703
-0.00887075
0.0210927
0.0210543
-0.00866415
-0.0127081
0.0220754
-0.0127657
0.0220742
-0.0128289
0.0221683
-0.0128873
0.022164
-0.0129464
0.0222121
-0.0130039
0.0222409
-0.0130574
0.0222464
-0.0131122
0.022304
-0.0131608
0.022293
-0.0132085
0.022331
-0.0132517
0.0223374
-0.0132892
0.0223346
-0.0133247
0.0223658
-0.0133526
0.0223472
-0.0133761
0.0223591
-0.0133934
0.0223546
-0.0134022
0.0223317
-0.0134067
0.0223442
-0.0134022
0.0223175
-0.0133893
0.0222962
-0.0133696
0.0222867
-0.0133403
0.0222542
-0.0133022
0.0222272
-0.0132561
0.0222028
-0.0132
0.0221653
-0.0131347
0.0221291
-0.0130609
0.0220949
-0.0129773
0.0220515
-0.0128844
0.0220085
-0.012783
0.0219643
-0.0126721
0.0219168
-0.0125527
0.0218675
-0.0124248
0.0218156
-0.0122883
0.0217663
-0.012144
0.0217065
-0.0119917
0.0216536
-0.011832
0.0215993
-0.0116646
0.0215316
-0.0114903
0.0214819
-0.0113085
0.0214101
-0.0111198
0.0213506
-0.0109245
0.021292
-0.0107213
0.0212101
-0.0105119
0.0211611
-0.0102942
0.0210705
-0.0100699
0.0210107
-0.00983832
0.0209388
-0.00959905
0.0208535
0.0208106
-0.00935536
-0.0139338
0.0221663
-0.0140197
0.0221601
-0.0141111
0.0222597
-0.0141971
0.02225
-0.0142832
0.0222982
-0.014367
0.0223248
-0.0144457
0.0223251
-0.014525
0.0223833
-0.0145967
0.0223647
-0.0146664
0.0224007
-0.0147301
0.022401
-0.0147864
0.0223909
-0.0148391
0.0224185
-0.0148821
0.0223901
-0.0149187
0.0223957
-0.0149467
0.0223827
-0.0149636
0.0223486
-0.014974
0.0223545
-0.0149724
0.0223159
-0.0149594
0.0222832
-0.0149371
0.0222643
-0.0149019
0.022219
-0.0148549
0.0221802
-0.0147969
0.0221448
-0.014726
0.0220943
-0.0146428
0.0220459
-0.0145486
0.0220007
-0.0144417
0.0219447
-0.0143231
0.0218899
-0.0141938
0.021835
-0.0140529
0.0217759
-0.0139016
0.0217163
-0.0137403
0.0216543
-0.013569
0.021595
-0.0133888
0.0215263
-0.0131998
0.0214646
-0.0130025
0.021402
-0.0127973
0.0213264
-0.0125846
0.0212692
-0.0123642
0.0211898
-0.0121368
0.0211231
-0.0119023
0.0210575
-0.0116599
0.0209677
-0.0114109
0.0209121
-0.0111534
0.020813
-0.0108889
0.0207461
-0.0106169
0.0206668
-0.0103373
0.0205739
0.0205266
-0.0100533
-0.0151331
0.0222971
-0.0152583
0.0222853
-0.0153891
0.0223905
-0.0155138
0.0223747
-0.0156382
0.0224227
-0.0157598
0.0224464
-0.0158754
0.0224407
-0.015991
0.0224988
-0.0160978
0.0224715
-0.0162015
0.0225044
-0.0162978
0.0224973
-0.016385
0.0224781
-0.0164671
0.0225006
-0.016537
0.02246
-0.0165983
0.022457
-0.0166483
0.0224327
-0.0166838
0.0223841
-0.0167097
0.0223804
-0.0167198
0.022326
-0.0167145
0.022278
-0.0166958
0.0222456
-0.0166598
0.0221829
-0.0166074
0.0221278
-0.0165397
0.0220771
-0.0164545
0.0220091
-0.0163525
0.021944
-0.0162354
0.0218836
-0.0161014
0.0218107
-0.0159519
0.0217404
-0.0157883
0.0216714
-0.0156098
0.0215974
-0.0154181
0.0215246
-0.0152141
0.0214503
-0.0149977
0.0213786
-0.0147711
0.0212997
-0.0145342
0.0212277
-0.014288
0.0211557
-0.0140333
0.0210717
-0.0137706
0.0210065
-0.0135002
0.0209194
-0.0132226
0.0208455
-0.0129379
0.0207729
-0.0126458
0.0206755
-0.0123471
0.0206134
-0.0120404
0.0205063
-0.0117269
0.0204327
-0.0114066
0.0203465
-0.0110793
0.0202466
0.0201958
-0.0107485
-0.0163839
0.0224789
-0.0165591
0.0224606
-0.0167412
0.0225725
-0.0169173
0.0225508
-0.0170931
0.0225985
-0.0172654
0.0226186
-0.0174306
0.0226059
-0.017595
0.0226633
-0.0177495
0.022626
-0.0179002
0.0226552
-0.0180426
0.0226397
-0.0181747
0.0226103
-0.0183006
0.0226265
-0.0184122
0.0225716
-0.018513
0.0225578
-0.0185993
0.022519
-0.0186672
0.022452
-0.0187213
0.0224345
-0.018754
0.0223588
-0.0187655
0.0222895
-0.0187574
0.0222375
-0.018725
0.0221505
-0.0186691
0.0220719
-0.0185907
0.0219988
-0.0184873
0.0219057
-0.01836
0.0218166
-0.0182108
0.0217344
-0.0180379
0.0216379
-0.0178433
0.0215457
-0.0176292
0.0214573
-0.0173947
0.0213629
-0.0171427
0.0212726
-0.0168745
0.0211821
-0.0165906
0.0210947
-0.016294
0.0210032
-0.0159851
0.0209188
-0.0156655
0.0208361
-0.015337
0.0207432
-0.0150001
0.0206696
-0.0146561
0.0205754
-0.0143057
0.0204951
-0.0139496
0.0204167
-0.0135876
0.0203136
-0.0132209
0.0202466
-0.0128483
0.0201338
-0.0124712
0.0200556
-0.0120894
0.0199648
-0.0117034
0.0198605
0.019809
-0.0113166
-0.0149322
0.0226997
-0.0151432
0.0226716
-0.0153533
0.0227826
-0.0155506
0.0227481
-0.0157419
0.0227898
-0.0159262
0.0228029
-0.0161025
0.0227821
-0.0162781
0.0228389
-0.0164463
0.0227943
-0.0166134
0.0228223
-0.0167756
0.0228019
-0.016931
0.0227657
-0.0170827
0.0227782
-0.0172228
0.0227116
-0.017353
0.0226881
-0.0174692
0.0226352
-0.0175663
0.0225491
-0.0176474
0.0225156
-0.0177046
0.0224159
-0.0177367
0.0223216
-0.0177446
0.0222454
-0.0177231
0.0221289
-0.0176726
0.0220215
-0.017594
0.0219202
-0.0174846
0.0217963
-0.0173458
0.0216778
-0.0171799
0.0215684
-0.0169856
0.0214435
-0.0167652
0.0213254
-0.0165218
0.0212138
-0.016255
0.0210961
-0.0159681
0.0209857
-0.0156631
0.020877
-0.0153409
0.0207725
-0.0150056
0.0206678
-0.0146579
0.0205711
-0.0143001
0.0204784
-0.0139349
0.020378
-0.0135632
0.0202978
-0.0131872
0.0201994
-0.012808
0.0201159
-0.0124271
0.0200357
-0.0120452
0.0199317
-0.0116637
0.0198652
-0.0112826
0.0197527
-0.0109031
0.0196761
-0.0105251
0.0195868
-0.0101479
0.0194833
0.0194347
-0.00977362
-0.0133717
0.0228905
-0.0135836
0.0228835
-0.0138061
0.0230051
-0.014011
0.022953
-0.0141991
0.0229778
-0.0143715
0.0229753
-0.0145324
0.022943
-0.014693
0.0229996
-0.0148513
0.0229526
-0.0150148
0.0229858
-0.0151811
0.0229682
-0.0153484
0.022933