/*--------------------------------*- C++ -*----------------------------------*\
| =========                 |                                                 |
| \\      /  F ield         | OpenFOAM: The Open Source CFD Toolbox           |
|  \\    /   O peration     | Version:  2312                                  |
|   \\  /    A nd           | Website:  www.openfoam.com                      |
|    \\/     M anipulation  |                                                 |
\*---------------------------------------------------------------------------*/
FoamFile
{
    version     2.0;
    format      ascii;
    arch        "LSB;label=32;scalar=64";
    class       surfaceScalarField;
    location    "54.363751773286687";
    object      phi;
}
// * * * * * * * * * * * * * * * * * * * * * * * * * * * * * * * * * * * * * //

dimensions      [0 3 -1 0 0 0 0];

oriented        oriented;

internalField   nonuniform List<scalar> 
41713
(
0.007367
0.0568794
0.00363042
0.067983
0.00211942
0.0657574
0.00148799
0.0648779
0.00110314
0.0646313
0.000849873
0.0644997
0.000675655
0.0644207
0.000549575
0.0643725
0.000455028
0.064341
0.000382362
0.0643191
0.000325453
0.0643033
0.000280248
0.0642916
0.000243979
0.0642827
0.000214704
0.0642757
0.000191028
0.0642701
0.000171925
0.0642655
0.000156625
0.0642617
0.000144538
0.0642585
0.000135198
0.0642558
0.000128213
0.0642534
0.00012321
0.0642514
0.000119818
0.0642498
0.000117738
0.0642485
0.000116469
0.0548124
0.000115352
0.0456771
0.000114204
0.0380645
0.000113056
0.0317206
0.000111955
0.026434
0.0220284
0.000110896
0.00999811
0.0468813
0.00843601
0.0695451
0.0057262
0.0684672
0.00413483
0.0664692
0.0031369
0.0656292
0.00244846
0.0651881
0.00195366
0.0649155
0.00158706
0.0647391
0.00130837
0.0646197
0.00109179
0.0645357
0.000920391
0.0644747
0.000782784
0.0644292
0.000671121
0.0643944
0.000579858
0.064367
0.000504997
0.064345
0.000443607
0.0643269
0.0003935
0.0643118
0.000353015
0.064299
0.000320865
0.0642879
0.000296025
0.0642783
0.00027765
0.0642698
0.000264993
0.0642625
0.000257297
0.0642562
0.000253719
0.054816
0.000252231
0.0456786
0.000251618
0.0380651
0.000251214
0.031721
0.000250735
0.0264344
0.0220289
0.000250252
0.00860104
0.0382803
0.00971956
0.0684266
0.00748594
0.0707009
0.0057208
0.0682344
0.00453694
0.0668131
0.00365648
0.0660686
0.00297907
0.0655929
0.00245309
0.0652651
0.0020399
0.0650329
0.00171091
0.0648647
0.0014457
0.06474
0.00122965
0.0646453
0.0010522
0.0645718
0.000905648
0.0645135
0.00078431
0.0644663
0.000683954
0.0644273
0.000601388
0.0643944
0.000534176
0.0643662
0.000480431
0.0643417
0.00043867
0.06432
0.000407691
0.0643008
0.000386479
0.0642837
0.000374006
0.0642687
0.000368952
0.0548211
0.000367762
0.0456798
0.000368189
0.0380646
0.000368982
0.0317202
0.000369602
0.0264338
0.0220285
0.00037007
0.00677935
0.0315009
0.00948738
0.0657186
0.00813949
0.0720488
0.00646535
0.0699085
0.00528049
0.0679979
0.00438176
0.0669673
0.00365741
0.0663172
0.00306803
0.0658545
0.00258646
0.0655144
0.0021907
0.0652604
0.00186346
0.0650672
0.00159137
0.0649174
0.00136412
0.0647991
0.00117383
0.0647038
0.00101443
0.0646257
0.000881301
0.0645604
0.000770862
0.0645048
0.00068035
0.0644567
0.000607609
0.0644144
0.000550936
0.0643767
0.000508959
0.0643428
0.00048052
0.0643121
0.000464356
0.0642848
0.000458583
0.0548268
0.000458198
0.0456802
0.000460019
0.0380628
0.000462308
0.0317179
0.000464362
0.0264318
0.0220266
0.000466169
0.00506856
0.0264324
0.00858075
0.0622064
0.00820092
0.0724286
0.00676463
0.0713448
0.00561683
0.0691457
0.00474894
0.0678352
0.00403935
0.0670268
0.00344411
0.0664497
0.00294227
0.0660163
0.00251791
0.0656848
0.0021581
0.065427
0.00185234
0.0652232
0.00159216
0.0650592
0.0013708
0.0649252
0.00118288
0.0648136
0.00102414
0.0647192
0.000891216
0.0646378
0.000781462
0.0645665
0.000692796
0.0645031
0.00062356
0.0644459
0.000572412
0.0643939
0.000538196
0.0643464
0.000519535
0.0643035
0.000513966
0.0548324
0.00051514
0.045679
0.000519014
0.038059
0.000523419
0.0317135
0.000527488
0.0264277
0.022023
0.000531159
0.00362071
0.0228117
0.00731939
0.0585077
0.00780018
0.0719478
0.0067505
0.0723945
0.00569844
0.0701978
0.00488201
0.0686517
0.00421035
0.0676985
0.00363504
0.067025
0.00313818
0.0665131
0.00270824
0.0661147
0.00233574
0.0657995
0.00201287
0.065546
0.00173318
0.0653389
0.00149143
0.0651669
0.00128334
0.0650217
0.00110545
0.0648971
0.000954986
0.0647882
0.000829754
0.0646917
0.00072801
0.0646048
0.000648374
0.0645256
0.000589729
0.0644526
0.000551084
0.064385
0.000531107
0.0643235
0.000526733
0.0548368
0.000530335
0.0456754
0.000537057
0.0380522
0.00054432
0.0317062
0.000551091
0.0264209
0.0220168
0.000557249
0.00252412
0.0202876
0.00602341
0.0550084
0.00711088
0.0708603
0.00649174
0.0730136
0.00558993
0.0710996
0.00484424
0.0693973
0.00422456
0.0683182
0.0036838
0.0675658
0.00320603
0.0669909
0.00278367
0.0665371
0.00241046
0.0661727
0.00208105
0.0658754
0.00179092
0.0656291
0.00153634
0.0654215
0.00131421
0.0652438
0.00112204
0.0650892
0.000957827
0.0649525
0.000819989
0.0648296
0.000707314
0.0647175
0.000618876
0.064614
0.000553948
0.0645175
0.000511854
0.0644271
0.000491459
0.0643439
0.000489089
0.0548392
0.000495885
0.0456686
0.000506211
0.0380419
0.000517092
0.0316953
0.000527315
0.0264107
0.0220075
0.000536675
0.00175878
0.0185288
0.00488901
0.0518782
0.00632805
0.0694213
0.00609111
0.0732506
0.00535731
0.0718334
0.00468709
0.0700676
0.00412204
0.0688832
0.00362193
0.0680659
0.00317071
0.0674421
0.00276335
0.0669444
0.00239641
0.0665396
0.00206679
0.0662051
0.00177178
0.0659241
0.00150908
0.0656842
0.0012768
0.0654761
0.00107342
0.0652926
0.000897771
0.0651281
0.000749005
0.0649783
0.000626545
0.06484
0.000530037
0.0647105
0.000459282
0.0645882
0.000414055
0.0644723
0.000393573
0.0643644
0.000393618
0.0548391
0.00040413
0.0456581
0.000418704
0.0380273
0.000433952
0.0316801
0.000448445
0.0263962
0.0219941
0.000461815
0.00124696
0.0172818
0.00396487
0.0491603
0.00556662
0.0678195
0.00563311
0.0731841
0.00506164
0.0724049
0.00446102
0.0706682
0.00394279
0.0694014
0.00348007
0.0685286
0.00305578
0.0678664
0.00266551
0.0673347
0.00230758
0.0668976
0.00198062
0.066532
0.00168339
0.0662213
0.00141486
0.0659527
0.00117424
0.0657167
0.000960952
0.0655059
0.000774681
0.0653144
0.000615337
0.0651377
0.000483053
0.0649722
0.000378152
0.0648154
0.000301078
0.0646653
0.000252127
0.0645213
0.000231173
0.0643853
0.000233431
0.0548369
0.000247739
0.0456438
0.000266896
0.0380082
0.000287033
0.03166
0.000306456
0.0263768
0.0219759
0.000324601
0.00091161
0.0163702
0.00323234
0.0468395
0.00487069
0.0661812
0.00516243
0.0728924
0.00473879
0.0728285
0.00420079
0.0712062
0.00371888
0.0698834
0.00328544
0.068962
0.00288345
0.0682684
0.002508
0.0677102
0.00215819
0.0672474
0.00183369
0.0668565
0.00153434
0.0665206
0.00126008
0.066227
0.00101103
0.0659658
0.00078747
0.0657294
0.000589874
0.065512
0.000418935
0.0653086
0.000275548
0.0651156
0.000160752
0.0649302
7.57165e-05
0.0647504
2.16295e-05
0.0645754
-1.74471e-06
0.0644087
1.599e-06
0.0548335
1.92126e-05
0.0456261
4.28604e-05
0.0379845
6.79797e-05
0.0316348
9.24761e-05
0.0263523
0.0219527
0.000115679
0.000693024
0.0156772
0.0026583
0.0448743
0.00425345
0.064586
0.00470114
0.0724447
0.00440607
0.0731236
0.00392468
0.0716876
0.00347028
0.0703378
0.00305748
0.0693748
0.00267137
0.0686545
0.00230624
0.0680753
0.00196134
0.0675923
0.00163694
0.0671809
0.00133356
0.066824
0.00105184
0.0665087
0.000792613
0.066225
0.000556865
0.0659652
0.000345816
0.065723
0.000160821
0.0654936
3.40055e-06
0.065273
-0.000124668
0.0650583
-0.000221393
0.0648471
-0.000284823
0.0646388
-0.000313589
0.0644375
-0.000311703
0.0548316
-0.000292717
0.0456072
-0.000265718
0.0379575
-0.000235842
0.031605
-0.000205795
0.0263222
0.021924
-0.000177006
0.000547666
0.0151295
0.00220877
0.0432131
0.00371494
0.0630799
0.00426179
0.0718978
0.00407362
0.0733118
0.00364281
0.0721184
0.003209
0.0707716
0.00280911
0.0697747
0.00243234
0.0690313
0.00207235
0.0684353
0.00172815
0.0679365
0.00140028
0.0675088
0.00108966
0.0671347
0.000797431
0.0668009
0.000524947
0.0664975
0.000273772
0.0662164
4.56147e-05
0.0659512
-0.000157603
0.0656968
-0.000333593
0.065449
-0.000479684
0.0652044
-0.000592961
0.0649604
-0.000670514
0.0647163
-0.000710243
0.0644772
-0.000714185
0.0548356
-0.000696788
0.0455898
-0.00066822
0.037929
-0.000634532
0.0315713
-0.000599135
0.0262868
0.0218888
-0.000564029
0.000446352
0.0146832
0.00185354
0.041806
0.00324849
0.0616849
0.00385113
0.0712952
0.00374853
0.0734144
0.00336203
0.0725049
0.00294331
0.0711903
0.00254973
0.0701683
0.00217618
0.0694048
0.00181611
0.0687954
0.00146807
0.0682845
0.00113259
0.0678443
0.000810795
0.0674564
0.000504137
0.0671076
0.000214296
0.0667874
-5.6871e-05
0.0664875
-0.000307214
0.0662015
-0.000534109
0.0659237
-0.000734491
0.0656494
-0.000904926
0.0653748
-0.00104167
0.0650971
-0.00114093
0.0648156
-0.00119975
0.064536
-0.00121698
0.0548528
-0.00120748
0.0455803
-0.0011822
0.0379037
-0.00114807
0.0315371
-0.00110949
0.0262483
0.0218489
-0.00106956
0.000371419
0.0143117
0.00156871
0.0406087
0.00284486
0.0604088
0.00347169
0.0706683
0.00343553
0.0734505
0.00308725
0.0728532
0.00267945
0.0715981
0.00228685
0.0705609
0.00191113
0.0697806
0.00154607
0.0691604
0.00118968
0.0686409
0.000842286
0.0681917
0.000505016
0.0677937
0.000179377
0.0674332
-0.000132889
0.0670996
-0.000429656
0.0667843
-0.000708249
0.0664801
-0.000965454
0.0661809
-0.00119758
0.0658815
-0.00140046
0.0655777
-0.00156959
0.0652662
-0.00170054
0.0649465
-0.00178986
0.0646253
-0.00183175
0.0548947
-0.00184062
0.0455891
-0.00182749
0.0378905
-0.00179974
0.0315094
-0.00176287
0.0262114
0.0218074
-0.00172139
0.000312795
0.0139989
0.00133837
0.0395831
0.00249779
0.0592493
0.00312579
0.0700403
0.00313834
0.073438
0.00282183
0.0731697
0.00242168
0.0719982
0.00202607
0.0709565
0.00164374
0.0701629
0.00126939
0.0695348
0.00090051
0.0690098
0.000537055
0.0685551
0.000179937
0.0681508
-0.000169543
0.0677827
-0.000509622
0.0674397
-0.000837892
0.0671126
-0.00115132
0.0667935
-0.00144627
0.0664759
-0.00171844
0.0661537
-0.00196297
0.0658222
-0.00217466
0.0654779
-0.0023488
0.0651207
-0.00248252
0.0647591
-0.00256474
0.0549769
-0.00260909
0.0456335
-0.00262514
0.0379066
-0.00261865
0.0315029
-0.00259464
0.0261874
0.0217717
-0.0025589
0.00022804
0.0137709
0.000980746
0.0388304
0.00187217
0.0583579
0.00239179
0.0695207
0.00243005
0.0733997
0.00218377
0.0734159
0.00185069
0.0723313
0.001513
0.0712942
0.00118333
0.0704926
0.000858123
0.06986
0.000534845
0.0693331
0.000213036
0.0688769
-0.000106954
0.0684708
-0.000424265
0.0681
-0.000737456
0.0677529
-0.00104453
0.0674196
-0.00134286
0.0670919
-0.00162915
0.0667622
-0.00189936
0.0664239
-0.00214869
0.0660715
-0.00237193
0.0657012
-0.00256443
0.0653132
-0.00272419
0.0649188
-0.00283765
0.0550904
-0.00291801
0.0457138
-0.00297313
0.0379617
-0.00300488
0.0315347
-0.00301362
0.0261961
0.0217613
-0.00300322
0.000169706
0.0136012
0.000730033
0.0382701
0.00141667
0.0576713
0.00183948
0.0690979
0.00188647
0.0733527
0.00169347
0.0736089
0.00141806
0.0726067
0.00113313
0.0715792
0.000852601
0.0707731
0.000574057
0.0701385
0.000295027
0.0696121
1.46955e-05
0.0691573
-0.000266973
0.0687525
-0.000549537
0.0683826
-0.000832027
0.0680354
-0.00111301
0.0677006
-0.00139048
0.0673693
-0.00166174
0.0670334
-0.00192328
0.0666855
-0.00217074
0.066319
-0.00239895
0.0659294
-0.00260284
0.0655171
-0.00277949
0.0650955
-0.00291222
0.0552231
-0.00301635
0.045818
-0.00310416
0.0380495
-0.00318088
0.0316114
-0.00324454
0.0262598
0.0217987
-0.00328196
0.000130453
0.0134707
0.000556403
0.0378441
0.00109182
0.0571359
0.00143544
0.0687543
0.0014831
0.0733051
0.00133027
0.0737618
0.00110261
0.0728344
0.000863138
0.0718186
0.00062555
0.0710107
0.000388233
0.0703758
0.000148888
0.0698514
-9.35167e-05
0.0693997
-0.000339286
0.0689983
-0.00058829
0.0686316
-0.00084005
0.0682871
-0.0010937
0.0679543
-0.00134787
0.0676235
-0.0016006
0.0672861
-0.00184915
0.066934
-0.00208988
0.0665597
-0.00231813
0.0661576
-0.00252855
0.0657275
-0.002716
0.0652829
-0.00285679
0.0553639
-0.00296404
0.0459252
-0.00305529
0.0381408
-0.00314514
0.0317012
-0.00325161
0.0263663
0.0219327
-0.00338557
9.96575e-05
0.0133711
0.000431505
0.0375123
0.000857681
0.0567097
0.00113924
0.0684727
0.00118247
0.0732618
0.00105796
0.0738863
0.000868413
0.0730239
0.000667553
0.0720195
0.000467331
0.0712109
0.000266231
0.0705769
6.20978e-05
0.0700556
-0.000146099
0.0696079
-0.000358798
0.069211
-0.000576153
0.068849
-0.000798081
0.0685091
-0.0010242
0.0681804
-0.00125377
0.0678531
-0.00148553
0.0675179
-0.0017176
0.0671661
-0.00194736
0.0667895
-0.00217136
0.0663816
-0.0023854
0.0659415
-0.00258415
0.0654817
-0.00273651
0.0555162
-0.00284411
0.0460328
-0.00291465
0.0382113
-0.00295851
0.0317451
-0.00299408
0.0264018
-0.00315723
0.0220958
0.000155797
0.0219825
0.000198162
0.021985
0.000231575
0.0219939
0.000262627
0.0219963
0.000287848
0.0220021
0.000308525
0.0220067
0.000326155
0.0220097
0.000337457
0.0220161
0.000346735
0.0220181
0.00035098
0.0220231
0.000352141
0.0220262
0.000350757
0.0220287
0.000344917
0.0220332
0.000337453
0.0220348
0.000326723
0.0220381
0.000313668
0.0220404
0.000299255
0.0220418
0.000281849
0.0220448
0.000263354
0.0220459
0.000243598
0.0220471
0.000222259
0.0220487
0.000200279
0.0220493
0.000177607
0.02205
0.000154405
0.0220506
0.000131068
0.0220507
0.000107765
0.0220507
8.48854e-05
0.0220502
6.24218e-05
0.0220498
4.06969e-05
0.0220491
2.03536e-05
0.0220477
8.87113e-07
0.0220468
-1.68692e-05
0.0220451
-3.26118e-05
0.0220431
-4.71106e-05
0.0220419
-5.83181e-05
0.0220386
-6.75638e-05
0.0220366
-7.45395e-05
0.0220343
-7.7345e-05
0.0220302
-7.83797e-05
0.0220284
-7.47449e-05
0.0220237
-6.79597e-05
0.0220206
-5.80586e-05
0.0220175
-4.23598e-05
0.0220117
-2.45109e-05
0.0220095
5.48189e-08
0.0220028
2.80586e-05
0.0219994
6.0868e-05
0.0219945
0.000100033
0.0219882
0.0219857
0.000141695
0.000295475
0.0219372
0.000338359
0.0219421
0.000372506
0.0219598
0.000404501
0.0219643
0.000430893
0.0219757
0.00045296
0.0219846
0.000472183
0.0219905
0.000485288
0.0220029
0.000496544
0.0220068
0.000502947
0.0220167
0.000506423
0.0220227
0.000507495
0.0220277
0.000504254
0.0220364
0.000499497
0.0220396
0.000491585
0.022046
0.000481439
0.0220506
0.000470001
0.0220532
0.00045565
0.0220591
0.00044025
0.0220612
0.00042362
0.0220637
0.000405441
0.0220669
0.000386621
0.0220682
0.000367103
0.0220695
0.000347045
0.0220706
0.000326812
0.0220709
0.000306566
0.0220709
0.000286696
0.0220701
0.000267162
0.0220694
0.000248281
0.022068
0.000230696
0.0220653
0.000213868
0.0220636
0.000198635
0.0220603
0.000185285
0.0220564
0.000173017
0.0220541
0.000163895
0.0220477
0.000156551
0.0220439
0.000151282
0.0220396
0.000149998
0.0220314
0.000150255
0.0220281
0.00015497
0.022019
0.000162592
0.0220129
0.000173076
0.022007
0.000189111
0.0219956
0.000207008
0.0219916
0.000231355
0.0219784
0.000258827
0.0219719
0.000290782
0.0219626
0.000328751
0.0219502
0.0219456
0.000368843
0.000415968
0.0218913
0.000459715
0.0218984
0.000494967
0.0219245
0.000528295
0.021931
0.000556253
0.0219478
0.000580107
0.0219608
0.000601323
0.0219693
0.000616628
0.0219876
0.000630259
0.0219932
0.000639218
0.0220077
0.000645406
0.0220165
0.000649331
0.0220237
0.000649084
0.0220367
0.000647431
0.0220412
0.000642734
0.0220507
0.000635893
0.0220574
0.000627828
0.0220613
0.000616928
0.02207
0.00060502
0.0220732
0.000591913
0.0220768
0.000577288
0.0220815
0.00056202
0.0220834
0.000546047
0.0220855
0.000529521
0.0220871
0.000512777
0.0220877
0.000495971
0.0220877
0.000479488
0.0220866
0.000463257
0.0220856
0.000447588
0.0220836
0.000433123
0.0220797
0.000419288
0.0220775
0.000406923
0.0220727
0.000396304
0.0220671
0.000386599
0.0220638
0.000379887
0.0220544
0.000374767
0.0220491
0.000371524
0.0220428
0.000372073
0.0220309
0.000373931
0.0220263
0.000380029
0.0220129
0.000388788
0.0220042
0.000400146
0.0219956
0.000416803
0.021979
0.000435024
0.0219734
0.000459417
0.021954
0.000486621
0.0219447
0.000517985
0.0219312
0.000555031
0.0219132
0.0219068
0.000593818
0.000513342
0.0218442
0.000558537
0.0218532
0.000595461
0.0218876
0.000630686
0.0218958
0.00066078
0.0219177
0.000687
0.0219345
0.000710798
0.0219455
0.000728903
0.0219695
0.000745524
0.0219766
0.00075766
0.0219956
0.000767193
0.022007
0.000774613
0.0220163
0.00077801
0.0220333
0.000780118
0.0220391
0.000779297
0.0220515
0.000776428
0.0220603
0.000772408
0.0220653
0.000765631
0.0220768
0.000757888
0.0220809
0.00074898
0.0220858
0.000738582
0.0220919
0.00072754
0.0220945
0.000715781
0.0220973
0.00070345
0.0220995
0.000690857
0.0221003
0.000678145
0.0221004
0.000665695
0.022099
0.000653406
0.0220979
0.000641581
0.0220955
0.000630855
0.0220905
0.000620626
0.0220877
0.000611731
0.0220816
0.000604432
0.0220744
0.000597872
0.0220704
0.000594139
0.0220581
0.0005918
0.0220514
0.000591129
0.0220435
0.000594047
0.022028
0.000598033
0.0220223
0.000606031
0.0220049
0.000616434
0.0219938
0.000629169
0.0219829
0.000646944
0.0219612
0.000665981
0.0219544
0.000690913
0.0219291
0.000718335
0.0219173
0.000749594
0.0219
0.000786209
0.0218766
0.0218688
0.000824187
0.000580402
0.0217949
0.000627841
0.0218057
0.000667226
0.0218482
0.000705146
0.0218578
0.000738178
0.0218847
0.000767576
0.0219051
0.000794784
0.0219183
0.000816525
0.0219478
0.000836988
0.0219561
0.000853165
0.0219794
0.000866921
0.0219932
0.000878728
0.0220045
0.000886669
0.0220253
0.000893452
0.0220323
0.000897428
0.0220475
0.000899462
0.0220582
0.000900426
0.0220643
0.000898712
0.0220785
0.000896083
0.0220835
0.000892324
0.0220895
0.000887102
0.0220971
0.000881235
0.0221003
0.00087464
0.0221039
0.00086745
0.0221067
0.000859948
0.0221078
0.000852264
0.0221081
0.000844774
0.0221065
0.000837346
0.0221053
0.000830272
0.0221025
0.000824183
0.0220966
0.000818444
0.0220935
0.00081389
0.0220862
0.00081077
0.0220775
0.000808197
0.022073
0.000808272
0.0220581
0.000809528
0.0220502
0.000812228
0.0220408
0.000818301
0.0220219
0.000825184
0.0220154
0.00083584
0.0219943
0.000848634
0.021981
0.000863481
0.021968
0.000883101
0.0219416
0.000903675
0.0219338
0.000929861
0.0219029
0.000958221
0.0218889
0.000990097
0.0218681
0.00102701
0.0218397
0.0218309
0.00106491
0.000609534
0.0217426
0.000660209
0.0217551
0.000703052
0.0218054
0.00074468
0.0218162
0.000781676
0.0218477
0.0008153
0.0218715
0.000846986
0.0218866
0.000873449
0.0219213
0.000898867
0.0219307
0.000920217
0.0219581
0.000939348
0.0219741
0.000956716
0.0219871
0.00097039
0.0220117
0.000983056
0.0220197
0.000993053
0.0220375
0.00100122
0.0220501
0.00100842
0.0220571
0.00101303
0.0220739
0.00101678
0.0220798
0.00101944
0.0220869
0.00102067
0.0220959
0.00102125
0.0220997
0.00102109
0.022104
0.00102031
0.0221074
0.00101917
0.0221089
0.00101777
0.0221095
0.00101648
0.0221078
0.00101515
0.0221066
0.00101405
0.0221036
0.0010138
0.0220968
0.00101374
0.0220935
0.0010147
0.0220852
0.00101691
0.0220753
0.00101945
0.0220704
0.00102444
0.0220531
0.00103037
0.0220442
0.0010375
0.0220337
0.00104777
0.0220116
0.00105856
0.0220046
0.00107287
0.02198
0.00108902
0.0219648
0.00110693
0.0219501
0.00112932
0.0219192
0.00115234
0.0219108
0.00118068
0.0218746
0.00121085
0.0218587
0.00124421
0.0218347
0.00128227
0.0218016
0.0217923
0.00132093
0.000593155
0.0216862
0.000648259
0.0216999
0.000695774
0.0217579
0.000742358
0.0217696
0.000784594
0.0218054
0.000823747
0.0218324
0.000861252
0.0218491
0.000893807
0.0218888
0.000925586
0.0218989
0.000953545
0.0219301
0.000979519
0.0219481
0.00100395
0.0219627
0.00102488
0.0219907
0.00104498
0.0219996
0.00106258
0.02202
0.00107848
0.0220342
0.00109353
0.0220421
0.00110608
0.0220613
0.00111785
0.022068
0.00112859
0.0220761
0.00113793
0.0220866
0.00114662
0.022091
0.00115457
0.0220961
0.00116186
0.0221002
0.00116872
0.022102
0.00117526
0.022103
0.00118181
0.0221013
0.00118819
0.0221003
0.00119465
0.0220972
0.00120182
0.0220896
0.00120898
0.0220863
0.00121697
0.0220772
0.00122599
0.0220663
0.0012351
0.0220613
0.00124642
0.0220417
0.00125841
0.0220322
0.00127131
0.0220208
0.00128707
0.0219959
0.00130303
0.0219886
0.00132221
0.0219608
0.0013429
0.0219441
0.00136501
0.021928
0.00139129
0.0218929
0.00141782
0.0218842
0.00144934
0.0218431
0.00148233
0.0218257
0.00151813
0.0217989
0.00155827
0.0217615
0.021752
0.00159859
0.000523811
0.0216242
0.000584704
0.0216391
0.000638286
0.0217043
0.000691282
0.0217166
0.000740267
0.0217564
0.000786514
0.0217861
0.000831461
0.0218041
0.000871778
0.0218485
0.000911646
0.021859
0.00094799
0.0218938
0.000982635
0.0219135
0.001016
0.0219294
0.0010461
0.0219606
0.0010756
0.0219701
0.00110278
0.0219928
0.00112845
0.0220085
0.00115341
0.0220171
0.00117599
0.0220388
0.00119789
0.0220461
0.00121882
0.0220552
0.0012384
0.022067
0.00125735
0.0220721
0.00127554
0.0220779
0.00129304
0.0220827
0.00131005
0.022085
0.00132663
0.0220864
0.00134311
0.0220848
0.00135928
0.0220841
0.00137536
0.0220811
0.00139195
0.0220731
0.00140832
0.02207
0.00142526
0.0220603
0.00144298
0.0220485
0.00146049
0.0220438
0.00147992
0.0220223
0.00149969
0.0220125
0.00152003
0.0220004
0.00154288
0.021973
0.00156556
0.021966
0.00159108
0.0219353
0.00161773
0.0219175
0.00164539
0.0219004
0.00167682
0.0218615
0.00170809
0.021853
0.00174395
0.0218072
0.00178085
0.0217888
0.00182015
0.0217596
0.00186335
0.0217183
0.0217091
0.00190624
0.000393545
0.0215552
0.000461793
0.0215708
0.000523108
0.021643
0.000584241
0.0216555
0.000641744
0.0216989
0.000696925
0.0217309
0.000751242
0.0217498
0.000801328
0.0217984
0.000851381
0.021809
0.000898278
0.0218469
0.000943838
0.0218679
0.000988457
0.0218847
0.00103011
0.021919
0.00107145
0.0219287
0.00111072
0.0219535
0.0011487
0.0219705
0.00118617
0.0219797
0.00122142
0.0220035
0.00125612
0.0220114
0.00128995
0.0220214
0.00132249
0.0220344
0.00135444
0.0220401
0.00138562
0.0220467
0.00141607
0.0220522
0.00144595
0.0220552
0.0014753
0.022057
0.00150442
0.0220557
0.00153303
0.0220555
0.00156135
0.0220528
0.00158993
0.0220445
0.00161801
0.0220419
0.00164636
0.0220319
0.00167516
0.0220197
0.00170337
0.0220156
0.00173312
0.0219926
0.00176281
0.0219828
0.00179261
0.0219706
0.0018245
0.0219411
0.00185573
0.0219347
0.00188934
0.0219016
0.00192358
0.0218832
0.00195832
0.0218656
0.00199637
0.0218234
0.0020337
0.0218156
0.00207515
0.0217658
0.00211711
0.0217469
0.00216094
0.0217158
0.00220818
0.021671
0.0216627
0.00225452
0.000193071
0.0214778
0.000270547
0.0214933
0.000341265
0.0215723
0.000412325
0.0215844
0.000480452
0.0216308
0.000546853
0.0216645
0.000612921
0.0216838
0.000675222
0.0217361
0.000738007
0.0217462
0.000798107
0.0217868
0.000857342
0.0218087
0.000916081
0.021826
0.000972241
0.0218628
0.00102848
0.0218725
0.00108298
0.021899
0.00113649
0.021917
0.00118977
0.0219264
0.00124105
0.0219522
0.00129197
0.0219605
0.00134216
0.0219712
0.00139116
0.0219854
0.00143963
0.0219917
0.00148734
0.021999
0.00153429
0.0220053
0.00158058
0.0220089
0.00162621
0.0220114
0.00167143
0.0220104
0.00171591
0.022011
0.00175983
0.0220088
0.00180371
0.0220006
0.0018467
0.0219989
0.00188958
0.0219891
0.00193245
0.0219769
0.00197425
0.0219738
0.0020171
0.0219497
0.00205932
0.0219406
0.00210108
0.0219289
0.00214435
0.0218979
0.00218632
0.0218928
0.00223006
0.0218579
0.00227378
0.0218395
0.00231733
0.0218221
0.00236356
0.0217772
0.00240837
0.0217708
0.00245669
0.0217174
0.00250483
0.0216987
0.00255418
0.0216665
0.0026063
0.0216189
0.0216122
0.00265679
-9.04173e-05
0.0213912
-3.13622e-06
0.021406
7.93643e-05
0.0214898
0.000163551
0.0215002
0.000245338
0.021549
0.000325973
0.0215839
0.000406488
0.0216032
0.000483928
0.0216586
0.000562611
0.0216675
0.000639235
0.0217102
0.000715603
0.0217323
0.000792058
0.0217495
0.000866451
0.0217884
0.000941446
0.0217975
0.00101515
0.0218253
0.0010883
0.0218438
0.0011616
0.0218531
0.00123321
0.0218806
0.00130475
0.021889
0.00137578
0.0219001
0.00144577
0.0219155
0.00151533
0.0219221
0.00158417
0.0219302
0.00165222
0.0219372
0.00171952
0.0219416
0.00178599
0.0219449
0.00185184
0.0219446
0.00191665
0.0219462
0.00198053
0.021945
0.00204397
0.0219372
0.00210602
0.0219369
0.0021674
0.0219277
0.0022282
0.0219161
0.00228723
0.0219148
0.00234664
0.0218903
0.00240465
0.0218825
0.00246141
0.0218721
0.00251889
0.0218404
0.00257418
0.0218375
0.00263042
0.0218017
0.00268574
0.0217842
0.00273997
0.0217678
0.00279604
0.0217211
0.00284975
0.0217171
0.00290614
0.0216611
0.00296145
0.0216434
0.0030171
0.0216108
0.00307467
0.0215613
0.0215572
0.0031297
-0.000465057
0.0212923
-0.000364187
0.0213052
-0.000268601
0.0213942
-0.000171089
0.0214027
-7.50367e-05
0.021453
2.09562e-05
0.0214879
0.000119362
0.0215048
0.00021562
0.0215624
0.000313903
0.0215692
0.000410881
0.0216132
0.000508435
0.0216348
0.000606909
0.0216511
0.000704092
0.0216913
0.000802665
0.0216989
0.000900638
0.0217273
0.00099867
0.0217458
0.00109742
0.0217543
0.00119494
0.0217831
0.00129281
0.0217911
0.00139051
0.0218024
0.00148743
0.0218185
0.00158409
0.0218254
0.0016801
0.0218342
0.00177533
0.021842
0.0018697
0.0218472
0.00196305
0.0218516
0.0020555
0.0218522
0.00214651
0.0218552
0.00223611
0.0218554
0.0023247
0.0218486
0.00241121
0.0218503
0.00249631
0.0218426
0.00257999
0.0218324
0.00266094
0.0218338
0.00274132
0.0218099
0.00281923
0.0218046
0.00289474
0.0217966
0.00296986
0.0217653
0.00304154
0.0217658
0.00311299
0.0217302
0.00318226
0.0217149
0.00324917
0.0217009
0.00331673
0.0216536
0.00338063
0.0216532
0.00344606
0.0215956
0.00350917
0.0215803
0.00357146
0.0215485
0.00363457
0.0214982
0.0214979
0.0036939
-0.00095799
0.0211807
-0.000842946
0.0211901
-0.000731291
0.0212825
-0.000615775
0.0212872
-0.000500214
0.0213374
-0.00038329
0.021371
-0.000264078
0.0213856
-0.000145884
0.0214442
-2.41241e-05
0.0214475
9.76804e-05
0.0214914
0.000221324
0.0215111
0.000347071
0.0215253
0.000472729
0.0215656
0.000600961
0.0215707
0.000729581
0.0215987
0.000859221
0.0216162
0.00099046
0.0216231
0.00112118
0.0216524
0.00125289
0.0216594
0.00138494
0.0216704
0.00151661
0.0216869
0.00164831
0.0216937
0.00177954
0.0217029
0.00191004
0.0217115
0.00203959
0.0217176
0.00216788
0.0217233
0.00229493
0.0217251
0.00242002
0.0217301
0.00254302
0.0217324
0.00266425
0.0217273
0.00278244
0.0217322
0.00289814
0.0217269
0.00301123
0.0217193
0.00312022
0.0217248
0.00322726
0.0217029
0.00333027
0.0217016
0.00342924
0.0216976
0.0035262
0.0216683
0.00361789
0.0216741
0.00370765
0.0216405
0.00379341
0.0216292
0.00387498
0.0216194
0.0039555
0.021573
0.00403051
0.0215782
0.00410544
0.0215207
0.00417636
0.0215094
0.00424485
0.02148
0.00431268
0.0214304
0.0214354
0.00437513
-0.00159722
0.0210565
-0.00146729
0.0210602
-0.00133883
0.0211541
-0.00120433
0.0211527
-0.0010677
0.0212008
-0.000927522
0.0212308
-0.000782225
0.0212403
-0.000635754
0.0212977
-0.000483591
0.0212953
-0.000329512
0.0213373
-0.000171742
0.0213534
-1.0188e-05
0.0213638
0.000152205
0.0214032
0.000318166
0.0214047
0.000485841
0.021431
0.000656062
0.021446
0.000829001
0.0214501
0.00100247
0.0214789
0.00117788
0.021484
0.00135443
0.0214938
0.00153126
0.02151
0.00170863
0.0215164
0.00188587
0.0215257
0.00206256
0.0215348
0.00223827
0.0215419
0.0024125
0.0215491
0.00258508
0.0215525
0.00275502
0.0215601
0.00292199
0.0215654
0.00308612
0.0215632
0.00324582
0.0215725
0.00340152
0.0215712
0.00355288
0.0215679
0.00369812
0.0215796
0.0038394
0.0215616
0.00397433
0.0215667
0.00410277
0.0215692
0.0042268
0.0215443
0.00434287
0.021558
0.00445444
0.0215289
0.00455932
0.0215243
0.00465729
0.0215214
0.00475169
0.0214786
0.00483787
0.021492
0.00492165
0.0214369
0.00499898
0.0214321
0.00507165
0.0214074
0.00514165
0.0213604
0.0213729
0.00520414
-0.00242457
0.0209222
-0.00228078
0.0209164
-0.00213559
0.0210089
-0.00198088
0.020998
-0.0018205
0.0210404
-0.00165273
0.021063
-0.00147597
0.0210636
-0.00129449
0.0211162
-0.00110385
0.0211047
-0.000908335
0.0211418
-0.00070651
0.0211515
-0.000498623
0.0211559
-0.000287414
0.021192
-7.05171e-05
0.0211878
0.000148952
0.0212116
0.000371095
0.0212238
0.000598205
0.021223
0.000827213
0.0212499
0.00105941
0.0212518
0.00129394
0.0212593
0.00152986
0.0212741
0.00176721
0.021279
0.00200514
0.0212878
0.00224303
0.0212969
0.00248013
0.0213048
0.00271563
0.0213136
0.00294911
0.021319
0.00317912
0.0213301
0.00340496
0.0213396
0.00362651
0.0213417
0.00384162
0.0213573
0.00405048
0.0213623
0.00425242
0.021366
0.00444521
0.0213868
0.00463097
0.0213758
0.00480688
0.0213908
0.00497262
0.0214034
0.0051303
0.0213866
0.00527594
0.0214124
0.00541322
0.0213916
0.00553973
0.0213978
0.00565522
0.0214059
0.00576333
0.0213705
0.00585917
0.0213962
0.00594912
0.021347
0.0060291
0.0213521
0.0061013
0.0213352
0.00616809
0.0212936
0.0213165
0.00622452
-0.00289274
0.0208117
-0.00277116
0.0207948
-0.00264347
0.0208812
-0.00250029
0.0208548
-0.00234457
0.0208847
-0.00217537
0.0208938
-0.00199241
0.0208806
-0.00180067
0.0209245
-0.00159747
0.0209015
-0.00138745
0.0209318
-0.00117005
0.0209341
-0.000945968
0.0209318
-0.000718038
0.0209641
-0.000484274
0.0209541
-0.000246532
0.0209738
-4.35919e-06
0.0209816
0.000239933
0.0209787
0.000487195
0.0210027
0.00073895
0.021
0.000994205
0.021004
0.00125219
0.0210161
0.00151282
0.0210184
0.00177521
0.0210254
0.00203866
0.0210335
0.00230214
0.0210413
0.0025646
0.0210511
0.00282529
0.0210583
0.0030824
0.021073
0.00333486
0.0210871
0.0035821
0.0210944
0.00382166
0.0211178
0.00405331
0.0211307
0.00427605
0.0211433
0.00448744
0.0211754
0.00468925
0.021174
0.00487859
0.0212015
0.00505501
0.021227
0.00522037
0.0212213
0.00537092
0.0212618
0.00551002
0.0212525
0.00563538
0.0212724
0.00574676
0.0212945
0.00584743
0.0212699
0.00593291
0.0213107
0.006009
0.0212709
0.00607213
0.0212889
0.00612466
0.0212826
0.0061694
0.0212489
0.0212832
0.00620265
-0.00319384
0.0207236
-0.0031042
0.0207052
-0.00300478
0.0207818
-0.00287916
0.0207292
-0.00272946
0.020735
-0.00255763
0.020722
-0.00236697
0.02069
-0.00216482
0.0207223
-0.00195096
0.0206876
-0.00173072
0.0207115
-0.00150431
0.0207077
-0.0012726
0.0207001
-0.00103804
0.0207295
-0.000798818
0.0207148
-0.000556682
0.0207317
-0.000310937
0.0207359
-5.98398e-05
0.0207276
0.000193154
0.0207497
0.000450984
0.0207422
0.000713471
0.0207415
0.00098012