/*--------------------------------*- C++ -*----------------------------------*\
| =========                 |                                                 |
| \\      /  F ield         | OpenFOAM: The Open Source CFD Toolbox           |
|  \\    /   O peration     | Version:  2312                                  |
|   \\  /    A nd           | Website:  www.openfoam.com                      |
|    \\/     M anipulation  |                                                 |
\*---------------------------------------------------------------------------*/
FoamFile
{
    version     2.0;
    format      ascii;
    arch        "LSB;label=32;scalar=64";
    class       surfaceScalarField;
    location    "60.351218515555296";
    object      phi;
}
// * * * * * * * * * * * * * * * * * * * * * * * * * * * * * * * * * * * * * //

dimensions      [0 3 -1 0 0 0 0];

oriented        oriented;

internalField   nonuniform List<scalar> 
41713
(
0.00736614
0.0568803
0.00362859
0.067984
0.00211668
0.0657583
0.00148439
0.0648787
0.00109857
0.0646323
0.000844232
0.0645008
0.000668889
0.0644218
0.000541627
0.0643737
0.000445837
0.0643422
0.000371865
0.0643204
0.000313587
0.0643047
0.000266949
0.0642931
0.000229184
0.0642842
0.000198352
0.0642773
0.00017306
0.0642717
0.000152286
0.0642672
0.000135267
0.0642635
0.00012142
0.0642603
0.000110288
0.0642576
0.000101491
0.0642552
9.46728e-05
0.0642533
8.94764e-05
0.0642516
8.56206e-05
0.0642503
8.28725e-05
0.0548139
8.05619e-05
0.0456783
7.84504e-05
0.0380654
7.65242e-05
0.0317214
7.47947e-05
0.0264346
0.0220289
7.32284e-05
0.0099965
0.0468838
0.0084318
0.0695487
0.00571956
0.0684706
0.00412584
0.0664724
0.00312529
0.0656328
0.00243404
0.065192
0.00193628
0.0649195
0.00156658
0.0647434
0.00128463
0.0646242
0.00106464
0.0645404
0.000889661
0.0644797
0.000748318
0.0644344
0.000632761
0.0643998
0.000537448
0.0643726
0.000458389
0.0643508
0.000392664
0.0643329
0.000338098
0.064318
0.00029305
0.0643053
0.000256257
0.0642944
0.000226725
0.0642848
0.000203643
0.0642763
0.000186301
0.064269
0.000173985
0.0642626
0.00016656
0.0548213
0.000161964
0.0456829
0.000158847
0.0380685
0.000156433
0.0317238
0.00015434
0.0264367
0.0220307
0.000152559
0.00859965
0.0382841
0.00971502
0.0684333
0.00747782
0.0707078
0.00570911
0.0682412
0.00452149
0.0668204
0.00363702
0.0660765
0.00295539
0.0656012
0.002425
0.0652738
0.00200717
0.065042
0.00167335
0.0648742
0.00140308
0.06475
0.00118175
0.0646557
0.000998798
0.0645827
0.000846523
0.0645249
0.000719253
0.0644781
0.000612766
0.0644394
0.000523889
0.0644069
0.000450213
0.064379
0.000389885
0.0643547
0.000341462
0.0643332
0.000303792
0.064314
0.000275914
0.0642969
0.000256864
0.0642817
0.000246337
0.0548319
0.000240724
0.0456885
0.000237589
0.0380717
0.000235519
0.0317258
0.000233835
0.0264384
0.0220321
0.000232444
0.0067785
0.0315056
0.00948434
0.0657275
0.00813251
0.0720596
0.00645398
0.0699197
0.00526474
0.0680097
0.00436144
0.0669798
0.00363229
0.0663303
0.00303788
0.0658682
0.00255109
0.0655288
0.00214986
0.0652755
0.00181692
0.0650829
0.00153888
0.0649338
0.00130543
0.0648162
0.00110868
0.0647216
0.000942578
0.0646442
0.0008025
0.0645795
0.000684893
0.0645245
0.00058702
0.0644769
0.000506763
0.0644349
0.000442463
0.0643975
0.000392807
0.0643637
0.000356701
0.064333
0.00033296
0.0643054
0.000320873
0.054844
0.000315382
0.045694
0.000313086
0.038074
0.000312062
0.0317269
0.000311447
0.026439
0.0220325
0.000311099
0.00506849
0.0264372
0.00858069
0.0622153
0.00819776
0.0724425
0.00675677
0.0713607
0.00560438
0.0691621
0.00473197
0.0678522
0.00401771
0.0670446
0.00341763
0.0664683
0.00291076
0.0660357
0.00248118
0.065705
0.00211592
0.0654482
0.00180446
0.0652452
0.00153834
0.0650823
0.00131077
0.0649492
0.00111637
0.0648386
0.000950879
0.064745
0.000810956
0.0646644
0.000693977
0.0645939
0.000597892
0.064531
0.000521088
0.0644743
0.00046228
0.0644225
0.000420378
0.0643749
0.00039409
0.0643317
0.000382143
0.0548559
0.000378147
0.045698
0.000377849
0.0380743
0.000378896
0.0317258
0.00038026
0.0264376
0.022031
0.000381745
0.00362151
0.0228156
0.00732316
0.0585136
0.00780296
0.0719627
0.00674915
0.0724145
0.00569271
0.0702185
0.00487232
0.0686726
0.00419682
0.0677201
0.00361761
0.0670475
0.00311674
0.0665365
0.00268265
0.0661391
0.00230584
0.065825
0.00197844
0.0655726
0.001694
0.0653667
0.00144725
0.0651959
0.00123387
0.0650519
0.00105042
0.0649284
0.000894125
0.0648207
0.000762795
0.0647252
0.000654713
0.0646391
0.000568536
0.0645605
0.000503197
0.0644878
0.000457766
0.0644203
0.000430994
0.0643585
0.000420901
0.054866
0.000419849
0.045699
0.000422809
0.0380713
0.000427041
0.0317216
0.00043137
0.0264333
0.0220268
0.000435551
0.00252572
0.0202899
0.00603106
0.0550083
0.00712075
0.070873
0.00649915
0.0730361
0.00559377
0.0711239
0.00484518
0.0694212
0.0042231
0.0683422
0.00368008
0.0675905
0.00320008
0.0670165
0.00277544
0.0665638
0.00239987
0.0662005
0.00206794
0.0659046
0.00177511
0.0656595
0.0015176
0.0654535
0.00129228
0.0652773
0.00109663
0.0651241
0.000928622
0.0649887
0.000786689
0.0648671
0.000669622
0.0647562
0.000576514
0.0646536
0.000506676
0.0645576
0.000459487
0.0644675
0.000433883
0.0643841
0.000427064
0.0548728
0.000430208
0.0456959
0.00043757
0.0380639
0.000446056
0.0317131
0.000454344
0.026425
0.022019
0.000462133
0.00176104
0.0185289
0.00489998
0.0518694
0.00634501
0.069428
0.00610841
0.0732727
0.00537267
0.0718596
0.00470112
0.0700927
0.00413564
0.0689076
0.00363554
0.0680906
0.00318451
0.0674676
0.00277743
0.0669709
0.00241077
0.0665672
0.00208136
0.066234
0.00178643
0.0659545
0.00152361
0.0657163
0.00129095
0.0655099
0.0010869
0.0653282
0.000910233
0.0651654
0.000760087
0.0650173
0.00063587
0.0648804
0.000537233
0.0647522
0.000463992
0.0646309
0.000415967
0.0645155
0.000392414
0.0644076
0.000389719
0.0548755
0.000397939
0.0456877
0.000410634
0.0380513
0.000424337
0.0316994
0.000437546
0.0264118
0.0220067
0.000449859
0.00124976
0.0172791
0.00397821
0.0491409
0.00558965
0.0678166
0.00566015
0.0732022
0.0050893
0.0724305
0.00448949
0.0706925
0.00397325
0.0694239
0.00351331
0.0685506
0.00309216
0.0678887
0.00270525
0.0673578
0.0023508
0.0669217
0.00202732
0.0665575
0.0017335
0.0662483
0.00146821
0.0659816
0.00123058
0.0657475
0.00101997
0.0655388
0.000835982
0.0653494
0.00067848
0.0651748
0.000547552
0.0650113
0.000443488
0.0648563
0.000366719
0.0647077
0.000317631
0.0645646
0.000295948
0.0644293
0.000297419
0.054874
0.000310992
0.0456741
0.00032952
0.0380327
0.000349136
0.0316798
0.000368087
0.0263928
0.021989
0.000385778
0.000914821
0.0163643
0.00324685
0.0468089
0.00489797
0.0661655
0.00519785
0.0729023
0.00477826
0.0728501
0.00424381
0.071227
0.00376671
0.069901
0.00333915
0.0689781
0.00294363
0.0682842
0.00257499
0.0677264
0.00223221
0.0672644
0.00191483
0.0668748
0.00162257
0.0665406
0.00135526
0.0662489
0.00111291
0.0659899
0.000895692
0.065756
0.000703979
0.0655411
0.000538351
0.0653404
0.000399597
0.0651501
0.000288711
0.0649672
0.000206831
0.0647895
0.00015503
0.0646164
0.000133628
0.0644507
0.000138135
0.0548695
0.000156449
0.0456558
0.000180608
0.0380086
0.000206308
0.0316541
0.000231536
0.0263676
0.0219652
0.000255296
0.000696457
0.0156678
0.00267272
0.0448326
0.00428267
0.0645555
0.00474255
0.0724424
0.00445558
0.0731371
0.00398109
0.0717015
0.00353464
0.0703474
0.00313103
0.0693817
0.00275489
0.0686604
0.00240022
0.0680811
0.00206606
0.0675986
0.00175257
0.0671883
0.00146011
0.066833
0.00118919
0.0665198
0.00094049
0.0662386
0.000714858
0.0659816
0.000513338
0.0657426
0.000337209
0.0655165
0.000187952
0.0652993
6.72495e-05
0.0650879
-2.30133e-05
0.0648798
-8.09798e-05
0.0646744
-0.000105497
0.0644752
-0.000100604
0.0548646
-7.93275e-05
0.0456345
-5.05168e-05
0.0379798
-1.93903e-05
0.031623
1.13377e-05
0.0263369
0.0219358
4.08175e-05
0.000551096
0.0151167
0.0022219
0.0431618
0.00374361
0.0630338
0.0043061
0.0718799
0.00413035
0.0733128
0.00371025
0.0721216
0.00328777
0.0707699
0.00290045
0.069769
0.00253718
0.0690237
0.00219126
0.068427
0.0018615
0.0679284
0.00154828
0.0675015
0.00125236
0.0671289
0.000974714
0.0667974
0.000716508
0.0664968
0.000479134
0.066219
0.000264224
0.0659575
7.35895e-05
0.0657072
-9.07029e-05
0.0654636
-0.000226239
0.0652234
-0.000330309
0.0649839
-0.000400128
0.0647442
-0.000433623
0.0645087
-0.00043334
0.0548644
-0.000413138
0.0456143
-0.00038267
0.0379493
-0.000347651
0.0315879
-0.00031134
0.0263006
0.0219003
-0.000275874
0.000449535
0.0146672
0.0018644
0.0417469
0.00327425
0.0616239
0.00389495
0.0712592
0.00380891
0.0733988
0.00343712
0.0724933
0.00303323
0.0711738
0.00265553
0.0701467
0.00229885
0.0693803
0.00195628
0.0687696
0.00162616
0.0682585
0.00130886
0.0678188
0.00100533
0.0674325
0.000716812
0.0670859
0.000444828
0.0667688
0.000191134
0.0664727
-4.22917e-05
0.066191
-0.000253145
0.065918
-0.000438683
0.0656492
-0.000595729
0.0653805
-0.000720802
0.0651089
-0.000810332
0.0648337
-0.000861388
0.0645598
-0.000873453
0.0548764
-0.000860566
0.0456014
-0.000833059
0.0379218
-0.000797517
0.0315524
-0.000758092
0.0262611
0.0218599
-0.000717657
0.000374147
0.0142931
0.00157655
0.0405445
0.0028657
0.0603348
0.0035117
0.0706132
0.00349556
0.073415
0.0031659
0.072823
0.00277636
0.0715634
0.00240277
0.0705203
0.00204696
0.0697361
0.0017025
0.069114
0.00136717
0.0685938
0.00104114
0.0681449
0.000725333
0.0677483
0.000421138
0.0673901
0.000130167
0.0670597
-0.000145682
0.0667485
-0.000404094
0.0664494
-0.000642205
0.0661561
-0.000856656
0.0658636
-0.00104365
0.0655674
-0.00119903
0.0652643
-0.00131864
0.0649533
-0.00139915
0.0646403
-0.00143545
0.0549127
-0.00144099
0.045607
-0.00142602
0.0379068
-0.00139746
0.0315238
-0.00136045
0.0262241
0.0218187
-0.00131925
0.000314873
0.0139782
0.0013427
0.0395167
0.00251218
0.0591653
0.00315901
0.0699664
0.00319396
0.07338
0.00289948
0.0731175
0.00252073
0.0719421
0.00214687
0.0708942
0.00178708
0.0700959
0.00143594
0.0694652
0.00109079
0.0689389
0.000751416
0.0684842
0.000418615
0.0680811
9.35953e-05
0.0677152
-0.000222109
0.0673755
-0.000526478
0.0670529
-0.000816849
0.0667397
-0.00108996
0.0664292
-0.00134194
0.0661156
-0.00156841
0.0657939
-0.00176464
0.0654606
-0.00192628
0.065115
-0.0020507
0.0647647
-0.00212758
0.0549896
-0.00216936
0.0456487
-0.00218467
0.0379221
-0.0021786
0.0315178
-0.0021557
0.0262012
0.0217844
-0.00212143
0.000229173
0.013749
0.000981458
0.0387644
0.0018785
0.0582683
0.0024127
0.0694322
0.0024707
0.073322
0.00224498
0.0733432
0.00193199
0.0722551
0.00161441
0.0712117
0.00130537
0.070405
0.00100134
0.0697692
0.000699736
0.0692405
0.000399989
0.068784
0.000102441
0.0683786
-0.000192205
0.0680098
-0.00048281
0.0676661
-0.000767655
0.0673377
-0.00104447
0.0670165
-0.00131035
0.0666951
-0.0015617
0.066367
-0.00179423
0.0660264
-0.00200322
0.0656696
-0.00218445
0.0652962
-0.00233623
0.0649165
-0.00244561
0.055099
-0.00252468
0.0457278
-0.00258041
0.0379779
-0.00261399
0.0315513
-0.00262518
0.0262124
0.0217766
-0.0026174
0.00017021
0.0135788
0.000728545
0.0382061
0.00141757
0.0575793
0.00185097
0.0689988
0.00191434
0.0732587
0.00173941
0.0735181
0.00148183
0.0725127
0.00121462
0.071479
0.000952111
0.0706675
0.000692066
0.0700292
0.00043201
0.0695006
0.000171123
0.0690449
-9.07112e-05
0.0686405
-0.000353186
0.0682723
-0.000615549
0.0679284
-0.000876621
0.0675988
-0.00113472
0.0672746
-0.00138753
0.0669479
-0.00163203
0.0666114
-0.00186431
0.0662587
-0.00207973
0.065885
-0.00227367
0.0654901
-0.00244353
0.0650863
-0.00257311
0.0552286
-0.00267672
0.0458314
-0.00276583
0.038067
-0.00284511
0.0316306
-0.00291211
0.0262794
0.0218178
-0.0029533
0.00013056
0.0134483
0.000553737
0.0377829
0.00108943
0.0570436
0.00144046
0.0686478
0.00150129
0.0731978
0.00136379
0.0736556
0.00115152
0.0727249
0.000927273
0.0717032
0.0007051
0.0708897
0.000483602
0.0702507
0.00026053
0.0697237
3.48952e-05
0.0692705
-0.000193658
0.068869
-0.000425158
0.0685038
-0.000659267
0.0681625
-0.000895343
0.0678349
-0.00113232
0.0675116
-0.00136861
0.0671842
-0.0016019
0.0668447
-0.00182904
0.0664859
-0.00204586
0.0661018
-0.0022475
0.0656918
-0.00242914
0.065268
-0.00256745
0.0553669
-0.00267452
0.0459385
-0.0027671
0.0381595
-0.00285952
0.031723
-0.0029698
0.0263897
0.021956
-0.00310804
9.95124e-05
0.0133487
0.00042832
0.0374541
0.000853501
0.0566184
0.00114007
0.0683612
0.00119369
0.0731442
0.00108195
0.0737674
0.000905441
0.0729014
0.000717461
0.0718912
0.000530247
0.0710769
0.000342513
0.0704385
0.000152198
0.069914
-4.16998e-05
0.0694644
-0.000239657
0.069067
-0.000441907
0.068706
-0.000648497
0.0683691
-0.000859241
0.0680456
-0.00107366
0.067726
-0.00129085
0.0674014
-0.00150934
0.0670632
-0.00172696
0.0667035
-0.00194074
0.0663156
-0.00214698
0.065898
-0.00234063
0.0654616
-0.00249075
0.055517
-0.00259797
0.0460457
-0.002669
0.0382306
-0.0027138
0.0317678
-0.00275085
0.0264268
-0.00291648
0.0221217
0.000117772
0.0219828
0.000159798
0.0219853
0.000192881
0.0219943
0.000223619
0.0219966
0.000248539
0.0220024
0.000268927
0.022007
0.000286284
0.02201
0.000297322
0.0220163
0.000306352
0.0220183
0.000310359
0.0220233
0.000311297
0.0220264
0.000309704
0.0220289
0.000303666
0.0220334
0.00029602
0.022035
0.00028512
0.0220383
0.00027191
0.0220406
0.000257357
0.0220419
0.000239822
0.0220449
0.000221214
0.022046
0.00020136
0.0220472
0.000179935
0.0220488
0.000157885
0.0220494
0.000135158
0.0220501
0.000111913
0.0220506
8.85491e-05
0.0220507
6.52337e-05
0.0220507
4.23535e-05
0.0220502
1.99041e-05
0.0220498
-1.79308e-06
0.0220491
-2.20972e-05
0.0220477
-4.15074e-05
0.0220468
-5.91917e-05
0.022045
-7.48463e-05
0.022043
-8.9238e-05
0.0220417
-0.000100325
0.0220384
-0.000109433
0.0220365
-0.000116254
0.0220342
-0.000118893
0.02203
-0.000119743
0.0220282
-0.00011591
0.0220235
-0.000108911
0.0220204
-9.87792e-05
0.0220172
-8.28368e-05
0.0220114
-6.47259e-05
0.0220092
-3.98849e-05
0.0220025
-1.15907e-05
0.0219991
2.15228e-05
0.0219942
6.10049e-05
0.0219879
0.0219854
0.000103
0.000196855
0.0219385
0.000238847
0.0219433
0.000272125
0.021961
0.000303288
0.0219655
0.000328875
0.0219768
0.000350169
0.0219857
0.000368657
0.0219915
0.000381052
0.0220039
0.000391639
0.0220077
0.000397403
0.0220176
0.000400277
0.0220235
0.000400786
0.0220284
0.000397011
0.0220372
0.000391764
0.0220402
0.000383395
0.0220466
0.00037283
0.0220511
0.000361018
0.0220537
0.000346322
0.0220596
0.000330622
0.0220617
0.000313733
0.0220641
0.000295329
0.0220672
0.000276329
0.0220684
0.000256671
0.0220697
0.00023651
0.0220708
0.000216218
0.022071
0.000195956
0.0220709
0.000176105
0.0220701
0.000156636
0.0220693
0.000137862
0.0220678
0.000120421
0.0220651
0.000103784
0.0220634
8.87789e-05
0.02206
7.56957e-05
0.0220561
6.3741e-05
0.0220537
5.49644e-05
0.0220472
4.80095e-05
0.0220434
4.3173e-05
0.022039
4.23532e-05
0.0220308
4.31211e-05
0.0220274
4.83792e-05
0.0220183
5.65855e-05
0.0220121
6.76925e-05
0.0220061
8.43819e-05
0.0219947
0.000102975
0.0219907
0.000128046
0.0219774
0.000156282
0.0219708
0.000189035
0.0219615
0.000227833
0.0219491
0.0219444
0.000268793
0.000276953
0.021894
0.000319362
0.0219009
0.000353309
0.021927
0.000385383
0.0219334
0.000412128
0.0219501
0.000434816
0.021963
0.000454917
0.0219714
0.000469148
0.0219897
0.000481764
0.0219951
0.000489752
0.0220096
0.000495025
0.0220183
0.000498092
0.0220254
0.000497034
0.0220382
0.000494635
0.0220426
0.000489243
0.022052
0.000481767
0.0220586
0.000473132
0.0220624
0.00046171
0.022071
0.000449347
0.022074
0.00043585
0.0220776
0.000420888
0.0220821
0.000405353
0.0220839
0.000389175
0.0220859
0.000372501
0.0220874
0.000355679
0.0220878
0.000338859
0.0220878
0.00032242
0.0220865
0.000306302
0.0220854
0.000290811
0.0220833
0.000276582
0.0220793
0.000263053
0.0220769
0.000251053
0.022072
0.000240859
0.0220663
0.000231648
0.0220629
0.000225483
0.0220534
0.000220973
0.0220479
0.000218403
0.0220416
0.000219677
0.0220295
0.000222326
0.0220248
0.000229266
0.0220113
0.000238924
0.0220025
0.000251241
0.0219938
0.000268902
0.0219771
0.000288189
0.0219714
0.00031369
0.0219519
0.000342056
0.0219425
0.000374632
0.0219289
0.000412936
0.0219108
0.0219043
0.000453037
0.000356535
0.0218486
0.000400053
0.0218574
0.000435341
0.0218918
0.000468991
0.0218997
0.00049756
0.0219215
0.000522311
0.0219382
0.000544702
0.021949
0.000561452
0.0219729
0.000576788
0.0219798
0.000587697
0.0219987
0.00059607
0.0220099
0.000602402
0.022019
0.000604773
0.0220359
0.000605934
0.0220415
0.000604233
0.0220537
0.00060056
0.0220623
0.000595817
0.0220671
0.000588383
0.0220784
0.000580068
0.0220823
0.000570668
0.022087
0.000559851
0.022093
0.000548476
0.0220953
0.000536467
0.0220979
0.000523963
0.0220999
0.000511282
0.0221005
0.000498566
0.0221005
0.00048619
0.0220989
0.000474063
0.0220975
0.000462481
0.0220949
0.000452077
0.0220897
0.000442257
0.0220868
0.000433847
0.0220805
0.000427113
0.022073
0.000421201
0.0220688
0.000418187
0.0220564
0.000416646
0.0220495
0.000416853
0.0220414
0.000420715
0.0220257
0.000425725
0.0220198
0.000434813
0.0220022
0.000446378
0.0219909
0.000460344
0.0219798
0.000479411
0.021958
0.000499811
0.021951
0.00052616
0.0219256
0.000555065
0.0219136
0.000587867
0.0218961
0.000626079
0.0218726
0.0218647
0.000665721
0.000429025
0.0218013
0.000474562
0.0218119
0.000512093
0.0218542
0.00054822
0.0218636
0.000579513
0.0218902
0.000607234
0.0219105
0.00063283
0.0219234
0.000653021
0.0219527
0.000672007
0.0219608
0.000686777
0.0219839
0.0006992
0.0219975
0.000709753
0.0220085
0.000716516
0.0220291
0.000722206
0.0220358
0.000725171
0.0220508
0.00072628
0.0220612
0.000726409
0.022067
0.000723946
0.0220809
0.000720661
0.0220856
0.00071634
0.0220913
0.000710647
0.0220987
0.000704407
0.0221016
0.000697534
0.0221048
0.00069016
0.0221073
0.000682574
0.0221081
0.000674903
0.0221081
0.00066752
0.0221063
0.0006603
0.0221047
0.000653531
0.0221017
0.000647841
0.0220954
0.000642599
0.022092
0.000638635
0.0220844
0.000636196
0.0220755
0.000634399
0.0220706
0.000635336
0.0220555
0.000637543
0.0220473
0.000641284
0.0220376
0.000648478
0.0220185
0.000656569
0.0220117
0.000668509
0.0219903
0.000682668
0.0219768
0.000698956
0.0219635
0.000720086
0.0219369
0.000742246
0.0219288
0.000770081
0.0218978
0.000800157
0.0218835
0.000833814
0.0218625
0.000872565
0.0218338
0.0218248
0.000912374
0.000485762
0.0217511
0.000534416
0.0217632
0.000575292
0.0218134
0.000615007
0.0218239
0.000650148
0.0218551
0.000681975
0.0218787
0.000711929
0.0218935
0.00073673
0.0219279
0.000760555
0.021937
0.000780388
0.0219641
0.00079808
0.0219798
0.000814089
0.0219925
0.000826492
0.0220167
0.000837973
0.0220243
0.000846877
0.0220418
0.000854049
0.022054
0.00086034
0.0220607
0.000864142
0.0220771
0.000867186
0.0220826
0.000869243
0.0220893
0.000869972
0.0220979
0.000870162
0.0221014
0.000869716
0.0221052
0.000868757
0.0221083
0.000867537
0.0221093
0.000866174
0.0221095
0.000865034
0.0221074
0.000863953
0.0221058
0.000863211
0.0221024
0.000863428
0.0220952
0.000863938
0.0220915
0.000865568
0.0220828
0.000868551
0.0220725
0.000871967
0.0220672
0.000877929
0.0220495
0.000884931
0.0220403
0.000893223
0.0220293
0.000904739
0.022007
0.000916873
0.0219996
0.000932603
0.0219746
0.000950264
0.0219591
0.000969755
0.0219441
0.00099381
0.0219128
0.00101856
0.0219041
0.0010487
0.0218676
0.00108074
0.0218514
0.00111603
0.0218272
0.00115608
0.0217938
0.0217841
0.00119679
0.000516529
0.0216967
0.000569589
0.0217102
0.000615118
0.0217678
0.000659757
0.0217793
0.000700104
0.0218148
0.000737424
0.0218414
0.000773152
0.0218577
0.000804004
0.0218971
0.000834141
0.0219068
0.000860538
0.0219377
0.000885027
0.0219553
0.000908048
0.0219695
0.000927666
0.0219971
0.000946539
0.0220054
0.000962999
0.0220254
0.00097787
0.0220391
0.000991975
0.0220466
0.0010037
0.0220654
0.00101475
0.0220715
0.00102486
0.0220791
0.00103369
0.0220891
0.00104199
0.0220931
0.00104965
0.0220976
0.00105677
0.0221011
0.00106358
0.0221025
0.00107017
0.0221029
0.0010769
0.0221007
0.00108357
0.0220992
0.00109044
0.0220955
0.00109812
0.0220875
0.00110591
0.0220837
0.00111463
0.0220741
0.0011245
0.0220626
0.00113455
0.0220572
0.00114692
0.0220371
0.00116006
0.0220271
0.00117421
0.0220152
0.0011913
0.0219899
0.00120869
0.0219822
0.00122938
0.0219539
0.00125167
0.0219368
0.00127544
0.0219203
0.00130346
0.0218848
0.00133179
0.0218757
0.00136519
0.0218342
0.00140011
0.0218165
0.00143791
0.0217894
0.00148009
0.0217516
0.0217417
0.00152251
0.000509843
0.0216367
0.000568766
0.0216512
0.000620443
0.0217161
0.000671549
0.0217281
0.00071869
0.0217676
0.000763137
0.0217969
0.000806324
0.0218146
0.000844956
0.0218585
0.000883186
0.0218686
0.000917972
0.0219029
0.00095113
0.0219221
0.000983077
0.0219375
0.00101186
0.0219683
0.00104012
0.0219772
0.00106616
0.0219993
0.00109079
0.0220145
0.00111479
0.0220226
0.00113655
0.0220436
0.00115771
0.0220504
0.00117802
0.0220588
0.0011971
0.02207
0.00121566
0.0220745
0.00123358
0.0220797
0.00125093
0.0220838
0.0012679
0.0220855
0.00128456
0.0220863
0.00130126
0.022084
0.00131774
0.0220827
0.00133426
0.022079
0.00135141
0.0220704
0.00136844
0.0220667
0.00138617
0.0220563
0.00140478
0.022044
0.00142328
0.0220387
0.00144381
0.0220166
0.00146478
0.0220062
0.0014864
0.0219936
0.00151064
0.0219656
0.00153478
0.021958
0.00156185
0.0219268
0.00159012
0.0219085
0.00161947
0.0218909
0.00165267
0.0218516
0.00168575
0.0218426
0.0017235
0.0217965
0.00176233
0.0217777
0.0018036
0.0217481
0.00184883
0.0217063
0.0216968
0.0018938
0.000452864
0.0215696
0.000519241
0.0215849
0.000578729
0.0216567
0.000638058
0.0216688
0.000693821
0.0217118
0.0007473
0.0217434
0.000799932
0.0217619
0.000848398
0.02181
0.000896854
0.0218202
0.00094223
0.0218575
0.000986326
0.021878
0.00102954
0.0218943
0.00106989
0.0219279
0.00111
0.0219371
0.00114813
0.0219612
0.00118508
0.0219776
0.00122159
0.0219861
0.00125602
0.0220092
0.00129
0.0220164
0.00132321
0.0220256
0.00135526
0.022038
0.00138683
0.0220429
0.00141775
0.0220488
0.00144808
0.0220535
0.00147794
0.0220557
0.00150739
0.0220568
0.00153675
0.0220546
0.00156571
0.0220537
0.00159449
0.0220502
0.00162368
0.0220412
0.00165245
0.0220379
0.00168161
0.0220272
0.00171134
0.0220143
0.00174056
0.0220094
0.00177146
0.0219857
0.00180236
0.0219753
0.00183348
0.0219625
0.00186678
0.0219323
0.00189947
0.0219253
0.00193465
0.0218916
0.00197051
0.0218727
0.00200693
0.0218545
0.00204672
0.0218118
0.00208583
0.0218035
0.00212912
0.0217532
0.00217295
0.0217339
0.00221869
0.0217024
0.00226788
0.0216571
0.0216484
0.0023162
0.000331036
0.0214939
0.000406574
0.0215093
0.000475695
0.0215875
0.000545171
0.0215993
0.000611582
0.0216454
0.000676247
0.0216788
0.000740612
0.0216976
0.000801314
0.0217493
0.000862525
0.0217589
0.000921126
0.0217989
0.00097891
0.0218203
0.00103625
0.021837
0.00109112
0.0218731
0.00114611
0.0218821
0.00119948
0.0219078
0.00125196
0.0219251
0.00130427
0.0219337
0.00135473
0.0219587
0.00140493
0.0219662
0.0014545
0.021976
0.00150303
0.0219894
0.00155113
0.0219948
0.00159859
0.0220013
0.00164543
0.0220066
0.00169173
0.0220094
0.00173748
0.022011
0.00178297
0.0220091
0.00182784
0.0220088
0.00187225
0.0220058
0.00191677
0.0219967
0.0019605
0.0219942
0.00200422
0.0219835
0.00204807
0.0219704
0.00209091
0.0219666
0.00213494
0.0219417
0.00217841
0.0219318
0.0022215
0.0219194
0.00226621
0.0218876
0.00230965
0.0218819
0.00235496
0.0218463
0.0024003
0.0218273
0.0024455
0.0218093
0.00249345
0.0217638
0.00253999
0.021757
0.00259009
0.0217031
0.00264003
0.0216839
0.0026912
0.0216512
0.00274517
0.0216032
0.0215961
0.00279752
0.000126641
0.0214081
0.00021337
0.0214226
0.000294294
0.0215066
0.000376013
0.0215176
0.000455484
0.021566
0.000533917
0.0216003
0.000612734
0.0216187
0.000688512
0.0216735
0.00076549
0.021682
0.000840483
0.0217239
0.000915281
0.0217455
0.000990229
0.021762
0.00106324
0.0218001
0.00113692
0.0218084
0.00120943
0.0218353
0.00128149
0.021853
0.00135378
0.0218614
0.00142454
0.021888
0.00149533
0.0218954
0.00156572
0.0219057
0.00163523
0.0219199
0.00170442
0.0219256
0.00177302
0.0219327
0.00184098
0.0219387
0.00190831
0.021942
0.00197494
0.0219444
0.00204111
0.021943
0.00210635
0.0219436
0.00217078
0.0219414
0.00223491
0.0219325
0.00229776
0.0219313
0.00236006
0.0219211
0.0024219
0.0219086
0.00248205
0.0219064
0.00254271
0.021881
0.00260205
0.0218724
0.0026602
0.0218612
0.00271918
0.0218286
0.002776
0.0218251
0.00283385
0.0217885
0.00289082
0.0217704
0.00294673
0.0217534
0.00300453
0.021706
0.00305996
0.0217016
0.00311812
0.0216449
0.00317518
0.0216269
0.00323258
0.0215938
0.00329194
0.0215438
0.0215393
0.00334872
-0.000179189
0.0213114
-8.091e-05
0.0213243
1.28941e-05
0.0214128
0.000109736
0.0214208
0.000205103
0.0214706
0.000300296
0.0215051
0.000396667
0.0215224
0.000490907
0.0215793
0.000587299
0.0215856
0.00068255
0.0216287
0.000778471
0.0216495
0.000875381
0.0216651
0.000971101
0.0217043
0.00106824
0.0217113
0.0011649
0.0217387
0.00126173
0.0217562
0.00135937
0.0217638
0.00145596
0.0217914
0.00155301
0.0217984
0.00165002
0.0218086
0.00174642
0.0218235
0.00184269
0.0218294
0.00193846
0.0218369
0.00203362
0.0218435
0.00212806
0.0218476
0.00222161
0.0218509
0.00231445
0.0218501
0.00240598
0.0218521
0.00249622
0.0218512
0.00258563
0.0218431
0.00267307
0.0218439
0.00275923
0.021835
0.00284409
0.0218237
0.00292631
0.0218242
0.00300811
0.0217992
0.0030875
0.021793
0.00316457
0.0217842
0.00324136
0.0217519
0.00331473
0.0217517
0.00338794
0.0217153
0.00345901
0.0216993
0.00352773
0.0216847
0.00359714
0.0216366
0.00366286
0.0216358
0.00373014
0.0215776
0.00379507
0.0215619
0.00385915
0.0215297
0.00392406
0.0214789
0.0214782
0.00398516
-0.000607776
0.0212015
-0.000494583
0.0212111
-0.000385125
0.0213034
-0.000272529
0.0213082
-0.000160037
0.0213581
-4.62217e-05
0.0213913
7.06986e-05
0.0214054
0.000186728
0.0214633
0.000306253
0.021466
0.000425946
0.021509
0.000547744
0.0215277
0.000671828
0.021541
0.000795907
0.0215803
0.000922599
0.0215846
0.00104981
0.0216115
0.00117811
0.0216279
0.00130808
0.0216338
0.00143771
0.0216617
0.00156846
0.0216676
0.00169972
0.0216774
0.00183079
0.0216924
0.00196207
0.0216981
0.00209304
0.021706
0.00222349
0.0217131
0.00235316
0.0217179
0.00248175
0.0217223
0.0026093
0.0217226
0.00273505
0.0217263
0.00285889
0.0217273
0.00298115
0.0217209
0.00310049
0.0217245
0.00321752
0.021718
0.00333209
0.0217092
0.00344265
0.0217137
0.00355143
0.0216904
0.00365626
0.0216882
0.00375713
0.0216833
0.0038561
0.0216529
0.00394985
0.021658
0.00404172
0.0216234
0.00412962
0.0216114
0.00421334
0.021601
0.00429604
0.0215539
0.00437318
0.0215587
0.00445025
0.0215006
0.00452326
0.0214889
0.00459379
0.0214592
0.00466364
0.0214091
0.0214138
0.00472803
-0.0011976
0.0210798
-0.00107041
0.0210839
-0.000944794
0.0211777
-0.000813263
0.0211767
-0.000679742
0.0212246
-0.000542814
0.0212544
-0.000401075
0.0212637
-0.00025816
0.0213203
-0.000109512
0.0213174
4.10634e-05
0.0213584
0.000195135
0.0213737
0.000353098
0.0213831
0.000512837
0.0214205
0.000676912
0.0214205
0.000842924
0.0214455
0.00101142
0.0214594
0.00118282
0.0214624
0.00135493
0.0214896
0.00152915
0.0214934
0.00170469
0.0215018
0.00188077
0.0215164
0.00205761
0.0215213
0.00223455
0.021529
0.0024112
0.0215364
0.00258711
0.021542
0.00276177
0.0215476
0.00293505
0.0215493
0.00310592
0.0215555
0.00327403
0.0215592
0.00343956
0.0215553
0.00360085
0.0215633
0.00375833
0.0215605
0.00391168
0.0215558
0.00405905
0.0215663
0.00420264
0.0215468
0.00434
0.0215509
0.00447099
0.0215523
0.00459768
0.0215262
0.00471647
0.0215392
0.00483084
0.021509
0.00493853
0.0215037
0.00503932
0.0215002
0.00513656
0.0214567
0.00522552
0.0214697
0.00531206
0.021414
0.00539207
0.0214089
0.00546735
0.0213839
0.00553989
0.0213365
0.0213489
0.00560483
-0.00199058
0.020949
-0.00185061
0.020944
-0.00170952
0.0210366
-0.00155922
0.0210263
-0.00140342
0.0210688
-0.00124035
0.0210913
-0.00106836
0.0210917
-0.000891657
0.0211436
-0.000705836
0.0211316
-0.000515014
0.0211676
-0.000317576
0.0211762
-0.000113892
0.0211794
9.24542e-05
0.0212142
0.00030411
0.0212088
0.000519485
0.0212301
0.000739615
0.0212393
0.000964255
0.0212378
0.00119118
0.0212627
0.00142164
0.0212629
0.00165474
0.0212687
0.00188956
0.0212815
0.00212615
0.0212847
0.00236366
0.0212915
0.0026015
0.0212986
0.00283889
0.0213046
0.00307504
0.0213115
0.00330953
0.0213148
0.00354087
0.0213241
0.00376839
0.0213317
0.00399192
0.0213318
0.00420932
0.0213459
0.00442075
0.021349
0.00462554
0.021351
0.00482139
0.0213704
0.00501046
0.0213578
0.00518986
0.0213715
0.00535925
0.0213829
0.00552071
0.0213647
0.00567024
0.0213897
0.00581151
0.0213678
0.00594203
0.0213732
0.00606154
0.0213807
0.00617368
0.0213445
0.00627347
0.02137
0.00636733
0.0213202
0.0064511
0.0213251
0.00652698
0.021308
0.00659733
0.0212662
0.021289
0.00665716
-0.00251106
0.0208427
-0.00239404
0.0208269
-0.00227127
0.0209139
-0.00213333
0.0208884
-0.00198307
0.0209185
-0.00181949
0.0209278
-0.00164227
0.0209145
-0.00145632
0.0209577
-0.00125892
0.0209342
-0.00105469
0.0209634
-0.000843029
0.0209646
-0.000624502
0.0209608
-0.000401458
0.0209911
-0.000172
0.0209794
6.07294e-05
0.0209974
0.000296303
0.0210037
0.000537943
0.0209962
0.000782974
0.0210177
0.00103261
0.0210133
0.00128616
0.0210152
0.00154281
0.0210249
0.00180251
0.021025
0.00206439
0.0210296
0.00232776
0.0210352
0.00259159
0.0210408
0.00285484
0.0210482
0.00311674
0.0210529
0.00337548
0.0210654
0.00362997
0.0210772
0.00387962
0.0210821
0.00412197
0.0211035
0.00435674
0.0211143
0.00458294
0.0211248
0.00479807
0.0211553
0.00500388
0.021152
0.00519746
0.0211779
0.00537831
0.021202
0.00554828
0.0211948
0.00570355
0.0212344
0.00584746
0.0212238
0.00597769
0.021243
0.00609395
0.0212644
0.00619948
0.021239
0.00628973
0.0212797
0.00637051
0.0212394
0.00643819
0.0212575
0.0064951
0.0212511
0.00654405
0.0212172
0.0212518
0.00658134
-0.00287011
0.0207595
-0.00278588
0.0207427
-0.00269222
0.0208202
-0.00257264
0.0207688
-0.0024292
0.0207751
-0.00226375
0.0207623
-0.00207955
0.0207303
-0.00188388
0.020762
-0.00167646
0.0207268
-0.0014626
0.0207495
-0.00124243
0.0207444
-0.00101682
0.0207352
-0.000788212
0.0207625
-0.000554579
0.0207458
-0.000317053
0.0207598
-7.46793e-05
0.0207613
0.00017021
0.0207513
0.000419378
0.0207685
0.00067433
0.0207584
0.000934477
0.0207551
0.00119929
0.0207601