/*--------------------------------*- C++ -*----------------------------------*\
| =========                 |                                                 |
| \\      /  F ield         | OpenFOAM: The Open Source CFD Toolbox           |
|  \\    /   O peration     | Version:  2312                                  |
|   \\  /    A nd           | Website:  www.openfoam.com                      |
|    \\/     M anipulation  |                                                 |
\*---------------------------------------------------------------------------*/
FoamFile
{
    version     2.0;
    format      ascii;
    arch        "LSB;label=32;scalar=64";
    class       surfaceScalarField;
    location    "29.509184146508478";
    object      phi;
}
// * * * * * * * * * * * * * * * * * * * * * * * * * * * * * * * * * * * * * //

dimensions      [0 3 -1 0 0 0 0];

oriented        oriented;

internalField   nonuniform List<scalar> 
41713
(
0.007361
0.0568854
0.00362765
0.0679798
0.0021163
0.0657578
0.00148326
0.0648795
0.00109722
0.0646325
0.000842917
0.0645007
0.00066763
0.0644217
0.000540434
0.0643736
0.000444719
0.0643422
0.000370828
0.0643203
0.000312636
0.0643046
0.000266088
0.064293
0.00022842
0.0642841
0.000197692
0.0642772
0.000172512
0.0642716
0.00015186
0.0642671
0.00013497
0.0642633
0.000121261
0.0642601
0.000110273
0.0642574
0.000101626
0.0642551
9.49573e-05
0.0642531
8.99043e-05
0.0642515
8.61847e-05
0.0642502
8.35386e-05
0.0548138
8.12921e-05
0.0456782
7.92154e-05
0.0380654
7.73054e-05
0.0317213
7.55792e-05
0.0264346
0.022029
7.40037e-05
0.00999184
0.0468936
0.00842345
0.0695482
0.00571164
0.0684696
0.0041179
0.0664732
0.00311686
0.0656335
0.00242503
0.0651926
0.00192665
0.0649201
0.0015563
0.064744
0.00127365
0.0646248
0.00105293
0.0645411
0.000877186
0.0644804
0.000735051
0.0644351
0.000618681
0.0644005
0.00052254
0.0643733
0.000442644
0.0643515
0.000376078
0.0643337
0.000320675
0.0643187
0.000274799
0.064306
0.000237191
0.064295
0.00020686
0.0642854
0.000182999
0.064277
0.0001649
0.0642696
0.000151847
0.0642632
0.000143803
0.0548219
0.000138694
0.0456833
0.000135151
0.0380689
0.000132378
0.0317241
0.000129981
0.026437
0.022031
0.000127948
0.00859155
0.0383021
0.00969957
0.0684402
0.00746093
0.0707082
0.00569164
0.0682425
0.00450241
0.0668227
0.003616
0.066079
0.00293228
0.0656038
0.00239968
0.0652766
0.0019795
0.065045
0.0016432
0.0648774
0.00137034
0.0647532
0.00114631
0.0646591
0.00096057
0.0645862
0.00080543
0.0645284
0.000675234
0.0644817
0.000565776
0.0644431
0.000473898
0.0644106
0.000397209
0.0643827
0.000333874
0.0643584
0.000282466
0.0643368
0.000241853
0.0643176
0.000211096
0.0643003
0.000189246
0.0642851
0.000176404
0.0548347
0.000168922
0.0456908
0.000164274
0.0380736
0.000160972
0.0317274
0.000158279
0.0264397
0.0220332
0.000156062
0.00676919
0.0315329
0.00946193
0.0657474
0.00810503
0.0720651
0.00642463
0.0699229
0.00523232
0.068015
0.00432506
0.0669862
0.00359163
0.0663372
0.00299269
0.0658755
0.00250109
0.0655366
0.0020948
0.0652836
0.00175656
0.0650915
0.001473
0.0649427
0.00123384
0.0648254
0.00103121
0.0647311
0.000859079
0.0646538
0.000712855
0.0645893
0.000589016
0.0645344
0.000484859
0.0644869
0.000398301
0.0644449
0.000327724
0.0644074
0.000271856
0.0643734
0.000229649
0.0643426
0.000199966
0.0643147
0.000182968
0.0548517
0.000173518
0.0457003
0.000168027
0.0380791
0.000164415
0.031731
0.000161694
0.0264424
0.0220353
0.000159631
0.00505851
0.0264743
0.00855245
0.0622535
0.00815917
0.0724584
0.0067139
0.0713682
0.00555681
0.0691721
0.00467817
0.0678649
0.00395693
0.0670585
0.0033494
0.0664831
0.00283466
0.0660513
0.00239679
0.0657215
0.00202285
0.0654654
0.00170236
0.0652632
0.00142687
0.0651009
0.00118964
0.0649683
0.000985322
0.0648582
0.000809701
0.064765
0.000659481
0.0646847
0.000532092
0.0646143
0.000425545
0.0645515
0.000338291
0.0644947
0.000269117
0.0644426
0.000217007
0.0643947
0.000180737
0.064351
0.000160526
0.0548719
0.000149867
0.0457109
0.000144195
0.0380847
0.000140905
0.0317343
0.000138767
0.0264445
0.0220366
0.000137408
0.00361118
0.0228632
0.00729076
0.0585739
0.00775444
0.0719947
0.00669263
0.07243
0.00562941
0.0702353
0.0048004
0.0686939
0.00411496
0.0677439
0.00352506
0.067073
0.00301287
0.0665635
0.00256687
0.0661675
0.00217758
0.0658547
0.00183718
0.0656036
0.00153925
0.0653988
0.00127856
0.065229
0.00105087
0.0650858
0.000852762
0.0649631
0.000681546
0.0648559
0.000535104
0.0647607
0.000411806
0.0646748
0.000310401
0.0645961
0.000229926
0.0645231
0.000169556
0.064455
0.000128129
0.0643924
0.000105843
0.0548942
9.4943e-05
0.0457218
8.99612e-05
0.0380897
8.77872e-05
0.0317365
8.69958e-05
0.0264453
0.0220365
8.70846e-05
0.00251542
0.0203477
0.00599655
0.0550928
0.00706481
0.0709265
0.00643052
0.0730643
0.00551562
0.0711502
0.00475592
0.0694536
0.00412089
0.068379
0.00356382
0.06763
0.00306891
0.0670584
0.00262858
0.0666078
0.00223658
0.0662467
0.00188751
0.0659527
0.00157689
0.0657094
0.00130097
0.0655049
0.00105671
0.0653301
0.000841646
0.0651781
0.000653844
0.0650437
0.000491826
0.0649227
0.000354496
0.0648121
0.000241073
0.0647095
0.000151022
0.0646131
8.38898e-05
0.0645222
3.87874e-05
0.0644375
1.57105e-05
0.0549173
5.53632e-06
0.045732
1.91557e-06
0.0380933
1.31481e-06
0.0317371
2.03693e-06
0.0264446
0.0220349
3.67789e-06
0.00175112
0.0185966
0.0048655
0.0519784
0.00628505
0.0695069
0.00603074
0.0733186
0.00528205
0.0718989
0.00459679
0.0701389
0.00401548
0.0689603
0.00349806
0.0681475
0.00302865
0.0675278
0.00260221
0.0670343
0.00221527
0.0666336
0.00186469
0.0663032
0.00154776
0.0660263
0.00126217
0.0657905
0.00100604
0.0655862
0.000777877
0.0654063
0.000576586
0.065245
0.000401405
0.0650979
0.000251883
0.0649616
0.000127828
0.0648335
2.92053e-05
0.0647118
-4.40481e-05
0.0645954
-9.25623e-05
0.0644861
-0.000116185
0.0549409
-0.000125048
0.0457409
-0.000126281
0.0380946
-0.000123923
0.0317347
-0.000119928
0.0264406
0.0220302
-0.000115183
0.0012405
0.0173561
0.00394573
0.0492732
0.00552945
0.0679232
0.00557763
0.0732704
0.00498996
0.0724866
0.00437371
0.0707551
0.003839
0.069495
0.00335881
0.0686276
0.00291613
0.0679705
0.00250657
0.0674438
0.00212836
0.0670119
0.00178008
0.0666515
0.00146044
0.066346
0.00116839
0.0660826
0.000903114
0.0658515
0.000664056
0.0656453
0.000450939
0.0654581
0.000263759
0.0652851
0.000102745
0.0651226
-3.1694e-05
0.064968
-0.000138977
0.0648191
-0.000218462
0.0646749
-0.000270147
0.0645377
-0.000293847
0.0549646
-0.000300872
0.0457479
-0.000299215
0.0380929
-0.000293435
0.031729
-0.000285804
0.026433
0.0220217
-0.000277312
0.000906489
0.0164496
0.00321802
0.0469616
0.00484122
0.0663
0.00511525
0.0729964
0.00467499
0.0729269
0.00412134
0.0713088
0.00362347
0.0699929
0.00317326
0.0690778
0.00275363
0.0683901
0.00235962
0.0678379
0.00199022
0.0673812
0.00164502
0.0669967
0.00132376
0.0666672
0.00102633
0.06638
0.000752772
0.0661251
0.000503365
0.0658948
0.000278599
0.0656829
7.91568e-05
0.0654845
-9.40954e-05
0.0652959
-0.000240013
0.0651139
-0.00035719
0.0649362
-0.000444215
0.0647619
-0.000500455
0.064594
-0.00052521
0.0549894
-0.000530854
0.0457535
-0.000526283
0.0380884
-0.000516656
0.0317193
-0.000504689
0.026421
0.0220087
-0.000491753
0.000689355
0.0157603
0.0026488
0.0450022
0.00423259
0.0647162
0.00466472
0.0725642
0.00435378
0.0732378
0.00385753
0.071805
0.00338845
0.0704619
0.00296045
0.0695059
0.00255837
0.0687922
0.00217638
0.0682199
0.00181357
0.0677441
0.00147007
0.0673402
0.00114626
0.0669911
0.000842664
0.0666836
0.000560013
0.0664077
0.000299243
0.0661555
6.14397e-05
0.0659207
-0.000152131
0.0656981
-0.000339864
0.0654836
-0.000499787
0.0652738
-0.000629677
0.0650661
-0.000727293
0.0648595
-0.000791182
0.0646579
-0.000819472
0.0550176
-0.000825483
0.0457595
-0.000819039
0.0380819
-0.000806012
0.0317063
-0.000789694
0.0264047
0.021991
-0.000771955
0.000545531
0.0152148
0.00220374
0.043344
0.00370272
0.0632172
0.00423746
0.0720295
0.00403554
0.0734397
0.00359163
0.0722489
0.00314523
0.0709083
0.00273257
0.0699185
0.00234242
0.0691824
0.00196819
0.0685941
0.00160869
0.0681036
0.00126425
0.0676847
0.000935597
0.0673197
0.000623695
0.0669955
0.000329745
0.0667017
5.51031e-05
0.0664302
-0.000198699
0.0661745
-0.000429746
0.0659291
-0.000635687
0.0656896
-0.000813808
0.0654519
-0.00096109
0.0652134
-0.00107443
0.0649729
-0.00115145
0.0647349
-0.00118804
0.0550542
-0.00119815
0.0457696
-0.0011925
0.0380763
-0.00117777
0.0316916
-0.00115803
0.0263849
0.0219688
-0.00113587
0.000445781
0.014769
0.00185246
0.0419373
0.00324428
0.0618254
0.00383916
0.0714346
0.00372626
0.0735526
0.00332949
0.0726457
0.00290115
0.0713367
0.00249805
0.0703216
0.00211455
0.0695659
0.00174373
0.0689649
0.00138385
0.0684634
0.00103519
0.0680333
0.000698611
0.0676563
0.000375306
0.0673188
6.66873e-05
0.0670103
-0.000225643
0.0667225
-0.000499673
0.0664485
-0.000752878
0.0661823
-0.000982312
0.065919
-0.0011846
0.0656542
-0.00135599
0.0653848
-0.00149262
0.0651095
-0.00159128
0.0648336
-0.00164413
0.0551071
-0.00166513
0.0457907
-0.00166562
0.0380767
-0.00165305
0.031679
-0.00163244
0.0263643
0.0219438
-0.00160741
0.00037239
0.0143966
0.00157096
0.0407387
0.00284758
0.0605488
0.00347146
0.0708108
0.00342956
0.0735945
0.00307496
0.0730003
0.00266137
0.0717502
0.0022633
0.0707197
0.00188182
0.0699473
0.00151027
0.0693365
0.00114628
0.0688274
0.000789855
0.0683897
0.000441783
0.0680044
0.000103241
0.0676573
-0.000224365
0.0673379
-0.000539192
0.0670373
-0.000838805
0.0667481
-0.00112026
0.0664638
-0.00138011
0.0661788
-0.00161438
0.0658885
-0.00181871
0.0655891
-0.00198872
0.0652795
-0.00212086
0.0649657
-0.00220196
0.0551882
-0.0022451
0.0458338
-0.0022614
0.038093
-0.00225863
0.0316762
-0.00224278
0.0263485
0.0219199
-0.00221892
0.000315312
0.0140813
0.00134342
0.0397106
0.00250618
0.059386
0.00313602
0.0701809
0.00314815
0.0735824
0.00283029
0.0733182
0.00242906
0.0721515
0.00203272
0.071116
0.00164953
0.0703305
0.00127363
0.0697124
0.000902075
0.069199
0.000534414
0.0687574
0.000171183
0.0683676
-0.000186737
0.0680153
-0.000537979
0.0676891
-0.000880525
0.0673799
-0.00121174
0.0670793
-0.00152838
0.0667804
-0.00182654
0.066477
-0.00210172
0.0661637
-0.00234907
0.0658365
-0.00256411
0.0654946
-0.0027441
0.0651457
-0.00287
0.0553141
-0.00295354
0.0459173
-0.00300397
0.0381435
-0.00302713
0.0316994
-0.00302838
0.0263497
0.0219055
-0.00301396
0.000231346
0.0138499
0.000986797
0.0389552
0.00188263
0.0584902
0.00240722
0.0696563
0.00244953
0.0735401
0.00220653
0.0735612
0.00187674
0.0724813
0.0015426
0.0714502
0.00121641
0.0706567
0.000894139
0.0700346
0.000572832
0.0695203
0.000251633
0.0690786
-6.94488e-05
0.0686887
-0.000389952
0.0683358
-0.000708895
0.0680081
-0.00102469
0.0676957
-0.00133516
0.0673898
-0.00163747
0.0670827
-0.00192801
0.0667675
-0.00220247
0.0664381
-0.00245607
0.0660901
-0.00268454
0.065723
-0.00288621
0.0653473
-0.0030404
0.0554683
-0.00315837
0.0460353
-0.00324737
0.0382325
-0.003309
0.031761
-0.00334357
0.0263843
0.0219171
-0.00335518
0.00017323
0.0136767
0.000736061
0.0383923
0.00142708
0.0577992
0.00185615
0.0692273
0.00190965
0.0734866
0.00172275
0.0737481
0.00145332
0.0727507
0.0011745
0.071729
0.000900037
0.0709312
0.000627129
0.0703075
0.000352926
0.0697945
7.62982e-05
0.0693552
-0.000203197
0.0689682
-0.000485463
0.068618
-0.000769951
0.0682926
-0.00105566
0.0679814
-0.00134104
0.0676752
-0.00162387
0.0673656
-0.00190112
0.0670448
-0.00216892
0.0667059
-0.00242259
0.0663437
-0.00265748
0.0659579
-0.00287107
0.0655609
-0.00304047
0.0556377
-0.00317928
0.0461741
-0.00329916
0.0383524
-0.003405
0.0318669
-0.00349467
0.026474
0.0219771
-0.00355463
0.000133869
0.0135428
0.000561952
0.0379642
0.00110128
0.0572599
0.00145137
0.0688772
0.0015066
0.0734313
0.00136129
0.0738934
0.00114102
0.072971
0.000908968
0.071961
0.000678752
0.0711614
0.000448467
0.0705378
0.000215475
0.0700275
-2.15377e-05
0.0695922
-0.00026316
0.0692098
-0.000509686
0.0688646
-0.000761003
0.0685439
-0.00101666
0.068237
-0.00127573
0.0679342
-0.00153673
0.0676266
-0.00179739
0.0673055
-0.00205458
0.0669631
-0.00230409
0.0665933
-0.00254102
0.0661948
-0.00276056
0.0657805
-0.00293357
0.0558107
-0.00307167
0.0463122
-0.00319206
0.0384728
-0.00330914
0.0319839
-0.00344096
0.0266058
0.022135
-0.00359889
0.000102776
0.01344
0.000436417
0.0376306
0.000865906
0.0568304
0.00115361
0.0685895
0.00120458
0.0733804
0.00108809
0.0740099
0.000906446
0.0731526
0.000713462
0.072154
0.000521063
0.0713538
0.000327516
0.0707314
0.000130396
0.0702246
-7.15976e-05
0.0697942
-0.000279195
0.0694174
-0.000492861
0.0690782
-0.000712868
0.0687639
-0.000939235
0.0684634
-0.00117164
0.0681667
-0.00140929
0.0678642
-0.00165077
0.0675469
-0.00189392
0.0672063
-0.00213577
0.0668351
-0.00237255
0.0664316
-0.00259924
0.0660072
-0.00277979
0.0559912
-0.00291437
0.0464468
-0.00301004
0.0385684
-0.00307685
0.0320507
-0.00313205
0.026661
-0.00331291
0.0223159
0.000118604
0.0219828
0.000160685
0.0219853
0.000193823
0.0219942
0.000224616
0.0219966
0.00024959
0.0220024
0.000270033
0.0220069
0.000287444
0.0220099
0.000298537
0.0220163
0.000307621
0.0220183
0.000311682
0.0220233
0.000312674
0.0220264
0.000311136
0.0220289
0.00030515
0.0220333
0.000297558
0.0220349
0.000286711
0.0220382
0.000273553
0.0220405
0.000259053
0.0220419
0.000241569
0.0220448
0.000223013
0.0220459
0.000203209
0.0220472
0.000181833
0.0220487
0.000159833
0.0220494
0.000137154
0.02205
0.000113956
0.0220506
9.0638e-05
0.0220507
6.7368e-05
0.0220506
4.45308e-05
0.0220502
2.21239e-05
0.0220498
4.67919e-07
0.022049
-1.97969e-05
0.0220476
-3.91677e-05
0.0220467
-5.68136e-05
0.022045
-7.24304e-05
0.022043
-8.67838e-05
0.0220417
-9.78342e-05
0.0220384
-0.000106906
0.0220364
-0.000113691
0.0220341
-0.000116294
0.02203
-0.000117109
0.0220282
-0.000113242
0.0220235
-0.000106209
0.0220203
-9.60445e-05
0.0220172
-8.00699e-05
0.0220114
-6.19261e-05
0.0220092
-3.70537e-05
0.0220025
-8.72811e-06
0.021999
2.44161e-05
0.0219942
6.39272e-05
0.0219878
0.0219853
0.000105949
0.000172233
0.0219385
0.000214224
0.0219433
0.000247501
0.0219609
0.000278674
0.0219654
0.000304276
0.0219768
0.000325592
0.0219856
0.00034411
0.0219914
0.000356539
0.0220038
0.00036717
0.0220076
0.000372983
0.0220175
0.000375912
0.0220234
0.000376486
0.0220283
0.000372777
0.022037
0.000367607
0.0220401
0.00035932
0.0220465
0.000348842
0.022051
0.000337127
0.0220536
0.000322529
0.0220594
0.000306935
0.0220615
0.00029016
0.0220639
0.000271871
0.022067
0.000252994
0.0220682
0.000233466
0.0220696
0.000213436
0.0220706
0.000193283
0.0220708
0.000173165
0.0220707
0.00015346
0.0220699
0.000134144
0.0220691
0.000115529
0.0220676
9.8249e-05
0.0220649
8.17814e-05
0.0220632
6.69506e-05
0.0220598
5.40459e-05
0.0220559
4.2279e-05
0.0220535
3.36914e-05
0.022047
2.69332e-05
0.0220432
2.23003e-05
0.0220388
2.16857e-05
0.0220306
2.26681e-05
0.0220272
2.81429e-05
0.022018
3.65726e-05
0.0220119
4.791e-05
0.0220059
6.48319e-05
0.0219945
8.36671e-05
0.0219904
0.000108982
0.0219772
0.000137468
0.0219705
0.000170477
0.0219612
0.000209532
0.0219488
0.0219441
0.000250755
0.000200313
0.0218942
0.000242491
0.0219011
0.000276211
0.0219272
0.000308087
0.0219335
0.00033465
0.0219502
0.000357177
0.0219631
0.000377144
0.0219715
0.00039125
0.0219897
0.000403772
0.0219951
0.00041168
0.0220096
0.000416896
0.0220182
0.000419933
0.0220253
0.000418855
0.0220381
0.000416467
0.0220425
0.0004111
0.0220519
0.00040367
0.0220584
0.000395111
0.0220621
0.000383771
0.0220708
0.000371519
0.0220738
0.000358155
0.0220773
0.000343337
0.0220818
0.000327973
0.0220836
0.000311986
0.0220855
0.000295517
0.0220871
0.000278925
0.0220874
0.000262355
0.0220873
0.000246177
0.0220861
0.000230346
0.0220849
0.000215164
0.0220828
0.000201253
0.0220788
0.000188072
0.0220764
0.000176436
0.0220715
0.000166623
0.0220657
0.000157822
0.0220623
0.000152076
0.0220527
0.00014801
0.0220473
0.000145908
0.0220409
0.00014766
0.0220288
0.000150816
0.022024
0.000158274
0.0220106
0.000168474
0.0220017
0.000181354
0.021993
0.00019959
0.0219762
0.000219479
0.0219705
0.000245593
0.0219511
0.000274594
0.0219415
0.000307823
0.021928
0.00034679
0.0219098
0.0219033
0.000387575
0.000204379
0.0218495
0.000247259
0.0218582
0.000281917
0.0218926
0.000314994
0.0219004
0.000343021
0.0219222
0.000367271
0.0219388
0.000389215
0.0219495
0.000405539
0.0219734
0.000420511
0.0219801
0.000431085
0.021999
0.000439171
0.0220101
0.000445269
0.0220192
0.00044743
0.022036
0.000448443
0.0220415
0.000446627
0.0220537
0.000442882
0.0220622
0.000438127
0.0220669
0.000430698
0.0220782
0.000422447
0.022082
0.00041316
0.0220866
0.000402482
0.0220925
0.000391302
0.0220948
0.000379531
0.0220973
0.000367296
0.0220993
0.000354939
0.0220998
0.000342591
0.0220997
0.000330611
0.0220981
0.000318934
0.0220966
0.000307848
0.0220939
0.000297968
0.0220887
0.000288728
0.0220856
0.000280937
0.0220793
0.000274857
0.0220718
0.000269659
0.0220675
0.000267382
0.022055
0.000266629
0.022048
0.000267673
0.0220398
0.000272398
0.0220241
0.00027833
0.0220181
0.000288366
0.0220005
0.000300926
0.0219891
0.000315936
0.021978
0.000336069
0.0219561
0.000357594
0.021949
0.000385088
0.0219236
0.000415185
0.0219114
0.000449215
0.0218939
0.00048868
0.0218704
0.0218624
0.000529619
0.000183389
0.0218035
0.000227688
0.0218139
0.000264
0.0218563
0.000299002
0.0218654
0.000329226
0.021892
0.000355946
0.0219121
0.000380629
0.0219248
0.000399947
0.0219541
0.000418162
0.0219619
0.000432211
0.0219849
0.000443995
0.0219983
0.000453998
0.0220092
0.000460255
0.0220297
0.000465542
0.0220362
0.000468162
0.0220511
0.000469001
0.0220613
0.000468962
0.0220669
0.000466364
0.0220808
0.000463044
0.0220853
0.00045877
0.0220909
0.000453174
0.0220981
0.000447127
0.0221008
0.000440523
0.0221039
0.000433475
0.0221063
0.000426306
0.0221069
0.000419133
0.0221068
0.000412299
0.0221049
0.000405722
0.0221032
0.000399675
0.0220999
0.000394759
0.0220936
0.000390388
0.02209
0.000387361
0.0220823
0.000385925
0.0220732
0.000385229
0.0220682
0.000387311
0.0220529
0.000390751
0.0220446
0.000395807
0.0220348
0.000404362
0.0220155
0.000413914
0.0220085
0.000427363
0.0219871
0.000443108
0.0219734
0.000461062
0.02196
0.000483903
0.0219333
0.000507866
0.021925
0.000537542
0.0218939
0.000569537
0.0218794
0.000605174
0.0218583
0.000645946
0.0218296
0.0218205
0.00068785
0.000135148
0.0217554
0.000181783
0.0217673
0.000220691
0.0218173
0.000258557
0.0218276
0.000291924
0.0218586
0.000322089
0.0218819
0.000350514
0.0218964
0.00037385
0.0219308
0.000396361
0.0219394
0.000414962
0.0219663
0.000431542
0.0219818
0.000446573
0.0219942
0.000458069
0.0220182
0.000468797
0.0220255
0.000477038
0.0220428
0.000483662
0.0220547
0.000489556
0.022061
0.000493019
0.0220773
0.000495873
0.0220825
0.000497868
0.0220889
0.000498615
0.0220974
0.000498969
0.0221005
0.000498805
0.0221041
0.000498219
0.0221069
0.000497513
0.0221076
0.000496786
0.0221076
0.000496368
0.0221053
0.000496152
0.0221034
0.000496395
0.0220997
0.000497687
0.0220923
0.000499416
0.0220883
0.000502369
0.0220793
0.000506779
0.0220688
0.00051177
0.0220632
0.000519378
0.0220453
0.000528159
0.0220358
0.000538355
0.0220246
0.00055185
0.022002
0.000566109
0.0219943
0.00058404
0.0219691
0.00060402
0.0219534
0.000625947
0.0219381
0.000652507
0.0219067
0.000679902
0.0218976
0.000712741
0.021861
0.000747597
0.0218446
0.000785789
0.0218201
0.000828806
0.0217866
0.0217767
0.000872593
5.52073e-05
0.0217039
0.000105747
0.0217168
0.000148481
0.0217746
0.000190507
0.0217855
0.000228359
0.0218207
0.000263291
0.021847
0.000296757
0.0218629
0.000325432
0.0219021
0.0003536
0.0219113
0.000378142
0.0219418
0.000400941
0.021959
0.000422454
0.0219726
0.00044067
0.022
0.000458347
0.0220078
0.000473744
0.0220274
0.000487712
0.0220407
0.000501122
0.0220476
0.000512247
0.0220662
0.000522894
0.0220718
0.000532789
0.022079
0.000541525
0.0220886
0.000549934
0.0220921
0.000557869
0.0220962
0.000565406
0.0220994
0.000572826
0.0221002
0.000580204
0.0221002
0.000587853
0.0220977
0.000595639
0.0220956
0.000603801
0.0220915
0.000612912
0.0220832
0.000622332
0.0220788
0.000632834
0.0220688
0.000644633
0.022057
0.000656824
0.022051
0.000671445
0.0220307
0.000687018
0.0220202
0.000703772
0.0220078
0.00072359
0.0219822
0.000743901
0.021974
0.000767624
0.0219454
0.000793108
0.0219279
0.000820241
0.0219109
0.00085172
0.0218752
0.000883704
0.0218656
0.000920832
0.0218239
0.00095964
0.0218058
0.00100145
0.0217783
0.00104773
0.0217403
0.02173
0.00109439
-5.99567e-05
0.0216487
-5.62007e-06
0.0216624
4.24029e-05
0.0217266
9.03184e-05
0.0217376
0.000134474
0.0217766
0.000175599
0.0218059
0.000215798
0.0218227
0.000251545
0.0218663
0.000287091
0.0218757
0.000319296
0.0219096
0.000350083
0.0219282
0.000379896
0.0219428
0.000406692
0.0219732
0.000433224
0.0219813
0.000457718
0.0220029
0.00048101
0.0220174
0.000503948
0.0220247
0.000524778
0.0220454
0.000545286
0.0220513
0.000565173
0.0220591
0.000584007
0.0220698
0.000602594
0.0220735
0.000620761
0.022078
0.000638561
0.0220816
0.000656243
0.0220825
0.000673858
0.0220826
0.000691696
0.0220798
0.000709591
0.0220777
0.000727756
0.0220734
0.000746746
0.0220642
0.000765884
0.0220597
0.000785927
0.0220488
0.000807069
0.0220359
0.000828367
0.0220297
0.000851861
0.0220072
0.000876035
0.021996
0.000901099
0.0219828
0.000928939
0.0219544
0.000956938
0.021946
0.000988032
0.0219143
0.00102054
0.0218954
0.00105433
0.0218772
0.00109212
0.0218374
0.00113002
0.0218277
0.00117271
0.0217812
0.00121668
0.0217618
0.00126325
0.0217317
0.0013139
0.0216896
0.0216795
0.00136446
-0.000215877
0.0215872
-0.000154782
0.0216013
-0.000100841
0.0216726
-4.6917e-05
0.0216837
3.61739e-06
0.0217261
5.32375e-05
0.0217563
0.00010227
0.0217737
0.00014729
0.0218213
0.000192108
0.0218309
0.000234141
0.0218676
0.000275158
0.0218872
0.000315545
0.0219024
0.000353239
0.0219355
0.000391
0.0219435
0.000427021
0.0219669
0.000462119
0.0219823
0.000497118
0.0219897
0.000530228
0.0220123
0.000563218
0.0220183
0.000595753
0.0220265
0.000627371
0.0220382
0.000658846
0.022042
0.000689973
0.0220469
0.000720772
0.0220508
0.000751455
0.0220519
0.000782037
0.022052
0.000812784
0.0220491
0.000843482
0.022047
0.000874314
0.0220425
0.00090581
0.0220327
0.000937244
0.0220283
0.000969353
0.0220167
0.0010023
0.0220029
0.00103509
0.0219969
0.00106978
0.0219725
0.0011048
0.021961
0.00114032
0.0219472
0.00117825
0.0219165
0.0012159
0.0219083
0.00125624
0.021874
0.00129754
0.0218541
0.00133966
0.021835
0.00138535
0.0217917
0.00143064
0.0217824
0.00148028
0.0217316
0.00153069
0.0217114
0.00158321
0.0216792
0.00163933
0.0216335
0.021624
0.00169479
-0.00042313
0.0215186
-0.000354283
0.0215325
-0.000291589
0.02161
-0.000228112
0.0216202
-0.000167433
0.0216654
-0.000108861
0.0216977
-5.03593e-05
0.0217152
4.68052e-06
0.0217663
6.16205e-05
0.0217739
0.000116104
0.0218131
0.000169948
0.0218333
0.000223583
0.0218488
0.000274993
0.0218841
0.000326912
0.0218916
0.000377477
0.0219163
0.000427482
0.0219323
0.000477729
0.0219394
0.000526379
0.0219636
0.000575178
0.0219695
0.00062375
0.021978
0.00067159
0.0219903
0.000719432
0.0219942
0.000767025
0.0219993
0.000814349
0.0220035
0.000861563
0.0220047
0.000908637
0.0220049
0.000955798
0.0220019
0.00100277
0.022
0.00104969
0.0219956
0.00109707
0.0219853
0.00114409
0.0219812
0.00119148
0.0219693
0.00123936
0.021955
0.00128666
0.0219496
0.00133545
0.0219237
0.00138408
0.0219124
0.0014327
0.0218986
0.00148323
0.0218659
0.00153289
0.0218587
0.0015847
0.0218222
0.00163686
0.021802
0.00168922
0.0217827
0.00174457
0.0217364
0.00179886
0.0217281
0.00185691
0.0216735
0.00191508
0.0216532
0.00197472
0.0216196
0.00203734
0.0215709
0.0215628
0.00209859
-0.000694607
0.0214413
-0.000616254
0.0214541
-0.000543461
0.0215372
-0.000469173
0.0215459
-0.000396938
0.0215931
-0.000325345
0.0216261
-0.000252965
0.0216428
-0.000183375
0.0216967
-0.00011275
0.0217033
-4.38198e-05
0.0217442
2.54709e-05
0.021764
9.55238e-05
0.0217788
0.000163941
0.0218157
0.000233474
0.0218221
0.000302227
0.0218476
0.000370965
0.0218636
0.000440441
0.02187
0.000508745
0.0218953
0.00057759
0.0219007
0.000646537
0.021909
0.000715024
0.0219218
0.000783727
0.0219255
0.000852331
0.0219307
0.000920758
0.021935
0.000989095
0.0219363
0.00105725
0.0219368
0.00112539
0.0219338
0.00119315
0.0219323
0.00126062
0.0219281
0.00132824
0.0219177
0.00139512
0.0219144
0.00146193
0.0219025
0.00152873
0.0218882
0.00159438
0.0218839
0.00166093
0.0218572
0.00172665
0.0218467
0.00179164
0.0218336
0.00185783
0.0217997
0.00192234
0.0217942
0.00198822
0.0217563
0.00205363
0.0217365
0.00211838
0.0217179
0.00218531
0.0216695
0.00225028
0.0216632
0.00231822
0.0216056
0.0023854
0.021586
0.0024532
0.0215518
0.00252316
0.0215009
0.0214951
0.00259083
-0.00104867
0.0213541
-0.000959342
0.0213648
-0.000874608
0.0214524
-0.000787297
0.0214586
-0.000701102
0.0215069
-0.000614703
0.0215397
-0.000526543
0.0215547
-0.000440209
0.0216103
-0.00035119
0.0216143
-0.000262982
0.0216559
-0.000173781
0.0216748
-8.32606e-05
0.0216882
6.42728e-06
0.021726
9.80749e-05
0.0217304
0.00018969
0.021756
0.000282137
0.0217712
0.000376022
0.0217761
0.000469349
0.021802
0.000563775
0.0218063
0.000658775
0.021814
0.00075371
0.0218269
0.000849177
0.02183
0.000944773
0.0218351
0.00104034
0.0218395
0.00113587
0.0218408
0.00123116
0.0218415
0.00132632
0.0218386
0.00142085
0.0218377
0.00151475
0.0218343
0.00160838
0.0218241
0.00170072
0.021822
0.00179237
0.0218108
0.00188332
0.0217973
0.00197226
0.021795
0.00206129
0.0217682
0.0021485
0.0217595
0.00223395
0.0217482
0.00231958
0.0217141
0.00240237
0.0217114
0.00248542
0.0216732
0.00256681
0.0216552
0.00264632
0.0216384
0.00272688
0.0215889
0.0028042
0.0215858
0.00288339
0.0215264
0.00296061
0.0215088
0.00303729
0.0214751
0.00311504
0.0214232
0.0214209
0.00318928
-0.00150969
0.0212563
-0.00140826
0.0212634
-0.0013101
0.0213543
-0.00120787
0.0213564
-0.00110537
0.0214045
-0.00100122
0.0214355
-0.000893857
0.0214473
-0.000787025
0.0215035
-0.000676179
0.0215035
-0.000564811
0.0215446
-0.000450986
0.021561
-0.000334409
0.0215717
-0.000217476
0.0216091
-9.74188e-05
0.0216104
2.35759e-05
0.021635
0.000145997
0.0216487
0.000270974
0.0216511
0.00039628
0.0216767
0.000523503
0.021679
0.00065201
0.0216855
0.000781045
0.0216979
0.000911093
0.0216999
0.00104163
0.0217045
0.0011724
0.0217087
0.00130322
0.02171
0.00143379
0.0217109
0.00156407
0.0217083
0.00169339
0.0217084
0.00182161
0.021706
0.001949
0.0216967
0.00207429
0.0216967
0.00219802
0.0216871
0.00232001
0.0216753
0.00243879
0.0216762
0.00255642
0.0216505
0.00267081
0.0216451
0.00278193
0.021637
0.00289171
0.0216043
0.00299694
0.0216061
0.00310082
0.0215694
0.00320128
0.0215547
0.0032981
0.0215416
0.00339433
0.0214927
0.00348551
0.0214947
0.00357697
0.021435
0.00366478
0.021421
0.00375047
0.0213894
0.00383573
0.0213379
0.0213407
0.00391586
-0.0021115
0.0211489
-0.00199813
0.02115
-0.00188611
0.0212422
-0.00176774
0.021238
-0.00164696
0.0212837
-0.00152228
0.0213109
-0.00139208
0.0213171
-0.0012603
0.0213717
-0.00112224
0.0213654
-0.000981681
0.021404
-0.00083675
0.0214161
-0.000687272
0.0214222
-0.000535832
0.0214576
-0.000379668
0.0214542
-0.000221054
0.0214764
-5.93362e-05
0.021487
0.000105513
0.0214862
0.000271729
0.0215105
0.00044123
0.0215095
0.000613025
0.0215137
0.000786259
0.0215246
0.000961275
0.0215249
0.00113739
0.0215284
0.00131419
0.0215319
0.0014913
0.0215329
0.0016682
0.021534
0.00184469
0.0215318
0.00201983
0.0215333
0.00219324
0.0215326
0.002365
0.0215249
0.00253356
0.0215282
0.00269926
0.0215214
0.00286173
0.0215128
0.00301919
0.0215188
0.00317366
0.0214961
0.00332277
0.021496
0.00346633
0.0214935
0.00360628
0.0214644
0.00373911
0.0214733
0.00386814
0.0214403
0.00399114
0.0214317
0.00410785
0.0214249
0.00422149
0.021379
0.00432742
0.0213887
0.00443132
0.0213311
0.00452913
0.0213232
0.00462258
0.021296
0.00471356
0.0212469
0.021257
0.00479727
-0.00290012
0.0210351
-0.00277675
0.0210266
-0.00265201
0.0211175
-0.00251758
0.0211036
-0.00237729
0.0211434
-0.00222928
0.0211629
-0.00207182
0.0211596
-0.00190917
0.0212091
-0.00173671
0.0211929
-0.00155871
0.021226
-0.00137356
0.0212309
-0.0011814
0.02123
-0.000985139
0.0212614
-0.000782156
0.0212512
-0.000574986
0.0212692
-0.000363087
0.0212751
-0.000145785
0.0212689
7.4099e-05
0.0212906
0.000297936
0.0212857
0.000525933
0.0212857
0.000756776
0.0212938
0.000990679
0.021291
0.00122679
0.0212923
0.00146448
0.0212942
0.00170308
0.0212943
0.00194176
0.0212953
0.00218006
0.0212935
0.00241656
0.0212968
0.00265056
0.0212986
0.00288181
0.0212937
0.00310822
0.0213017
0.00332987
0.0212998
0.00354602
0.0212967
0.00375442
0.0213104
0.00395704
0.0212934
0.00415104
0.021302
0.00433601
0.0213085
0.00451389
0.0212865
0.00468074
0.0213065
0.00484004
0.021281
0.00498933
0.0212824
0.00512829
0.0212859
0.00526041
0.0212469
0.0053808
0.0212683
0.00549565
0.0212162
0.00560089
0.021218
0.00569858
0.0211983
0.00579102
0.0211545
0.0211748
0.00587324
-0.00326598
0.0209459
-0.00316578
0.0209264
-0.00305962
0.0210114
-0.00293786
0.0209818
-0.00280339
0.0210089
-0.00265516
0.0210146
-0.00249276
0.0209972
-0.00232119
0.0210375
-0.00213755
0.0210093
-0.00194654
0.021035
-0.00174742
0.0210318
-0.00154079
0.0210234
-0.00132942
0.02105
-0.00111114
0.0210329
-0.000888126
0.0210462
-0.000659862
0.0210469
-0.000425813
0.0210349
-0.000187678
0.0210525
5.58325e-05
0.0210422
0.00030333
0.0210382
0.000555342
0.0210418
0.000811782
0.0210346
0.00107179
0.0210323
0.00133465
0.0210313
0.00159944
0.0210295
0.0018651
0.0210297
0.00213082
0.0210278
0.00239485
0.0210327
0.00265606
0.0210374
0.00291379
0.021036
0.00316561
0.0210499
0.00341115
0.0210542
0.00364933
0.0210585
0.00387768
0.021082
0.00409775
0.0210734
0.00430665
0.0210931
0.0045038
0.0211114
0.00469088
0.0210994
0.00486413
0.0211332
0.00502668
0.0211185
0.00517622
0.0211329
0.00531238
0.0211498
0.00543829
0.021121
0.00554944
0.0211572
0.00565146
0.0211142
0.00574077
0.0211287
0.0058196
0.0211194
0.00589065
0.0210834
0.0211152
0.00595023
-0.00348769
0.020879
-0.00341994
0.0208587
-0.00334272
0.0209341
-0.00323902
0.0208781
-0.0031109
0.0208808
-0.00296025
0.020864
-0.00279035
0.0208273
-0.00260862
0.0208558
-0.00241471
0.0208154
-0.00221402
0.0208343
-0.0020066
0.0208244
-0.00179321
0.02081