/*--------------------------------*- C++ -*----------------------------------*\
| =========                 |                                                 |
| \\      /  F ield         | OpenFOAM: The Open Source CFD Toolbox           |
|  \\    /   O peration     | Version:  2312                                  |
|   \\  /    A nd           | Website:  www.openfoam.com                      |
|    \\/     M anipulation  |                                                 |
\*---------------------------------------------------------------------------*/
FoamFile
{
    version     2.0;
    format      ascii;
    arch        "LSB;label=32;scalar=64";
    class       volScalarField;
    location    "25.566820227399802";
    object      p;
}
// * * * * * * * * * * * * * * * * * * * * * * * * * * * * * * * * * * * * * //

dimensions      [0 2 -2 0 0 0 0];

internalField   nonuniform List<scalar> 
21039
(
0.592526
0.458731
0.416541
0.388276
0.366934
0.350825
0.338349
0.328402
0.320302
0.313597
0.30797
0.303191
0.299088
0.295529
0.292411
0.28965
0.287179
0.284942
0.28289
0.280983
0.279186
0.277468
0.2758
0.274257
0.272913
0.271727
0.270656
0.269665
0.268736
0.445438
0.407589
0.393755
0.375369
0.358583
0.345267
0.334478
0.325581
0.318182
0.31197
0.306701
0.302189
0.298291
0.294893
0.291904
0.289249
0.286867
0.284704
0.282716
0.280864
0.279113
0.277434
0.275798
0.274276
0.272939
0.271754
0.270683
0.269691
0.268761
0.356015
0.353637
0.3558
0.349043
0.340583
0.33276
0.325469
0.318891
0.313099
0.308033
0.303604
0.299725
0.296316
0.293304
0.290627
0.288229
0.286062
0.284084
0.282255
0.280542
0.278913
0.27734
0.275797
0.274347
0.273061
0.271913
0.27087
0.269901
0.268989
0.317929
0.320055
0.324536
0.323453
0.320824
0.31758
0.313743
0.30978
0.305956
0.302375
0.299079
0.296081
0.293367
0.290916
0.288699
0.286685
0.284845
0.283148
0.281566
0.280073
0.278641
0.277245
0.275862
0.274547
0.273364
0.272297
0.271316
0.270395
0.26952
0.292926
0.2969
0.302809
0.304532
0.304733
0.303991
0.302431
0.300464
0.298313
0.296102
0.293926
0.291845
0.289888
0.288067
0.286381
0.284823
0.283378
0.28203
0.28076
0.279547
0.278372
0.277212
0.276048
0.27492
0.273885
0.272932
0.272041
0.271188
0.270363
0.27331
0.278566
0.285942
0.289833
0.291851
0.292656
0.292573
0.29198
0.29106
0.289937
0.288712
0.287457
0.286215
0.285017
0.283876
0.282799
0.281785
0.280825
0.27991
0.279025
0.278155
0.27728
0.276384
0.27549
0.27464
0.273833
0.273055
0.272289
0.271528
0.260574
0.265592
0.272713
0.277689
0.280934
0.282887
0.283907
0.284339
0.28436
0.284101
0.283663
0.283121
0.282524
0.281909
0.281298
0.280706
0.280136
0.27959
0.279062
0.278541
0.278017
0.277472
0.276892
0.276276
0.275651
0.275022
0.274385
0.273727
0.273046
0.253317
0.257409
0.263174
0.268158
0.271897
0.274505
0.276266
0.277447
0.278195
0.278631
0.27885
0.278923
0.278902
0.278825
0.278719
0.278602
0.278482
0.278364
0.278245
0.27812
0.277978
0.277806
0.277589
0.277299
0.276941
0.276525
0.276057
0.275532
0.274952
0.248838
0.252029
0.256418
0.260947
0.264685
0.267523
0.269672
0.271327
0.272594
0.273565
0.274318
0.274914
0.2754
0.275814
0.276183
0.276525
0.276853
0.277171
0.27748
0.277776
0.27805
0.278292
0.278485
0.278571
0.278524
0.278361
0.278096
0.277731
0.277283
0.245477
0.247918
0.251263
0.255262
0.258815
0.261675
0.264
0.265931
0.267544
0.268908
0.270081
0.271111
0.272039
0.272896
0.273707
0.27449
0.275258
0.276016
0.276766
0.277506
0.278228
0.278921
0.279571
0.280084
0.280396
0.280525
0.280493
0.280305
0.279975
0.242527
0.244369
0.246964
0.250452
0.253771
0.256585
0.25899
0.261087
0.262938
0.264594
0.266098
0.267489
0.268799
0.270054
0.271276
0.272481
0.27368
0.274879
0.276081
0.277284
0.278481
0.279664
0.280819
0.281815
0.282539
0.28301
0.283256
0.283289
0.283121
0.239671
0.241068
0.243134
0.246158
0.24923
0.251969
0.254405
0.256609
0.258632
0.260513
0.262288
0.263984
0.265629
0.267245
0.26885
0.270458
0.272079
0.27372
0.275382
0.277065
0.278762
0.280467
0.282172
0.283703
0.284894
0.28576
0.286333
0.286625
0.286653
0.236745
0.237833
0.239533
0.242158
0.244993
0.247639
0.250074
0.252345
0.254495
0.256555
0.258553
0.260513
0.262455
0.2644
0.266364
0.268359
0.270395
0.272478
0.274607
0.276782
0.278997
0.281248
0.283533
0.28564
0.287345
0.288656
0.289604
0.290199
0.290457
0.233679
0.234553
0.235992
0.238287
0.240903
0.243451
0.245866
0.248176
0.250419
0.252621
0.254806
0.256993
0.259201
0.261448
0.263749
0.266118
0.268564
0.271088
0.273691
0.276366
0.279109
0.281913
0.284784
0.287473
0.289709
0.291492
0.29285
0.293786
0.294311
0.230449
0.231174
0.232411
0.234416
0.236824
0.23927
0.241653
0.243984
0.246295
0.24861
0.250948
0.25333
0.255774
0.258297
0.260917
0.263648
0.266496
0.269464
0.272547
0.275734
0.27901
0.282363
0.285793
0.289012
0.291719
0.293934
0.295692
0.296986
0.297811
0.227332
0.227949
0.229028
0.230818
0.233059
0.235409
0.237755
0.240095
0.242453
0.244851
0.24731
0.249849
0.252489
0.255251
0.258155
0.261216
0.264443
0.267835
0.271385
0.275073
0.278866
0.282719
0.286599
0.290141
0.293036
0.295378
0.297274
0.298755
0.299814
0.224661
0.225209
0.22619
0.227845
0.229962
0.232228
0.23454
0.236889
0.239288
0.241754
0.244309
0.246976
0.249778
0.252743
0.255893
0.259247
0.262816
0.266602
0.270595
0.274766
0.279058
0.283382
0.287624
0.291258
0.293912
0.295752
0.297047
0.298061
0.299016
0.222425
0.222928
0.223842
0.225399
0.227421
0.229633
0.231942
0.234318
0.236762
0.239292
0.241933
0.244713
0.247663
0.250812
0.254188
0.257813
0.261707
0.265876
0.270311
0.274979
0.279807
0.284661
0.28933
0.293036
0.295156
0.295724
0.295013
0.293546
0.292424
0.220606
0.22116
0.222096
0.223557
0.225415
0.227525
0.229831
0.232254
0.23476
0.23736
0.24009
0.242983
0.246078
0.249406
0.253001
0.256892
0.261106
0.26566
0.270549
0.275746
0.281181
0.286702
0.292038
0.296166
0.298035
0.297146
0.293169
0.285541
0.274005
0.267838
0.266933
0.266031
0.265133
0.264236
0.26334
0.262443
0.261546
0.260646
0.259744
0.258839
0.25793
0.257015
0.256096
0.25517
0.254238
0.253298
0.252351
0.251397
0.250434
0.249463
0.248484
0.247497
0.246503
0.2455
0.24449
0.243472
0.242448
0.241418
0.240382
0.239341
0.238296
0.237247
0.236195
0.235141
0.234085
0.23303
0.231975
0.230922
0.229872
0.228825
0.227784
0.226748
0.22572
0.224699
0.223688
0.222686
0.221695
0.220715
0.267865
0.266969
0.266077
0.265189
0.264302
0.263415
0.262528
0.26164
0.260749
0.259856
0.258958
0.258056
0.257149
0.256236
0.255315
0.254388
0.253452
0.252509
0.251556
0.250595
0.249625
0.248646
0.247658
0.24666
0.245655
0.244641
0.243618
0.242589
0.241552
0.240509
0.23946
0.238406
0.237348
0.236286
0.235221
0.234155
0.233089
0.232022
0.230958
0.229895
0.228836
0.227782
0.226733
0.225692
0.224658
0.223633
0.222619
0.221615
0.220623
0.268115
0.267242
0.266374
0.265507
0.264641
0.263774
0.262906
0.262035
0.26116
0.260282
0.259397
0.258507
0.257609
0.256703
0.255789
0.254865
0.253931
0.252987
0.252033
0.251067
0.250091
0.249104
0.248105
0.247096
0.246077
0.245047
0.244008
0.242959
0.241902
0.240837
0.239765
0.238686
0.237602
0.236514
0.235422
0.234327
0.233231
0.232134
0.231038
0.229944
0.228853
0.227766
0.226684
0.225609
0.224541
0.223482
0.222434
0.221396
0.22037
0.26868
0.267844
0.267008
0.266172
0.265334
0.264494
0.26365
0.262801
0.261946
0.261084
0.260214
0.259335
0.258446
0.257546
0.256634
0.25571
0.254773
0.253823
0.25286
0.251882
0.250891
0.249886
0.248868
0.247836
0.246791
0.245734
0.244664
0.243583
0.242491
0.241389
0.240278
0.239159
0.238033
0.236901
0.235764
0.234622
0.233478
0.232332
0.231186
0.230041
0.228898
0.227758
0.226623
0.225493
0.224371
0.223257
0.222151
0.221057
0.219974
0.26957
0.268781
0.267988
0.267191
0.266389
0.265582
0.264767
0.263944
0.263111
0.262268
0.261412
0.260544
0.259662
0.258765
0.257853
0.256924
0.255979
0.255017
0.254037
0.25304
0.252025
0.250994
0.249945
0.248879
0.247797
0.246699
0.245586
0.244459
0.243318
0.242165
0.241001
0.239826
0.238641
0.237449
0.23625
0.235045
0.233835
0.232623
0.231408
0.230194
0.22898
0.227769
0.226561
0.225358
0.224161
0.222971
0.22179
0.220619
0.219459
0.270795
0.270064
0.269324
0.268575
0.267817
0.267049
0.26627
0.265477
0.264669
0.263847
0.263007
0.26215
0.261273
0.260377
0.259461
0.258523
0.257564
0.256583
0.25558
0.254555
0.253508
0.252439
0.251349
0.250237
0.249106
0.247954
0.246785
0.245597
0.244393
0.243173
0.241938
0.240691
0.239432
0.238162
0.236883
0.235596
0.234303
0.233005
0.231704
0.230401
0.229098
0.227796
0.226496
0.2252
0.22391
0.222626
0.221349
0.220082
0.218826
0.272385
0.271723
0.271045
0.270354
0.269649
0.268927
0.268189
0.267431
0.266652
0.265853
0.26503
0.264183
0.263311
0.262413
0.261489
0.260537
0.259558
0.258551
0.257517
0.256454
0.255364
0.254247
0.253103
0.251934
0.250739
0.24952
0.248279
0.247015
0.245731
0.244427
0.243106
0.241768
0.240415
0.239049
0.237672
0.236284
0.234888
0.233485
0.232078
0.230666
0.229253
0.22784
0.226428
0.225019
0.223615
0.222216
0.220824
0.219441
0.21807
0.274378
0.273792
0.273187
0.272563
0.271919
0.271251
0.270559
0.26984
0.269094
0.268319
0.267514
0.266677
0.265807
0.264905
0.263968
0.262997
0.261991
0.260951
0.259875
0.258766
0.257622
0.256445
0.255235
0.253994
0.252722
0.251421
0.250091
0.248735
0.247353
0.245948
0.244521
0.243074
0.241609
0.240126
0.238629
0.23712
0.2356
0.23407
0.232534
0.230993
0.229448
0.227902
0.226356
0.224812
0.223272
0.221737
0.220208
0.218689
0.217183
0.276843
0.276249
0.275758
0.275226
0.274651
0.274044
0.273406
0.272733
0.272024
0.271276
0.270489
0.269662
0.268793
0.267883
0.266929
0.265933
0.264894
0.263812
0.262688
0.261521
0.260313
0.259064
0.257775
0.256449
0.255084
0.253684
0.25225
0.250784
0.249287
0.247761
0.246208
0.24463
0.243031
0.24141
0.239771
0.238117
0.236448
0.234768
0.233079
0.231383
0.229683
0.227979
0.226275
0.224571
0.222872
0.221177
0.219488
0.21781
0.216147
0.27964
0.279285
0.278884
0.278436
0.277842
0.27732
0.276756
0.276136
0.275466
0.274748
0.273982
0.273165
0.272296
0.271375
0.270402
0.269376
0.268299
0.267169
0.265987
0.264755
0.263472
0.262141
0.260761
0.259336
0.257865
0.25635
0.254795
0.2532
0.251567
0.2499
0.248199
0.246468
0.24471
0.242926
0.241119
0.239293
0.237448
0.23559
0.23372
0.23184
0.229955
0.228064
0.226173
0.224282
0.222394
0.220512
0.218636
0.216772
0.214927
0.282913
0.282661
0.282351
0.281999
0.281602
0.281153
0.280641
0.280058
0.279429
0.278753
0.278011
0.277204
0.276335
0.275405
0.274413
0.273357
0.272239
0.271058
0.269817
0.268513
0.26715
0.265728
0.264248
0.262712
0.261122
0.259478
0.257784
0.256042
0.254253
0.252422
0.25055
0.248639
0.246694
0.244716
0.24271
0.24068
0.238626
0.236555
0.234468
0.232369
0.230262
0.228149
0.226034
0.22392
0.221809
0.219705
0.217607
0.215526
0.213468
0.286609
0.286497
0.286311
0.286065
0.285757
0.285387
0.284953
0.284456
0.283897
0.283263
0.282551
0.281768
0.280916
0.27999
0.278988
0.277912
0.276761
0.275537
0.27424
0.272868
0.271425
0.269911
0.268326
0.266673
0.264954
0.263168
0.261321
0.259413
0.257446
0.255425
0.253353
0.25123
0.249065
0.246856
0.244611
0.242334
0.240027
0.237696
0.235345
0.232979
0.230603
0.228217
0.225831
0.223445
0.221064
0.218692
0.216329
0.213987
0.211678
0.290607
0.290653
0.290612
0.290499
0.290313
0.290051
0.289714
0.289298
0.288806
0.288234
0.287583
0.28685
0.286033
0.285151
0.284167
0.283099
0.28194
0.280693
0.27936
0.277935
0.276425
0.274828
0.273143
0.271374
0.269522
0.267585
0.265571
0.263479
0.261309
0.25907
0.256762
0.254388
0.251957
0.249467
0.246929
0.244348
0.241725
0.239071
0.236389
0.233687
0.230972
0.228246
0.225519
0.222794
0.220078
0.217375
0.214686
0.212026
0.209411
0.294684
0.294908
0.295037
0.295089
0.295061
0.294952
0.29476
0.294482
0.294119
0.293666
0.293125
0.29249
0.291759
0.290929
0.289996
0.289062
0.287929
0.286697
0.285365
0.28392
0.282371
0.280715
0.278948
0.277075
0.275095
0.273004
0.270811
0.268515
0.266114
0.263618
0.261029
0.258348
0.255586
0.252744
0.249833
0.246861
0.24383
0.240756
0.237643
0.234501
0.231342
0.228169
0.224999
0.221834
0.218686
0.21556
0.21246
0.209404
0.20641
0.298439
0.298859
0.299191
0.299462
0.299663
0.299795
0.29985
0.299822
0.299705
0.299487
0.299169
0.298738
0.298198
0.297546
0.296769
0.295873
0.294862
0.29375
0.29249
0.291089
0.289558
0.287892
0.286082
0.284134
0.282044
0.279805
0.277427
0.274907
0.27224
0.26944
0.266506
0.263441
0.26026
0.256962
0.253564
0.250075
0.2465
0.242862
0.239165
0.235429
0.231666
0.227887
0.224115
0.220355
0.216628
0.212942
0.209304
0.205739
0.202271
0.300673
0.301251
0.301832
0.302455
0.303083
0.30369
0.304233
0.304684
0.30502
0.305218
0.305278
0.305187
0.304951
0.304572
0.304046
0.30338
0.302545
0.301549
0.300496
0.299205
0.297766
0.296163
0.294375
0.292409
0.290253
0.287896
0.285346
0.282596
0.279639
0.276492
0.27315
0.26962
0.26592
0.262049
0.258032
0.253882
0.249606
0.245235
0.240778
0.23626
0.231702
0.227118
0.222544
0.217993
0.213498
0.209081
0.204759
0.200569
0.196544
0.30005
0.300694
0.301707
0.303081
0.304606
0.306128
0.307518
0.308713
0.309684
0.310413
0.310924
0.311214
0.311312
0.311233
0.31098
0.310576
0.310003
0.309247
0.308314
0.307272
0.306003
0.304545
0.302867
0.300964
0.298818
0.296406
0.293735
0.290791
0.287561
0.284063
0.280294
0.276261
0.27199
0.267481
0.26277
0.257875
0.252809
0.247613
0.242297
0.236895
0.231429
0.225918
0.220403
0.214902
0.209466
0.204134
0.198955
0.194004
0.189348
0.292049
0.293118
0.296299
0.300295
0.304139
0.307474
0.310188
0.312321
0.313957
0.315167
0.316045
0.31663
0.316987
0.31715
0.317132
0.316969
0.316649
0.316183
0.315547
0.314726
0.31375
0.312542
0.311076
0.309344
0.307308
0.30493
0.302207
0.299114
0.295631
0.291778
0.287552
0.282966
0.278055
0.272829
0.267337
0.261609
0.255667
0.249567
0.243323
0.236977
0.230551
0.224057
0.217531
0.210969
0.204413
0.197897
0.191505
0.185433
0.179958
0.265268
0.275909
0.288155
0.298098
0.305382
0.310546
0.314164
0.31673
0.318573
0.319896
0.320852
0.32151
0.321955
0.322229
0.322355
0.322377
0.322279
0.322086
0.321776
0.321282
0.320658
0.31978
0.318618
0.317155
0.315341
0.313106
0.310427
0.307261
0.303576
0.299398
0.294727
0.289584
0.284021
0.278059
0.271767
0.265194
0.258374
0.251385
0.244251
0.237026
0.229737
0.222388
0.214995
0.20751
0.199898
0.192071
0.183946
0.175592
0.167619
0.219756
0.21876
0.217676
0.216488
0.215176
0.213728
0.212174
0.210693
0.209423
0.208393
0.207638
0.207195
0.2071
0.207404
0.208159
0.209427
0.211288
0.213839
0.217207
0.221558
0.227116
0.234195
0.243239
0.254926
0.270355
0.291128
0.318935
0.360701
0.494167
0.219648
0.218636
0.217531
0.216317
0.214972
0.213486
0.211885
0.210354
0.209032
0.207949
0.207136
0.20663
0.206467
0.206689
0.207345
0.208492
0.2102
0.212556
0.215666
0.219669
0.224744
0.23113
0.239131
0.249137
0.261775
0.277982
0.295901
0.309305
0.346852
0.219361
0.218309
0.217157
0.215886
0.21447
0.212897
0.211193
0.209546
0.208102
0.206891
0.205941
0.205283
0.204948
0.204969
0.205385
0.20624
0.207583
0.209471
0.21197
0.215154
0.219103
0.223899
0.229597
0.236117
0.243269
0.251147
0.257413
0.254783
0.256871
0.218906
0.217789
0.21656
0.215196
0.21367
0.211964
0.210098
0.208272
0.206643
0.205235
0.204075
0.203185
0.202588
0.202309
0.20237
0.202797
0.203613
0.204839
0.206492
0.208574
0.21107
0.213924
0.21703
0.220114
0.222699
0.224747
0.225318
0.220364
0.217984
0.21831
0.217104
0.21577
0.214282
0.212608
0.210723
0.208646
0.206588
0.20472
0.203064
0.20164
0.200465
0.199552
0.198915
0.198564
0.198505
0.198737
0.199254
0.200034
0.201041
0.202207
0.203427
0.204567
0.205401
0.205505
0.204736
0.202505
0.196153
0.191975
0.217577
0.216258
0.214794
0.213151
0.211294
0.209191
0.206855
0.204519
0.20237
0.200426
0.198703
0.197211
0.195956
0.194942
0.194166
0.193621
0.193293
0.193156
0.193171
0.193285
0.193416
0.193455
0.193267
0.192663
0.191254
0.188695
0.184319
0.176542
0.171126
0.2167
0.215246
0.213623
0.211795
0.209718
0.207356
0.204719
0.202062
0.199595
0.197334
0.195288
0.193462
0.191857
0.190468
0.189284
0.188288
0.187456
0.186754
0.186134
0.185534
0.184873
0.184036
0.182883
0.181229
0.178718
0.174974
0.169553
0.16208
0.156943
0.215669
0.214055
0.212245
0.210198
0.207864
0.205202
0.202219
0.199203
0.196388
0.193787
0.191404
0.189241
0.187291
0.185545
0.183983
0.182583
0.181314
0.180137
0.179
0.177838
0.17657
0.175089
0.173264
0.170939
0.167835
0.163653
0.158278
0.152221
0.148049
0.214464
0.212662
0.210634
0.208332
0.205702
0.202695
0.199325
0.195913
0.192725
0.189769
0.187047
0.184553
0.182276
0.1802
0.178303
0.176556
0.174923
0.173364
0.171826
0.170248
0.168555
0.166659
0.164455
0.161827
0.158573
0.154466
0.149614
0.145
0.141764
0.213049
0.211027
0.208746
0.20615
0.203179
0.199784
0.195982
0.192143
0.188563
0.185247
0.18219
0.179382
0.176807
0.174442
0.17226
0.17023
0.168314
0.166469
0.164646
0.16279
0.160839
0.158721
0.156357
0.153659
0.150479
0.146646
0.142403
0.138902
0.136443
0.21136
0.209083
0.206507
0.203572
0.200212
0.19638
0.192106
0.187811
0.183828
0.180155
0.176781
0.173689
0.170854
0.16825
0.165843
0.1636
0.16148
0.159442
0.15744
0.155423
0.153341
0.151135
0.14874
0.146088
0.143067
0.139573
0.135928
0.133243
0.131409
0.209298
0.206722
0.203803
0.200475
0.196672
0.192354
0.187566
0.182797
0.178411
0.1744
0.17074
0.167404
0.164362
0.161578
0.159013
0.15663
0.154387
0.152242
0.150151
0.148069
0.145949
0.143745
0.141403
0.138864
0.13605
0.132916
0.129831
0.12774
0.126374
0.206705
0.203774
0.200453
0.196671
0.192368
0.187513
0.182181
0.176934
0.172167
0.167854
0.163958
0.160441
0.157258
0.154365
0.151719
0.149274
0.146989
0.144818
0.142719
0.140651
0.138572
0.136442
0.134215
0.131841
0.129264
0.126495
0.123907
0.122246
0.121208
0.203307
0.199954
0.196163
0.191861
0.187
0.181574
0.175693
0.169997
0.164901
0.160355
0.156303
0.152687
0.14945
0.146538
0.143897
0.141478
0.139233
0.137119
0.135092
0.133112
0.131142
0.129146
0.127085
0.124914
0.122597
0.120181
0.118027
0.116682
0.115874
0.198679
0.194821
0.190486
0.185605
0.180153
0.174158
0.167774
0.161712
0.156389
0.151723
0.147629
0.14403
0.140851
0.138026
0.135492
0.133195
0.131082
0.129108
0.12723
0.12541
0.123611
0.121801
0.119946
0.118008
0.115968
0.113902
0.112136
0.111041
0.110389
0.1924
0.188003
0.183125
0.177711
0.171766
0.165348
0.158648
0.15242
0.147062
0.142452
0.13848
0.135045
0.132057
0.129438
0.127118
0.125037
0.123141
0.121381
0.119717
0.118109
0.116523
0.114931
0.113303
0.111609
0.109842
0.108085
0.106632
0.105739
0.105194
0.184607
0.179691
0.174402
0.168673
0.162504
0.155953
0.14922
0.143075
0.137886
0.133504
0.129795
0.126641
0.12394
0.121606
0.119565
0.117753
0.116114
0.114602
0.113174
0.111793
0.110427
0.109048
0.107634
0.106168
0.104653
0.103162
0.101947
0.101204
0.100739
0.174683
0.169538
0.164336
0.158777
0.152781
0.146413
0.139905
0.134042
0.129175
0.125141
0.121787
0.118986
0.116626
0.114617
0.112883
0.11136
0.109992
0.108734
0.107544
0.106388
0.105232
0.104048
0.102818
0.10154
0.100239
0.0989788
0.0979697
0.0973582
0.0969575
0.161278
0.157343
0.153324
0.148518
0.14305
0.137101
0.130993
0.125548
0.121102
0.117485
0.114537
0.112121
0.110123
0.108449
0.107025
0.105787
0.104683
0.103667
0.102702
0.101753
0.100786
0.0997704
0.0986919
0.0975882
0.0965347
0.0955689
0.0947684
0.0942115
0.0937941
0.218742
0.219077
0.219834
0.221322
0.223376
0.225694
0.22813
0.230622
0.233178
0.235845
0.238666
0.241681
0.244927
0.24844
0.252259
0.256419
0.260954
0.265888
0.271226
0.276946
0.282986
0.289193
0.295259
0.299996
0.301983
0.300004
0.29252
0.277171
0.245585
0.216875
0.217333
0.218207
0.219685
0.221657
0.223904
0.226308
0.228813
0.231424
0.234178
0.237114
0.240268
0.24368
0.24739
0.251442
0.25588
0.260745
0.26607
0.271876
0.278164
0.284915
0.292044
0.299329
0.305666
0.309725
0.310744
0.308148
0.303665
0.307697
0.21496
0.215502
0.216461
0.217934
0.21984
0.222013
0.224366
0.226859
0.2295
0.232316
0.23534
0.238607
0.242157
0.246037
0.250297
0.25499
0.260171
0.265892
0.272205
0.279161
0.286833
0.295322
0.304729
0.314413
0.323571
0.332267
0.340969
0.348137
0.364556
0.212971
0.213492
0.214426
0.215886
0.217797
0.219979
0.22233
0.224824
0.227483
0.23034
0.233425
0.236777
0.240439
0.244461
0.248901
0.253822
0.259295
0.265397
0.272218
0.279877
0.288556
0.298598
0.310535
0.32414
0.339087
0.355197
0.373567
0.390697
0.412499
0.210911
0.211397
0.21228
0.21371
0.215623
0.217819
0.220179
0.222679
0.225352
0.228234
0.231364
0.234779
0.238528
0.242664
0.247252
0.252365
0.258091
0.264528
0.271807
0.28011
0.28971
0.30117
0.315424
0.332213
0.351881
0.373444
0.397513
0.423153
0.450976
0.20878
0.209249
0.210099
0.211491
0.213372
0.21555
0.217897
0.220391
0.223063
0.225956
0.229108
0.232562
0.236367
0.240581
0.245275
0.25053
0.256446
0.26314
0.27077
0.279587
0.289875
0.302358
0.318355
0.336764
0.35898
0.384018
0.412382
0.442529
0.472834
0.206574
0.207033
0.20786
0.209208
0.211038
0.21317
0.215481
0.217948
0.2206
0.22348
0.226628
0.230088
0.233912
0.238159
0.242905
0.248236
0.254261
0.261106
0.268936
0.278081
0.288728
0.301676
0.318037
0.338698
0.362178
0.387907
0.415416
0.443639
0.472086
0.204288
0.204734
0.205535
0.206835
0.208602
0.210674
0.212931
0.215349
0.217958
0.220798
0.223912
0.227342
0.23114
0.235369
0.240104
0.245435
0.251472
0.258347
0.266181
0.275427
0.285991
0.29927
0.316033
0.336776
0.359644
0.383818
0.408475
0.433107
0.457527
0.201919
0.202352
0.203123
0.204367
0.206061
0.208057
0.210243
0.212592
0.215133
0.217906
0.22095
0.22431
0.228037
0.232191
0.236847
0.242092
0.248034
0.254813
0.262441
0.271437
0.282185
0.295154
0.311345
0.330667
0.351478
0.37293
0.394278
0.415243
0.435096
0.199465
0.199886
0.200625
0.201807
0.203415
0.205319
0.207414
0.209673
0.212121
0.214796
0.217738
0.220987
0.224592
0.228613
0.233119
0.238188
0.243919
0.250433
0.257865
0.266509
0.276799
0.288955
0.303791
0.320978
0.338997
0.357081
0.374657
0.391748
0.407356
0.196925
0.197332
0.198035
0.199149
0.200662
0.202461
0.204448
0.206595
0.208925
0.211473
0.214277
0.217374
0.220809
0.224637
0.228924
0.233727
0.239164
0.245348
0.252383
0.260466
0.269862
0.280847
0.293911
0.308589
0.323475
0.337887
0.351424
0.364409
0.375978
0.194301
0.194693
0.195359
0.1964
0.197808
0.199488
0.201348
0.203362
0.205549
0.207942
0.210573
0.213478
0.216696
0.220275
0.224274
0.228757
0.23381
0.239531
0.24598
0.253304
0.261638
0.271224
0.282288
0.294261
0.305928
0.316734
0.326441
0.335532
0.343411
0.191596
0.191978
0.192608
0.193571
0.194864
0.196406
0.198118
0.199976
0.201996
0.204205
0.206632
0.209306
0.212262
0.215542
0.219197
0.223283
0.227859
0.232998
0.238732
0.245155
0.252329
0.260381
0.269343
0.278606
0.287214
0.294773
0.301198
0.307009
0.311844
0.188811
0.189179
0.189765
0.190646
0.191818
0.193215
0.194768
0.196453
0.198284
0.200284
0.202476
0.204885
0.20754
0.210475
0.213731
0.217349
0.22137
0.225841
0.23077
0.236204
0.24214
0.248604
0.255496
0.262237
0.268145
0.272997
0.276831
0.280144
0.282767
0.185953
0.186307
0.186851
0.187644
0.188689
0.189931
0.19131
0.192805
0.194427
0.196195
0.198129
0.200245
0.202565
0.205114
0.207922
0.211016
0.214423
0.218164
0.222227
0.226614
0.231275
0.236173
0.241126
0.245638
0.249297
0.252025
0.253943
0.255519
0.256755
0.183028
0.18337
0.183871
0.184576
0.185486
0.186564
0.187756
0.189047
0.190443
0.191961
0.193615
0.195412
0.197367
0.199495
0.201815
0.204341
0.207084
0.210046
0.213196
0.216504
0.219893
0.223287
0.226467
0.229065
0.230916
0.23206
0.232658
0.233144
0.233689
0.180043
0.180371
0.180825
0.181438
0.182213
0.183123
0.184121
0.185197
0.186356
0.187612
0.188968
0.190426
0.191992
0.193671
0.195472
0.197396
0.19944
0.201589
0.203798
0.206017
0.208156
0.210126
0.211704
0.212677
0.213108
0.213125
0.212876
0.212763
0.213115
0.177006
0.177321
0.177728
0.178249
0.178888
0.179627
0.180424
0.181275
0.182192
0.183175
0.18422
0.185325
0.186485
0.187698
0.188959
0.190259
0.191582
0.192897
0.194151
0.195283
0.196202
0.19682
0.196943
0.196528
0.19584
0.195063
0.194289
0.193879
0.194317
0.17393
0.174234
0.174596
0.175026
0.175526
0.176093
0.176672
0.177308
0.177974
0.178676
0.179404
0.180146
0.180891
0.181625
0.182335
0.182998
0.183586
0.184057
0.18435
0.184398
0.184118
0.183435
0.182197
0.180545
0.178927
0.17756
0.176441
0.175885
0.176537
0.170821
0.171114
0.171425
0.171766
0.172129
0.17251
0.172912
0.173318
0.173731
0.17415
0.174559
0.174936
0.175262
0.175515
0.17567
0.175693
0.175544
0.175171
0.174504
0.173474
0.172003
0.170038
0.167477
0.16465
0.162191
0.160333
0.158952
0.158312
0.159213
0.167692
0.167975
0.168236
0.168492
0.168713
0.168938
0.169142
0.169322
0.169489
0.169631
0.169723
0.16974
0.169653
0.169431
0.169038
0.168429
0.167554
0.166348
0.164733
0.162632
0.159973
0.156719
0.152814
0.148784
0.145466
0.143113
0.141462
0.140724
0.14186
0.164554
0.16483
0.165043
0.165207
0.165319
0.165375
0.165379
0.165345
0.165274
0.165147
0.164933
0.1646
0.164111
0.163427
0.162501
0.16128
0.159699
0.157681
0.155137
0.151979
0.14813
0.143554
0.138229
0.13287
0.128556
0.125591
0.123572
0.12266
0.124002
0.161419
0.161682
0.161866
0.161958
0.161943
0.161831
0.161647
0.16141
0.161111
0.160727
0.16022
0.159552
0.158679
0.157553
0.156119
0.154312
0.152055
0.149258
0.145817
0.141625
0.136588
0.130649
0.123784
0.116875
0.11129
0.107449
0.104832
0.103593
0.105103
0.158298
0.158548
0.158699
0.158714
0.158576
0.158315
0.157962
0.157537
0.157027
0.156402
0.155621
0.154639
0.153405
0.151864
0.149952
0.147595
0.144704
0.141172
0.13688
0.131696
0.125492
0.118166
0.109644
0.100914
0.0936652
0.0885119
0.0848793
0.0830276
0.0846252
0.155204
0.155448
0.155567
0.155507
0.155256
0.154853
0.154342
0.153745
0.153043
0.152199
0.151167
0.149895
0.148329
0.146407
0.144057
0.141196
0.137723
0.133517
0.12844
0.122333
0.115024
0.106339
0.0961014
0.0853049
0.0759268
0.0688257
0.0634503
0.0604582
0.0620304
0.152146
0.152379
0.152455
0.15232
0.151966
0.15144
0.150796
0.150053
0.149186
0.14815
0.146893
0.145361
0.143496
0.141231
0.138488
0.135175
0.131182
0.126374
0.120595
0.113658
0.105348
0.0954088
0.0835275
0.0706009
0.0587639
0.0490402
0.0408547
0.0357481
0.0371349
0.149154
0.149427
0.149521
0.149337
0.148856
0.148163
0.147357
0.146469
0.145458
0.144258
0.142809
0.141053
0.13893
0.13637
0.13329
0.129591
0.125154
0.119834
0.113458
0.105822
0.0966732
0.0856688
0.072328
0.0573839
0.0430083
0.0302598
0.0182357
0.00892137
0.00824401
0.12824
0.110243
0.0854363
0.0538156
0.0186735
-0.0158107
-0.0465257
-0.0749571
-0.100898
-0.128995
-0.15743
-0.190893
-0.225314
-0.257601
-0.283722
-0.301062
-0.309683
-0.311849
-0.311314
0.134769
0.120712
0.0969077
0.06438
0.0257554
-0.0154532
-0.0552528
-0.0955093
-0.133197
-0.174886
-0.217039
-0.259958
-0.301236
-0.337522
-0.365468
-0.383833
-0.393874
-0.398236
-0.399777
0.129006
0.116011
0.0935974
0.0609971
0.0201501
-0.0261411
-0.073033
-0.12429
-0.175354
-0.227059
-0.278893
-0.32968
-0.376613
-0.416342
-0.446304
-0.466151
-0.477675
-0.483578
-0.48646
0.117624
0.105041
0.0844588
0.0525609
0.00923839
-0.0419624
-0.0974202
-0.155897
-0.216027
-0.277013
-0.337828
-0.396443
-0.449193
-0.49245
-0.524192
-0.544941
-0.557246
-0.564092
-0.567916
0.103525
0.0917624
0.0723343
0.0405915
-0.00441342
-0.058993
-0.120024
-0.185232
-0.253447
-0.323351
-0.392537
-0.457715
-0.514576
-0.559686
-0.591986
-0.613011
-0.625922
-0.633675
-0.638309
0.0847763
0.0733672
0.0550617
0.0241348
-0.0212193
-0.0777962
-0.14263
-0.213805
-0.289239
-0.366562
-0.442238
-0.511941
-0.571173
-0.617175
-0.649949
-0.671764
-0.686049
-0.695503
-0.701738
0.0616973
0.0493275
0.0313164
0.0012207
-0.0438076
-0.101399
-0.168813
-0.244083
-0.324382
-0.406254
-0.485162
-0.556027
-0.614518
-0.658823
-0.68998
-0.710822
-0.724896
-0.734522
-0.740964
0.0355152
0.0211283
0.0021245
-0.0280917
-0.0729683
-0.130888
-0.199421
-0.276412
-0.358609
-0.441767
-0.520563
-0.589605
-0.645189
-0.686609
-0.715732
-0.735605
-0.749566
-0.759404
-0.766146
0.00722139
-0.00963132
-0.0306146
-0.0620675
-0.107336
-0.165182
-0.233497
-0.310104
-0.391485
-0.472808
-0.548276
-0.612695
-0.663326
-0.700512
-0.726664
-0.744804
-0.757959
-0.767458
-0.77402
-0.0223057
-0.0415927
-0.0649825
-0.0983552
-0.14448
-0.202086
-0.269304
-0.344046
-0.422641
-0.499898
-0.569954
-0.628259
-0.673192
-0.705966
-0.729275
-0.74595
-0.758631
-0.7683
-0.77533
-0.0520728
-0.0735198
-0.0993245
-0.134825
-0.18208
-0.239474
-0.305161
-0.377011
-0.451115
-0.522067
-0.584363
-0.634523
-0.672119
-0.699043
-0.718051
-0.731686
-0.74215
-0.750201
-0.756016
-0.0808965
-0.104073
-0.131978
-0.16935
-0.217615
-0.274653
-0.338426
-0.406592
-0.475017
-0.53842
-0.592158
-0.63406
-0.66473
-0.686406
-0.701649
-0.712592
-0.720944
-0.727359
-0.731907
-0.107664
-0.132072
-0.161576
-0.200241
-0.249016
-0.305281
-0.366732
-0.430782
-0.493206
-0.549159
-0.595072
-0.629968
-0.655137
-0.672881
-0.685453
-0.694611
-0.701701
-0.707356
-0.711477
-0.131565
-0.156763
-0.187367
-0.226702
-0.275385
-0.33035
-0.388983
-0.4484
-0.504389
-0.552785
-0.591211
-0.619722
-0.640025
-0.654299
-0.664446
-0.67188
-0.677631
-0.682284
-0.685645
-0.152052
-0.177697
-0.208968
-0.248416
-0.296418
-0.349516
-0.404816
-0.459215
-0.508748
-0.550152
-0.582203
-0.605705
-0.622499
-0.634496
-0.64322
-0.64976
-0.654891
-0.659121
-0.662196
-0.168935
-0.194818
-0.226447
-0.265614
-0.312502
-0.36333
-0.415023
-0.464425
-0.508027
-0.543515
-0.570585
-0.590479
-0.604978
-0.615693
-0.62382
-0.630191
-0.63541
-0.63988
-0.64325
-0.182365
-0.208444
-0.240302
-0.279036
-0.324613
-0.37291
-0.420711
-0.464957
-0.502807
-0.532942
-0.555799
-0.572819
-0.585588
-0.595381
-0.603095
-0.60934
-0.614585
-0.619105
-0.622521
-0.192574
-0.218948
-0.251069
-0.28943
-0.333725
-0.379454
-0.423335
-0.462605
-0.495262
-0.520907
-0.540488
-0.555456
-0.567125
-0.576449
-0.584054
-0.590361
-0.595728
-0.600325
-0.603791
-0.199866
-0.22676
-0.259337
-0.297617
-0.340939
-0.384392
-0.424701
-0.459543
-0.487783
-0.509793
-0.526835
-0.540269
-0.55114
-0.560129
-0.567653
-0.573991
-0.579422
-0.584054
-0.587545
-0.20457
-0.232322
-0.265723
-0.304426
-0.347244
-0.388714
-0.425599
-0.456204
-0.480367
-0.49915
-0.513988
-0.526064
-0.536137
-0.544645
-0.551839
-0.557895
-0.563042
-0.56736
-0.570567
-0.20681
-0.235859
-0.270599
-0.310423
-0.353394
-0.393355
-0.42716
-0.453904
-0.474428
-0.490385
-0.50329
-0.514121
-0.523383
-0.531313
-0.538034
-0.543648
-0.548342
-0.552198
-0.555018
-0.20663
-0.237516
-0.274256
-0.316034