/*--------------------------------*- C++ -*----------------------------------*\
| =========                 |                                                 |
| \\      /  F ield         | OpenFOAM: The Open Source CFD Toolbox           |
|  \\    /   O peration     | Version:  2312                                  |
|   \\  /    A nd           | Website:  www.openfoam.com                      |
|    \\/     M anipulation  |                                                 |
\*---------------------------------------------------------------------------*/
FoamFile
{
    version     2.0;
    format      ascii;
    arch        "LSB;label=32;scalar=64";
    class       volScalarField;
    location    "84.932076508251313";
    object      p;
}
// * * * * * * * * * * * * * * * * * * * * * * * * * * * * * * * * * * * * * //

dimensions      [0 2 -2 0 0 0 0];

internalField   nonuniform List<scalar> 
21039
(
0.593629
0.459711
0.417627
0.389388
0.36809
0.352042
0.339643
0.329791
0.321804
0.315232
0.309759
0.305157
0.301255
0.297921
0.295055
0.292574
0.290413
0.288514
0.286833
0.285328
0.283966
0.282716
0.281549
0.2805
0.279593
0.278786
0.278041
0.277325
0.276629
0.446437
0.408603
0.394817
0.376452
0.359713
0.346459
0.335745
0.326941
0.319654
0.313572
0.308455
0.304117
0.300418
0.297243
0.294504
0.292128
0.290053
0.288228
0.286609
0.285158
0.283842
0.28263
0.281495
0.280468
0.27957
0.278765
0.27802
0.277306
0.276609
0.356981
0.35462
0.356805
0.350071
0.341655
0.333888
0.326667
0.320177
0.314492
0.309551
0.305269
0.30156
0.298344
0.295551
0.293119
0.290994
0.289131
0.287486
0.286023
0.284709
0.283512
0.282406
0.281365
0.280412
0.279567
0.278801
0.278086
0.277396
0.276721
0.318836
0.320962
0.325454
0.324391
0.321798
0.318603
0.31483
0.310947
0.307222
0.303758
0.300601
0.297764
0.295236
0.292995
0.291015
0.289267
0.287723
0.286354
0.285133
0.284034
0.283032
0.282102
0.281222
0.280405
0.279667
0.278986
0.278338
0.277701
0.277065
0.293733
0.297707
0.303616
0.305348
0.305575
0.304872
0.303367
0.301471
0.299408
0.297304
0.295256
0.293325
0.291541
0.289919
0.28846
0.287157
0.285999
0.28497
0.284052
0.283229
0.282479
0.281784
0.281123
0.280497
0.279912
0.279352
0.2788
0.278236
0.277656
0.273992
0.279251
0.286615
0.2905
0.29253
0.293363
0.293322
0.292787
0.291942
0.290912
0.289802
0.288682
0.287599
0.286585
0.285656
0.284821
0.28408
0.283428
0.282856
0.282351
0.2819
0.281487
0.281094
0.280706
0.280312
0.279905
0.279475
0.279008
0.278498
0.261107
0.266132
0.27323
0.278183
0.281423
0.283388
0.284435
0.28491
0.28499
0.284807
0.284466
0.28404
0.283584
0.283135
0.282718
0.282349
0.282036
0.281781
0.281581
0.28143
0.281316
0.281227
0.281148
0.28104
0.280875
0.28065
0.280378
0.280064
0.279635
0.253677
0.257778
0.263513
0.268457
0.272173
0.274776
0.276545
0.277749
0.278536
0.279028
0.279321
0.279489
0.279585
0.27965
0.279715
0.279797
0.279912
0.280064
0.280256
0.280484
0.280741
0.281015
0.281298
0.281517
0.281624
0.281619
0.281506
0.281288
0.280981
0.249003
0.252205
0.256559
0.261034
0.264729
0.26754
0.269678
0.271334
0.272616
0.273618
0.274418
0.275081
0.275656
0.276183
0.276692
0.277206
0.277739
0.278301
0.278895
0.279523
0.280178
0.280853
0.281536
0.28213
0.282552
0.282805
0.282902
0.282846
0.282654
0.245431
0.247883
0.25119
0.255122
0.258613
0.261426
0.263715
0.265621
0.267223
0.268587
0.269776
0.27084
0.271821
0.272755
0.27367
0.274588
0.275525
0.276492
0.277494
0.278535
0.279613
0.28072
0.281847
0.282865
0.283648
0.284202
0.284545
0.284684
0.284634
0.242261
0.244111
0.246667
0.250079
0.253317
0.256061
0.258404
0.260449
0.262256
0.263878
0.265361
0.266746
0.268068
0.269356
0.270636
0.27193
0.273252
0.274614
0.276025
0.277489
0.279006
0.280573
0.282184
0.283674
0.284868
0.28577
0.2864
0.28677
0.286895
0.239187
0.240589
0.242613
0.245552
0.248526
0.25117
0.253516
0.255636
0.25758
0.259388
0.261098
0.262742
0.264349
0.265945
0.267553
0.269193
0.270879
0.272625
0.274439
0.276328
0.278295
0.280341
0.282468
0.284472
0.286125
0.287421
0.288383
0.289019
0.289349
0.236055
0.237143
0.238798
0.24133
0.244049
0.246576
0.248892
0.251043
0.253074
0.255017
0.256901
0.258754
0.2606
0.262463
0.264364
0.26632
0.268348
0.270461
0.272669
0.274979
0.277396
0.279927
0.282582
0.285125
0.287272
0.289004
0.29034
0.291284
0.291851
0.232809
0.233678
0.235068
0.237259
0.239743
0.242146
0.244409
0.246562
0.248642
0.250677
0.252692
0.25471
0.256754
0.258846
0.261005
0.263249
0.265597
0.26806
0.270647
0.273365
0.276219
0.279219
0.282384
0.285452
0.28809
0.290273
0.292009
0.29329
0.294126
0.229439
0.230154
0.231334
0.233225
0.235483
0.237757
0.239955
0.242088
0.244188
0.246281
0.248388
0.250531
0.252733
0.255014
0.257397
0.259901
0.262544
0.265338
0.268289
0.271399
0.274669
0.278102
0.281718
0.285225
0.288271
0.290843
0.292952
0.294574
0.295704
0.226243
0.226846
0.22786
0.229525
0.2316
0.233754
0.235882
0.237985
0.240085
0.242207
0.244371
0.2466
0.248917
0.251345
0.25391
0.256635
0.259539
0.262631
0.265917
0.269389
0.273033
0.276825
0.28075
0.284455
0.287593
0.290218
0.292412
0.294186
0.295525
0.223552
0.224082
0.224993
0.226516
0.228453
0.230503
0.232571
0.234648
0.236749
0.23889
0.241094
0.243385
0.24579
0.248335
0.251052
0.253966
0.257098
0.260462
0.264058
0.267873
0.27187
0.27598
0.280112
0.283767
0.286541
0.288564
0.290075
0.291314
0.292502
0.221338
0.221821
0.222661
0.22408
0.225912
0.227892
0.229933
0.232009
0.234121
0.236284
0.238526
0.240874
0.243358
0.246012
0.24887
0.251962
0.255314
0.258945
0.262858
0.267035
0.271425
0.275915
0.280318
0.283895
0.286004
0.286636
0.286028
0.284673
0.28368
0.219566
0.220099
0.220958
0.222278
0.22394
0.225803
0.227822
0.229922
0.232067
0.234266
0.236555
0.238967
0.241537
0.244306
0.247309
0.250584
0.254164
0.258074
0.262327
0.266909
0.271772
0.276786
0.281708
0.285561
0.287288
0.286344
0.282351
0.274686
0.262984
0.275945
0.275258
0.274577
0.273903
0.273233
0.272567
0.271903
0.271242
0.270581
0.26992
0.269258
0.268595
0.267928
0.267259
0.266586
0.265907
0.265224
0.264535
0.263839
0.263138
0.262429
0.261713
0.26099
0.26026
0.259523
0.258779
0.258028
0.257271
0.256508
0.255739
0.254964
0.254185
0.253401
0.252614
0.251823
0.251031
0.250237
0.249443
0.24865
0.247858
0.247068
0.246281
0.245499
0.244721
0.24395
0.243185
0.242428
0.24168
0.24094
0.275929
0.275251
0.274581
0.273918
0.273258
0.272602
0.271949
0.271297
0.270647
0.269995
0.269343
0.268688
0.26803
0.267369
0.266703
0.266031
0.265353
0.264669
0.263978
0.263279
0.262573
0.261859
0.261137
0.260407
0.259669
0.258923
0.258169
0.257408
0.256641
0.255866
0.255086
0.2543
0.25351
0.252715
0.251917
0.251116
0.250313
0.249509
0.248705
0.247902
0.247101
0.246303
0.245509
0.24472
0.243937
0.24316
0.242392
0.241632
0.24088
0.276064
0.275412
0.274767
0.274127
0.273491
0.272859
0.272227
0.271596
0.270965
0.270332
0.269696
0.269057
0.268413
0.267763
0.267107
0.266443
0.265772
0.265092
0.264403
0.263705
0.262998
0.26228
0.261553
0.260816
0.260069
0.259313
0.258547
0.257773
0.25699
0.256198
0.2554
0.254595
0.253783
0.252967
0.252146
0.251321
0.250494
0.249664
0.248834
0.248005
0.247176
0.24635
0.245526
0.244708
0.243894
0.243087
0.242288
0.241497
0.240715
0.276446
0.275833
0.275225
0.274621
0.274018
0.273417
0.272815
0.272211
0.271605
0.270994
0.270378
0.269757
0.269127
0.26849
0.267843
0.267186
0.266519
0.26584
0.26515
0.264448
0.263733
0.263006
0.262266
0.261514
0.26075
0.259973
0.259185
0.258386
0.257576
0.256757
0.255927
0.25509
0.254244
0.253392
0.252533
0.25167
0.250802
0.249931
0.249058
0.248185
0.247311
0.246439
0.245569
0.244702
0.24384
0.242984
0.242134
0.241291
0.240458
0.277086
0.276525
0.275965
0.275405
0.274845
0.274283
0.273717
0.273146
0.27257
0.271986
0.271393
0.27079
0.270177
0.269551
0.268913
0.268261
0.267595
0.266914
0.266218
0.265506
0.264778
0.264034
0.263275
0.262499
0.261709
0.260903
0.260083
0.259249
0.258401
0.257541
0.256669
0.255786
0.254893
0.253991
0.253081
0.252164
0.251242
0.250314
0.249383
0.24845
0.247515
0.246581
0.245647
0.244716
0.243788
0.242865
0.241947
0.241035
0.240132
0.277988
0.277489
0.276989
0.276485
0.275977
0.275463
0.274941
0.27441
0.273869
0.273316
0.272749
0.272169
0.271572
0.27096
0.270329
0.269681
0.269013
0.268326
0.267619
0.266893
0.266146
0.265378
0.264591
0.263784
0.262958
0.262113
0.26125
0.26037
0.259473
0.25856
0.257632
0.256691
0.255737
0.254772
0.253796
0.252811
0.251818
0.250819
0.249814
0.248805
0.247793
0.24678
0.245766
0.244753
0.243743
0.242736
0.241733
0.240735
0.239746
0.279151
0.278737
0.278313
0.277879
0.277434
0.276978
0.27651
0.276026
0.275526
0.275009
0.274473
0.273916
0.273339
0.272739
0.272116
0.271468
0.270797
0.2701
0.269378
0.268631
0.267858
0.26706
0.266237
0.26539
0.264519
0.263624
0.262707
0.261769
0.26081
0.259831
0.258835
0.257821
0.256792
0.255748
0.25469
0.253622
0.252543
0.251455
0.250359
0.249258
0.248152
0.247043
0.245932
0.24482
0.24371
0.242601
0.241495
0.240395
0.239303
0.280678
0.280349
0.279997
0.279633
0.279257
0.278865
0.278455
0.278024
0.27757
0.277093
0.27659
0.27606
0.275502
0.274915
0.274298
0.27365
0.272972
0.272261
0.271519
0.270746
0.26994
0.269104
0.268237
0.26734
0.266414
0.265459
0.264477
0.263468
0.262434
0.261377
0.260297
0.259196
0.258076
0.256937
0.255782
0.254613
0.25343
0.252236
0.251032
0.24982
0.248602
0.247378
0.246151
0.244922
0.243693
0.242465
0.241238
0.240016
0.238804
0.282456
0.282267
0.282056
0.281732
0.281446
0.28113
0.280788
0.280417
0.280017
0.279585
0.279119
0.278619
0.278082
0.277509
0.276898
0.276249
0.275561
0.274833
0.274067
0.273262
0.272419
0.271538
0.270619
0.269663
0.268672
0.267646
0.266587
0.265497
0.264375
0.263224
0.262046
0.260842
0.259614
0.258364
0.257094
0.255805
0.2545
0.25318
0.251848
0.250505
0.249153
0.247794
0.246431
0.245064
0.243695
0.242326
0.240958
0.239595
0.238243
0.284553
0.284466
0.28435
0.284212
0.284042
0.28381
0.283529
0.283222
0.282877
0.282494
0.28207
0.281603
0.281092
0.280535
0.279932
0.279282
0.278584
0.27784
0.277048
0.276209
0.275324
0.274392
0.273416
0.272395
0.271331
0.270225
0.269079
0.267894
0.26667
0.265412
0.26412
0.262796
0.261443
0.260061
0.258655
0.257227
0.255776
0.254308
0.252824
0.251326
0.249817
0.248299
0.246774
0.245244
0.243711
0.242178
0.240644
0.239117
0.237603
0.286966
0.287014
0.287013
0.286975
0.286907
0.286803
0.286653
0.286446
0.286098
0.285787
0.285422
0.285001
0.284525
0.283994
0.283407
0.282763
0.282062
0.281305
0.280492
0.279621
0.278695
0.277714
0.276678
0.275589
0.274447
0.273254
0.272011
0.270721
0.269384
0.268003
0.266581
0.265118
0.263618
0.262083
0.260517
0.258922
0.257299
0.255655
0.253989
0.252306
0.250609
0.2489
0.247182
0.245458
0.24373
0.242001
0.240272
0.238551
0.236847
0.289597
0.289801
0.289941
0.290031
0.290071
0.29006
0.289999
0.289886
0.289714
0.289478
0.289175
0.288813
0.288386
0.287895
0.287338
0.286716
0.286026
0.285271
0.284449
0.283559
0.282603
0.28158
0.28049
0.279336
0.278117
0.276833
0.27549
0.274086
0.272622
0.271104
0.269531
0.267907
0.266236
0.264518
0.26276
0.260965
0.259134
0.257274
0.255387
0.253477
0.25155
0.249606
0.247652
0.245691
0.243726
0.24176
0.239794
0.237841
0.235911
0.292304
0.292683
0.292988
0.293235
0.293421
0.293546
0.29361
0.29361
0.293548
0.29342
0.293226
0.292957
0.292617
0.292209
0.291724
0.291163
0.290521
0.289801
0.289003
0.288121
0.287159
0.286117
0.284991
0.283785
0.282499
0.28113
0.279684
0.27816
0.276558
0.274885
0.27314
0.271326
0.26945
0.267511
0.265517
0.263474
0.261381
0.25925
0.257083
0.254886
0.252666
0.250426
0.248174
0.245913
0.24365
0.241389
0.23913
0.23689
0.234683
0.294812
0.295386
0.295882
0.296318
0.296691
0.297002
0.297246
0.297424
0.297536
0.297575
0.297543
0.297431
0.297237
0.296961
0.296612
0.296185
0.295655
0.29503
0.29431
0.293488
0.292568
0.291548
0.290422
0.289194
0.287862
0.286421
0.284878
0.283232
0.281479
0.279629
0.27768
0.275635
0.273504
0.271285
0.268989
0.266623
0.264188
0.2617
0.259162
0.256583
0.253975
0.25134
0.248693
0.246038
0.243386
0.240742
0.238108
0.235505
0.232951
0.296649
0.297433
0.298151
0.298829
0.299462
0.30005
0.300585
0.301061
0.301471
0.301803
0.302056
0.302219
0.302292
0.302265
0.302126
0.301884
0.301583
0.301142
0.300592
0.299915
0.299116
0.298188
0.297122
0.295923
0.294585
0.2931
0.291476
0.289708
0.28779
0.285735
0.28354
0.281206
0.278748
0.276162
0.273465
0.270666
0.267767
0.26479
0.26174
0.258635
0.255487
0.252305
0.249113
0.245915
0.242732
0.239572
0.236441
0.233365
0.230367
0.296694
0.29764
0.29862
0.299672
0.300762
0.301865
0.302935
0.303944
0.304869
0.305685
0.306392
0.306974
0.307437
0.307783
0.307999
0.30808
0.308016
0.307858
0.307631
0.307197
0.306611
0.305867
0.304945
0.303851
0.302571
0.301091
0.299418
0.297542
0.295455
0.293169
0.29068
0.287992
0.285121
0.282065
0.278847
0.27548
0.271968
0.268342
0.26461
0.260796
0.25692
0.252997
0.249061
0.245125
0.241223
0.237375
0.233598
0.229932
0.226409
0.293818
0.294821
0.296238
0.298058
0.300076
0.302134
0.304101
0.305912
0.307537
0.308956
0.310191
0.311238
0.312126
0.312866
0.31346
0.313924
0.314233
0.314397
0.314437
0.314414
0.314126
0.313655
0.312972
0.312074
0.310937
0.309536
0.307875
0.305935
0.303702
0.301192
0.298396
0.295321
0.291989
0.288401
0.284588
0.280569
0.276354
0.271984
0.267468
0.262837
0.258117
0.253323
0.248498
0.24366
0.238858
0.234132
0.229531
0.225132
0.221001
0.283507
0.284925
0.288534
0.293018
0.297405
0.301332
0.304682
0.307493
0.309848
0.311816
0.313492
0.314915
0.316148
0.317225
0.318158
0.318981
0.319675
0.320245
0.320683
0.320968
0.321139
0.321058
0.320728
0.320141
0.319255
0.318027
0.31645
0.314495
0.312139
0.309398
0.306265
0.302752
0.29889
0.294686
0.290188
0.285424
0.280414
0.275213
0.269835
0.26432
0.258691
0.252961
0.247164
0.2413
0.235409
0.22953
0.223745
0.218253
0.213332
0.25405
0.265238
0.278025
0.28855
0.296464
0.302294
0.306613
0.309915
0.312535
0.314676
0.316497
0.318066
0.31947
0.320748
0.321925
0.323042
0.324081
0.325057
0.325947
0.326687
0.3273
0.327712
0.327834
0.327663
0.327142
0.326201
0.32481
0.322921
0.320496
0.317559
0.314105
0.31015
0.305745
0.300906
0.295702
0.290178
0.284368
0.278347
0.27214
0.265799
0.259351
0.252801
0.246168
0.239403
0.232476
0.225305
0.21781
0.210068
0.202689
0.240218
0.239481
0.238702
0.237875
0.236986
0.236032
0.235041
0.234139
0.233419
0.232909
0.232641
0.232653
0.23299
0.233693
0.234817
0.236425
0.238598
0.241434
0.24506
0.249643
0.255409
0.26267
0.271874
0.283699
0.299245
0.320117
0.348007
0.38976
0.52341
0.240144
0.239391
0.238594
0.237743
0.236823
0.235832
0.234796
0.233846
0.233074
0.232513
0.232185
0.232139
0.232404
0.233023
0.234047
0.235534
0.237553
0.240192
0.243559
0.247793
0.253075
0.259642
0.267801
0.277944
0.290696
0.306998
0.325003
0.33845
0.376035
0.239947
0.239158
0.238317
0.237412
0.236425
0.235351
0.234215
0.233151
0.232259
0.231571
0.231111
0.230912
0.231002
0.231419
0.232201
0.233392
0.235043
0.237212
0.239964
0.243376
0.247528
0.252503
0.258356
0.26501
0.272275
0.280246
0.286595
0.284029
0.286146
0.239636
0.238787
0.237874
0.236883
0.235792
0.234591
0.2333
0.232062
0.230988
0.230104
0.229435
0.229003
0.22883
0.228943
0.229367
0.230127
0.231247
0.232748
0.234649
0.236955
0.239649
0.242678
0.245936
0.24915
0.251844
0.253985
0.254633
0.24974
0.247393
0.239237
0.238305
0.237295
0.236188
0.234958
0.233588
0.232094
0.230631
0.229323
0.228192
0.227259
0.226539
0.226048
0.225801
0.225807
0.226074
0.226604
0.22739
0.228414
0.229637
0.230995
0.232384
0.233671
0.23463
0.23484
0.23416
0.232001
0.2257
0.221545
0.238759
0.237724
0.236593
0.235342
0.233939
0.232362
0.23062
0.228886
0.227301
0.225885
0.224651
0.223612
0.222774
0.222143
0.221718
0.221493
0.221455
0.221579
0.221829
0.222151
0.222467
0.222667
0.22262
0.222135
0.220825
0.218349
0.214038
0.206305
0.200909
0.238205
0.237045
0.235768
0.234343
0.232734
0.230911
0.228879
0.226832
0.224934
0.2232
0.221642
0.220265
0.219071
0.218057
0.217214
0.216527
0.215974
0.215522
0.215126
0.214725
0.214239
0.213554
0.212532
0.21099
0.208572
0.204903
0.199537
0.192103
0.186984
0.237575
0.236267
0.234816
0.233187
0.231336
0.229226
0.226861
0.224463
0.22222
0.220145
0.218245
0.216523
0.214975
0.213591
0.212358
0.211255
0.210251
0.20931
0.208383
0.207406
0.206301
0.20496
0.203256
0.201032
0.198012
0.193896
0.188568
0.182544
0.178388
0.236861
0.235379
0.233725
0.231857
0.229726
0.227287
0.224546
0.221759
0.219144
0.21671
0.214462
0.212397
0.210508
0.20878
0.207194
0.205725
0.204339
0.202999
0.201653
0.200243
0.198697
0.196926
0.194829
0.192291
0.18911
0.185059
0.180247
0.175659
0.172437
0.236041
0.234356
0.232465
0.230321
0.227866
0.225054
0.221892
0.218681
0.21567
0.212868
0.210272
0.207876
0.205668
0.203627
0.201737
0.19996
0.198267
0.196617
0.194965
0.193256
0.191432
0.189422
0.187149
0.184528
0.181408
0.177621
0.173412
0.169932
0.167484
0.235075
0.233152
0.230985
0.228518
0.225691
0.222456
0.218828
0.21516
0.211737
0.208562
0.205628
0.202923
0.200427
0.198119
0.195971
0.193951
0.192025
0.190153
0.188294
0.1864
0.184421
0.182301
0.17998
0.177388
0.174414
0.170956
0.16734
0.164671
0.162844
0.233888
0.231683
0.229191
0.22635
0.223095
0.219382
0.215242
0.21109
0.207247
0.203707
0.200456
0.197473
0.194733
0.192206
0.189861
0.187662
0.185575
0.183561
0.181579
0.179588
0.177544
0.175403
0.173112
0.170615
0.167833
0.164728
0.161665
0.159586
0.15822
0.232357
0.229815
0.226938
0.223658
0.219912
0.215667
0.210975
0.206323
0.202066
0.198186
0.194655
0.191442
0.188511
0.185826
0.183349
0.181042
0.178865
0.176782
0.174753
0.17274
0.170704
0.168607
0.166407
0.164054
0.161495
0.158744
0.156174
0.154517
0.153473
0.230251
0.227303
0.223969
0.22018
0.215881
0.211055
0.205791
0.200651
0.196016
0.191846
0.188097
0.184722
0.181673
0.178904
0.17637
0.174029
0.171838
0.169759
0.167754
0.165787
0.163822
0.161827
0.159764
0.157593
0.155277
0.152869
0.150723
0.149376
0.148555
0.2272
0.22376
0.21989
0.215523
0.210624
0.205204
0.199391
0.193822
0.188887
0.184516
0.180643
0.1772
0.174125
0.171363
0.168861
0.16657
0.164445
0.162444
0.160533
0.158676
0.15684
0.154994
0.153107
0.151144
0.149087
0.147016
0.145249
0.144142
0.143469
0.222706
0.21873
0.214314
0.209401
0.203982
0.198093
0.191892
0.186066
0.180997
0.176582
0.172728
0.169349
0.16637
0.163723
0.161349
0.159195
0.157215
0.155365
0.153609
0.151913
0.150246
0.148581
0.14689
0.145146
0.143344
0.141571
0.140106
0.13919
0.138618
0.216709
0.212208
0.207364
0.202109
0.19642
0.190331
0.184007
0.178158
0.173148
0.168851
0.165153
0.161953
0.159164
0.156713
0.154534
0.152574
0.150784
0.149122
0.147549
0.146034
0.144547
0.143061
0.141557
0.14002
0.138455
0.136937
0.135701
0.134925
0.134425
0.208521
0.203784
0.199005
0.193878
0.1883
0.182313
0.176111
0.170429
0.165628
0.161567
0.158119
0.155172
0.152632
0.15042
0.148473
0.146732
0.145152
0.143689
0.142308
0.140976
0.139664
0.138345
0.137002
0.135635
0.134272
0.132975
0.131935
0.131282
0.130842
0.196824
0.193244
0.189596
0.18516
0.180036
0.174379
0.16847
0.163091
0.158599
0.154849
0.151706
0.149051
0.146788
0.144835
0.143128
0.141612
0.140241
0.138974
0.137777
0.136618
0.135465
0.134289
0.133077
0.13187
0.130745
0.129734
0.128895
0.128288
0.127827
0.21777
0.218085
0.218761
0.2201
0.221949
0.224012
0.226149
0.228299
0.23047
0.232705
0.235048
0.237537
0.240208
0.243103
0.246263
0.249729
0.253542
0.257734
0.262324
0.267307
0.272642
0.278199
0.2837
0.288017
0.289729
0.28758
0.279963
0.264447
0.232375
0.215995
0.216431
0.217221
0.218548
0.22031
0.222294
0.224386
0.226533
0.228738
0.231034
0.233459
0.236049
0.238843
0.241883
0.245216
0.248889
0.252949
0.257439
0.262391
0.267822
0.273735
0.280068
0.286631
0.2924
0.296046
0.2968
0.294033
0.28968
0.293999
0.214196
0.214713
0.215586
0.216907
0.218598
0.220502
0.222533
0.224653
0.226868
0.229203
0.231687
0.234354
0.237244
0.240404
0.243885
0.247742
0.252037
0.256829
0.26218
0.268157
0.274857
0.282399
0.290923
0.299915
0.308518
0.316912
0.325419
0.332733
0.349931
0.212348
0.212843
0.213688
0.214992
0.216686
0.218593
0.220613
0.222721
0.224937
0.227289
0.229807
0.232525
0.235484
0.238735
0.242335
0.246349
0.250852
0.255928
0.261674
0.268225
0.275793
0.284734
0.295612
0.308468
0.322666
0.338371
0.35668
0.373388
0.395812
0.210454
0.210913
0.211706
0.212977
0.214669
0.216586
0.218609
0.220712
0.222925
0.225282
0.227817
0.230565
0.23357
0.236885
0.240572
0.244707
0.249377
0.254689
0.260777
0.267836
0.276185
0.28639
0.299373
0.315471
0.334162
0.354954
0.380235
0.403918
0.430396
0.208515
0.208956
0.209715
0.210947
0.212606
0.214502
0.216507
0.218594
0.220794
0.223143
0.225676
0.228431
0.231453
0.234798
0.238533
0.242738
0.247514
0.252982
0.259308
0.266731
0.275635
0.286726
0.301162
0.319234
0.340491
0.363676
0.391522
0.421568
0.451971
0.206529
0.206959
0.207694
0.208884
0.210491
0.21234
0.214306
0.21636
0.218528
0.220849
0.223357
0.226091
0.229096
0.232429
0.236159
0.240371
0.245171
0.250692
0.257112
0.264701
0.273835
0.285283
0.300332
0.318584
0.341272
0.36619
0.393065
0.421271
0.449784
0.204491
0.204907
0.205616
0.206759
0.208306
0.210096
0.212007
0.214009
0.216127
0.218396
0.220851
0.223531
0.226479
0.229752
0.233418
0.237564
0.242293
0.24774
0.254082
0.261613
0.270587
0.281785
0.296511
0.315247
0.336864
0.360151
0.384027
0.408123
0.432265
0.202398
0.202801
0.203481
0.204571
0.206048
0.207766
0.209608
0.211541
0.213587
0.21578
0.218154
0.220743
0.223592
0.226753
0.230292
0.23429
0.238846
0.244083
0.250153
0.257415
0.265718
0.276573
0.290521
0.307838
0.326885
0.346891
0.367057
0.387091
0.406359
0.20025
0.20064
0.20129
0.202322
0.203719
0.205352
0.207108
0.208954
0.210907
0.212999
0.215261
0.217725
0.220431
0.223427
0.226772
0.230539
0.234815
0.239705
0.245297
0.251894
0.259821
0.269604
0.281895
0.296628
0.312428
0.328611
0.344614
0.360426
0.375104
0.198046
0.198422
0.199038
0.200007
0.201316
0.202853
0.20451
0.206251
0.208091
0.210058
0.212178
0.214482
0.217002
0.21978
0.222868
0.226326
0.230224
0.234628
0.23968
0.245537
0.252511
0.260825
0.270956
0.282691
0.29493
0.307041
0.318607
0.32992
0.340155
0.195786
0.196148
0.19673
0.197632
0.198848
0.200277
0.201819
0.203438
0.205145
0.206962
0.208914
0.211024
0.213319
0.215833
0.218605
0.221681
0.225115
0.228976
0.233342
0.238292
0.243985
0.250603
0.258363
0.266959
0.275534
0.283594
0.290886
0.297874
0.303995
0.193476
0.193829
0.194379
0.195212
0.196323
0.197629
0.19904
0.200519
0.202073
0.203719
0.205477
0.207363
0.209396
0.211601
0.214007
0.216647
0.219555
0.222768
0.226317
0.23022
0.234528
0.239335
0.244647
0.250108
0.255154
0.259487
0.263029
0.266293
0.268942
0.191116
0.191454
0.191967
0.192726
0.193731
0.19491
0.196181
0.197508
0.198892
0.200348
0.201889
0.203525
0.205266
0.207128
0.209128
0.211283
0.213605
0.216095
0.218746
0.221529
0.224415
0.227384
0.230284
0.232791
0.234661
0.235799
0.236275
0.236595
0.236606
0.188711
0.189037
0.189512
0.190196
0.191089
0.192133
0.193254
0.194416
0.195618
0.196868
0.198175
0.199541
0.200968
0.202462
0.204025
0.205658
0.207351
0.209078
0.210795
0.212431
0.213893
0.215071
0.215709
0.215566
0.214721
0.213253
0.211343
0.209481
0.207684
0.186268
0.186583
0.187022
0.187629
0.188407
0.189309
0.19027
0.191258
0.192266
0.1933
0.194361
0.195441
0.196538
0.197643
0.198747
0.199833
0.200873
0.201816
0.202588
0.203081
0.203153
0.202636
0.201215
0.198768
0.195669
0.192144
0.188447
0.185058
0.182155
0.183791
0.184094
0.184493
0.185022
0.185685
0.186445
0.187244
0.188051
0.188858
0.189673
0.190479
0.191265
0.192021
0.192727
0.193361
0.19389
0.194269
0.194427
0.194264
0.193645
0.192395
0.190312
0.187054
0.182638
0.1777
0.17259
0.167584
0.163162
0.159659
0.181289
0.18158
0.18194
0.182392
0.18294
0.183557
0.184192
0.184811
0.185423
0.186012
0.186559
0.18705
0.187462
0.187768
0.187933
0.18791
0.187638
0.187028
0.18596
0.184281
0.181798
0.178289
0.17341
0.167322
0.160893
0.154556
0.148574
0.143426
0.139605
0.17877
0.179053
0.179377
0.179754
0.180187
0.180659
0.181123
0.181564
0.181976
0.182337
0.182629
0.182828
0.182903
0.182816
0.182522
0.181962
0.18106
0.179712
0.177785
0.175111
0.171487
0.166686
0.160371
0.152851
0.145184
0.137864
0.131103
0.125388
0.121375
0.176241
0.176515
0.176799
0.177102
0.177426
0.177756
0.17806
0.178326
0.17854
0.178682
0.178728
0.178644
0.178393
0.177929
0.177196
0.176126
0.174629
0.172589
0.169861
0.166266
0.161595
0.15562
0.148023
0.139249
0.130526
0.122383
0.114957
0.108754
0.10459
0.173711
0.173977
0.174223
0.174456
0.174674
0.174867
0.17502
0.175115
0.175141
0.175076
0.174888
0.174537
0.17398
0.173164
0.172025
0.170483
0.16844
0.165768
0.162311
0.157882
0.152266
0.145231
0.13648
0.126583
0.116923
0.108058
0.100028
0.0933737
0.0890833
0.171189
0.171449
0.171659
0.171826
0.171942
0.172011
0.172014
0.171948
0.1718
0.171542
0.171137
0.170541
0.169704
0.168568
0.167062
0.165098
0.162569
0.159338
0.155238
0.150074
0.14362
0.135635
0.125833
0.114896
0.10436
0.094819
0.0862112
0.079138
0.0747796
0.168684
0.168941
0.169117
0.169233
0.169255
0.169194
0.169055
0.16884
0.168533
0.1681
0.167499
0.166683
0.165598
0.16418
0.162353
0.160025
0.157079
0.153372
0.148729
0.142941
0.135769
0.126953
0.116197
0.104262
0.0928407
0.0826041
0.073398
0.065932
0.0616356
0.166201
0.166449
0.166606
0.166665
0.166592
0.166414
0.166152
0.165808
0.165361
0.164774
0.164002
0.162996
0.161698
0.160041
0.157947
0.155318
0.152035
0.147947
0.142873
0.136593
0.128849
0.119346
0.107757
0.0948675
0.0825109
0.0714823
0.0615757
0.0536888
0.0496128
0.163751
0.163996
0.164138
0.16414
0.163979
0.163694
0.163319
0.162862
0.162296
0.16158
0.160667
0.159503
0.158032
0.156185
0.153882
0.151024
0.147491
0.14313
0.137755
0.131137
0.123002
0.113012
0.10078
0.0870405
0.0736999
0.0617033
0.0508503
0.0423822
0.0387475
0.161338
0.161577
0.161691
0.161636
0.161396
0.161022
0.160559
0.160015
0.15936
0.158544
0.157519
0.156234
0.154631
0.152644
0.150195
0.147186
0.143497
0.138979
0.133446
0.126669
0.118362
0.108154
0.0955884
0.0812829
0.0670764
0.0539797
0.0417636
0.0321604
0.0290499
0.158988
0.159272
0.159418
0.159333
0.158992
0.158481
0.157898
0.157267
0.156541
0.155654
0.154551
0.153182
0.151493
0.149422
0.146892
0.143811
0.140064
0.135508
0.129966
0.123219
0.114988
0.104876
0.092352
0.0778788
0.0631244
0.0490389
0.0352055
0.0233098
0.0196877
0.166258
0.150263
0.127989
0.0995485
0.0681795
0.0375767
0.0105938
-0.014377
-0.0370749
-0.0621821
-0.0877962
-0.118548
-0.150425
-0.180435
-0.204719
-0.220794
-0.228719
-0.230621
-0.230034
0.174249
0.16247
0.141089
0.111734
0.0769618
0.0398238
0.00406042
-0.0323784
-0.0663343
-0.10448
-0.143342
-0.183169
-0.221615
-0.255463
-0.281521
-0.298621
-0.307958
-0.312019
-0.313462
0.170301
0.159719
0.139591
0.110225
0.0733396
0.0313402
-0.0112067
-0.0580676
-0.10497
-0.152755
-0.200903
-0.248272
-0.292147
-0.329315
-0.357341
-0.375908
-0.386715
-0.392294
-0.395052
0.161014
0.150667
0.132249
0.103635
0.064375
0.01777
-0.0328878
-0.0866451
-0.142236
-0.19889
-0.255616
-0.310455
-0.359868
-0.400385
-0.430106
-0.449551
-0.461137
-0.467656
-0.471343
0.148922
0.139401
0.122377
0.0940517
0.0531875
0.00332732
-0.0526979
-0.112924
-0.176231
-0.241385
-0.306077
-0.367126
-0.420393
-0.462626
-0.492864
-0.51259
-0.524792
-0.532216
-0.536704
0.132587
0.123505
0.107753
0.0803024
0.0391712
-0.0126056
-0.0723162
-0.138254
-0.208441
-0.280641
-0.351456
-0.416721
-0.472151
-0.515177
-0.54586
-0.566369
-0.579923
-0.589011
-0.595054
0.112328
0.102395
0.0870137
0.0604188
0.019678
-0.0330332
-0.0952051
-0.165023
-0.2398
-0.316245
-0.389999
-0.456207
-0.510801
-0.552149
-0.581293
-0.600911
-0.614313
-0.623603
-0.629869
0.089187
0.0773889
0.0611385
0.0345046
-0.00600539
-0.0589688
-0.12216
-0.193551
-0.270036
-0.347548
-0.420992
-0.485267
-0.536961
-0.57551
-0.602729
-0.621464
-0.634797
-0.644318
-0.650889
0.0640566
0.0499956
0.0319668
0.00426257
-0.0365111
-0.0893153
-0.152216
-0.223131
-0.298678
-0.374224
-0.444255
-0.503923
-0.550783
-0.58527
-0.609677
-0.626795
-0.639389
-0.648608
-0.65502
0.0377714
0.0215078
0.00133111
-0.0280596
-0.0695058
-0.121958
-0.18369
-0.252678
-0.325372
-0.396796
-0.461426
-0.515096
-0.556449
-0.586725
-0.608447
-0.62419
-0.636344
-0.645722
-0.652574
0.0112647
-0.00691055
-0.029207
-0.0604476
-0.102793
-0.15488
-0.214985
-0.281009
-0.349165
-0.414302
-0.471315
-0.517118
-0.551485
-0.576252
-0.593948
-0.606849
-0.616915
-0.624759
-0.630452
-0.014372
-0.0340156
-0.0580957
-0.0909073
-0.134006
-0.185556
-0.243622
-0.30588
-0.368337
-0.426025
-0.474738
-0.512666
-0.540517
-0.560391
-0.574584
-0.584967
-0.593036
-0.599318
-0.603797
-0.0381153
-0.0587131
-0.0840589
-0.117856
-0.161209
-0.211804
-0.267425
-0.325497
-0.38197
-0.432365
-0.473562
-0.50487
-0.527589
-0.543814
-0.555521
-0.564222
-0.571076
-0.576604
-0.580647
-0.059223
-0.0803032
-0.106393
-0.14055
-0.183568
-0.232702
-0.285402
-0.338802
-0.388917
-0.432006
-0.466116
-0.491491
-0.509745
-0.522801
-0.532283
-0.539379
-0.544961
-0.54952
-0.552823
-0.0772227
-0.0983897
-0.124752
-0.158703
-0.200819
-0.24797
-0.297295
-0.345719
-0.389564
-0.426016
-0.454208
-0.475016
-0.490106
-0.50111
-0.509293
-0.515547
-0.52052
-0.524647
-0.527652
-0.091992
-0.112953
-0.139212
-0.172533
-0.213336
-0.258168
-0.303946
-0.347543
-0.385762
-0.416722
-0.440384
-0.457961
-0.471008
-0.480858
-0.488475
-0.494531
-0.499527
-0.503814
-0.50704
-0.10374
-0.12432
-0.150239
-0.182706
-0.221991
-0.26431
-0.306382
-0.345157
-0.3781
-0.404252
-0.4242
-0.439277
-0.450819
-0.45985
-0.467074
-0.472975
-0.477943
-0.482222
-0.485448
-0.112797
-0.132903
-0.158352
-0.189895
-0.227642
-0.267476
-0.305976
-0.340322
-0.368723
-0.391016
-0.408184
-0.421524
-0.432119
-0.440717
-0.447802
-0.453702
-0.45872
-0.463012
-0.466239
-0.119598
-0.139194
-0.164133
-0.194828
-0.231236
-0.268925
-0.304378
-0.335057
-0.359852
-0.379195
-0.394296
-0.406359
-0.41625
-0.424505
-0.431447
-0.437294
-0.44229
-0.446535
-0.449724
-0.124638
-0.143722
-0.168201
-0.198219
-0.233533
-0.269354
-0.30209
-0.329566
-0.351331
-0.368274
-0.3817
-0.392676
-0.401872
-0.409658
-0.416242
-0.421774
-0.426456
-0.430366
-0.433262
-0.12831
-0.146904
-0.17104
-0.20061
-0.235127
-0.269458
-0.29998
-0.324907
-0.344325
-0.359415
-0.371499
-0.381519
-0.390007
-0.397226
-0.403315
-0.408381
-0.412597
-0.416043
-0.418556
-0.130987
-0.149156
-0.173127
-0.202454
-0.236381
-0.269507
-0.29825