/*--------------------------------*- C++ -*----------------------------------*\
| =========                 |                                                 |
| \\      /  F ield         | OpenFOAM: The Open Source CFD Toolbox           |
|  \\    /   O peration     | Version:  2312                                  |
|   \\  /    A nd           | Website:  www.openfoam.com                      |
|    \\/     M anipulation  |                                                 |
\*---------------------------------------------------------------------------*/
FoamFile
{
    version     2.0;
    format      ascii;
    arch        "LSB;label=32;scalar=64";
    class       surfaceScalarField;
    location    "84.932076508251313";
    object      phi;
}
// * * * * * * * * * * * * * * * * * * * * * * * * * * * * * * * * * * * * * //

dimensions      [0 3 -1 0 0 0 0];

oriented        oriented;

internalField   nonuniform List<scalar> 
41713
(
0.00736126
0.0568852
0.00362735
0.0679803
0.00211555
0.0657582
0.00148219
0.0648798
0.00109572
0.0646329
0.000840906
0.0645012
0.000665071
0.0644223
0.000537285
0.0643742
0.000440938
0.0643428
0.000366371
0.064321
0.000307459
0.0643053
0.000260147
0.0642937
0.00022167
0.0642849
0.00019009
0.064278
0.000164015
0.0642725
0.000142426
0.064268
0.000124563
0.0642643
0.000109847
0.0642612
9.78254e-05
0.0642585
8.81226e-05
0.0642561
8.03867e-05
0.0642542
7.42636e-05
0.0642526
6.94796e-05
0.0642512
6.59392e-05
0.0548147
6.29639e-05
0.045679
6.02936e-05
0.038066
5.78998e-05
0.0317218
5.57802e-05
0.026435
0.0220293
5.38855e-05
0.00999256
0.0468926
0.0084236
0.0695493
0.0057106
0.0684712
0.00411576
0.0664747
0.00311352
0.0656351
0.00242036
0.0651944
0.00192055
0.0649221
0.00154865
0.0647461
0.00126435
0.0646271
0.00104185
0.0645435
0.000864227
0.064483
0.000720095
0.0644379
0.000601611
0.0644034
0.000503242
0.0643764
0.000421007
0.0643547
0.000351995
0.064337
0.000294047
0.0643222
0.000245538
0.0643097
0.000205223
0.0642988
0.000172128
0.0642892
0.000145466
0.0642808
0.000124554
0.0642735
0.0001087
0.0642671
9.83011e-05
0.0548251
9.12737e-05
0.045686
8.61732e-05
0.0380711
8.21401e-05
0.0317259
7.87249e-05
0.0264384
0.0220321
7.58671e-05
0.0085932
0.0382994
0.00970144
0.0684411
0.0074613
0.0707114
0.00569029
0.0682457
0.00449939
0.066826
0.00361116
0.0660826
0.00292548
0.0656078
0.00239076
0.0652808
0.00196831
0.0650495
0.00162958
0.0648822
0.00135413
0.0647584
0.00112735
0.0646647
0.000938685
0.0645921
0.000780452
0.0645346
0.000646994
0.0644882
0.000534112
0.0644499
0.000438659
0.0644177
0.000358256
0.0643901
0.000291089
0.0643659
0.000235754
0.0643446
0.000191149
0.0643254
0.000156367
0.0643083
0.0001305
0.0642929
0.000114273
0.0548413
0.000104028
0.0456962
9.71331e-05
0.038078
9.20083e-05
0.031731
8.78376e-05
0.0264426
0.0220356
8.44188e-05
0.00677168
0.0315277
0.00946657
0.0657462
0.00810874
0.0720692
0.00642629
0.0699281
0.0052321
0.0680202
0.00432295
0.0669918
0.00358747
0.0663432
0.00298633
0.065882
0.00249234
0.0655435
0.00208349
0.0652911
0.00174251
0.0650994
0.00145601
0.0649512
0.0012137
0.0648344
0.00100771
0.0647406
0.00083201
0.0646639
0.000682007
0.0645999
0.000554189
0.0645455
0.000445866
0.0644984
0.000354976
0.0644568
0.000279928
0.0644196
0.000219484
0.0643859
0.000172636
0.0643551
0.000138293
0.0643273
0.000117352
0.0548623
0.000104668
0.0457089
9.65354e-05
0.0380861
9.07716e-05
0.0317367
8.62988e-05
0.026447
0.022039
8.28062e-05
0.00506176
0.026466
0.00856052
0.0622474
0.00816796
0.0724618
0.00672085
0.0713752
0.0055619
0.0691792
0.00468165
0.067872
0.00395874
0.0670661
0.00334941
0.0664913
0.00283271
0.0660602
0.0023927
0.0657311
0.00201643
0.0654757
0.0016934
0.0652742
0.00141514
0.0651126
0.00117491
0.0649808
0.000967339
0.0648715
0.000788221
0.064779
0.000634257
0.0646995
0.00050289
0.0646298
0.000392145
0.0645676
0.000300499
0.0645113
0.000226772
0.0644596
0.00016999
0.0644119
0.000128993
0.0643683
0.000104745
0.0548865
9.07466e-05
0.0457229
8.23307e-05
0.0380945
7.67952e-05
0.0317423
7.28179e-05
0.026451
0.0220419
6.99497e-05
0.00361517
0.0228508
0.0073025
0.0585601
0.00776955
0.0719947
0.00670688
0.0724379
0.00564214
0.0702439
0.00481209
0.0687021
0.00412579
0.0677524
0.00353496
0.0670822
0.00302173
0.0665734
0.00257454
0.0661783
0.00218389
0.0658663
0.00184192
0.0656162
0.00154219
0.0654124
0.00127945
0.0652436
0.00104944
0.0651015
0.000848731
0.0649797
0.00067462
0.0648736
0.000524996
0.0647794
0.000398235
0.0646943
0.000293104
0.0646164
0.000208666
0.064544
0.000144134
0.0644764
9.84212e-05
0.064414
7.24562e-05
0.0549125
5.84492e-05
0.0457369
5.08632e-05
0.0381021
4.65786e-05
0.0317466
4.41211e-05
0.0264535
0.0220433
4.27832e-05
0.00252009
0.0203307
0.00601184
0.0550683
0.0070868
0.0709198
0.00645355
0.0730711
0.00553792
0.0711596
0.00477804
0.069462
0.00414331
0.0683872
0.00358663
0.0676388
0.00309207
0.067068
0.00265198
0.0666184
0.00226008
0.0662582
0.00191094
0.0659653
0.00160002
0.0657233
0.00132355
0.0655201
0.00107844
0.0653466
0.000862216
0.065196
0.000672917
0.0650629
0.000509053
0.0649432
0.000369525
0.0648339
0.000253555
0.0647324
0.00016061
0.064637
9.02337e-05
0.0645468
4.15489e-05
0.0644627
1.54026e-05
0.0549386
2.70123e-06
0.0457496
-2.89487e-06
0.0381077
-5.12513e-06
0.0317488
-5.81983e-06
0.0264542
0.0220427
-5.23365e-06
0.00175643
0.0185743
0.00488389
0.0519409
0.00631378
0.0694899
0.00606325
0.0733217
0.00531526
0.0719075
0.00463098
0.0701462
0.00405143
0.0689667
0.00353607
0.0681542
0.00306879
0.0675353
0.00264444
0.0670427
0.0022595
0.0666432
0.00191078
0.066314
0.0015955
0.0660386
0.0013113
0.0658043
0.00105625
0.0656016
0.000828829
0.0654234
0.000627889
0.0652638
0.000452644
0.0651185
0.000302617
0.0649839
0.000177608
0.0648574
7.76184e-05
0.064737
2.69334e-06
0.0646217
-4.77317e-05
0.0645131
-7.34205e-05
0.0549643
-8.41058e-05
0.0457603
-8.69679e-05
0.0381106
-8.60058e-05
0.0317478
-8.31678e-05
0.0264513
0.0220389
-7.94306e-05
0.00124641
0.0173279
0.00396659
0.0492207
0.00556419
0.0678923
0.00561953
0.0732663
0.00503467
0.0724924
0.00442093
0.07076
0.00388967
0.069498
0.0034135
0.0686304
0.00297504
0.0679738
0.00256973
0.067448
0.00219575
0.0670171
0.00185158
0.0666582
0.00153588
0.0663543
0.00124751
0.0660926
0.000985584
0.0658636
0.000749498
0.0656595
0.000538909
0.0654744
0.000353756
0.0653036
0.000194244
0.0651434
6.08026e-05
0.0649908
-4.59863e-05
0.0648438
-0.000125571
0.0647013
-0.000177978
0.0645655
-0.000202613
0.054989
-0.000210636
0.0457683
-0.000209911
0.0381098
-0.000204955
0.0317429
-0.000198058
0.0264444
0.0220311
-0.000190268
0.000912963
0.0164149
0.00324064
0.046893
0.00488079
0.0662521
0.0051657
0.0729814
0.00473099
0.0729271
0.00418179
0.0713092
0.00368929
0.0699905
0.00324524
0.0690744
0.00283211
0.0683869
0.00244474
0.0678354
0.002082
0.0673799
0.0017434
0.0669968
0.00142858
0.0666691
0.00113732
0.0663839
0.000869613
0.0661313
0.000625623
0.0659035
0.000405754
0.0656943
0.000210656
0.0654987
4.11928e-05
0.0653129
-0.000101568
0.0651336
-0.000216336
0.0649585
-0.000301749
0.0647867
-0.000357128
0.0646209
-0.000381688
0.0550135
-0.00038749
0.0457741
-0.00038324
0.0381056
-0.000374007
0.0317336
-0.000362466
0.0264329
0.0220186
-0.000349959
0.000696311
0.0157186
0.00267244
0.0449169
0.00427559
0.064649
0.00472227
0.0725347
0.00442013
0.0732292
0.00393068
0.0717986
0.00346907
0.0704521
0.00304947
0.069494
0.0026563
0.0687801
0.00228344
0.0682082
0.00192984
0.0677335
0.00159553
0.0673311
0.00128076
0.0669839
0.000985956
0.0666787
0.000711734
0.0664055
0.000458904
0.0661563
0.000228515
0.0659247
2.17986e-05
0.0657055
-0.000159778
0.0654944
-0.0003144
0.0652882
-0.00043995
0.0650841
-0.000534248
0.064881
-0.00059583
0.0646825
-0.000622866
0.0550406
-0.000628289
0.0457795
-0.000621634
0.0380989
-0.000608632
0.0317206
-0.000592494
0.0264168
0.0220012
-0.00057504
0.000552854
0.0151657
0.00222777
0.043242
0.00374771
0.063129
0.00430033
0.0719821
0.00411069
0.0734189
0.00367628
0.072233
0.00323961
0.0708888
0.00283764
0.069896
0.00245882
0.0691589
0.00209623
0.0685708
0.0017485
0.0680812
0.00141583
0.0676638
0.00109883
0.0673009
0.000798329
0.0669792
0.000515376
0.0666885
0.00025128
0.0664204
7.50987e-06
0.0661684
-0.000214209
0.0659272
-0.000411734
0.065692
-0.000582505
0.065459
-0.000723636
0.0652252
-0.000832119
0.0649895
-0.000905583
0.0647559
-0.000940078
0.0550751
-0.000949051
0.0457885
-0.000942845
0.0380927
-0.000927938
0.0317057
-0.000908264
0.0263971
0.0219792
-0.000886335
0.000453335
0.0147124
0.00187632
0.041819
0.00328989
0.0617155
0.00390539
0.0713666
0.00380823
0.073516
0.00342388
0.0726174
0.00300764
0.071305
0.0026175
0.0702861
0.00224769
0.0695287
0.00189093
0.0689276
0.0015453
0.0684268
0.00121092
0.0679981
0.000888524
0.0676233
0.000579137
0.0672886
0.000284102
0.0669835
4.94453e-06
0.0666996
-0.000256548
0.0664299
-0.000498121
0.0661687
-0.000717019
0.0659109
-0.000910068
0.065652
-0.0010737
0.0653889
-0.00120418
0.06512
-0.00129833
0.0648501
-0.00134855
0.0551253
-0.00136819
0.0458082
-0.00136809
0.0380926
-0.00135543
0.0316931
-0.00133505
0.0263767
0.0219546
-0.00131044
0.000380046
0.0143324
0.00159426
0.0406048
0.00289267
0.0604171
0.00353916
0.0707201
0.00351614
0.0735391
0.00317691
0.0729566
0.00277784
0.0717041
0.00239491
0.070669
0.00202933
0.0698943
0.00167412
0.0692828
0.00132671
0.0687742
0.000986939
0.0683379
0.000655438
0.0679548
0.00033329
0.0676107
2.1825e-05
0.067295
-0.000277349
0.0669987
-0.000562118
0.0667147
-0.000829767
0.0664364
-0.00107711
0.0661582
-0.00130042
0.0658753
-0.00149561
0.065584
-0.00165845
0.0652828
-0.00178547
0.0649771
-0.00186379
0.0552036
-0.00190573
0.0458501
-0.00192179
0.0381087
-0.00191939
0.0316907
-0.00190428
0.0263616
0.0219317
-0.00188134
0.000322958
0.0140094
0.00136589
0.0395618
0.00254988
0.0592331
0.00320348
0.0700665
0.00323707
0.0735055
0.00293735
0.0732563
0.00255296
0.0720885
0.00217382
0.0710482
0.00180853
0.0702596
0.00145104
0.0696403
0.00109819
0.0691271
0.000749372
0.0686867
0.000404976
0.0682992
6.58572e-05
0.0679498
-0.000266839
0.0676276
-0.000591447
0.0673233
-0.000905601
0.0670289
-0.00120636
0.0667372
-0.00149015
0.066442
-0.0017528
0.066138
-0.00198977
0.065821
-0.00219685
0.0654899
-0.00237142
0.0651517
-0.00249472
0.0553269
-0.00257756
0.0459329
-0.00262851
0.0381596
-0.00265292
0.0317151
-0.00265583
0.0263645
0.0219191
-0.00264322
0.000237712
0.0137717
0.00100494
0.0387946
0.00191788
0.0583201
0.0024628
0.0695216
0.00252468
0.0734436
0.00229884
0.0734822
0.00198489
0.0724024
0.00166666
0.0713664
0.00135694
0.0705693
0.0010516
0.0699456
0.000747536
0.0694312
0.000443769
0.0689905
0.000140286
0.0686026
-0.000162621
0.0682528
-0.000464208
0.0679292
-0.000763142
0.0676223
-0.00105752
0.0673232
-0.00134482
0.0670244
-0.00162178
0.066719
-0.00188444
0.0664006
-0.00212836
0.0660649
-0.00234953
0.0657111
-0.00254646
0.0653486
-0.00269869
0.0554791
-0.00281659
0.0460508
-0.00290683
0.0382499
-0.00297051
0.0317788
-0.00300753
0.0264015
0.0219332
-0.00302163
0.000178436
0.0135933
0.000750558
0.0382225
0.00145509
0.0576156
0.00190095
0.0690758
0.00197144
0.0733731
0.00179991
0.0736537
0.00154467
0.0726577
0.00127997
0.0716311
0.00102003
0.0708292
0.00076209
0.0702036
0.000503185
0.0696901
0.000242078
0.0692516
-2.16467e-05
0.0688664
-0.000288061
0.0685192
-0.000556873
0.068198
-0.000827277
0.0678927
-0.00109798
0.0675939
-0.00136707
0.0672935
-0.00163189
0.0669838
-0.00188889
0.0666577
-0.00213376
0.0663098
-0.00236211
0.0659394
-0.00257158
0.0655581
-0.00273941
0.055647
-0.00287838
0.0461898
-0.00299968
0.0383712
-0.00310783
0.0318869
-0.00320043
0.0264941
0.0219964
-0.00326365
0.000138103
0.0134552
0.000573563
0.037787
0.00112357
0.0570656
0.00148735
0.068712
0.00155697
0.0733035
0.00142502
0.0737857
0.00121716
0.0728655
0.000997356
0.0718509
0.000779716
0.0710469
0.000562406
0.0704209
0.000342738
0.0699097
0.000119366
0.069475
-0.000108405
0.0690941
-0.000340957
0.0687517
-0.000578343
0.0684354
-0.000820311
0.0681346
-0.00106619
0.0678398
-0.00131479
0.0675421
-0.00156418
0.0672332
-0.00181158
0.0669051
-0.00205315
0.0665514
-0.00228425
0.0661705
-0.00250023
0.065774
-0.00267198
0.0558187
-0.00281025
0.0463281
-0.00293174
0.0384927
-0.00305079
0.032006
-0.00318564
0.026629
0.0221579
-0.00334712
0.000106208
0.0133489
0.000445733
0.0374475
0.000883698
0.0566276
0.00118251
0.0684132
0.00124553
0.0732405
0.00114046
0.0738907
0.000969451
0.0730365
0.000786943
0.0720334
0.000605293
0.0712285
0.000422868
0.0706033
0.000237211
0.0700954
4.70037e-05
0.0696652
-0.000148543
0.0692897
-0.000349993
0.0689532
-0.000557745
0.0686432
-0.000771995
0.0683489
-0.000992647
0.0680605
-0.00121918
0.0677687
-0.00145051
0.0674645
-0.00168485
0.0671394
-0.00191956
0.0667861
-0.00215113
0.0664021
-0.00237463
0.0659975
-0.00255402
0.0559981
-0.00268838
0.0464624
-0.00278412
0.0385884
-0.00285097
0.0320728
-0.00290654
0.0266845
-0.00308886
0.0223402
9.82479e-05
0.021983
0.000140101
0.0219855
0.000173015
0.0219944
0.000203594
0.0219968
0.00022836
0.0220026
0.000248602
0.0220071
0.00026582
0.0220101
0.000276724
0.0220165
0.000285628
0.0220185
0.000289516
0.0220235
0.00029034
0.0220265
0.000288644
0.0220291
0.000282505
0.0220335
0.000274769
0.0220351
0.000263784
0.0220383
0.000250496
0.0220406
0.000235875
0.022042
0.000218275
0.022045
0.000199611
0.022046
0.000179709
0.0220473
0.000158241
0.0220488
0.000136157
0.0220494
0.000113403
0.0220501
9.01361e-05
0.0220506
6.67582e-05
0.0220507
4.34358e-05
0.0220507
2.05525e-05
0.0220502
-1.89208e-06
0.0220498
-2.35771e-05
0.022049
-4.38625e-05
0.0220476
-6.32421e-05
0.0220467
-8.08865e-05
0.022045
-9.64917e-05
0.022043
-0.000110822
0.0220417
-0.000121843
0.0220384
-0.000130876
0.0220364
-0.000137615
0.0220341
-0.000140166
0.0220299
-0.000140921
0.0220281
-0.000136988
0.0220234
-0.000129882
0.0220202
-0.000119635
0.0220171
-0.00010357
0.0220113
-8.53246e-05
0.0220091
-6.03418e-05
0.0220024
-3.18947e-05
0.0219989
1.38095e-06
0.0219941
4.1033e-05
0.0219877
0.0219852
8.32062e-05
0.000119522
0.0219393
0.000160902
0.0219441
0.000193578
0.0219618
0.000224169
0.0219662
0.000249204
0.0219776
0.000269969
0.0219863
0.000287957
0.0219921
0.000299869
0.0220045
0.000310005
0.0220083
0.000315338
0.0220181
0.000317809
0.0220241
0.000317944
0.0220289
0.000313814
0.0220376
0.000308246
0.0220407
0.000299578
0.022047
0.000288742
0.0220515
0.000276692
0.022054
0.000261775
0.0220599
0.000245887
0.0220619
0.000228842
0.0220643
0.0002103
0.0220674
0.000191197
0.0220685
0.000171464
0.0220698
0.00015125
0.0220708
0.000130938
0.022071
0.000110684
0.0220709
9.0864e-05
0.0220701
7.14584e-05
0.0220692
5.27775e-05
0.0220677
3.54506e-05
0.022065
1.89609e-05
0.0220632
4.12812e-06
0.0220598
-8.75852e-06
0.0220558
-2.04817e-05
0.0220534
-2.90058e-05
0.0220469
-3.56734e-05
0.0220431
-4.01886e-05
0.0220386
-4.06627e-05
0.0220304
-3.95097e-05
0.022027
-3.3842e-05
0.0220178
-2.51936e-05
0.0220116
-1.36131e-05
0.0220055
3.56961e-06
0.0219941
2.26899e-05
0.02199
4.83047e-05
0.0219768
7.71125e-05
0.0219701
0.000110462
0.0219607
0.000149875
0.0219483
0.0219436
0.000191478
0.000127699
0.0218961
0.000168931
0.0219029
0.00020172
0.021929
0.000232694
0.0219352
0.000258375
0.0219519
0.000280044
0.0219647
0.000299181
0.021973
0.000312479
0.0219912
0.000324224
0.0219966
0.000331379
0.022011
0.000335872
0.0220196
0.000338217
0.0220266
0.000336473
0.0220394
0.000333453
0.0220437
0.000327484
0.022053
0.000319483
0.0220595
0.00031039
0.0220631
0.000298542
0.0220717
0.000285819
0.0220746
0.00027202
0.0220781
0.000256798
0.0220826
0.000241067
0.0220843
0.000224749
0.0220862
0.000207981
0.0220876
0.000191128
0.0220879
0.000174334
0.0220877
0.000157965
0.0220864
0.000141982
0.0220852
0.000126683
0.022083
0.00011269
0.022079
9.94641e-05
0.0220765
8.78187e-05
0.0220715
7.80298e-05
0.0220656
6.92937e-05
0.0220621
6.36417e-05
0.0220526
5.97073e-05
0.022047
5.77733e-05
0.0220405
5.97226e-05
0.0220284
6.31155e-05
0.0220236
7.0839e-05
0.02201
8.13389e-05
0.0220011
9.45538e-05
0.0219923
0.000113152
0.0219755
0.00013344
0.0219697
0.000159978
0.0219502
0.000189436
0.0219406
0.000223151
0.021927
0.000262631
0.0219088
0.0219022
0.000303962
0.000126298
0.0218526
0.000167949
0.0218612
0.0002014
0.0218955
0.0002333
0.0219033
0.000260177
0.021925
0.000283305
0.0219416
0.000304159
0.0219522
0.000319421
0.021976
0.000333366
0.0219826
0.000342945
0.0220014
0.000350072
0.0220124
0.000355249
0.0220214
0.000356522
0.0220381
0.000356687
0.0220435
0.000354062
0.0220556
0.000349548
0.022064
0.000344068
0.0220686
0.000335951
0.0220798
0.000327057
0.0220835
0.000317171
0.022088
0.000305935
0.0220938
0.000294245
0.022096
0.000282009
0.0220984
0.000269351
0.0221003
0.00025662
0.0221006
0.000243944
0.0221004
0.00023168
0.0220987
0.000219767
0.0220971
0.000208493
0.0220943
0.000198467
0.022089
0.00018913
0.0220858
0.000181286
0.0220793
0.000175198
0.0220717
0.000170039
0.0220673
0.000167841
0.0220548
0.000167214
0.0220476
0.000168427
0.0220393
0.00017336
0.0220235
0.000179545
0.0220174
0.000189873
0.0219997
0.000202765
0.0219882
0.000218148
0.0219769
0.00023869
0.021955
0.000260666
0.0219477
0.000288644
0.0219222
0.000319264
0.02191
0.000353853
0.0218924
0.00039391
0.0218688
0.0218607
0.00043548
0.000114448
0.0218081
0.000157301
0.0218184
0.000192191
0.0218606
0.000225797
0.0218697
0.000254653
0.0218961
0.000280034
0.0219162
0.000303411
0.0219288
0.000321453
0.0219579
0.000338429
0.0219656
0.000351275
0.0219886
0.000361893
0.0220018
0.000370771
0.0220125
0.000375942
0.0220329
0.000380186
0.0220393
0.000381807
0.022054
0.000381692
0.0220641
0.000380746
0.0220695
0.000377288
0.0220833
0.000373156
0.0220877
0.000368122
0.022093
0.000361815
0.0221001
0.000355108
0.0221027
0.000347897
0.0221056
0.000340294
0.0221079
0.000332624
0.0221083
0.000325003
0.022108
0.000317774
0.0221059
0.000310857
0.022104
0.000304522
0.0221006
0.000299372
0.0220941
0.000294821
0.0220903
0.000291665
0.0220825
0.000290152
0.0220732
0.000289432
0.022068
0.000291538
0.0220526
0.000295053
0.0220441
0.000300233
0.0220342
0.000308958
0.0220148
0.000318729
0.0220076
0.000332441
0.021986
0.000348494
0.0219722
0.000366801
0.0219586
0.000390034
0.0219317
0.000414435
0.0219233
0.000444586
0.0218921
0.000477098
0.0218775
0.000513289
0.0218562
0.000554654
0.0218274
0.0218181
0.000597192
8.91843e-05
0.0217617
0.000134189
0.0217734
0.000171481
0.0218233
0.000207779
0.0218334
0.000239618
0.0218643
0.000268277
0.0218875
0.000295222
0.0219018
0.000317113
0.021936
0.000338209
0.0219446
0.000355431
0.0219713
0.000370671
0.0219866
0.000384398
0.0219988
0.000394635
0.0220227
0.000404143
0.0220298
0.000411212
0.0220469
0.000416711
0.0220586
0.000421527
0.0220647
0.000423966
0.0220809
0.000425846
0.0220858
0.000426918
0.0220919
0.000426801
0.0221002
0.000426343
0.0221031
0.000425424
0.0221065
0.000424141
0.0221091
0.000422796
0.0221096
0.000421486
0.0221093
0.000420546
0.0221069
0.000419865
0.0221047
0.000419701
0.0221008
0.000420645
0.0220932
0.000422082
0.0220889
0.0004248
0.0220798
0.000429032
0.022069
0.000433898
0.0220632
0.000441438
0.0220451
0.000450202
0.0220353
0.000460433
0.0220239
0.000474015
0.0220012
0.000488408
0.0219932
0.000506523
0.0219679
0.000526731
0.0219519
0.000548933
0.0219364
0.000575811
0.0219049
0.000603566
0.0218956
0.000636807
0.0218588
0.000672104
0.0218422
0.000710776
0.0218176
0.000754312
0.0217839
0.0217738
0.000798657
4.47349e-05
0.0217117
9.32565e-05
0.0217249
0.000134307
0.0217823
0.00017462
0.0217931
0.000210746
0.0218282
0.000244001
0.0218543
0.000275852
0.02187
0.000302951
0.0219089
0.000329555
0.0219179
0.000352571
0.0219483
0.000373875
0.0219653
0.000393926
0.0219787
0.000410727
0.0220059
0.000427024
0.0220135
0.000441088
0.0220328
0.000453771
0.0220459
0.000465937
0.0220526
0.000475881
0.0220709
0.000485393
0.0220763
0.000494206
0.0220831
0.000501923
0.0220925
0.000509364
0.0220957
0.00051639
0.0220995
0.000523082
0.0221025
0.000529712
0.022103
0.000536359
0.0221027
0.000543343
0.0220999
0.000550521
0.0220975
0.000558134
0.0220932
0.00056676
0.0220846
0.00057575
0.0220799
0.000585882
0.0220696
0.000597371
0.0220575
0.000609302
0.0220512
0.000623726
0.0220307
0.000639152
0.0220199
0.000655809
0.0220073
0.000675587
0.0219814
0.0006959
0.0219729
0.000719678
0.0219441
0.000745261
0.0219264
0.000772535
0.0219091
0.000804201
0.0218732
0.000836407
0.0218634
0.000873801
0.0218215
0.000912909
0.0218031
0.000955051
0.0217754
0.00100171
0.0217372
0.0217267
0.00104878
-2.58787e-05
0.0216581
2.76221e-05
0.0216714
7.40648e-05
0.0217358
0.000119771
0.0217474
0.000161698
0.0217862
0.0002011
0.0218149
0.000239443
0.0218316
0.000273385
0.021875
0.000307186
0.0218841
0.00033773
0.0219178
0.000366884
0.0219361
0.000395086
0.0219505
0.000420322
0.0219807
0.00044532
0.0219885
0.000468329
0.0220098
0.000490181
0.0220241
0.000511715
0.022031
0.000531209
0.0220514
0.000550423
0.022057
0.000569067
0.0220645
0.000586725
0.0220749
0.000604184
0.0220782
0.000621282
0.0220824
0.00063808
0.0220857
0.000654812
0.0220863
0.000671535
0.022086
0.000688553
0.0220829
0.000705679
0.0220804
0.000723134
0.0220757
0.000741484
0.0220662
0.00076003
0.0220614
0.000779543
0.0220501
0.000800214
0.0220368
0.000821087
0.0220304
0.000844223
0.0220075
0.000868084
0.0219961
0.000892882
0.0219825
0.000920515
0.0219538
0.000948342
0.0219451
0.000979317
0.0219131
0.00101174
0.0218939
0.00104549
0.0218754
0.00108329
0.0218354
0.00112122
0.0218254
0.00116398
0.0217787
0.00120805
0.021759
0.00125474
0.0217287
0.00130556
0.0216864
0.021676
0.00135631
-0.000130743
0.0215986
-7.20545e-05
0.0216127
-1.99489e-05
0.0216837
3.32581e-05
0.0216942
8.31353e-05
0.0217364
0.000130617
0.0217674
0.000177463
0.0217848
0.000220287
0.0218322
0.000263353
0.0218411
0.000303541
0.0218776
0.000342725
0.0218969
0.000381325
0.0219119
0.0004173
0.0219447
0.000453367
0.0219524
0.000487746
0.0219755
0.000521246
0.0219906
0.000554679
0.0219976
0.000586297
0.0220198
0.000617832
0.0220255
0.000648961
0.0220334
0.000679244
0.0220446
0.000709427
0.022048
0.000739318
0.0220525
0.000768952
0.022056
0.000798517
0.0220567
0.000828039
0.0220564
0.000857797
0.0220531
0.000887555
0.0220506
0.000917502
0.0220458
0.000948185
0.0220355
0.000978848
0.0220307
0.00101025
0.0220187
0.00104254
0.0220046
0.00107472
0.0219982
0.00110887
0.0219734
0.00114337
0.0219615
0.00117843
0.0219474
0.00121595
0.0219163
0.00125322
0.0219078
0.00129323
0.0218731
0.00133424
0.0218529
0.00137609
0.0218336
0.00142155
0.0217899
0.00146663
0.0217804
0.00151609
0.0217292
0.00156635
0.0217088
0.00161874
0.0216763
0.00167476
0.0216303
0.0216206
0.00173014
-0.000283088
0.0215318
-0.000216025
0.0215456
-0.00015531
0.021623
-9.44348e-05
0.0216333
-3.62857e-05
0.0216782
2.11446e-05
0.0217099
7.87331e-05
0.0217272
0.000132743
0.0217782
0.000187384
0.0217864
0.000239691
0.0218253
0.000291494
0.0218451
0.00034319
0.0218602
0.000392703
0.0218952
0.000442745
0.0219024
0.000491493
0.0219267
0.000539732
0.0219423
0.000588243
0.0219491
0.000635238
0.0219728
0.000682415
0.0219783
0.000729413
0.0219864
0.000775752
0.0219983
0.000822132
0.0220017
0.000868319
0.0220063
0.000914308
0.02201
0.00096023
0.0220108
0.00100607
0.0220106
0.00105206
0.0220071
0.00109792
0.0220048
0.00114377
0.0219999
0.00119015
0.0219892
0.00123622
0.0219846
0.0012827
0.0219722
0.00132973
0.0219575
0.00137622
0.0219517
0.00142426
0.0219254
0.00147217
0.0219136
0.00152011
0.0218995
0.00157001
0.0218664
0.00161907
0.0218588
0.00167031
0.0218219
0.00172193
0.0218013
0.00177376
0.0217817
0.00182862
0.0217351
0.00188242
0.0217266
0.00194002
0.0216716
0.00199775
0.0216511
0.00205696
0.0216171
0.00211918
0.0215681
0.0215598
0.00218002
-0.000499587
0.0214563
-0.000423217
0.0214692
-0.000352354
0.0215522
-0.000280033
0.021561
-0.000209948
0.0216081
-0.00014107
0.0216411
-7.15452e-05
0.0216577
-4.44417e-06
0.0217111
6.47394e-05
0.0217173
0.0001322
0.0217578
0.000199688
0.0217776
0.000267753
0.0217922
0.000334236
0.0218287
0.000401844
0.0218348
0.000468692
0.0218599
0.000535542
0.0218755
0.000603141
0.0218815
0.000669641
0.0219063
0.000736706
0.0219113
0.000803914
0.0219192
0.000870734
0.0219314
0.000937804
0.0219346
0.00100483
0.0219393
0.00107175
0.0219431
0.00113862
0.0219439
0.00120535
0.0219439
0.00127215
0.0219403
0.00133861
0.0219383
0.00140483
0.0219337
0.00147127
0.0219227
0.001537
0.0219189
0.00160272
0.0219065
0.00166848
0.0218918
0.00173311
0.0218871
0.00179871
0.0218598
0.0018635
0.0218488
0.00192759
0.0218354
0.00199293
0.021801
0.00205659
0.0217951
0.00212167
0.0217568
0.00218628
0.0217367
0.00225024
0.0217178
0.00231642
0.0216689
0.00238061
0.0216624
0.00244781
0.0216044
0.00251424
0.0215846
0.00258129
0.0215501
0.00265052
0.0214989
0.0214928
0.00271745
-0.000801126
0.0213711
-0.00071393
0.021382
-0.000631399
0.0214696
-0.000546398
0.021476
-0.000462502
0.0215242
-0.000378352
0.0215569
-0.000292524
0.0215719
-0.000208742
0.0216273
-0.000122657
0.0216312
-3.72743e-05
0.0216724
4.94969e-05
0.0216909
0.000137702
0.021704
0.000225223
0.0217412
0.000314767
0.0217452
0.000404373
0.0217703
0.000494759
0.0217851
0.000586581
0.0217897
0.000677905
0.021815
0.000770352
0.0218188
0.000863415
0.0218261
0.000956489
0.0218384
0.00105013
0.021841
0.00114396
0.0218455
0.00123784
0.0218492
0.00133171
0.0218501
0.00142541
0.0218502
0.00151905
0.0218467
0.0016121
0.0218453
0.00170457
0.0218412
0.00179685
0.0218304
0.00188786
0.0218279
0.00197825
0.0218161
0.00206797
0.021802
0.00215572
0.0217993
0.0022436
0.0217719
0.0023297
0.0217628
0.00241405
0.021751
0.00249863
0.0217164
0.00258035
0.0217134
0.00266238
0.0216748
0.00274275
0.0216563
0.00282123
0.0216393
0.00290078
0.0215893
0.00297706
0.0215861
0.00305522
0.0215263
0.0031314
0.0215085
0.00320702
0.0214745
0.00328372
0.0214222
0.0214197
0.00335689
-0.00121496
0.0212756
-0.00111594
0.021283
-0.00102029
0.021374
-0.000920717
0.0213764
-0.000820986
0.0214245
-0.000719689
0.0214556
-0.000615216
0.0214674
-0.000511233
0.0215233
-0.000403242
0.0215232
-0.000294762
0.021564
-0.000183967
0.0215801
-7.04083e-05
0.0215904
4.34107e-05
0.0216273
0.000160361
0.0216283
0.000278695
0.0216519
0.000398891
0.0216649
0.000521563
0.021667
0.000644649
0.0216919
0.000769665
0.0216938
0.000895995
0.0216998
0.00102293
0.0217114
0.00115093
0.021713
0.00127949
0.0217169
0.00140836
0.0217204
0.00153734
0.0217211
0.00166612
0.0217214
0.00179471
0.0217181
0.0019224
0.0217176
0.00204904
0.0217146
0.00217492
0.0217046
0.00229875
0.0217041
0.00242106
0.0216938
0.0025417
0.0216814
0.00265915
0.0216819
0.00277551
0.0216555
0.00288864
0.0216496
0.00299852
0.0216411
0.00310711
0.0216079
0.00321113
0.0216094
0.00331381
0.0215721
0.00341309
0.0215571
0.0035087
0.0215437
0.00360372
0.0214943
0.00369365
0.0214961
0.00378387
0.021436
0.00387039
0.0214219
0.00395477
0.0213901
0.00403871
0.0213383
0.0213409
0.00411748
-0.00177667
0.0211709
-0.00166624
0.0211726
-0.00155731
0.0212651
-0.00144221
0.0212613
-0.00132482
0.0213071
-0.00120365
0.0213344
-0.00107705
0.0213408
-0.000948902
0.0213952
-0.00081451
0.0213888
-0.000677572
0.021427
-0.000536235
0.0214387
-0.000390296
0.0214445
-0.000242186
0.0214792
-8.93131e-05
0.0214754
6.5434e-05
0.0214972
0.000223176
0.0215072
0.000385425
0.0215047
0.000549194
0.0215281
0.000716092
0.0215269
0.000885384
0.0215305
0.00105622
0.0215406
0.00122891
0.0215403
0.0014028
0.021543
0.00157748
0.0215457
0.00175255
0.021546
0.0019275
0.0215464
0.00210215
0.0215434
0.00227552
0.0215442
0.00244725
0.0215429
0.00261742
0.0215344
0.00278444
0.021537
0.00294868
0.0215296
0.00310974
0.0215203
0.00326582
0.0215258
0.00341899
0.0215023
0.00356681
0.0215018
0.0037091
0.0214989
0.00384782
0.0214691
0.00397939
0.0214778
0.00410718
0.0214443
0.00422894
0.0214353
0.00434436
0.0214282
0.00445672
0.021382
0.00456131
0.0213916
0.00466384
0.0213335
0.00476023
0.0213255
0.00485221
0.0212981
0.0049417
0.0212488
0.0212587
0.00502384
-0.00253299
0.0210607
-0.00241348
0.0210531
-0.00229281
0.0211444
-0.00216265
0.0211312
-0.00202677
0.0211712
-0.00188329
0.021191
-0.00173046
0.0211879
-0.00157246
0.0212372
-0.00140468
0.021221
-0.00123133
0.0212537
-0.0010508
0.0212582
-0.000863189
0.0212569
-0.00067138
0.0212874
-0.000472645
0.0212766
-0.000269129
0.0212937
-6.07246e-05
0.0212988
0.000151451
0.0212926
0.000367163
0.0213124
0.00058806
0.021306
0.000812981
0.0213056
0.00104098
0.0213126
0.00127219
0.0213091
0.00150576
0.0213095
0.00174108
0.0213104
0.00197744
0.0213096
0.00221404
0.0213098
0.00245039
0.0213071
0.00268508
0.0213095
0.00291737
0.0213106
0.00314705
0.0213047
0.00337198
0.0213121
0.00359223
0.0213093
0.00380708
0.0213055
0.00401423
0.0213186
0.00421567
0.0213009
0.00440853
0.0213089
0.00459238
0.021315
0.00476918
0.0212923
0.00493494
0.021312
0.00509315
0.0212861
0.00524133
0.0212871
0.00537914
0.0212904
0.00551008
0.021251
0.00562921
0.0212724
0.00574278
0.02122
0.00584663
0.0212217
0.00594288
0.0212019
0.00603379
0.0211579
0.0211781
0.00611441
-0.00293645
0.0209755
-0.0028406
0.0209572
-0.00273905
0.0210428
-0.00262212
0.0210142
-0.00249266
0.0210418
-0.00234953
0.0210478
-0.00219229
0.0210307
-0.0020259
0.0210708
-0.00184744
0.0210425
-0.00166154
0.0210678
-0.00146748
0.0210642
-0.00126581
0.0210552
-0.00105929
0.0210809
-0.000845781
0.0210631
-0.000627463
0.0210753
-0.000403578
0.0210749
-0.000172904
0.0210619
6.1147e-05
0.0210784
0.000300263
0.0210669
0.000545136
0.0210607
0.000794472
0.0210633
0.00104839
0.0210551
0.00130606
0.0210518
0.00156676
0.0210497
0.00182958
0.0210468
0.00209343
0.021046
0.00235753
0.021043
0.00262009
0.021047
0.00287999
0.0210507
0.00313655
0.0210482
0.00338731
0.0210613
0.00363191
0.0210647
0.00386925
0.0210681
0.00409684
0.021091
0.00431622
0.0210815
0.00452448
0.0211007
0.00472102
0.0211185
0.00490752
0.0211058
0.00508019
0.0211394
0.00524216
0.0211241
0.00539108
0.0211382
0.00552659
0.0211549
0.00565178
0.0211258
0.00576214
0.0211621
0.00586329
0.0211188
0.00595163
0.0211333
0.00602939
0.0211241
0.00609927
0.021088
0.0211198
0.00615759
-0.00320121
0.0209131
-0.00313837
0.0208944
-0.00306632
0.0209708
-0.002968
0.0209159
-0.00284538
0.0209192
-0.00270027
0.0209027
-0.00253593
0.0208664
-0.00235973
0.0208946
-0.00217131
0.0208541
-0.00197603
0.0208725