/*--------------------------------*- C++ -*----------------------------------*\
| =========                 |                                                 |
| \\      /  F ield         | OpenFOAM: The Open Source CFD Toolbox           |
|  \\    /   O peration     | Version:  2312                                  |
|   \\  /    A nd           | Website:  www.openfoam.com                      |
|    \\/     M anipulation  |                                                 |
\*---------------------------------------------------------------------------*/
FoamFile
{
    version     2.0;
    format      ascii;
    arch        "LSB;label=32;scalar=64";
    class       surfaceScalarField;
    location    "68.626482696606033";
    object      phi;
}
// * * * * * * * * * * * * * * * * * * * * * * * * * * * * * * * * * * * * * //

dimensions      [0 3 -1 0 0 0 0];

oriented        oriented;

internalField   nonuniform List<scalar> 
41713
(
0.00736756
0.0568789
0.00363037
0.0679836
0.00211923
0.0657576
0.00148783
0.0648778
0.00110295
0.0646313
0.000849605
0.0644998
0.000675308
0.0644207
0.000549147
0.0643726
0.000454516
0.0643411
0.000381763
0.0643192
0.000324766
0.0643034
0.00027947
0.0642917
0.000243108
0.0642828
0.000213738
0.0642758
0.000189965
0.0642702
0.000170763
0.0642656
0.000155362
0.0642618
0.000143174
0.0642586
0.000133732
0.0642559
0.000126645
0.0642535
0.000121543
0.0642515
0.000118053
0.0642499
0.000115882
0.0642486
0.000114539
0.0548125
0.000113367
0.0456771
0.000112177
0.0380645
0.000110998
0.0317206
0.000109874
0.026434
0.0220285
0.000108798
0.00999846
0.0468804
0.00843662
0.0695455
0.0057266
0.0684676
0.00413508
0.0664694
0.00313704
0.0656294
0.00244849
0.0651883
0.00195359
0.0649156
0.0015869
0.0647393
0.00130811
0.0646199
0.00109144
0.0645359
0.000919946
0.0644749
0.000782245
0.0644294
0.00067049
0.0643946
0.000579134
0.0643672
0.00050418
0.0643452
0.000442696
0.0643271
0.000392495
0.064312
0.000351916
0.0642992
0.000319671
0.0642881
0.000294738
0.0642785
0.000276272
0.06427
0.000263527
0.0642627
0.000255749
0.0642564
0.000252108
0.0548162
0.000250575
0.0456787
0.000249929
0.0380651
0.000249503
0.031721
0.00024901
0.0264345
0.0220289
0.000248517
0.00860178
0.0382786
0.0097209
0.0684264
0.00748721
0.0707013
0.00572192
0.0682346
0.00453802
0.0668133
0.00365756
0.0660688
0.00298015
0.065593
0.0024542
0.0652652
0.00204104
0.065033
0.0017121
0.0648648
0.00144696
0.0647401
0.00123098
0.0646454
0.00105361
0.0645719
0.00090715
0.0645136
0.000785912
0.0644664
0.000685663
0.0644274
0.000603208
0.0643945
0.000536111
0.0643663
0.000482487
0.0643417
0.000440847
0.0643201
0.000409993
0.0643009
0.000388909
0.0642838
0.000376564
0.0642687
0.000371625
0.0548211
0.000370533
0.0456798
0.000371044
0.0380646
0.000371911
0.0317202
0.000372596
0.0264338
0.0220284
0.000373119
0.00678023
0.0314984
0.00948953
0.0657171
0.00814196
0.0720488
0.00646778
0.0699088
0.00528302
0.067998
0.00438449
0.0669673
0.00366038
0.0663172
0.00307127
0.0658544
0.00259002
0.0655143
0.00219459
0.0652602
0.00186772
0.0650669
0.00159603
0.0649171
0.00136921
0.0647987
0.00117936
0.0647035
0.00102044
0.0646253
0.000887794
0.06456
0.000777856
0.0645044
0.000687858
0.0644563
0.000615641
0.064414
0.000559497
0.0643762
0.000518052
0.0643423
0.000490144
0.0643117
0.000474507
0.0642844
0.000469181
0.0548264
0.000469165
0.0456798
0.00047129
0.0380625
0.000473834
0.0317176
0.000476099
0.0264315
0.0220264
0.000478082
0.00506954
0.0264289
0.00858367
0.0622029
0.00820479
0.0724277
0.00676872
0.0713449
0.00562121
0.0691455
0.00475381
0.0678347
0.00404479
0.0670262
0.00345019
0.066449
0.00294905
0.0660154
0.00252545
0.0656838
0.00216645
0.0654259
0.00186155
0.065222
0.00160228
0.065058
0.00138187
0.0649239
0.00119494
0.0648123
0.00103722
0.0647177
0.000905343
0.0646363
0.000796662
0.064565
0.000709085
0.0645015
0.000640948
0.0644444
0.000590903
0.0643923
0.000557784
0.0643448
0.000540209
0.0643019
0.000535553
0.0548311
0.000537475
0.0456779
0.000541964
0.038058
0.000546874
0.0317127
0.000551359
0.026427
0.0220224
0.000555372
0.00362176
0.0228071
0.00732293
0.0585018
0.00780541
0.0719452
0.00675641
0.0723939
0.00570491
0.070197
0.00488928
0.0686503
0.00421862
0.0676968
0.0036444
0.0670232
0.00314872
0.0665111
0.00272005
0.0661125
0.00234891
0.0657971
0.00202745
0.0655435
0.00174927
0.0653362
0.00150908
0.0651641
0.00130261
0.0650187
0.00112639
0.064894
0.000977643
0.0647851
0.000854164
0.0646885
0.000754198
0.0646015
0.000676356
0.0645222
0.000619509
0.0644492
0.000582652
0.0643816
0.000564443
0.0643202
0.000561554
0.054834
0.00056637
0.0456731
0.000574086
0.0380503
0.000582162
0.0317046
0.000589599
0.0264196
0.0220157
0.000596301
0.00252518
0.0202819
0.0060273
0.0549996
0.0071172
0.0708553
0.00649936
0.0730117
0.00559849
0.0710979
0.00485397
0.0693948
0.00423573
0.0683151
0.00369657
0.0675623
0.00322053
0.0669871
0.0028
0.066533
0.00242875
0.0661683
0.00210139
0.0658708
0.00181342
0.0656242
0.00156108
0.0654164
0.00134127
0.0652385
0.0011515
0.0650837
0.000989739
0.0649468
0.000854407
0.0648238
0.000744277
0.0647116
0.000658405
0.0646081
0.00059605
0.0645115
0.00055652
0.0644212
0.000538659
0.064338
0.000538416
0.0548342
0.000546953
0.0456645
0.000558702
0.0380386
0.000570744
0.0316926
0.000581916
0.0264084
0.0220056
0.00059205
0.00175979
0.0185221
0.00489293
0.0518665
0.00633499
0.0694133
0.00610007
0.0732467
0.00536771
0.0718303
0.00469908
0.0700635
0.00413593
0.0688782
0.00363794
0.0680603
0.003189
0.0674361
0.00278407
0.0669379
0.0024197
0.0665327
0.00209278
0.0661977
0.00180059
0.0659164
0.00154084
0.0656762
0.0013116
0.0654678
0.00111136
0.065284
0.000938933
0.0651192
0.000793455
0.0649693
0.000674336
0.0648308
0.000581204
0.0647012
0.000513835
0.0645789
0.000471983
0.064463
0.000454826
0.0643552
0.000457681
0.0548314
0.000470503
0.0456517
0.000486968
0.0380221
0.000503751
0.0316758
0.000519479
0.0263927
0.0219912
0.00053385
0.00124787
0.0172743
0.00396851
0.0491459
0.00557363
0.0678082
0.00564282
0.0731775
0.00507339
0.0723997
0.00447481
0.0706621
0.00395893
0.0693941
0.00349883
0.0685204
0.00307736
0.0678575
0.00269008
0.0673252
0.00233532
0.0668875
0.00201167
0.0665214
0.0017179
0.0662101
0.00145299
0.0659411
0.00121611
0.0657046
0.00100668
0.0654934
0.000824369
0.0653016
0.000669071
0.0651246
0.000540896
0.0649589
0.000440144
0.064802
0.000367236
0.0646518
0.000322476
0.0645078
0.000305535
0.0643721
0.0003113
0.0548256
0.000328522
0.0456345
0.000350075
0.0380005
0.000372172
0.0316537
0.000393189
0.0263717
0.0219718
0.000412633
0.000912375
0.0163619
0.00323541
0.0468228
0.00487717
0.0661664
0.00517216
0.0728825
0.00475118
0.0728207
0.00421569
0.0711975
0.00373656
0.0698733
0.00330619
0.0689508
0.00290749
0.0682562
0.00253553
0.0676972
0.00218939
0.0672336
0.00186876
0.066842
0.00157344
0.0665054
0.00130339
0.0662111
0.00105871
0.0659493
0.000839653
0.0657125
0.000646688
0.0654945
0.000480472
0.0652908
0.000341878
0.0650975
0.000231931
0.0649119
0.000151767
0.064732
0.000102477
0.0645571
8.42101e-05
0.0643904
9.16556e-05
0.0548181
0.00011261
0.0456135
0.000139077
0.0379741
0.000166646
0.0316261
0.000193294
0.026345
0.0219467
0.000218357
0.000693587
0.0156683
0.00266056
0.0448558
0.00425884
0.0645681
0.0047101
0.0724312
0.00441824
0.0731125
0.00393984
0.0716759
0.00348859
0.0703245
0.00307921
0.0693602
0.00269677
0.0686387
0.00233552
0.0680584
0.00199471
0.0675744
0.00167461
0.0671621
0.00137572
0.0668043
0.00109869
0.0664882
0.000844336
0.0662037
0.000613634
0.0659432
0.000407781
0.0657004
0.000228138
0.0654704
7.62315e-05
0.0652494
-4.62016e-05
0.0650344
-0.000137226
0.064823
-0.000194916
0.0646148
-0.000218126
0.0644136
-0.000211463
0.0548115
-0.000188521
0.0455906
-0.00015832
0.0379439
-0.000125933
0.0315938
-9.39759e-05
0.0263131
0.0219165
-6.37747e-05
0.000547973
0.0151203
0.00221004
0.0431938
0.00371877
0.0630594
0.00426922
0.0718808
0.00408465
0.0732971
0.00365725
0.0721034
0.00322688
0.0707549
0.00283066
0.0697564
0.0024578
0.0690116
0.00210195
0.0684143
0.0017621
0.0679143
0.00143881
0.0674854
0.001133
0.0671101
0.000845796
0.0667754
0.000578553
0.0664709
0.000332845
0.0661889
0.000110386
0.0659228
-8.69113e-05
0.0656677
-0.000256799
0.0654193
-0.000396661
0.0651742
-0.000503623
0.06493
-0.000574819
0.064686
-0.000608226
0.064447
-0.000606814
0.0548101
-0.000585002
0.0455688
-0.000552788
0.0379117
-0.000516071
0.031557
-0.000478139
0.0262751
0.0218793
-0.000440915
0.000446354
0.014674
0.00185371
0.0417864
0.00325041
0.0616627
0.00385634
0.0712748
0.00375753
0.0733959
0.0033747
0.0724862
0.00295962
0.07117
0.00256981
0.0701462
0.00220027
0.0693811
0.00184442
0.0687701
0.00150084
0.0682579
0.00117006
0.0678162
0.000853216
0.067427
0.000551761
0.0670768
0.000267396
0.0667553
2.00082e-06
0.0664543
-0.00024228
0.0661671
-0.000462866
0.0658883
-0.000656729
0.0656132
-0.000820461
0.0653379
-0.000950354
0.0650599
-0.00104268
0.0647783
-0.00109452
0.0644988
-0.00110577
0.0548213
-0.0010913
0.0455543
-0.00106193
0.0378823
-0.00102445
0.0315196
-0.000983186
0.0262339
0.0218372
-0.000941069
0.000371083
0.0143029
0.00156774
0.0405898
0.00284466
0.0603858
0.00347417
0.0706453
0.00344167
0.0734284
0.00309715
0.0728307
0.00269302
0.0715741
0.00230417
0.070535
0.00193237
0.0697529
0.00157145
0.069131
0.00121943
0.0686099
0.000876675
0.0681589
0.000544322
0.0677593
0.000223907
0.0673972
-8.27951e-05
0.067062
-0.000373666
0.0667451
-0.00064604
0.0664395
-0.000896716
0.066139
-0.00112203
0.0658385
-0.00131785
0.0655338
-0.00147972
0.0652217
-0.00160322
0.0649018
-0.00168497
0.0645806
-0.0017203
0.0548567
-0.0017237
0.0455577
-0.00170603
0.0378646
-0.00167455
0.0314881
-0.00163463
0.026194
0.0217932
-0.00159064
0.000312084
0.0139908
0.00133624
0.0395656
0.00249537
0.0592267
0.00312517
0.0700155
0.00314094
0.0734126
0.00282803
0.0731436
0.00243141
0.0719707
0.00203932
0.0709271
0.00166065
0.0701316
0.00129015
0.0695015
0.000925379
0.0689746
0.000566309
0.068518
0.000213898
0.0681117
-0.000130511
0.0677416
-0.000465141
0.0673966
-0.000787583
0.0670676
-0.0010948
0.0667467
-0.00138316
0.0664273
-0.00164838
0.0661037
-0.00188562
0.065771
-0.00208973
0.0654258
-0.002256
0.0650681
-0.0023816
0.0647062
-0.00245672
0.0549318
-0.00249506
0.045596
-0.00250608
0.0378756
-0.00249542
0.0314774
-0.00246798
0.0261665
0.0217546
-0.00242942
0.000227134
0.0137637
0.000978069
0.0388147
0.00186841
0.0583363
0.00238872
0.0694952
0.00242913
0.0733722
0.00218555
0.0733872
0.00185518
0.0723011
0.00152016
0.0712622
0.00119323
0.0704585
0.000870915
0.0698239
0.000550747
0.0692948
0.000232308
0.0688365
-8.40032e-05
0.0684281
-0.000397295
0.0680549
-0.000706109
0.0677054
-0.00100842
0.0673699
-0.00130162
0.0670399
-0.00158239
0.0667081
-0.00184669
0.066368
-0.00208977
0.0660141
-0.00230641
0.0656425
-0.00249199
0.0652536
-0.00264453
0.0648587
-0.00275157
0.0550388
-0.00282641
0.0456709
-0.00287684
0.0379261
-0.00290467
0.0315053
-0.00291014
0.026172
0.0217415
-0.00289703
0.000168748
0.0135949
0.00072723
0.0382562
0.00141238
0.0576512
0.00183511
0.0690725
0.00188336
0.073324
0.00169226
0.0735783
0.00141881
0.0725745
0.0011358
0.0715452
0.000857227
0.0707371
0.000580761
0.0701003
0.000303998
0.0695716
2.61721e-05
0.0691143
-0.000252717
0.0687069
-0.00053219
0.0683344
-0.000811246
0.0679845
-0.00108844
0.0676471
-0.00136173
0.0673132
-0.00162844
0.0669748
-0.00188506
0.0666246
-0.00212723
0.0662563
-0.0023498
0.0658651
-0.00254772
0.0654516
-0.00271809
0.0650291
-0.00284517
0.0551659
-0.00294439
0.0457701
-0.00302794
0.0380096
-0.003101
0.0315783
-0.00316154
0.0262325
0.0217763
-0.00319638
0.000129525
0.0134654
0.000553703
0.037832
0.0010875
0.0571174
0.00143055
0.0687295
0.00147883
0.0732757
0.00132724
0.0737299
0.00110095
0.0728008
0.000862815
0.0717833
0.000626576
0.0709733
0.000390708
0.0703362
0.000152974
0.0698093
-8.76077e-05
0.0693549
-0.000331302
0.0689506
-0.000577945
0.068581
-0.000827027
0.0682336
-0.00107766
0.0678977
-0.00132845
0.067564
-0.00157744
0.0672238
-0.00182189
0.0668691
-0.00205815
0.0664925
-0.00228159
0.0660885
-0.00248688
0.0656568
-0.0026689
0.0652111
-0.0028048
0.0553018
-0.00290778
0.0458731
-0.00299525
0.0380971
-0.00308178
0.0316648
-0.00318535
0.0263361
0.0219076
-0.00331662
9.88037e-05
0.0133666
0.000429025
0.0375018
0.000853587
0.0566928
0.00113432
0.0684487
0.00117771
0.0732323
0.00105396
0.0738536
0.000865338
0.0729894
0.000665373
0.0719833
0.000466052
0.0711726
0.000265933
0.0705363
6.29249e-05
0.0700123
-0.000143959
0.0695617
-0.00035512
0.0691618
-0.000570676
0.0687966
-0.000790511
0.0684534
-0.00101422
0.0681214
-0.00124104
0.0677908
-0.00146971
0.0674525
-0.00169834
0.0670977
-0.00192431
0.0667185
-0.00214418
0.0663084
-0.00235378
0.0658664
-0.0025478
0.0654051
-0.00269588
0.0554499
-0.00279973
0.0459769
-0.00286701
0.0381644
-0.00290806
0.0317059
-0.00294134
0.0263694
-0.0031025
0.0220688
0.000153681
0.0219825
0.000196028
0.021985
0.000229424
0.021994
0.000260459
0.0219963
0.000285665
0.0220021
0.000306327
0.0220067
0.000323943
0.0220097
0.000335232
0.0220161
0.000344496
0.0220181
0.000348729
0.0220231
0.000349878
0.0220262
0.000348484
0.0220287
0.000342633
0.0220332
0.00033516
0.0220348
0.000324421
0.0220381
0.000311358
0.0220404
0.000296938
0.0220418
0.000279526
0.0220448
0.000261026
0.0220459
0.000241265
0.0220471
0.000219922
0.0220487
0.000197939
0.0220493
0.000175264
0.02205
0.000152061
0.0220506
0.000128723
0.0220507
0.000105421
0.0220507
8.25428e-05
0.0220502
6.00812e-05
0.0220498
3.83593e-05
0.0220491
1.80197e-05
0.0220477
-1.44218e-06
0.0220468
-1.9193e-05
0.0220451
-3.49293e-05
0.0220431
-4.94209e-05
0.0220418
-6.06202e-05
0.0220386
-6.98571e-05
0.0220366
-7.68231e-05
0.0220343
-7.96182e-05
0.0220302
-8.06416e-05
0.0220284
-7.69949e-05
0.0220237
-7.01969e-05
0.0220206
-6.02824e-05
0.0220174
-4.45693e-05
0.0220116
-2.67054e-05
0.0220095
-2.12376e-06
0.0220028
2.5896e-05
0.0219993
5.8722e-05
0.0219945
9.79049e-05
0.0219882
0.0219857
0.000139585
0.000293717
0.0219373
0.000336578
0.0219421
0.000370704
0.0219598
0.000402678
0.0219643
0.000429049
0.0219758
0.000451095
0.0219846
0.000470299
0.0219905
0.000483386
0.022003
0.000494623
0.0220069
0.00050101
0.0220167
0.00050447
0.0220227
0.000505526
0.0220277
0.000502271
0.0220365
0.0004975
0.0220396
0.000489576
0.022046
0.000479418
0.0220506
0.00046797
0.0220532
0.00045361
0.0220591
0.000438202
0.0220613
0.000421566
0.0220638
0.000403381
0.0220669
0.000384556
0.0220682
0.000365034
0.0220696
0.000344974
0.0220706
0.00032474
0.0220709
0.000304495
0.0220709
0.000284627
0.0220701
0.000265095
0.0220693
0.000246219
0.022068
0.000228639
0.0220653
0.000211818
0.0220636
0.000196593
0.0220603
0.000183252
0.0220564
0.000170994
0.0220541
0.000161883
0.0220477
0.000154551
0.0220439
0.000149295
0.0220396
0.000148025
0.0220314
0.000148297
0.0220281
0.000153028
0.022019
0.000160667
0.0220129
0.000171168
0.0220069
0.000187222
0.0219956
0.000205137
0.0219916
0.000229503
0.0219784
0.000256996
0.0219718
0.000288973
0.0219626
0.000326965
0.0219502
0.0219456
0.00036708
0.000419021
0.0218914
0.00046277
0.0218984
0.000498025
0.0219246
0.000531354
0.021931
0.000559314
0.0219478
0.00058317
0.0219608
0.000604385
0.0219693
0.000619691
0.0219877
0.000633322
0.0219932
0.000642281
0.0220078
0.000648469
0.0220166
0.000652392
0.0220238
0.000652146
0.0220367
0.000650492
0.0220413
0.000645794
0.0220507
0.000638953
0.0220574
0.000630887
0.0220613
0.000619987
0.02207
0.000608079
0.0220732
0.000594972
0.0220769
0.000580348
0.0220815
0.000565081
0.0220834
0.000549108
0.0220855
0.000532583
0.0220871
0.000515842
0.0220877
0.000499037
0.0220877
0.000482557
0.0220866
0.000466328
0.0220856
0.000450663
0.0220836
0.000436201
0.0220797
0.00042237
0.0220775
0.000410008
0.0220727
0.000399393
0.022067
0.000389692
0.0220638
0.000382984
0.0220544
0.000377867
0.022049
0.000374628
0.0220428
0.000375181
0.0220309
0.000377042
0.0220262
0.000383143
0.0220129
0.000391905
0.0220042
0.000403265
0.0219956
0.000419925
0.0219789
0.000438147
0.0219734
0.000462542
0.021954
0.000489746
0.0219446
0.00052111
0.0219312
0.000558157
0.0219131
0.0219068
0.000596944
0.000525315
0.0218441
0.000570566
0.0218531
0.000607546
0.0218876
0.000642823
0.0218957
0.000672967
0.0219177
0.000699235
0.0219345
0.000723076
0.0219455
0.000741225
0.0219695
0.000757884
0.0219766
0.000770058
0.0219956
0.000779627
0.022007
0.000787078
0.0220163
0.000790507
0.0220333
0.000792643
0.0220391
0.000791849
0.0220515
0.000789005
0.0220603
0.000785006
0.0220653
0.00077825
0.0220768
0.000770526
0.0220809
0.000761633
0.0220858
0.00075125
0.0220919
0.00074022
0.0220945
0.000728471
0.0220973
0.00071615
0.0220995
0.000703563
0.0221003
0.000690854
0.0221004
0.000678409
0.022099
0.00066612
0.0220979
0.000654293
0.0220954
0.000643565
0.0220905
0.00063333
0.0220877
0.000624427
0.0220816
0.00061712
0.0220744
0.000610545
0.0220704
0.0006068
0.0220581
0.000604443
0.0220514
0.000603752
0.0220435
0.000606649
0.022028
0.000610609
0.0220223
0.00061858
0.0220049
0.000628954
0.0219938
0.000641655
0.0219829
0.000659396
0.0219612
0.000678394
0.0219544
0.000703285
0.0219291
0.000730663
0.0219173
0.000761875
0.0219
0.000798441
0.0218766
0.0218688
0.000836367
0.000604761
0.0217947
0.000652338
0.0218056
0.00069186
0.0218481
0.000729908
0.0218577
0.000763064
0.0218845
0.000792581
0.021905
0.000819898
0.0219182
0.000841748
0.0219477
0.000862311
0.021956
0.000878585
0.0219793
0.000892431
0.0219931
0.00090432
0.0220044
0.000912342
0.0220253
0.000919197
0.0220323
0.000923243
0.0220475
0.000925339
0.0220582
0.000926357
0.0220643
0.000924697
0.0220784
0.000922114
0.0220835
0.000918393
0.0220895
0.000913208
0.0220971
0.00090737
0.0221003
0.000900797
0.0221038
0.000893627
0.0221066
0.000886137
0.0221077
0.000878458
0.0221081
0.000870971
0.0221065
0.000863538
0.0221053
0.000856453
0.0221025
0.000850349
0.0220966
0.000844588
0.0220935
0.000840006
0.0220862
0.000836853
0.0220775
0.000834237
0.022073
0.000834268
0.0220581
0.000835471
0.0220502
0.000838112
0.0220409
0.000844121
0.022022
0.000850932
0.0220155
0.000861511
0.0219943
0.000874222
0.0219811
0.000888978
0.0219681
0.000908503
0.0219417
0.000928972
0.0219339
0.000955051
0.021903
0.000983295
0.021889
0.00101505
0.0218682
0.00105183
0.0218398
0.0218311
0.0010896
0.000648846
0.0217422
0.000699767
0.0217546
0.000742855
0.021805
0.000784713
0.0218158
0.000821932
0.0218473
0.000855769
0.0218712
0.000887655
0.0218863
0.000914315
0.021921
0.000939914
0.0219304
0.00096144
0.0219578
0.000980735
0.0219738
0.000998254
0.0219869
0.00101207
0.0220114
0.00102487
0.0220195
0.00103499
0.0220373
0.00104328
0.0220499
0.00105058
0.022057
0.00105528
0.0220737
0.00105911
0.0220796
0.00106184
0.0220867
0.00106313
0.0220958
0.00106376
0.0220997
0.00106364
0.022104
0.00106289
0.0221074
0.00106177
0.0221089
0.00106037
0.0221095
0.00105909
0.0221078
0.00105774
0.0221066
0.00105661
0.0221037
0.00105633
0.0220968
0.00105622
0.0220936
0.00105712
0.0220853
0.00105926
0.0220754
0.00106172
0.0220705
0.00106662
0.0220532
0.00107244
0.0220444
0.00107946
0.0220339
0.0010896
0.0220118
0.00110025
0.0220048
0.00111441
0.0219802
0.0011304
0.0219651
0.00114814
0.0219504
0.00117035
0.0219194
0.00119318
0.0219111
0.00122131
0.0218749
0.00125127
0.0218591
0.00128441
0.0218351
0.00132223
0.021802
0.0217927
0.00136064
0.000648929
0.0216853
0.000704414
0.0216992
0.000752306
0.0217571
0.000799246
0.0217689
0.000841827
0.0218047
0.000881312
0.0218317
0.00091913
0.0218485
0.000951991
0.0218882
0.000984053
0.0218983
0.00101229
0.0219296
0.00103852
0.0219476
0.00106319
0.0219622
0.00108435
0.0219903
0.00110466
0.0219992
0.00112244
0.0220196
0.00113853
0.0220338
0.00115373
0.0220418
0.00116643
0.022061
0.00117833
0.0220678
0.00118917
0.0220759
0.0011986
0.0220864
0.00120738
0.0220909
0.00121538
0.022096
0.00122271
0.0221001
0.0012296
0.022102
0.00123613
0.022103
0.00124267
0.0221013
0.00124902
0.0221003
0.00125544
0.0220972
0.00126254
0.0220897
0.00126962
0.0220865
0.00127751
0.0220774
0.00128641
0.0220665
0.00129538
0.0220616
0.00130654
0.022042
0.00131836
0.0220325
0.00133107
0.0220211
0.00134663
0.0219963
0.00136236
0.0219891
0.0013813
0.0219612
0.00140174
0.0219446
0.00142357
0.0219286
0.00144955
0.0218935
0.00147577
0.0218848
0.00150697
0.0218437
0.00153962
0.0218264
0.00157506
0.0217996
0.00161483
0.0217622
0.0217527
0.00165476
0.000596401
0.0216228
0.00065784
0.0216377
0.000711971
0.021703
0.000765483
0.0217154
0.000814967
0.0217552
0.000861691
0.021785
0.000907088
0.0218031
0.000947843
0.0218474
0.00098812
0.0218581
0.00102486
0.0218928
0.00105987
0.0219126
0.00109358
0.0219285
0.00112401
0.0219598
0.0011538
0.0219694
0.00118126
0.0219921
0.00120718
0.0220079
0.00123236
0.0220166
0.00125516
0.0220382
0.00127723
0.0220457
0.00129832
0.0220548
0.00131803
0.0220666
0.00133708
0.0220718
0.00135535
0.0220777
0.00137291
0.0220825
0.00138994
0.022085
0.00140652
0.0220864
0.00142298
0.0220848
0.0014391
0.0220842
0.0014551
0.0220812
0.00147159
0.0220733
0.00148783
0.0220703
0.00150462
0.0220606
0.00152216
0.0220489
0.00153946
0.0220443
0.00155866
0.0220228
0.00157817
0.022013
0.00159822
0.0220011
0.00162077
0.0219737
0.00164311
0.0219667
0.00166828
0.0219361
0.00169455
0.0219184
0.00172179
0.0219013
0.00175281
0.0218624
0.00178362
0.021854
0.00181901
0.0218083
0.00185542
0.02179
0.00189419
0.0217609
0.00193686
0.0217195
0.0217104
0.0019792
0.000482358
0.021553
0.00055132
0.0215688
0.0006133
0.021641
0.00067508
0.0216536
0.000733244
0.0216971
0.000789079
0.0217291
0.000844018
0.0217481
0.000894705
0.0217967
0.000945318
0.0218074
0.000992753
0.0218454
0.00103882
0.0218665
0.0010839
0.0218834
0.001126
0.0219177
0.00116775
0.0219276
0.0012074
0.0219525
0.00124572
0.0219695
0.0012835
0.0219788
0.00131903
0.0220027
0.00135397
0.0220107
0.00138801
0.0220208
0.00142072
0.0220339
0.00145281
0.0220397
0.00148409
0.0220464
0.00151461
0.022052
0.00154453
0.022055
0.00157387
0.022057
0.00160295
0.0220557
0.00163149
0.0220556
0.00165969
0.022053
0.00168814
0.0220448
0.00171603
0.0220424
0.00174416
0.0220325
0.0017727
0.0220204
0.00180062
0.0220164
0.00183005
0.0219934
0.00185937
0.0219837
0.00188878
0.0219717
0.00192025
0.0219423
0.00195101
0.021936
0.00198413
0.0219029
0.00201785
0.0218847
0.00205202
0.0218671
0.00208948
0.021825
0.00212619
0.0218173
0.002167
0.0217675
0.00220828
0.0217487
0.00225141
0.0217177
0.00229793
0.021673
0.0216648
0.00234352
0.000296992
0.0214744
0.000374797
0.021491
0.000446352
0.0215694
0.000518432
0.0215815
0.000587437
0.0216281
0.000654622
0.0216619
0.000721422
0.0216813
0.000784461
0.0217337
0.000847959
0.021744
0.000908749
0.0217846
0.000968633
0.0218067
0.00102798
0.0218241
0.00108472
0.021861
0.00114148
0.0218708
0.00119647
0.0218975
0.00125044
0.0219156
0.00130412
0.0219251
0.00135576
0.0219511
0.00140699
0.0219595
0.00145746
0.0219703
0.00150669
0.0219847
0.00155534
0.0219911
0.00160318
0.0219986
0.00165021
0.0220049
0.00169655
0.0220087
0.00174216
0.0220114
0.00178733
0.0220105
0.00183171
0.0220113
0.00187547
0.0220093
0.00191915
0.0220011
0.0019619
0.0219996
0.00200447
0.0219899
0.00204701
0.0219778
0.00208842
0.021975
0.00213084
0.021951
0.00217257
0.021942
0.00221381
0.0219304
0.00225652
0.0218995
0.00229787
0.0218946
0.00234096
0.0218599
0.00238399
0.0218416
0.0024268
0.0218243
0.00247226
0.0217795
0.00251625
0.0217733
0.00256373
0.02172
0.00261099
0.0217015
0.00265943
0.0216693
0.00271061
0.0216218
0.0216153
0.00276013
2.36511e-05
0.021387
0.000113469
0.0214011
0.000197644
0.0214853
0.000282814
0.0214963
0.000365456
0.0215454
0.000446632
0.0215808
0.000528215
0.0215997
0.000606703
0.0216552
0.000686316
0.0216643
0.000763803
0.0217071
0.000840979
0.0217295
0.00091819
0.0217469
0.000993301
0.0217859
0.00106896
0.0217952
0.00114328
0.0218231
0.001217
0.0218419
0.00129081
0.0218513
0.00136288
0.021879
0.00143482
0.0218876
0.00150619
0.0218989
0.00157648
0.0219144
0.00164627
0.0219213
0.00171528
0.0219296
0.00178344
0.0219368
0.00185079
0.0219414
0.00191724
0.021945
0.00198302
0.0219448
0.00204769
0.0219466
0.00211137
0.0219456
0.00217455
0.021938
0.00223627
0.0219379
0.00229728
0.0219289
0.00235763
0.0219175
0.00241616
0.0219164
0.00247501
0.0218921
0.00253241
0.0218846
0.00258849
0.0218744
0.00264525
0.0218428
0.00269975
0.0218401
0.00275516
0.0218044
0.00280959
0.0217872
0.00286289
0.021771
0.00291798
0.0217244
0.00297066
0.0217206
0.00302598
0.0216647
0.00308018
0.0216473
0.00313467
0.0216148
0.00319107
0.0215654
0.0215615
0.00324488
-0.000340329
0.0212864
-0.000238827
0.0212996
-0.000142301
0.0213887
-4.34885e-05
0.0213975
5.40987e-05
0.0214478
0.000152329
0.0214825
0.000251894
0.0215002
0.000349121
0.021558
0.00044836
0.0215651
0.000546331
0.0216092
0.000644875
0.0216309
0.000744313
0.0216475
0.00084242
0.0216878
0.000941848
0.0216958
0.0010406
0.0217244
0.00113935
0.0217431
0.00123874
0.0217519
0.00133685
0.0217809
0.00143523
0.0217892
0.00153337
0.0218008
0.00163066
0.0218171
0.00172761
0.0218244
0.00182384
0.0218333
0.00191922
0.0218414
0.00201365
0.0218469
0.00210698
0.0218516
0.00219934
0.0218524
0.00229018
0.0218557
0.00237952
0.0218563
0.00246779
0.0218497
0.00255389
0.0218518
0.00263851
0.0218443
0.00272163
0.0218344
0.00280194
0.0218361
0.00288162
0.0218124
0.00295875
0.0218074
0.00303341
0.0217997
0.00310763
0.0217686
0.00317833
0.0217694
0.00324874
0.021734
0.0033169
0.021719
0.00338265
0.0217053
0.003449
0.0216581
0.00351162
0.021658
0.00357573
0.0216006
0.00363748
0.0215855
0.00369835
0.0215539
0.00376001
0.0215038
0.0215036
0.00381786
-0.000827782
0.0211731
-0.000710984
0.0211828
-0.000597612
0.0212754
-0.000480508
0.0212804
-0.000363552
0.0213309
-0.000245752
0.0213647
-0.000125263
0.0213797
-5.69869e-06
0.0214384
0.000117416
0.021442
0.000240495
0.0214861
0.000365354
0.0215061
0.000492374
0.0215204
0.000619236
0.0215609
0.000748541
0.0215665
0.000878192
0.0215947
0.00100881
0.0216125
0.00114088
0.0216199
0.00127236
0.0216494
0.00140472
0.0216568
0.00153733
0.0216682
0.00166948
0.021685
0.00180156
0.0216923
0.00193307
0.0217018
0.00206375
0.0217107
0.00219339
0.0217173
0.00232166
0.0217234
0.0024486
0.0217255
0.00257347
0.0217309
0.00269616
0.0217336
0.00281699
0.0217289
0.00293466
0.0217341
0.00304976
0.0217292
0.00316216
0.021722
0.00327035
0.0217279
0.00337653
0.0217062
0.00347857
0.0217054
0.00357649
0.0217018
0.00367233
0.0216727
0.00376282
0.0216789
0.00385129
0.0216456
0.0039357
0.0216346
0.00401585
0.0216251
0.00409489
0.021579
0.00416834
0.0215846
0.00424168
0.0215273
0.00431094
0.0215163
0.00437772
0.0214871
0.0044438
0.0214377
0.021443
0.00450446
-0.00146444
0.0210469
-0.00133258
0.021051
-0.00120225
0.021145
-0.00106592
0.0211441
-0.000927485
0.0211924
-0.000785499
0.0212227
-0.000638493
0.0212327
-0.000490403
0.0212903
-0.000336756
0.0212883
-0.000181257
0.0213306
-2.21575e-05
0.021347
0.000140397
0.0213579
0.000303808
0.0213975
0.000470965
0.0213993
0.000640242
0.0214255
0.000811616
0.0214411
0.000985616
0.0214459
0.00116006
0.021475
0.00133632
0.0214805
0.0015136
0.0214909
0.00169104
0.0215075
0.0018689
0.0215144
0.0020465
0.0215242
0.00222343
0.0215338
0.00239926
0.0215415
0.00257347
0.0215491
0.00274592
0.021553
0.00291559
0.0215612
0.00308217
0.021567
0.0032458
0.0215652
0.00340487
0.0215751
0.00355982
0.0215742
0.00371032
0.0215715
0.00385458
0.0215837
0.00399478
0.021566
0.00412851
0.0215717
0.00425566
0.0215746
0.00437831
0.0215501
0.0044929
0.0215644
0.00460291
0.0215355
0.00470614
0.0215314
0.00480238
0.0215289
0.00489499
0.0214864
0.0049793
0.0215003
0.00506116
0.0214454
0.0051365
0.0214409
0.00520712
0.0214165
0.00527504
0.0213698
0.0213826
0.00533539
-0.00229267
0.0209102
-0.00214652
0.0209048
-0.00199901
0.0209975
-0.00184206
0.0209871
-0.00167948
0.0210299
-0.0015096
0.0210529
-0.00133079
0.0210539
-0.0011473
0.0211068
-0.000954749
0.0210958
-0.000757409
0.0211332
-0.000553848
0.0211434
-0.000344168
0.0211482
-0.000131235
0.0211846
8.70881e-05
0.021181
0.000307123
0.0212054
0.000530739
0.0212175
0.000759009
0.0212176
0.000989077
0.0212449
0.00122229
0.0212473
0.00145772
0.0212555
0.0016944
0.0212708
0.00193237
0.0212765
0.00217075
0.0212858
0.00240896
0.0212956
0.0026462
0.0213042
0.00288169
0.0213137
0.00311501
0.0213197
0.00334468
0.0213315
0.00357004
0.0213416
0.00379094
0.0213443
0.00400526
0.0213607
0.00421318
0.0213663
0.00441404
0.0213706
0.00460559
0.0213921
0.00479001
0.0213816
0.00496444
0.0213972
0.00512857
0.0214105
0.00528454
0.0213941
0.00542836
0.0214205
0.00556374
0.0214002
0.00568824
0.0214069
0.00580163
0.0214155
0.00590758
0.0213805
0.00600116
0.0214067
0.00608881
0.0213578
0.00616641
0.0213633
0.00623618
0.0213467
0.00630051
0.0213055
0.0213287
0.00635441
-0.00278414
0.0207973
-0.0026602
0.0207809
-0.00253017
0.0208675
-0.00238472
0.0208417
-0.00222679
0.0208719
-0.00205545
0.0208815
-0.00187043
0.0208689
-0.00167671
0.0209131
-0.00147161
0.0208907
-0.00125978
0.0209214
-0.00104069
0.0209243
-0.000815092
0.0209226
-0.000585823
0.0209553
-0.00035078
0.0209459
-0.0001116
0.0209662
0.000130901
0.020975
0.000376252
0.0209722
0.000625456
0.0209957
0.000878536
0.0209943
0.00113491
0.0209991
0.0013938
0.021012
0.00165514
0.0210151
0.00191807
0.0210229
0.00218187
0.0210318
0.00244552
0.0210406
0.00270797
0.0210512
0.0029685
0.0210592
0.00322525
0.0210748
0.00347718
0.0210897
0.00372374
0.0210978
0.00396244
0.021122
0.00419308
0.0211357
0.00441467
0.021149
0.00462476
0.021182
0.00482514
0.0211813
0.00501292
0.0212095
0.00518767
0.0212357
0.00535125
0.0212305
0.00549992
0.0212719
0.00563706
0.021263
0.00576038
0.0212836
0.00586963
0.0213062
0.00596812
0.021282
0.00605134
0.0213235
0.00612512
0.021284
0.0061859
0.0213026
0.00623602
0.0212966
0.00627831
0.0212632
0.0212979
0.00630909
-0.00310599
0.0207069
-0.00301406
0.020689
-0.00291235
0.0207658
-0.00278453
0.0207139
-0.0026327
0.0207201
-0.00245884
0.0207077
-0.00226622
0.0206762
-0.00206215
0.020709
-0.00184644
0.020675
-0.0016244
0.0206994
-0.00139623
0.0206962
-0.0011628
0.0206892
-0.000926564
0.0207191
-0.000685772
0.0207051
-0.000442057
0.0207225
-0.000194273
0.0207272
5.83302e-05
0.0207196
0.000311284
0.0207427
0.000570109
0.0207354
0.000833391
0.0207358
0.00110072
0.0207446
0.00137207
0.0207438