/*--------------------------------*- C++ -*----------------------------------*\
| =========                 |                                                 |
| \\      /  F ield         | OpenFOAM: The Open Source CFD Toolbox           |
|  \\    /   O peration     | Version:  2312                                  |
|   \\  /    A nd           | Website:  www.openfoam.com                      |
|    \\/     M anipulation  |                                                 |
\*---------------------------------------------------------------------------*/
FoamFile
{
    version     2.0;
    format      ascii;
    arch        "LSB;label=32;scalar=64";
    class       volVectorField;
    location    "64.831927675671736";
    object      U;
}
// * * * * * * * * * * * * * * * * * * * * * * * * * * * * * * * * * * * * * //

dimensions      [0 1 -1 0 0 0 0];

internalField   nonuniform List<vector> 
21039
(
(0.913733 0.0474039 0)
(1.02608 0.0664928 0)
(1.00449 0.0295381 0)
(1.00176 0.018919 0)
(1.00121 0.0139151 0)
(1.0008 0.010539 0)
(1.00055 0.00821554 0)
(1.0004 0.00657577 0)
(1.0003 0.00536892 0)
(1.00023 0.00445109 0)
(1.00018 0.0037368 0)
(1.00015 0.00317105 0)
(1.00012 0.00271683 0)
(1.0001 0.00234856 0)
(1.00008 0.00204809 0)
(1.00006 0.00180229 0)
(1.00005 0.00160145 0)
(1.00004 0.00143824 0)
(1.00003 0.00130698 0)
(1.00002 0.00120308 0)
(1.00002 0.00112267 0)
(1.00001 0.00106366 0)
(1.00001 0.00102746 0)
(1.00001 0.000995607 0)
(1.00001 0.000972031 0)
(1.00001 0.000953586 0)
(1.00001 0.000936031 0)
(1.00001 0.00090987 0)
(1.00001 0.000854579 0)
(0.794455 0.073042 0)
(1.07453 0.121737 0)
(1.03989 0.0709571 0)
(1.01809 0.0497867 0)
(1.01128 0.0383855 0)
(1.00763 0.0296169 0)
(1.00537 0.0233303 0)
(1.00395 0.0187664 0)
(1.00299 0.015324 0)
(1.00232 0.0126618 0)
(1.00183 0.0105632 0)
(1.00147 0.00888136 0)
(1.00119 0.0075156 0)
(1.00098 0.00639541 0)
(1.0008 0.00547044 0)
(1.00066 0.00470406 0)
(1.00054 0.00406917 0)
(1.00044 0.00354547 0)
(1.00035 0.00311745 0)
(1.00027 0.00277299 0)
(1.00021 0.00250202 0)
(1.00015 0.00229801 0)
(1.0001 0.00216427 0)
(1.00007 0.00206925 0)
(1.00006 0.00201565 0)
(1.00006 0.00198617 0)
(1.00007 0.00196709 0)
(1.00008 0.00194022 0)
(1.00009 0.00187809 0)
(0.667165 0.0572919 0)
(1.08299 0.124912 0)
(1.08434 0.0904778 0)
(1.04625 0.0678344 0)
(1.02903 0.0543445 0)
(1.02021 0.0434098 0)
(1.01465 0.035129 0)
(1.01095 0.028776 0)
(1.00839 0.023777 0)
(1.00657 0.0198 0)
(1.00524 0.0165995 0)
(1.00424 0.013993 0)
(1.00346 0.011849 0)
(1.00285 0.0100721 0)
(1.00236 0.00859205 0)
(1.00195 0.0073568 0)
(1.00161 0.0063272 0)
(1.00132 0.00547366 0)
(1.00107 0.00477354 0)
(1.00085 0.00420931 0)
(1.00065 0.00376657 0)
(1.00048 0.00343476 0)
(1.00033 0.00321852 0)
(1.00022 0.00307926 0)
(1.00017 0.0030119 0)
(1.00014 0.00298327 0)
(1.00014 0.00297074 0)
(1.00015 0.00295118 0)
(1.00016 0.00289475 0)
(0.540769 0.0352888 0)
(1.05058 0.110972 0)
(1.11584 0.0972745 0)
(1.07605 0.0765433 0)
(1.04915 0.0624169 0)
(1.03517 0.0513492 0)
(1.02632 0.0427195 0)
(1.02015 0.0357409 0)
(1.01572 0.030009 0)
(1.01248 0.0252984 0)
(1.01006 0.0214047 0)
(1.0082 0.0181637 0)
(1.00675 0.0154511 0)
(1.0056 0.0131712 0)
(1.00466 0.0112507 0)
(1.00388 0.00963328 0)
(1.00322 0.00827571 0)
(1.00265 0.00714463 0)
(1.00215 0.00621426 0)
(1.00171 0.00546457 0)
(1.00132 0.0048793 0)
(1.00096 0.00444532 0)
(1.00064 0.00416834 0)
(1.00041 0.00400445 0)
(1.00027 0.00393751 0)
(1.00019 0.00392009 0)
(1.00017 0.00392226 0)
(1.00017 0.00391697 0)
(1.00018 0.00387044 0)
(0.443812 0.0186902 0)
(0.997342 0.0920393 0)
(1.12881 0.09598 0)
(1.1013 0.079845 0)
(1.06807 0.0658426 0)
(1.04958 0.0552201 0)
(1.03807 0.046899 0)
(1.02984 0.0399342 0)
(1.02375 0.0340347 0)
(1.01916 0.0290514 0)
(1.01564 0.0248258 0)
(1.01289 0.0212294 0)
(1.01071 0.0181623 0)
(1.00894 0.0155435 0)
(1.00749 0.0133087 0)
(1.00626 0.0114067 0)
(1.00522 0.00979706 0)
(1.00431 0.00844816 0)
(1.00351 0.00733508 0)
(1.00279 0.00643839 0)
(1.00213 0.00574242 0)
(1.00154 0.00523351 0)
(1.001 0.00491895 0)
(1.0006 0.00475049 0)
(1.00034 0.00469952 0)
(1.0002 0.00470622 0)
(1.00014 0.00473457 0)
(1.00013 0.00475377 0)
(1.00013 0.00472374 0)
(0.37814 0.00812355 0)
(0.939045 0.0720187 0)
(1.12659 0.0886695 0)
(1.12059 0.079091 0)
(1.08524 0.0663971 0)
(1.06276 0.0564786 0)
(1.04897 0.048694 0)
(1.03914 0.0420351 0)
(1.03171 0.0362653 0)
(1.02598 0.0312806 0)
(1.02149 0.0269607 0)
(1.01791 0.0232113 0)
(1.01502 0.019957 0)
(1.01265 0.0171356 0)
(1.01066 0.0146958 0)
(1.00897 0.0125964 0)
(1.00751 0.0108041 0)
(1.00622 0.00929246 0)
(1.00506 0.00804068 0)
(1.00402 0.00703245 0)
(1.00306 0.00625487 0)
(1.00218 0.00569583 0)
(1.00137 0.00536529 0)
(1.00076 0.00521143 0)
(1.00035 0.00519236 0)
(1.00012 0.00523698 0)
(1.00001 0.00530399 0)
(0.999985 0.00535878 0)
(0.999962 0.00535316 0)
(0.332811 0.00235308 0)
(0.882482 0.0540042 0)
(1.1134 0.0782327 0)
(1.13349 0.0753257 0)
(1.10051 0.0648536 0)
(1.07488 0.0558577 0)
(1.059 0.0487359 0)
(1.04785 0.0425531 0)
(1.03934 0.0370825 0)
(1.03267 0.0322524 0)
(1.02735 0.0279821 0)
(1.02305 0.0242091 0)
(1.01951 0.0208811 0)
(1.01656 0.0179536 0)
(1.01406 0.0153896 0)
(1.01189 0.0131591 0)
(1.01 0.0112378 0)
(1.00831 0.00960653 0)
(1.00677 0.00825025 0)
(1.00537 0.00715774 0)
(1.00406 0.00632066 0)
(1.00285 0.00573024 0)
(1.00173 0.00540037 0)
(1.00086 0.00527639 0)
(1.00028 0.00530263 0)
(0.999939 0.00539741 0)
(0.999771 0.00551466 0)
(0.999706 0.00561591 0)
(0.999652 0.00564306 0)
(0.300414 -0.000175777 0)
(0.830494 0.0397146 0)
(1.09294 0.0673036 0)
(1.14 0.0698962 0)
(1.11336 0.0619709 0)
(1.08594 0.053976 0)
(1.06821 0.047517 0)
(1.05594 0.0418679 0)
(1.04656 0.0367781 0)
(1.03912 0.0321883 0)
(1.03311 0.0280515 0)
(1.02818 0.0243331 0)
(1.02407 0.0210016 0)
(1.02059 0.0180295 0)
(1.01759 0.0153937 0)
(1.01497 0.0130754 0)
(1.01264 0.0110599 0)
(1.01053 0.00933605 0)
(1.0086 0.00789596 0)
(1.00681 0.00673463 0)
(1.00512 0.00584959 0)
(1.00353 0.00523697 0)
(1.00206 0.00491588 0)
(1.0009 0.00482996 0)
(1.00011 0.00490995 0)
(0.999626 0.00506405 0)
(0.999373 0.00524149 0)
(0.999254 0.00539945 0)
(0.999153 0.00546809 0)
(0.27736 -0.000972025 0)
(0.784608 0.0291899 0)
(1.06849 0.0572464 0)
(1.14096 0.063842 0)
(1.1235 0.0584142 0)
(1.09583 0.051406 0)
(1.0766 0.0455098 0)
(1.06339 0.0403402 0)
(1.05333 0.0356252 0)
(1.04528 0.0312953 0)
(1.0387 0.0273235 0)
(1.03324 0.0236948 0)
(1.02862 0.0203942 0)
(1.02467 0.0174085 0)
(1.02122 0.0147271 0)
(1.01816 0.0123419 0)
(1.0154 0.0102474 0)
(1.01288 0.00844095 0)
(1.01054 0.00692217 0)
(1.00833 0.00569315 0)
(1.00623 0.0047583 0)
(1.00423 0.00412005 0)
(1.00235 0.00380412 0)
(1.00085 0.00375455 0)
(0.99981 0.00388941 0)
(0.999159 0.00410668 0)
(0.998795 0.00435078 0)
(0.998596 0.00457376 0)
(0.998425 0.00469212 0)
(0.260864 -0.00101934 0)
(0.745228 0.0217255 0)
(1.04262 0.0484842 0)
(1.13771 0.0577284 0)
(1.13109 0.0545664 0)
(1.1046 0.0485115 0)
(1.08427 0.0430663 0)
(1.07025 0.0382726 0)
(1.05965 0.03387 0)
(1.05113 0.0297691 0)
(1.0441 0.02595 0)
(1.0382 0.0224086 0)
(1.03316 0.0191413 0)
(1.02878 0.0161457 0)
(1.02492 0.013421 0)
(1.02145 0.0109684 0)
(1.01828 0.00879101 0)
(1.01534 0.00689398 0)
(1.01258 0.00528477 0)
(1.00994 0.00397299 0)
(1.0074 0.00297087 0)
(1.00495 0.00228826 0)
(1.00262 0.00195887 0)
(1.00073 0.00193036 0)
(0.999396 0.00211012 0)
(0.998536 0.00238605 0)
(0.998019 0.00269721 0)
(0.997705 0.00298989 0)
(0.997432 0.00316562 0)
(0.248612 -0.00080477 0)
(0.711867 0.0165341 0)
(1.01697 0.0410461 0)
(1.13151 0.051845 0)
(1.13645 0.0506144 0)
(1.11239 0.045466 0)
(1.0914 0.0403887 0)
(1.07666 0.0358681 0)
(1.06561 0.0316978 0)
(1.05673 0.0277704 0)
(1.04934 0.0240646 0)
(1.04308 0.0205821 0)
(1.03768 0.0173261 0)
(1.03293 0.0143016 0)
(1.0287 0.0115153 0)
(1.02485 0.00897566 0)
(1.02129 0.00669307 0)
(1.01795 0.00468019 0)
(1.01476 0.00295216 0)
(1.01168 0.0015261 0)
(1.00867 0.000421915 0)
(1.00572 -0.000342432 0)
(1.00289 -0.000722932 0)
(1.00056 -0.00076226 0)
(0.998885 -0.000560032 0)
(0.997765 -0.000251929 0)
(0.997052 0.000116177 0)
(0.996575 0.000484301 0)
(0.996156 0.000727423 0)
(0.239083 -0.000551594 0)
(0.683694 0.0129315 0)
(0.992483 0.0348164 0)
(1.12335 0.0463459 0)
(1.13995 0.046669 0)
(1.1193 0.0423571 0)
(1.09812 0.0375888 0)
(1.08277 0.0332538 0)
(1.07133 0.0292359 0)
(1.06215 0.0254187 0)
(1.05448 0.0217755 0)
(1.04793 0.0183092 0)
(1.04223 0.0150269 0)
(1.03717 0.0119385 0)
(1.03261 0.00905593 0)
(1.02841 0.00639339 0)
(1.02449 0.00396747 0)
(1.02075 0.0017973 0)
(1.01714 -9.62316e-05 0)
(1.0136 -0.00168919 0)
(1.01011 -0.0029528 0)
(1.00664 -0.00385878 0)
(1.00326 -0.00435177 0)
(1.00043 -0.00446152 0)
(0.998343 -0.00428441 0)
(0.9969 -0.00396029 0)
(0.99593 -0.00355747 0)
(0.99523 -0.00315016 0)
(0.994608 -0.00287154 0)
(0.231409 -0.00034969 0)
(0.659878 0.0103812 0)
(0.969634 0.0296222 0)
(1.114 0.041299 0)
(1.14191 0.0428079 0)
(1.12544 0.039243 0)
(1.10453 0.0347389 0)
(1.0887 0.0305173 0)
(1.07691 0.0265779 0)
(1.06748 0.0228072 0)
(1.05959 0.0191715 0)
(1.05281 0.0156719 0)
(1.04687 0.012317 0)
(1.04155 0.00911937 0)
(1.0367 0.0060946 0)
(1.03219 0.00326101 0)
(1.02792 0.000639218 0)
(1.02381 -0.0017477 0)
(1.01979 -0.00387226 0)
(1.0158 -0.00570214 0)
(1.0118 -0.00720051 0)
(1.00778 -0.00833003 0)
(1.00381 -0.00902375 0)
(1.00042 -0.00929198 0)
(0.997871 -0.00921704 0)
(0.996032 -0.00893932 0)
(0.994717 -0.00854161 0)
(0.993705 -0.00811094 0)
(0.992801 -0.00780653 0)
(0.22508 -0.000216554 0)
(0.639684 0.00850992 0)
(0.948647 0.0252844 0)
(1.10407 0.0367154 0)
(1.14265 0.0390833 0)
(1.13089 0.0361672 0)
(1.11071 0.0318915 0)
(1.09455 0.0277267 0)
(1.08246 0.0238008 0)
(1.07283 0.0200167 0)
(1.06477 0.0163339 0)
(1.05782 0.0127493 0)
(1.05168 0.00927116 0)
(1.04615 0.00591294 0)
(1.04107 0.00269183 0)
(1.03629 -0.000372724 0)
(1.03172 -0.00325773 0)
(1.02726 -0.00593478 0)
(1.02285 -0.00836973 0)
(1.01841 -0.0105234 0)
(1.0139 -0.0123522 0)
(1.0093 -0.0138114 0)
(1.00472 -0.0148249 0)
(1.00073 -0.0153798 0)
(0.997647 -0.0155307 0)
(0.995329 -0.0154123 0)
(0.993562 -0.0151106 0)
(0.992117 -0.0147233 0)
(0.990808 -0.0144322 0)
(0.219773 -0.000142459 0)
(0.6225 0.00708681 0)
(0.929574 0.0216713 0)
(1.09395 0.0326053 0)
(1.14243 0.0355443 0)
(1.1357 0.0331646 0)
(1.11666 0.0290816 0)
(1.10034 0.0249298 0)
(1.088 0.0209639 0)
(1.07822 0.0171131 0)
(1.07003 0.0133323 0)
(1.06296 0.00961289 0)
(1.05668 0.00596097 0)
(1.05099 0.00238886 0)
(1.04572 -0.00108785 0)
(1.04072 -0.00444944 0)
(1.03589 -0.00766994 0)
(1.03112 -0.0107166 0)
(1.02634 -0.0135501 0)
(1.02147 -0.0161249 0)
(1.01645 -0.0183913 0)
(1.01129 -0.0202999 0)
(1.00608 -0.021772 0)
(1.00152 -0.0227807 0)
(0.997916 -0.0233438 0)
(0.995092 -0.0235785 0)
(0.992793 -0.0235529 0)
(0.990791 -0.0233571 0)
(0.988933 -0.023173 0)
(0.215636 -9.58723e-05 0)
(0.608875 0.00605803 0)
(0.913647 0.0188657 0)
(1.08478 0.0292078 0)
(1.14169 0.0324805 0)
(1.13976 0.0305105 0)
(1.12208 0.0265806 0)
(1.10576 0.0224159 0)
(1.09325 0.01838 0)
(1.08336 0.0144321 0)
(1.07512 0.0105235 0)
(1.06798 0.00663979 0)
(1.06163 0.00278253 0)
(1.05585 -0.00103961 0)
(1.05047 -0.00481417 0)
(1.04533 -0.00852227 0)
(1.04032 -0.0121371 0)
(1.03532 -0.0156245 0)
(1.03024 -0.0189416 0)
(1.025 -0.0220365 0)
(1.01954 -0.0248505 0)
(1.01385 -0.0273256 0)
(1.00809 -0.0293763 0)
(1.00304 -0.030966 0)
(0.999027 -0.0320977 0)
(0.99579 -0.032893 0)
(0.992985 -0.0333919 0)
(0.990331 -0.0336295 0)
(0.987719 -0.0337249 0)
(0.212611 -6.96353e-05 0)
(0.598892 0.00535422 0)
(0.901502 0.0168477 0)
(1.07734 0.0266469 0)
(1.14077 0.0300981 0)
(1.1429 0.0284185 0)
(1.12655 0.0245982 0)
(1.11036 0.0204091 0)
(1.09775 0.0162998 0)
(1.08781 0.0122544 0)
(1.07955 0.00822066 0)
(1.0724 0.0041773 0)
(1.06605 0.000120751 0)
(1.06025 -0.00394561 0)
(1.05484 -0.00801313 0)
(1.04964 -0.0120659 0)
(1.04453 -0.0160802 0)
(1.0394 -0.0200243 0)
(1.03413 -0.0238557 0)
(1.02863 -0.027519 0)
(1.02283 -0.0309466 0)
(1.01674 -0.0340664 0)
(1.01052 -0.0367657 0)
(1.0051 -0.0389681 0)
(1.00087 -0.0406767 0)
(0.997487 -0.042097 0)
(0.99451 -0.0433507 0)
(0.991538 -0.0444595 0)
(0.988431 -0.0452784 0)
(0.210284 -2.76201e-05 0)
(0.591254 0.0048731 0)
(0.891937 0.0153809 0)
(1.07118 0.0247052 0)
(1.13978 0.0282477 0)
(1.14536 0.0267828 0)
(1.13027 0.023052 0)
(1.11426 0.0188467 0)
(1.10159 0.0146783 0)
(1.09163 0.0105508 0)
(1.08337 0.00640873 0)
(1.07626 0.00222503 0)
(1.06993 -0.00200888 0)
(1.06416 -0.00629492 0)
(1.05876 -0.0106292 0)
(1.05356 -0.0150012 0)
(1.04843 -0.0193935 0)
(1.04324 -0.0237803 0)
(1.03787 -0.0281242 0)
(1.03222 -0.032372 0)
(1.02619 -0.0364527 0)
(1.01979 -0.0402835 0)
(1.0132 -0.0437099 0)
(1.00744 -0.0465373 0)
(1.00301 -0.048684 0)
(0.999645 -0.0504227 0)
(0.996973 -0.0521158 0)
(0.994664 -0.0541392 0)
(0.992142 -0.0559504 0)
(0.208814 -3.88217e-05 0)
(0.58601 0.00449872 0)
(0.885146 0.0143335 0)
(1.06673 0.023327 0)
(1.1391 0.0269136 0)
(1.14731 0.0255582 0)
(1.13324 0.0218558 0)
(1.11743 0.0176262 0)
(1.10476 0.0134145 0)
(1.09481 0.00922472 0)
(1.08659 0.00499407 0)
(1.07953 0.000691371 0)
(1.07326 -0.0036954 0)
(1.06756 -0.00817281 0)
(1.06221 -0.0127426 0)
(1.05707 -0.0174014 0)
(1.05198 -0.0221403 0)
(1.04682 -0.0269426 0)
(1.04145 -0.0317802 0)
(1.03576 -0.0366094 0)
(1.02966 -0.041367 0)
(1.02314 -0.0459812 0)
(1.01639 -0.0502884 0)
(1.01048 -0.0539446 0)
(1.00592 -0.0566484 0)
(1.00254 -0.0584549 0)
(1.00006 -0.0594001 0)
(0.998497 -0.060171 0)
(0.998677 -0.0646566 0)
(1.00002 0.000863274 0)
(1.00001 0.000864661 0)
(1.00001 0.000861356 0)
(1.00001 0.000858985 1.02679e-21)
(1.00001 0.00085859 5.12026e-21)
(1.00001 0.000859998 -9.21286e-21)
(1.00001 0.000863036 5.11628e-21)
(1.00001 0.000867604 -4.07577e-21)
(1 0.000873542 5.21048e-22)
(1 0.000880865 4.07358e-21)
(1 0.00088941 0)
(1 0.00089915 -4.55378e-21)
(0.999999 0.000909985 5.17558e-22)
(0.999998 0.000921779 4.04274e-21)
(0.999997 0.000934512 0)
(0.999995 0.000948027 0)
(0.999994 0.000962269 -4.00398e-21)
(0.999993 0.00097712 4.00651e-21)
(0.999992 0.000992421 0)
(0.999991 0.00100815 -1.98682e-21)
(0.99999 0.00102415 2.11175e-21)
(0.999989 0.00104031 1.85198e-21)
(0.999988 0.00105655 -2.96121e-21)
(0.999988 0.00107272 9.5439e-22)
(0.999987 0.00108872 3.05856e-23)
(0.999986 0.00110448 -6.11328e-23)
(0.999986 0.00111984 8.50393e-22)
(0.999985 0.00113471 -9.72056e-22)
(0.999985 0.00114904 0)
(0.999985 0.00116265 0)
(0.999985 0.00117542 -2.3988e-22)
(0.999985 0.00118732 -2.38883e-22)
(0.999985 0.00119832 -4.03605e-21)
(0.999985 0.00120834 3.32175e-21)
(0.999986 0.00121729 -4.23649e-21)
(0.999986 0.00122512 4.23109e-21)
(0.999987 0.00123179 -3.2634e-21)
(0.999987 0.0012372 3.26204e-21)
(0.999988 0.00124136 4.62861e-22)
(0.999989 0.00124415 4.60649e-22)
(0.99999 0.00124558 -4.58405e-22)
(0.999991 0.0012456 0)
(0.999993 0.00124413 0)
(0.999994 0.00124122 0)
(0.999996 0.00123675 0)
(0.999997 0.00123098 0)
(0.999999 0.0012236 1.77619e-21)
(1 0.00121392 -1.77313e-21)
(1 0.00119824 0)
(1.00008 0.00188822 0)
(1.00007 0.00189116 2.07173e-21)
(1.00005 0.00189144 -2.06448e-21)
(1.00004 0.00189552 -1.03027e-21)
(1.00002 0.00190451 -1.03047e-21)
(1.00001 0.00191784 -3.08107e-21)
(0.999996 0.00193518 5.14351e-21)
(0.999984 0.00195655 0)
(0.999971 0.0019814 -5.11786e-22)
(0.99996 0.00200986 -1.02253e-21)
(0.999949 0.00204146 0)
(0.999938 0.00207606 5.08887e-22)
(0.999928 0.00211354 -4.56533e-21)
(0.999919 0.0021534 4.06107e-21)
(0.999911 0.00219563 0)
(0.999903 0.00223985 1.01009e-21)
(0.999895 0.0022858 0)
(0.999889 0.00233336 0)
(0.999883 0.00238204 0)
(0.999878 0.00243172 -1.99523e-21)
(0.999874 0.00248215 1.87146e-21)
(0.99987 0.00253293 -1.24439e-22)
(0.999868 0.0025839 0)
(0.999866 0.00263478 -4.62093e-22)
(0.999864 0.00268523 4.85309e-22)
(0.999864 0.00273505 9.20173e-23)
(0.999865 0.00278398 1.22185e-22)
(0.999866 0.00283172 0)
(0.999868 0.00287805 -1.93801e-21)
(0.999871 0.00292273 1.93758e-21)
(0.999875 0.0029655 -3.60554e-21)
(0.99988 0.00300611 7.91568e-21)
(0.999885 0.00304438 -3.5904e-21)
(0.999891 0.00308006 4.75675e-22)
(0.999898 0.0031129 4.73669e-22)
(0.999905 0.00314277 4.7207e-22)
(0.999913 0.00316941 -4.69464e-22)
(0.999922 0.00319263 4.1996e-21)
(0.999932 0.00321234 -3.26307e-21)
(0.999942 0.00322819 -1.38913e-21)
(0.999953 0.00324019 5.06149e-21)
(0.999965 0.00324808 -3.67477e-21)
(0.999977 0.00325166 -1.8249e-21)
(0.99999 0.00325095 3.62438e-21)
(1 0.00324553 -7.22619e-21)
(1.00002 0.00323564 3.60083e-21)
(1.00003 0.00322101 1.78446e-21)
(1.00005 0.00320095 -3.93838e-24)
(1.00006 0.00317093 0)
(1.00014 0.00290246 3.11671e-21)
(1.0001 0.00290968 -1.04059e-21)
(1.00006 0.00291982 -4.14557e-21)
(1.00002 0.00293638 2.06654e-21)
(0.99998 0.00296052 -2.06622e-21)
(0.999942 0.00299146 0)
(0.999906 0.00302881 -2.05598e-21)
(0.999872 0.00307277 -6.15652e-21)
(0.999839 0.00312218 6.15778e-21)
(0.999808 0.00317746 1.02216e-21)
(0.99978 0.00323773 0)
(0.999753 0.00330272 -6.1109e-21)
(0.999728 0.0033724 1.16008e-23)
(0.999705 0.00344575 4.06439e-21)
(0.999684 0.00352291 0)
(0.999665 0.00360319 -1.00911e-21)
(0.999648 0.00368608 -1.00908e-21)
(0.999634 0.00377165 0)
(0.999621 0.00385884 -1.00384e-21)
(0.999611 0.0039475 -1.99614e-21)
(0.999603 0.00403738 1.99675e-21)
(0.999597 0.00412768 -2.4939e-22)
(0.999594 0.00421816 -2.48065e-22)
(0.999592 0.00430847 0)
(0.999593 0.00439796 3.8399e-23)
(0.999596 0.0044863 -2.14801e-22)
(0.999602 0.0045732 0)
(0.999609 0.00465802 0)
(0.999619 0.00474043 -1.93779e-21)
(0.999631 0.00482014 1.93742e-21)
(0.999645 0.00489661 -3.84543e-21)
(0.999661 0.00496949 3.84416e-21)
(0.999679 0.00503847 0)
(0.999699 0.00510309 0)
(0.999721 0.00516301 0)
(0.999745 0.00521799 -9.42586e-22)
(0.999771 0.00526752 -1.87831e-21)
(0.999799 0.00531136 0)
(0.999828 0.0053493 -9.29724e-22)
(0.99986 0.00538076 -9.18053e-22)
(0.999893 0.00540576 2.77041e-21)
(0.999928 0.00542379 0)
(0.999964 0.00543455 3.64131e-21)
(1 0.00543805 -5.45042e-21)
(1.00004 0.00543352 0)
(1.00008 0.00542129 0)
(1.00013 0.00540067 0)
(1.00017 0.005371 -1.77836e-21)
(1.00022 0.0053289 -1.76704e-21)
(1.00014 0.00387887 -2.08155e-21)
(1.00007 0.0038972 4.1662e-21)
(0.999992 0.00392508 4.1584e-21)
(0.999915 0.00396172 6.21621e-21)
(0.999841 0.00400857 -2.07683e-21)
(0.999769 0.00406478 -4.12593e-21)
(0.9997 0.00412989 8.24958e-21)
(0.999635 0.00420436 -4.10733e-24)
(0.999574 0.00428628 -2.05212e-21)
(0.999516 0.00437648 2.05459e-21)
(0.999462 0.00447355 0)
(0.999412 0.00457711 2.03967e-21)
(0.999367 0.0046873 -2.0278e-21)
(0.999325 0.00480237 8.13435e-21)
(0.999287 0.00492278 -8.11491e-21)
(0.999254 0.00504741 6.08188e-21)
(0.999224 0.00517547 -1.01532e-21)
(0.999199 0.00530734 1.0089e-21)
(0.999179 0.0054412 1.00263e-21)
(0.999162 0.00557694 -1.00341e-21)
(0.99915 0.00571437 0)
(0.999143 0.00585209 -1.49046e-21)
(0.99914 0.00598993 1.24495e-21)
(0.999141 0.00612743 9.90693e-22)
(0.999147 0.00626351 4.61795e-23)
(0.999157 0.00639781 9.1876e-23)
(0.999171 0.00652997 1.46723e-21)
(0.999189 0.00665898 -9.76888e-22)
(0.999212 0.00678441 1.9392e-21)
(0.999239 0.00690592 -1.93888e-21)
(0.999271 0.00702263 0)
(0.999306 0.00713413 4.7925e-21)
(0.999345 0.00724001 -3.83014e-21)
(0.999388 0.0073395 3.7983e-21)
(0.999435 0.00743227 -3.79691e-21)
(0.999486 0.00751791 0)
(0.99954 0.00759566 3.74431e-21)
(0.999598 0.00766527 -1.87494e-21)
(0.99966 0.00772637 0)
(0.999725 0.0077782 3.69492e-21)
(0.999794 0.00782079 -3.69021e-21)
(0.999865 0.00785335 1.83221e-21)
(0.999941 0.00787555 1.82315e-21)
(1.00002 0.00788736 5.4394e-21)
(1.0001 0.0078877 6.25967e-24)
(1.00018 0.00787704 3.59654e-21)
(1.00027 0.00785422 1.78156e-21)
(1.00037 0.00781858 1.76971e-21)
(1.00046 0.0077683 1.76769e-21)
(1.00005 0.0047384 0)
(0.999944 0.00477693 -4.17015e-21)
(0.999823 0.0048326 -4.16043e-21)
(0.9997 0.00489926 0)
(0.999579 0.00497885 -4.14896e-21)
(0.999462 0.00507043 1.02333e-23)
(0.999351 0.00517351 8.29632e-21)
(0.999246 0.00528892 -2.07756e-21)
(0.999147 0.00541378 -1.05819e-23)
(0.999055 0.00554955 -6.17521e-21)
(0.998968 0.00569411 0)
(0.998889 0.00584705 -6.14964e-21)
(0.998816 0.00600871 2.05475e-21)
(0.99875 0.00617645 0)
(0.998691 0.00635117 -2.04125e-21)
(0.998639 0.00653121 9.99275e-24)
(0.998594 0.00671551 -2.02368e-21)
(0.998556 0.00690485 7.07107e-21)
(0.998525 0.00709642 -1.26997e-23)
(0.998502 0.00729028 -1.01599e-21)
(0.998486 0.00748627 -1.0017e-21)
(0.998477 0.00768232 1.99262e-21)
(0.998476 0.00787832 -1.99291e-21)
(0.998482 0.00807373 -2.46343e-22)
(0.998495 0.00826697 5.10247e-22)
(0.998515 0.00845765 -2.75416e-22)
(0.998543 0.00864536 9.80611e-22)
(0.998578 0.00882862 -9.7873e-22)
(0.998619 0.00900695 9.75029e-22)
(0.998668 0.00917996 1.93437e-21)
(0.998724 0.00934638 -5.78593e-21)
(0.998786 0.00950575 -9.44066e-22)
(0.998855 0.00965754 5.75085e-21)
(0.99893 0.00980066 1.90727e-21)
(0.999012 0.0099348 -3.78415e-21)
(0.9991 0.0100594 3.78188e-21)
(0.999195 0.0101734 8.46993e-24)
(0.999295 0.0102765 5.60832e-21)
(0.999401 0.0103683 -3.73735e-21)
(0.999513 0.0104478 -9.26113e-21)
(0.999631 0.0105151 3.68293e-21)
(0.999754 0.010569 1.83204e-21)
(0.999882 0.0106093 7.28006e-21)
(1.00002 0.0106359 -3.63238e-21)
(1.00016 0.0106475 -8.91022e-24)
(1.0003 0.0106446 -9.72124e-24)
(1.00045 0.0106257 0)
(1.00061 0.0105902 -3.54955e-21)
(1.00077 0.0105386 -3.52336e-21)
(0.999853 0.00538069 0)
(0.999696 0.00545055 -6.30477e-21)
(0.999519 0.00554607 6.29511e-21)
(0.999338 0.00565481 0)
(0.99916 0.00577939 0)
(0.998987 0.00591879 -4.16319e-21)
(0.998823 0.00607249 -2.96772e-24)
(0.998667 0.00624179 -4.16274e-21)
(0.99852 0.00642268 -8.6677e-24)
(0.998383 0.00661741 0)
(0.998256 0.00682302 0)
(0.998139 0.00703906 2.0545e-21)
(0.998032 0.00726617 0)
(0.997935 0.0075006 0)
(0.997849 0.00774385 -2.04497e-21)
(0.997774 0.00799361 4.09869e-21)
(0.997709 0.00824848 2.04192e-21)
(0.997656 0.00850975 0)
(0.997613 0.00877344 2.00941e-21)
(0.997582 0.00903985 -5.0521e-21)
(0.997561 0.00930883 -2.01095e-21)
(0.997552 0.00957753 -2.00023e-21)
(0.997554 0.00984596 2.00042e-21)
(0.997567 0.0101135 1.39862e-24)
(0.99759 0.0103779 1.5535e-23)
(0.997625 0.0106388 2.46492e-22)
(0.997671 0.0108957 -4.9276e-22)
(0.997728 0.0111467 0)
(0.997795 0.0113912 -9.73495e-22)
(0.997873 0.0116287 0)
(0.997961 0.0118575 0)
(0.99806 0.0120772 -1.92953e-21)
(0.998169 0.0122871 -7.65872e-21)
(0.998287 0.0124856 2.30812e-23)
(0.998415 0.0126727 1.90373e-21)
(0.998553 0.0128473 0)
(0.9987 0.0130084 -1.87726e-21)
(0.998855 0.0131556 -3.7442e-21)
(0.99902 0.0132883 3.71693e-21)
(0.999194 0.0134053 7.40242e-21)
(0.999375 0.0135067 -7.36195e-21)
(0.999565 0.0135912 1.78566e-24)
(0.999763 0.0136585 -3.64144e-21)
(0.999969 0.0137085 -1.10757e-24)
(1.00018 0.0137395 0)
(1.0004 0.0137525 -3.58185e-21)
(1.00063 0.0137452 -1.7756e-21)
(1.00087 0.0137174 1.77429e-21)
(1.00113 0.0136727 3.52366e-21)
(0.999497 0.00569139 0)
(0.99928 0.005806 4.21336e-21)
(0.999037 0.00595549 -1.26596e-20)
(0.998786 0.00612051 0)
(0.998537 0.00630472 0)
(0.998295 0.00650691 -8.40208e-21)
(0.998064 0.00672657 8.3702e-21)
(0.997845 0.00696556 -4.19618e-21)
(0.997639 0.00721854 -8.78393e-24)
(0.997447 0.00748875 4.16879e-21)
(0.997268 0.00777219 0)
(0.997104 0.00806844 0)
(0.996955 0.00837843 4.15364e-21)
(0.99682 0.00869715 0)
(0.996701 0.00902683 0)
(0.996596 0.00936433 -4.10655e-21)
(0.996508 0.00970795 1.57939e-23)
(0.996435 0.0100595 0)
(0.996377 0.0104137 2.02758e-21)
(0.996336 0.0107711 5.07162e-21)
(0.996311 0.0111316 -2.03203e-21)
(0.996301 0.0114913 0)
(0.996308 0.0118506 -1.00154e-21)
(0.99633 0.0122084 1.25124e-21)
(0.996368 0.0125622 -5.45583e-22)
(0.996422 0.0129113 -2.48808e-22)
(0.996492 0.0132552 4.90061e-22)
(0.996577 0.0135915 -9.85393e-22)
(0.996678 0.0139193 0)
(0.996794 0.0142382 -3.8997e-21)
(0.996925 0.0145461 5.81503e-21)
(0.99707 0.0148423 1.90875e-21)
(0.99723 0.015126 -8.11002e-24)
(0.997404 0.0153953 1.90556e-21)
(0.997592 0.0156501 -1.91412e-21)
(0.997793 0.0158894 -3.77407e-21)
(0.998007 0.0161114 7.5255e-21)
(0.998234 0.0163162 -3.7475e-21)
(0.998473 0.0165026 7.45652e-21)
(0.998724 0.0166695 5.76641e-24)
(0.998988 0.016817 7.3613e-21)
(0.999262 0.0169435 -3.65765e-21)
(0.999547 0.0170486 0)
(0.999844 0.0171323 -1.13165e-24)
(1.00015 0.0171927 7.18952e-21)
(1.00047 0.0172309 0)
(1.0008 0.0172442 0)
(1.00114 0.0172327 6.17411e-21)
(1.00151 0.0172045 8.79845e-22)
(0.998938 0.00554683 1.06491e-21)
(0.998649 0.00572181 7.48341e-21)
(0.998325 0.00594114 8.46598e-21)
(0.997989 0.00617858 -8.52443e-21)
(0.997654 0.00643929 0)
(0.997329 0.00672173 -1.17386e-23)
(0.997016 0.00702543 -4.25902e-21)
(0.996719 0.00735284 -4.24594e-21)
(0.99644 0.00769712 1.26445e-20)
(0.996179 0.00806267 -4.20279e-21)
(0.995937 0.00844429 0)
(0.995715 0.0088416 8.3776e-21)
(0.995512 0.00925582 -8.32662e-21)
(0.99533 0.00968052 2.68168e-23)
(0.995168 0.0101188 8.2966e-21)
(0.995028 0.0105665 -2.08319e-21)
(0.994909 0.0110215 -2.0268e-21)
(0.994812 0.0114864 4.11799e-21)
(0.994736 0.0119542 0)
(0.994682 0.0124259 -2.0341e-21)
(0.994651 0.0129013 2.0357e-21)
(0.994641 0.0133755 2.02361e-21)
(0.994654 0.013849 -2.02355e-21)
(0.994688 0.0143205 2.52558e-22)
(0.994745 0.0147867 3.11848e-23)
(0.994823 0.0152471 7.45958e-22)
(0.994924 0.0157008 -2.76246e-24)
(0.995045 0.0161447 0)
(0.995189 0.016578 0)
(0.995353 0.0170001 -1.03302e-24)
(0.995537 0.0174082 -1.93317e-21)
(0.995742 0.0178016 3.88452e-21)
(0.995967 0.0181793 -3.85566e-21)
(0.996211 0.0185391 3.82321e-21)
(0.996474 0.0188806 -7.6452e-21)
(0.996756 0.0192027 1.8172e-23)
(0.997055 0.0195033 3.77905e-21)
(0.997371 0.0197823 3.73801e-21)
(0.997705 0.0200387 -7.47054e-21)
(0.998054 0.0202707 -7.41422e-21)
(0.998419 0.0204789 -3.69135e-21)
(0.998799 0.0206611 -3.66749e-21)
(0.999193 0.020817 0)
(0.999602 0.0209468 -3.61173e-21)
(1.00002 0.021048 -6.53192e-24)
(1.00046 0.0211222 7.12684e-21)
(1.00091 0.0211659 -8.8451e-21)
(1.00139 0.02118 1.74681e-21)
(1.00188 0.0211787 0)
(0.998132 0.00481281 0)
(0.997755 0.00506594 -8.56283e-21)
(0.997332 0.00537229 0)
(0.996893 0.00570005 8.53507e-21)
(0.996453 0.00605644 4.27455e-21)
(0.996024 0.00643928 -8.54268e-21)
(0.995611 0.00684811 1.27633e-20)
(0.995218 0.007286 4.23591e-21)
(0.994848 0.0077444 -4.23012e-21)
(0.994501 0.00822907 0)
(0.99418 0.00873334 4.22645e-21)
(0.993884 0.00925697 -8.42928e-21)
(0.993614 0.00980142 4.23491e-21)
(0.993372 0.0103587 -4.17989e-21)
(0.993158 0.0109327 3.06867e-23)
(0.992971 0.0115183 4.18212e-21)
(0.992814 0.0121131 -8.33143e-21)
(0.992685 0.0127199 0)
(0.992585 0.0133303 4.12777e-21)
(0.992516 0.0139456 -4.1277e-21)
(0.992475 0.0145653 -1.02116e-21)
(0.992465 0.0151837 0)
(0.992485 0.0158011 1.0232e-21)
(0.992534 0.016416 2.53351e-22)
(0.992613 0.0170243 -5.37183e-22)
(0.992722 0.0176252 7.53122e-22)
(0.992861 0.0182178 4.96072e-22)
(0.993028 0.0187983 -9.9664e-22)
(0.993225 0.0193654 0)
(0.99345 0.0199184 -1.96285e-21)
(0.993703 0.0204539 3.92668e-21)
(0.993983 0.020971 0)
(0.994289 0.0214685 1.92971e-21)
(0.994622 0.0219435 0)
(0.99498 0.0223955 3.81604e-21)
(0.995362 0.0228233 -7.60373e-21)
(0.995769 0.0232244 3.7658e-21)
(0.996197 0.0235985 -2.24979e-23)
(0.996648 0.0239444 3.70132e-21)
(0.99712 0.0242601 -3.71743e-21)
(0.997611 0.0245463 3.67838e-21)
(0.998123 0.0248004 7.31529e-21)
(0.998652 0.025022 0)
(0.999199 0.0252117 0)
(0.999764 0.0253663 -7.17089e-21)
(1.00035 0.0254881 -1.42289e-20)
(1.00095 0.0255727 1.41292e-20)
(1.00158 0.0256217 -7.90354e-21)
(1.00224 0.0256578 7.82867e-21)
(0.997036 0.00334299 0)
(0.996548 0.00369434 8.73695e-21)
(0.996004 0.00410529 8.71795e-21)
(0.995437 0.00454207 1.30497e-20)
(0.994868 0.00501484 -1.30346e-20)
(0.994311 0.00552041 -4.31816e-21)
(0.993773 0.00605831 1.30055e-20)
(0.99326 0.00663214 -4.30222e-21)
(0.992775 0.0072314 4.30467e-21)
(0.99232 0.00786331 0)
(0.991898 0.00851954 8.61861e-21)
(0.991509 0.00919998 0)
(0.991154 0.00990624 -4.2349e-21)
(0.990835 0.0106286 -4.27789e-21)
(0.990552 0.011372 5.27664e-23)
(0.990305 0.01213 0)
(0.990097 0.0128996 4.22103e-21)
(0.989927 0.0136843 8.42262e-21)
(0.989795 0.0144738 0)
(0.989703 0.0152698 2.07752e-21)
(0.98965 0.0160714 -2.07684e-21)
(0.989636 0.0168717 -2.05966e-21)
(0.989663 0.0176711 2.071e-21)
(0.98973 0.0184675 -4.26777e-24)
(0.989836 0.019256 -5.10075e-22)
(0.989983 0.0200355 -2.24317e-22)
(0.990169 0.0208045 -5.04864e-22)
(0.990394 0.0215586 1.00697e-21)
(0.990657 0.0222962 0)
(0.990959 0.0230159 1.97526e-21)
(0.991297 0.0237138 -3.93569e-21)
(0.991672 0.0243885 0)
(0.992082 0.0250386 0)
(0.992527 0.0256603 3.85184e-21)
(0.993005 0.0262531 -7.67986e-21)
(0.993515 0.0268155 3.82868e-21)
(0.994056 0.0273442 3.79952e-21)
(0.994626 0.0278389 0)
(0.995225 0.0282983 1.12041e-20)
(0.99585 0.0287199 -7.41877e-21)
(0.9965 0.0291045 -3.67685e-21)
(0.997175 0.0294492 8.15124e-24)
(0.997872 0.0297536 -7.26025e-21)
(0.998592 0.0300184 -7.1976e-21)
(0.999332 0.0302399 -7.14606e-21)
(1.00009 0.0304211 1.49516e-23)
(1.00088 0.0305565 -2.0716e-23)
(1.0017 0.0306492 0)
(1.00255 0.0307322 -1.38681e-20)
(0.995614 0.000982136 0)
(0.99498 0.00144695 2.29534e-21)
(0.994289 0.00197371 -1.09322e-20)
(0.993566 0.00253794 -8.73487e-21)
(0.992834 0.00315004 8.71985e-21)
(0.992114 0.00380423 4.43892e-21)
(0.991418 0.00449916 -4.32022e-21)
(0.990751 0.00523852 0)
(0.99012 0.00600999 0)
(0.989527 0.0068225 8.7598e-21)
(0.988973 0.00766577 -8.62433e-21)
(0.988463 0.00853984 4.32582e-21)
(0.987997 0.00944632 -4.32223e-21)
(0.987576 0.0103737 4.31668e-21)
(0.987202 0.011328 4.32053e-21)
(0.986876 0.0123013 -4.2851e-21)
(0.986599 0.01329 -4.2371e-21)
(0.986372 0.0142979 -4.21975e-21)
(0.986196 0.015313 4.22345e-21)
(0.986071 0.0163372 -4.22238e-21)
(0.985999 0.0173688 0)
(0.985978 0.0183999 2.10318e-21)
(0.986012 0.0194305 -2.06916e-21)
(0.986098 0.0204579 1.54991e-21)
(0.986236 0.0214763 0)
(0.986429 0.0224837 1.0231e-21)
(0.986673 0.0234783 0)
(0.986969 0.0244546 -1.00544e-21)
(0.987317 0.0254103 1.79708e-23)
(0.987715 0.0263434 1.21958e-23)
(0.988163 0.0272492 3.98335e-21)
(0.988659 0.0281256 0)
(0.989201 0.0289706 0)
(0.989789 0.0297797 0)
(0.99042 0.0305516 0)
(0.991093 0.0312848 -7.65805e-21)
(0.991806 0.0319752 3.81354e-21)
(0.992557 0.0326221 0)
(0.993343 0.0332239 -3.74174e-21)