/*--------------------------------*- C++ -*----------------------------------*\
| =========                 |                                                 |
| \\      /  F ield         | OpenFOAM: The Open Source CFD Toolbox           |
|  \\    /   O peration     | Version:  2312                                  |
|   \\  /    A nd           | Website:  www.openfoam.com                      |
|    \\/     M anipulation  |                                                 |
\*---------------------------------------------------------------------------*/
FoamFile
{
    version     2.0;
    format      ascii;
    arch        "LSB;label=32;scalar=64";
    class       volScalarField;
    location    "41.334267172378347";
    object      p;
}
// * * * * * * * * * * * * * * * * * * * * * * * * * * * * * * * * * * * * * //

dimensions      [0 2 -2 0 0 0 0];

internalField   nonuniform List<scalar> 
21039
(
0.601052
0.467324
0.425055
0.396795
0.375456
0.359353
0.346889
0.336963
0.328891
0.322222
0.316641
0.311916
0.307877
0.304392
0.301359
0.298695
0.296332
0.294216
0.292297
0.290537
0.288899
0.287354
0.285874
0.284517
0.283339
0.282301
0.281361
0.280484
0.279656
0.454027
0.416132
0.402262
0.383885
0.367096
0.353783
0.343005
0.334128
0.326756
0.320579
0.315354
0.310896
0.307061
0.303737
0.300832
0.298273
0.295998
0.293956
0.292101
0.290395
0.288804
0.287298
0.285849
0.284513
0.283344
0.282308
0.281368
0.280492
0.279664
0.364573
0.362152
0.364292
0.357536
0.349068
0.341246
0.333965
0.327405
0.321638
0.316605
0.312219
0.308391
0.305043
0.302103
0.299508
0.297204
0.295143
0.293282
0.291585
0.290017
0.288548
0.287148
0.285793
0.28453
0.283414
0.282416
0.281505
0.280652
0.279844
0.326443
0.328551
0.333005
0.331908
0.329266
0.326023
0.322193
0.318244
0.314443
0.310892
0.307635
0.304685
0.302029
0.299646
0.297507
0.295584
0.293846
0.292265
0.290813
0.289462
0.288188
0.286965
0.285771
0.284644
0.283633
0.282717
0.28187
0.281067
0.280297
0.301407
0.305373
0.311247
0.312942
0.313126
0.31238
0.310823
0.308867
0.306733
0.304548
0.302407
0.300369
0.298464
0.296706
0.295094
0.293622
0.292275
0.291038
0.289893
0.288822
0.287802
0.286814
0.285838
0.2849
0.284039
0.28324
0.282484
0.281751
0.281033
0.281747
0.287
0.294338
0.298193
0.300189
0.300984
0.300898
0.300309
0.299402
0.298299
0.297102
0.295883
0.294688
0.293545
0.292471
0.291473
0.29055
0.289697
0.288902
0.288153
0.287435
0.286731
0.286023
0.28532
0.284646
0.283995
0.283355
0.282712
0.282061
0.268951
0.273972
0.281057
0.285995
0.289211
0.291148
0.292159
0.292589
0.292616
0.292368
0.291951
0.291436
0.290876
0.290307
0.289754
0.289231
0.288745
0.288296
0.287881
0.28749
0.287114
0.286736
0.286343
0.28592
0.285473
0.285003
0.284507
0.283975
0.283407
0.261625
0.265725
0.271459
0.276404
0.28011
0.282697
0.284442
0.285614
0.286359
0.286797
0.287026
0.287115
0.287119
0.287077
0.287016
0.286956
0.286907
0.286876
0.28686
0.286857
0.286856
0.286846
0.286814
0.286718
0.286539
0.286286
0.285964
0.285567
0.2851
0.257075
0.260273
0.264638
0.269131
0.272835
0.275646
0.277773
0.279411
0.280664
0.281626
0.282376
0.282975
0.283472
0.283905
0.284304
0.284688
0.285071
0.28546
0.285859
0.286264
0.28667
0.287065
0.287438
0.287718
0.287853
0.287856
0.28774
0.287506
0.287162
0.253644
0.256092
0.259418
0.263385
0.266904
0.269734
0.27203
0.273934
0.275523
0.276865
0.278019
0.279036
0.279956
0.280813
0.281634
0.282439
0.283242
0.284052
0.284873
0.285705
0.286543
0.287379
0.288201
0.288905
0.289402
0.289704
0.289832
0.289793
0.289596
0.250634
0.252479
0.25506
0.258521
0.261807
0.264587
0.266956
0.269017
0.27083
0.272449
0.273918
0.275275
0.276556
0.277788
0.278996
0.280197
0.281405
0.28263
0.283877
0.285148
0.28644
0.287747
0.28906
0.290238
0.291144
0.29179
0.292204
0.292399
0.29238
0.247734
0.249131
0.251185
0.254185
0.257226
0.259927
0.26232
0.264476
0.266447
0.268274
0.269992
0.271632
0.273223
0.274787
0.276348
0.27792
0.279518
0.28115
0.282824
0.284542
0.286304
0.288107
0.289947
0.291644
0.293011
0.294049
0.294784
0.295232
0.295416
0.244789
0.245872
0.247559
0.250162
0.252966
0.255571
0.257955
0.260166
0.262248
0.264234
0.266152
0.268028
0.269886
0.271747
0.27363
0.27555
0.27752
0.27955
0.281648
0.283816
0.286056
0.28837
0.29076
0.29301
0.294876
0.296351
0.297457
0.298205
0.298611
0.241732
0.242599
0.244023
0.246294
0.248879
0.251381
0.253735
0.255972
0.258129
0.260235
0.262314
0.264387
0.266475
0.268599
0.270775
0.27302
0.275347
0.277766
0.280282
0.282898
0.285614
0.288434
0.29137
0.294173
0.296551
0.298489
0.300006
0.3011
0.301781
0.238548
0.239263
0.240481
0.242459
0.244833
0.247227
0.249539
0.251783
0.253989
0.256183
0.258387
0.26062
0.262904
0.265258
0.2677
0.270248
0.272917
0.275714
0.278642
0.2817
0.284883
0.288188
0.291627
0.294921
0.297748
0.300108
0.302022
0.303475
0.304461
0.235507
0.236112
0.237168
0.238928
0.241129
0.243422
0.245687
0.247924
0.250159
0.252414
0.254708
0.257064
0.259502
0.262045
0.264716
0.267533
0.270512
0.273659
0.276975
0.280451
0.284067
0.287793
0.291612
0.295179
0.298167
0.300643
0.302694
0.30434
0.305566
0.232924
0.233458
0.234413
0.236033
0.238105
0.240308
0.242531
0.244766
0.247024
0.249326
0.251691
0.254142
0.256704
0.259405
0.26227
0.265321
0.268575
0.272041
0.275718
0.279589
0.283613
0.28772
0.29182
0.295422
0.298142
0.300115
0.301579
0.302776
0.303913
0.230779
0.231267
0.23215
0.233668
0.235641
0.237784
0.239996
0.242247
0.244538
0.246885
0.249313
0.251851
0.254526
0.25737
0.260414
0.263682
0.267198
0.270974
0.275012
0.27929
0.283754
0.288294
0.292728
0.296335
0.298493
0.299206
0.298709
0.297486
0.296607
0.229045
0.229583
0.230485
0.231903
0.233708
0.235744
0.237946
0.240236
0.242576
0.244978
0.247476
0.250103
0.252893
0.255882
0.259102
0.262586
0.266364
0.270456
0.274869
0.279588
0.284561
0.289662
0.294657
0.298598
0.300461
0.299733
0.296057
0.288848
0.277775
0.278854
0.278046
0.277243
0.276444
0.275648
0.274854
0.274062
0.273269
0.272475
0.27168
0.270883
0.270082
0.269278
0.268469
0.267655
0.266835
0.266009
0.265176
0.264336
0.263488
0.262633
0.261771
0.260901
0.260023
0.259137
0.258245
0.257345
0.256439
0.255527
0.254609
0.253686
0.252759
0.251827
0.250892
0.249955
0.249017
0.248078
0.247139
0.246201
0.245266
0.244334
0.243406
0.242483
0.241567
0.240658
0.239757
0.238866
0.237983
0.237111
0.278864
0.278065
0.277273
0.276485
0.275699
0.274915
0.274132
0.273349
0.272565
0.271779
0.27099
0.270197
0.2694
0.268598
0.26779
0.266976
0.266154
0.265325
0.264488
0.263643
0.262789
0.261927
0.261056
0.260177
0.259289
0.258393
0.257489
0.256578
0.25566
0.254736
0.253806
0.25287
0.25193
0.250986
0.25004
0.249091
0.248142
0.247192
0.246243
0.245296
0.244353
0.243412
0.242477
0.241549
0.240627
0.239713
0.238809
0.237915
0.237031
0.279066
0.278292
0.277524
0.276758
0.275995
0.275232
0.274469
0.273705
0.272938
0.272168
0.271394
0.270614
0.269829
0.269036
0.268235
0.267426
0.266608
0.265781
0.264943
0.264096
0.263238
0.262369
0.261491
0.260601
0.259702
0.258792
0.257873
0.256946
0.256009
0.255065
0.254113
0.253155
0.252191
0.251223
0.25025
0.249275
0.248298
0.24732
0.246341
0.245365
0.24439
0.243419
0.242452
0.241491
0.240537
0.239591
0.238654
0.237727
0.236811
0.279555
0.278819
0.278085
0.277352
0.276619
0.275885
0.275149
0.274408
0.273664
0.272913
0.272155
0.27139
0.270615
0.269831
0.269036
0.268229
0.267411
0.266581
0.265737
0.264881
0.264011
0.263128
0.262232
0.261323
0.260402
0.259468
0.258522
0.257564
0.256596
0.255618
0.254631
0.253636
0.252633
0.251624
0.250609
0.24959
0.248568
0.247543
0.246518
0.245492
0.244468
0.243447
0.242429
0.241416
0.24041
0.23941
0.238419
0.237437
0.236466
0.28034
0.279654
0.278965
0.278274
0.27758
0.276881
0.276177
0.275466
0.274746
0.274017
0.273278
0.272527
0.271763
0.270986
0.270194
0.269387
0.268565
0.267726
0.26687
0.265998
0.26511
0.264204
0.263282
0.262343
0.261389
0.260419
0.259434
0.258435
0.257422
0.256397
0.255361
0.254313
0.253257
0.252191
0.251118
0.25004
0.248956
0.247868
0.246779
0.245687
0.244597
0.243507
0.24242
0.241337
0.240259
0.239187
0.238122
0.237067
0.236021
0.28143
0.280806
0.280173
0.279534
0.278887
0.278232
0.277566
0.276889
0.2762
0.275496
0.274777
0.274041
0.273288
0.272516
0.271726
0.270915
0.270084
0.269231
0.268358
0.267463
0.266547
0.26561
0.264652
0.263673
0.262675
0.261657
0.260621
0.259567
0.258496
0.25741
0.256309
0.255194
0.254068
0.25293
0.251783
0.250628
0.249465
0.248297
0.247125
0.245951
0.244775
0.243599
0.242424
0.241252
0.240085
0.238922
0.237766
0.236618
0.23548
0.282852
0.282303
0.281737
0.28116
0.28057
0.279966
0.279347
0.27871
0.278054
0.277378
0.276681
0.275962
0.275219
0.274452
0.273659
0.272841
0.271996
0.271124
0.270226
0.269301
0.268348
0.26737
0.266366
0.265336
0.264281
0.263203
0.262102
0.260978
0.259835
0.258672
0.25749
0.256292
0.255079
0.253852
0.252613
0.251363
0.250103
0.248836
0.247563
0.246286
0.245006
0.243724
0.242443
0.241163
0.239886
0.238614
0.237347
0.236088
0.234839
0.284637
0.284176
0.28369
0.283185
0.282661
0.282117
0.28155
0.280958
0.280341
0.279696
0.279023
0.278321
0.277587
0.276822
0.276025
0.275195
0.274331
0.273434
0.272503
0.271539
0.270541
0.269511
0.268449
0.267356
0.266233
0.26508
0.2639
0.262692
0.26146
0.260203
0.258925
0.257625
0.256307
0.254972
0.253621
0.252257
0.25088
0.249494
0.2481
0.246699
0.245295
0.243886
0.242477
0.241069
0.239662
0.23826
0.236861
0.235471
0.234092
0.286808
0.286447
0.286053
0.285631
0.285184
0.284707
0.2842
0.28366
0.283086
0.282476
0.281829
0.281144
0.28042
0.279655
0.278851
0.278004
0.277117
0.276188
0.275218
0.274207
0.273155
0.272063
0.270933
0.269764
0.268559
0.267318
0.266043
0.264736
0.263397
0.26203
0.260636
0.259216
0.257773
0.256308
0.254825
0.253325
0.251809
0.250282
0.248743
0.247196
0.245643
0.244085
0.242525
0.240965
0.239406
0.23785
0.236297
0.234754
0.233224
0.289369
0.289121
0.288831
0.288507
0.288147
0.287748
0.287309
0.286828
0.286303
0.285732
0.285115
0.28445
0.283736
0.282973
0.28216
0.281296
0.280381
0.279417
0.278402
0.277337
0.276223
0.275061
0.273852
0.272597
0.271297
0.269954
0.26857
0.267147
0.265685
0.264188
0.262658
0.261096
0.259506
0.25789
0.256249
0.254588
0.252908
0.251212
0.249502
0.247782
0.246053
0.244318
0.24258
0.24084
0.239101
0.237365
0.235633
0.233911
0.232206
0.292299
0.292176
0.292006
0.291791
0.291533
0.291225
0.290867
0.290455
0.289988
0.289466
0.288885
0.288247
0.287549
0.286791
0.285973
0.285094
0.284154
0.283153
0.282093
0.280972
0.279793
0.278555
0.27726
0.27591
0.274506
0.273049
0.271541
0.269985
0.268382
0.266735
0.265047
0.26332
0.261557
0.259761
0.257935
0.256082
0.254205
0.252308
0.250394
0.248466
0.246528
0.24458
0.242629
0.240676
0.238724
0.236775
0.234831
0.232899
0.230988
0.295533
0.29558
0.295532
0.295421
0.295291
0.295095
0.294832
0.294505
0.294114
0.293655
0.293128
0.29253
0.291862
0.291124
0.290314
0.289432
0.288477
0.28745
0.286352
0.285181
0.28394
0.282629
0.281247
0.279799
0.278283
0.276702
0.275059
0.273355
0.271591
0.269772
0.267901
0.265979
0.264012
0.262
0.259951
0.257868
0.255752
0.253611
0.251447
0.249265
0.247071
0.244865
0.242654
0.240441
0.23823
0.236025
0.233825
0.231643
0.229489
0.298911
0.299126
0.29927
0.29935
0.299354
0.299284
0.299122
0.298909
0.298622
0.298256
0.297811
0.297286
0.296679
0.295991
0.295219
0.294363
0.293419
0.292391
0.291279
0.290077
0.28879
0.287418
0.285959
0.284416
0.28279
0.28108
0.279291
0.277424
0.275479
0.273463
0.271377
0.269223
0.26701
0.264738
0.262414
0.260045
0.257632
0.255186
0.252708
0.250207
0.24769
0.245158
0.242622
0.240084
0.237551
0.235027
0.232514
0.230025
0.227574
0.302312
0.30271
0.303023
0.303269
0.303443
0.303547
0.303577
0.303525
0.303391
0.303178
0.302891
0.302501
0.302019
0.301445
0.300769
0.299994
0.299115
0.298134
0.297051
0.295859
0.294562
0.293159
0.291645
0.290026
0.288298
0.286461
0.28452
0.282474
0.280324
0.278077
0.275733
0.273298
0.270779
0.268177
0.265504
0.262766
0.259967
0.257121
0.254233
0.251312
0.24837
0.24541
0.242448
0.239487
0.236538
0.233606
0.230695
0.227822
0.225005
0.305258
0.305866
0.306398
0.306878
0.3073
0.307662
0.307957
0.308177
0.308316
0.308359
0.308305
0.308144
0.307918
0.307572
0.307084
0.306482
0.305752
0.304897
0.303919
0.302802
0.301556
0.300175
0.298651
0.296989
0.295184
0.293231
0.291137
0.288899
0.286514
0.283993
0.281336
0.278546
0.275637
0.272608
0.269475
0.266248
0.262932
0.259547
0.2561
0.252608
0.249086
0.245541
0.241997
0.238461
0.234951
0.231476
0.228044
0.224676
0.221397
0.306607
0.307393
0.308197
0.309052
0.309923
0.310784
0.31159
0.312313
0.312933
0.313424
0.313785
0.313997
0.314061
0.313988
0.313805
0.313525
0.31304
0.312404
0.311621
0.31067
0.30956
0.30828
0.306817
0.305174
0.303341
0.301305
0.299076
0.296645
0.294005
0.291171
0.28814
0.284918
0.281522
0.277952
0.274232
0.270374
0.266385
0.262297
0.258117
0.253869
0.249576
0.24525
0.240926
0.236619
0.232361
0.228173
0.224073
0.220096
0.216275
0.305141
0.306019
0.307276
0.308896
0.310676
0.312463
0.314131
0.315617
0.316894
0.317944
0.318788
0.319424
0.319877
0.320153
0.32024
0.32016
0.32008
0.319717
0.319196
0.318489
0.3176
0.316511
0.315197
0.313658
0.311874
0.309823
0.307511
0.304922
0.302045
0.298896
0.295472
0.29178
0.287845
0.28367
0.279287
0.274715
0.269966
0.265081
0.26007
0.254964
0.249788
0.244557
0.239314
0.234074
0.22889
0.2238
0.218854
0.214129
0.20969
0.296485
0.297826
0.301236
0.305444
0.309512
0.313095
0.316084
0.318519
0.320484
0.322044
0.323291
0.324263
0.325021
0.325598
0.325999
0.326228
0.326279
0.326302
0.326128
0.325742
0.325167
0.324374
0.323318
0.321992
0.320358
0.318378
0.316048
0.313343
0.310242
0.306768
0.302916
0.2987
0.294155
0.289289
0.284154
0.278777
0.27318
0.267419
0.261507
0.255485
0.249374
0.243186
0.236951
0.230669
0.224376
0.218108
0.21195
0.206104
0.200858
0.269427
0.280257
0.292532
0.302544
0.309978
0.315362
0.319258
0.322146
0.324348
0.32606
0.32743
0.328522
0.329418
0.330156
0.33076
0.331259
0.331612
0.331852
0.332089
0.332078
0.331889
0.331479
0.33078
0.329777
0.328413
0.326618
0.324369
0.321625
0.318356
0.314589
0.310323
0.305582
0.300416
0.294846
0.288942
0.282751
0.276309
0.26969
0.26292
0.25605
0.249105
0.24209
0.235017
0.227832
0.220496
0.21291
0.204982
0.196778
0.188945
0.236259
0.235378
0.234424
0.233388
0.232251
0.231006
0.229682
0.228438
0.227394
0.226578
0.226026
0.225773
0.225858
0.22633
0.227241
0.228653
0.230647
0.233319
0.236796
0.241246
0.246892
0.254047
0.263156
0.274898
0.290371
0.311174
0.338995
0.380839
0.514221
0.236164
0.235266
0.234294
0.233233
0.232064
0.230781
0.229412
0.228118
0.227023
0.226154
0.225545
0.225229
0.225246
0.225636
0.226447
0.227738
0.229578
0.232055
0.235275
0.239376
0.244539
0.251
0.259067
0.269127
0.281811
0.298053
0.315979
0.329412
0.366989
0.23591
0.234975
0.233957
0.232839
0.231602
0.230235
0.228764
0.227356
0.22614
0.225145
0.224398
0.223931
0.223775
0.223964
0.224535
0.225533
0.227008
0.229017
0.231624
0.234906
0.238942
0.243814
0.249577
0.256151
0.263348
0.271261
0.277534
0.274908
0.277021
0.235508
0.23451
0.233417
0.23221
0.230865
0.229367
0.227737
0.226153
0.224753
0.223563
0.222606
0.221907
0.22149
0.221377
0.221593
0.222163
0.22311
0.224455
0.226216
0.228396
0.230977
0.233908
0.237078
0.240215
0.242841
0.244924
0.245507
0.24055
0.238175
0.234985
0.2339
0.232705
0.231377
0.229888
0.228216
0.226378
0.224564
0.222928
0.22149
0.22027
0.219286
0.218552
0.218081
0.217883
0.217965
0.218327
0.218962
0.21985
0.220953
0.222203
0.223498
0.224703
0.225589
0.225735
0.224998
0.222783
0.216434
0.212262
0.234346
0.233153
0.231831
0.230353
0.228684
0.226797
0.224706
0.222617
0.220702
0.218977
0.217458
0.216156
0.215079
0.214229
0.213604
0.213199
0.212998
0.212977
0.213097
0.213305
0.21352
0.213632
0.213508
0.212957
0.211589
0.209062
0.204705
0.196937
0.191533
0.233587
0.232263
0.230787
0.229128
0.227245
0.225105
0.222716
0.22031
0.218079
0.216037
0.214195
0.212558
0.211128
0.2099
0.208864
0.208004
0.207295
0.206705
0.206187
0.205679
0.205099
0.204334
0.203244
0.201642
0.199175
0.195464
0.190064
0.182604
0.17748
0.2327
0.23122
0.229563
0.22769
0.225556
0.22312
0.220391
0.217629
0.215051
0.212669
0.210489
0.208511
0.206732
0.205142
0.203723
0.202454
0.201305
0.200235
0.199195
0.198121
0.196932
0.19552
0.193757
0.191484
0.188424
0.184279
0.178931
0.172892
0.168732
0.231669
0.230006
0.228136
0.226015
0.22359
0.220817
0.217704
0.214549
0.211598
0.208859
0.206335
0.204022
0.20191
0.199984
0.198223
0.1966
0.19508
0.193622
0.192176
0.19068
0.189062
0.187232
0.185087
0.182513
0.179305
0.175239
0.170423
0.165831
0.162605
0.230461
0.228585
0.226468
0.224059
0.2213
0.218143
0.214604
0.211022
0.207677
0.204574
0.20171
0.199077
0.196658
0.194433
0.192379
0.190463
0.188649
0.186897
0.185159
0.183379
0.181497
0.179443
0.177136
0.174492
0.171362
0.167578
0.16338
0.159904
0.157451
0.229021
0.226896
0.224492
0.22175
0.218608
0.21502
0.21101
0.206972
0.20322
0.199753
0.196563
0.193634
0.190944
0.188468
0.186176
0.184034
0.182006
0.180051
0.178123
0.176175
0.174156
0.172009
0.169671
0.167073
0.164106
0.160668
0.157076
0.154419
0.152585
0.227258
0.22484
0.2221
0.218972
0.215394
0.211323
0.2068
0.202284
0.198121
0.194304
0.190815
0.187628
0.184714
0.182042
0.179576
0.177279
0.175114
0.173038
0.17101
0.168987
0.166924
0.164774
0.162485
0.160001
0.157245
0.154176
0.15115
0.149087
0.147715
0.225027
0.222262
0.219127
0.215552
0.211477
0.206872
0.201802
0.196799
0.192241
0.188106
0.184362
0.180972
0.177896
0.175095
0.172527
0.17015
0.167923
0.165806
0.163757
0.161737
0.159705
0.157622
0.155446
0.153127
0.150613
0.147915
0.14539
0.143753
0.142705
0.22207
0.21889
0.215292
0.211202
0.206574
0.201395
0.195768
0.1903
0.185393
0.181001
0.177073
0.173557
0.1704
0.167552
0.164964
0.162589
0.160382
0.158302
0.156308
0.154363
0.15243
0.150474
0.14846
0.146344
0.144093
0.141752
0.139661
0.138337
0.137514
0.217984
0.214307
0.210171
0.205506
0.200287
0.194532
0.188385
0.182525
0.17736
0.172812
0.168806
0.16527
0.162136
0.159341
0.156829
0.154547
0.152447
0.150484
0.148621
0.14682
0.145046
0.143269
0.141455
0.139571
0.137599
0.13561
0.133905
0.132826
0.132153
0.21232
0.208112
0.203438
0.198242
0.192525
0.186335
0.179845
0.173782
0.168538
0.164003
0.160073
0.156657
0.153672
0.151045
0.148712
0.146616
0.144705
0.142934
0.141265
0.13966
0.138088
0.136519
0.134926
0.133284
0.131585
0.129906
0.128511
0.127625
0.127056
0.205146
0.200426
0.195347
0.189839
0.183891
0.177548
0.170992
0.164966
0.159842
0.155484
0.15177
0.14859
0.145851
0.143471
0.141383
0.139526
0.137848
0.136303
0.134853
0.133461
0.132096
0.130732
0.129348
0.127932
0.126486
0.125071
0.12391
0.123166
0.12267
0.195803
0.190874
0.185902
0.180571
0.174788
0.168602
0.162227
0.15643
0.151575
0.147512
0.144105
0.141233
0.138795
0.136705
0.134893
0.133298
0.131868
0.130558
0.12933
0.128149
0.126985
0.125809
0.124605
0.123375
0.122141
0.120956
0.119993
0.119375
0.11894
0.182863
0.179234
0.1755
0.170936
0.165666
0.159863
0.153836
0.148399
0.143908
0.140211
0.137162
0.134633
0.132518
0.13073
0.1292
0.127866
0.126678
0.125595
0.124577
0.123592
0.122608
0.121593
0.120536
0.119479
0.118495
0.117599
0.116838
0.116268
0.115813
0.22727
0.227589
0.228309
0.229749
0.231744
0.233983
0.236311
0.238662
0.241044
0.243499
0.246072
0.248799
0.251715
0.254857
0.258263
0.26197
0.266013
0.270421
0.275207
0.280361
0.285841
0.291519
0.297131
0.301586
0.303506
0.301695
0.294607
0.279858
0.249013
0.225504
0.225943
0.226777
0.228203
0.230112
0.232276
0.234567
0.236924
0.239352
0.241883
0.244554
0.247401
0.250461
0.253771
0.257375
0.261316
0.265635
0.270371
0.275548
0.281181
0.287266
0.293742
0.300428
0.306342
0.310179
0.31122
0.308861
0.305029
0.309415
0.2237
0.224221
0.225139
0.226558
0.228396
0.230483
0.232719
0.235059
0.237509
0.240092
0.242839
0.245782
0.248958
0.252412
0.256189
0.260342
0.264924
0.26999
0.275594
0.281798
0.288685
0.29637
0.304978
0.31404
0.322662
0.331092
0.339559
0.346944
0.363811
0.221834
0.222333
0.223224
0.224627
0.226468
0.228561
0.230793
0.23313
0.235592
0.238207
0.241005
0.244019
0.247287
0.250857
0.254781
0.25912
0.263941
0.269322
0.275351
0.282152
0.289921
0.298999
0.309876
0.322714
0.336659
0.352203
0.370001
0.386385
0.408184
0.219908
0.220372
0.221211
0.222583
0.224422
0.226528
0.228767
0.231108
0.233579
0.236215
0.239047
0.242112
0.24545
0.24911
0.253152
0.257644
0.262666
0.268316
0.274718
0.282058
0.29062
0.300982
0.313814
0.329925
0.347954
0.368696
0.392828
0.416085
0.442215
0.217922
0.218368
0.219175
0.220507
0.222314
0.2244
0.226626
0.22896
0.23143
0.234071
0.23692
0.240013
0.243393
0.247112
0.251233
0.25583
0.260994
0.266839
0.273511
0.281257
0.29038
0.301722
0.31572
0.334113
0.353915
0.377562
0.404652
0.433813
0.463086
0.215872
0.216308
0.217091
0.218381
0.220137
0.222178
0.224369
0.226677
0.229126
0.231754
0.234595
0.237689
0.241077
0.244814
0.248964
0.253605
0.258835
0.264775
0.271573
0.279544
0.288879
0.30083
0.314832
0.334051
0.356033
0.380243
0.406319
0.433603
0.461111
0.213753
0.214176
0.214934
0.216177
0.217871
0.219854
0.221994
0.224257
0.226665
0.229255
0.232062
0.235124
0.238482
0.24219
0.246313
0.250929
0.256132
0.262054
0.268797
0.276778
0.285909
0.297598
0.312411
0.331104
0.352319
0.374905
0.398068
0.421427
0.444743
0.211562
0.211972
0.212702
0.213891
0.215514
0.217424
0.219497
0.221697
0.224043
0.226571
0.229314
0.232308
0.235596
0.239226
0.243261
0.247775
0.25285
0.258633
0.265132
0.27277
0.281878
0.293048
0.307218
0.324361
0.343149
0.362776
0.382469
0.40197
0.420596
0.209296
0.209695
0.210395
0.211525
0.213066
0.214889
0.216878
0.218995
0.221257
0.223696
0.226345
0.229237
0.23241
0.23591
0.239793
0.24413
0.248972
0.254465
0.260699
0.267907
0.276477
0.286706
0.299287
0.314122
0.32987
0.345902
0.36165
0.377137
0.391399
0.206955
0.20734
0.208006
0.209072
0.210523
0.212247
0.214136
0.216151
0.218308
0.220633
0.223158
0.225912
0.228929
0.23225
0.23592
0.24
0.244554
0.249683
0.255483
0.262068
0.269696
0.278628
0.289247
0.301353
0.313764
0.325921
0.337441
0.348643
0.358694
0.204537
0.204909
0.205541
0.206538
0.207891
0.209503
0.211276
0.213171
0.215199
0.217387
0.219759
0.222342
0.225164
0.228258
0.231665
0.235439
0.239625
0.244288
0.249488
0.255279
0.261794
0.269224
0.277705
0.286904
0.295886
0.304217
0.311687
0.31878
0.324925
0.202047
0.20241
0.20301
0.203935
0.205179
0.206663
0.2083
0.210054
0.211934
0.213959
0.216152
0.218532
0.221123
0.223952
0.22705
0.230457
0.234197
0.238302
0.242795
0.247685
0.25301
0.258838
0.265114
0.271433
0.277148
0.282003
0.285952
0.289523
0.292383
0.199483
0.199834
0.200396
0.201244
0.202375
0.203725
0.205216
0.206815
0.208527
0.210368
0.212357
0.214508
0.216838
0.219367
0.222113
0.225099
0.228334
0.231822
0.235549
0.239481
0.243578
0.247793
0.251934
0.255598
0.258432
0.260357
0.261469
0.26229
0.262676
0.196852
0.197191
0.197715
0.198484
0.199495
0.200701
0.202033
0.203463
0.20499
0.20663
0.208397
0.210298
0.212342
0.21454
0.216899
0.219428
0.222119
0.224954
0.227887
0.230844
0.233723
0.2364
0.238591
0.23995
0.240397
0.240006
0.238972
0.237807
0.236544
0.194157
0.194488
0.194974
0.195661
0.196549
0.1976
0.198763
0.200011
0.201336
0.202765
0.204293
0.205924
0.207659
0.209503
0.21145
0.213497
0.215621
0.217782
0.219913
0.221906
0.223622
0.224888
0.225371
0.224818
0.223387
0.221273
0.218726
0.216256
0.214063
0.191404
0.191723
0.192169
0.192773
0.193534
0.19443
0.195417
0.19647
0.197594
0.198796
0.200072
0.201419
0.202833
0.204306
0.205826
0.207377
0.208922
0.210408
0.211747
0.212817
0.213457
0.213467
0.212505
0.210432
0.207609
0.204312
0.200797
0.197576
0.195007
0.188598
0.188909
0.189314
0.189834
0.190469
0.191204
0.192009
0.192863
0.193776
0.194745
0.195762
0.196818
0.197901
0.198997
0.200084
0.201136
0.202106
0.202929
0.203507
0.203711
0.203374
0.202294
0.200146
0.196919
0.193135
0.18911
0.185051
0.181483
0.178914
0.18575
0.186056
0.186421
0.186859
0.187366
0.187934
0.188552
0.189207
0.189904
0.190636
0.19139
0.192151
0.192901
0.193618
0.194274
0.194832
0.19524
0.195423
0.195279
0.194679
0.193464
0.191446
0.18834
0.184271
0.179881
0.175487
0.171204
0.167578
0.165267
0.182864
0.183164
0.183485
0.183843
0.184224
0.184624
0.185067
0.185521
0.186001
0.186497
0.186989
0.187457
0.187877
0.188221
0.188455
0.188536
0.188402
0.187978
0.18716
0.185823
0.183823
0.180998
0.177122
0.172462
0.167752
0.163282
0.159035
0.155583
0.153732
0.17995
0.180245
0.180524
0.180808
0.181042
0.181315
0.181568
0.181822
0.18209
0.182354
0.182589
0.182772
0.182872
0.182858
0.182688
0.182314
0.181672
0.180683
0.179244
0.17724
0.174543
0.171024
0.166525
0.161461
0.156649
0.152332
0.14833
0.145253
0.144057
0.177017
0.177305
0.177548
0.177746
0.177886
0.177995
0.178064
0.178128
0.178191
0.17823
0.178219
0.178128
0.177923
0.177568
0.177019
0.176222
0.17511
0.173604
0.171605
0.169004
0.165692
0.161568
0.156545
0.151186
0.146402
0.142397
0.138803
0.136281
0.135959
0.174074
0.174353
0.174576
0.174708
0.17473
0.174673
0.174571
0.174454
0.17432
0.174146
0.173901
0.173552
0.173061
0.172389
0.171488
0.170303
0.168767
0.166798
0.164303
0.161179
0.15733
0.152674
0.147182
0.141549
0.136807
0.133161
0.130056
0.128228
0.129028
0.171128
0.171401
0.171596
0.17166
0.171565
0.171362
0.171102
0.170816
0.1705
0.170127
0.169665
0.169076
0.168322
0.167359
0.166139
0.164607
0.162694
0.160323
0.157402
0.153837
0.149536
0.144427
0.138506
0.132564
0.127771
0.124386
0.121706
0.120617
0.122755
0.168189
0.168462
0.168631
0.168627
0.168423
0.168082
0.167672
0.167228
0.166745
0.166192
0.165532
0.164725
0.163732
0.162509
0.161007
0.159171
0.156936
0.154228
0.150962
0.147049
0.142402
0.136941
0.130655
0.12435
0.119308
0.115892
0.113312
0.112823
0.116506
0.165263
0.16553
0.165665
0.165592
0.165287
0.164823
0.164282
0.163704
0.163078
0.162367
0.16153
0.160528
0.159323
0.157871
0.156125
0.154033
0.151532
0.148554
0.145025
0.140867
0.136002
0.130342
0.123844
0.117246
0.111823
0.107966
0.104782
0.10434
0.109726
0.162377
0.16269
0.162852
0.162736
0.162308
0.161673
0.160967
0.16025
0.159495
0.158648
0.157659
0.156491
0.155106
0.153462
0.151515
0.149214
0.146504
0.143326
0.139618
0.135324
0.130382
0.124685
0.118119
0.111309
0.105456
0.10089
0.0963535
0.0944432
0.100308
0.149227
0.129705
0.102558
0.0673029
0.0267985
-0.0135937
-0.0508058
-0.0846909
-0.116095
-0.14824
-0.181416
-0.218161
-0.255847
-0.291028
-0.319401
-0.338236
-0.347695
-0.350256
-0.349891
0.157881
0.143198
0.117516
0.0819471
0.0383658
-0.00842094
-0.0549994
-0.100633
-0.144812
-0.191865
-0.238866
-0.286072
-0.331209
-0.370627
-0.400865
-0.420716
-0.431625
-0.436463
-0.438253
0.154014
0.140719
0.116603
0.0814372
0.0359849
-0.0154788
-0.0692852
-0.126877
-0.184383
-0.241893
-0.298975
-0.354491
-0.4055
-0.448439
-0.480709
-0.502058
-0.514498
-0.520938
-0.524122
0.144442
0.131561
0.109567
0.0752573
0.0279298
-0.0283334
-0.08982
-0.154844
-0.221483
-0.288588
-0.355156
-0.418912
-0.476015
-0.522653
-0.556786
-0.57908
-0.592349
-0.599784
-0.603956
0.131594
0.119883
0.0997195
0.0661924
0.0178833
-0.0412958
-0.107874
-0.179393
-0.254224
-0.330613
-0.405985
-0.476684
-0.538151
-0.586777
-0.621533
-0.644159
-0.658113
-0.666531
-0.671572
0.113882
0.10299
0.0846198
0.0526864
0.00484147
-0.0556254
-0.125586
-0.20279
-0.284819
-0.368818
-0.450905
-0.526325
-0.590266
-0.639826
-0.675099
-0.698594
-0.714042
-0.724276
-0.731012
0.0917686
0.0802476
0.0626824
0.0322534
-0.0144649
-0.0751811
-0.147119
-0.227985
-0.314601
-0.403014
-0.488233
-0.564691
-0.627736
-0.675465
-0.709062
-0.731607
-0.746934
-0.75743
-0.764446
0.0665007
0.0531305
0.0349086
0.00487869
-0.0409825
-0.101277
-0.17359
-0.255529
-0.343492
-0.432735
-0.517415
-0.591633
-0.651391
-0.695956
-0.727374
-0.748922
-0.764182
-0.77495
-0.782324
0.0390859
0.0233256
0.00332515
-0.027567
-0.0732402
-0.132766
-0.204089
-0.284866
-0.371259
-0.457946
-0.538584
-0.607493
-0.661708
-0.701612
-0.729801
-0.749491
-0.763905
-0.774325
-0.781524
0.0104131
-0.00772613
-0.0300033
-0.0625559
-0.108634
-0.167317
-0.236816
-0.314923
-0.397676
-0.479411
-0.553732
-0.61567
-0.66346
-0.698408
-0.723387
-0.741381
-0.755185
-0.765703
-0.773346
-0.0185439
-0.0387598
-0.0633327
-0.0978165
-0.144679
-0.20266
-0.269992
-0.344439
-0.421811
-0.49625
-0.561777
-0.614603
-0.654254
-0.682748
-0.702991
-0.717633
-0.728972
-0.737692
-0.743991
-0.0466419
-0.0684498
-0.0949614
-0.131108
-0.178673
-0.235879
-0.300741
-0.370799
-0.441634
-0.50755
-0.563522
-0.6072
-0.639215
-0.661929
-0.678008
-0.689645
-0.698599
-0.705468
-0.710338
-0.0728304
-0.0956609
-0.12353
-0.160682
-0.208406
-0.264421
-0.326445
-0.391747
-0.455809
-0.513416
-0.560727
-0.596683
-0.622643
-0.64101
-0.6541
-0.663696
-0.671166
-0.677109
-0.681434
-0.0963889
-0.119714
-0.14834
-0.185761
-0.23295
-0.287199
-0.345892
-0.40596
-0.46289
-0.512207
-0.551364
-0.580414
-0.601139
-0.615781
-0.626263
-0.633994
-0.639999
-0.644848
-0.648346
-0.116895
-0.140271
-0.169107
-0.206104
-0.252043
-0.303883
-0.358707
-0.413191
-0.463064
-0.504815
-0.537132
-0.560853
-0.577874
-0.590127
-0.59912
-0.605916
-0.611272
-0.615688
-0.6189
-0.13431
-0.157417
-0.186025
-0.222048
-0.266163
-0.315099
-0.365757
-0.414726
-0.458185
-0.493613
-0.520662
-0.540609
-0.555258
-0.566203
-0.574599
-0.581238
-0.586704
-0.591385
-0.594917
-0.148968
-0.171637
-0.199749
-0.234468
-0.276396
-0.322058
-0.368234
-0.411568
-0.448894
-0.478705
-0.501402
-0.518439
-0.531384
-0.541464
-0.549514
-0.556095
-0.561652
-0.566441
-0.570063
-0.161305
-0.183504
-0.211007
-0.244279
-0.283845
-0.326063
-0.367691
-0.405633
-0.437514
-0.46272
-0.482126
-0.497154
-0.509067
-0.518746
-0.52675
-0.533444
-0.539167
-0.544066
-0.547762
-0.171833
-0.193661
-0.220609
-0.25249
-0.289753
-0.328634
-0.366008
-0.399173
-0.426525
-0.448117
-0.465057
-0.478626
-0.489794
-0.499164
-0.507088
-0.513795
-0.519549
-0.524439
-0.528117
-0.181077
-0.202769
-0.229412
-0.260155
-0.295263
-0.33082
-0.363943
-0.392529
-0.415802
-0.434322
-0.449234
-0.461571
-0.472008
-0.480913
-0.488489
-0.494879
-0.500303
-0.504832
-0.508189
-0.189338
-0.211296
-0.2381
-0.268154
-0.301372
-0.333674
-0.362633
-0.38696
-0.406674
-0.422644
-0.435888
-0.447147
-0.456832
-0.46514
-0.472178
-0.478044
-0.48293
-0.486923
-0.489836
-0.196778
-0.219619
-0.2473
-0.27728
-0.308853
-0.33783
-0.362525
-0.382711
-0.399161
-0.412871