/*--------------------------------*- C++ -*----------------------------------*\
| =========                 |                                                 |
| \\      /  F ield         | OpenFOAM: The Open Source CFD Toolbox           |
|  \\    /   O peration     | Version:  2312                                  |
|   \\  /    A nd           | Website:  www.openfoam.com                      |
|    \\/     M anipulation  |                                                 |
\*---------------------------------------------------------------------------*/
FoamFile
{
    version     2.0;
    format      ascii;
    arch        "LSB;label=32;scalar=64";
    class       surfaceScalarField;
    location    "84.527312410430127";
    object      phi;
}
// * * * * * * * * * * * * * * * * * * * * * * * * * * * * * * * * * * * * * //

dimensions      [0 3 -1 0 0 0 0];

oriented        oriented;

internalField   nonuniform List<scalar> 
41713
(
0.00736262
0.0568838
0.00362742
0.0679816
0.00211542
0.0657584
0.00148223
0.0648796
0.00109578
0.0646329
0.00084092
0.0645013
0.000665034
0.0644223
0.000537198
0.0643743
0.0004408
0.0643428
0.000366184
0.0643211
0.000307224
0.0643054
0.000259865
0.0642938
0.000221343
0.064285
0.000189719
0.0642781
0.000163601
0.0642726
0.00014197
0.0642681
0.000124067
0.0642643
0.000109312
0.0642612
9.72535e-05
0.0642585
8.75165e-05
0.0642562
7.97504e-05
0.0642542
7.36035e-05
0.0642526
6.8802e-05
0.0642512
6.52541e-05
0.0548147
6.22812e-05
0.0456789
5.96204e-05
0.038066
5.72391e-05
0.0317218
5.51335e-05
0.026435
0.0220293
5.32548e-05
0.00999353
0.0468903
0.00842544
0.0695497
0.00571223
0.0684716
0.00411731
0.0664745
0.00311513
0.0656351
0.00242206
0.0651944
0.00192236
0.064922
0.00155059
0.064746
0.00126644
0.064627
0.00104412
0.0645434
0.00086668
0.0644828
0.000722753
0.0644377
0.000604489
0.0644032
0.000506354
0.0643762
0.000424365
0.0643545
0.000355609
0.0643368
0.000297927
0.064322
0.000249692
0.0643094
0.000209656
0.0642985
0.000176847
0.064289
0.000150475
0.0642806
0.000129855
0.0642732
0.000114296
0.0642668
0.000104153
0.0548249
9.73413e-05
0.0456858
9.24237e-05
0.0380709
8.85457e-05
0.0317257
8.52622e-05
0.0264382
0.022032
8.25146e-05
0.00859502
0.0382953
0.00970495
0.0684398
0.00746509
0.0707115
0.00569416
0.0682455
0.00450361
0.0668256
0.00361585
0.0660821
0.00293069
0.0656072
0.00239654
0.0652802
0.00197472
0.0650488
0.00163667
0.0648814
0.00136194
0.0647576
0.00113593
0.0646637
0.000948078
0.0645911
0.000790693
0.0645336
0.000658118
0.0644871
0.000546148
0.0644488
0.000451632
0.0644165
0.000372186
0.0643889
0.00030599
0.0643647
0.000251636
0.0643433
0.000208014
0.0643242
0.000174212
0.064307
0.000149313
0.0642917
0.0001339
0.0548403
0.00012432
0.0456953
0.00011797
0.0380772
0.000113292
0.0317304
0.000109489
0.026442
0.0220351
0.000106375
0.00677372
0.0315216
0.00947171
0.0657418
0.00811507
0.0720681
0.00643308
0.0699275
0.00523968
0.068019
0.00433157
0.0669902
0.00359724
0.0663415
0.00299734
0.0658801
0.00250469
0.0655415
0.00209728
0.0652888
0.00175781
0.065097
0.00147292
0.0649486
0.0012323
0.0648317
0.00102806
0.0647378
0.000854185
0.064661
0.000706061
0.0645969
0.00058017
0.0645424
0.000473813
0.0644952
0.000384917
0.0644536
0.000311878
0.0644164
0.000253445
0.0643826
0.000208595
0.0643519
0.000176222
0.0643241
0.000156925
0.0548596
0.000145577
0.0457067
0.000138529
0.0380843
0.000133648
0.0317352
0.000129896
0.0264458
0.022038
0.000126994
0.00506391
0.0264576
0.00856696
0.0622388
0.00817693
0.0724582
0.00673095
0.0713735
0.00557327
0.0691767
0.00469472
0.0678688
0.00397373
0.0670625
0.00336648
0.0664874
0.00285201
0.0660559
0.00241438
0.0657265
0.00204062
0.0654708
0.00172024
0.065269
0.00144475
0.0651072
0.0012074
0.0649752
0.00100283
0.0648656
0.000826791
0.064773
0.000675991
0.0646932
0.000547852
0.0646234
0.000440381
0.0645611
0.000352036
0.0645047
0.000281615
0.0644531
0.000228121
0.0644053
0.000190368
0.0643618
0.000168828
0.0548811
0.000157029
0.0457185
0.000150392
0.0380909
0.000146288
0.0317394
0.000143463
0.0264486
0.0220399
0.00014154
0.00361734
0.0228403
0.00730978
0.0585463
0.00778075
0.0719872
0.00672019
0.072434
0.00565733
0.0702395
0.00482967
0.0686964
0.00414614
0.067746
0.00355832
0.0670752
0.00304831
0.0665659
0.00260454
0.0661702
0.00221751
0.0658578
0.00187935
0.0656072
0.0015836
0.0654029
0.00132502
0.0652338
0.0010993
0.0650913
0.000903034
0.0649692
0.000733481
0.0648628
0.000588511
0.0647683
0.000466475
0.0646831
0.000366113
0.0646051
0.000286458
0.0645327
0.000226692
0.0644651
0.000185699
0.0644028
0.000163678
0.0549031
0.000152904
0.0457293
0.000147956
0.0380959
0.000145758
0.0317415
0.000144858
0.0264495
0.02204
0.000144782
0.00252217
0.0203181
0.00601933
0.0550492
0.00709941
0.0709071
0.00646947
0.073064
0.0055565
0.0711525
0.00479973
0.0694532
0.00416861
0.0683771
0.00361588
0.0676279
0.00312555
0.0670563
0.00268997
0.0666058
0.00230282
0.066245
0.00195868
0.0659513
0.00165299
0.0657086
0.00138197
0.0655048
0.00114253
0.0653307
0.000932151
0.0651796
0.000748865
0.0650461
0.00059115
0.0649261
0.000457875
0.0648164
0.000348224
0.0647147
0.000261622
0.0646193
0.000197576
0.0645292
0.00015517
0.0644452
0.000134213
0.0549241
0.0001258
0.0457377
0.000123746
0.0380979
0.00012458
0.0317407
0.000126649
0.0264475
0.0220373
0.000129366
0.0017583
0.0185598
0.00489097
0.0519165
0.00632676
0.0694713
0.00608076
0.07331
0.00533636
0.0718969
0.00465592
0.0701337
0.00408077
0.0689523
0.00357027
0.0681384
0.00310818
0.0675184
0.00268935
0.0670247
0.00231025
0.0666241
0.00196766
0.0662939
0.00165881
0.0660175
0.00138132
0.0657823
0.00113325
0.0655788
0.000913043
0.0653998
0.000719538
0.0652396
0.000551911
0.0650937
0.000409649
0.0649587
0.000292497
0.0648319
0.000200393
0.0647114
0.000133284
0.0645963
9.05631e-05
0.0644879
7.17034e-05
0.054943
6.66175e-05
0.0457428
6.83984e-05
0.0380961
7.33068e-05
0.0317358
7.94216e-05
0.0264413
0.0220308
8.59662e-05
0.00124798
0.0173118
0.00397266
0.0491918
0.00557639
0.0678676
0.00563729
0.0732491
0.00505702
0.0724772
0.00444787
0.0707428
0.00392174
0.0694784
0.0034512
0.0686089
0.00301878
0.0679508
0.00261988
0.0674236
0.00225268
0.0669913
0.00191565
0.0666309
0.00160744
0.0663257
0.0013269
0.0660628
0.00107313
0.0658326
0.00084551
0.0656274
0.000643661
0.0654414
0.00046749
0.0652699
0.000317155
0.065109
0.000193047
0.064956
9.57375e-05
0.0648087
2.57831e-05
0.0646662
-1.68568e-05
0.0645306
-3.34356e-05
0.0549595
-3.47909e-05
0.0457441
-2.85785e-05
0.0380899
-1.9369e-05
0.0317266
-9.0715e-06
0.026431
0.02202
1.64571e-06
0.000914143
0.0163977
0.00324521
0.0468608
0.00489111
0.0662217
0.00518223
0.0729579
0.00475306
0.0729064
0.00420917
0.0712867
0.0037224
0.0699652
0.00328461
0.0690467
0.00287818
0.0683572
0.00249792
0.0678038
0.00214271
0.0673465
0.00181204
0.0669616
0.00150556
0.0666322
0.00122305
0.0663453
0.000964473
0.0660911
0.000729991
0.0658619
0.000519976
0.0656514
0.000335035
0.0654548
0.000176025
0.065268
4.39981e-05
0.065088
-5.98287e-05
0.0649126
-0.000134237
0.0647406
-0.000178747
0.0645751
-0.000194105
0.0549749
-0.000192381
0.0457424
-0.000182003
0.0380796
-0.000167726
0.0317123
-0.000152156
0.0264155
0.0220044
-0.000136543
0.000696999
0.0157007
0.00267514
0.0448826
0.00428307
0.0646138
0.0047361
0.0725049
0.00444021
0.0732023
0.00395672
0.0717702
0.0035013
0.0704206
0.00308837
0.0694597
0.00270233
0.0687433
0.00233703
0.0681691
0.00199144
0.0676921
0.00166559
0.0672875
0.00135974
0.066938
0.00107432
0.0666307
0.000809952
0.0663555
0.000567418
0.0661044
0.000347742
0.0658711
0.000152185
0.0656503
-1.78012e-05
0.065438
-0.000160505
0.0652307
-0.000273934
0.065026
-0.000356011
0.0648227
-0.000405338
0.0646244
-0.000421977
0.0549915
-0.000418822
0.0457392
-0.000405107
0.0380658
-0.000386282
0.0316935
-0.000365345
0.0263945
0.021983
-0.000343964
0.000552952
0.0151478
0.00222833
0.0432072
0.0037516
0.0630905
0.00431011
0.0719464
0.00412707
0.0733853
0.00369907
0.0721982
0.00326887
0.0708508
0.00287374
0.0698548
0.00250218
0.0691148
0.00214731
0.068524
0.00180776
0.0680316
0.00148377
0.0676114
0.00117596
0.0672458
0.000885183
0.0669215
0.000612487
0.0666282
0.000359174
0.0663578
0.000126762
0.0661035
-8.30128e-05
0.0658601
-0.000268105
0.0656231
-0.000426042
0.0653887
-0.000553998
0.0651539
-0.00064907
0.0649178
-0.000708971
0.0646843
-0.000731854
0.0550144
-0.000731165
0.0457385
-0.000716973
0.0380517
-0.000695496
0.031672
-0.000670443
0.0263695
0.0219567
-0.000644109
0.000452761
0.014695
0.00187462
0.0417854
0.00328969
0.0616754
0.00391004
0.071326
0.00381932
0.073476
0.00344152
0.072576
0.00303178
0.0712605
0.00264837
0.0702382
0.00228565
0.0694775
0.00193643
0.0688732
0.00159882
0.0683692
0.00127299
0.0679373
0.000959711
0.0675591
0.000660041
0.0672212
0.000375341
0.0669129
0.000107198
0.0666259
-0.000142564
0.0663533
-0.000371747
0.0660893
-0.000577664
0.065829
-0.000757164
0.0655682
-0.000906745
0.0653035
-0.00102275
0.0650338
-0.00110209
0.0647637
-0.0011395
0.0550518
-0.00114837
0.0457474
-0.00113932
0.0380426
-0.00111926
0.031652
-0.00109278
0.026343
0.0219271
-0.00106317
0.000378747
0.0143162
0.00159025
0.0405739
0.0028881
0.0603776
0.00353786
0.0706763
0.00352055
0.0734933
0.00318763
0.0729089
0.00279478
0.0716534
0.00241815
0.0706148
0.00205916
0.0698365
0.00171095
0.0692214
0.00137104
0.0687091
0.00103933
0.068269
0.00071652
0.0678819
0.000403737
0.067534
0.00010239
0.0672143
-0.000185854
0.0669141
-0.000458878
0.0666263
-0.000714013
0.0663444
-0.000948055
0.066063
-0.00115732
0.0657774
-0.00133775
0.0654839
-0.00148518
0.0651812
-0.0015962
0.0648747
-0.00166048
0.0551161
-0.00169051
0.0457775
-0.00169658
0.0380487
-0.00168588
0.0316413
-0.0016639
0.026321
0.0218985
-0.00163529
0.000320873
0.0139954
0.00135958
0.0395352
0.00254088
0.0591963
0.00319573
0.0700214
0.00323373
0.0734553
0.00293957
0.0732031
0.00256074
0.0720322
0.00218713
0.0709885
0.00182755
0.0701961
0.00147616
0.0695728
0.00112992
0.0690554
0.000788307
0.0686106
0.00045181
0.0682184
0.000121374
0.0678644
-0.000201767
0.0675374
-0.000515896
0.0672283
-0.000818638
0.0669291
-0.00110702
0.0666328
-0.00137745
0.0663335
-0.00162575
0.0660257
-0.00184742
0.0657056
-0.00203826
0.0653721
-0.00219567
0.0650321
-0.00230363
0.0552241
-0.00237328
0.0458471
-0.00241301
0.0380884
-0.00242801
0.0316563
-0.00242308
0.0263161
0.0218794
-0.00240398
0.000235315
0.0137601
0.000997905
0.0387726
0.00190695
0.0582872
0.00245113
0.0694773
0.00251532
0.0733911
0.00229319
0.0734252
0.00198312
0.0723423
0.00166869
0.0713029
0.00136284
0.0705019
0.00106168
0.069874
0.000762229
0.0693548
0.000463621
0.0689092
0.000165941
0.0685161
-0.000130415
0.0681607
-0.000424626
0.0678316
-0.000715302
0.0675189
-0.00100049
0.0672142
-0.00127761
0.0669099
-0.00154338
0.0665992
-0.00179382
0.0662762
-0.00202448
0.0659363
-0.00223137
0.0655789
-0.00241296
0.0652137
-0.00255121
0.0553623
-0.00265685
0.0459527
-0.00273647
0.038168
-0.00279111
0.0317109
-0.00282052
0.0263455
0.0218871
-0.00282828
0.000176021
0.013584
0.000743581
0.038205
0.00144377
0.057587
0.00188766
0.0690334
0.00195886
0.0733199
0.00178949
0.0735946
0.00153672
0.0725951
0.0012744
0.0715652
0.00101689
0.0707595
0.000761584
0.0701293
0.000505694
0.0696107
0.000248093
0.0691668
-1.15414e-05
0.0687757
-0.000273184
0.0684224
-0.000536458
0.0680949
-0.000800487
0.067783
-0.00106392
0.0674777
-0.00132478
0.0671708
-0.00158037
0.0668548
-0.00182712
0.0665229
-0.00206071
0.0661699
-0.00227674
0.065795
-0.00247281
0.0654098
-0.00262827
0.0555178
-0.0027562
0.0460807
-0.00286773
0.0382796
-0.00296734
0.0318105
-0.00305255
0.0264307
0.0219442
-0.00310958
0.000135826
0.0134482
0.000567049
0.0377738
0.00111271
0.0570414
0.00147387
0.0686722
0.00154311
0.0732507
0.00141218
0.0737255
0.00120571
0.0728015
0.000987251
0.0717837
0.00077096
0.0709757
0.000555172
0.0703451
0.000337346
0.0698285
0.000116252
0.0693879
-0.000108719
0.0690007
-0.000337857
0.0686515
-0.000571121
0.0683281
-0.000808189
0.06802
-0.00104833
0.0677178
-0.00129027
0.0674127
-0.00153205
0.0670966
-0.00177087
0.0667617
-0.00200286
0.0664019
-0.00222339
0.0660155
-0.00242778
0.0656142
-0.00258879
0.0556788
-0.00271738
0.0462092
-0.00283013
0.0383923
-0.00294135
0.0319217
-0.0030692
0.0265586
0.0220991
-0.00322417
0.000104146
0.0133441
0.000439867
0.0374381
0.000873736
0.0566075
0.00116966
0.0683763
0.00123163
0.0731887
0.00112677
0.0738303
0.000956394
0.0729719
0.000774498
0.0719656
0.000593451
0.0711568
0.000411766
0.0705267
0.000227125
0.0700132
3.83161e-05
0.0695767
-0.000155361
0.0691944
-0.000354389
0.0688506
-0.000559078
0.0685328
-0.000769548
0.0682305
-0.000985635
0.0679339
-0.00120676
0.0676339
-0.00143178
0.0673216
-0.00165888
0.0669888
-0.0018854
0.0666284
-0.00210786
0.0662379
-0.0023213
0.0658276
-0.00249129
0.0558488
-0.0026172
0.0463352
-0.00270538
0.0384805
-0.00276555
0.0319819
-0.00281557
0.0266086
-0.00299299
0.0222765
9.76144e-05
0.021983
0.000139465
0.0219855
0.000172378
0.0219944
0.000202956
0.0219968
0.000227721
0.0220026
0.000247961
0.0220071
0.000265179
0.0220101
0.000276083
0.0220165
0.000284987
0.0220185
0.000288875
0.0220235
0.0002897
0.0220265
0.000288004
0.0220291
0.000281866
0.0220335
0.000274131
0.0220351
0.000263148
0.0220383
0.000249861
0.0220406
0.000235241
0.022042
0.000217643
0.022045
0.000198982
0.022046
0.000179082
0.0220473
0.000157616
0.0220488
0.000135535
0.0220494
0.000112783
0.0220501
8.95199e-05
0.0220506
6.61453e-05
0.0220507
4.28265e-05
0.0220507
1.99474e-05
0.0220502
-2.49306e-06
0.0220498
-2.4174e-05
0.022049
-4.44553e-05
0.0220476
-6.38315e-05
0.0220467
-8.1473e-05
0.022045
-9.7076e-05
0.022043
-0.000111404
0.0220417
-0.000122421
0.0220384
-0.00013145
0.0220364
-0.000138184
0.0220341
-0.000140731
0.0220299
-0.000141479
0.0220281
-0.00013754
0.0220234
-0.000130426
0.0220202
-0.000120171
0.0220171
-0.000104099
0.0220113
-8.58457e-05
0.0220091
-6.08555e-05
0.0220024
-3.24017e-05
0.0219989
8.79978e-07
0.0219941
4.0537e-05
0.0219877
0.0219852
8.2715e-05
0.000126211
0.0219393
0.00016763
0.0219441
0.000200345
0.0219617
0.000230974
0.0219661
0.000256046
0.0219775
0.000276848
0.0219863
0.000294869
0.0219921
0.000306814
0.0220045
0.000316981
0.0220083
0.000322344
0.0220181
0.000324842
0.022024
0.000325003
0.0220289
0.000320897
0.0220376
0.000315351
0.0220406
0.000306703
0.022047
0.000295886
0.0220515
0.000283853
0.022054
0.000268951
0.0220599
0.000253077
0.0220619
0.000236042
0.0220643
0.000217511
0.0220674
0.000198415
0.0220685
0.000178688
0.0220698
0.000158479
0.0220708
0.000138171
0.022071
0.000117918
0.0220709
9.80984e-05
0.0220701
7.86912e-05
0.0220692
6.0007e-05
0.0220677
4.26762e-05
0.022065
2.61805e-05
0.0220632
1.13409e-05
0.0220598
-1.55323e-06
0.0220559
-1.32883e-05
0.0220534
-2.1826e-05
0.0220469
-2.85109e-05
0.0220431
-3.30467e-05
0.0220386
-3.35432e-05
0.0220304
-3.24168e-05
0.022027
-2.67775e-05
0.0220178
-1.81612e-05
0.0220116
-6.61629e-06
0.0220056
1.05305e-05
0.0219941
2.96109e-05
0.02199
5.51854e-05
0.0219768
8.39506e-05
0.0219701
0.000117256
0.0219608
0.000156625
0.0219483
0.0219436
0.000198182
0.000149793
0.0218959
0.000191159
0.0219027
0.000224083
0.0219288
0.000255182
0.021935
0.000280987
0.0219517
0.000302774
0.0219645
0.000322021
0.0219729
0.000335427
0.0219911
0.000347271
0.0219964
0.000354521
0.0220109
0.000359102
0.0220195
0.000361528
0.0220265
0.000359862
0.0220393
0.00035691
0.0220436
0.000351005
0.0220529
0.000343061
0.0220594
0.000334017
0.0220631
0.000322216
0.0220717
0.000309531
0.0220746
0.000295763
0.0220781
0.000280568
0.0220825
0.000264856
0.0220842
0.00024855
0.0220861
0.000231791
0.0220876
0.000214939
0.0220879
0.000198139
0.0220877
0.00018176
0.0220864
0.000165759
0.0220852
0.000150437
0.022083
0.000136415
0.022079
0.000123152
0.0220765
0.000111463
0.0220715
0.000101626
0.0220657
9.28322e-05
0.0220622
8.71193e-05
0.0220526
8.31154e-05
0.0220471
8.11038e-05
0.0220406
8.2971e-05
0.0220285
8.62715e-05
0.0220237
9.3898e-05
0.0220102
0.000104293
0.0220012
0.000117395
0.0219925
0.000135875
0.0219757
0.000156036
0.0219699
0.000182444
0.0219504
0.000211763
0.0219408
0.000245334
0.0219272
0.000284665
0.021909
0.0219024
0.000325841
0.000170779
0.0218521
0.000212714
0.0218608
0.00024645
0.0218951
0.000278619
0.0219029
0.000305757
0.0219246
0.000329135
0.0219411
0.000350224
0.0219518
0.000365713
0.0219756
0.000379868
0.0219823
0.000389648
0.0220011
0.000396961
0.0220121
0.000402307
0.0220211
0.000403743
0.0220378
0.000404053
0.0220433
0.000401561
0.0220554
0.000397168
0.0220638
0.00039179
0.0220684
0.00038377
0.0220797
0.000374955
0.0220834
0.000365134
0.0220879
0.000353954
0.0220937
0.000342302
0.0220959
0.000330091
0.0220984
0.000317449
0.0221002
0.000304716
0.0221006
0.000292025
0.0221004
0.000279736
0.0220987
0.000267783
0.0220972
0.000256453
0.0220944
0.000246362
0.0220891
0.000236943
0.0220859
0.000229004
0.0220795
0.000222809
0.0220719
0.000217525
0.0220675
0.000215195
0.022055
0.000214418
0.0220478
0.000215466
0.0220396
0.000220226
0.0220238
0.000226218
0.0220177
0.000236343
0.022
0.000249018
0.0219886
0.000264169
0.0219773
0.000284469
0.0219554
0.000306185
0.0219481
0.000333896
0.0219227
0.000364232
0.0219105
0.000398525
0.0218929
0.000438279
0.0218692
0.0218612
0.000479531
0.000186548
0.0218071
0.000229902
0.0218174
0.000265291
0.0218597
0.00029937
0.0218688
0.000328681
0.0218953
0.000354498
0.0219153
0.000378282
0.021928
0.000396721
0.0219572
0.000414061
0.0219649
0.000427255
0.0219879
0.000438197
0.0220012
0.000447371
0.0220119
0.000452825
0.0220324
0.000457321
0.0220388
0.000459176
0.0220535
0.000459271
0.0220637
0.000458505
0.0220692
0.000455216
0.022083
0.000451224
0.0220874
0.000446303
0.0220928
0.000440095
0.0220999
0.000433457
0.0221025
0.000426292
0.0221055
0.000418718
0.0221078
0.000411048
0.0221083
0.000403402
0.0221081
0.000396133
0.022106
0.000389145
0.0221041
0.000382717
0.0221008
0.000377455
0.0220943
0.000372763
0.0220906
0.000369446
0.0220828
0.00036775
0.0220736
0.000366816
0.0220684
0.000368695
0.0220531
0.000371955
0.0220446
0.000376855
0.0220347
0.000385284
0.0220153
0.000394728
0.0220082
0.000408098
0.0219867
0.000423784
0.0219729
0.000441699
0.0219594
0.000464526
0.0219325
0.000488489
0.0219242
0.000518192
0.021893
0.000550228
0.0218784
0.000585925
0.0218572
0.00062678
0.0218284
0.0218192
0.000668785
0.000192044
0.0217598
0.000237855
0.0217716
0.000275939
0.0218216
0.000312978
0.0218318
0.000345526
0.0218627
0.000374858
0.021886
0.000402434
0.0219004
0.000424934
0.0219347
0.000446591
0.0219433
0.000464351
0.0219701
0.000480089
0.0219855
0.000494276
0.0219978
0.00050495
0.0220217
0.000514849
0.0220289
0.000522282
0.0220461
0.000528109
0.0220579
0.000533208
0.0220641
0.000535913
0.0220803
0.000538013
0.0220853
0.000539268
0.0220915
0.000539308
0.0220999
0.000538964
0.0221029
0.000538122
0.0221064
0.000536889
0.022109
0.000535549
0.0221096
0.000534209
0.0221094
0.000533211
0.022107
0.000532429
0.0221049
0.000532126
0.0221011
0.000532904
0.0220936
0.00053413
0.0220894
0.000536604
0.0220803
0.00054056
0.0220696
0.000545105
0.0220639
0.000552301
0.0220459
0.00056068
0.0220362
0.000570487
0.0220249
0.000583621
0.0220022
0.000597522
0.0219943
0.00061512
0.0219691
0.000634775
0.0219532
0.000656385
0.0219378
0.000682651
0.0219063
0.000709749
0.0218971
0.000742314
0.0218604
0.000776899
0.0218439
0.000814829
0.0218193
0.000857602
0.0217856
0.0217756
0.00090115
0.00018008
0.0217091
0.00022957
0.0217221
0.000271589
0.0217796
0.000312855
0.0217905
0.000349931
0.0218256
0.000384102
0.0218518
0.000416822
0.0218677
0.000444766
0.0219067
0.000472157
0.0219159
0.000495927
0.0219464
0.000517939
0.0219634
0.000538642
0.0219771
0.000556066
0.0220043
0.000572924
0.022012
0.000587511
0.0220315
0.000600668
0.0220447
0.000613248
0.0220515
0.000623577
0.0220699
0.000633413
0.0220754
0.000642496
0.0220825
0.000650445
0.0220919
0.000658058
0.0220953
0.000665205
0.0220992
0.000671976
0.0221023
0.000678625
0.022103
0.000685238
0.0221028
0.000692148
0.0221001
0.00069919
0.0220979
0.000706613
0.0220937
0.00071501
0.0220852
0.000723707
0.0220807
0.0007335
0.0220705
0.000744603
0.0220585
0.000756085
0.0220524
0.000770025
0.0220319
0.00078491
0.0220213
0.000800972
0.0220088
0.00082012
0.0219831
0.000839741
0.0219747
0.000862792
0.021946
0.000887597
0.0219284
0.00091404
0.0219113
0.000944845
0.0218755
0.000976131
0.0218658
0.00101258
0.021824
0.00105069
0.0218057
0.00109179
0.0217782
0.00113739
0.02174
0.0217297
0.00118335
0.00014144
0.0216536
0.000195965
0.0216676
0.000243316
0.0217322
0.000290262
0.0217436
0.000333381
0.0217825
0.000373956
0.0218113
0.000413442
0.0218282
0.000448499
0.0218717
0.000483347
0.021881
0.000514897
0.0219148
0.000544998
0.0219333
0.000574082
0.021948
0.000600159
0.0219782
0.00062592
0.0219863
0.000649641
0.0220078
0.000672142
0.0220222
0.000694247
0.0220294
0.00071427
0.0220499
0.000733935
0.0220558
0.000752958
0.0220634
0.000770943
0.022074
0.000788648
0.0220776
0.000805922
0.0220819
0.000822838
0.0220854
0.000839608
0.0220862
0.000856297
0.0220861
0.000873223
0.0220832
0.000890176
0.0220809
0.000907385
0.0220765
0.000925431
0.0220671
0.00094359
0.0220625
0.000962652
0.0220515
0.000982808
0.0220384
0.00100308
0.0220321
0.00102557
0.0220095
0.00104871
0.0219982
0.00107271
0.0219848
0.00109949
0.0219563
0.00112639
0.0219478
0.00115639
0.021916
0.00118778
0.021897
0.00122041
0.0218787
0.00125706
0.0218388
0.00129376
0.0218291
0.00133525
0.0217825
0.00137799
0.021763
0.00142331
0.0217329
0.00147271
0.0216906
0.0216804
0.00152199
6.36826e-05
0.0215916
0.000125108
0.0216062
0.000179526
0.0216778
0.00023396
0.0216891
0.000284941
0.0217315
0.000333777
0.0217624
0.000381959
0.02178
0.000426129
0.0218275
0.000470508
0.0218367
0.00051198
0.0218733
0.000552383
0.0218929
0.000592128
0.0219082
0.000629197
0.0219411
0.000666266
0.0219492
0.000701582
0.0219725
0.000735939
0.0219879
0.000770133
0.0219952
0.000802455
0.0220176
0.000834594
0.0220236
0.000866235
0.0220318
0.000896958
0.0220432
0.000927479
0.022047
0.000957616
0.0220518
0.000987416
0.0220556
0.00101704
0.0220566
0.00104653
0.0220566
0.00107618
0.0220535
0.00110572
0.0220514
0.00113536
0.0220468
0.00116565
0.0220368
0.00119582
0.0220324
0.00122664
0.0220206
0.00125826
0.0220067
0.00128967
0.0220007
0.00132297
0.0219761
0.00135654
0.0219646
0.00139056
0.0219508
0.00142699
0.0219198
0.00146305
0.0219118
0.0015018
0.0218773
0.00154145
0.0218574
0.00158187
0.0218383
0.00162584
0.0217948
0.00166933
0.0217856
0.00171716
0.0217346
0.00176571
0.0217145
0.00181633
0.0216822
0.00187053
0.0216364
0.0216269
0.00192402
-6.78927e-05
0.021523
1.37148e-06
0.0215369
6.51088e-05
0.0216141
0.000129428
0.0216248
0.000190413
0.0216706
0.00024982
0.021703
0.000309068
0.0217208
0.000364753
0.0217718
0.000421146
0.0217803
0.000475114
0.0218194
0.000528494
0.0218396
0.000581676
0.021855
0.000632606
0.0218902
0.000683951
0.0218979
0.000733916
0.0219225
0.000783271
0.0219385
0.000832777
0.0219457
0.000880688
0.0219697
0.000928658
0.0219757
0.00097633
0.0219841
0.00102325
0.0219963
0.00107008
0.0220002
0.0011166
0.0220053
0.00116281
0.0220093
0.00120883
0.0220106
0.00125464
0.0220108
0.0013005
0.0220076
0.00134609
0.0220058
0.00139156
0.0220014
0.00143745
0.0219909
0.00148289
0.0219869
0.00152864
0.0219749
0.00157482
0.0219606
0.00162033
0.0219552
0.0016673
0.0219292
0.00171401
0.0219179
0.00176065
0.0219042
0.00180915
0.0218713
0.00185668
0.0218642
0.00190632
0.0218276
0.00195623
0.0218075
0.00200626
0.0217883
0.00205924
0.0217419
0.00211104
0.0217338
0.00216659
0.0216791
0.00222217
0.0216589
0.00227915
0.0216253
0.00233909
0.0215765
0.0215684
0.00239758
-0.000265581
0.0214446
-0.000186735
0.0214581
-0.000113906
0.0215412
-3.96089e-05
0.0215505
3.35031e-05
0.0215974
0.000105865
0.0216306
0.000178762
0.0216479
0.000248516
0.0217021
0.000319771
0.021709
0.000389257
0.0217499
0.000458796
0.02177
0.000528759
0.0217851
0.000597038
0.0218219
0.000666304
0.0218286
0.000734709
0.0218541
0.00080299
0.0218702
0.000871871
0.0218768
0.000939546
0.021902
0.00100763
0.0219076
0.00107571
0.021916
0.00114328
0.0219288
0.00121093
0.0219326
0.00127839
0.0219378
0.00134561
0.0219421
0.00141261
0.0219436
0.00147933
0.0219441
0.00154597
0.021941
0.00161211
0.0219397
0.00167785
0.0219356
0.00174367
0.0219251
0.00180862
0.021922
0.00187342
0.0219101
0.00193812
0.0218959
0.00200152
0.0218918
0.00206578
0.0218649
0.00212908
0.0218546
0.00219153
0.0218417
0.00225513
0.0218078
0.0023169
0.0218024
0.00237998
0.0217645
0.00244247
0.021745
0.00250418
0.0217265
0.00256802
0.021678
0.00262975
0.0216721
0.0026944
0.0216144
0.00275819
0.0215951
0.0028225
0.0215609
0.00288893
0.02151
0.0215044
0.00295298
-0.000555405
0.0213559
-0.000464733
0.0213674
-0.000378772
0.0214553
-0.000290592
0.0214623
-0.000204208
0.0215111
-0.000117806
0.0215442
-2.96089e-05
0.0215597
5.73376e-05
0.0216151
0.000146679
0.0216197
0.0002351
0.0216615
0.000324499
0.0216806
0.000415242
0.0216943
0.000505147
0.021732
0.000596893
0.0217368
0.000688516
0.0217625
0.000780718
0.021778
0.000874173
0.0217834
0.000966987
0.0218092
0.00106073
0.0218138
0.00115491
0.0218219
0.00124893
0.0218347
0.00134332
0.0218382
0.00143771
0.0218434
0.00153197
0.0218479
0.00162602
0.0218495
0.00171971
0.0218504
0.00181315
0.0218475
0.00190581
0.021847
0.00199769
0.0218438
0.0020892
0.0218336
0.00217925
0.0218319
0.00226849
0.0218209
0.00235689
0.0218075
0.00244311
0.0218056
0.00252933
0.0217787
0.00261357
0.0217704
0.00269591
0.0217594
0.00277833
0.0217253
0.00285771
0.0217231
0.00293728
0.021685
0.00301503
0.0216672
0.00309075
0.0216508
0.00316743
0.0216013
0.00324071
0.0215988
0.00331577
0.0215394
0.00338872
0.0215221
0.00346103
0.0214886
0.00353433
0.0214367
0.0214347
0.003604
-0.000963567
0.0212563
-0.000860559
0.0212644
-0.000760975
0.0213557
-0.000657509
0.0213589
-0.000553899
0.0214075
-0.000448838
0.0214392
-0.000340863
0.0214517
-0.000233873
0.0215081
-0.000123004
0.0215088
-1.16761e-05
0.0215501
0.000101933
0.021567
0.000218146
0.0215781
0.000334925
0.0216152
0.000454793
0.021617
0.000575672
0.0216416
0.000698218
0.0216555
0.000822976
0.0216586
0.000947914
0.0216842
0.00107455
0.0216872
0.00120228
0.0216941
0.00133041
0.0217066
0.00145935
0.0217092
0.00158862
0.0217142
0.00171797
0.0217185
0.00184718
0.0217203
0.00197596
0.0217216
0.00210431
0.0217192
0.0022315
0.0217198
0.00235741
0.0217178
0.00248233
0.0217087
0.00260495
0.0217093
0.00272584
0.0217
0.00284483
0.0216885
0.00296039
0.02169
0.00307467
0.0216644
0.00318552
0.0216595
0.0032929
0.021652
0.00339882
0.0216194
0.00349996
0.0216219
0.00359962
0.0215853
0.0036957
0.0215711
0.00378794
0.0215586
0.00387947
0.0215098
0.00396575
0.0215125
0.00405221
0.0214529
0.00413484
0.0214395
0.00421521
0.0214083
0.00429507
0.0213569
0.0213601
0.00436966
-0.00152571
0.0211467
-0.00141049
0.0211492
-0.00129685
0.0212421
-0.0011772
0.0212392
-0.00105539
0.0212856
-0.000929903
0.0213137
-0.000799077
0.0213209
-0.000666778
0.0213758
-0.000528425
0.0213705
-0.000387682
0.0214094
-0.000242666
0.021422
-9.32548e-05
0.0214287
5.74932e-05
0.0214645
0.000212645
0.0214618
0.000370471
0.0214838
0.000531598
0.0214943
0.000696315
0.0214939
0.000862463
0.0215181
0.00103145
0.0215182
0.00120253
0.0215231
0.00137487
0.0215343
0.00154876
0.0215353
0.00172355
0.0215394
0.00189884
0.0215432
0.00207421
0.0215449
0.00224915
0.0215467
0.00242349
0.0215449
0.00259624
0.0215471
0.00276704
0.0215471
0.002936
0.0215397
0.0031015
0.0215438
0.00326393
0.0215375
0.00342292
0.0215295
0.00357665
0.0215363
0.00372722
0.0215139
0.00387218
0.0215145
0.00401137
0.0215128
0.00414678
0.021484
0.00427482
0.0214939
0.00439888
0.0214613
0.00451671
0.0214533
0.00462803
0.0214473
0.00473613
0.0214017
0.00483629
0.0214123
0.00493427
0.0213549
0.00502598
0.0213478
0.00511316
0.0213211
0.00519775
0.0212723
0.021283
0.0052749
-0.00228793
0.0210306
-0.00216269
0.0210239
-0.00203634
0.0211157
-0.00190063
0.0211035
-0.0017593
0.0211443
-0.0016105
0.0211649
-0.00145252
0.0211629
-0.00128954
0.0212128
-0.00111697
0.0211979
-0.000939015
0.0212314
-0.000754107
0.0212371
-0.000562311
0.0212369
-0.000366186
0.0212684
-0.0001634
0.021259
4.27641e-05
0.0212776
0.000252845
0.0212843
0.000468746
0.021278
0.000687804
0.021299
0.000911398
0.0212946
0.00113867
0.0212958
0.00136864
0.0213043
0.00160142
0.0213025
0.00183618
0.0213046
0.00207229
0.0213071
0.00230904
0.0213082
0.00254562
0.0213101
0.00278157
0.0213089
0.00301545
0.0213132
0.00324655
0.021316
0.00347465
0.0213116
0.00369763
0.0213208
0.00391558
0.0213196
0.00412777
0.0213173
0.00433192
0.0213322
0.00453007
0.0213157
0.00471932
0.0213253
0.00489928
0.0213328
0.00507193
0.0213113
0.00523328
0.0213325
0.00538686
0.0213077
0.0055302
0.02131
0.00566297
0.0213145
0.0057887
0.021276
0.00590245
0.0212986
0.0060105
0.0212469
0.0061087
0.0212496
0.00619917
0.0212306
0.00628423
0.0211872
0.0212083
0.00635889
-0.00273723
0.0209396
-0.00263557
0.0209223
-0.00252825
0.0210084
-0.00240567
0.0209809
-0.00227066
0.0210093
-0.00212212
0.0210164
-0.00195964
0.0210004
-0.00178813
0.0210413
-0.00160473
0.0210145
-0.00141405
0.0210408
-0.00121541
0.0210384
-0.0010094
0.0210309
-0.000798822
0.0210578
-0.000581376
0.0210416
-0.000358791
0.021055
-0.000130715
0.0210562
0.000101634
0.0210457
0.000337699
0.021063
0.000580107
0.0210522
0.000827372
0.0210485
0.00107876
0.0210529
0.00133433
0.021047
0.00159324
0.0210457
0.00185476
0.0210456
0.00211796
0.021045
0.00238176
0.0210463
0.00264539
0.0210453
0.00290705
0.0210515
0.00316561
0.0210574
0.00342044
0.0210568
0.00366906
0.0210722
0.00391114
0.0210775
0.0041456
0.0210828
0.00436994
0.0211078
0.00458578
0.0210999
0.00479018
0.0211209
0.00498259
0.0211404
0.00516471
0.0211292
0.00533275
0.0211645
0.0054899
0.0211505
0.00563381
0.0211661
0.00576412
0.0211842
0.00588398
0.0211561
0.00598886
0.0211937
0.00608442
0.0211513
0.00616706
0.021167
0.00623902
0.0211586
0.00630305
0.0211232
0.0211559
0.00635543
-0.00304153
0.0208715
-0.00297297
0.0208537
-0.00289518
0.0209306
-0.0027913
0.020877
-0.00266328
0.0208813
-0.00251295
0.020866
-0.00234353
0.020831
-0.00216238
0.0208602
-0.00196915
0.0208213
-0.00176918
0.0208408
-0.00156251
0.0208318
-0.00134987
0.0208183
-0.00113364
0.0208416