/*--------------------------------*- C++ -*----------------------------------*\
| =========                 |                                                 |
| \\      /  F ield         | OpenFOAM: The Open Source CFD Toolbox           |
|  \\    /   O peration     | Version:  2312                                  |
|   \\  /    A nd           | Website:  www.openfoam.com                      |
|    \\/     M anipulation  |                                                 |
\*---------------------------------------------------------------------------*/
FoamFile
{
    version     2.0;
    format      ascii;
    arch        "LSB;label=32;scalar=64";
    class       volScalarField;
    location    "62.918253565325692";
    object      p;
}
// * * * * * * * * * * * * * * * * * * * * * * * * * * * * * * * * * * * * * //

dimensions      [0 2 -2 0 0 0 0];

internalField   nonuniform List<scalar> 
21039
(
0.611779
0.477933
0.435751
0.407463
0.386096
0.36996
0.357453
0.347474
0.339338
0.332595
0.326928
0.322106
0.317959
0.314353
0.311187
0.308377
0.305856
0.303568
0.301465
0.299506
0.297657
0.295888
0.29417
0.29258
0.291196
0.289978
0.28888
0.287866
0.286917
0.464671
0.426817
0.412971
0.394559
0.37775
0.364407
0.353588
0.344658
0.337223
0.330972
0.325662
0.321107
0.317164
0.31372
0.310682
0.307978
0.305545
0.303332
0.301292
0.299388
0.297585
0.295854
0.294167
0.292597
0.291221
0.290003
0.288905
0.28789
0.286939
0.375276
0.372892
0.375033
0.368249
0.359764
0.351913
0.34459
0.337978
0.33215
0.327044
0.322574
0.318651
0.315196
0.312137
0.309411
0.306963
0.304745
0.302714
0.300832
0.299066
0.297384
0.295758
0.294163
0.292665
0.291339
0.290157
0.289086
0.288093
0.287161
0.337227
0.33934
0.343796
0.342684
0.340028
0.336755
0.332884
0.328885
0.325024
0.321401
0.318063
0.315019
0.312259
0.309759
0.307491
0.305425
0.303532
0.301781
0.300145
0.298597
0.29711
0.29566
0.294223
0.292858
0.291634
0.290532
0.289523
0.288577
0.287681
0.312259
0.316222
0.322105
0.323797
0.323969
0.323194
0.321598
0.319594
0.317403
0.315149
0.312929
0.3108
0.308794
0.306922
0.305184
0.303572
0.302072
0.300668
0.299342
0.298072
0.29684
0.295623
0.294403
0.293223
0.292145
0.291157
0.290236
0.289357
0.28851
0.292687
0.297934
0.305282
0.30914
0.311125
0.311895
0.311774
0.31114
0.310178
0.30901
0.307738
0.306433
0.30514
0.303888
0.302693
0.30156
0.300488
0.29947
0.298495
0.297551
0.29662
0.295686
0.294731
0.293783
0.292888
0.292043
0.291234
0.290442
0.289658
0.280005
0.285017
0.292108
0.297047
0.300254
0.302168
0.303147
0.303536
0.303512
0.303204
0.302717
0.302123
0.301472
0.3008
0.300132
0.29948
0.29885
0.298242
0.297651
0.297068
0.29648
0.295872
0.295229
0.294556
0.293883
0.293214
0.292543
0.291858
0.291154
0.272811
0.276899
0.282634
0.287576
0.291272
0.293837
0.295553
0.296687
0.297387
0.297771
0.297937
0.297955
0.297876
0.29774
0.297572
0.297392
0.297208
0.297025
0.29684
0.296648
0.296439
0.2962
0.295915
0.295564
0.295153
0.294693
0.294189
0.293634
0.293029
0.268403
0.271591
0.27595
0.280432
0.284122
0.286912
0.289012
0.290617
0.291831
0.292747
0.293443
0.293979
0.294404
0.294755
0.295059
0.295335
0.295594
0.295842
0.296081
0.296306
0.296508
0.296678
0.296798
0.296817
0.296713
0.296502
0.296194
0.29579
0.295301
0.265119
0.267561
0.270876
0.274823
0.278322
0.281129
0.2834
0.285276
0.286832
0.288137
0.289249
0.290216
0.291078
0.291868
0.29261
0.293322
0.294016
0.2947
0.295375
0.296038
0.296683
0.297299
0.297872
0.298314
0.298566
0.298646
0.298574
0.298352
0.297992
0.262253
0.264098
0.266664
0.270097
0.273355
0.276111
0.278457
0.280495
0.282284
0.283877
0.285316
0.286639
0.287879
0.289062
0.29021
0.291338
0.292459
0.293578
0.294699
0.295819
0.296934
0.298033
0.299106
0.300026
0.300687
0.301106
0.301309
0.301304
0.301105
0.259487
0.260889
0.262928
0.265894
0.2689
0.271574
0.273946
0.276086
0.278043
0.279857
0.281561
0.283185
0.284755
0.286294
0.287819
0.289345
0.290882
0.292437
0.294011
0.295605
0.297212
0.298827
0.300443
0.301892
0.303015
0.303824
0.30435
0.304602
0.304595
0.256658
0.257752
0.259427
0.261992
0.264756
0.267332
0.269698
0.2719
0.273979
0.275967
0.277891
0.279773
0.281636
0.283498
0.285376
0.287283
0.289228
0.291217
0.293251
0.295328
0.297446
0.299598
0.301786
0.303803
0.305433
0.306683
0.307579
0.30813
0.30835
0.253693
0.254575
0.255992
0.258226
0.260767
0.26324
0.265581
0.267818
0.269986
0.272111
0.274217
0.276321
0.278445
0.280603
0.282813
0.285086
0.287432
0.289855
0.292353
0.294922
0.297557
0.300253
0.303017
0.305608
0.30776
0.309475
0.310776
0.311664
0.312148
0.250572
0.251307
0.252523
0.254467
0.256798
0.259164
0.26147
0.263723
0.265955
0.268188
0.270443
0.272738
0.275091
0.277519
0.28004
0.282667
0.285408
0.288265
0.291233
0.294303
0.297461
0.300694
0.304005
0.307114
0.309729
0.311869
0.313563
0.314803
0.315582
0.247561
0.248191
0.249251
0.250981
0.253143
0.255411
0.257676
0.259934
0.26221
0.264524
0.266895
0.269343
0.271887
0.274547
0.277345
0.280295
0.283406
0.286678
0.290103
0.293663
0.297325
0.301046
0.304793
0.308213
0.311005
0.313261
0.315085
0.316505
0.317513
0.244985
0.245547
0.246514
0.248111
0.250149
0.25233
0.254559
0.256824
0.259138
0.261518
0.263982
0.266554
0.269256
0.272114
0.275152
0.278388
0.281834
0.285491
0.28935
0.293382
0.297531
0.301709
0.305805
0.309304
0.311844
0.313588
0.314801
0.315744
0.31664
0.242834
0.243353
0.244256
0.245758
0.247701
0.249827
0.25205
0.254342
0.2567
0.259141
0.26169
0.264372
0.267218
0.270256
0.273516
0.277018
0.280782
0.284815
0.289107
0.293625
0.2983
0.302996
0.307506
0.311065
0.313061
0.313524
0.312723
0.311171
0.309971
0.241088
0.24166
0.242588
0.243999
0.24578
0.247803
0.250021
0.252359
0.254778
0.257289
0.259924
0.262718
0.265706
0.268921
0.272396
0.276161
0.280241
0.284651
0.28939
0.29443
0.299701
0.305052
0.310216
0.314186
0.31592
0.31492
0.31085
0.303135
0.291487
0.286001
0.285078
0.284158
0.283242
0.282328
0.281415
0.280501
0.279587
0.278672
0.277754
0.276833
0.275908
0.274979
0.274044
0.273104
0.272157
0.271204
0.270244
0.269276
0.268301
0.267318
0.266327
0.265329
0.264322
0.263309
0.262288
0.261261
0.260228
0.259188
0.258144
0.257095
0.256042
0.254985
0.253926
0.252865
0.251804
0.250742
0.249682
0.248624
0.247569
0.246519
0.245474
0.244435
0.243404
0.242381
0.241367
0.240364
0.239371
0.23839
0.286025
0.285111
0.284202
0.283295
0.282391
0.281487
0.280583
0.279678
0.278771
0.277861
0.276948
0.27603
0.275108
0.27418
0.273245
0.272303
0.271354
0.270397
0.269431
0.268457
0.267475
0.266484
0.265484
0.264476
0.263459
0.262434
0.261402
0.260363
0.259317
0.258265
0.257208
0.256146
0.255081
0.254012
0.252941
0.251869
0.250796
0.249725
0.248655
0.247588
0.246525
0.245467
0.244415
0.24337
0.242334
0.241308
0.240291
0.239287
0.238293
0.286268
0.285377
0.28449
0.283605
0.282721
0.281837
0.280951
0.280064
0.279173
0.278277
0.277377
0.276471
0.275557
0.274636
0.273707
0.272769
0.271821
0.270864
0.269896
0.268917
0.267928
0.266929
0.265919
0.264899
0.263868
0.262828
0.261778
0.26072
0.259654
0.25858
0.2575
0.256413
0.255322
0.254226
0.253127
0.252026
0.250924
0.249822
0.248722
0.247623
0.246528
0.245437
0.244352
0.243274
0.242204
0.241144
0.240093
0.239054
0.238028
0.286823
0.285967
0.285113
0.284258
0.283402
0.282544
0.281682
0.280816
0.279944
0.279065
0.278178
0.277283
0.276378
0.275462
0.274535
0.273596
0.272645
0.271681
0.270704
0.269714
0.26871
0.267692
0.266662
0.265618
0.264562
0.263494
0.262414
0.261323
0.260222
0.259111
0.257992
0.256865
0.255731
0.254591
0.253447
0.2523
0.25115
0.249999
0.248848
0.247698
0.246551
0.245408
0.24427
0.243137
0.242013
0.240897
0.23979
0.238695
0.237611
0.287698
0.286889
0.286077
0.28526
0.28444
0.283614
0.282781
0.28194
0.281089
0.280228
0.279356
0.278471
0.277572
0.276659
0.275731
0.274787
0.273827
0.27285
0.271856
0.270846
0.269818
0.268773
0.267712
0.266634
0.26554
0.264432
0.263308
0.262171
0.261021
0.259858
0.258685
0.257502
0.25631
0.25511
0.253904
0.252693
0.251478
0.25026
0.249041
0.247822
0.246604
0.245389
0.244179
0.242973
0.241774
0.240583
0.239401
0.238229
0.237069
0.288904
0.288153
0.287392
0.286624
0.285847
0.285059
0.28426
0.283449
0.282623
0.281782
0.280924
0.280049
0.279156
0.278243
0.27731
0.276357
0.275382
0.274386
0.273368
0.272329
0.271267
0.270185
0.269082
0.267958
0.266815
0.265652
0.264471
0.263273
0.262059
0.26083
0.259586
0.25833
0.257063
0.255786
0.2545
0.253207
0.251908
0.250605
0.249299
0.247992
0.246685
0.24538
0.244077
0.242779
0.241487
0.240201
0.238924
0.237656
0.2364
0.290471
0.289789
0.28909
0.288378
0.287652
0.28691
0.286152
0.285374
0.284576
0.283757
0.282915
0.28205
0.281159
0.280244
0.279302
0.278334
0.277338
0.276315
0.275265
0.274188
0.273083
0.271952
0.270795
0.269612
0.268405
0.267175
0.265921
0.264647
0.263353
0.262039
0.260709
0.259362
0.258002
0.256628
0.255243
0.253849
0.252447
0.251039
0.249627
0.248211
0.246795
0.245378
0.243964
0.242553
0.241147
0.239747
0.238354
0.236972
0.235601
0.292435
0.291833
0.291206
0.29056
0.289894
0.289204
0.28849
0.28775
0.286983
0.286187
0.285361
0.284504
0.283615
0.282693
0.281738
0.280749
0.279726
0.278669
0.277577
0.276452
0.275293
0.274101
0.272877
0.271622
0.270337
0.269023
0.267682
0.266314
0.264922
0.263507
0.26207
0.260614
0.25914
0.25765
0.256146
0.25463
0.253104
0.251569
0.250028
0.248482
0.246934
0.245385
0.243837
0.242291
0.24075
0.239214
0.237686
0.236167
0.234662
0.294819
0.294302
0.293754
0.293202
0.292606
0.291969
0.291303
0.290604
0.289871
0.2891
0.288291
0.287442
0.286552
0.285621
0.284649
0.283633
0.282576
0.281476
0.280334
0.279151
0.277926
0.276662
0.275359
0.274017
0.27264
0.271226
0.26978
0.268302
0.266793
0.265257
0.263694
0.262107
0.260498
0.258869
0.257223
0.255562
0.253887
0.252202
0.250508
0.248808
0.247104
0.245397
0.243691
0.241986
0.240286
0.238591
0.236902
0.235225
0.233564
0.297622
0.297236
0.296813
0.296352
0.295841
0.295154
0.294575
0.293944
0.293255
0.292514
0.291725
0.290886
0.289996
0.289055
0.288061
0.287016
0.285918
0.28477
0.28357
0.28232
0.281021
0.279673
0.278277
0.276837
0.275351
0.273823
0.272254
0.270647
0.269002
0.267323
0.265613
0.263872
0.262104
0.260311
0.258497
0.256663
0.254813
0.252949
0.251073
0.24919
0.247301
0.245407
0.243514
0.241622
0.239734
0.237851
0.235976
0.234114
0.232272
0.300868
0.300588
0.300249
0.299863
0.299434
0.298958
0.298428
0.297832
0.297163
0.296453
0.295691
0.294864
0.293972
0.29302
0.292005
0.290928
0.289789
0.288589
0.287328
0.286006
0.284625
0.283185
0.281688
0.280136
0.278531
0.276872
0.275165
0.273409
0.271608
0.269764
0.267881
0.265959
0.264004
0.262017
0.260003
0.257965
0.255904
0.253827
0.251735
0.249631
0.247521
0.245405
0.243288
0.241172
0.239061
0.236957
0.234861
0.232782
0.230728
0.30452
0.304378
0.304161
0.303885
0.303548
0.303148
0.302683
0.302153
0.301561
0.300902
0.300169
0.299359
0.29848
0.297529
0.296504
0.295406
0.294233
0.292988
0.291671
0.290279
0.288817
0.287286
0.285683
0.284013
0.282278
0.280476
0.278613
0.276691
0.27471
0.272677
0.270591
0.268457
0.266281
0.264062
0.261808
0.259522
0.257207
0.25487
0.252513
0.250141
0.247761
0.245372
0.242984
0.240596
0.238215
0.235844
0.233483
0.231144
0.228838
0.308465
0.308479
0.308405
0.308261
0.308043
0.307751
0.307382
0.306936
0.306414
0.305813
0.305133
0.304372
0.303529
0.302603
0.301598
0.300503
0.299323
0.298056
0.296702
0.295258
0.293729
0.292113
0.290409
0.288623
0.286753
0.2848
0.282769
0.280661
0.278476
0.276221
0.273899
0.271512
0.269068
0.266566
0.264017
0.261426
0.258793
0.256131
0.253442
0.250734
0.248014
0.245284
0.242554
0.239827
0.237111
0.234409
0.231722
0.229066
0.226455
0.312483
0.312671
0.312765
0.312782
0.31272
0.312578
0.312353
0.312044
0.311651
0.311168
0.310598
0.309936
0.309181
0.30833
0.307378
0.306339
0.305207
0.303963
0.302613
0.301151
0.299584
0.297909
0.296122
0.29423
0.29223
0.290121
0.287909
0.285594
0.283175
0.280662
0.278055
0.275358
0.272581
0.269724
0.2668
0.263815
0.260772
0.257688
0.254565
0.251415
0.248249
0.245071
0.241897
0.23873
0.235581
0.232455
0.229357
0.226304
0.223317
0.316169
0.31655
0.316843
0.317076
0.31724
0.317336
0.317356
0.317293
0.317143
0.316892
0.316541
0.316078
0.315505
0.314819
0.314012
0.313077
0.312006
0.310997
0.309695
0.308261
0.306703
0.305011
0.303175
0.301203
0.299088
0.296826
0.294425
0.291881
0.289192
0.28637
0.283414
0.280329
0.277128
0.27381
0.270394
0.266889
0.263298
0.259645
0.255936
0.252188
0.248416
0.244629
0.240851
0.237087
0.233357
0.229672
0.226036
0.222474
0.219012
0.318326
0.31886
0.319399
0.319981
0.32057
0.32114
0.321647
0.322063
0.322366
0.322533
0.322563
0.322441
0.322176
0.321769
0.321215
0.320522
0.319663
0.318656
0.317587
0.316296
0.314835
0.313205
0.311391
0.309397
0.307213
0.304828
0.30225
0.299472
0.296487
0.293312
0.289942
0.286385
0.282659
0.278762
0.274721
0.270548
0.26625
0.261859
0.257384
0.25285
0.248277
0.243682
0.239099
0.234541
0.230042
0.225624
0.221303
0.217117
0.213099
0.317621
0.318216
0.319183
0.320513
0.321997
0.323482
0.324838
0.326001
0.326942
0.327643
0.328127
0.328392
0.328466
0.328362
0.328083
0.32765
0.327046
0.326272
0.325328
0.324329
0.323034
0.321541
0.319827
0.317892
0.315713
0.313268
0.310564
0.307585
0.304321
0.300789
0.296984
0.292917
0.28861
0.284068
0.279324
0.274398
0.269302
0.264079
0.258737
0.253312
0.247827
0.242299
0.236771
0.231261
0.225818
0.220484
0.215306
0.210359
0.205713
0.309522
0.310531
0.313662
0.317613
0.321419
0.32472
0.327405
0.329512
0.331125
0.332315
0.333173
0.333741
0.334081
0.334227
0.334193
0.334013
0.333674
0.333193
0.332548
0.331705
0.330729
0.329487
0.327989
0.326227
0.324158
0.321743
0.318983
0.31585
0.312324
0.308429
0.304159
0.299529
0.294574
0.289304
0.28377
0.278
0.272019
0.265882
0.259604
0.253227
0.246775
0.240258
0.233713
0.227138
0.220573
0.214054
0.207664
0.201598
0.196135
0.28259
0.293194
0.305394
0.315296
0.322549
0.327688
0.331287
0.333836
0.335665
0.336976
0.337922
0.33857
0.339007
0.339272
0.33939
0.339403
0.339296
0.339093
0.338776
0.338268
0.337597
0.3367
0.335512
0.334019
0.332167
0.329891
0.327168
0.323954
0.320219
0.315989
0.311264
0.306065
0.300447
0.294429
0.288083
0.281457
0.274587
0.26755
0.260372
0.253107
0.245781
0.238401
0.230983
0.223479
0.215855
0.208024
0.199905
0.191565
0.183614
0.237431
0.236435
0.235352
0.234166
0.232859
0.231419
0.229876
0.228409
0.227156
0.226145
0.22541
0.22499
0.224918
0.225248
0.226028
0.227322
0.229209
0.231786
0.23518
0.239556
0.24514
0.252242
0.26131
0.273019
0.288469
0.309262
0.337091
0.378847
0.512367
0.237318
0.236306
0.235202
0.233991
0.232651
0.231172
0.229583
0.228066
0.226761
0.225697
0.224906
0.224422
0.224284
0.224532
0.225212
0.226386
0.22812
0.230502
0.233639
0.237668
0.242769
0.249179
0.257203
0.267232
0.27989
0.296117
0.31406
0.327476
0.365029
0.237018
0.235967
0.234817
0.233548
0.232138
0.230573
0.22888
0.227249
0.225823
0.224632
0.223705
0.223071
0.222761
0.222808
0.223251
0.224133
0.225503
0.227418
0.229944
0.233155
0.23713
0.241952
0.247674
0.254218
0.261392
0.26929
0.275581
0.272975
0.275071
0.236543
0.235427
0.2342
0.23284
0.23132
0.229622
0.22777
0.225961
0.224351
0.222965
0.221828
0.220965
0.220395
0.220142
0.220232
0.220688
0.221533
0.222788
0.224469
0.22658
0.229103
0.231984
0.235116
0.238225
0.240834
0.242905
0.243503
0.238576
0.23621
0.23592
0.234715
0.233383
0.2319
0.230233
0.228358
0.226296
0.224257
0.22241
0.220779
0.219381
0.218234
0.21735
0.216743
0.216422
0.216394
0.216657
0.217205
0.218017
0.219053
0.220248
0.221497
0.222666
0.223526
0.223657
0.222914
0.220712
0.214388
0.21022
0.235152
0.233836
0.232374
0.230737
0.228887
0.226796
0.224478
0.222163
0.220038
0.218122
0.216428
0.214966
0.213743
0.212762
0.21202
0.211509
0.211215
0.211112
0.211161
0.211307
0.21147
0.21154
0.211383
0.210808
0.209428
0.206898
0.202555
0.194806
0.189396
0.234232
0.232781
0.231162
0.229341
0.227274
0.224926
0.222309
0.219676
0.217237
0.215007
0.212994
0.211203
0.209634
0.208281
0.207134
0.206176
0.205382
0.204717
0.204133
0.20357
0.202944
0.202141
0.201021
0.199399
0.196921
0.19321
0.187823
0.180378
0.175245
0.23315
0.231539
0.229735
0.227696
0.225374
0.222728
0.219769
0.216781
0.213999
0.211432
0.209088
0.206964
0.205055
0.20335
0.20183
0.200473
0.199246
0.19811
0.197014
0.195892
0.194663
0.19322
0.191431
0.189142
0.186073
0.181928
0.17659
0.17056
0.16639
0.231884
0.230086
0.228065
0.225774
0.223157
0.220171
0.216828
0.21345
0.2103
0.207385
0.204706
0.202257
0.200027
0.197999
0.19615
0.19445
0.192865
0.191353
0.18986
0.188326
0.186677
0.184822
0.182658
0.18007
0.176855
0.172787
0.167973
0.163385
0.160149
0.230397
0.228381
0.226108
0.223525
0.220571
0.2172
0.213432
0.209633
0.206097
0.202829
0.199823
0.197068
0.194546
0.192236
0.190109
0.188133
0.18627
0.184478
0.182706
0.1809
0.178996
0.176924
0.174605
0.17195
0.168812
0.165022
0.160818
0.15734
0.154881
0.228625
0.226355
0.22379
0.22087
0.217531
0.213728
0.209493
0.205246
0.201316
0.1977
0.194385
0.191354
0.188582
0.186041
0.183697
0.181516
0.179457
0.177478
0.175533
0.173572
0.171543
0.169387
0.167042
0.164436
0.161461
0.158011
0.154406
0.151742
0.149908
0.226465
0.223898
0.220992
0.217682
0.213905
0.209622
0.204882
0.20017
0.195848
0.191903
0.188314
0.185051
0.182081
0.17937
0.176877
0.174565
0.172391
0.170313
0.168286
0.166265
0.164205
0.162056
0.159768
0.15728
0.154514
0.151428
0.148383
0.146312
0.144943
0.223758
0.220838
0.217533
0.213774
0.209501
0.204689
0.199415
0.194238
0.189547
0.185314
0.181502
0.178069
0.174971
0.172163
0.1696
0.167236
0.165028
0.162933
0.160906
0.158906
0.156892
0.154823
0.152654
0.150334
0.14781
0.14509
0.142544
0.1409
0.13986
0.220224
0.216884
0.213112
0.208838
0.204016
0.198642
0.192832
0.187221
0.182217
0.177768
0.173815
0.170299
0.167162
0.164348
0.161803
0.159476
0.157319
0.155289
0.153342
0.151438
0.149539
0.147609
0.14561
0.143499
0.141237
0.138872
0.136759
0.135432
0.134621
0.215432
0.211591
0.207281
0.202434
0.19703
0.1911
0.184804
0.178847
0.173637
0.169087
0.165112
0.161631
0.158569
0.155857
0.153434
0.151241
0.149227
0.147348
0.145558
0.14382
0.142098
0.14036
0.138572
0.136697
0.134716
0.132703
0.130979
0.129901
0.129244
0.208969
0.204594
0.199746
0.194374
0.188489
0.182153
0.175562
0.169463
0.164241
0.159771
0.15594
0.152643
0.14979
0.147301
0.145105
0.143142
0.141356
0.139699
0.138131
0.136612
0.13511
0.133594
0.132037
0.130409
0.128703
0.127002
0.12559
0.124712
0.124162
0.200988
0.1961
0.190848
0.185171
0.179075
0.172623
0.166022
0.160031
0.155004
0.150786
0.147239
0.144243
0.141695
0.139506
0.137602
0.135919
0.1344
0.132998
0.131673
0.130387
0.129108
0.12781
0.126469
0.125072
0.123621
0.122186
0.121013
0.120283
0.119811
0.190882
0.185769
0.180611
0.175114
0.169204
0.162955
0.156603
0.150921
0.146241
0.142394
0.139224
0.136599
0.134408
0.132558
0.130973
0.129587
0.128347
0.127206
0.126124
0.125066
0.124001
0.1229
0.121746
0.120539
0.119303
0.1181
0.117131
0.116532
0.116123
0.177309
0.17341
0.169438
0.164702
0.159334
0.153523
0.147597
0.14236
0.138125
0.134718
0.131973
0.129751
0.127935
0.126432
0.125166
0.124074
0.123103
0.12221
0.121356
0.120509
0.119635
0.118703
0.117703
0.116672
0.115686
0.114777
0.114015
0.113468
0.113042
0.239296
0.23965
0.240399
0.241837
0.243815
0.246048
0.248399
0.250805
0.253276
0.255852
0.258578
0.261491
0.264629
0.268028
0.271724
0.275754
0.280151
0.284937
0.290117
0.295672
0.30154
0.307566
0.313446
0.318017
0.319856
0.317761
0.31019
0.294795
0.263169
0.237503
0.23798
0.238847
0.240279
0.242179
0.244342
0.246661
0.249082
0.251607
0.254271
0.257112
0.260165
0.263469
0.267065
0.270995
0.275302
0.280026
0.285201
0.290845
0.296963
0.303536
0.310475
0.317561
0.323733
0.327626
0.328524
0.325831
0.321348
0.325453
0.235665
0.236225
0.237179
0.238611
0.240447
0.242539
0.244808
0.247217
0.249773
0.252501
0.25543
0.258598
0.262042
0.265809
0.269947
0.274509
0.279548
0.285118
0.291266
0.298047
0.305541
0.313833
0.323017
0.332567
0.341519
0.350112
0.358664
0.365773
0.382303
0.233756
0.234295
0.235225
0.236645
0.23849
0.240594
0.242864
0.245275
0.247851
0.250619
0.253613
0.256867
0.260424
0.264333
0.268652
0.273442
0.278774
0.284724
0.291378
0.298854
0.307358
0.317206
0.328859
0.342443
0.357066
0.373155
0.391303
0.408114
0.429779
0.231777
0.232282
0.233163
0.234556
0.236405
0.238526
0.240807
0.243228
0.245818
0.248615
0.251653
0.254973
0.258618
0.262643
0.26711
0.272095
0.27768
0.283965
0.291074
0.299182
0.308616
0.319918
0.333723
0.350794
0.369843
0.391712
0.415686
0.440263
0.467578
0.229729
0.230218
0.231068
0.232425
0.234246
0.236352
0.238623
0.24104
0.243633
0.246442
0.249506
0.252866
0.256569
0.260674
0.26525
0.270378
0.276155
0.2827
0.290163
0.298755
0.308893
0.321338
0.336516
0.355882
0.377064
0.401877
0.430107
0.460348
0.490483
0.227609
0.228088
0.228916
0.230234
0.232008
0.234071
0.23631
0.238702
0.241278
0.244078
0.247141
0.25051
0.254234
0.258375
0.263005
0.268211
0.2741
0.280803
0.288487
0.297345
0.307855
0.321027
0.336447
0.357069
0.38045
0.405975
0.433307
0.461603
0.489988
0.22541
0.225877
0.226681
0.227954
0.22967
0.231677
0.233866
0.236214
0.23875
0.241514
0.244545
0.247887
0.25159
0.255716
0.260338
0.265547
0.27145
0.278188
0.285945
0.294784
0.305286
0.31824
0.334802
0.355158
0.377991
0.402025
0.426469
0.450963
0.475283
0.22313
0.223585
0.224361
0.225583
0.227229
0.229166
0.231288
0.233572
0.236044
0.238744
0.241711
0.244988
0.248623
0.252677
0.257224
0.262352
0.268161
0.274791
0.282511
0.290903
0.301372
0.314138
0.330248
0.349262
0.369874
0.391129
0.412265
0.433042
0.452759
0.220768
0.221212
0.221957
0.223121
0.224687
0.226538
0.228574
0.230772
0.233156
0.235764
0.238633
0.241803
0.245322
0.249247
0.253647
0.258606
0.264207
0.270555
0.277851
0.28624
0.296155
0.308142
0.322765
0.339684
0.357446
0.375297
0.392669
0.409577
0.425041
0.218322
0.218752
0.219464
0.220564
0.222041
0.223792
0.225725
0.227817
0.23009
0.232576
0.235313
0.238337
0.241691
0.245428
0.249612
0.254319
0.259595
0.2656
0.272456
0.280342
0.289445
0.30022
0.312981
0.327376
0.341996
0.356167
0.369496
0.382292
0.393706
0.215793
0.216209
0.216885
0.217917
0.219295
0.220933
0.222747
0.224712
0.226848
0.229186
0.231757
0.234595
0.237739
0.241233
0.245131
0.249501
0.25441
0.259951
0.266228
0.273329
0.281404
0.290744
0.301485
0.313155
0.324538
0.335089
0.344569
0.353454
0.36116
0.213184
0.213591
0.214234
0.215193
0.216462
0.21797
0.219643
0.221459
0.223435
0.225597
0.227971
0.230587
0.233475
0.236674
0.240231
0.244202
0.248644
0.25361
0.259171
0.265362
0.272272
0.280054
0.288688
0.297627
0.305922
0.313199
0.31937
0.324952
0.329594
0.210497
0.21089
0.211493
0.212373
0.213529
0.214899
0.216421
0.218073
0.219868
0.221829
0.223977
0.226336
0.228929
0.23179
0.234954
0.238464
0.242356
0.246662
0.251414
0.256614
0.262282
0.268458
0.275007
0.281393
0.286953
0.291487
0.295034
0.298092
0.300498
0.207738
0.208117
0.20868
0.209479
0.210514
0.211738
0.213094
0.214565
0.216161
0.2179
0.219798
0.221872
0.22414
0.226625
0.229351
0.232346
0.235629
0.239212
0.243096
0.247252
0.251644
0.256236
0.260821
0.264942
0.268211
0.270578
0.27217
0.273458
0.274447
0.204913
0.205281
0.205804
0.206519
0.207428
0.208495
0.209674
0.21095
0.212331
0.213829
0.215458
0.217225
0.219139
0.221215
0.223464
0.225902
0.228531
0.231344
0.234319
0.237399
0.240515
0.243583
0.246369
0.248532
0.249943
0.250674
0.250896
0.251054
0.251315
0.202028
0.202382
0.202861
0.20349
0.204272
0.205181
0.206175
0.207248
0.208402
0.209649
0.210993
0.212433
0.213972
0.215613
0.217358
0.219207
0.22115
0.223163
0.225203
0.227198
0.22906
0.230686
0.23184
0.232328
0.232258
0.231796
0.231112
0.23062
0.230641
0.199092
0.199433
0.199867
0.20041
0.201064
0.201813
0.202614
0.203477
0.204398
0.205386
0.206434
0.207535
0.208684
0.209874
0.211096
0.212339
0.213576
0.214772
0.215868
0.216783
0.217424
0.217683
0.217349
0.216391
0.21513
0.213796
0.212511
0.211656
0.211704
0.196115
0.196445
0.196838
0.197296
0.197821
0.19841
0.199005
0.199655
0.200344
0.201066
0.201811
0.202567
0.203318
0.204048
0.204739
0.205364
0.205888
0.20626
0.206411
0.206256
0.2057
0.204647
0.202921
0.200663
0.198389
0.196369
0.194645
0.193559
0.193739
0.193105
0.193424
0.19377
0.194143
0.194542
0.194988
0.195352
0.195817
0.196269
0.196724
0.197166
0.197574
0.197927
0.198197
0.198356
0.198366
0.198178
0.197731
0.196945
0.195729
0.193992
0.191653
0.188575
0.185079
0.181869
0.179243
0.177142
0.175864
0.176187
0.190074
0.190382
0.190683
0.190972
0.191245
0.191504
0.191748
0.191984
0.192197
0.19239
0.192535
0.192603
0.192564
0.192383
0.192021
0.191427
0.190543
0.189293
0.187588
0.18533
0.182425
0.178801
0.174361
0.169602
0.165433
0.162183
0.159675
0.158168
0.158594
0.187033
0.187332
0.187589
0.187797
0.187949
0.188059
0.188135
0.188164
0.188154
0.188095
0.187952
0.187692
0.187275
0.186659
0.185794
0.184621
0.183066
0.181042
0.178446
0.175168
0.171104
0.166179
0.160316
0.154182
0.148921
0.144922
0.141893
0.140066
0.140545
0.183993
0.184289
0.184504
0.184632
0.184682
0.184648
0.184543
0.18438
0.184161
0.183863
0.183449
0.182877
0.182102
0.181074
0.179734
0.178011
0.175821
0.173063
0.169618
0.165356
0.160151
0.153903
0.146524
0.13882
0.132209
0.127204
0.123422
0.121119
0.121608
0.180964
0.181256
0.181415
0.181499
0.181439
0.181261
0.180993
0.180657
0.180245
0.179727
0.17906
0.178198
0.177091
0.17568
0.173899
0.171667
0.16889
0.165449
0.16121
0.156018
0.149713
0.142142
0.133163
0.12366
0.115344
0.108923
0.103985
0.100936
0.101377
0.177956
0.178237
0.178386
0.178405
0.178234
0.17792
0.177507
0.177013
0.176427
0.17571
0.174814
0.17369
0.172281
0.170523
0.168343
0.165653
0.162346
0.158292
0.153336
0.147297
0.139972
0.131137
0.120541
0.109054
0.0986341
0.0902225
0.083453
0.0791605
0.0794947
0.174982
0.175249
0.175371
0.175317
0.175049
0.174623
0.174089
0.173466
0.172733
0.171844
0.170747
0.16939
0.167713
0.165649
0.163119
0.160028
0.156258
0.15167
0.14609
0.139313
0.131091
0.121124
0.109027
0.0955621
0.0827952
0.0718256
0.062268
0.0557784
0.0558674
0.172068
0.172375
0.172521
0.172424
0.172043
0.171461
0.170775
0.17002
0.16916
0.168129
0.166865
0.165312
0.16341
0.16109
0.158268
0.154843
0.150693
0.145668
0.139581
0.132209
0.123274
0.112397
0.0990452
0.0838092
0.0687314
0.0549269
0.041711
0.0310067
0.0290418
0.144136
0.126023
0.10115
0.0696024
0.0344707
0.000199614
-0.0302549
-0.0585629
-0.084337
-0.112379
-0.140826
-0.174355
-0.208906
-0.241354
-0.267632
-0.285091
-0.293768
-0.295925
-0.295357
0.150355
0.136027
0.112101
0.0795738
0.0407923
-0.000240449
-0.0398309
-0.0801069
-0.117619
-0.159225
-0.201448
-0.244497
-0.285957
-0.322452
-0.350591
-0.369093
-0.379194
-0.383553
-0.385065
0.144147
0.130804
0.108279
0.0756051
0.0344039
-0.0117275
-0.0585002
-0.109636
-0.160716
-0.212508
-0.264478
-0.315459
-0.362636
-0.402622
-0.432808
-0.452806
-0.464395
-0.470298
-0.473155
0.132236
0.119345
0.0986712
0.0665703
0.0230978
-0.0282332
-0.0838428
-0.142376
-0.20261
-0.263753
-0.324769
-0.383647
-0.436707
-0.480271
-0.512264
-0.533174
-0.545544
-0.552389
-0.556189
0.117991
0.105798
0.0859532
0.053765
0.00851306
-0.0463428
-0.107634
-0.173033
-0.241432
-0.31156
-0.381029
-0.446553
-0.50379
-0.549248
-0.581813
-0.602994
-0.615962
-0.623709
-0.628318
0.0989783
0.0869981
0.068082
0.0365414
-0.00930412
-0.066311
-0.131507
-0.202993
-0.278735
-0.356401
-0.432474
-0.502623
-0.562301
-0.608687
-0.641734
-0.6637
-0.678033
-0.68748
-0.693692
0.075515
0.0624735
0.0437565
0.0129256
-0.0328028
-0.0910138
-0.158964
-0.234719
-0.315499
-0.397879
-0.477331
-0.548753
-0.607758
-0.652465
-0.68388
-0.704843
-0.718936
-0.728534
-0.734942
0.0489642
0.0338203
0.0140157
-0.0170723
-0.0628352
-0.121582
-0.190867
-0.268559
-0.351444
-0.435299
-0.514804
-0.584522
-0.640682
-0.682517
-0.711883
-0.731855
-0.745814
-0.75561
-0.762309
0.0203415
0.00264784
-0.0192476
-0.0517296
-0.0980807
-0.156969
-0.226264
-0.303802
-0.386094
-0.468323
-0.544672
-0.609885
-0.661148
-0.698759
-0.72514
-0.74336
-0.756497
-0.765946
-0.772459
-0.00949306
-0.0297079
-0.0541276
-0.0886914
-0.136101
-0.194969
-0.263395
-0.339304
-0.419043
-0.49742
-0.56853
-0.627743
-0.673363
-0.706582
-0.730126
-0.746886
-0.75956
-0.769192
-0.776185
-0.0395371
-0.0620084
-0.0889685
-0.125824
-0.174567
-0.233446
-0.300574
-0.373831
-0.449316
-0.521597
-0.585099
-0.636244
-0.674548
-0.701908
-0.721135
-0.734846
-0.745301
-0.753317
-0.759099
-0.0685723
-0.0928839
-0.122085
-0.160987
-0.210948
-0.269697
-0.335145
-0.404958
-0.474989
-0.539902
-0.594953
-0.637879
-0.669251
-0.691347
-0.706799
-0.717817
-0.726172
-0.732565
-0.737089
-0.0954452
-0.121116
-0.152076
-0.192466
-0.24316
-0.301368
-0.364732
-0.430658
-0.494891
-0.552498
-0.599796
-0.635731
-0.661594
-0.679749
-0.692533
-0.701783
-0.708901
-0.714561
-0.71868
-0.119302
-0.145909
-0.178155
-0.219434
-0.270283
-0.327441
-0.38823
-0.449748
-0.507721
-0.557869
-0.5977
-0.627222
-0.648178
-0.662831
-0.673175
-0.6807
-0.686489
-0.691158
-0.694528
-0.139545
-0.166767
-0.199891
-0.241532
-0.291976
-0.347541
-0.40525
-0.461961
-0.513617
-0.556824
-0.59026
-0.614722
-0.632123
-0.644473
-0.65339
-0.660029
-0.665214
-0.669475
-0.67257
-0.155929
-0.183582
-0.217303
-0.258947
-0.308592
-0.362189
-0.416556
-0.468469
-0.514301
-0.551608
-0.580026
-0.600834
-0.615909
-0.62697
-0.635301
-0.641797
-0.647101
-0.651633
-0.655047
-0.168558
-0.196624
-0.230843
-0.272381
-0.321084
-0.3725
-0.423262
-0.470208
-0.510361
-0.542293
-0.566433
-0.584304
-0.597611
-0.607738
-0.615664
-0.622053
-0.627406
-0.632009
-0.635485
-0.177612
-0.206216
-0.240993
-0.28254
-0.330397
-0.379655
-0.426816
-0.468971
-0.503974
-0.531368
-0.552159
-0.567923
-0.580105
-0.589763
-0.597599
-0.604072
-0.609573
-0.614273
-0.617812
-0.183355
-0.212741
-0.248296
-0.290201
-0.337606
-0.385079
-0.429035
-0.466953
-0.497573
-0.521277
-0.539457
-0.553635
-0.564999
-0.574329
-0.582105
-0.588637
-0.594229
-0.598988
-0.602573
-0.186089
-0.216606
-0.253325
-0.296163
-0.343695
-0.389784
-0.430749
-0.464634
-0.491186
-0.511579
-0.527458
-0.540206
-0.550733
-0.559566
-0.567007
-0.57326
-0.578571
-0.583017
-0.586318
-0.185922
-0.217999
-0.256403
-0.300941
-0.349381
-0.394688
-0.433088
-0.463339
-0.486256
-0.503722
-0.517552
-0.528967
-0.538628
-0.546852
-0.553804
-0.559605
-0.564455
-0.568434
-0.571342
-0.182903
-0.217045
-0.257779
-0.304915
-0.355122
-0.400283