/*--------------------------------*- C++ -*----------------------------------*\
| =========                 |                                                 |
| \\      /  F ield         | OpenFOAM: The Open Source CFD Toolbox           |
|  \\    /   O peration     | Version:  2312                                  |
|   \\  /    A nd           | Website:  www.openfoam.com                      |
|    \\/     M anipulation  |                                                 |
\*---------------------------------------------------------------------------*/
FoamFile
{
    version     2.0;
    format      ascii;
    arch        "LSB;label=32;scalar=64";
    class       volScalarField;
    location    "65.513476120039627";
    object      p;
}
// * * * * * * * * * * * * * * * * * * * * * * * * * * * * * * * * * * * * * //

dimensions      [0 2 -2 0 0 0 0];

internalField   nonuniform List<scalar> 
21039
(
0.594023
0.460191
0.418029
0.389791
0.368488
0.352432
0.340026
0.330167
0.322173
0.315594
0.310114
0.305504
0.301594
0.298252
0.295376
0.292885
0.290713
0.288803
0.287108
0.28559
0.284211
0.282945
0.28176
0.280693
0.279772
0.278953
0.2782
0.27748
0.276783
0.446903
0.409038
0.39522
0.37686
0.360112
0.346847
0.336127
0.327316
0.320021
0.313933
0.308809
0.304464
0.300756
0.297573
0.294825
0.292439
0.290353
0.288516
0.286885
0.28542
0.284088
0.28286
0.281707
0.280662
0.27975
0.278934
0.278181
0.277463
0.276766
0.357431
0.355041
0.357211
0.350477
0.34205
0.334274
0.327047
0.320551
0.314858
0.309912
0.305623
0.301907
0.298683
0.295882
0.293441
0.291307
0.289433
0.287777
0.286301
0.284973
0.283762
0.28264
0.281581
0.280611
0.279752
0.278975
0.278253
0.277559
0.276883
0.319268
0.321386
0.325864
0.324794
0.322189
0.318988
0.315209
0.31132
0.30759
0.30412
0.300957
0.298113
0.295578
0.29333
0.291341
0.289584
0.28803
0.28665
0.285417
0.284305
0.283289
0.282343
0.281446
0.280613
0.279861
0.279169
0.278513
0.277871
0.277235
0.294165
0.298136
0.304031
0.305751
0.305968
0.305259
0.303748
0.301847
0.299779
0.29767
0.295617
0.29368
0.29189
0.290261
0.288794
0.287483
0.286315
0.285275
0.284346
0.28351
0.282747
0.282036
0.281359
0.280717
0.280118
0.279546
0.278985
0.278417
0.277836
0.274423
0.279682
0.287033
0.290906
0.292927
0.293754
0.293708
0.293169
0.29232
0.291286
0.290171
0.289046
0.287957
0.286937
0.286001
0.285158
0.284408
0.283745
0.283162
0.282646
0.282182
0.281754
0.281346
0.280941
0.280533
0.280114
0.279673
0.279198
0.278687
0.261532
0.266558
0.273649
0.278594
0.281827
0.283788
0.284832
0.285303
0.28538
0.285193
0.284848
0.284418
0.283957
0.283501
0.283077
0.2827
0.282378
0.282114
0.281904
0.281741
0.281615
0.281512
0.281419
0.281298
0.281121
0.280887
0.280594
0.280235
0.279811
0.254096
0.2582
0.263932
0.268874
0.272587
0.275188
0.276956
0.278158
0.278944
0.279433
0.279723
0.279886
0.279977
0.280037
0.280094
0.280169
0.280275
0.280417
0.280599
0.280815
0.28106
0.281322
0.28159
0.281798
0.281895
0.281883
0.281768
0.28155
0.281232
0.249419
0.252622
0.256979
0.261458
0.265157
0.26797
0.270109
0.271766
0.273048
0.274048
0.274846
0.275505
0.276075
0.276596
0.277098
0.277603
0.278127
0.278679
0.279262
0.279878
0.280521
0.281183
0.281858
0.282442
0.282856
0.283105
0.283203
0.283154
0.282965
0.245848
0.2483
0.251614
0.255558
0.259058
0.261878
0.264172
0.266082
0.267685
0.269049
0.270237
0.271297
0.272273
0.273201
0.274108
0.275017
0.275944
0.276899
0.27789
0.278918
0.279981
0.281069
0.282207
0.28321
0.283984
0.284533
0.284878
0.285045
0.285013
0.242686
0.244535
0.2471
0.250529
0.253785
0.256541
0.258893
0.260944
0.262755
0.264378
0.265861
0.267243
0.268559
0.269841
0.271113
0.272396
0.273707
0.275057
0.276455
0.277904
0.279408
0.280962
0.282563
0.28404
0.285227
0.286125
0.286755
0.287134
0.287285
0.239627
0.241026
0.243061
0.246023
0.249021
0.251684
0.254044
0.256173
0.258122
0.259934
0.261644
0.263285
0.264887
0.266475
0.268074
0.269702
0.271375
0.273106
0.274905
0.276778
0.278729
0.280761
0.282871
0.28486
0.286502
0.287791
0.288749
0.289385
0.289723
0.236521
0.237605
0.239271
0.241829
0.244578
0.24713
0.249463
0.251628
0.253667
0.255614
0.2575
0.25935
0.26119
0.263044
0.264933
0.266876
0.268888
0.270984
0.273173
0.275464
0.277863
0.280376
0.283013
0.28554
0.287675
0.289401
0.290734
0.29168
0.292257
0.233309
0.234174
0.235573
0.237793
0.240312
0.242745
0.245031
0.2472
0.249291
0.251333
0.25335
0.255365
0.257403
0.259484
0.261629
0.263857
0.266184
0.268625
0.27119
0.273886
0.276719
0.279699
0.282847
0.2859
0.288531
0.29071
0.292448
0.293737
0.294588
0.229983
0.230692
0.231881
0.233802
0.236099
0.238408
0.240633
0.242786
0.2449
0.247
0.24911
0.251251
0.253445
0.255714
0.25808
0.260563
0.263181
0.265948
0.268871
0.271955
0.275201
0.278613
0.282212
0.28571
0.288756
0.291333
0.293451
0.295089
0.29624
0.226832
0.227429
0.228451
0.230147
0.232262
0.234455
0.236614
0.23874
0.240856
0.242988
0.245156
0.247382
0.24969
0.252104
0.254648
0.257347
0.260221
0.26328
0.26653
0.269969
0.273583
0.27735
0.281262
0.284968
0.288119
0.290767
0.292987
0.294792
0.296164
0.22418
0.224703
0.225621
0.227173
0.229152
0.231243
0.233344
0.235447
0.237565
0.239718
0.241926
0.244214
0.246609
0.249137
0.25183
0.254714
0.25781
0.261132
0.264684
0.268456
0.272413
0.276493
0.280612
0.284279
0.28709
0.289166
0.290737
0.29204
0.293284
0.221996
0.222471
0.223316
0.224763
0.226636
0.228658
0.230735
0.232839
0.23497
0.237146
0.239392
0.241737
0.24421
0.246845
0.249675
0.252732
0.256041
0.259621
0.263479
0.2676
0.271937
0.276386
0.28077
0.284367
0.286538
0.287267
0.286781
0.28556
0.284692
0.220247
0.220771
0.221633
0.222978
0.22468
0.226588
0.228643
0.230772
0.232937
0.235149
0.237442
0.239851
0.242409
0.245156
0.248128
0.251362
0.25489
0.25874
0.262925
0.267436
0.272228
0.277183
0.28207
0.285938
0.287744
0.286945
0.283161
0.275776
0.264419
0.276099
0.275412
0.274732
0.274058
0.273388
0.272722
0.272058
0.271396
0.270734
0.270072
0.26941
0.268745
0.268077
0.267406
0.266731
0.266051
0.265366
0.264675
0.263977
0.263273
0.262562
0.261843
0.261118
0.260385
0.259645
0.258898
0.258144
0.257384
0.256617
0.255845
0.255067
0.254284
0.253497
0.252706
0.251912
0.251117
0.25032
0.249522
0.248725
0.247929
0.247136
0.246345
0.245559
0.244778
0.244003
0.243235
0.242475
0.241722
0.240979
0.276086
0.275409
0.274739
0.274076
0.273417
0.272761
0.272107
0.271455
0.270803
0.270151
0.269498
0.268842
0.268183
0.267519
0.266852
0.266178
0.265498
0.264812
0.264119
0.263418
0.262709
0.261992
0.261267
0.260534
0.259793
0.259044
0.258287
0.257523
0.256751
0.255973
0.25519
0.2544
0.253606
0.252807
0.252005
0.251201
0.250394
0.249587
0.24878
0.247973
0.247169
0.246367
0.245569
0.244777
0.243989
0.243209
0.242437
0.241673
0.240919
0.276227
0.275575
0.274931
0.274292
0.273656
0.273023
0.272391
0.27176
0.271128
0.270494
0.269857
0.269216
0.26857
0.267919
0.267261
0.266595
0.265922
0.26524
0.264549
0.263848
0.263138
0.262417
0.261687
0.260947
0.260197
0.259437
0.258668
0.25789
0.257103
0.256308
0.255506
0.254697
0.253881
0.253061
0.252236
0.251407
0.250576
0.249743
0.248909
0.248075
0.247242
0.246412
0.245585
0.244762
0.243945
0.243134
0.242331
0.241536
0.24075
0.276617
0.276006
0.275399
0.274794
0.274192
0.27359
0.272988
0.272384
0.271776
0.271165
0.270548
0.269925
0.269294
0.268654
0.268005
0.267346
0.266677
0.265996
0.265302
0.264597
0.263879
0.263149
0.262406
0.26165
0.260882
0.260102
0.259311
0.258508
0.257694
0.25687
0.256037
0.255195
0.254345
0.253488
0.252625
0.251757
0.250885
0.25001
0.249132
0.248254
0.247376
0.246499
0.245625
0.244754
0.243888
0.243027
0.242173
0.241326
0.240489
0.277269
0.27671
0.276151
0.275592
0.275032
0.274469
0.273903
0.273332
0.272754
0.272169
0.271574
0.27097
0.270355
0.269727
0.269087
0.268433
0.267764
0.26708
0.26638
0.265665
0.264934
0.264187
0.263424
0.262644
0.26185
0.26104
0.260215
0.259377
0.258524
0.25766
0.256783
0.255895
0.254997
0.254091
0.253176
0.252254
0.251326
0.250393
0.249457
0.248519
0.247579
0.24664
0.245701
0.244765
0.243832
0.242904
0.241981
0.241065
0.240157
0.278185
0.277692
0.277193
0.27669
0.276182
0.275667
0.275145
0.274613
0.274071
0.273516
0.272948
0.272365
0.271767
0.271152
0.270519
0.269867
0.269197
0.268506
0.267796
0.267066
0.266315
0.265543
0.264752
0.263941
0.26311
0.26226
0.261392
0.260507
0.259604
0.258686
0.257753
0.256806
0.255847
0.254875
0.253894
0.252903
0.251904
0.250899
0.249888
0.248873
0.247855
0.246836
0.245817
0.244798
0.243782
0.242769
0.24176
0.240757
0.239763
0.279389
0.278975
0.278548
0.278112
0.277666
0.277209
0.276738
0.276253
0.275751
0.275232
0.274693
0.274135
0.273554
0.272951
0.272325
0.271675
0.271
0.270299
0.269573
0.268822
0.268044
0.267241
0.266414
0.265561
0.264684
0.263784
0.262862
0.261917
0.260952
0.259967
0.258964
0.257944
0.256908
0.255857
0.254793
0.253717
0.252631
0.251536
0.250433
0.249325
0.248212
0.247095
0.245978
0.244859
0.243742
0.242626
0.241514
0.240407
0.239309
0.280906
0.280584
0.280241
0.279883
0.27951
0.279119
0.278709
0.278277
0.277822
0.277343
0.276837
0.276305
0.275744
0.275154
0.274533
0.273882
0.273199
0.272484
0.271737
0.270959
0.270148
0.269306
0.268433
0.26753
0.266597
0.265636
0.264646
0.263631
0.262589
0.261524
0.260436
0.259327
0.258199
0.257052
0.255889
0.254711
0.25352
0.252317
0.251105
0.249884
0.248657
0.247425
0.24619
0.244952
0.243715
0.242478
0.241244
0.240014
0.238794
0.28275
0.282531
0.282286
0.282019
0.28173
0.281415
0.281074
0.280703
0.280301
0.279867
0.279399
0.278896
0.278357
0.27778
0.277165
0.276511
0.275818
0.275086
0.274314
0.273503
0.272653
0.271765
0.270839
0.269876
0.268877
0.267843
0.266775
0.265675
0.264544
0.263384
0.262196
0.260982
0.259745
0.258484
0.257203
0.255905
0.254589
0.253259
0.251916
0.250563
0.249201
0.247832
0.246458
0.245081
0.243702
0.242324
0.240946
0.239574
0.238212
0.284916
0.284811
0.284674
0.284513
0.284322
0.284096
0.283835
0.283535
0.283195
0.282814
0.282389
0.28192
0.281406
0.280845
0.280238
0.279583
0.27888
0.278129
0.27733
0.276484
0.275591
0.274651
0.273665
0.272635
0.271561
0.270445
0.269287
0.268091
0.266856
0.265586
0.264282
0.262946
0.26158
0.260186
0.258767
0.257325
0.255862
0.254382
0.252884
0.251374
0.249853
0.248321
0.246784
0.245242
0.243698
0.242152
0.240607
0.239069
0.237543
0.287398
0.287485
0.287354
0.287333
0.287261
0.287135
0.286967
0.286752
0.286487
0.286169
0.285798
0.285373
0.284893
0.284356
0.283763
0.283113
0.282405
0.28164
0.280818
0.279938
0.279002
0.27801
0.276962
0.275861
0.274707
0.2735
0.272244
0.270939
0.269587
0.268192
0.266754
0.265275
0.263761
0.26221
0.260627
0.259017
0.257378
0.255718
0.254037
0.252338
0.250626
0.248901
0.247169
0.24543
0.243688
0.241945
0.240202
0.238467
0.23675
0.289987
0.290218
0.290393
0.290514
0.290584
0.290476
0.290431
0.290319
0.290143
0.289904
0.289604
0.28924
0.288811
0.288316
0.287754
0.287125
0.286427
0.285662
0.284829
0.283927
0.282958
0.281921
0.280816
0.279646
0.278411
0.27711
0.275749
0.274326
0.272844
0.271306
0.269715
0.268071
0.26638
0.264643
0.262865
0.261051
0.2592
0.257321
0.255414
0.253486
0.25154
0.249578
0.247607
0.245628
0.243646
0.241663
0.239682
0.237712
0.235766
0.292721
0.29311
0.293427
0.293689
0.293901
0.294055
0.294135
0.29414
0.294079
0.293951
0.293753
0.293484
0.29314
0.292721
0.292225
0.291652
0.290998
0.290264
0.289451
0.288553
0.287574
0.286513
0.285367
0.284141
0.282833
0.281441
0.279972
0.278425
0.276799
0.275101
0.273332
0.271493
0.269592
0.267628
0.26561
0.263543
0.261426
0.259272
0.257081
0.254862
0.25262
0.250358
0.248086
0.245804
0.243522
0.241241
0.238964
0.236705
0.234479
0.295289
0.295875
0.296384
0.296835
0.297223
0.297549
0.29781
0.298004
0.29813
0.298175
0.298141
0.298045
0.297855
0.297586
0.297228
0.296778
0.296229
0.295585
0.294845
0.294001
0.293058
0.292012
0.290859
0.289603
0.288242
0.286772
0.285199
0.283522
0.281738
0.279856
0.277876
0.2758
0.273637
0.271387
0.269061
0.266666
0.264202
0.261685
0.259119
0.256513
0.253878
0.251218
0.248547
0.245869
0.243194
0.240527
0.237873
0.235249
0.232673
0.297206
0.298009
0.298747
0.299444
0.300094
0.300698
0.301248
0.301737
0.30216
0.302501
0.302752
0.3029
0.302957
0.302941
0.302872
0.302638
0.302289
0.301824
0.301243
0.300532
0.299697
0.298733
0.29763
0.296393
0.295017
0.293493
0.291829
0.29002
0.288063
0.285967
0.283732
0.281359
0.278862
0.276238
0.273503
0.270668
0.267734
0.264723
0.26164
0.258502
0.255324
0.252113
0.248893
0.245669
0.242459
0.239275
0.23612
0.233021
0.230001
0.297365
0.298342
0.299352
0.300432
0.301545
0.302667
0.303753
0.304775
0.305709
0.306532
0.307243
0.307825
0.308277
0.308595
0.30878
0.308874
0.308894
0.308715
0.308393
0.307913
0.307284
0.306494
0.305526
0.304384
0.303055
0.301524
0.2998
0.297873
0.295735
0.293398
0.290858
0.288121
0.285201
0.282099
0.278836
0.275424
0.271871
0.268205
0.264435
0.260584
0.256674
0.252718
0.248751
0.244785
0.240855
0.23698
0.233179
0.229488
0.225941
0.294649
0.295701
0.29716
0.299011
0.301051
0.303124
0.305102
0.30692
0.30855
0.309973
0.311209
0.312258
0.313143
0.313875
0.31445
0.314873
0.31513
0.315357
0.315367
0.315208
0.314881
0.314364
0.313627
0.312672
0.311474
0.310011
0.308286
0.306283
0.303986
0.301411
0.298553
0.295418
0.292027
0.288383
0.284518
0.280449
0.276187
0.271772
0.267214
0.262545
0.257788
0.252959
0.248101
0.24323
0.238396
0.233641
0.229011
0.224587
0.220431
0.284629
0.286124
0.289759
0.294241
0.298617
0.302532
0.305874
0.30868
0.311033
0.313002
0.314679
0.316102
0.317333
0.318406
0.319331
0.320133
0.320765
0.321245
0.321693
0.321943
0.322009
0.321867
0.321472
0.320814
0.319853
0.318547
0.31689
0.314854
0.312417
0.309598
0.306388
0.302801
0.298869
0.294599
0.29004
0.285219
0.280158
0.27491
0.269489
0.263936
0.258272
0.252509
0.24668
0.240784
0.23486
0.228946
0.223124
0.217597
0.212648
0.255802
0.266955
0.279615
0.290026
0.297859
0.303638
0.307929
0.31122
0.313838
0.315985
0.317812
0.319386
0.320791
0.322066
0.323234
0.324336
0.325343
0.326244
0.327039
0.327771
0.328299
0.328621
0.328667
0.328415
0.327809
0.326775
0.325287
0.323301
0.32078
0.317749
0.314204
0.310163
0.305678
0.300767
0.295496
0.289912
0.284049
0.277982
0.271736
0.265361
0.258884
0.252309
0.245652
0.238863
0.231905
0.224689
0.21713
0.209299
0.201826
0.240254
0.239512
0.238724
0.237885
0.23698
0.236006
0.234991
0.234064
0.23332
0.232787
0.232501
0.232493
0.232811
0.233497
0.234605
0.236198
0.238357
0.241179
0.244792
0.249364
0.255118
0.262369
0.271562
0.283377
0.298912
0.319769
0.34764
0.389446
0.522981
0.240179
0.239421
0.238616
0.237753
0.236817
0.235805
0.234746
0.23377
0.232974
0.232388
0.232045
0.231979
0.232225
0.232827
0.233835
0.235306
0.237311
0.239937
0.243292
0.247514
0.252785
0.259341
0.26749
0.277622
0.290365
0.306657
0.324638
0.338087
0.375678
0.239979
0.239185
0.238335
0.237418
0.236415
0.235321
0.234161
0.233073
0.232158
0.231446
0.230965
0.230746
0.230819
0.231219
0.231985
0.233162
0.234799
0.236955
0.239696
0.243096
0.247237
0.252202
0.258045
0.264689
0.271944
0.279906
0.28623
0.283644
0.285766
0.239663
0.238808
0.237887
0.236883
0.235776
0.234555
0.23324
0.231977
0.230879
0.229973
0.229281
0.228829
0.228639
0.228736
0.229144
0.22989
0.230996
0.232486
0.234376
0.236671
0.239354
0.242374
0.245622
0.248826
0.25151
0.25364
0.254269
0.249351
0.246995
0.239257
0.23832
0.2373
0.23618
0.234933
0.233543
0.232024
0.230535
0.229203
0.228049
0.227094
0.226355
0.225846
0.225582
0.225573
0.225826
0.226343
0.227118
0.228131
0.229345
0.230693
0.232073
0.233352
0.234302
0.234501
0.23381
0.231634
0.225314
0.221155
0.23877
0.237729
0.236588
0.235323
0.233903
0.232304
0.230536
0.228776
0.227166
0.225726
0.224471
0.223412
0.222556
0.221909
0.221469
0.22123
0.221179
0.221292
0.221532
0.221845
0.222153
0.222345
0.22229
0.221797
0.220479
0.217992
0.213667
0.205921
0.200525
0.238204
0.237037
0.235749
0.23431
0.232682
0.230836
0.228777
0.226703
0.224779
0.223022
0.221441
0.220043
0.218831
0.2178
0.216942
0.216242
0.215677
0.215215
0.214809
0.2144
0.213906
0.213214
0.212186
0.210637
0.208213
0.204536
0.19916
0.191716
0.186599
0.237557
0.236241
0.234778
0.233134
0.231263
0.229129
0.226736
0.224309
0.222039
0.219939
0.218017
0.216274
0.214706
0.213306
0.212058
0.21094
0.209925
0.208974
0.208038
0.207054
0.205942
0.204596
0.202887
0.200659
0.197634
0.193514
0.188181
0.182152
0.177999
0.23682
0.235329
0.233662
0.231777
0.229624
0.22716
0.224389
0.221572
0.218929
0.21647
0.214198
0.212111
0.210202
0.208456
0.206855
0.205372
0.203975
0.202625
0.201271
0.199854
0.198303
0.196529
0.194429
0.19189
0.188708
0.184658
0.179847
0.17526
0.17204
0.235971
0.234275
0.23237
0.230207
0.227728
0.224889
0.221695
0.218453
0.215413
0.212583
0.209962
0.207544
0.205316
0.203259
0.201349
0.19956
0.197855
0.196196
0.194536
0.192823
0.190995
0.188984
0.186711
0.184091
0.180976
0.177196
0.172996
0.16952
0.167073
0.234966
0.233031
0.230847
0.22836
0.225508
0.222243
0.218582
0.214881
0.211427
0.208223
0.205263
0.202535
0.200018
0.197692
0.195527
0.193494
0.191556
0.189676
0.18781
0.185913
0.183932
0.181814
0.179496
0.17691
0.173946
0.170502
0.166901
0.16424
0.162411
0.233729
0.231511
0.229001
0.226138
0.222856
0.219112
0.214937
0.21075
0.206874
0.203304
0.200025
0.197018
0.194256
0.19171
0.189349
0.187137
0.18504
0.183018
0.181031
0.179039
0.176996
0.174859
0.172575
0.170089
0.167323
0.164239
0.161196
0.159126
0.157757
0.232137
0.229581
0.226684
0.22338
0.219606
0.215328
0.210599
0.205911
0.20162
0.197708
0.194149
0.19091
0.187957
0.185253
0.182759
0.180439
0.178253
0.176164
0.174132
0.172119
0.170087
0.167998
0.16581
0.163473
0.160936
0.158212
0.155666
0.154018
0.152971
0.229956
0.226993
0.223639
0.219824
0.215496
0.210637
0.205334
0.200156
0.195485
0.191283
0.187504
0.184102
0.18103
0.178241
0.175692
0.173338
0.17114
0.169057
0.167051
0.165087
0.16313
0.161146
0.1591
0.15695
0.154663
0.152286
0.150167
0.148829
0.148004
0.226816
0.223359
0.219469
0.215077
0.210149
0.204695
0.198843
0.193235
0.188262
0.183857
0.179952
0.176481
0.173383
0.170601
0.168084
0.165782
0.16365
0.161649
0.159741
0.157891
0.156066
0.154236
0.15237
0.150434
0.14841
0.146376
0.144637
0.143539
0.142861
0.22222
0.218231
0.213797
0.208861
0.203413
0.197492
0.191253
0.185386
0.180278
0.175826
0.171939
0.168531
0.165527
0.162861
0.160473
0.158311
0.156327
0.154479
0.152729
0.151044
0.149393
0.147748
0.146083
0.144371
0.142607
0.140873
0.139437
0.138529
0.137951
0.216123
0.21161
0.206754
0.201482
0.195771
0.189653
0.183291
0.177399
0.172347
0.168011
0.164278
0.161048
0.158235
0.155765
0.153574
0.151608
0.149817
0.148159
0.146596
0.145095
0.143627
0.142166
0.140692
0.139191
0.137668
0.136191
0.134984
0.134215
0.133709
0.207826
0.203089
0.198312
0.19318
0.18759
0.181577
0.175335
0.169608
0.164761
0.160658
0.157172
0.154194
0.151629
0.149401
0.147442
0.145697
0.144118
0.142663
0.141294
0.139981
0.138692
0.137401
0.13609
0.134763
0.133445
0.13219
0.131178
0.130531
0.130084
0.19596
0.192442
0.188838
0.18442
0.179292
0.17361
0.167657
0.162226
0.157682
0.153886
0.150703
0.148015
0.145727
0.143757
0.14204
0.140522
0.139154
0.137897
0.136715
0.135577
0.13445
0.133304
0.132129
0.130965
0.129887
0.128919
0.128105
0.127503
0.127035
0.21847
0.218776
0.219454
0.220817
0.222705
0.224811
0.226985
0.229164
0.231356
0.233605
0.235953
0.238438
0.241096
0.243967
0.247092
0.250512
0.254265
0.258387
0.262897
0.267793
0.273039
0.278516
0.283964
0.288287
0.290086
0.288123
0.280809
0.265713
0.234229
0.216714
0.21714
0.217931
0.219279
0.221078
0.223104
0.225234
0.22741
0.229636
0.231946
0.234376
0.236961
0.239739
0.242753
0.246046
0.249666
0.253658
0.258067
0.262924
0.26825
0.27405
0.280272
0.286746
0.292485
0.296174
0.297063
0.294525
0.290536
0.294969
0.214934
0.21544
0.216313
0.217653
0.219379
0.221324
0.223393
0.225543
0.22778
0.230128
0.232617
0.235278
0.238152
0.241282
0.244719
0.248517
0.252735
0.257433
0.262671
0.26852
0.275075
0.282458
0.290827
0.299708
0.308221
0.31659
0.325071
0.33253
0.349762
0.213104
0.213588
0.214432
0.215754
0.217481
0.219428
0.221487
0.223626
0.225864
0.228231
0.230754
0.233466
0.236409
0.239628
0.24318
0.247129
0.251547
0.256516
0.262132
0.268529
0.275918
0.28464
0.295275
0.30793
0.321854
0.33737
0.3554
0.371973
0.394354
0.211227
0.211675
0.212467
0.213755
0.215479
0.217436
0.219496
0.221632
0.223869
0.226242
0.228783
0.231527
0.234515
0.237797
0.241435
0.2455
0.250078
0.25527
0.261209
0.268089
0.276229
0.28615
0.298784
0.314641
0.332844
0.353345
0.378086
0.40153
0.427551
0.209305
0.209735
0.210493
0.211741
0.21343
0.215365
0.217408
0.219529
0.221754
0.224121
0.226662
0.229415
0.232422
0.235735
0.239419
0.243552
0.248228
0.253567
0.259727
0.266946
0.275629
0.286353
0.300326
0.318192
0.338746
0.361676
0.388918
0.418398
0.44824
0.207335
0.207753
0.208487
0.209692
0.211328
0.213216
0.215221
0.217309
0.219506
0.221847
0.224366
0.2271
0.230092
0.233396
0.237076
0.241215
0.245911
0.251293
0.257534
0.264884
0.273834
0.284793
0.299278
0.317326
0.339456
0.363777
0.390038
0.417691
0.44565
0.20531
0.205716
0.206424
0.20758
0.209156
0.210984
0.212935
0.214973
0.217122
0.219414
0.221884
0.224568
0.227508
0.230756
0.234376
0.238449
0.243074
0.248376
0.254534
0.261757
0.270693
0.281128
0.295625
0.313717
0.334828
0.35748
0.38076
0.404323
0.427935
0.20323
0.203622
0.204301
0.205405
0.206909
0.208665
0.210548
0.212519
0.214599
0.216819
0.219213
0.221813
0.224659
0.227802
0.231301
0.235231
0.239685
0.244774
0.250672
0.257486
0.265765
0.276204
0.28968
0.30623
0.324713
0.344121
0.363718
0.383232
0.402005
0.201093
0.201473
0.202121
0.203166
0.20459
0.20626
0.208058
0.209945
0.211935
0.21406
0.216347
0.218829
0.221541
0.224527
0.227842
0.231552
0.235732
0.240477
0.24591
0.252264
0.259843
0.269306
0.281072
0.295097
0.310293
0.325879
0.341321
0.356623
0.370834
0.198897
0.199262
0.199878
0.20086
0.202196
0.20377
0.205469
0.207253
0.209135
0.211139
0.213293
0.215623
0.218159
0.22094
0.224012
0.227429
0.231233
0.235543
0.240442
0.246109
0.252706
0.260627
0.270246
0.281331
0.292952
0.304456
0.31546
0.326265
0.336043
0.196643
0.196995
0.197576
0.198492
0.199733
0.201198
0.202784
0.204449
0.206202
0.208064
0.210057
0.212204
0.214528
0.217059
0.219831
0.222886
0.226274
0.230054
0.234274
0.239039
0.244425
0.250637
0.257894
0.265859
0.273811
0.281261
0.287988
0.294463
0.300122
0.194335
0.194678
0.195228
0.196074
0.19721
0.198553
0.200008
0.201535
0.20314
0.204838
0.206647
0.208581
0.210659
0.2129
0.215332
0.217978
0.220869
0.224031
0.227463
0.231202
0.235259
0.2397
0.244529
0.249378
0.253805
0.25753
0.260501
0.263238
0.265408
0.191972
0.192302
0.192815
0.193587
0.194616
0.195831
0.197147
0.198525
0.199965
0.201481
0.203084
0.204782
0.206586
0.208508
0.21056
0.212753
0.215089
0.217567
0.220151
0.222814
0.2255
0.228158
0.230621
0.232558
0.233831
0.234368
0.234265
0.234038
0.233539
0.189561
0.189879
0.190356
0.191052
0.191969
0.193047
0.194214
0.19543
0.196692
0.198011
0.199391
0.200836
0.202346
0.203924
0.205569
0.207275
0.209024
0.210785
0.212495
0.214074
0.215403
0.216341
0.216615
0.215975
0.214578
0.212531
0.21004
0.207612
0.205273
0.187106
0.187415
0.187855
0.188475
0.189275
0.19021
0.191217
0.192261
0.193334
0.194445
0.195592
0.196769
0.19797
0.199186
0.200405
0.201604
0.202749
0.203783
0.204617
0.205129
0.205157
0.2045
0.202821
0.199982
0.196409
0.192355
0.188095
0.184137
0.180671
0.184611
0.184908
0.18531
0.185852
0.186536
0.187327
0.188171
0.189035
0.189914
0.190811
0.191717
0.192618
0.1935
0.194346
0.19513
0.195818
0.196358
0.196673
0.196652
0.196146
0.194964
0.192872
0.1895
0.184841
0.179555
0.174008
0.168496
0.163535
0.159475
0.182083
0.182372
0.182735
0.1832
0.183767
0.184412
0.18509
0.185769
0.186454
0.187134
0.187794
0.188417
0.18898
0.189456
0.189809
0.189994
0.189943
0.189565
0.188732
0.187279
0.184999
0.181644
0.17684
0.170716
0.164124
0.157503
0.151125
0.145525
0.141206
0.179532
0.179814
0.180141
0.180531
0.180981
0.181478
0.181981
0.182482
0.18297
0.183433
0.18385
0.184197
0.184446
0.18456
0.184495
0.184194
0.183579
0.182547
0.180958
0.17864
0.17538
0.170929
0.16493
0.157643
0.150076
0.142702
0.13573
0.129724
0.125348
0.176962
0.177237
0.177524
0.17784
0.178178
0.178522
0.178872
0.179192
0.179487
0.179738
0.179918
0.179999
0.179944
0.179712
0.179251
0.178493
0.177353
0.175718
0.173443
0.17035
0.166229
0.160836
0.153849
0.145654
0.137379
0.129505
0.122145
0.115905
0.111607
0.174381
0.174653
0.174898
0.175146
0.175361
0.175587
0.17577
0.175916
0.176026
0.176073
0.176028
0.175857
0.175519
0.174965
0.174138
0.172964
0.171351
0.169178
0.166298
0.16253
0.15767
0.151486
0.143693
0.134797
0.126029
0.117858
0.110275
0.103947
0.0998615
0.171797
0.17207
0.172274
0.17245
0.172577
0.172663
0.172686
0.17267
0.172605
0.172461
0.172207
0.171803
0.171205
0.17036
0.169206
0.167664
0.165636
0.163001
0.159607
0.155275
0.149802
0.142968
0.134523
0.125084
0.115978
0.107666
0.1
0.0937314
0.0900355
0.16922
0.169481
0.169678
0.169794
0.169815
0.169757
0.169634
0.169466
0.169239
0.16892
0.168476
0.167862
0.167032
0.165931
0.164492
0.162636
0.160263
0.157249
0.153441
0.148662
0.142709
0.135365
0.126404
0.116528
0.107164
0.0987981
0.0911407
0.0850763
0.0820133
0.166654
0.166908
0.167085
0.167141
0.16706
0.166877
0.166624
0.16632
0.165947
0.165473
0.16486
0.164062
0.163032
0.161713
0.160039
0.157929
0.155284
0.151982
0.147872
0.142777
0.136496
0.128802
0.119473
0.109248
0.0996463
0.0912196
0.0835734
0.0778063
0.0756306
0.164108
0.164363
0.164519
0.164519
0.164344
0.164044
0.163669
0.163241
0.162742
0.162134
0.161377
0.160424
0.159229
0.157735
0.155877
0.153578
0.150741
0.14725
0.14296
0.1377
0.131268
0.123422
0.113919
0.103462
0.0936027
0.0849902
0.0771818
0.0716884
0.0707126
0.161588
0.161837
0.161965
0.161906
0.161645
0.161244
0.160768
0.160242
0.159642
0.158926
0.158051
0.156974
0.155649
0.154024
0.152037
0.149616
0.146672
0.143096
0.138755
0.133494
0.12712
0.119383
0.110008
0.0995858
0.0895713
0.0806253
0.0722168
0.0665806
0.0670337
0.159116
0.159414
0.159572
0.159481
0.159111
0.158561
0.157951
0.157323
0.156638
0.155839
0.154875
0.153707
0.152291
0.150581
0.148521
0.146045
0.143074
0.139513
0.135251
0.130155
0.124057
0.116703
0.107764
0.0976828
0.0877237
0.0784566
0.0690522
0.0621129
0.0631549
0.164445
0.147147
0.12295
0.0917245
0.0564141
0.0215782
-0.00998737
-0.0389284
-0.0654098
-0.0936216
-0.12257
-0.155913
-0.190317
-0.222573
-0.248619
-0.265873
-0.274456
-0.276653
-0.276181
0.17326
0.160632
0.137615
0.105826
0.0673239
0.0261158
-0.014496
-0.0549888
-0.0933187
-0.135497
-0.177923
-0.22097
-0.262329
-0.298582
-0.326425
-0.344691
-0.354702
-0.359113
-0.360725
0.169949
0.158649
0.137014
0.105469
0.065036
0.0191701
-0.0284477
-0.0799054
-0.131462
-0.183511
-0.235527
-0.286432
-0.333388
-0.373023
-0.402846
-0.422585
-0.434092
-0.44006
-0.443023
0.161177
0.150122
0.130397
0.099633
0.0571877
0.00664472
-0.0485533
-0.107109
-0.167516
-0.228688
-0.28966
-0.348349
-0.401061
-0.444176
-0.475754
-0.496396
-0.508706
-0.515642
-0.519562
0.149245
0.139229
0.121243
0.0911109
0.047459
-0.00610934
-0.0664256
-0.131391
-0.199628
-0.269601
-0.338887
-0.40408
-0.460841
-0.505771
-0.537904
-0.558853
-0.571818
-0.579701
-0.584458
0.132866
0.123554
0.107203
0.0784044
0.0349234
-0.0201588
-0.083956
-0.154531
-0.229695
-0.306902
-0.382522
-0.452104
-0.511124
-0.556884
-0.589485
-0.611258
-0.625647
-0.635267
-0.641643
0.112452
0.102462
0.0867652
0.0592148
0.0165652
-0.0390187
-0.104954
-0.179203
-0.258854
-0.340291
-0.418849
-0.489339
-0.547441
-0.59143
-0.622432
-0.643304
-0.657576
-0.667442
-0.674078
0.0890788
0.0772922
0.0608977
0.033596
-0.00842663
-0.0638375
-0.130377
-0.205853
-0.28693
-0.369212
-0.447248
-0.515576
-0.570545
-0.611546
-0.640509
-0.660458
-0.674676
-0.684804
-0.691777
0.0636633
0.049621
0.0315289
0.00334755
-0.0386185
-0.0934756
-0.159284
-0.233848
-0.313573
-0.393492
-0.46771
-0.531019
-0.580777
-0.617422
-0.643385
-0.661618
-0.675059
-0.684871
-0.691683
0.0370554
0.0208036
0.00059534
-0.0291571
-0.0715572
-0.125722
-0.189945
-0.26212
-0.338501
-0.413789
-0.48207
-0.53885
-0.582631
-0.614704
-0.637732
-0.654438
-0.667354
-0.677287
-0.684532
0.0101892
-0.00796655
-0.0302738
-0.0618017
-0.104929
-0.158456
-0.220685
-0.289452
-0.360777
-0.429187
-0.489209
-0.537491
-0.573741
-0.599879
-0.618571
-0.632213
-0.642871
-0.651148
-0.65715
-0.0158521
-0.0354388
-0.0594862
-0.092504
-0.136233
-0.18899
-0.24886
-0.313447
-0.37856
-0.438917
-0.489992
-0.529793
-0.559024
-0.579885
-0.59479
-0.605698
-0.614181
-0.62076
-0.625445
-0.0400689
-0.0605334
-0.0857578
-0.119631
-0.163429
-0.214991
-0.272109
-0.332124
-0.390775
-0.443287
-0.486281
-0.518959
-0.542657
-0.55957
-0.57177
-0.58083
-0.587963
-0.593695
-0.59788
-0.0617653
-0.0825922
-0.108416
-0.142448
-0.185662
-0.235481
-0.289357
-0.34432
-0.396158
-0.440859
-0.47628
-0.502621
-0.521555
-0.53509
-0.544919
-0.552272
-0.558049
-0.562755
-0.56616
-0.0805353
-0.101283
-0.127175
-0.160719
-0.202696
-0.250184
-0.300325
-0.349923
-0.39506
-0.432688
-0.461808
-0.483298
-0.498881
-0.510256
-0.518725
-0.525204
-0.530358
-0.53463
-0.537741
-0.0963415
-0.116675
-0.142201
-0.174744
-0.214974
-0.259712
-0.305897
-0.350264
-0.389382
-0.42116
-0.445473
-0.46355
-0.476992
-0.487172
-0.495072
-0.501369
-0.506573
-0.511038
-0.514402
-0.109496
-0.129204
-0.154076
-0.185305
-0.223476
-0.265174
-0.307175
-0.346288
-0.379746
-0.40641
-0.426807
-0.442278
-0.454183
-0.463557
-0.4711
-0.477288
-0.482515
-0.487018
-0.490417
-0.120431
-0.139403
-0.163452
-0.193209
-0.229186
-0.267756
-0.305626
-0.339845
-0.368401
-0.390962
-0.408444
-0.422129
-0.433093
-0.442067
-0.449513
-0.455745
-0.461061
-0.46561
-0.469034
-0.129673
-0.147881
-0.171058
-0.199341
-0.233192
-0.268833
-0.302993
-0.333045
-0.357661
-0.377084
-0.392415
-0.404802
-0.415071
-0.423718
-0.431035
-0.43722
-0.442513
-0.447005
-0.450379
-0.137784
-0.155278
-0.177669
-0.204597
-0.236422
-0.269221
-0.299839
-0.3261
-0.34734
-0.364205
-0.377816
-0.38912
-0.398708
-0.406894
-0.413852
-0.419709
-0.424668
-0.428803
-0.431864
-0.145177
-0.162106
-0.183934
-0.209726
-0.239674
-0.269765
-0.297119
-0.320112
-0.338624
-0.353495
-0.365745
-0.376111
-0.385001
-0.392611
-0.399047
-0.404401
-0.40885
-0.41248
-0.415124
-0.152186
-0.168836
-0.190481
-0.215402
-0.243513
-0.27087
-0.295094
-0.315195
-0.331451