/*--------------------------------*- C++ -*----------------------------------*\
| =========                 |                                                 |
| \\      /  F ield         | OpenFOAM: The Open Source CFD Toolbox           |
|  \\    /   O peration     | Version:  2312                                  |
|   \\  /    A nd           | Website:  www.openfoam.com                      |
|    \\/     M anipulation  |                                                 |
\*---------------------------------------------------------------------------*/
FoamFile
{
    version     2.0;
    format      ascii;
    arch        "LSB;label=32;scalar=64";
    class       surfaceScalarField;
    location    "58.844491753994724";
    object      phi;
}
// * * * * * * * * * * * * * * * * * * * * * * * * * * * * * * * * * * * * * //

dimensions      [0 3 -1 0 0 0 0];

oriented        oriented;

internalField   nonuniform List<scalar> 
41713
(
0.00736629
0.0568801
0.00363042
0.0679823
0.00211952
0.0657573
0.00148799
0.064878
0.00110312
0.0646313
0.000849875
0.0644997
0.000675678
0.0644206
0.000549618
0.0643725
0.00045509
0.064341
0.000382442
0.0643191
0.000325549
0.0643033
0.000280357
0.0642916
0.0002441
0.0642827
0.000214835
0.0642757
0.000191168
0.0642701
0.000172071
0.0642655
0.000156775
0.0642617
0.000144691
0.0642585
0.000135352
0.0642558
0.000128365
0.0642534
0.000123358
0.0642514
0.000119956
0.0642498
0.000117865
0.0642485
0.000116581
0.0548125
0.000115447
0.0456771
0.00011428
0.0380645
0.000113114
0.0317206
0.000111997
0.026434
0.0220285
0.000110922
0.0099977
0.0468825
0.00843516
0.0695448
0.00572546
0.068467
0.00413414
0.0664693
0.00313618
0.0656293
0.0024477
0.0651882
0.00195284
0.0649155
0.00158618
0.0647392
0.00130741
0.0646197
0.00109074
0.0645358
0.000919231
0.0644748
0.000781505
0.0644294
0.000669712
0.0643945
0.000578307
0.0643671
0.000503294
0.0643451
0.000441743
0.0643271
0.000391465
0.064312
0.000350801
0.0642992
0.000318465
0.0642881
0.000293432
0.0642785
0.00027486
0.06427
0.000261999
0.0642627
0.000254095
0.0642564
0.000250335
0.0548162
0.000248693
0.0456788
0.000247948
0.0380652
0.000247433
0.0317211
0.00024686
0.0264345
0.022029
0.000246298
0.00860022
0.0382822
0.00971794
0.0684271
0.0074842
0.0707008
0.00571903
0.0682345
0.00453501
0.0668133
0.00365434
0.0660688
0.00297667
0.0655932
0.00245042
0.0652654
0.00203691
0.0650332
0.00170758
0.0648651
0.001442
0.0647404
0.00122555
0.0646458
0.00104767
0.0645724
0.000900657
0.0645141
0.000778839
0.0644669
0.00067798
0.0644279
0.000594891
0.0643951
0.000527138
0.0643669
0.000472838
0.0643424
0.000430509
0.0643208
0.000398956
0.0643016
0.000377165
0.0642845
0.00036411
0.0642695
0.000358564
0.0548218
0.000356965
0.0456804
0.000357054
0.0380651
0.000357568
0.0317206
0.000357956
0.0264342
0.0220287
0.000358232
0.00677843
0.0315038
0.00948499
0.0657206
0.00813656
0.0720492
0.00646221
0.0699088
0.00527699
0.0679985
0.00437777
0.0669681
0.00365287
0.0663181
0.00306288
0.0658554
0.00258066
0.0655155
0.00218418
0.0652616
0.00185618
0.0650684
0.00158327
0.0649187
0.00135516
0.0648005
0.00116395
0.0647053
0.00100361
0.0646273
0.000869484
0.0645621
0.000758018
0.0645066
0.000666449
0.0644585
0.000592628
0.0644162
0.000534856
0.0643786
0.00049177
0.0643447
0.000462219
0.064314
0.000444947
0.0642868
0.000438239
0.0548285
0.000437087
0.0456815
0.000438276
0.0380639
0.000440047
0.0317188
0.000441673
0.0264325
0.0220273
0.000443129
0.00506758
0.0264362
0.00857774
0.0622104
0.00819674
0.0724302
0.00675993
0.0713456
0.00561154
0.0691469
0.00474285
0.0678368
0.00403233
0.0670286
0.00343608
0.0664516
0.00293315
0.0660184
0.00250762
0.0656871
0.00214656
0.0654295
0.00183947
0.0652258
0.00157789
0.0650621
0.00135507
0.0649281
0.00116561
0.0648167
0.00100528
0.0647224
0.000870706
0.0646411
0.000759263
0.0645699
0.000668872
0.0645066
0.000597884
0.0644495
0.000544971
0.0643976
0.000508988
0.06435
0.000488571
0.0643072
0.000481522
0.0548355
0.000481484
0.0456815
0.000484364
0.0380611
0.000487954
0.0317152
0.000491354
0.0264291
0.0220242
0.000494477
0.00361971
0.0228165
0.007316
0.0585141
0.00779494
0.0719513
0.00674428
0.0723963
0.00569133
0.0701998
0.00487376
0.0686543
0.00420077
0.0677016
0.00362399
0.0670284
0.00312556
0.0665168
0.00269393
0.0661187
0.00231964
0.0658038
0.00199487
0.0655506
0.00171318
0.0653437
0.00146934
0.065172
0.00125907
0.065027
0.00107891
0.0649026
0.000926116
0.0647939
0.000798486
0.0646976
0.000694295
0.0646108
0.000612175
0.0645317
0.000551028
0.0644587
0.000509877
0.0643912
0.00048741
0.0643296
0.000480938
0.054842
0.000482821
0.0456797
0.000488135
0.0380558
0.000494246
0.0317091
0.000500073
0.0264233
0.0220188
0.00050546
0.00252318
0.0202933
0.00601993
0.0550174
0.00710499
0.0708662
0.00648428
0.073017
0.0055812
0.0711029
0.00483401
0.0694015
0.00421258
0.068323
0.00366989
0.0675711
0.00319005
0.0669967
0.00276547
0.0665433
0.00238991
0.0661793
0.00205802
0.0658825
0.00176528
0.0656365
0.00150796
0.0654293
0.00128298
0.065252
0.00108785
0.0650977
0.000920579
0.0649612
0.000779603
0.0648386
0.000663725
0.0647267
0.000572035
0.0646234
0.000503827
0.0645269
0.000458445
0.0644366
0.000434774
0.0643533
0.000429645
0.0548471
0.000434177
0.0456751
0.00044265
0.0380473
0.000452017
0.0316998
0.000461008
0.0264143
0.0220104
0.000469359
0.00175796
0.0185354
0.00488576
0.0518896
0.00632202
0.06943
0.00608292
0.0732561
0.0053474
0.0718385
0.00467532
0.0700736
0.00410812
0.0688902
0.00360563
0.0680736
0.00315186
0.0674504
0.00274178
0.0669534
0.00237195
0.0665492
0.00203929
0.0662151
0.00174107
0.0659347
0.00147502
0.0656954
0.00123924
0.0654878
0.00103223
0.0653047
0.000852821
0.0651406
0.000700191
0.0649912
0.000573779
0.0648531
0.000473255
0.0647239
0.000398452
0.0646017
0.000349168
0.0644858
0.00032462
0.0643779
0.000321228
0.0548505
0.000328924
0.0456674
0.00034118
0.038035
0.000354522
0.0316864
0.000367465
0.0264014
0.0219983
0.000379588
0.0012463
0.0172891
0.00396217
0.0491737
0.00556104
0.0678311
0.00562487
0.0731923
0.00505118
0.0724121
0.00444833
0.0706764
0.00392758
0.0694109
0.00346211
0.0685391
0.00303485
0.0678777
0.00264142
0.0673468
0.00228015
0.0669104
0.00194965
0.0665456
0.00164869
0.0662356
0.00137626
0.0659678
0.00113156
0.0657325
0.000914032
0.0655222
0.000723363
0.0653313
0.000559486
0.0651551
0.000422559
0.06499
0.000312942
0.0648335
0.000231115
0.0646836
0.000177467
0.0645395
0.000151648
0.0644037
0.000149816
0.0548523
0.00016076
0.0456565
0.000177147
0.0380186
0.00019497
0.0316686
0.000212475
0.0263839
0.0219817
0.000229125
0.000911164
0.0163779
0.00323044
0.0468544
0.00486614
0.0661954
0.00515491
0.0729035
0.00472859
0.0728385
0.00418799
0.0712171
0.00370328
0.0698957
0.00326678
0.0689756
0.00286151
0.068283
0.00248256
0.0677257
0.00212904
0.0672639
0.00180063
0.0668741
0.00149714
0.0665391
0.00121855
0.0662464
0.000964944
0.0659861
0.000736631
0.0657505
0.000534098
0.0655338
0.000358059
0.0653311
0.000209402
0.0651387
8.91563e-05
0.0649537
-1.52071e-06
0.0647742
-6.14908e-05
0.0645995
-9.03933e-05
0.0644326
-9.18726e-05
0.0548538
-7.83778e-05
0.045643
-5.8202e-05
0.0379985
-3.59489e-05
0.0316463
-1.38967e-05
0.0263618
0.0219607
7.05245e-06
0.000692845
0.0156851
0.0026574
0.0448899
0.00425041
0.0646024
0.0046951
0.0724588
0.00439701
0.0731365
0.00391272
0.0717013
0.0034553
0.0703531
0.00303926
0.0693916
0.00264967
0.0686726
0.00228084
0.0680946
0.00193202
0.0676128
0.00160347
0.0672026
0.00129569
0.0668469
0.00100933
0.0665327
0.000745215
0.0662502
0.000504348
0.0659914
0.000287941
0.0657502
9.73389e-05
0.0655217
-6.59285e-05
0.065302
-0.000200039
0.0650879
-0.000302921
0.0648771
-0.000372522
0.0646691
-0.000407654
0.0644677
-0.000411132
0.0548573
-0.000396512
0.0456284
-0.000373064
0.037975
-0.000346074
0.0316193
-0.00031827
0.026334
0.0219335
-0.000291112
0.000547803
0.0151373
0.00220899
0.0432287
0.0037138
0.0630976
0.00425793
0.0719147
0.0040666
0.0733279
0.00363269
0.0721352
0.00319575
0.07079
0.00279256
0.0697948
0.00241228
0.0690529
0.00204855
0.0684583
0.00170037
0.0679609
0.00136827
0.0675347
0.00105316
0.067162
0.00075615
0.0668298
0.000478611
0.0665277
0.00022208
0.0662479
-1.17598e-05
0.0659841
-0.000220973
0.0657309
-0.000403232
0.0654842
-0.000555829
0.0652404
-0.00067581
0.0649971
-0.000760209
0.0647535
-0.0008069
0.0645144
-0.000816812
0.0548672
-0.000804385
0.0456159
-0.000779923
0.0379506
-0.000749619
0.031589
-0.000717026
0.0263014
0.0219008
-0.000684266
0.000446847
0.0146904
0.00185495
0.0418206
0.0032495
0.061703
0.00385
0.0713142
0.00374437
0.0734335
0.00335473
0.0725249
0.00293291
0.0712118
0.00253613
0.0701916
0.0021592
0.0694298
0.00179552
0.068822
0.00144363
0.0683128
0.00110403
0.0678743
0.000777818
0.0674882
0.00046643
0.0671411
0.000171512
0.0668226
-0.000105109
0.0665246
-0.000361282
0.0662402
-0.000594373
0.065964
-0.000801297
0.0656911
-0.000978596
0.0654177
-0.00112249
0.065141
-0.00122916
0.0648601
-0.00129561
0.0645809
-0.00131948
0.0548911
-0.00131556
0.045612
-0.00129493
0.0379299
-0.00126463
0.0315587
-0.00122921
0.026266
0.0218634
-0.00119185
0.000372297
0.0143181
0.00157132
0.0406215
0.00284815
0.0604262
0.0034737
0.0706886
0.00343493
0.0734723
0.00308369
0.0728761
0.00267298
0.0716225
0.00227744
0.0705871
0.00189865
0.0698086
0.0015303
0.0691903
0.00117038
0.0686728
0.00081916
0.0682255
0.00047774
0.0678297
0.000147584
0.0674713
-0.000169609
0.0671398
-0.00047173
0.0668267
-0.000756109
0.0665246
-0.00101954
0.0662274
-0.00125834
0.0659299
-0.00146832
0.0656277
-0.00164496
0.0653176
-0.00178381
0.064999
-0.00188139
0.0646784
-0.00193055
0.0549403
-0.00194561
0.0456271
-0.00193768
0.037922
-0.00191426
0.0315353
-0.00188099
0.0262327
0.0218249
-0.00184247
0.000314084
0.014004
0.00134217
0.0395935
0.00250338
0.059265
0.00313116
0.0700608
0.00314182
0.0734616
0.00282281
0.0731951
0.00242012
0.0720252
0.00202201
0.0709852
0.00163711
0.0701935
0.00125998
0.0695674
0.000888083
0.0690447
0.000521294
0.0685923
0.00016048
0.0681905
-0.000193113
0.0678249
-0.000537764
0.0674845
-0.00087109
0.06716
-0.00119009
0.0668436
-0.00149114
0.0665285
-0.00176997
0.0662088
-0.0020217
0.0658795
-0.00224117
0.0655371
-0.00242361
0.0651814
-0.00256618
0.064821
-0.00265635
0.0550304
-0.00270758
0.0456783
-0.00272949
0.0379439
-0.00272794
0.0315338
-0.00270805
0.0262128
0.0217926
-0.00267573
0.000229459
0.0137746
0.000984829
0.0388381
0.0018786
0.0583712
0.00239897
0.0695405
0.0024364
0.0734242
0.00218854
0.073443
0.00185379
0.07236
0.00151447
0.0713245
0.00118315
0.0705248
0.000856136
0.0698944
0.000530836
0.06937
0.000206727
0.0689164
-0.000115895
0.0685131
-0.000436224
0.0681452
-0.000752865
0.0678011
-0.00106385
0.067471
-0.00136661
0.0671464
-0.00165787
0.0668198
-0.00193359
0.0664845
-0.00218903
0.0661349
-0.00241897
0.065767
-0.00261876
0.0653812
-0.00278644
0.0649887
-0.00290715
0.0551511
-0.0029939
0.0457651
-0.00305457
0.0380046
-0.00309108
0.0315703
-0.00310383
0.0262256
0.0217855
-0.00309679
0.000171103
0.0136035
0.000734
0.0382752
0.00142315
0.057682
0.00184729
0.0691163
0.00189423
0.0733772
0.00170042
0.0736368
0.00142403
0.0726364
0.00113817
0.0716104
0.0008567
0.0708063
0.000577107
0.070174
0.000296844
0.0696502
1.50359e-05
0.0691982
-0.00026841
0.0687965
-0.000553101
0.0684299
-0.000838115
0.0680861
-0.00112207
0.067755
-0.00140298
0.0674273
-0.0016782
0.067095
-0.00194425
0.0667505
-0.00219679
0.0663874
-0.00243068
0.0660009
-0.00264085
0.0655914
-0.00282441
0.0651722
-0.00296355
0.0552903
-0.00307345
0.045875
-0.00316637
0.0380975
-0.00324758
0.0316515
-0.00331514
0.0262932
0.0218263
-0.00335586
0.000131752
0.0134717
0.000560062
0.0378469
0.00109794
0.0571441
0.00144318
0.0687711
0.00149131
0.0733291
0.00133821
0.0737899
0.00111009
0.0728645
0.000870184
0.0718503
0.000632167
0.0710443
0.000394339
0.0704119
0.000154325
0.0698902
-8.89596e-05
0.0694415
-0.000335871
0.0690434
-0.000586333
0.0686804
-0.000839912
0.0683397
-0.00109579
0.0680108
-0.00135264
0.0676841
-0.00160853
0.0673509
-0.00186076
0.0670028
-0.00210572
0.0666324
-0.00233877
0.066234
-0.00255457
0.0658072
-0.00274798
0.0653657
-0.00289435
0.0554366
-0.00300667
0.0459873
-0.0031025
0.0381933
-0.00319647
0.0317455
-0.00330663
0.0264033
0.0219637
-0.00344405
0.000100822
0.0133709
0.000434773
0.0375129
0.000863242
0.0567157
0.00114651
0.0684878
0.00119051
0.0732851
0.00106611
0.0739143
0.000876458
0.0730541
0.000675504
0.0720513
0.0004752
0.0712446
0.000273954
0.0706131
6.95419e-05
0.0700947
-0.000139119
0.0696502
-0.000352516
0.0692568
-0.000570847
0.0688987
-0.000794077
0.0685629
-0.00102187
0.0682386
-0.00125352
0.0679158
-0.00148782
0.0675852
-0.00172291
0.0672379
-0.00195622
0.0668657
-0.0021843
0.0664621
-0.00240297
0.0660259
-0.00260692
0.0655696
-0.00276415
0.0555939
-0.00287618
0.0460993
-0.00295071
0.0382679
-0.00299809
0.0317928
-0.00303652
0.0264417
-0.00320205
0.0221292
0.000155818
0.0219825
0.000198178
0.021985
0.000231586
0.0219939
0.000262633
0.0219963
0.00028785
0.0220021
0.000308522
0.0220067
0.000326148
0.0220097
0.000337446
0.0220161
0.00034672
0.0220181
0.000350961
0.0220231
0.000352117
0.0220262
0.00035073
0.0220287
0.000344885
0.0220332
0.000337417
0.0220348
0.000326683
0.0220381
0.000313625
0.0220404
0.000299208
0.0220418
0.000281799
0.0220448
0.0002633
0.0220459
0.000243541
0.0220471
0.000222198
0.0220487
0.000200214
0.0220493
0.000177539
0.02205
0.000154333
0.0220506
0.000130993
0.0220507
0.000107686
0.0220507
8.48034e-05
0.0220502
6.23362e-05
0.0220498
4.06077e-05
0.0220491
2.02605e-05
0.0220477
7.90335e-07
0.0220468
-1.69697e-05
0.0220451
-3.27162e-05
0.0220431
-4.72184e-05
0.0220419
-5.84294e-05
0.0220386
-6.76784e-05
0.0220366
-7.46572e-05
0.0220343
-7.74658e-05
0.0220302
-7.85033e-05
0.0220284
-7.48713e-05
0.0220237
-6.80885e-05
0.0220206
-5.81896e-05
0.0220175
-4.24928e-05
0.0220117
-2.46454e-05
0.0220095
-8.11949e-08
0.0220028
2.79204e-05
0.0219994
6.07275e-05
0.0219945
9.9891e-05
0.0219882
0.0219857
0.00014155
0.00029148
0.0219373
0.000334326
0.0219422
0.000368434
0.0219598
0.000400393
0.0219643
0.000426748
0.0219758
0.00044878
0.0219847
0.00046797
0.0219905
0.000481042
0.022003
0.000492267
0.0220069
0.00049864
0.0220167
0.000502087
0.0220228
0.000503132
0.0220277
0.000499863
0.0220365
0.000495081
0.0220396
0.000487144
0.022046
0.000476975
0.0220506
0.000465516
0.0220532
0.000451144
0.0220591
0.000435724
0.0220613
0.000419077
0.0220638
0.00040088
0.0220669
0.000382044
0.0220682
0.000362512
0.0220696
0.00034244
0.0220706
0.000322195
0.0220709
0.000301938
0.0220709
0.000282057
0.0220701
0.000262514
0.0220694
0.000243625
0.022068
0.000226033
0.0220653
0.0002092
0.0220637
0.000193963
0.0220604
0.00018061
0.0220565
0.000168342
0.0220541
0.000159219
0.0220477
0.000151876
0.0220439
0.000146612
0.0220396
0.000145331
0.0220314
0.000145595
0.0220281
0.000150316
0.022019
0.000157948
0.0220129
0.000168442
0.022007
0.000184489
0.0219956
0.000202399
0.0219916
0.00022676
0.0219784
0.000254249
0.0219719
0.000286222
0.0219626
0.000324211
0.0219502
0.0219456
0.000364323
0.000404026
0.0218915
0.000447674
0.0218985
0.000482827
0.0219247
0.000516061
0.0219311
0.000543927
0.0219479
0.000567694
0.0219609
0.000588825
0.0219694
0.000604047
0.0219878
0.000617601
0.0219933
0.000626484
0.0220079
0.0006326
0.0220166
0.000636457
0.0220238
0.000636145
0.0220368
0.000634431
0.0220413
0.000629675
0.0220508
0.00062278
0.0220575
0.000614665
0.0220613
0.000603716
0.0220701
0.000591764
0.0220732
0.000578617
0.0220769
0.000563954
0.0220816
0.000548653
0.0220835
0.000532651
0.0220856
0.000516097
0.0220872
0.000499332
0.0220877
0.000482507
0.0220877
0.000466008
0.0220866
0.000449766
0.0220856
0.000434089
0.0220836
0.000419619
0.0220798
0.000405784
0.0220775
0.000393423
0.0220727
0.00038281
0.0220671
0.000373118
0.0220638
0.000366421
0.0220544
0.000361319
0.022049
0.0003581
0.0220428
0.000358676
0.0220309
0.000360566
0.0220262
0.000366698
0.0220129
0.000375496
0.0220041
0.000386899
0.0219956
0.000403602
0.0219789
0.000421875
0.0219733
0.000446323
0.021954
0.000473586
0.0219446
0.000505013
0.0219311
0.000542126
0.0219131
0.0219067
0.000580984
0.000490107
0.0218445
0.000535115
0.0218535
0.000571853
0.0218879
0.000606902
0.0218961
0.000636825
0.021918
0.00066288
0.0219348
0.00068652
0.0219458
0.000704471
0.0219698
0.000720948
0.0219768
0.000732944
0.0219959
0.000742344
0.0220072
0.000749639
0.0220165
0.000752915
0.0220335
0.000754912
0.0220393
0.000753985
0.0220517
0.000751018
0.0220604
0.000746909
0.0220655
0.000740045
0.022077
0.000732226
0.022081
0.00072325
0.0220859
0.000712788
0.022092
0.00070169
0.0220946
0.000689885
0.0220974
0.000677512
0.0220996
0.000664887
0.0221003
0.000652149
0.0221005
0.00063968
0.0220991
0.000627381
0.0220979
0.000615553
0.0220955
0.000604831
0.0220905
0.000594615
0.0220877
0.00058574
0.0220816
0.000578468
0.0220743
0.000571944
0.0220703
0.000568254
0.0220581
0.000565966
0.0220513
0.000565355
0.0220434
0.000568338
0.0220279
0.000572399
0.0220222
0.000580478
0.0220048
0.000590972
0.0219936
0.000603805
0.0219827
0.000621683
0.021961
0.000640835
0.0219542
0.000665885
0.0219289
0.000693435
0.0219171
0.000724829
0.0218998
0.000761584
0.0218763
0.0218686
0.000799711
0.000543407
0.0217956
0.000590546
0.0218064
0.000629635
0.0218489
0.000667272
0.0218584
0.000700029
0.0218852
0.000729162
0.0219057
0.000756118
0.0219188
0.000777612
0.0219483
0.000797844
0.0219566
0.000813798
0.0219799
0.000827342
0.0219937
0.00083895
0.0220049
0.0008467
0.0220258
0.000853307
0.0220327
0.000857118
0.0220479
0.000858996
0.0220586
0.000859821
0.0220646
0.000857974
0.0220788
0.000855227
0.0220838
0.000851364
0.0220897
0.000846046
0.0220973
0.000840099
0.0221005
0.000833436
0.022104
0.000826188
0.0221068
0.000818643
0.0221079
0.000810929
0.0221082
0.000803418
0.0221066
0.000795985
0.0221053
0.00078892
0.0221025
0.000782848
0.0220966
0.000777144
0.0220934
0.000772636
0.0220861
0.000769573
0.0220774
0.000767074
0.0220728
0.000767232
0.0220579
0.000768584
0.02205
0.000771397
0.0220406
0.000777589
0.0220217
0.00078461
0.0220152
0.000795412
0.021994
0.000808367
0.0219807
0.000823388
0.0219677
0.000843191
0.0219412
0.000863964
0.0219334
0.000890357
0.0219025
0.000918938
0.0218885
0.000951046
0.0218676
0.000988196
0.0218392
0.0218304
0.00102635
0.000557289
0.0217437
0.000607528
0.0217561
0.000649938
0.0218064
0.000691153
0.0218172
0.000727747
0.0218486
0.000760983
0.0218725
0.0007923
0.0218875
0.000818404
0.0219222
0.000843483
0.0219315
0.000864507
0.0219589
0.000883329
0.0219749
0.000900408
0.0219879
0.000913804
0.0220124
0.000926216
0.0220203
0.000935973
0.0220381
0.000943921
0.0220506
0.000950919
0.0220576
0.000955334
0.0220744
0.000958917
0.0220802
0.000961432
0.0220872
0.000962526
0.0220962
0.000963
0.0221
0.000962752
0.0221043
0.000961895
0.0221077
0.000960696
0.0221091
0.000959265
0.0221096
0.000957961
0.0221079
0.000956635
0.0221067
0.000955559
0.0221036
0.000955351
0.0220968
0.000955356
0.0220934
0.000956394
0.0220851
0.0009587
0.0220751
0.000961366
0.0220702
0.000966491
0.0220528
0.000972583
0.0220439
0.000979894
0.0220333
0.00099035
0.0220112
0.00100136
0.0220041
0.0010159
0.0219795
0.0010323
0.0219643
0.00105048
0.0219495
0.00107316
0.0219185
0.00109649
0.0219101
0.00112515
0.0218739
0.00115566
0.021858
0.00118938
0.0218339
0.0012278
0.0218008
0.0217914
0.00126684
0.000525212
0.0216879
0.000579711
0.0217016
0.000626627
0.0217595
0.000672639
0.0217712
0.000714321
0.021807
0.000752939
0.0218338
0.000789936
0.0218505
0.000821996
0.0218902
0.000853309
0.0219002
0.000880819
0.0219314
0.00090637
0.0219493
0.000930403
0.0219638
0.000950954
0.0219918
0.000970709
0.0220005
0.000987973
0.0220209
0.00100358
0.022035
0.00101835
0.0220429
0.00103065
0.0220621
0.0010422
0.0220687
0.00105274
0.0220767
0.0010619
0.0220871
0.00107045
0.0220915
0.00107828
0.0220965
0.00108547
0.0221005
0.00109227
0.0221023
0.00109877
0.0221031
0.00110531
0.0221014
0.00111171
0.0221003
0.00111822
0.0220971
0.00112545
0.0220895
0.00113272
0.0220861
0.00114083
0.0220769
0.00115001
0.0220659
0.0011593
0.0220609
0.00117083
0.0220413
0.00118305
0.0220317
0.00119622
0.0220201
0.00121226
0.0219952
0.00122855
0.0219879
0.00124806
0.0219599
0.00126912
0.0219432
0.00129162
0.021927
0.0013183
0.0218919
0.00134528
0.0218831
0.00137725
0.0218419
0.00141073
0.0218245
0.00144704
0.0217976
0.00148769
0.0217601
0.0217505
0.00152855
0.00044077
0.0216267
0.000500868
0.0216415
0.000553651
0.0217067
0.000605874
0.021719
0.000654116
0.0217587
0.00069965
0.0217883
0.000743921
0.0218062
0.000783583
0.0218505
0.000822837
0.0218609
0.00085859
0.0218956
0.000892678
0.0219152
0.000925523
0.021931
0.000955126
0.0219622
0.000984169
0.0219715
0.00101092
0.0219941
0.00103619
0.0220097
0.00106079
0.0220183
0.00108304
0.0220398
0.00110465
0.0220471
0.00112533
0.022056
0.00114468
0.0220677
0.00116345
0.0220727
0.00118149
0.0220784
0.00119887
0.0220831
0.0012158
0.0220853
0.00123235
0.0220866
0.00124883
0.0220849
0.00126503
0.0220841
0.00128119
0.0220809
0.00129789
0.0220728
0.0013144
0.0220696
0.00133153
0.0220598
0.00134947
0.022048
0.00136724
0.0220431
0.00138696
0.0220216
0.00140706
0.0220116
0.00142776
0.0219994
0.00145101
0.021972
0.00147412
0.0219647
0.00150011
0.021934
0.00152726
0.0219161
0.00155545
0.0218988
0.00158744
0.0218599
0.00161931
0.0218512
0.00165579
0.0218054
0.00169334
0.0217869
0.00173331
0.0217577
0.00177722
0.0217162
0.0217069
0.00182084
0.000296929
0.0215589
0.000363979
0.0215745
0.000424256
0.0216465
0.000484462
0.0216588
0.000541078
0.0217021
0.000595377
0.021734
0.000648835
0.0217528
0.000698082
0.0218012
0.000747348
0.0218117
0.000793491
0.0218495
0.000838339
0.0218704
0.000882292
0.021887
0.000923307
0.0219212
0.000964063
0.0219307
0.00100278
0.0219554
0.00104026
0.0219723
0.00107727
0.0219812
0.0011121
0.022005
0.00114643
0.0220127
0.00117994
0.0220225
0.00121219
0.0220355
0.00124391
0.022041
0.00127491
0.0220474
0.00130521
0.0220528
0.00133501
0.0220555
0.00136432
0.0220573
0.00139344
0.0220558
0.00142211
0.0220554
0.00145054
0.0220525
0.00147928
0.0220441
0.00150756
0.0220413
0.00153616
0.0220312
0.00156525
0.0220189
0.00159381
0.0220145
0.00162396
0.0219914
0.00165408
0.0219814
0.00168437
0.0219691
0.00171678
0.0219395
0.00174859
0.0219329
0.00178281
0.0218997
0.00181771
0.0218812
0.00185315
0.0218634
0.00189192
0.0218211
0.00193003
0.0218131
0.00197229
0.0217632
0.00201509
0.0217441
0.0020598
0.0217129
0.00210794
0.0216681
0.0216596
0.00215522
8.29496e-05
0.021483
0.000159405
0.021498
0.000229488
0.0215764
0.000299971
0.0215883
0.000366966
0.0216351
0.000432287
0.0216687
0.000497387
0.0216877
0.000558767
0.0217399
0.000620664
0.0217498
0.00067988
0.0217903
0.000738261
0.021812
0.00079619
0.0218291
0.000851573
0.0218658
0.00090709
0.0218752
0.000960909
0.0219016
0.00101379
0.0219194
0.00106651
0.0219285
0.00111725
0.0219543
0.00116771
0.0219623
0.0012175
0.0219727
0.00126614
0.0219868
0.00131433
0.0219928
0.00136181
0.0219999
0.00140858
0.022006
0.00145477
0.0220094
0.00150036
0.0220117
0.00154559
0.0220105
0.00159016
0.0220108
0.00163422
0.0220085
0.0016783
0.022
0.00172157
0.0219981
0.00176477
0.021988
0.00180803
0.0219756
0.00185028
0.0219723
0.00189364
0.0219481
0.00193642
0.0219387
0.00197881
0.0219267
0.00202275
0.0218956
0.00206546
0.0218902
0.00210998
0.0218552
0.00215453
0.0218366
0.00219897
0.021819
0.00224613
0.0217739
0.00229193
0.0217673
0.00234126
0.0217138
0.00239047
0.0216949
0.00244092
0.0216625
0.00249417
0.0216148
0.021608
0.00254584
-0.000205692
0.0213976
-0.000119828
0.0214122
-3.96936e-05
0.0214963
4.18307e-05
0.0215068
0.000122054
0.0215549
0.000201338
0.0215894
0.000280965
0.021608
0.00035736
0.0216635
0.000434857
0.0216723
0.000510339
0.0217148
0.000585635
0.0217367
0.000661078
0.0217537
0.000734504
0.0217924
0.0008086
0.0218011
0.000881462
0.0218287
0.000953824
0.021847
0.00102641
0.0218559
0.00109736
0.0218833
0.00116832
0.0218913
0.00123884
0.0219022
0.0013084
0.0219173
0.0013776
0.0219236
0.00144616
0.0219314
0.00151399
0.0219382
0.00158117
0.0219422
0.00164759
0.0219453
0.00171346
0.0219447
0.00177839
0.0219459
0.00184246
0.0219444
0.00190615
0.0219363
0.00196855
0.0219357
0.00203035
0.0219262
0.00209164
0.0219143
0.00215124
0.0219127
0.00221129
0.021888
0.00227002
0.0218799
0.00232757
0.0218692
0.0023859
0.0218373
0.00244211
0.021834
0.00249932
0.021798
0.00255568
0.0217803
0.00261102
0.0217636
0.00266825
0.0217167
0.00272318
0.0217124
0.00278082
0.0216562
0.00283745
0.0216383
0.00289445
0.0216055
0.00295343
0.0215558
0.0215515
0.0030099
-0.000587219
0.0213005
-0.000488175
0.0213131
-0.000393836
0.0214019
-0.000297196
0.0214101
-0.000202438
0.0214601
-0.000107816
0.0214948
-1.16954e-05
0.0215119
8.25261e-05
0.0215692
0.000179239
0.0215756
0.000274756
0.0216193
0.00037089
0.0216406
0.000468019
0.0216565
0.000563911
0.0216965
0.000661287
0.0217038
0.000758151
0.0217319
0.000855182
0.02175
0.000953028
0.0217581
0.00104972
0.0217866
0.00114686
0.0217942
0.00124392
0.0218051
0.00134029
0.0218209
0.0014365
0.0218274
0.00153216
0.0218357
0.00162712
0.0218432
0.00172134
0.021848
0.00181463
0.021852
0.00190711
0.0218522
0.00199826
0.0218547
0.0020881
0.0218546
0.00217702
0.0218474
0.00226397
0.0218487
0.00234959
0.0218406
0.00243388
0.0218301
0.00251555
0.021831
0.00259674
0.0218068
0.00267553
0.0218011
0.00275202
0.0217927
0.0028282
0.0217611
0.00290102
0.0217612
0.00297367
0.0217253
0.00304423
0.0217097
0.0031125
0.0216953
0.00318148
0.0216477
0.00324687
0.021647
0.00331383
0.0215892
0.00337855
0.0215736
0.00344248
0.0215415
0.00350728
0.021491
0.0214904
0.00356836
-0.00108242
0.0211911
-0.00096951
0.0212002
-0.000860027
0.0212924
-0.000746685
0.0212968
-0.00063324
0.0213467
-0.000518379
0.0213799
-0.000400638
0.0213942
-0.000283903
0.0214525
-0.000163741
0.0214554
-4.35312e-05
0.0214991
7.8594e-05
0.0215184
0.000202825
0.0215323
0.000326827
0.0215725
0.000453622
0.021577
0.000580925
0.0216046
0.000709321
0.0216216
0.000839419
0.021628
0.000969101
0.0216569
0.00109989
0.0216634
0.00123114
0.0216739
0.00136213
0.0216899
0.00149327
0.0216963
0.00162405
0.0217049
0.00175422
0.021713
0.00188357
0.0217186
0.00201179
0.0217237
0.00213889
0.0217251
0.00226415
0.0217295
0.00238746
0.0217312
0.00250911
0.0217258
0.00262783
0.02173
0.0027442
0.0217242
0.00285806
0.0217162
0.00296795
0.0217211
0.00307599
0.0216988
0.0031801
0.021697
0.00328029
0.0216925
0.00337855
0.0216628
0.00347165
0.0216681
0.00356289
0.0216341
0.00365023
0.0216224
0.00373346
0.0216121
0.00381571
0.0215655
0.00389253
0.0215702
0.00396933
0.0215124
0.00404218
0.0215007
0.00411265
0.0214711
0.00418251
0.0214212
0.0214259
0.00424705
-0.00172092
0.0210696
-0.00159353
0.0210728
-0.00146756
0.0211665
-0.00133545
0.0211647
-0.00120118
0.0212124
-0.00106331
0.0212421
-0.000920288
0.0212512
-0.000776018
0.0213082
-0.000625923
0.0213053
-0.000473806
0.0213469
-0.000317906
0.0213625
-0.00015807
0.0213725
3.06617e-06
0.0214114
0.000167489
0.0214125
0.000333308
0.0214387
0.000501915
0.021453
0.000673466
0.0214564
0.000845622
0.0214848
0.00101987
0.0214891
0.0011954
0.0214983
0.00137136
0.021514
0.00154801
0.0215196
0.00172468
0.0215283
0.00190095
0.0215368
0.00207641
0.0215432
0.00225055
0.0215496
0.00242319
0.0215524
0.00259336
0.0215593
0.00276072
0.0215639
0.00292539
0.0215611
0.00308578
0.0215696
0.00324232
0.0215677
0.00339466
0.0215638
0.00354103
0.0215748
0.00368356
0.0215562
0.00381988
0.0215607
0.00394983
0.0215626
0.00407548
0.0215372
0.00419329
0.0215503
0.0043067
0.0215207
0.00441352
0.0215156
0.00451352
0.0215121
0.00461003
0.021469
0.00469841
0.0214818
0.00478444
0.0214264
0.0048641
0.0214211
0.00493916
0.021396
0.00501159
0.0213488
0.0213609
0.00507656
-0.00254451
0.0209383
-0.00240378
0.0209321
-0.00226163
0.0210243
-0.0021099
0.0210129
-0.00195245
0.021055
-0.00178754
0.0210771
-0.00161354
0.0210772
-0.00143473
0.0211294
-0.00124667
0.0211173
-0.00105362
0.0211539
-0.000854116
0.021163
-0.000648393
0.0211667
-0.000439385
0.0212023
-0.000224254
0.0211974
-5.77663e-06
0.0212203
0.000215047
0.0212322
0.000439628
0.0212319
0.000666866
0.0212576
0.000897492
0.0212585
0.00113068
0.0212652
0.00136545
0.0212792
0.00160186
0.0212832
0.00183906
0.0212911
0.00207644
0.0212994
0.00231323
0.0213064
0.00254863
0.0213142
0.00278221
0.0213189
0.00301253
0.021329
0.00323889
0.0213375
0.00346114
0.0213388
0.00367716
0.0213536
0.00388711
0.0213577
0.00409032
0.0213606
0.00428455
0.0213805
0.00447193
0.0213689
0.0046496
0.021383
0.00481725
0.0213949
0.00497697
0.0213775
0.00512479
0.0214025
0.00526436
0.0213811
0.00539327
0.0213867
0.00551126
0.0213941
0.00562196
0.0213583
0.00572048
0.0213833
0.00581317
0.0213337
0.00589597
0.0213383
0.00597104
0.0213209
0.00604075
0.021279
0.0213015
0.00610015
-0.00298945
0.020831
-0.00287099
0.0208136
-0.0027464
0.0208997
-0.00260626
0.0208728
-0.00245354
0.0209022
-0.00228728
0.0209109
-0.00210717
0.0208971
-0.00191823
0.0209405
-0.00171774
0.0209168
-0.00151036
0.0209465
-0.00129552
0.0209482
-0.0010739
0.0209451
-0.000848334
0.0209768
-0.000616904
0.020966
-0.000381784
0.0209851
-0.000141868
0.0209923
0.000102453
0.0209875
0.000347896
0.0210121
0.000598418
0.021008
0.000852451
0.0210111
0.00110933
0.0210223
0.00136904
0.0210235
0.00163071
0.0210294
0.00189364
0.0210365
0.00215683
0.0210432
0.00241921
0.0210518
0.00268005
0.021058
0.00293754
0.0210715
0.00319058
0.0210845
0.00343863
0.0210908
0.0036792
0.021113
0.00391205
0.0211249
0.0041362
0.0211365
0.00434917
0.0211676
0.00455272
0.0211653
0.00474395
0.0211918
0.00492242
0.0212164
0.00508996
0.0212099
0.00524281
0.0212496
0.0053843
0.0212396
0.00551217
0.0212588
0.00562614
0.0212801
0.00572947
0.0212549
0.00581768
0.0212951
0.00589657
0.0212548
0.00596255
0.0212723
0.00601797
0.0212655
0.00606563
0.0212314
0.0212653
0.00610183
-0.00327074
0.0207459
-0.00318417
0.020727
-0.00308784
0.0208034
-0.00296521
0.0207502
-0.00281843
0.0207555
-0.00264944
0.0207419
-0.00246154
0.0207092
-0.00226209
0.020741
-0.00205085
0.0207055
-0.00183318
0.0207288
-0.00160926
0.0207243
-0.00137994
0.0207158
-0.00114767
0.0207445
-0.000910558
0.0207289
-0.000670289
0.0207449
-0.0004262
0.0207482
-0.000177324
0.0207387
7.55111e-05
0.0207593
0.000331167
0.0207523