/*--------------------------------*- C++ -*----------------------------------*\
| =========                 |                                                 |
| \\      /  F ield         | OpenFOAM: The Open Source CFD Toolbox           |
|  \\    /   O peration     | Version:  2312                                  |
|   \\  /    A nd           | Website:  www.openfoam.com                      |
|    \\/     M anipulation  |                                                 |
\*---------------------------------------------------------------------------*/
FoamFile
{
    version     2.0;
    format      ascii;
    arch        "LSB;label=32;scalar=64";
    class       surfaceScalarField;
    location    "76.907725486766452";
    object      phi;
}
// * * * * * * * * * * * * * * * * * * * * * * * * * * * * * * * * * * * * * //

dimensions      [0 3 -1 0 0 0 0];

oriented        oriented;

internalField   nonuniform List<scalar> 
41713
(
0.00736332
0.0568831
0.00362964
0.0679801
0.00211877
0.0657573
0.00148656
0.0648786
0.00110129
0.0646317
0.000847714
0.0645
0.00067318
0.064421
0.00054676
0.0643729
0.000451846
0.0643414
0.000378783
0.0643195
0.000321445
0.0643038
0.000275778
0.0642921
0.000239016
0.0642832
0.000209218
0.0642762
0.000184988
0.0642707
0.000165303
0.0642661
0.000149395
0.0642623
0.000136677
0.0642592
0.000126684
0.0642564
0.000119027
0.0642541
0.000113339
0.0642521
0.000109246
0.0642505
0.000106459
0.0642492
0.000104579
0.0548131
0.000102946
0.0456776
0.000101361
0.0380649
9.98468e-05
0.0317209
9.84395e-05
0.0264343
0.0220287
9.71208e-05
0.00999528
0.0468878
0.00843009
0.0695453
0.00571985
0.0684675
0.00412778
0.0664707
0.00312873
0.0656308
0.002439
0.0651897
0.00194279
0.0649172
0.00157467
0.064741
0.00129435
0.0646217
0.00107602
0.0645378
0.000902742
0.064477
0.000763149
0.0644317
0.000649389
0.064397
0.000555921
0.0643697
0.000478756
0.0643478
0.000414968
0.0643299
0.000362379
0.0643149
0.000319339
0.0643022
0.000284574
0.0642912
0.000257074
0.0642816
0.000236011
0.0642732
0.000220655
0.0642659
0.000210266
0.0642596
0.000204409
0.0548189
0.000201046
0.045681
0.000198895
0.038067
0.000197231
0.0317226
0.000195719
0.0264358
0.02203
0.000194392
0.00859629
0.0382915
0.00970959
0.068432
0.00747397
0.0707032
0.0057073
0.0682374
0.00452117
0.0668169
0.00363808
0.0660728
0.00295781
0.0655974
0.00242876
0.06527
0.00201226
0.0650382
0.00167976
0.0648703
0.00141081
0.064746
0.0011908
0.0646517
0.00100919
0.0645786
0.00085827
0.0645206
0.000732385
0.0644737
0.00062731
0.064435
0.000539871
0.0644024
0.000467656
0.0643744
0.000408803
0.06435
0.000361857
0.0643285
0.000325654
0.0643094
0.000299216
0.0642923
0.000281554
0.0642773
0.00027214
0.0548283
0.000267388
0.0456857
0.000264911
0.0380695
0.000263336
0.0317242
0.000262021
0.0264371
0.0220311
0.000260909
0.00677427
0.0315173
0.00947414
0.0657321
0.00812194
0.0720554
0.00644509
0.0699142
0.00525671
0.0680053
0.00435379
0.0669758
0.00362487
0.0663264
0.0030306
0.0658643
0.0025438
0.065525
0.00214246
0.0652717
0.00180932
0.0650791
0.00153101
0.06493
0.00129722
0.0648124
0.00110008
0.0647178
0.000933562
0.0646402
0.000793043
0.0645755
0.000674981
0.0645204
0.000576648
0.0644727
0.000495926
0.0644308
0.00043116
0.0643933
0.000381035
0.0643595
0.000344453
0.0643289
0.00032022
0.0643015
0.000307679
0.0548409
0.000301775
0.0456916
0.000299099
0.0380722
0.000297724
0.0317256
0.000296787
0.026438
0.0220318
0.000296153
0.00506351
0.0264538
0.00856552
0.0622301
0.00817858
0.0724423
0.0067379
0.0713549
0.00558536
0.0691578
0.00471173
0.0678494
0.00399578
0.0670423
0.00339372
0.0664664
0.0028846
0.0660341
0.00245251
0.0657038
0.00208451
0.0654471
0.00177012
0.0652444
0.00150089
0.0650816
0.00127007
0.0649486
0.00107229
0.064838
0.000903319
0.0647445
0.000759843
0.0646639
0.00063926
0.0645933
0.000539539
0.0645305
0.000459089
0.0644738
0.000396645
0.064422
0.000351133
0.0643744
0.000321274
0.0643314
0.000306309
0.0548558
0.000299818
0.0456981
0.000297449
0.0380746
0.00029677
0.0317262
0.000296696
0.0264381
0.0220315
0.000296988
0.00361592
0.0228378
0.00730364
0.0585424
0.00777481
0.0719711
0.0067186
0.0724111
0.00566043
0.070216
0.00483682
0.068673
0.0041571
0.067722
0.00357309
0.0670504
0.00306696
0.0665402
0.00262718
0.0661435
0.00224427
0.06583
0.00191042
0.0655783
0.00161922
0.0653728
0.00136541
0.0652024
0.00114476
0.0650587
0.000953832
0.0649354
0.000789904
0.0648278
0.000650831
0.0647324
0.000534941
0.0646464
0.000440935
0.0645678
0.00036779
0.0644951
0.000314612
0.0644276
0.000280197
0.0643658
0.000263704
0.0548723
0.000257403
0.0457044
0.00025605
0.0380759
0.000256746
0.0317255
0.000258188
0.0264367
0.0220297
0.000260005
0.00251988
0.020318
0.00600865
0.0550536
0.00708484
0.0708949
0.00645693
0.073039
0.00554745
0.0711255
0.00479325
0.0694272
0.004164
0.0683513
0.00361288
0.0676015
0.00312407
0.067029
0.00268998
0.0665776
0.00230437
0.0662156
0.00196188
0.0659208
0.001658
0.0656767
0.00138901
0.0654714
0.00115185
0.0652958
0.000944038
0.0651432
0.000763631
0.0650082
0.000609115
0.0648869
0.000479356
0.0647761
0.000373522
0.0646736
0.000291005
0.0645776
0.000231235
0.0644874
0.00019322
0.0644038
0.000176045
0.0548895
0.000170686
0.0457098
0.000171065
0.0380755
0.000173818
0.0317228
0.000177458
0.026433
0.0220256
0.000181495
0.00175533
0.0185626
0.00487659
0.0519324
0.00630391
0.0694676
0.00605632
0.0732866
0.00531321
0.0718686
0.00463329
0.0701071
0.00405748
0.0689271
0.00354568
0.0681133
0.00308201
0.0674927
0.00266143
0.0669982
0.00228049
0.0665966
0.00193608
0.0662652
0.0016255
0.0659873
0.00134644
0.0657504
0.00109703
0.0655452
0.000875784
0.0653645
0.00068158
0.0652024
0.000513638
0.0650549
0.00037147
0.0649183
0.000254849
0.0647902
0.000163741
0.0646687
9.80899e-05
0.064553
5.71623e-05
0.0644447
3.96882e-05
0.054907
3.57592e-05
0.0457137
3.84247e-05
0.0380729
4.38069e-05
0.0317174
5.00704e-05
0.0264268
0.022019
5.67325e-05
0.00124448
0.0173182
0.00395591
0.049221
0.00554683
0.0678767
0.00560157
0.0732319
0.00501933
0.0724508
0.004408
0.0707184
0.00387817
0.0694569
0.00340294
0.0685885
0.00296528
0.0679304
0.00256081
0.0674027
0.00218783
0.0669696
0.00184492
0.0666081
0.00153084
0.0663013
0.00124455
0.0660367
0.000985248
0.0658045
0.000752389
0.0655973
0.000545693
0.0654091
0.000365142
0.0652354
0.000210971
0.0650725
8.35756e-05
0.0649176
-1.65595e-05
0.0647689
-8.89028e-05
0.0646254
-0.000133571
0.0644894
-0.000151404
0.0549248
-0.000153758
0.0457161
-0.000148425
0.0380675
-0.000139741
0.0317087
-0.000129822
0.0264168
0.0220088
-0.000119647
0.000910292
0.0164079
0.0032276
0.0469036
0.00485729
0.066247
0.00513731
0.0729519
0.00470194
0.0728862
0.0041525
0.0712679
0.00365863
0.0699508
0.00321238
0.0690348
0.00279672
0.068346
0.00240673
0.0677927
0.00204146
0.0673348
0.00170053
0.066949
0.00138371
0.0666182
0.00109094
0.0663295
0.000822306
0.0660732
0.000578086
0.0658415
0.000358794
0.0656284
0.000165135
0.0654291
-2.02455e-06
0.0652396
-0.000141598
0.0650572
-0.000252246
0.0648795
-0.00033261
0.0647057
-0.000382154
0.0645389
-0.000401271
0.0549439
-0.000402348
0.0457171
-0.000394116
0.0380593
-0.000381574
0.0316962
-0.000367268
0.0264025
0.0219939
-0.000352408
0.000693041
0.0157148
0.00265823
0.0449385
0.00424794
0.0646573
0.00468521
0.0725146
0.00437826
0.0731931
0.0038852
0.071761
0.00341896
0.070417
0.00299368
0.06946
0.00259428
0.0687454
0.00221499
0.068172
0.00185495
0.0676949
0.00151436
0.0672896
0.00119365
0.0669389
0.000893402
0.0666297
0.000614389
0.0663522
0.000357588
0.0660983
0.000124135
0.0658619
-8.46844e-05
0.0656379
-0.000267289
0.0654222
-0.00042172
0.0652116
-0.000545768
0.0650036
-0.000637245
0.0647972
-0.00069477
0.0645965
-0.000717561
0.0549667
-0.000719034
0.0457186
-0.000708891
0.0380492
-0.000692864
0.0316802
-0.000674114
0.0263838
0.0219742
-0.000654408
0.000549167
0.0151657
0.00221353
0.0432741
0.00371821
0.0631526
0.00425719
0.0719756
0.00405805
0.0733923
0.00361601
0.072203
0.00317108
0.070862
0.0027597
0.0698714
0.00237075
0.0691344
0.00199772
0.068545
0.00163948
0.0680531
0.00129644
0.0676326
0.000969396
0.0672659
0.000659381
0.0669398
0.000367661
0.0666439
9.56627e-05
0.0663703
-0.000155035
0.0661126
-0.000382497
0.0658653
-0.000584348
0.0656241
-0.00075784
0.0653851
-0.000899939
0.0651457
-0.00100757
0.0649048
-0.00107842
0.0646673
-0.00110948
0.0549978
-0.0011149
0.045724
-0.00110533
0.0380396
-0.00108735
0.0316622
-0.00106492
0.0263614
0.0219498
-0.00104054
0.000449443
0.0147162
0.00186306
0.0418605
0.00326084
0.0617548
0.00385924
0.0713772
0.00374778
0.0735037
0.00335134
0.0725994
0.00292289
0.0712904
0.00251951
0.0702748
0.00213563
0.0695183
0.00176441
0.0689162
0.0014042
0.0684133
0.00105536
0.0679815
0.000718826
0.0676024
0.000395893
0.0672627
8.80528e-05
0.0669518
-0.000203019
0.0666614
-0.000475247
0.0663848
-0.000726041
0.0661161
-0.000952374
0.0658504
-0.00115081
0.0655835
-0.00131754
0.0653124
-0.00144868
0.065036
-0.00154108
0.0647597
-0.00158808
0.0550448
-0.00160393
0.0457399
-0.00159999
0.0380357
-0.00158368
0.0316459
-0.0015599
0.0263376
0.0219222
-0.00153222
0.00037614
0.0143401
0.00158277
0.0406538
0.00286613
0.0604715
0.00349316
0.0707502
0.0034514
0.0735455
0.00309546
0.0729554
0.00268008
0.0717058
0.00228006
0.0706748
0.00189658
0.0699017
0.00152302
0.0692898
0.00115711
0.0687792
0.000798913
0.0683397
0.000449342
0.067952
0.000109665
0.0676024
-0.000218616
0.06728
-0.000533562
0.0669763
-0.000832634
0.0666839
-0.00111277
0.0663963
-0.0013704
0.0661081
-0.00160144
0.0658146
-0.00180144
0.0655124
-0.00196592
0.0652005
-0.00209135
0.0648851
-0.00216587
0.0551193
-0.002203
0.045777
-0.00221397
0.0380466
-0.00220655
0.0316384
-0.00218673
0.0263178
0.0218949
-0.00215948
0.00031921
0.0140209
0.00135672
0.0396163
0.00252749
0.0593007
0.0031606
0.0701171
0.00317182
0.0735343
0.00285098
0.0732762
0.00244622
0.0721106
0.00204628
0.0710748
0.00165949
0.0702885
0.00128001
0.0696692
0.000904985
0.0691543
0.000534038
0.0687106
0.000167812
0.0683182
-0.000192698
0.0679629
-0.000546015
0.0676334
-0.000889983
0.0673203
-0.00122182
0.0670157
-0.00153813
0.0667126
-0.00183483
0.0664048
-0.00210725
0.066087
-0.00235038
0.0657555
-0.00255959
0.0654097
-0.00273205
0.0650576
-0.00285017
0.0552374
-0.0029263
0.0458531
-0.00296997
0.0380903
-0.00298711
0.0316556
-0.0029831
0.0263137
0.021876
-0.00296415
0.000234781
0.0137861
0.000999283
0.0388518
0.00190316
0.0583968
0.00243102
0.0695892
0.00247205
0.0734932
0.00222539
0.0735229
0.00189133
0.0724446
0.00155291
0.0714132
0.00122251
0.0706189
0.000896079
0.0699957
0.000570718
0.0694796
0.000245642
0.0690357
-7.90543e-05
0.0686429
-0.000402812
0.0682866
-0.000724523
0.0679551
-0.00104246
0.0676383
-0.00135431
0.0673276
-0.00165703
0.0670153
-0.00194686
0.0666946
-0.00221928
0.0663594
-0.0024693
0.0660055
-0.00269247
0.0656328
-0.00288696
0.0652521
-0.00303342
0.0553839
-0.00314373
0.0459635
-0.0032255
0.0381721
-0.00328052
0.0317106
-0.00330923
0.0263425
0.0218825
-0.00331577
0.000176176
0.0136099
0.000747373
0.0382806
0.00144618
0.057698
0.0018786
0.0691568
0.00193091
0.0734409
0.00174029
0.0737135
0.00146644
0.0727185
0.00118323
0.0716964
0.000904491
0.0708977
0.000627383
0.0702728
0.000349075
0.0697579
6.84876e-05
0.0693163
-0.000214739
0.0689262
-0.000500419
0.0685723
-0.000787893
0.0682425
-0.00107603
0.0679264
-0.00136312
0.0676147
-0.00164677
0.067299
-0.00192378
0.0669716
-0.00219006
0.0666257
-0.00244072
0.0662562
-0.00267091
0.065863
-0.00287791
0.0654591
-0.00303998
0.0555459
-0.00317132
0.0460948
-0.00328393
0.0382847
-0.00338294
0.0318096
-0.00346637
0.0264259
0.021937
-0.00352084
0.000136367
0.0134735
0.000571995
0.037845
0.00111864
0.0571514
0.00147213
0.0688033
0.00152644
0.0733866
0.00137767
0.0738623
0.00115318
0.072943
0.000916935
0.0719326
0.000682659
0.071132
0.000448403
0.070507
0.000211523
0.0699948
-2.92563e-05
0.0695571
-0.000274467
0.0691714
-0.000524312
0.0688222
-0.000778582
0.0684968
-0.0010367
0.0681845
-0.00129761
0.0678756
-0.00155965
0.067561
-0.00182037
0.0672323
-0.00207644
0.0668818
-0.00232344
0.0665032
-0.00255629
0.0660959
-0.00276996
0.0656728
-0.00293632
0.0557123
-0.00306752
0.046226
-0.003181
0.0383982
-0.00329137
0.03192
-0.0034168
0.0265513
0.0220889
-0.00356875
0.00010489
0.0133686
0.000445177
0.0375047
0.000881388
0.0567152
0.00117244
0.0685123
0.00122281
0.0733362
0.00110324
0.0739818
0.000917737
0.0731285
0.000720908
0.0721295
0.000524808
0.0713281
0.000327651
0.0707042
0.000126987
0.0701955
-7.84609e-05
0.0697625
-0.000289366
0.0693823
-0.000506123
0.0690389
-0.000728918
0.0687196
-0.00095766
0.0684133
-0.00119189
0.0681098
-0.00143067
0.0677998
-0.0016724
0.067474
-0.00191474
0.0671241
-0.00215451
0.066743
-0.00238776
0.0663291
-0.0026093
0.0658943
-0.00278395
0.0558869
-0.00291237
0.0463544
-0.00300189
0.0384877
-0.00306269
0.0319808
-0.00311246
0.0266011
-0.00328839
0.0222648
0.000141872
0.0219826
0.000184093
0.0219851
0.000217365
0.0219941
0.000248283
0.0219964
0.000273374
0.0220023
0.000293926
0.0220068
0.000311438
0.0220098
0.000322625
0.0220162
0.000331793
0.0220182
0.000335933
0.0220232
0.000336994
0.0220263
0.000335516
0.0220288
0.000329584
0.0220333
0.000322036
0.0220349
0.000311226
0.0220382
0.000298097
0.0220405
0.000283616
0.0220418
0.000266144
0.0220448
0.000247591
0.0220459
0.000227782
0.0220472
0.000206393
0.0220487
0.000184371
0.0220494
0.000161662
0.0220501
0.000138426
0.0220506
0.000115062
0.0220507
9.17371e-05
0.0220507
6.88391e-05
0.0220503
4.63628e-05
0.0220498
2.46299e-05
0.0220491
4.28148e-06
0.0220477
-1.51834e-05
0.0220468
-3.29326e-05
0.0220451
-4.86619e-05
0.0220431
-6.31386e-05
0.0220418
-7.43195e-05
0.0220385
-8.3531e-05
0.0220366
-9.04653e-05
0.0220343
-9.32249e-05
0.0220301
-9.42052e-05
0.0220283
-9.05113e-05
0.0220237
-8.36598e-05
0.0220205
-7.3685e-05
0.0220174
-5.79074e-05
0.0220116
-3.99707e-05
0.0220094
-1.53123e-05
0.0220027
1.27901e-05
0.0219993
4.57037e-05
0.0219944
8.4978e-05
0.0219881
0.0219856
0.000126754
0.000239096
0.0219379
0.000281482
0.0219427
0.000315139
0.0219604
0.000346666
0.0219649
0.000372604
0.0219763
0.000394233
0.0219852
0.00041304
0.021991
0.000425741
0.0220035
0.000436616
0.0220073
0.000442653
0.0220172
0.000445782
0.0220232
0.00044653
0.0220281
0.000442976
0.0220368
0.000437933
0.0220399
0.00042975
0.0220463
0.000419353
0.0220509
0.000407689
0.0220535
0.000393124
0.0220594
0.000377535
0.0220615
0.000360739
0.022064
0.000342407
0.0220671
0.00032346
0.0220683
0.000303836
0.0220697
0.000283688
0.0220707
0.00026339
0.022071
0.0002431
0.022071
0.000223203
0.0220702
0.000203665
0.0220694
0.000184803
0.022068
0.000167254
0.0220653
0.000150489
0.0220636
0.000135338
0.0220603
0.00012209
0.0220563
0.000109951
0.022054
0.000100973
0.0220475
9.37978e-05
0.0220437
8.87228e-05
0.0220394
8.76474e-05
0.0220312
8.81415e-05
0.0220278
9.31093e-05
0.0220187
0.000101009
0.0220126
0.000111792
0.0220066
0.000128143
0.0219952
0.000146381
0.0219912
0.000171084
0.021978
0.000198936
0.0219714
0.000231291
0.0219621
0.000269677
0.0219497
0.021945
0.000310207
0.000305826
0.021893
0.000348633
0.0218999
0.000382959
0.0219261
0.000415403
0.0219325
0.000442504
0.0219492
0.000465533
0.0219621
0.000485964
0.0219706
0.000500506
0.0219889
0.00051342
0.0219944
0.000521688
0.0220089
0.000527224
0.0220176
0.000530539
0.0220248
0.000529708
0.0220377
0.000527519
0.0220421
0.000522317
0.0220516
0.000515011
0.0220582
0.000506529
0.022062
0.000495236
0.0220707
0.000482983
0.0220738
0.000469575
0.0220774
0.000454678
0.022082
0.000439188
0.0220838
0.000423033
0.0220858
0.000406358
0.0220874
0.000389515
0.0220879
0.000372651
0.0220878
0.000356143
0.0220867
0.000339936
0.0220856
0.000324335
0.0220836
0.00030997
0.0220796
0.000296287
0.0220773
0.000284112
0.0220724
0.000273722
0.0220667
0.000264298
0.0220634
0.000257898
0.0220539
0.000253135
0.0220485
0.000250295
0.0220422
0.000251279
0.0220302
0.000253623
0.0220255
0.000260238
0.0220121
0.000269558
0.0220033
0.000281521
0.0219946
0.000298812
0.0219779
0.000317717
0.0219723
0.000342822
0.0219529
0.00037078
0.0219434
0.000402936
0.0219299
0.000440804
0.0219118
0.0219054
0.000480455
0.000341796
0.0218473
0.000385523
0.0218562
0.000421001
0.0218906
0.000454845
0.0218986
0.000483599
0.0219205
0.00050853
0.0219372
0.000531101
0.021948
0.000548013
0.021972
0.000563513
0.0219789
0.000574572
0.0219979
0.000583088
0.0220091
0.000589558
0.0220183
0.000592046
0.0220352
0.000593322
0.0220409
0.000591719
0.0220532
0.000588132
0.0220618
0.000583469
0.0220666
0.000576089
0.0220781
0.000567821
0.022082
0.000558457
0.0220867
0.000547652
0.0220928
0.00053628
0.0220952
0.000524258
0.0220979
0.00051172
0.0221
0.000498995
0.0221006
0.00048622
0.0221006
0.000473761
0.0220991
0.000461541
0.0220978
0.000449853
0.0220952
0.000439321
0.0220902
0.000429365
0.0220872
0.000420805
0.022081
0.000413904
0.0220736
0.000407822
0.0220695
0.000404616
0.0220571
0.000402878
0.0220502
0.000402879
0.0220422
0.000406519
0.0220266
0.000411307
0.0220207
0.000420157
0.0220032
0.000431481
0.021992
0.000445204
0.0219809
0.000464013
0.0219591
0.000484162
0.0219521
0.000510246
0.0219268
0.000538889
0.0219148
0.000571426
0.0218974
0.000609363
0.0218739
0.021866
0.00064873
0.000344072
0.0218003
0.000389433
0.0218109
0.000426772
0.0218533
0.000462734
0.0218627
0.000493864
0.0218893
0.000521432
0.0219096
0.000546896
0.0219226
0.000566943
0.021952
0.000585813
0.02196
0.00060046
0.0219832
0.000612772
0.0219968
0.000623231
0.0220078
0.000629885
0.0220285
0.000635489
0.0220353
0.000638363
0.0220503
0.000639382
0.0220608
0.000639442
0.0220666
0.000636884
0.0220806
0.000633522
0.0220854
0.000629129
0.0220911
0.000623348
0.0220986
0.000617033
0.0221015
0.000610086
0.0221048
0.000602625
0.0221074
0.000594963
0.0221082
0.000587219
0.0221084
0.000579748
0.0221066
0.000572451
0.0221051
0.000565609
0.0221021
0.000559833
0.0220959
0.000554522
0.0220925
0.000550486
0.022085
0.000547972
0.0220761
0.000546122
0.0220713
0.000546991
0.0220563
0.000549146
0.0220481
0.000552847
0.0220385
0.000559992
0.0220194
0.000568061
0.0220126
0.000579975
0.0219913
0.000594122
0.0219778
0.000610418
0.0219646
0.000631553
0.021938
0.000653749
0.0219299
0.000681616
0.0218989
0.000711749
0.0218847
0.000745475
0.0218637
0.000784298
0.0218351
0.0218261
0.000824201
0.000309424
0.0217508
0.000357318
0.021763
0.000397412
0.0218132
0.00043641
0.0218237
0.000470855
0.0218549
0.000502023
0.0218785
0.000531368
0.0218932
0.000555561
0.0219278
0.000578841
0.0219367
0.00059814
0.0219639
0.000615336
0.0219796
0.000630896
0.0219923
0.000642847
0.0220166
0.000653936
0.0220242
0.000662459
0.0220418
0.000669277
0.0220539
0.000675269
0.0220606
0.000678754
0.0220771
0.000681532
0.0220826
0.000683357
0.0220893
0.000683852
0.0220981
0.000683855
0.0221015
0.000683247
0.0221054
0.00068213
0.0221085
0.000680796
0.0221096
0.000679347
0.0221098
0.000678121
0.0221078
0.000677001
0.0221062
0.000676249
0.0221028
0.000676461
0.0220957
0.000677016
0.022092
0.000678709
0.0220833
0.000681776
0.0220731
0.000685333
0.0220678
0.000691433
0.0220502
0.00069862
0.0220409
0.000707142
0.02203
0.000718892
0.0220077
0.000731325
0.0220002
0.000747364
0.0219753
0.00076538
0.0219598
0.000785274
0.0219447
0.000809745
0.0219135
0.00083498
0.0219047
0.000865611
0.0218683
0.000898198
0.0218521
0.000934068
0.0218278
0.000974717
0.0217944
0.0217848
0.00101608
0.000234293
0.021698
0.000285834
0.0217114
0.00032985
0.0217692
0.000373054
0.0217805
0.000411988
0.021816
0.000447953
0.0218425
0.000482423
0.0218588
0.000512042
0.0218982
0.000541055
0.0219077
0.000566365
0.0219386
0.000589841
0.0219561
0.000611935
0.0219702
0.000630646
0.0219979
0.000648714
0.0220061
0.000664407
0.0220261
0.000678571
0.0220398
0.000692066
0.0220471
0.000703184
0.022066
0.000713711
0.0220721
0.000723378
0.0220796
0.000731784
0.0220897
0.000739749
0.0220935
0.00074713
0.022098
0.000754009
0.0221017
0.000760655
0.0221029
0.000767149
0.0221033
0.00077381
0.0221012
0.000780495
0.0220995
0.000787447
0.0220959
0.000795246
0.0220879
0.000803245
0.022084
0.000812223
0.0220744
0.0008224
0.0220629
0.000832863
0.0220573
0.000845666
0.0220373
0.000859324
0.0220272
0.000874069
0.0220152
0.000891795
0.0219899
0.000909922
0.0219821
0.000931385
0.0219538
0.000954528
0.0219367
0.000979242
0.02192
0.00100824
0.0218845
0.00103766
0.0218753
0.00107217
0.0218338
0.0011083
0.021816
0.00114737
0.0217887
0.00119086
0.0217509
0.021741
0.00123468
0.000114201
0.0216406
0.00017093
0.0216547
0.000220098
0.02172
0.000268812
0.0217317
0.000313739
0.021771
0.000356097
0.0218002
0.000397307
0.0218175
0.000433972
0.0218615
0.000470378
0.0218713
0.000503403
0.0219056
0.000534918
0.0219246
0.000565353
0.0219398
0.000592674
0.0219705
0.000619617
0.0219792
0.000644415
0.0220013
0.000667896
0.0220163
0.000690902
0.0220241
0.000711687
0.0220452
0.000732025
0.0220517
0.000751617
0.02206
0.000770035
0.0220712
0.000788076
0.0220755
0.00080557
0.0220805
0.00082257
0.0220846
0.000839322
0.0220862
0.000855877
0.0220868
0.000872531
0.0220845
0.000889112
0.0220829
0.000905836
0.0220792
0.000923264
0.0220705
0.000940713
0.0220665
0.00095895
0.0220561
0.000978167
0.0220437
0.000997422
0.0220381
0.00101877
0.022016
0.00104068
0.0220053
0.00106338
0.0219925
0.00108875
0.0219646
0.00111419
0.0219566
0.00114263
0.0219254
0.00117239
0.0219069
0.00120335
0.021889
0.00123824
0.0218496
0.00127317
0.0218403
0.00131281
0.0217941
0.00135367
0.0217751
0.00139706
0.0217453
0.00144449
0.0217035
0.0216937
0.00149176
-5.70184e-05
0.0215779
5.09886e-06
0.0215926
6.13217e-05
0.0216638
0.000117943
0.0216751
0.000171059
0.0217179
0.0002219
0.0217493
0.000271755
0.0217677
0.000317536
0.0218157
0.000363512
0.0218254
0.000406461
0.0218626
0.000448242
0.0218828
0.000489288
0.0218987
0.000527541
0.0219323
0.000565742
0.021941
0.00060208
0.0219649
0.000637367
0.021981
0.000672421
0.021989
0.000705453
0.0220122
0.000738223
0.022019
0.000770396
0.0220279
0.000801508
0.0220401
0.00083233
0.0220447
0.000862654
0.0220502
0.000892502
0.0220548
0.000922084
0.0220566
0.000951415
0.0220574
0.000980762
0.0220552
0.00100991
0.0220538
0.00103905
0.02205
0.0010687
0.0220408
0.00109815
0.0220371
0.00112814
0.0220261
0.00115883
0.022013
0.00118923
0.0220076
0.0012214
0.0219838
0.00125377
0.021973
0.00128653
0.0219598
0.00132158
0.0219295
0.00135624
0.021922
0.00139349
0.0218881
0.00143161
0.0218688
0.00147046
0.0218502
0.00151278
0.0218073
0.00155463
0.0217985
0.00160076
0.021748
0.00164759
0.0217283
0.00169647
0.0216965
0.00174889
0.0216511
0.021642
0.0018006
-0.000281787
0.0215073
-0.000210965
0.0215218
-0.000146876
0.0215997
-8.23556e-05
0.0216106
-2.06966e-05
0.0216563
3.96146e-05
0.021689
0.000100512
0.0217068
0.000157896
0.0217583
0.000215976
0.0217673
0.000271179
0.0218074
0.000325772
0.0218282
0.00038017
0.0218443
0.000432209
0.0218803
0.000484621
0.0218885
0.000535539
0.021914
0.000585755
0.0219308
0.000636062
0.0219387
0.000684615
0.0219637
0.000733156
0.0219704
0.000781304
0.0219797
0.000828551
0.0219929
0.000875628
0.0219976
0.000922283
0.0220036
0.000968492
0.0220086
0.00101442
0.0220107
0.00106002
0.0220118
0.00110554
0.0220096
0.0011507
0.0220086
0.00119564
0.0220051
0.00124086
0.0219956
0.00128556
0.0219924
0.00133046
0.0219812
0.00137569
0.0219678
0.0014202
0.0219631
0.00146604
0.021938
0.00151158
0.0219274
0.00155698
0.0219144
0.00160416
0.0218823
0.00165035
0.0218758
0.00169856
0.0218399
0.00174703
0.0218203
0.0017956
0.0218016
0.00184705
0.0217559
0.00189737
0.0217482
0.00195138
0.021694
0.00200543
0.0216742
0.0020609
0.021641
0.00211928
0.0215927
0.021585
0.00217625
-0.000575033
0.0214279
-0.000494716
0.0214414
-0.00041996
0.0215249
-0.000343713
0.0215344
-0.000269622
0.0215822
-0.000196481
0.0216159
-0.00012308
0.0216334
-5.26914e-05
0.0216879
1.9166e-05
0.0216954
8.99448e-05
0.0217366
0.000160789
0.0217574
0.000231945
0.0217732
0.000301216
0.021811
0.000371447
0.0218183
0.000440719
0.0218447
0.000509791
0.0218617
0.000579407
0.0218691
0.000647652
0.0218954
0.000716242
0.0219018
0.000784733
0.0219112
0.000852557
0.0219251
0.000920391
0.0219298
0.000987917
0.021936
0.00105506
0.0219415
0.00112189
0.0219438
0.00118834
0.0219454
0.00125456
0.0219434
0.0013202
0.021943
0.00138534
0.0219399
0.00145043
0.0219305
0.00151458
0.0219282
0.00157847
0.0219173
0.00164217
0.0219041
0.00170453
0.0219008
0.00176762
0.0218749
0.00182971
0.0218653
0.00189092
0.0218532
0.00195318
0.0218201
0.00201363
0.0218153
0.00207531
0.0217782
0.0021364
0.0217592
0.00219673
0.0217413
0.00225914
0.0216934
0.0023195
0.0216878
0.00238275
0.0216308
0.00244517
0.0216118
0.00250815
0.021578
0.00257325
0.0215276
0.0215223
0.002636
-0.000950955
0.0213384
-0.000859306
0.0213498
-0.000772328
0.021438
-0.000682865
0.0214449
-0.000594595
0.0214939
-0.000506134
0.0215274
-0.000415933
0.0215432
-0.000327647
0.0215997
-0.000236861
0.0216046
-0.000147416
0.0216472
-5.71086e-05
0.0216671
3.44881e-05
0.0216816
0.000125166
0.0217203
0.00021758
0.0217259
0.000309936
0.0217524
0.00040282
0.0217688
0.000496925
0.021775
0.000590254
0.0218021
0.000684444
0.0218076
0.000778964
0.0218167
0.000873172
0.0218308
0.000967662
0.0218353
0.00106203
0.0218417
0.00115612
0.0218474
0.00124991
0.0218501
0.00134321
0.0218521
0.00143612
0.0218505
0.00152815
0.021851
0.0016193
0.0218488
0.00170994
0.0218399
0.00179905
0.0218391
0.00188725
0.0218291
0.0019745
0.0218168
0.00205955
0.0218157
0.00214447
0.02179
0.00222738
0.0217824
0.00230835
0.0217722
0.00238932
0.0217391
0.00246728
0.0217374
0.00254537
0.0217001
0.00262166
0.0216829
0.00269595
0.021667
0.00277118
0.0216182
0.00284309
0.0216159
0.00291677
0.0215571
0.00298843
0.0215401
0.00305949
0.021507
0.00313156
0.0214555
0.0214537
0.00320009
-0.00143169
0.0212378
-0.00132748
0.0212456
-0.00122658
0.0213371
-0.00112166
0.02134
-0.00101655
0.0213888
-0.000909879
0.0214207
-0.000800128
0.0214334
-0.000691041
0.0214906
-0.000578036
0.0214916
-0.000464634
0.0215338
-0.000348954
0.0215514
-0.000230725
0.0215633
-0.000112377
0.021602
8.89138e-06
0.0216046
0.000130467
0.0216308
0.000253383
0.0216459
0.000378847
0.0216495
0.00050428
0.0216766
0.000631334
0.0216806
0.00075938
0.0216887
0.000887657
0.0217026
0.00101664
0.0217063
0.00114581
0.0217125
0.00127488
0.0217183
0.0014037
0.0217212
0.00153194
0.0217238
0.00165958
0.0217229
0.00178595
0.0217246
0.0019109
0.0217238
0.00203471
0.0217161
0.00215614
0.0217177
0.00227571
0.0217096
0.00239327
0.0216992
0.00250735
0.0217017
0.00262002
0.0216773
0.00272923
0.0216732
0.00283493
0.0216665
0.0029391
0.0216349
0.00303852
0.021638
0.00313641
0.0216022
0.00323075
0.0215886
0.0033213
0.0215765
0.00341114
0.0215284
0.00349584
0.0215312
0.00358074
0.0214722
0.00366192
0.0214589
0.00374093
0.0214279
0.00381948
0.021377
0.0213803
0.00389288
-0.00204861
0.021127
-0.00193179
0.0211288
-0.00181632
0.0212216
-0.00169454
0.0212182
-0.0015704
0.0212647
-0.00144245
0.0212928
-0.00130908
0.0213001
-0.00117425
0.0213557
-0.00103331
0.0213507
-0.000890041
0.0213905
-0.000742612
0.021404
-0.000590858
0.0214116
-0.000437395
0.0214485
-0.000279508
0.0214467
-0.000119261
0.0214706
4.36976e-05
0.021483
0.000209008
0.0214842
0.00037573
0.0215099
0.000545262
0.0215111
0.000716723
0.0215172
0.000889249
0.02153
0.00106317
0.0215324
0.00123779
0.0215379
0.0014127
0.0215434
0.00158751
0.0215464
0.00176169
0.0215496
0.00193507
0.0215495
0.00210667
0.021553
0.00227615
0.0215544
0.0024436
0.0215486
0.00260745
0.0215538
0.00276808
0.021549
0.00292512
0.0215422
0.0030768
0.02155
0.00322519
0.0215289
0.00336791
0.0215305
0.00350481
0.0215296
0.00363785
0.0215019
0.00376352
0.0215123
0.0038852
0.0214806
0.00400067
0.0214731
0.00410969
0.0214674
0.00421552
0.0214225
0.00431353
0.0214332
0.00440943
0.0213763
0.00449919
0.0213692
0.00458455
0.0213426
0.00466743
0.0212941
0.0213047
0.00474302
-0.00284587
0.0210087
-0.00271802
0.0210009
-0.00258876
0.0210923
-0.00244983
0.0210793
-0.00230504
0.0211199
-0.00215261
0.0211403
-0.00199083
0.0211383
-0.00182397
0.0211889
-0.00164747
0.0211742
-0.00146562
0.0212087
-0.00127686
0.0212152
-0.00108135
0.0212161
-0.000882035
0.0212492
-0.000676342
0.021241
-0.000466844
0.0212611
-0.000253019
0.0212691
-3.40579e-05
0.0212653
0.000186523
0.0212893
0.000411115
0.0212865
0.000639154
0.0212892
0.000869565
0.0212996
0.00110251
0.0212994
0.00133714
0.0213033
0.00157281
0.0213077
0.00180882
0.0213104
0.00204436
0.0213141
0.00227897
0.0213149
0.00251124
0.0213207
0.00274044
0.0213252
0.00296638
0.0213227
0.00318696
0.0213333
0.00340228
0.0213336
0.00361164
0.0213328
0.00381279
0.0213488
0.00400776
0.021334
0.00419371
0.0213445
0.00437027
0.021353
0.00453943
0.0213327
0.00469726
0.0213545
0.0048473
0.0213305
0.00498711
0.0213333
0.00511641
0.0213381
0.00523874
0.0213002
0.00534921
0.0213227
0.00545409
0.0212714
0.00554931
0.021274
0.00563697
0.0212549
0.0057194
0.0212117
0.0212325
0.00579165
-0.0032217
0.0209146
-0.00311656
0.0208958
-0.00300537
0.0209811
-0.00287855
0.0209524
-0.00273903
0.0209804
-0.00258578
0.0209871
-0.00241845
0.020971
-0.00224203
0.0210125
-0.0020537
0.0209858
-0.00185814
0.0210131
-0.0016547
0.0210118
-0.00144399
0.0210054
-0.00122883
0.021034
-0.00100708
0.0210193
-0.000780972
0.021035
-0.000550057
0.0210382
-0.000313872
0.0210291
-7.39561e-05
0.0210494
0.000170116
0.0210424
0.000418556
0.0210407
0.000670767
0.0210474
0.000926796
0.0210434
0.00118573
0.0210443
0.00144688
0.0210466
0.0017093
0.021048
0.00197193
0.0210515
0.00223401
0.0210528
0.00249374
0.021061
0.00275003
0.0210689
0.00300225
0.0210705
0.00324795
0.0210876
0.00348682
0.0210948
0.0037178
0.0211019
0.00393843
0.0211282
0.00415034
0.021122
0.00435064
0.0211442
0.00453881
0.0211649
0.00471658
0.021155
0.0048802
0.0211908
0.00503289
0.0211778
0.00517235
0.0211939
0.00529826
0.0212122
0.0054138
0.0211847
0.00551449
0.021222
0.00560602
0.0211799
0.00568482
0.0211952
0.00575317
0.0211866
0.00581381
0.021151
0.0211833
0.00586305
-0.00344878
0.0208426
-0.00337571
0.0208227
-0.00329304
0.0208985
-0.00318389
0.0208433
-0.00305034
0.0208468
-0.0028943
0.0208311
-0.00271908
0.0207957
-0.00253209
0.0208255
-0.00233302
0.0207868
-0.00212728
0.0208074
-0.00191497
0.0207995
-0.00169689
0.0207873
-0.00147546
0.0208126
-0.00124866
0.0207925