/*--------------------------------*- C++ -*----------------------------------*\
| =========                 |                                                 |
| \\      /  F ield         | OpenFOAM: The Open Source CFD Toolbox           |
|  \\    /   O peration     | Version:  2312                                  |
|   \\  /    A nd           | Website:  www.openfoam.com                      |
|    \\/     M anipulation  |                                                 |
\*---------------------------------------------------------------------------*/
FoamFile
{
    version     2.0;
    format      ascii;
    arch        "LSB;label=32;scalar=64";
    class       volScalarField;
    location    "20.134987221165549";
    object      p;
}
// * * * * * * * * * * * * * * * * * * * * * * * * * * * * * * * * * * * * * //

dimensions      [0 2 -2 0 0 0 0];

internalField   nonuniform List<scalar> 
21039
(
0.708501
0.574702
0.532602
0.504397
0.483129
0.467109
0.454735
0.444902
0.43693
0.430366
0.424894
0.420284
0.416363
0.413
0.410092
0.407556
0.405325
0.403341
0.401557
0.399932
0.39843
0.397022
0.395677
0.394445
0.39337
0.392413
0.391537
0.390709
0.389916
0.561357
0.523554
0.509791
0.491465
0.474757
0.461531
0.450844
0.442061
0.43479
0.428719
0.423604
0.41926
0.415544
0.412342
0.409563
0.407133
0.40499
0.403081
0.401362
0.399792
0.398337
0.396968
0.395656
0.394445
0.393378
0.392424
0.391548
0.39072
0.389927
0.471873
0.469542
0.471776
0.465085
0.456706
0.448973
0.441783
0.435319
0.429654
0.424728
0.420453
0.416742
0.413514
0.410698
0.408231
0.406058
0.40413
0.402406
0.400845
0.399416
0.398084
0.396823
0.395606
0.394469
0.393456
0.39254
0.391694
0.390891
0.390118
0.433701
0.43586
0.440414
0.439406
0.436859
0.433707
0.429972
0.426122
0.422426
0.418983
0.415841
0.413009
0.410476
0.40822
0.406212
0.404423
0.402822
0.40138
0.400068
0.398859
0.397726
0.396644
0.395591
0.394592
0.393687
0.392855
0.392075
0.391322
0.390589
0.408583
0.412582
0.418561
0.420363
0.420649
0.419999
0.418541
0.416689
0.414664
0.412592
0.410568
0.408653
0.406876
0.405249
0.403772
0.402438
0.401233
0.400139
0.39914
0.398214
0.39734
0.396498
0.395667
0.394861
0.394108
0.393396
0.39271
0.39203
0.39135
0.388823
0.394098
0.401541
0.405512
0.407617
0.408515
0.408534
0.408055
0.407261
0.406276
0.405203
0.404112
0.403049
0.402043
0.401111
0.400258
0.399483
0.398779
0.398136
0.397539
0.396973
0.39642
0.395863
0.395297
0.394735
0.394175
0.393607
0.39302
0.39241
0.375914
0.380947
0.38813
0.393187
0.396519
0.398565
0.399688
0.400233
0.400379
0.400257
0.399969
0.39959
0.39917
0.398747
0.398343
0.397973
0.397643
0.397353
0.397097
0.396867
0.396651
0.396431
0.396194
0.395917
0.395585
0.395209
0.394787
0.394315
0.393793
0.368458
0.37256
0.378382
0.383445
0.387272
0.389973
0.391836
0.393129
0.394001
0.394572
0.394938
0.395172
0.395326
0.395439
0.395538
0.395642
0.395761
0.395898
0.396053
0.39622
0.39639
0.396549
0.396681
0.396734
0.396677
0.396521
0.396273
0.395933
0.39551
0.363753
0.36695
0.371389
0.375997
0.379822
0.382751
0.385002
0.386767
0.388155
0.389259
0.390156
0.390909
0.391568
0.392168
0.39274
0.393301
0.393865
0.394437
0.39502
0.39561
0.396199
0.396776
0.397325
0.397762
0.398025
0.398128
0.398089
0.397912
0.397607
0.36014
0.362584
0.365974
0.370049
0.373687
0.376639
0.379062
0.3811
0.382831
0.384324
0.385637
0.386821
0.387915
0.388954
0.389964
0.390962
0.391963
0.392973
0.393996
0.39503
0.396069
0.397102
0.398117
0.398992
0.399625
0.400032
0.400239
0.400256
0.400096
0.356914
0.358755
0.36139
0.364952
0.368355
0.371258
0.373758
0.37596
0.377924
0.379703
0.381342
0.38288
0.384351
0.385781
0.387195
0.388609
0.390036
0.391483
0.392955
0.394451
0.395967
0.397493
0.39902
0.400386
0.401441
0.402202
0.402698
0.402944
0.402956
0.353762
0.355154
0.357254
0.360349
0.363503
0.366328
0.368856
0.371159
0.373289
0.375287
0.377189
0.379024
0.380821
0.382604
0.384392
0.386201
0.388042
0.389925
0.391852
0.393823
0.395836
0.397885
0.399964
0.401872
0.403403
0.404568
0.405399
0.405913
0.406128
0.350522
0.351601
0.353328
0.356021
0.358935
0.361664
0.364186
0.366549
0.368798
0.370967
0.373083
0.375171
0.377255
0.379356
0.381491
0.383675
0.385921
0.388235
0.39062
0.393075
0.395598
0.398188
0.400846
0.403332
0.405382
0.406999
0.408213
0.409037
0.40949
0.347126
0.347987
0.349448
0.351804
0.354497
0.357123
0.359618
0.362013
0.364346
0.366646
0.368936
0.371239
0.373575
0.375963
0.378422
0.380966
0.383606
0.386347
0.38919
0.392132
0.39517
0.398303
0.401539
0.404603
0.407183
0.409274
0.410903
0.412073
0.412799
0.343556
0.344264
0.345515
0.347576
0.350055
0.352573
0.355029
0.357435
0.359824
0.362224
0.364654
0.367136
0.36969
0.372337
0.375097
0.377984
0.381007
0.384171
0.387474
0.390908
0.394461
0.398124
0.401901
0.405481
0.408523
0.411042
0.413069
0.414597
0.415624
0.340119
0.340715
0.341801
0.34364
0.345947
0.348362
0.350772
0.353175
0.3556
0.358069
0.360603
0.363225
0.365957
0.368824
0.371847
0.375042
0.37842
0.381986
0.385732
0.389643
0.393688
0.397826
0.402027
0.405902
0.409109
0.411734
0.413885
0.415591
0.416846
0.337178
0.337701
0.338683
0.34038
0.342556
0.344882
0.34725
0.349654
0.352107
0.35463
0.357245
0.359978
0.362855
0.365906
0.369154
0.37262
0.376318
0.380254
0.38442
0.388789
0.393308
0.39789
0.402422
0.406356
0.409283
0.411369
0.412885
0.414096
0.415231
0.334719
0.335194
0.336103
0.337695
0.33977
0.342037
0.344395
0.346816
0.349305
0.351879
0.354566
0.357398
0.360406
0.363623
0.367077
0.370794
0.374796
0.379092
0.383677
0.388521
0.393553
0.398641
0.403572
0.407542
0.409889
0.410644
0.410091
0.408761
0.407774
0.332716
0.333239
0.334165
0.335653
0.337559
0.33972
0.34207
0.344531
0.347071
0.349704
0.352468
0.355401
0.35854
0.361919
0.365574
0.369539
0.373842
0.378502
0.383522
0.388875
0.394495
0.400229
0.405809
0.410176
0.412232
0.411464
0.40754
0.399901
0.388334
0.389143
0.388363
0.387588
0.386817
0.386049
0.385282
0.384516
0.383749
0.382981
0.382211
0.381438
0.380661
0.37988
0.379094
0.378302
0.377503
0.376698
0.375885
0.375065
0.374236
0.373399
0.372554
0.371701
0.370839
0.369969
0.369091
0.368205
0.367312
0.366412
0.365506
0.364594
0.363676
0.362753
0.361827
0.360897
0.359965
0.359031
0.358097
0.357164
0.356232
0.355302
0.354376
0.353454
0.352537
0.351627
0.350725
0.34983
0.348944
0.348068
0.389156
0.388386
0.387622
0.386861
0.386103
0.385346
0.384589
0.383832
0.383074
0.382313
0.381548
0.38078
0.380007
0.379228
0.378442
0.377649
0.376849
0.37604
0.375223
0.374397
0.373562
0.372717
0.371863
0.371
0.370128
0.369247
0.368358
0.36746
0.366555
0.365642
0.364722
0.363797
0.362866
0.361931
0.360992
0.36005
0.359106
0.358162
0.357217
0.356273
0.355332
0.354393
0.353459
0.35253
0.351607
0.350692
0.349785
0.348887
0.347999
0.38937
0.388625
0.387885
0.387148
0.386412
0.385677
0.384941
0.384203
0.383462
0.382718
0.381969
0.381214
0.380452
0.379683
0.378905
0.378119
0.377323
0.376516
0.375699
0.374871
0.374032
0.373182
0.37232
0.371448
0.370565
0.36967
0.368766
0.367852
0.366928
0.365996
0.365056
0.364108
0.363154
0.362194
0.36123
0.360262
0.35929
0.358317
0.357344
0.35637
0.355398
0.354429
0.353463
0.352502
0.351547
0.350599
0.349659
0.348728
0.347807
0.389878
0.389172
0.388467
0.387763
0.387058
0.386353
0.385644
0.384931
0.384213
0.383489
0.382757
0.382017
0.381267
0.380507
0.379736
0.378953
0.378157
0.377348
0.376526
0.37569
0.37484
0.373976
0.373098
0.372206
0.371301
0.370383
0.369452
0.368509
0.367555
0.36659
0.365614
0.36463
0.363637
0.362637
0.361631
0.36062
0.359604
0.358585
0.357564
0.356543
0.355522
0.354503
0.353486
0.352473
0.351466
0.350465
0.349471
0.348485
0.347509
0.390689
0.390032
0.389374
0.388712
0.388048
0.387379
0.386703
0.38602
0.385329
0.384627
0.383915
0.38319
0.382452
0.3817
0.380933
0.38015
0.379351
0.378535
0.377701
0.376851
0.375982
0.375096
0.374193
0.373273
0.372336
0.371383
0.370414
0.36943
0.368432
0.367421
0.366397
0.365361
0.364315
0.36326
0.362197
0.361126
0.36005
0.358968
0.357884
0.356797
0.35571
0.354623
0.353537
0.352455
0.351376
0.350303
0.349236
0.348177
0.347127
0.391811
0.391215
0.390613
0.390005
0.389389
0.388765
0.38813
0.387482
0.386822
0.386147
0.385456
0.384748
0.384022
0.383277
0.382512
0.381726
0.380919
0.380091
0.379241
0.378369
0.377474
0.376558
0.37562
0.374661
0.373681
0.372682
0.371663
0.370625
0.36957
0.368498
0.367411
0.36631
0.365195
0.364069
0.362932
0.361786
0.360632
0.359471
0.358305
0.357136
0.355964
0.354791
0.353619
0.352448
0.351281
0.350117
0.348959
0.347808
0.346666
0.393272
0.392743
0.392213
0.391668
0.391111
0.390539
0.389951
0.389345
0.388721
0.388076
0.387409
0.386719
0.386004
0.385265
0.3845
0.383708
0.38289
0.382044
0.38117
0.380269
0.37934
0.378384
0.377402
0.376393
0.375359
0.374301
0.373218
0.372113
0.370987
0.36984
0.368674
0.367491
0.366291
0.365077
0.363849
0.36261
0.36136
0.360102
0.358836
0.357565
0.356291
0.355013
0.353735
0.352457
0.351181
0.349909
0.34864
0.347378
0.346126
0.395093
0.394673
0.394217
0.393728
0.393247
0.392737
0.392201
0.391642
0.391058
0.390446
0.389804
0.389133
0.38843
0.387696
0.386928
0.386126
0.385291
0.384421
0.383517
0.382579
0.381608
0.380603
0.379565
0.378495
0.377395
0.376264
0.375105
0.373918
0.372705
0.371467
0.370206
0.368923
0.367621
0.3663
0.364963
0.363612
0.362247
0.360872
0.359487
0.358094
0.356696
0.355294
0.353889
0.352484
0.351079
0.349677
0.348278
0.346886
0.345504
0.397292
0.396968
0.396619
0.39625
0.395848
0.395379
0.394899
0.394398
0.393859
0.393282
0.392669
0.392018
0.391326
0.390594
0.389821
0.389007
0.38815
0.387251
0.386311
0.385329
0.384305
0.383242
0.382138
0.380996
0.379817
0.378601
0.377351
0.376067
0.374751
0.373406
0.372032
0.370632
0.369208
0.367761
0.366295
0.36481
0.363309
0.361794
0.360267
0.358731
0.357187
0.355637
0.354083
0.352528
0.350972
0.349418
0.347866
0.346322
0.34479
0.399907
0.399698
0.399444
0.399157
0.398838
0.398485
0.398094
0.397654
0.397138
0.3966
0.396021
0.39539
0.394711
0.393983
0.393204
0.392375
0.391494
0.390563
0.389581
0.388549
0.387468
0.386337
0.385159
0.383935
0.382665
0.381352
0.379996
0.378601
0.377166
0.375695
0.37419
0.372652
0.371086
0.36949
0.367871
0.366229
0.364566
0.362887
0.361192
0.359485
0.357769
0.356044
0.354314
0.352581
0.350848
0.349116
0.347386
0.345665
0.343958
0.402916
0.402839
0.402705
0.402524
0.402297
0.402022
0.401699
0.401325
0.400903
0.400426
0.399893
0.399237
0.398587
0.397872
0.397093
0.396252
0.395351
0.394388
0.393365
0.392282
0.391139
0.389939
0.38868
0.387366
0.385998
0.384575
0.383102
0.38158
0.380009
0.378395
0.376737
0.37504
0.373306
0.371536
0.369736
0.367908
0.366053
0.364178
0.362283
0.360372
0.358449
0.356516
0.354577
0.352633
0.350688
0.348745
0.346805
0.344875
0.342966
0.406261
0.406334
0.406336
0.406281
0.406167
0.405992
0.405756
0.405455
0.405092
0.404662
0.404171
0.403614
0.402986
0.402286
0.401515
0.400675
0.399762
0.398777
0.397722
0.396594
0.395396
0.394128
0.392789
0.391384
0.389912
0.388372
0.386771
0.385109
0.383385
0.381607
0.379774
0.377889
0.375958
0.373981
0.371965
0.369913
0.367825
0.365712
0.363573
0.361413
0.359239
0.357051
0.354856
0.352656
0.350456
0.348259
0.346065
0.343886
0.341735
0.409825
0.410065
0.410223
0.410313
0.410334
0.410285
0.410163
0.409968
0.409699
0.409354
0.408935
0.408438
0.407863
0.40721
0.406475
0.405678
0.404783
0.403804
0.402742
0.401592
0.400356
0.399036
0.397629
0.396139
0.394566
0.392908
0.391172
0.389357
0.387462
0.385497
0.38346
0.381354
0.379187
0.376959
0.374677
0.372348
0.369972
0.367561
0.365115
0.362644
0.360153
0.357644
0.355129
0.352608
0.350089
0.347576
0.34507
0.342587
0.340141
0.413366
0.413794
0.414132
0.4144
0.414592
0.41471
0.414751
0.414713
0.414596
0.414396
0.414112
0.41374
0.41328
0.412732
0.412088
0.411351
0.410521
0.409619
0.408599
0.407467
0.406231
0.404891
0.403441
0.401887
0.400226
0.398455
0.39658
0.394602
0.392517
0.390335
0.388055
0.385681
0.383222
0.380678
0.37806
0.375375
0.372624
0.369824
0.366977
0.364095
0.361187
0.358257
0.355321
0.352382
0.34945
0.346532
0.343631
0.340764
0.337953
0.416451
0.417083
0.417635
0.418133
0.418568
0.418943
0.419249
0.419479
0.419629
0.419686
0.419651
0.419511
0.419267
0.41892
0.41846
0.41789
0.41719
0.41636
0.415555
0.414491
0.413311
0.412007
0.410563
0.408983
0.407262
0.405394
0.403386
0.401235
0.398935
0.3965
0.393927
0.391219
0.388389
0.385435
0.382375
0.379217
0.375965
0.37264
0.369248
0.365805
0.362327
0.358821
0.35531
0.351801
0.348313
0.344855
0.341434
0.338074
0.334799
0.417904
0.418698
0.419505
0.420364
0.421239
0.422105
0.422919
0.42365
0.424278
0.424778
0.425151
0.425381
0.425478
0.425441
0.425266
0.424965
0.42452
0.423918
0.423163
0.422376
0.42135
0.420162
0.418797
0.417259
0.415534
0.41361
0.411494
0.409177
0.406651
0.403931
0.401012
0.397899
0.394608
0.39114
0.387515
0.383747
0.379843
0.375832
0.371722
0.367539
0.363301
0.359025
0.354743
0.35047
0.346239
0.34207
0.337981
0.334009
0.33019
0.416456
0.417311
0.418553
0.420172
0.42196
0.423761
0.425443
0.426942
0.428229
0.429286
0.430136
0.430778
0.431241
0.431539
0.431674
0.431669
0.431511
0.43121
0.430743
0.430086
0.429374
0.428381
0.427182
0.425773
0.424126
0.422216
0.420049
0.417608
0.414879
0.411879
0.408601
0.405051
0.401253
0.397208
0.392948
0.388491
0.383847
0.379059
0.374134
0.369106
0.363998
0.358826
0.353633
0.348437
0.343286
0.338222
0.333291
0.32857
0.324127
0.407564
0.408841
0.412271
0.416548
0.420691
0.424336
0.427367
0.429826
0.431798
0.433354
0.434591
0.435551
0.436297
0.436866
0.437273
0.43755
0.437687
0.437702
0.437588
0.437279
0.436805
0.436152
0.435242
0.434074
0.432609
0.430805
0.428661
0.426146
0.423238
0.419956
0.416292
0.412259
0.40789
0.40319
0.398209
0.392974
0.387506
0.381859
0.376048
0.370113
0.364077
0.357951
0.35177
0.345534
0.339283
0.333054
0.326928
0.321101
0.315847
0.379689
0.390595
0.403211
0.41353
0.421174
0.426681
0.430637
0.43354
0.435727
0.437405
0.438732
0.439777
0.44063
0.441333
0.441911
0.442409
0.442809
0.443137
0.44338
0.443469
0.443394
0.44315
0.442609
0.441776
0.4406
0.439016
0.436992
0.434482
0.431451
0.42792
0.423887
0.419369
0.414415
0.409044
0.403323
0.397298
0.391003
0.384512
0.37785
0.37107
0.364198
0.357239
0.350211
0.343067
0.335775
0.328252
0.320422
0.312358
0.304655
0.347211
0.346326
0.345372
0.344336
0.343202
0.341959
0.340634
0.339383
0.338326
0.337492
0.336916
0.336631
0.336683
0.33712
0.337993
0.339367
0.341319
0.34395
0.347387
0.351796
0.357403
0.364521
0.373597
0.385308
0.400756
0.421542
0.44936
0.4911
0.624617
0.347127
0.346225
0.345251
0.344191
0.343024
0.341742
0.340371
0.33907
0.337961
0.337074
0.336445
0.336085
0.336072
0.336427
0.3372
0.338451
0.34025
0.342684
0.345862
0.349922
0.355045
0.361468
0.3695
0.379529
0.392183
0.408401
0.426331
0.439728
0.477272
0.346902
0.345962
0.344942
0.343824
0.342587
0.341219
0.339744
0.338327
0.337095
0.336078
0.335306
0.334805
0.334614
0.334764
0.335294
0.336249
0.33768
0.339644
0.342207
0.345444
0.349438
0.35427
0.359995
0.366536
0.373701
0.381586
0.387858
0.385225
0.387305
0.346546
0.345543
0.344447
0.343239
0.341893
0.340393
0.338757
0.33716
0.335741
0.334525
0.333539
0.332806
0.332349
0.332194
0.332365
0.332887
0.333786
0.335083
0.336794
0.338926
0.341461
0.344347
0.347476
0.350576
0.353169
0.35522
0.355789
0.350825
0.348442
0.346086
0.344995
0.343796
0.342467
0.340975
0.339298
0.337452
0.335622
0.333962
0.332495
0.331241
0.330218
0.329441
0.328922
0.328674
0.328704
0.329012
0.329592
0.330426
0.331475
0.332674
0.333919
0.335076
0.33592
0.336027
0.335254
0.333012
0.326643
0.322461
0.345527
0.344327
0.343
0.341519
0.339846
0.337953
0.335849
0.33374
0.331796
0.330038
0.328479
0.327133
0.326005
0.325102
0.324421
0.323957
0.323696
0.323614
0.323674
0.323821
0.323978
0.324033
0.323855
0.323253
0.321839
0.319268
0.314871
0.307071
0.301652
0.344869
0.343537
0.342056
0.340392
0.338503
0.336353
0.333947
0.331515
0.32925
0.327168
0.325279
0.323591
0.322104
0.320815
0.319715
0.318789
0.318014
0.317355
0.316769
0.316193
0.315546
0.314716
0.313563
0.311901
0.309377
0.30561
0.300157
0.292657
0.287518
0.344108
0.342619
0.340955
0.339076
0.336933
0.334484
0.331733
0.328938
0.326319
0.323888
0.321653
0.319616
0.317772
0.316112
0.314621
0.313277
0.312051
0.310905
0.309788
0.308637
0.307371
0.305885
0.304047
0.301703
0.298574
0.294358
0.288941
0.282852
0.278682
0.343231
0.341558
0.33968
0.337551
0.335114
0.332322
0.329181
0.325985
0.322984
0.320188
0.3176
0.315216
0.313029
0.311024
0.30918
0.307471
0.305865
0.30432
0.302785
0.301202
0.299496
0.29758
0.29535
0.29269
0.289398
0.285244
0.280339
0.275691
0.272459
0.34221
0.340322
0.338195
0.335775
0.333
0.32982
0.326244
0.322612
0.319206
0.316034
0.313094
0.310378
0.307872
0.305556
0.303406
0.301393
0.299481
0.29763
0.295791
0.293911
0.291929
0.289774
0.287368
0.284624
0.281391
0.277498
0.273194
0.269658
0.267204
0.340994
0.338856
0.336439
0.333682
0.33052
0.326901
0.322844
0.318743
0.314918
0.311368
0.308088
0.305061
0.30227
0.299688
0.297286
0.295034
0.292893
0.290823
0.288781
0.286719
0.284585
0.282323
0.279869
0.277153
0.274064
0.270496
0.266783
0.264062
0.262233
0.339499
0.337066
0.33431
0.331163
0.327557
0.323445
0.318862
0.314267
0.310015
0.306098
0.302501
0.2992
0.296168
0.293373
0.290781
0.288356
0.286061
0.283855
0.281697
0.279543
0.277348
0.275066
0.272644
0.270024
0.267124
0.263906
0.260745
0.258617
0.257255
0.337586
0.334803
0.331647
0.328046
0.323934
0.319274
0.314128
0.309027
0.304359
0.300103
0.296231
0.292706
0.289491
0.286547
0.283833
0.281309
0.278934
0.276668
0.274471
0.272301
0.270119
0.267886
0.265558
0.263082
0.260404
0.257537
0.254868
0.253168
0.252133
0.335008
0.331805
0.328178
0.324053
0.319374
0.314123
0.308396
0.302805
0.297762
0.293224
0.289142
0.285467
0.282147
0.279133
0.276376
0.273832
0.271456
0.269206
0.267043
0.264928
0.262825
0.2607
0.258513
0.25622
0.253784
0.251256
0.249014
0.24763
0.246824
0.331372
0.327663
0.323487
0.318772
0.313482
0.307631
0.301354
0.295339
0.290006
0.285282
0.281093
0.277368
0.274043
0.271054
0.268348
0.265871
0.263577
0.261422
0.259367
0.257374
0.255409
0.25344
0.251434
0.249352
0.247175
0.244984
0.243124
0.241988
0.241335
0.326211
0.321957
0.317225
0.311956
0.306141
0.299821
0.293164
0.286907
0.28146
0.276713
0.272568
0.268932
0.265725
0.262875
0.260319
0.258002
0.255872
0.253885
0.251999
0.250181
0.248397
0.246617
0.244813
0.242954
0.241033
0.239141
0.237587
0.23665
0.236105
0.319548
0.314761
0.309595
0.303979
0.297896
0.291384
0.28462
0.278361
0.272999
0.268396
0.264433
0.261003
0.258012
0.255382
0.253045
0.250942
0.249022
0.247238
0.245552
0.243928
0.242334
0.240742
0.239131
0.237482
0.235799
0.234164
0.232846
0.232058
0.231591
0.310727
0.30569
0.300579
0.295091
0.289127
0.282732
0.276112
0.270049
0.264923
0.260585
0.2569
0.253749
0.251032
0.248667
0.246582
0.244719
0.243025
0.241458
0.239977
0.238549
0.23714
0.235723
0.234278
0.232803
0.231322
0.229913
0.228797
0.22814
0.227739
0.298439
0.294534
0.290545
0.285755
0.28026
0.274215
0.267915
0.262184
0.257396
0.253398
0.250045
0.247213
0.244797
0.242713
0.240889
0.239269
0.237801
0.236444
0.23516
0.233915
0.232676
0.23141
0.230102
0.228788
0.227546
0.226427
0.22552
0.224918
0.2245
0.330684
0.330985
0.331732
0.333246
0.335343
0.337705
0.340178
0.342699
0.345281
0.347971
0.350815
0.353857
0.357132
0.36068
0.364542
0.368756
0.373361
0.378382
0.383829
0.389684
0.395887
0.402286
0.408577
0.413529
0.415664
0.413734
0.406172
0.390594
0.358642
0.32865
0.329076
0.329936
0.331434
0.333444
0.335729
0.338163
0.34069
0.343319
0.346087
0.349033
0.3522
0.355626
0.359354
0.363431
0.367902
0.372814
0.378204
0.384094
0.390492
0.397382
0.404676
0.412171
0.418713
0.422923
0.42399
0.421364
0.416579
0.420448
0.326569
0.32708
0.328023
0.32951
0.331447
0.333653
0.336029
0.338537
0.341186
0.344006
0.347028
0.350292
0.35384
0.35772
0.361984
0.366689
0.371893
0.377654
0.384025
0.391066
0.398855
0.407476
0.417098
0.427006
0.436408
0.445183
0.454177
0.461281
0.477498
0.324417
0.324906
0.325821
0.32729
0.329228
0.331436
0.333803
0.336304
0.338962
0.34181
0.344881
0.348215
0.351857
0.35586
0.360282
0.365192
0.370664
0.37678
0.383632
0.391347
0.400129
0.410249
0.42242
0.436262
0.451656
0.467679
0.486837
0.504374
0.526523
0.322195
0.322649
0.32351
0.324946
0.326879
0.329095
0.331464
0.333963
0.336624
0.339486
0.342588
0.34597
0.34968
0.353776
0.358325
0.363403
0.369101
0.375525
0.382804
0.391126
0.400838
0.41226
0.42678
0.443752
0.464225
0.484903
0.51034
0.537084
0.566238
0.319907
0.320342
0.321168
0.32256
0.324456
0.326647
0.328997
0.33148
0.334131
0.336991
0.340101
0.343505
0.347253
0.351406
0.356036
0.36123
0.36709
0.373741
0.381342
0.390109
0.400577
0.412804
0.42904
0.447592
0.470557
0.496145
0.524824
0.555157
0.586219
0.317547
0.317971
0.31877
0.320115
0.321954
0.324093
0.326399
0.328845
0.331465
0.3343
0.337391
0.340784
0.344531
0.348695
0.353352
0.358595
0.364531
0.371299
0.379083
0.388048
0.399039
0.411353
0.428384
0.449169
0.473009
0.499361
0.527174
0.555621
0.584615
0.315112
0.315521
0.316292
0.317583
0.319353
0.321425
0.323669
0.326059
0.328625
0.331407
0.334448
0.337793
0.341494
0.345616
0.350236
0.355448
0.361359
0.368114
0.375914
0.384775
0.395574
0.408828
0.42578
0.446692
0.46978
0.494354
0.519445
0.544502
0.569382
0.312597
0.312993
0.313731
0.314961
0.316651
0.318641
0.320807
0.323119
0.325605
0.328306
0.331263
0.33452
0.338128
0.34215
0.346663
0.35176
0.357534
0.364128
0.371695
0.380514
0.391106
0.404178
0.420375
0.439845
0.460868
0.482618
0.504335
0.525692
0.545922
0.310005
0.310386
0.311089
0.312252
0.31385
0.315742
0.317809
0.320021
0.322404
0.324995
0.327832
0.330959
0.334424
0.338287
0.342617
0.347512
0.353024
0.359354
0.36666
0.375132
0.385171
0.39728
0.412075
0.429343
0.44753
0.46583
0.483649
0.501017
0.516908
0.307331
0.307697
0.308361
0.309451
0.310948
0.312728
0.314679
0.316771
0.319025
0.321475
0.324159
0.327115
0.330387
0.334032
0.338105
0.342704
0.347919
0.353855
0.360684
0.368521
0.377675
0.388484
0.401432
0.416093
0.431046
0.445573
0.459248
0.472411
0.484171
0.30458
0.30493
0.305554
0.306565
0.307952
0.309606
0.311423
0.313373
0.315473
0.317755
0.320251
0.322995
0.326028
0.329398
0.333162
0.337398
0.342194
0.347612
0.353782
0.360787
0.368842
0.378163
0.389008
0.400846
0.412464
0.423281
0.433036
0.442222
0.450212
0.301755
0.302094
0.302679
0.303608
0.304873
0.306383
0.308045
0.309831
0.311753
0.313838
0.316114
0.31861
0.321359
0.324406
0.327799
0.331597
0.335866
0.340653
0.346043
0.35208
0.358893
0.366584
0.375212
0.384217
0.392659
0.400127
0.406515
0.412343
0.417221
0.298858
0.29918
0.29972
0.300561
0.3017
0.303059
0.304556
0.30616
0.307883
0.309747
0.311774
0.313988
0.316416
0.319092
0.322054
0.325344
0.329008
0.333077
0.337596
0.34257
0.348048
0.354043
0.360476
0.366826
0.372448
0.377107
0.380818
0.384075
0.386683
0.295895
0.296203
0.296698
0.297447
0.298453
0.299651
0.300967
0.302374
0.303879
0.3055
0.307256
0.309159
0.311232
0.313496
0.315977
0.318705
0.321706
0.324991
0.328571
0.332419
0.336524
0.340835
0.345191
0.349169
0.352412
0.354835
0.356542
0.357984
0.359149
0.292875
0.29317
0.293619
0.294275
0.295143
0.29617
0.297294
0.298488
0.299759
0.301122
0.302584
0.304153
0.30584
0.307657
0.309619
0.31174
0.31403
0.316479
0.319072
0.321757
0.324484
0.327166
0.329603
0.331508
0.332795
0.333507
0.33379
0.334054
0.33446
0.289803
0.290084
0.290483
0.291044
0.291771
0.292626
0.29355
0.294521
0.295551
0.296642
0.297795
0.299009
0.300288
0.301633
0.303047
0.304529
0.306071
0.30765
0.309228
0.310736
0.312103
0.313228
0.313903
0.314007
0.313706
0.313142
0.312452
0.312003
0.312124
0.286689
0.286957
0.287306
0.287771
0.288359
0.289038
0.289752
0.2905
0.291279
0.292089
0.292921
0.293769
0.294625
0.295482
0.296329
0.297151
0.297927
0.298616
0.299166
0.299498
0.299532
0.299166
0.298211
0.296731
0.295118
0.293584
0.292208
0.291315
0.291397
0.283545
0.283804
0.284106
0.284473
0.284922
0.285414
0.285925
0.286442
0.286967
0.28749
0.287997
0.288472
0.288898
0.289257
0.289527
0.289681
0.28968
0.289472
0.288991
0.288152
0.286871
0.285059
0.282559
0.279625
0.276862
0.274526
0.272609
0.271382
0.271512
0.280379
0.280627
0.280883
0.281146
0.28146
0.281778
0.282084
0.282374
0.282646
0.282883
0.283064
0.283165
0.283162
0.283024
0.282719
0.282205
0.28143
0.280329
0.278823
0.276821
0.274237
0.270994
0.266978
0.262635
0.258784
0.255712
0.253297
0.251755
0.251924
0.277201
0.277431
0.277644
0.277835
0.278004
0.278144
0.278249
0.278319
0.278343
0.278299
0.278161
0.277898
0.277473
0.27685
0.275981
0.274814
0.273282
0.271306
0.268794
0.265643
0.261764
0.257087
0.251531
0.245739
0.240759
0.236915
0.233955
0.232045
0.232197
0.274024
0.274241
0.274413
0.27452
0.274555
0.274528
0.274442
0.274299
0.274084
0.273771
0.273326
0.272711
0.271882
0.27079
0.269381
0.267586
0.265326
0.262506
0.259017
0.254742
0.249576
0.24344
0.236271
0.228902
0.222644
0.217887
0.214252
0.211864
0.211934
0.270861
0.271071
0.271204
0.271226
0.271134
0.270947
0.270679
0.270333
0.269892
0.269325
0.26859
0.267643
0.266432
0.2649
0.26298
0.260593
0.257646
0.254026
0.249605
0.244244
0.237809
0.230189
0.221304
0.212144
0.204333
0.198389
0.193828
0.190787
0.190713
0.267722
0.267922
0.268015
0.267954
0.267743
0.267409
0.266974
0.266443
0.265796
0.264994
0.263992
0.262738
0.261173
0.259233
0.256842
0.25391
0.250328
0.245967
0.240679
0.234292
0.226633
0.217531
0.20684
0.195646
0.185908
0.178345
0.172432
0.168441
0.168122
0.264617
0.264812
0.264872
0.264737
0.264411
0.263935
0.263345
0.262648
0.261816
0.260804
0.259561
0.258029
0.256147
0.253841
0.251027
0.247606
0.243456
0.238432
0.232361
0.225044
0.216251
0.20573
0.193215
0.17979
0.167703
0.157922
0.14995
0.144489
0.143801
0.261556
0.26174
0.261759
0.261549
0.261118
0.260521
0.259802
0.258968
0.25798
0.256787
0.255333
0.253559
0.251398
0.248773
0.245593
0.241749
0.237109
0.231512
0.224767
0.216641
0.206859
0.195071
0.180865
0.165214
0.150524
0.137918
0.126876
0.119011
0.1178
0.258568
0.258797
0.258833
0.258567
0.258007
0.257245
0.256374
0.255406
0.254286
0.252943
0.251315
0.249339
0.246947
0.244058
0.240577
0.236387
0.231348
0.225288
0.217999
0.209229
0.198657
0.18584
0.170184
0.152498
0.135233
0.11954
0.104563
0.0923685
0.0888197
0.267377
0.251439
0.229168
0.200918
0.169822
0.139762
0.113082
0.0886639
0.0663804
0.0417196
0.0165061
-0.0137432
-0.0450739
-0.0745458
-0.0983805
-0.114154
-0.121928
-0.123788
-0.123206
0.274366
0.262416
0.240966
0.211754
0.177197
0.140648
0.105081
0.069434
0.035983
-0.0015454
-0.039723
-0.078853
-0.116615
-0.149843
-0.175416
-0.192201
-0.201373
-0.20537
-0.206798
0.269593
0.258741
0.238532
0.209255
0.172555
0.131163
0.0886042
0.0426172
-0.00354125
-0.0505276
-0.0978654
-0.144426
-0.18753
-0.224027
-0.251546
-0.269785
-0.280413
-0.285911
-0.288638
0.259492
0.248853
0.230322
0.201658
0.162486
0.116231
0.0661475
0.0131334
-0.0417068
-0.0974933
-0.153311
-0.207222
-0.255759
-0.29554
-0.324724
-0.343829
-0.355224
-0.361648
-0.365291
0.24639
0.236582
0.219428
0.191021
0.150223
0.100631
0.0452251
-0.0143013
-0.0768187
-0.141015
-0.204668
-0.264663
-0.316965
-0.358418
-0.388105
-0.407486
-0.419483
-0.426794
-0.431222
0.229065
0.219664
0.20372
0.176139
0.135026
0.0834875
0.0242645
-0.0409775
-0.110283
-0.181412
-0.251067
-0.315183
-0.369598
-0.411831
-0.441962
-0.462117
-0.475447
-0.484394
-0.490354
0.207834
0.197548
0.181902
0.155098
0.114298
0.0617718
2.6527e-05
-0.069084
-0.142914
-0.218217
-0.290751
-0.355786
-0.409382
-0.449976
-0.478599
-0.497876
-0.511045
-0.52018
-0.526347
0.183673
0.171505
0.154942
0.128037
0.0874059
0.0345779
-0.0282038
-0.0988882
-0.174411
-0.250772
-0.323005
-0.386153
-0.436922
-0.474788
-0.501533
-0.519943
-0.533039
-0.542393
-0.548851
0.157466
0.143027
0.124664
0.0966604
0.0557364
0.0030378
-0.0594713
-0.129701
-0.204312
-0.27875
-0.347644
-0.406294
-0.452348
-0.48625
-0.510246
-0.52707
-0.539435
-0.548483
-0.554778
0.130077
0.113425
0.0929001
0.0632015
0.0215969
-0.0307635
-0.0921259
-0.160461
-0.232265
-0.30266
-0.366272
-0.419071
-0.459761
-0.489565
-0.510948
-0.526438
-0.538381
-0.547594
-0.554326
0.102469
0.0838853
0.0612204
0.0296648
-0.0128388
-0.0648363
-0.124583
-0.189987
-0.257319
-0.321545
-0.377706
-0.422822
-0.45669
-0.481106
-0.498544
-0.511243
-0.521133
-0.528834
-0.534423
0.0757546
0.0556675
0.0311836
-0.00196229
-0.0452233
-0.0966815
-0.154396
-0.21607
-0.277787
-0.334705
-0.382746
-0.420165
-0.447658
-0.467276
-0.481273
-0.491494
-0.499421
-0.505586
-0.50998
0.0509761
0.0298782
0.00407035
-0.0301038
-0.0736385
-0.124148
-0.179428
-0.236953
-0.292772
-0.342535
-0.383219
-0.41416
-0.436623
-0.452658
-0.46421
-0.472776
-0.479511
-0.48494
-0.48891
0.0289006
0.00723228
-0.0194087
-0.0540162
-0.0972586
-0.14632
-0.198691
-0.251584
-0.301137
-0.343726
-0.377459
-0.40257
-0.420628
-0.433522
-0.442859
-0.449824
-0.45529
-0.459752
-0.462985
0.0100348
-0.0118531
-0.0388991
-0.0734145
-0.115822
-0.16292
-0.211922
-0.259874
-0.303235
-0.339293
-0.367198
-0.387794
-0.402705
-0.413541
-0.421563
-0.42767
-0.432512
-0.436529
-0.439453
-0.00545405
-0.0273301
-0.0544643
-0.0885171
-0.129706
-0.174505
-0.219947
-0.263074
-0.300848
-0.331468
-0.354882
-0.372258
-0.385115
-0.394774
-0.402207
-0.408094
-0.41294
-0.417104
-0.420242
-0.0177154
-0.0394873
-0.0665521
-0.0999892
-0.139788
-0.182085
-0.223773
-0.262037
-0.294525
-0.320339
-0.340031
-0.35488
-0.366193
-0.374994
-0.381996
-0.387698
-0.392491
-0.396629
-0.399753
-0.0269933
-0.0486773
-0.0756444
-0.108495
-0.146938
-0.186754
-0.224771
-0.258489
-0.286345
-0.308232
-0.325088
-0.338149
-0.348472
-0.356805
-0.363643
-0.369326
-0.374158
-0.378304
-0.381426
-0.0336101
-0.0553055
-0.0822671
-0.114745
-0.152118
-0.189798
-0.2246
-0.25443
-0.278486
-0.297281
-0.311976
-0.323705
-0.333298
-0.34128
-0.347981
-0.353627
-0.358458
-0.362583
-0.365691
-0.0379227
-0.05979
-0.086953
-0.119414
-0.156102
-0.19197
-0.223842
-0.25015
-0.27087
-0.287035
-0.299911
-0.310482
-0.319356
-0.326877
-0.333242
-0.338601
-0.343149
-0.346967
-0.349803
-0.0401481
-0.062387
-0.0900403
-0.122956
-0.159477
-0.194024
-0.223455
-0.246791
-0.264732
-0.278714
-0.290048
-0.299576
-0.30773
-0.314713
-0.320632
-0.325576
-0.329708
-0.333103
-0.335586
-0.0404636
-0.0633058
-0.091805
-0.12569
-0.162575
-0.196297
-0.223765
-0.244621
-0.260205