/*--------------------------------*- C++ -*----------------------------------*\
| =========                 |                                                 |
| \\      /  F ield         | OpenFOAM: The Open Source CFD Toolbox           |
|  \\    /   O peration     | Version:  2312                                  |
|   \\  /    A nd           | Website:  www.openfoam.com                      |
|    \\/     M anipulation  |                                                 |
\*---------------------------------------------------------------------------*/
FoamFile
{
    version     2.0;
    format      ascii;
    arch        "LSB;label=32;scalar=64";
    class       surfaceScalarField;
    location    "83.848267641329613";
    object      phi;
}
// * * * * * * * * * * * * * * * * * * * * * * * * * * * * * * * * * * * * * //

dimensions      [0 3 -1 0 0 0 0];

oriented        oriented;

internalField   nonuniform List<scalar> 
41713
(
0.00736578
0.0568807
0.00362843
0.0679838
0.00211648
0.0657584
0.00148408
0.0648788
0.00109816
0.0646324
0.000843739
0.0645009
0.000668306
0.0644219
0.00054095
0.0643738
0.00044506
0.0643423
0.000370982
0.0643205
0.000312592
0.0643048
0.000265835
0.0642932
0.000227947
0.0642843
0.000196985
0.0642774
0.000171558
0.0642719
0.000150645
0.0642674
0.000133481
0.0642636
0.000119486
0.0642604
0.000108203
0.0642577
9.92536e-05
0.0642554
9.22812e-05
0.0642534
8.69306e-05
0.0642518
8.29219e-05
0.0642504
8.0045e-05
0.054814
7.76289e-05
0.0456784
7.54307e-05
0.0380655
7.34333e-05
0.0317214
7.16454e-05
0.0264346
0.022029
7.00311e-05
0.0099962
0.0468845
0.0084311
0.0695489
0.00571868
0.0684708
0.00412477
0.0664728
0.00312398
0.0656331
0.00243247
0.0651924
0.00193443
0.0649199
0.00156443
0.0647438
0.00128216
0.0646246
0.00106183
0.0645408
0.000886499
0.0644802
0.000744784
0.0644349
0.000628836
0.0644003
0.000533116
0.0643731
0.000453634
0.0643513
0.00038747
0.0643335
0.000332452
0.0643186
0.000286941
0.0643059
0.000249677
0.064295
0.000219668
0.0642854
0.000196106
0.064277
0.000178285
0.0642696
0.000165495
0.0642632
0.000157673
0.0548219
0.000152754
0.0456833
0.000149375
0.0380689
0.000146748
0.0317241
0.000144482
0.0264369
0.0220309
0.000142561
0.00859921
0.0382852
0.00971398
0.0684341
0.00747642
0.0707084
0.00570738
0.0682418
0.00451936
0.0668212
0.00363446
0.0660773
0.00295236
0.065602
0.00242147
0.0652747
0.00200311
0.065043
0.00166872
0.0648752
0.00139786
0.064751
0.00117591
0.0646569
0.000992309
0.0645839
0.000839354
0.0645261
0.000711377
0.0644793
0.000604157
0.0644407
0.000514525
0.0644082
0.000440075
0.0643804
0.000378958
0.0643561
0.000329735
0.0643346
0.000291261
0.0643154
0.000262582
0.0642983
0.000242739
0.0642831
0.000231549
0.0548331
0.000225397
0.0456895
0.000221825
0.0380725
0.000219401
0.0317265
0.00021743
0.0264389
0.0220325
0.000215805
0.00677807
0.0315072
0.00948314
0.065729
0.00813075
0.0720608
0.00645175
0.0699208
0.00526198
0.0680109
0.00435809
0.0669812
0.00362829
0.0663318
0.00303321
0.0658698
0.00254569
0.0655305
0.00214369
0.0652772
0.00180995
0.0650848
0.00153106
0.0649357
0.00129673
0.0648182
0.00109905
0.0647238
0.000931983
0.0646464
0.000790902
0.0645818
0.000672261
0.0645269
0.000573326
0.0644793
0.000491984
0.0644374
0.000426585
0.0644
0.000375821
0.0643662
0.000338609
0.0643355
0.000313773
0.0643079
0.00030077
0.0548461
0.000294534
0.0456957
0.000291632
0.0380754
0.000290118
0.031728
0.000289104
0.0264399
0.0220332
0.000288431
0.0050681
0.0264391
0.00857952
0.0622176
0.00819585
0.0724444
0.00675425
0.0713624
0.00560122
0.069164
0.00472809
0.0678543
0.00401305
0.0670468
0.00341214
0.0664707
0.0029044
0.0660382
0.00247389
0.0657077
0.00210765
0.065451
0.00179517
0.0652482
0.00152796
0.0650854
0.00129926
0.0649525
0.00110367
0.064842
0.000936956
0.0647485
0.000795761
0.0646681
0.000677473
0.0645976
0.000580047
0.0645349
0.00050188
0.0644782
0.000441696
0.0644264
0.000398416
0.0643788
0.000370761
0.0643356
0.000357668
0.0548592
0.000352738
0.0457006
0.00035168
0.0380764
0.000352109
0.0317276
0.000352971
0.026439
0.0220321
0.000354048
0.0036212
0.0228179
0.00732217
0.0585167
0.00780117
0.0719654
0.00674661
0.0724169
0.00568943
0.0702211
0.00486824
0.0686755
0.00419187
0.0677232
0.00361173
0.0670508
0.00310988
0.0665401
0.00267475
0.0661429
0.00229685
0.0658289
0.00196829
0.0655768
0.00168263
0.0653711
0.00143459
0.0652005
0.00121987
0.0650567
0.00103502
0.0649334
0.000877269
0.0648258
0.000744435
0.0647304
0.000634809
0.0646445
0.000547055
0.0645659
0.000480118
0.0644933
0.00043308
0.0644258
0.00040471
0.0643639
0.000393272
0.0548706
0.000391121
0.0457028
0.000393185
0.0380744
0.000396688
0.0317241
0.000400423
0.0264353
0.0220284
0.000404121
0.0025255
0.0202924
0.00603038
0.0550118
0.00711932
0.0708765
0.00649689
0.0730394
0.00559069
0.0711273
0.00484125
0.0694249
0.00421826
0.0683462
0.00367428
0.0675948
0.00319325
0.0670211
0.00276751
0.0665686
0.00239079
0.0662056
0.00205764
0.0659099
0.00176352
0.0656652
0.00150464
0.0654594
0.00127788
0.0652834
0.00108072
0.0651305
0.000911147
0.0649954
0.00076758
0.064874
0.000648825
0.0647632
0.000553983
0.0646608
0.000482379
0.0645649
0.000433406
0.0644748
0.000406017
0.0643913
0.000397689
0.0548789
0.000399596
0.0457009
0.000405948
0.038068
0.000413608
0.0317164
0.000421224
0.0264277
0.0220212
0.000428463
0.00176092
0.0185315
0.00489969
0.051873
0.00634415
0.069432
0.00610673
0.0732768
0.00537013
0.0718639
0.00469772
0.0700973
0.00413135
0.0689126
0.0036303
0.0680959
0.00317826
0.0674731
0.0027701
0.0669767
0.0024023
0.0665734
0.00207168
0.0662406
0.00177545
0.0659614
0.00151126
0.0657236
0.00127715
0.0655176
0.00107155
0.0653361
0.000893265
0.0651737
0.000741422
0.0650259
0.000615436
0.0648892
0.000514969
0.0647612
0.000439849
0.0646401
0.000389911
0.0645247
0.000364429
0.0644168
0.000360097
0.0548833
0.000366967
0.045694
0.000378556
0.0380564
0.000391353
0.0317036
0.000403822
0.0264152
0.0220095
0.000415527
0.00124976
0.0172817
0.00397835
0.0491444
0.00558951
0.0678208
0.00565932
0.073207
0.00508763
0.0724356
0.00448699
0.070698
0.00396992
0.0694296
0.00350911
0.0685567
0.00308704
0.0678952
0.00269915
0.0673646
0.00234364
0.0669289
0.00201903
0.0665652
0.00172399
0.0662565
0.0014574
0.0659902
0.00121836
0.0657566
0.00100625
0.0655483
0.000820663
0.0653593
0.000661465
0.0651851
0.00052875
0.0650219
0.000422817
0.0648672
0.000344106
0.0647188
0.000293019
0.0645758
0.000269301
0.0644405
0.000269029
0.0548835
0.000281161
0.0456819
0.000298505
0.0380391
0.000317149
0.031685
0.000335302
0.0263971
0.0219925
0.000352334
0.000914942
0.0163668
0.00324741
0.0468119
0.00489862
0.0661696
0.00519805
0.0729076
0.00477773
0.0728559
0.00424255
0.0712332
0.00376474
0.0699075
0.00333646
0.068985
0.00294017
0.0682915
0.00257071
0.0677341
0.00222702
0.0672726
0.00190867
0.0668835
0.00161534
0.0665498
0.00134687
0.0662586
0.00110324
0.0660002
0.000884627
0.0657669
0.000691402
0.0655525
0.000524143
0.0653523
0.000383641
0.0651625
0.000270896
0.0649799
0.000187054
0.0648026
0.000133198
0.0646297
0.000109679
0.064464
0.000112344
0.0548809
0.000129127
0.0456651
0.000152041
0.0380162
0.000176713
0.0316603
0.000201096
0.0263727
0.0219694
0.000224155
0.000696708
0.0156701
0.00267368
0.044835
0.00428411
0.0645592
0.00474388
0.0724478
0.0044564
0.0731434
0.00398135
0.0717082
0.00353436
0.0703544
0.00313024
0.0693891
0.00275356
0.0686682
0.00239828
0.0680894
0.00206346
0.0676074
0.00174922
0.0671978
0.00145591
0.0668431
0.00118403
0.0665305
0.00093424
0.06625
0.000707386
0.0659937
0.000504502
0.0657554
0.000326858
0.06553
0.000175932
0.0653134
5.34043e-05
0.0651025
-3.88378e-05
0.0648948
-9.89141e-05
0.0646897
-0.000125666
0.0644908
-0.000122766
0.054878
-0.000103226
0.0456455
-7.59249e-05
0.0379889
-4.60739e-05
0.0316304
-1.63914e-05
0.026343
0.0219408
1.22506e-05
0.000551478
0.0151186
0.00222323
0.0431632
0.0037458
0.0630366
0.00430858
0.071885
0.00413265
0.0733193
0.00371223
0.0721286
0.00328945
0.0707772
0.00290188
0.0697766
0.00253835
0.0690317
0.00219213
0.0684356
0.00186199
0.0679376
0.00154831
0.0675114
0.00125182
0.0671396
0.000973481
0.0668089
0.000714438
0.066509
0.000476067
0.0662321
0.000259987
0.0659715
6.79966e-05
0.065722
-9.78472e-05
0.0654792
-0.000235134
0.0652397
-0.00034115
0.0650009
-0.000413107
0.0647617
-0.000448914
0.0645266
-0.000450707
0.0548798
-0.000432273
0.0456271
-0.000403285
0.0379599
-0.000369498
0.0315966
-0.000334228
0.0263077
0.0219062
-0.000299647
0.000450046
0.0146685
0.00186602
0.0417473
0.00327708
0.0616256
0.00389853
0.0712636
0.00381271
0.0734052
0.00344093
0.0725004
0.00303705
0.0711811
0.00265943
0.0701543
0.00230282
0.0693883
0.00196029
0.0687781
0.00163015
0.0682677
0.00131274
0.0678289
0.00100897
0.0674434
0.000720076
0.0670978
0.000447553
0.0667816
0.000193135
0.0664865
-4.12184e-05
0.0662058
-0.000253226
0.065934
-0.000440163
0.0656662
-0.000598865
0.0653984
-0.000725857
0.0651279
-0.000817567
0.0648534
-0.000871051
0.0645801
-0.000885356
0.0548941
-0.000874427
0.0456162
-0.000848601
0.037934
-0.000814484
0.0315625
-0.000776262
0.0262695
0.0218668
-0.000736834
0.000374779
0.0142938
0.00157842
0.0405436
0.00286906
0.0603349
0.00351625
0.0706164
0.00350081
0.0734206
0.00317157
0.0728297
0.00278242
0.0715702
0.00240927
0.0705274
0.00205393
0.0697437
0.0017099
0.0691222
0.00137494
0.0686027
0.00104918
0.0681546
0.000733527
0.067759
0.000429322
0.067402
0.00013816
0.0670727
-0.00013809
0.0667628
-0.000397146
0.0664649
-0.000636177
0.066173
-0.000851851
0.0658818
-0.00104039
0.065587
-0.00119767
0.0652851
-0.00131954
0.0649753
-0.00140265
0.0646632
-0.00144143
0.0549328
-0.00144919
0.0456239
-0.00143618
0.037921
-0.00140929
0.0315356
-0.00137371
0.0262339
0.0218268
-0.00133372
0.000315622
0.0139781
0.00134477
0.0395145
0.00251596
0.0591637
0.0031644
0.0699679
0.00320055
0.0733845
0.00290695
0.0731232
0.00252902
0.0719482
0.00215603
0.0709004
0.00179712
0.0701026
0.00144685
0.0694724
0.0011025
0.068947
0.000763838
0.0684933
0.00043161
0.0680912
0.000106998
0.0677266
-0.000208499
0.0673882
-0.000512906
0.0670672
-0.000803601
0.0667556
-0.00107736
0.0664468
-0.00133037
0.0661348
-0.00155826
0.0658149
-0.00175637
0.0654832
-0.00192036
0.0651393
-0.00204761
0.0647905
-0.00212728
0.0550125
-0.00217164
0.0456683
-0.00218927
0.0379387
-0.00218523
0.0315316
-0.0021641
0.0262128
0.021794
-0.00213134
0.000229891
0.0137482
0.000983325
0.038761
0.00188192
0.0582652
0.00241775
0.0694321
0.00247715
0.073325
0.00225258
0.0733478
0.00194064
0.0722601
0.00162414
0.0712169
0.00131619
0.0704105
0.00101326
0.0697754
0.000712691
0.0692476
0.000413897
0.0687921
0.000117192
0.0683879
-0.000176756
0.0680205
-0.000466849
0.0676783
-0.000751416
0.0673517
-0.00102823
0.0670324
-0.00129443
0.066713
-0.00154646
0.0663869
-0.00178009
0.0660485
-0.00199064
0.0656938
-0.00217392
0.0653225
-0.00232827
0.0649448
-0.00244028
0.0551245
-0.00252185
0.0457499
-0.0025799
0.0379967
-0.00261556
0.0315673
-0.00262859
0.0262258
0.0217878
-0.00262239
0.000170862
0.0135774
0.000730165
0.0382017
0.00142051
0.0575748
0.00185545
0.0689972
0.00192025
0.0732602
0.00174656
0.0735215
0.00149013
0.0725166
0.00122406
0.071483
0.000962733
0.0706719
0.000703855
0.0700342
0.000444929
0.0695065
0.000185099
0.0690519
-7.57631e-05
0.0686488
-0.00033739
0.0682821
-0.000599074
0.06794
-0.000859676
0.0676123
-0.00111756
0.0672903
-0.00137046
0.0669659
-0.00161538
0.0666318
-0.0018485
0.0662816
-0.0020652
0.0659105
-0.00226089
0.0655182
-0.00243301
0.0651169
-0.00256497
0.0552565
-0.00267089
0.0458558
-0.0027622
0.038088
-0.00284352
0.0316486
-0.00291239
0.0262947
0.0218306
-0.00295524
0.000131134
0.0134462
0.000555118
0.0377777
0.00109193
0.057038
0.00144432
0.0686448
0.00150651
0.0731981
0.00137025
0.0736578
0.00115913
0.0727277
0.000936025
0.0717061
0.00071501
0.0708929
0.000494671
0.0702546
0.000272731
0.0697285
4.81803e-05
0.0692765
-0.000179371
0.0688764
-0.000409974
0.0685127
-0.000643328
0.0681734
-0.000878832
0.0678478
-0.00111547
0.0675269
-0.00135168
0.0672021
-0.00158522
0.0668653
-0.00181298
0.0665094
-0.00203085
0.0661284
-0.00223398
0.0657214
-0.00241758
0.0653005
-0.00255798
0.0553969
-0.00266711
0.0459649
-0.00276167
0.0381826
-0.00285599
0.0317429
-0.0029681
0.0264068
0.0219706
-0.0031081
0.000100007
0.0133462
0.000429484
0.0374483
0.000855594
0.0566119
0.00114335
0.068357
0.00119822
0.0731432
0.00108765
0.0737683
0.000912231
0.0729031
0.000725331
0.071893
0.000539211
0.071079
0.000352575
0.0704412
0.000163337
0.0699177
-2.95205e-05
0.0694693
-0.000226496
0.0690733
-0.000427856
0.0687141
-0.000633675
0.0683792
-0.000843807
0.068058
-0.00105781
0.0677409
-0.00127484
0.0674191
-0.00149345
0.067084
-0.00171154
0.0667275
-0.00192617
0.066343
-0.00213368
0.0659289
-0.00232903
0.0654959
-0.00248097
0.0555488
-0.00258997
0.0460739
-0.00266267
0.0382553
-0.00270899
0.0317892
-0.00274734
0.0264452
-0.00291415
0.0221375
0.000114545
0.0219828
0.00015654
0.0219854
0.000189596
0.0219943
0.000220307
0.0219966
0.000245201
0.0220025
0.000265564
0.022007
0.000282897
0.02201
0.000293913
0.0220163
0.000302921
0.0220183
0.000306909
0.0220234
0.000307827
0.0220264
0.000306217
0.022029
0.000300162
0.0220334
0.0002925
0.022035
0.000281586
0.0220383
0.000268363
0.0220406
0.000253798
0.0220419
0.000236252
0.0220449
0.000217635
0.022046
0.000197772
0.0220472
0.00017634
0.0220488
0.000154284
0.0220494
0.000131552
0.0220501
0.000108303
0.0220506
8.49366e-05
0.0220507
6.16199e-05
0.0220507
3.87392e-05
0.0220502
1.62906e-05
0.0220498
-5.4047e-06
0.0220491
-2.57059e-05
0.0220477
-4.51116e-05
0.0220468
-6.279e-05
0.022045
-7.84373e-05
0.022043
-9.28201e-05
0.0220417
-0.000103897
0.0220384
-0.000112994
0.0220365
-0.000119802
0.0220342
-0.000122427
0.02203
-0.000123261
0.0220282
-0.000119412
0.0220235
-0.000112395
0.0220203
-0.000102244
0.0220172
-8.6281e-05
0.0220114
-6.8148e-05
0.0220092
-4.32839e-05
0.0220025
-1.4965e-05
0.021999
1.81746e-05
0.0219942
5.76837e-05
0.0219878
0.0219853
9.97068e-05
0.000186764
0.0219386
0.000228669
0.0219435
0.000261859
0.0219611
0.000292939
0.0219656
0.000318447
0.021977
0.000339664
0.0219858
0.000358079
0.0219916
0.000370403
0.022004
0.000380924
0.0220078
0.000386625
0.0220177
0.000389439
0.0220236
0.000389892
0.0220285
0.000386064
0.0220372
0.000380768
0.0220403
0.000372354
0.0220467
0.000361747
0.0220512
0.000349898
0.0220538
0.000335167
0.0220596
0.000319437
0.0220617
0.000302523
0.0220641
0.000284095
0.0220672
0.000265076
0.0220684
0.000245404
0.0220698
0.000225231
0.0220708
0.000204933
0.022071
0.000184668
0.0220709
0.000164818
0.0220701
0.000145353
0.0220693
0.000126589
0.0220678
0.00010916
0.0220651
9.25398e-05
0.0220634
7.75556e-05
0.02206
6.44968e-05
0.0220561
5.25711e-05
0.0220537
4.38266e-05
0.0220472
3.69082e-05
0.0220434
3.21124e-05
0.022039
3.13363e-05
0.0220308
3.21527e-05
0.0220274
3.74623e-05
0.0220182
4.57242e-05
0.0220121
5.68909e-05
0.022006
7.36429e-05
0.0219946
9.23032e-05
0.0219906
0.000117444
0.0219774
0.000145753
0.0219707
0.000178583
0.0219614
0.000217462
0.021949
0.0219443
0.000258505
0.000260156
0.0218943
0.000302414
0.0219012
0.000336213
0.0219273
0.000368145
0.0219336
0.000394753
0.0219503
0.000417309
0.0219632
0.000437284
0.0219716
0.000451394
0.0219899
0.000463895
0.0219953
0.000471773
0.0220098
0.000476943
0.0220185
0.000479913
0.0220255
0.000478764
0.0220384
0.00047628
0.0220428
0.000470809
0.0220522
0.00046326
0.0220587
0.000454561
0.0220625
0.000443078
0.0220711
0.000430663
0.0220741
0.000417121
0.0220777
0.000402119
0.0220822
0.000386551
0.022084
0.000370347
0.022086
0.000353654
0.0220875
0.000336821
0.0220879
0.000319996
0.0220878
0.000303558
0.0220865
0.000287449
0.0220854
0.000271974
0.0220833
0.000257766
0.0220793
0.000244267
0.0220769
0.000232304
0.022072
0.000222152
0.0220662
0.000212992
0.0220628
0.000206882
0.0220533
0.000202435
0.0220478
0.000199936
0.0220415
0.000201285
0.0220294
0.000204018
0.0220246
0.000211046
0.0220112
0.0002208
0.0220023
0.000233218
0.0219936
0.000250987
0.0219769
0.000270388
0.0219712
0.000296008
0.0219517
0.000324499
0.0219422
0.000357207
0.0219287
0.000395646
0.0219105
0.021904
0.000435889
0.000333642
0.0218491
0.000376943
0.0218579
0.000412018
0.0218922
0.000445465
0.0219002
0.000473836
0.021922
0.000498398
0.0219387
0.000520608
0.0219494
0.000537182
0.0219733
0.000552352
0.0219802
0.000563103
0.021999
0.000571327
0.0220102
0.000577519
0.0220194
0.000579756
0.0220362
0.000580794
0.0220418
0.000578979
0.022054
0.0005752
0.0220625
0.000570363
0.0220673
0.000562841
0.0220786
0.000554449
0.0220825
0.000544983
0.0220871
0.000534108
0.0220931
0.000522686
0.0220954
0.00051064
0.022098
0.000498107
0.0221
0.00048541
0.0221006
0.000472687
0.0221005
0.000460312
0.0220989
0.000448197
0.0220975
0.000436639
0.0220948
0.000426267
0.0220897
0.000416489
0.0220867
0.000408132
0.0220803
0.000401459
0.0220729
0.00039562
0.0220687
0.000392687
0.0220562
0.000391238
0.0220493
0.000391545
0.0220412
0.000395517
0.0220254
0.000400647
0.0220195
0.000409862
0.022002
0.000421564
0.0219906
0.000435678
0.0219795
0.000454898
0.0219577
0.000475462
0.0219506
0.000501981
0.0219252
0.000531066
0.0219132
0.000564055
0.0218957
0.000602461
0.0218721
0.0218642
0.000642306
0.000401033
0.0218021
0.000446286
0.0218126
0.000483539
0.021855
0.000519398
0.0218643
0.000550433
0.0218909
0.000577904
0.0219112
0.000603261
0.0219241
0.000623221
0.0219534
0.000641989
0.0219614
0.000656549
0.0219845
0.000668773
0.021998
0.00067914
0.022009
0.000685726
0.0220296
0.000691253
0.0220362
0.000694067
0.0220512
0.000695035
0.0220615
0.000695038
0.0220673
0.000692458
0.0220812
0.000689072
0.0220859
0.000684662
0.0220916
0.000678892
0.0220989
0.000672589
0.0221017
0.000665666
0.0221049
0.000658254
0.0221074
0.000650645
0.0221082
0.000642965
0.0221082
0.000635584
0.0221063
0.000628381
0.0221047
0.000621643
0.0221016
0.000615995
0.0220953
0.00061081
0.0220918
0.000606916
0.0220842
0.000604559
0.0220752
0.000602859
0.0220704
0.000603903
0.0220552
0.000606232
0.0220469
0.000610107
0.0220373
0.000617445
0.0220181
0.000625694
0.0220113
0.000637804
0.0219898
0.000652143
0.0219763
0.000668624
0.021963
0.000689957
0.0219363
0.000712332
0.0219282
0.00074039
0.0218972
0.000770702
0.0218828
0.000804604
0.0218618
0.000843608
0.0218331
0.0218241
0.000883682
0.000453967
0.0217522
0.000502269
0.0217643
0.0005428
0.0218145
0.000582182
0.0218249
0.000617
0.0218561
0.000648516
0.0218797
0.000678172
0.0218944
0.000702683
0.0219289
0.000726233
0.0219378
0.000745804
0.0219649
0.000763247
0.0219806
0.000779022
0.0219932
0.000791202
0.0220174
0.000802478
0.022025
0.00081119
0.0220424
0.000818185
0.0220545
0.000824318
0.0220612
0.000827972
0.0220776
0.000830887
0.022083
0.000832833
0.0220896
0.000833464
0.0220982
0.000833575
0.0221016
0.000833067
0.0221054
0.00083206
0.0221084
0.000830811
0.0221094
0.000829437
0.0221095
0.0008283
0.0221074
0.000827241
0.0221058
0.000826538
0.0221023
0.00082681
0.022095
0.000827392
0.0220913
0.000829111
0.0220825
0.000832198
0.0220722
0.000835737
0.0220668
0.000841835
0.0220491
0.00084899
0.0220398
0.000857452
0.0220288
0.000869151
0.0220064
0.000881485
0.0219989
0.000897427
0.0219739
0.000915316
0.0219584
0.000935049
0.0219433
0.000959358
0.021912
0.000984379
0.0219032
0.0010148
0.0218667
0.00104713
0.0218505
0.00108272
0.0218262
0.00112309
0.0217928
0.0217831
0.00116413
0.000482424
0.0216983
0.000535061
0.0217117
0.000580176
0.0217693
0.000624414
0.0217807
0.000664371
0.0218162
0.000701315
0.0218427
0.000736682
0.021859
0.000767184
0.0218984
0.000796988
0.021908
0.000823066
0.0219388
0.000847253
0.0219564
0.000869989
0.0219705
0.000889337
0.021998
0.000907959
0.0220063
0.000924186
0.0220262
0.000938841
0.0220399
0.000952752
0.0220473
0.0009643
0.022066
0.000975187
0.0220721
0.000985164
0.0220796
0.000993877
0.0220895
0.00100208
0.0220934
0.00100966
0.0220979
0.00101673
0.0221014
0.0010235
0.0221026
0.00103008
0.022103
0.00103682
0.0221007
0.00104351
0.0220991
0.00105043
0.0220954
0.00105818
0.0220873
0.00106606
0.0220834
0.00107489
0.0220737
0.00108489
0.0220622
0.00109509
0.0220566
0.00110763
0.0220365
0.00112096
0.0220265
0.00113531
0.0220145
0.00115263
0.0219891
0.00117027
0.0219813
0.00119122
0.021953
0.00121378
0.0219358
0.00123785
0.0219192
0.00126618
0.0218837
0.00129484
0.0218745
0.00132857
0.021833
0.00136385
0.0218152
0.00140201
0.021788
0.00144458
0.0217502
0.0217403
0.0014874
0.000475003
0.0216388
0.000533428
0.0216533
0.000584617
0.0217181
0.00063525
0.0217301
0.00068193
0.0217695
0.000725931
0.0217987
0.000768689
0.0218163
0.000806907
0.0218601
0.000844741
0.0218702
0.000879148
0.0219044
0.000911945
0.0219236
0.000943553
0.0219389
0.000972018
0.0219696
0.000999977
0.0219784
0.00102574
0.0220005
0.00105011
0.0220155
0.00107388
0.0220235
0.00109542
0.0220445
0.0011164
0.0220511
0.00113655
0.0220595
0.00115549
0.0220706
0.00117393
0.022075
0.00119176
0.02208
0.00120904
0.0220841
0.00122597
0.0220857
0.00124262
0.0220863
0.00125933
0.022084
0.00127585
0.0220825
0.00129243
0.0220788
0.00130967
0.02207
0.00132681
0.0220662
0.00134466
0.0220558
0.00136344
0.0220434
0.00138212
0.0220379
0.00140285
0.0220158
0.00142405
0.0220053
0.00144592
0.0219926
0.00147043
0.0219646
0.00149486
0.0219569
0.00152225
0.0219256
0.00155086
0.0219072
0.00158055
0.0218895
0.00161413
0.0218501
0.0016476
0.0218411
0.00168575
0.0217948
0.001725
0.021776
0.0017667
0.0217463
0.00181239
0.0217045
0.0216948
0.00185782
0.000418829
0.0215723
0.000484622
0.0215875
0.000543536
0.0216592
0.000602311
0.0216713
0.000657534
0.0217143
0.00071049
0.0217458
0.000762617
0.0217642
0.000810596
0.0218122
0.000858588
0.0218222
0.000903518
0.0218595
0.000947192
0.0218799
0.000990007
0.021896
0.00102998
0.0219296
0.00106973
0.0219386
0.00110754
0.0219626
0.00114418
0.0219789
0.00118042
0.0219872
0.0012146
0.0220103
0.00124836
0.0220174
0.00128138
0.0220265
0.00131327
0.0220387
0.0013447
0.0220435
0.00137552
0.0220492
0.00140577
0.0220538
0.00143559
0.0220559
0.00146502
0.0220569
0.0014944
0.0220546
0.0015234
0.0220535
0.00155226
0.0220499
0.00158155
0.0220408
0.00161045
0.0220373
0.00163978
0.0220265
0.0016697
0.0220135
0.00169914
0.0220085
0.00173029
0.0219847
0.00176146
0.0219741
0.00179288
0.0219612
0.0018265
0.0219309
0.00185955
0.0219238
0.00189509
0.02189
0.00193135
0.021871
0.00196818
0.0218527
0.00200841
0.0218099
0.00204798
0.0218015
0.00209175
0.0217511
0.00213607
0.0217317
0.00218232
0.0217001
0.00223203
0.0216548
0.021646
0.00228089
0.00029917
0.0214973
0.000374029
0.0215126
0.000442488
0.0215908
0.00051132
0.0216025
0.00057709
0.0216485
0.000641138
0.0216817
0.000704912
0.0217004
0.000765044
0.021752
0.000825711
0.0217615
0.000883792
0.0218014
0.000941081
0.0218226
0.000997951
0.0218392
0.00105238
0.0218752
0.00110696
0.021884
0.00115994
0.0219097
0.00121206
0.0219268
0.00126406
0.0219353
0.00131422
0.0219601
0.00136416
0.0219674
0.00141351
0.0219771
0.00146185
0.0219904
0.00150979
0.0219956
0.00155713
0.0220019
0.00160388
0.0220071
0.00165013
0.0220096
0.00169587
0.0220111
0.00174138
0.0220091
0.0017863
0.0220086
0.00183081
0.0220054
0.00187545
0.0219961
0.00191934
0.0219934
0.00196327
0.0219826
0.00200735
0.0219694
0.00205045
0.0219654
0.00209478
0.0219403
0.00213858
0.0219303
0.00218202
0.0219177
0.00222712
0.0218858
0.00227097
0.02188
0.00231673
0.0218443
0.00236253
0.0218252
0.00240822
0.021807
0.00245668
0.0217614
0.00250376
0.0217544
0.00255442
0.0217004
0.00260493
0.0216811
0.00265669
0.0216483
0.00271127
0.0216002
0.021593
0.00276424
9.74182e-05
0.0214121
0.000183538
0.0214265
0.000263986
0.0215103
0.000344903
0.0215215
0.000423662
0.0215697
0.000501418
0.021604
0.000579576
0.0216222
0.000654712
0.0216769
0.000731069
0.0216852
0.000805461
0.021727
0.000879685
0.0217484
0.000954086
0.0217648
0.00102658
0.0218027
0.00109977
0.0218108
0.00117183
0.0218376
0.00124347
0.0218551
0.00131538
0.0218633
0.0013858
0.0218897
0.00145628
0.0218969
0.0015264
0.021907
0.00159569
0.0219211
0.0016647
0.0219266
0.00173315
0.0219334
0.00180101
0.0219392
0.00186829
0.0219424
0.0019349
0.0219445
0.0020011
0.0219429
0.00206641
0.0219433
0.00213096
0.0219409
0.00219525
0.0219318
0.00225829
0.0219304
0.00232084
0.02192
0.00238296
0.0219073
0.00244342
0.0219049
0.00250444
0.0218793
0.00256418
0.0218706
0.00262275
0.0218591
0.0026822
0.0218264
0.00273951
0.0218226
0.00279788
0.0217859
0.00285541
0.0217676
0.0029119
0.0217505
0.0029703
0.021703
0.00302636
0.0216984
0.00308517
0.0216416
0.0031429
0.0216234
0.00320099
0.0215902
0.00326105
0.0215401
0.0215355
0.00331856
-0.000203933
0.0213164
-0.000106694
0.0213293
-1.42232e-05
0.0214179
8.19392e-05
0.0214254
0.000176582
0.0214751
0.000271007
0.0215095
0.000366662
0.0215266
0.000460162
0.0215834
0.000555826
0.0215895
0.000650374
0.0216325
0.000745618
0.0216531
0.000841884
0.0216685
0.000936992
0.0217076
0.00103356
0.0217143
0.00112967
0.0217415
0.001226
0.0217588
0.00132318
0.0217662
0.00141936
0.0217935
0.00151604
0.0218003
0.00161274
0.0218103
0.00170887
0.0218249
0.00180492
0.0218305
0.00190052
0.0218378
0.00199556
0.0218442
0.00208994
0.021848
0.00218348
0.021851
0.00227636
0.02185
0.00236798
0.0218517
0.00245837
0.0218505
0.00254798
0.0218422
0.00263566
0.0218427
0.00272211
0.0218336
0.00280733
0.0218221
0.00288994
0.0218223
0.00297217
0.0217971
0.00305204
0.0217907
0.00312963
0.0217816
0.00320698
0.0217491
0.00328094
0.0217487
0.00335479
0.0217121
0.00342651
0.0216959
0.00349593
0.0216811
0.00356606
0.0216329
0.00363252
0.0216319
0.00370057
0.0215736
0.00376629
0.0215577
0.00383119
0.0215253
0.00389692
0.0214744
0.0214736
0.00395886
-0.000627974
0.0212076
-0.000515757
0.021217
-0.000407091
0.0213092
-0.00029559
0.0213139
-0.000184175
0.0213637
-7.13706e-05
0.0213967
4.44749e-05
0.0214107
0.000159507
0.0214684
0.000278073
0.021471
0.000396821
0.0215137
0.000517793
0.0215322
0.000641068
0.0215452
0.000764376
0.0215843
0.000890343
0.0215883
0.00101688
0.021615
0.00114457
0.0216311
0.00127397
0.0216368
0.00140309
0.0216644
0.00153339
0.02167
0.00166425
0.0216794
0.00179499
0.0216942
0.001926
0.0216995
0.00205677
0.0217071
0.00218708
0.0217138
0.00231667
0.0217184
0.00244525
0.0217224
0.00257286
0.0217224
0.00269874
0.0217258
0.00282276
0.0217265
0.00294527
0.0217197
0.00306493
0.0217231
0.00318233
0.0217162
0.00329733
0.0217071
0.00340838
0.0217113
0.00351771
0.0216878
0.00362313
0.0216853
0.00372464
0.02168
0.00382431
0.0216494
0.00391878
0.0216542
0.00401143
0.0216194
0.00410014
0.0216072
0.0041847
0.0215965
0.00426827
0.0215493
0.00434631
0.0215539
0.00442431
0.0214956
0.00449826
0.0214837
0.00456976
0.0214538
0.00464058
0.0214036
0.0214082
0.00470598
-0.00121332
0.0210872
-0.00108741
0.0210911
-0.00096307
0.0211849
-0.000832776
0.0211836
-0.000700486
0.0212314
-0.000564782
0.021261
-0.000424184
0.0212701
-0.000282395
0.0213266
-0.000134826
0.0213234
1.47571e-05
0.0213641
0.000167716
0.0213792
0.000324618
0.0213883
0.000483276
0.0214256
0.000646433
0.0214252
0.000811585
0.0214498
0.000979285
0.0214634
0.00114997
0.0214661
0.00132144
0.0214929
0.00149508
0.0214963
0.00167013
0.0215044
0.00184579
0.0215185
0.00202229
0.021523
0.00219897
0.0215304
0.00237546
0.0215374
0.00255128
0.0215426
0.00272594
0.0215477
0.0028993
0.021549
0.00307033
0.0215548
0.0032387
0.0215581
0.00340456
0.0215539
0.00356625
0.0215614
0.00372422
0.0215582
0.00387813
0.0215532
0.00402613
0.0215633
0.00417042
0.0215435
0.00430853
0.0215471
0.00444034
0.0215482
0.00456791
0.0215218
0.00468762
0.0215345
0.00480295
0.0215041
0.00491166
0.0214985
0.0050135
0.0214947
0.00511182
0.021451
0.00520189
0.0214638
0.00528956
0.0214079
0.00537073
0.0214026
0.00544718
0.0213774
0.0055209
0.0213299
0.021342
0.00558703
-0.00200204
0.0209579
-0.00186362
0.0209527
-0.00172409
0.0210453
-0.00157536
0.0210349
-0.00142113
0.0210772
-0.00125962
0.0210995
-0.00108916
0.0210997
-0.000913967
0.0211514
-0.00072962
0.021139
-0.000540257
0.0211748
-0.000344145
0.0211831
-0.000141709
0.0211859
6.36052e-05
0.0212203
0.000274064
0.0212147
0.000488192
0.0212357
0.000707389
0.0212442
0.000931117
0.0212424
0.00115719
0.0212669
0.0013869
0.0212666
0.00161935
0.0212719
0.00185363
0.0212842
0.00208978
0.0212869
0.00232697
0.0212932
0.00256459
0.0212997
0.00280188
0.0213053
0.00303804
0.0213116
0.00327266
0.0213144
0.00350423
0.0213232
0.00373209
0.0213302
0.00395608
0.0213299
0.00417403
0.0213434
0.00438612
0.0213461
0.00459165
0.0213476
0.00478834
0.0213666
0.00497834
0.0213535
0.00515873
0.0213667
0.00532919
0.0213778
0.0054918
0.0213592
0.00564252
0.0213838
0.00578504
0.0213616
0.00591686
0.0213667
0.00603771
0.0213739
0.00615121
0.0213375
0.00625241
0.0213626
0.00634769
0.0213126
0.00643291
0.0213174
0.00651024
0.0213001
0.00658205
0.021258
0.0212807
0.00664335
-0.00251768
0.0208532
-0.00240231
0.0208373
-0.0022812
0.0209242
-0.00214493
0.0208986
-0.00199634
0.0209286
-0.00183441
0.0209376
-0.00165882
0.0209241
-0.00147447
0.020967
-0.00127861
0.0209432
-0.00107587
0.020972
-0.000865652
0.0209729
-0.000648496
0.0209687
-0.000426822
0.0209986
-0.000198483
0.0209864
3.34678e-05
0.0210037
0.000267864
0.0210098
0.000508213
0.021002
0.000752234
0.0210228
0.00100101
0.0210178
0.00125381
0.0210191
0.00150985
0.0210282
0.00176906
0.0210277
0.00203059
0.0210317
0.00229372
0.0210366
0.00255745
0.0210416
0.00282072
0.0210483
0.00308279
0.0210524
0.0033418
0.0210642
0.0035967
0.0210753
0.00384688
0.0210797
0.00408986
0.0211004
0.00432539
0.0211106
0.00455243
0.0211206
0.00476852
0.0211505
0.00497536
0.0211466
0.00517006
0.021172
0.00535211
0.0211957
0.00552333
0.021188
0.00567993
0.0212272
0.0058252
0.0212163
0.00595684
0.021235
0.00607455
0.0212562
0.00618155
0.0212305
0.00627329
0.0212709
0.00635558
0.0212303
0.00642477
0.0212482
0.00648321
0.0212416
0.00653368
0.0212076
0.0212419
0.00657247
-0.00287369
0.0207716
-0.00279116
0.0207548
-0.00269923
0.0208323
-0.00258139
0.0207807
-0.00243966
0.0207868
-0.0022759
0.0207738
-0.00209336
0.0207415
-0.00189933
0.020773
-0.00169352
0.0207374
-0.00148124
0.0207598
-0.00126261
0.0207543
-0.0010385
0.0207446
-0.000811345
0.0207715
-0.00057916
0.0207542
-0.00034317
0.0207677
-0.000102022
0.0207687
0.000142262
0.0207577
0.00039046
0.0207746
0.000644585
0.0207637