/*--------------------------------*- C++ -*----------------------------------*\
| =========                 |                                                 |
| \\      /  F ield         | OpenFOAM: The Open Source CFD Toolbox           |
|  \\    /   O peration     | Version:  2312                                  |
|   \\  /    A nd           | Website:  www.openfoam.com                      |
|    \\/     M anipulation  |                                                 |
\*---------------------------------------------------------------------------*/
FoamFile
{
    version     2.0;
    format      ascii;
    arch        "LSB;label=32;scalar=64";
    class       volScalarField;
    location    "41.197300131481001";
    object      p;
}
// * * * * * * * * * * * * * * * * * * * * * * * * * * * * * * * * * * * * * //

dimensions      [0 2 -2 0 0 0 0];

internalField   nonuniform List<scalar> 
21039
(
0.602324
0.468615
0.426328
0.398063
0.376716
0.360602
0.348125
0.338183
0.330093
0.323404
0.317799
0.313048
0.308979
0.305461
0.302392
0.299688
0.297282
0.295118
0.293149
0.291334
0.289638
0.28803
0.286483
0.285061
0.283826
0.282738
0.281755
0.280843
0.279984
0.455316
0.417418
0.403539
0.385157
0.368359
0.355035
0.344245
0.335352
0.327963
0.321766
0.316517
0.312033
0.308168
0.304811
0.30187
0.299272
0.296954
0.294864
0.292959
0.291198
0.289548
0.287979
0.286464
0.285063
0.283836
0.282751
0.281768
0.280856
0.279997
0.365869
0.363444
0.365578
0.358817
0.35034
0.342508
0.335215
0.328639
0.322855
0.317803
0.313393
0.30954
0.306163
0.303191
0.30056
0.298217
0.296113
0.294206
0.292459
0.290836
0.289308
0.287845
0.286423
0.285095
0.283921
0.282872
0.281919
0.281029
0.28019
0.32775
0.329856
0.334305
0.333202
0.330552
0.3273
0.323458
0.319495
0.315678
0.312107
0.308829
0.305853
0.30317
0.300755
0.298582
0.29662
0.29484
0.293213
0.291711
0.290306
0.288973
0.287687
0.286426
0.285233
0.284163
0.283196
0.282306
0.281466
0.280664
0.30273
0.306694
0.312565
0.314255
0.314432
0.313677
0.312109
0.31014
0.307991
0.305788
0.303626
0.301564
0.299633
0.297844
0.296199
0.294689
0.293301
0.292019
0.290825
0.289699
0.288621
0.28757
0.286527
0.285522
0.284601
0.28375
0.28295
0.28218
0.281429
0.28309
0.288342
0.295677
0.299529
0.301519
0.302307
0.302211
0.30161
0.300689
0.299569
0.298353
0.297112
0.295891
0.294719
0.293614
0.29258
0.291617
0.290719
0.289876
0.289074
0.288298
0.287531
0.286755
0.285984
0.285249
0.284545
0.28386
0.283179
0.282494
0.270318
0.275338
0.282422
0.287357
0.290569
0.2925
0.293503
0.293923
0.293937
0.293675
0.29324
0.292705
0.292121
0.291526
0.290942
0.290385
0.289861
0.289369
0.288906
0.288464
0.28803
0.28759
0.287128
0.286636
0.286127
0.285603
0.285061
0.284489
0.283887
0.26302
0.267118
0.272852
0.277797
0.281501
0.284083
0.285822
0.286985
0.28772
0.288146
0.288359
0.288431
0.288414
0.288347
0.288259
0.288167
0.288082
0.28801
0.287949
0.287894
0.287837
0.287765
0.287663
0.287498
0.287257
0.286948
0.286578
0.28614
0.285638
0.258501
0.261698
0.266064
0.270557
0.274261
0.277069
0.279192
0.280824
0.282069
0.283022
0.283759
0.284343
0.284822
0.285234
0.285608
0.285963
0.286313
0.286665
0.28702
0.287377
0.287727
0.288061
0.288366
0.288575
0.288646
0.288593
0.288427
0.288151
0.28777
0.255104
0.257551
0.260878
0.264847
0.268368
0.271197
0.273492
0.275392
0.276976
0.278311
0.279457
0.280462
0.281368
0.282209
0.283009
0.283789
0.284563
0.285339
0.28612
0.286905
0.287691
0.288466
0.289221
0.289854
0.290286
0.29053
0.290607
0.290523
0.290288
0.25213
0.253974
0.256557
0.260021
0.26331
0.266093
0.268463
0.270523
0.272335
0.27395
0.275414
0.276765
0.278036
0.279256
0.280448
0.281629
0.282813
0.284009
0.285221
0.28645
0.287692
0.288942
0.290188
0.291296
0.292136
0.292723
0.293085
0.293232
0.293173
0.249267
0.250664
0.25272
0.255724
0.25877
0.261475
0.263872
0.266032
0.268005
0.269833
0.271551
0.27319
0.274776
0.276335
0.277885
0.279444
0.281024
0.282633
0.284278
0.285959
0.287677
0.289427
0.291204
0.292832
0.294132
0.29511
0.295792
0.296191
0.296333
0.246357
0.247442
0.249131
0.251739
0.25455
0.257162
0.259553
0.261771
0.26386
0.265852
0.267776
0.269657
0.271518
0.273379
0.27526
0.277174
0.279134
0.28115
0.283226
0.285365
0.287568
0.289834
0.292166
0.29435
0.296151
0.297566
0.298618
0.299317
0.29968
0.243334
0.244202
0.24563
0.247907
0.250501
0.253013
0.255378
0.257626
0.259795
0.261913
0.264004
0.266089
0.268188
0.270321
0.272504
0.274753
0.27708
0.279494
0.281999
0.284596
0.287285
0.290066
0.292951
0.295694
0.29801
0.29989
0.301352
0.302396
0.303033
0.240179
0.240897
0.24212
0.244106
0.24649
0.248896
0.251224
0.253483
0.255707
0.257919
0.260143
0.262396
0.2647
0.267072
0.269531
0.272096
0.274777
0.277582
0.280513
0.283565
0.286734
0.290013
0.293413
0.296655
0.299426
0.30173
0.303591
0.304995
0.305936
0.237161
0.237769
0.238831
0.2406
0.242814
0.245122
0.247406
0.249664
0.251921
0.254201
0.256522
0.258906
0.261374
0.263946
0.266646
0.269492
0.272496
0.275667
0.279
0.282487
0.286104
0.28982
0.293616
0.297143
0.300085
0.302512
0.304513
0.306112
0.307295
0.234591
0.235129
0.236091
0.237721
0.239808
0.242028
0.244274
0.246532
0.248819
0.251151
0.253549
0.256037
0.258637
0.261377
0.264283
0.267374
0.270668
0.274171
0.277881
0.281779
0.285822
0.289936
0.29403
0.297609
0.300294
0.302227
0.303649
0.304805
0.305902
0.232453
0.232945
0.233837
0.235366
0.237354
0.239517
0.241754
0.244033
0.246355
0.248738
0.251206
0.253786
0.256507
0.259401
0.262495
0.265815
0.269382
0.273209
0.277294
0.281615
0.286115
0.29068
0.295126
0.298727
0.300866
0.30155
0.301019
0.299764
0.298853
0.230723
0.231264
0.232176
0.233606
0.235428
0.237485
0.239714
0.242034
0.24441
0.246852
0.249394
0.25207
0.254913
0.257958
0.261238
0.264784
0.268624
0.272779
0.277253
0.282029
0.287053
0.292197
0.297223
0.301176
0.303034
0.30229
0.298591
0.29136
0.280279
0.279154
0.278318
0.277486
0.276658
0.275833
0.27501
0.274187
0.273364
0.27254
0.271714
0.270885
0.270054
0.269218
0.268377
0.267531
0.266679
0.26582
0.264955
0.264082
0.263202
0.262314
0.261419
0.260516
0.259605
0.258686
0.257761
0.256828
0.255889
0.254944
0.253993
0.253038
0.252077
0.251113
0.250146
0.249177
0.248206
0.247235
0.246265
0.245296
0.244329
0.243366
0.242408
0.241454
0.240508
0.239569
0.238639
0.237718
0.236807
0.235906
0.279169
0.278342
0.277521
0.276704
0.275889
0.275075
0.274262
0.273448
0.272633
0.271816
0.270996
0.270172
0.269343
0.268509
0.267669
0.266822
0.265968
0.265106
0.264236
0.263358
0.262471
0.261576
0.260672
0.259759
0.258838
0.257909
0.256972
0.256028
0.255077
0.254119
0.253156
0.252187
0.251215
0.250238
0.249259
0.248279
0.247297
0.246315
0.245335
0.244356
0.243381
0.24241
0.241445
0.240485
0.239534
0.238591
0.237657
0.236734
0.235821
0.279384
0.278582
0.277784
0.276989
0.276196
0.275403
0.274609
0.273814
0.273016
0.272215
0.271409
0.270597
0.269779
0.268954
0.268121
0.267279
0.266428
0.265567
0.264696
0.263815
0.262923
0.262021
0.261108
0.260185
0.259252
0.258309
0.257356
0.256394
0.255424
0.254446
0.25346
0.252469
0.251472
0.25047
0.249464
0.248456
0.247446
0.246435
0.245425
0.244416
0.24341
0.242407
0.24141
0.240418
0.239433
0.238457
0.23749
0.236534
0.235589
0.279894
0.279128
0.278365
0.277602
0.276838
0.276073
0.275306
0.274534
0.273757
0.272974
0.272184
0.271386
0.270578
0.26976
0.268932
0.268092
0.267239
0.266375
0.265497
0.264606
0.263702
0.262784
0.261853
0.260909
0.259953
0.258984
0.258003
0.257011
0.256008
0.254995
0.253974
0.252944
0.251907
0.250863
0.249814
0.248762
0.247706
0.246648
0.245589
0.244531
0.243475
0.242421
0.241371
0.240327
0.239289
0.238259
0.237237
0.236225
0.235225
0.280707
0.279991
0.279271
0.278549
0.277824
0.277093
0.276357
0.275613
0.274861
0.274099
0.273326
0.272541
0.271743
0.270931
0.270104
0.269262
0.268405
0.26753
0.266639
0.265732
0.264807
0.263865
0.262907
0.261932
0.260941
0.259935
0.258914
0.257879
0.25683
0.255769
0.254697
0.253614
0.252521
0.25142
0.250312
0.249198
0.24808
0.246958
0.245834
0.244709
0.243584
0.242461
0.241342
0.240226
0.239116
0.238012
0.236916
0.23583
0.234754
0.281833
0.281178
0.280514
0.279842
0.279163
0.278475
0.277776
0.277066
0.276342
0.275603
0.274849
0.274078
0.273289
0.272482
0.271655
0.270807
0.269939
0.26905
0.268139
0.267207
0.266253
0.265278
0.264282
0.263266
0.262229
0.261174
0.260099
0.259007
0.257899
0.256775
0.255636
0.254484
0.25332
0.252146
0.250962
0.24977
0.248571
0.247367
0.246159
0.244949
0.243738
0.242528
0.241319
0.240113
0.238912
0.237717
0.236528
0.235348
0.234179
0.2833
0.282719
0.282121
0.28151
0.280887
0.280248
0.279594
0.278922
0.27823
0.277518
0.276785
0.276028
0.275248
0.274443
0.273612
0.272755
0.271871
0.27096
0.270022
0.269057
0.268066
0.267047
0.266003
0.264933
0.263838
0.262719
0.261578
0.260415
0.259231
0.258028
0.256807
0.255569
0.254317
0.25305
0.251772
0.250483
0.249186
0.247881
0.24657
0.245256
0.243939
0.242621
0.241304
0.239988
0.238677
0.23737
0.236069
0.234776
0.233495
0.285142
0.284647
0.284127
0.283587
0.283028
0.282447
0.281844
0.281215
0.28056
0.279877
0.279165
0.278423
0.27765
0.276845
0.276007
0.275135
0.27423
0.273291
0.272318
0.271312
0.270272
0.269199
0.268095
0.266959
0.265792
0.264597
0.263373
0.262123
0.260848
0.259549
0.258228
0.256886
0.255526
0.254148
0.252756
0.251351
0.249934
0.248507
0.247073
0.245633
0.244189
0.242742
0.241295
0.239849
0.238406
0.236967
0.235533
0.234108
0.232694
0.287381
0.286986
0.286555
0.286097
0.285612
0.285097
0.284551
0.283971
0.283357
0.282706
0.282018
0.281291
0.280524
0.279716
0.278868
0.277977
0.277046
0.276072
0.275056
0.273999
0.272902
0.271764
0.270588
0.269373
0.268121
0.266834
0.265513
0.264159
0.262775
0.261362
0.259921
0.258456
0.256968
0.255458
0.25393
0.252386
0.250826
0.249255
0.247674
0.246085
0.24449
0.242891
0.241291
0.239691
0.238092
0.236498
0.234908
0.233328
0.231761
0.290025
0.289741
0.289413
0.289049
0.288649
0.28821
0.28773
0.287206
0.286638
0.286023
0.285361
0.284651
0.283891
0.283081
0.28222
0.281308
0.280346
0.279332
0.278268
0.277154
0.27599
0.274778
0.273518
0.272213
0.270863
0.269469
0.268035
0.266561
0.265049
0.263502
0.261922
0.26031
0.258671
0.257006
0.255317
0.253608
0.25188
0.250137
0.248382
0.246615
0.244842
0.243063
0.241281
0.239499
0.237718
0.235942
0.23417
0.232409
0.230665
0.293055
0.292894
0.292684
0.292428
0.292126
0.291775
0.291372
0.290914
0.290401
0.28983
0.289201
0.288513
0.287765
0.286956
0.286086
0.285154
0.284161
0.283107
0.281993
0.280817
0.279583
0.278291
0.27694
0.275535
0.274075
0.272561
0.270998
0.269387
0.267728
0.266027
0.264284
0.262502
0.260685
0.258835
0.256956
0.255051
0.253122
0.251175
0.24921
0.247233
0.245246
0.243251
0.241253
0.239254
0.237257
0.235264
0.233277
0.231303
0.229352
0.296411
0.296413
0.296324
0.296169
0.295995
0.295752
0.295441
0.295063
0.294621
0.294109
0.293529
0.292877
0.292154
0.291359
0.290491
0.289551
0.288537
0.287451
0.286293
0.285062
0.283759
0.282387
0.280943
0.279433
0.277856
0.276212
0.274507
0.272741
0.270915
0.269035
0.267103
0.26512
0.263093
0.261023
0.258915
0.256774
0.254601
0.252404
0.250185
0.247949
0.245702
0.243444
0.241183
0.23892
0.236661
0.234408
0.232162
0.229935
0.227737
0.299938
0.300106
0.300202
0.300236
0.300192
0.300069
0.299856
0.299587
0.299244
0.29882
0.298317
0.297732
0.297063
0.296312
0.295476
0.294555
0.293545
0.29245
0.29127
0.29
0.288645
0.287204
0.285674
0.284062
0.282366
0.280585
0.278727
0.27679
0.274775
0.27269
0.270536
0.268314
0.266034
0.263695
0.261307
0.258873
0.256397
0.253888
0.25135
0.248789
0.246214
0.243625
0.241034
0.238441
0.235856
0.233281
0.230718
0.228181
0.225684
0.30352
0.30387
0.304132
0.304327
0.304447
0.304494
0.304465
0.304353
0.304158
0.303879
0.303527
0.303068
0.302517
0.301872
0.301124
0.300276
0.299322
0.298265
0.297105
0.295835
0.29446
0.292978
0.291384
0.289684
0.287877
0.285959
0.283938
0.281814
0.279583
0.277258
0.274837
0.272324
0.269729
0.267052
0.264305
0.261496
0.258625
0.25571
0.252754
0.249767
0.24676
0.243738
0.240715
0.237695
0.234688
0.231701
0.228737
0.225812
0.222946
0.306688
0.307245
0.307723
0.308147
0.308509
0.30881
0.309041
0.309194
0.309264
0.309235
0.309105
0.308868
0.308559
0.308135
0.307563
0.306877
0.306061
0.305118
0.304051
0.302844
0.301507
0.300034
0.298417
0.296662
0.294765
0.292718
0.290532
0.288202
0.285725
0.283114
0.280367
0.277489
0.274492
0.271377
0.268161
0.264852
0.261455
0.257992
0.254469
0.250903
0.247309
0.243695
0.240084
0.236483
0.232911
0.229376
0.225887
0.222464
0.219133
0.30829
0.309023
0.30977
0.310565
0.311372
0.312165
0.312899
0.313548
0.31409
0.3145
0.314777
0.314903
0.314879
0.314712
0.314431
0.314054
0.313468
0.312731
0.311844
0.310789
0.309572
0.308186
0.306614
0.304863
0.302922
0.300778
0.29844
0.295902
0.293156
0.290217
0.287083
0.283759
0.280263
0.276595
0.272779
0.268828
0.264749
0.260572
0.256307
0.251977
0.247604
0.243202
0.238805
0.234427
0.230102
0.225849
0.221689
0.217654
0.213778
0.307084
0.307908
0.309106
0.310662
0.312373
0.314087
0.315677
0.317081
0.318272
0.319232
0.319981
0.320519
0.32087
0.321041
0.321018
0.320825
0.320641
0.32016
0.319519
0.31869
0.317678
0.316465
0.315025
0.313361
0.311452
0.309276
0.30684
0.304128
0.301128
0.29786
0.294317
0.29051
0.286462
0.282175
0.277685
0.273009
0.268159
0.263177
0.258071
0.252876
0.247613
0.242299
0.236977
0.231662
0.226406
0.221248
0.216239
0.211454
0.206958
0.298693
0.299978
0.303324
0.307464
0.311457
0.31496
0.317865
0.320211
0.322081
0.323542
0.324685
0.325549
0.326193
0.326653
0.326931
0.327035
0.32696
0.32686
0.326548
0.326023
0.325309
0.324374
0.323176
0.321708
0.319932
0.317809
0.315338
0.312493
0.309255
0.305646
0.301661
0.297315
0.292643
0.287655
0.282401
0.276909
0.271202
0.265334
0.259321
0.253202
0.246999
0.240722
0.234405
0.228043
0.221675
0.215337
0.209112
0.203204
0.197899
0.271926
0.282681
0.294883
0.30482
0.312172
0.317469
0.321273
0.324065
0.326165
0.32777
0.329027
0.330001
0.330773
0.331382
0.331852
0.332212
0.332421
0.332511
0.332613
0.332441
0.332094
0.331525
0.330667
0.329503
0.32798
0.326025
0.323617
0.320717
0.317294
0.313376
0.308963
0.304077
0.298772
0.293067
0.287033
0.280717
0.274156
0.267423
0.260544
0.253572
0.24653
0.239422
0.232263
0.224997
0.217584
0.209924
0.201927
0.193655
0.185759
0.235025
0.234113
0.233124
0.232045
0.230858
0.229556
0.228166
0.226855
0.225747
0.224872
0.224265
0.223961
0.223997
0.224425
0.225294
0.22667
0.228629
0.23127
0.23472
0.239144
0.244769
0.251904
0.260997
0.272725
0.288186
0.308979
0.336792
0.378642
0.511997
0.234926
0.233997
0.232989
0.231885
0.230666
0.229325
0.22789
0.22653
0.22537
0.224442
0.223777
0.22341
0.223379
0.223725
0.224495
0.225748
0.227555
0.230001
0.233193
0.23727
0.242411
0.248854
0.256904
0.266951
0.279623
0.295856
0.313773
0.327204
0.364777
0.234659
0.233693
0.232638
0.231478
0.23019
0.228765
0.227227
0.225752
0.224473
0.223418
0.222616
0.222097
0.221894
0.222039
0.22257
0.223531
0.224972
0.22695
0.229531
0.232789
0.236803
0.241657
0.247404
0.253965
0.261151
0.269055
0.27532
0.27269
0.2748
0.234237
0.233208
0.232077
0.230827
0.229431
0.227874
0.226178
0.224526
0.223062
0.221812
0.2208
0.22005
0.219585
0.219429
0.219606
0.220139
0.221054
0.22237
0.224104
0.22626
0.228821
0.231734
0.234889
0.238013
0.240629
0.242703
0.24328
0.238318
0.23594
0.233688
0.23257
0.231337
0.229965
0.228424
0.226692
0.224787
0.222905
0.221205
0.219707
0.218433
0.217397
0.216617
0.216103
0.215867
0.215913
0.216243
0.21685
0.217712
0.218792
0.220024
0.221301
0.222492
0.223366
0.223502
0.222757
0.220537
0.214184
0.21001
0.233014
0.231787
0.230426
0.228902
0.227181
0.225233
0.223074
0.220916
0.218937
0.217153
0.21558
0.214227
0.213104
0.212212
0.21155
0.211111
0.210879
0.210831
0.210927
0.211114
0.21131
0.211407
0.211269
0.210707
0.209331
0.206797
0.202436
0.194665
0.189259
0.232211
0.230852
0.229336
0.22763
0.225693
0.223491
0.221033
0.218558
0.216262
0.214162
0.212266
0.21058
0.209105
0.207837
0.206764
0.205872
0.205135
0.204519
0.203979
0.203451
0.202854
0.202075
0.200972
0.199361
0.196887
0.19317
0.187767
0.180306
0.17518
0.23127
0.229754
0.228055
0.226134
0.223944
0.221445
0.218646
0.215815
0.213172
0.210732
0.208499
0.206474
0.204652
0.203023
0.201571
0.200272
0.199095
0.198002
0.196942
0.19585
0.194646
0.193222
0.191448
0.189167
0.186101
0.181951
0.176602
0.170562
0.1664
0.230172
0.228472
0.226559
0.224388
0.221906
0.219068
0.215884
0.21266
0.209645
0.20685
0.204275
0.201916
0.199764
0.197802
0.19601
0.194359
0.192815
0.191336
0.189872
0.188361
0.18673
0.18489
0.182737
0.180156
0.176944
0.172876
0.168059
0.163467
0.160239
0.228884
0.226969
0.224807
0.222346
0.219529
0.216307
0.212696
0.209045
0.205638
0.20248
0.199568
0.196891
0.194435
0.192178
0.190095
0.188155
0.186322
0.184552
0.182799
0.181008
0.179116
0.177053
0.174741
0.172093
0.168959
0.165174
0.160977
0.157501
0.155047
0.227347
0.225181
0.22273
0.219935
0.216734
0.21308
0.208998
0.204893
0.201081
0.197562
0.194327
0.191358
0.188635
0.186131
0.183815
0.181654
0.17961
0.177641
0.175703
0.173747
0.171721
0.169569
0.167228
0.164628
0.16166
0.158223
0.154632
0.151975
0.150141
0.225466
0.223006
0.220218
0.217036
0.213397
0.20926
0.204667
0.200085
0.195867
0.192002
0.188472
0.185251
0.18231
0.179615
0.177131
0.17482
0.172644
0.17056
0.168526
0.166499
0.164433
0.162281
0.159993
0.157509
0.154754
0.151688
0.148664
0.146601
0.145229
0.223094
0.220285
0.217101
0.213471
0.209335
0.204665
0.199527
0.194463
0.189855
0.185678
0.1819
0.178483
0.175387
0.17257
0.16999
0.167604
0.165373
0.163256
0.161207
0.159187
0.157157
0.155076
0.152903
0.150587
0.148077
0.145383
0.142861
0.141226
0.140178
0.219966
0.216742
0.213093
0.208949
0.204261
0.199019
0.193329
0.187807
0.182856
0.178431
0.174478
0.170944
0.167776
0.16492
0.162328
0.159951
0.157741
0.155685
0.153692
0.151751
0.149824
0.147875
0.145866
0.143757
0.141512
0.139177
0.13709
0.135769
0.134946
0.215673
0.211951
0.207766
0.203047
0.197771
0.191958
0.185756
0.179852
0.174654
0.170085
0.166066
0.162523
0.159388
0.156597
0.154091
0.151819
0.149731
0.147783
0.145933
0.144144
0.142382
0.140616
0.138814
0.136939
0.134976
0.132994
0.131295
0.130219
0.129547
0.209776
0.205524
0.200803
0.195556
0.189787
0.183548
0.177014
0.17092
0.165658
0.161114
0.157186
0.153777
0.150804
0.148193
0.145878
0.143802
0.141912
0.140163
0.138514
0.136928
0.135373
0.133821
0.132244
0.130614
0.128927
0.127257
0.125868
0.124987
0.124419
0.202367
0.197605
0.192483
0.18693
0.180939
0.174557
0.16797
0.161928
0.156801
0.152451
0.148752
0.145593
0.142878
0.140526
0.138467
0.13664
0.134991
0.133475
0.132051
0.130684
0.129342
0.128
0.126635
0.125234
0.123801
0.122397
0.121243
0.120505
0.120012
0.192797
0.18783
0.182819
0.177452
0.171635
0.165422
0.159031
0.153234
0.148392
0.144352
0.140974
0.138135
0.135734
0.133683
0.131909
0.130352
0.12896
0.127685
0.126489
0.125339
0.124202
0.123051
0.121868
0.120657
0.119438
0.118264
0.11731
0.116698
0.116266
0.179632
0.175977
0.172214
0.167623
0.162331
0.156514
0.150486
0.145065
0.140602
0.136941
0.133934
0.13145
0.129383
0.127644
0.126161
0.124873
0.123729
0.122686
0.121706
0.120756
0.119803
0.118815
0.117783
0.116746
0.115778
0.114895
0.114143
0.11358
0.113128
0.228948
0.22927
0.23
0.231453
0.233465
0.235728
0.238084
0.240469
0.242889
0.245388
0.24801
0.25079
0.253766
0.256972
0.260446
0.264223
0.26834
0.272823
0.277682
0.282908
0.288454
0.294192
0.299855
0.304341
0.306275
0.304461
0.297363
0.282597
0.251752
0.227178
0.227622
0.228466
0.229906
0.231833
0.234021
0.236342
0.238735
0.241204
0.243782
0.246507
0.249413
0.252537
0.255918
0.259597
0.263617
0.26802
0.272842
0.278106
0.283823
0.28999
0.296544
0.303304
0.309268
0.31314
0.314196
0.311836
0.307981
0.312313
0.225369
0.225895
0.226823
0.228257
0.230114
0.232226
0.234494
0.236871
0.239365
0.241999
0.244802
0.247809
0.251055
0.254585
0.258446
0.262687
0.267364
0.272527
0.278231
0.284533
0.291517
0.299299
0.308004
0.317134
0.325817
0.334273
0.342747
0.350118
0.366915
0.223495
0.223999
0.224901
0.226319
0.22818
0.2303
0.232564
0.234941
0.237449
0.240118
0.242976
0.246058
0.249402
0.253055
0.25707
0.261507
0.266433
0.271924
0.278067
0.284981
0.292859
0.30205
0.31306
0.325968
0.340019
0.35561
0.373401
0.389817
0.411529
0.221557
0.222027
0.222877
0.224264
0.226125
0.228258
0.230531
0.232914
0.235433
0.238125
0.241022
0.244159
0.247578
0.251328
0.255469
0.260068
0.265206
0.27098
0.277511
0.28498
0.29366
0.304145
0.317168
0.333317
0.351531
0.372366
0.396392
0.419774
0.446066
0.219557
0.220009
0.220827
0.222175
0.224005
0.226118
0.228379
0.230756
0.233276
0.235977
0.238893
0.242063
0.24553
0.249345
0.253572
0.258286
0.263578
0.26956
0.276379
0.284277
0.293515
0.304973
0.319268
0.337581
0.35772
0.381428
0.408628
0.437837
0.467095
0.21749
0.217931
0.218726
0.220033
0.221811
0.22388
0.226107
0.228459
0.230961
0.23365
0.236562
0.239736
0.243216
0.247056
0.25132
0.256087
0.261455
0.267548
0.274509
0.282672
0.292096
0.304127
0.318576
0.33789
0.359986
0.384299
0.410501
0.43783
0.465355
0.21535
0.215779
0.216549
0.217809
0.219525
0.221536
0.223713
0.226021
0.228483
0.231137
0.234018
0.237163
0.240617
0.244434
0.248678
0.253429
0.25878
0.264871
0.271786
0.280051
0.289162
0.301164
0.31622
0.335144
0.356499
0.379214
0.402498
0.425939
0.449309
0.213134
0.213551
0.214292
0.215499
0.217144
0.219084
0.221193
0.223439
0.22584
0.228433
0.231252
0.234333
0.23772
0.241464
0.245626
0.250284
0.255515
0.261486
0.268141
0.276029
0.285346
0.29678
0.311167
0.328569
0.347569
0.367367
0.387205
0.40682
0.425524
0.210841
0.211246
0.211958
0.213105
0.214668
0.21652
0.218546
0.220709
0.223026
0.225532
0.228259
0.23124
0.234517
0.238135
0.242151
0.24664
0.251641
0.257327
0.263773
0.271218
0.280038
0.290542
0.303401
0.318521
0.334524
0.350768
0.366694
0.382324
0.396692
0.208468
0.20886
0.209538
0.210621
0.212094
0.213846
0.215771
0.217833
0.220045
0.222437
0.225041
0.227887
0.23101
0.234452
0.238259
0.2425
0.247228
0.252556
0.258594
0.265432
0.27332
0.28256
0.29351
0.305942
0.318646
0.331053
0.342787
0.354166
0.364357
0.206016
0.206394
0.207038
0.208052
0.209426
0.211066
0.212874
0.214814
0.216898
0.219152
0.221604
0.22428
0.22721
0.230429
0.233978
0.237917
0.242291
0.247163
0.252608
0.258671
0.265478
0.273246
0.282096
0.291667
0.300985
0.309611
0.317335
0.324643
0.330967
0.203487
0.203857
0.204469
0.20541
0.206674
0.208185
0.209856
0.211655
0.213589
0.21568
0.217952
0.220425
0.223125
0.226082
0.229326
0.232902
0.236837
0.241163
0.245909
0.251088
0.256736
0.262929
0.269612
0.27635
0.28245
0.287648
0.291896
0.295726
0.298804
0.200882
0.201239
0.201812
0.202675
0.203826
0.205201
0.206725
0.208367
0.210132
0.212038
0.214105
0.216349
0.218788
0.221445
0.224338
0.227497
0.230931
0.234648
0.23864
0.242876
0.247319
0.251928
0.256515
0.260645
0.263915
0.266234
0.267695
0.26882
0.269469
0.198204
0.19855
0.199085
0.199868
0.200898
0.202127
0.203491
0.204961
0.206539
0.208242
0.210085
0.212077
0.214228
0.216553
0.21906
0.221763
0.224656
0.227727
0.230934
0.234207
0.237452
0.240549
0.243224
0.245096
0.246032
0.246087
0.245453
0.244642
0.243687
0.195461
0.195798
0.196295
0.196996
0.197899
0.198972
0.200163
0.201448
0.202823
0.204312
0.205913
0.207632
0.209473
0.21144
0.213534
0.215754
0.21808
0.220479
0.222888
0.225207
0.227305
0.229016
0.230017
0.230022
0.229132
0.227519
0.225427
0.223362
0.221523
0.192655
0.192981
0.193436
0.194053
0.194829
0.195743
0.196755
0.197843
0.199012
0.200271
0.201617
0.203048
0.204562
0.206155
0.207818
0.209538
0.211283
0.213005
0.214625
0.216025
0.217058
0.217532
0.217119
0.215647
0.213415
0.210674
0.207668
0.204905
0.20274
0.189794
0.19011
0.190525
0.191057
0.191705
0.192453
0.193281
0.194167
0.195121
0.196143
0.197225
0.198359
0.199537
0.200746
0.20197
0.203184
0.204348
0.205402
0.206257
0.206791
0.206851
0.206248
0.204671
0.202084
0.198938
0.195523
0.19203
0.188972
0.186857
0.186886
0.187198
0.187572
0.188021
0.188543
0.189114
0.189752
0.190436
0.19117
0.191949
0.192762
0.193595
0.194432
0.195255
0.196038
0.196749
0.19734
0.197745
0.197869
0.197593
0.196772
0.195234
0.192713
0.189313
0.185602
0.181869
0.178207
0.175145
0.173339
0.183939
0.184243
0.184573
0.184941
0.185346
0.185723
0.186192
0.186672
0.187184
0.187721
0.188264
0.188796
0.189295
0.189734
0.190084
0.190304
0.19034
0.190122
0.189556
0.188529
0.18691
0.184558
0.18127
0.177295
0.173298
0.169534
0.165961
0.163126
0.161831
0.180959
0.181261
0.181544
0.181832
0.182087
0.182351
0.182618
0.182892
0.183186
0.183483
0.183762
0.183999
0.184167
0.184235
0.184166
0.183916
0.183425
0.182622
0.181413
0.179694
0.177356
0.174289
0.170363
0.165984
0.161902
0.158326
0.155046
0.152634
0.152041
0.17796
0.178256
0.178496
0.178703
0.17885
0.178956
0.179036
0.179113
0.179195
0.17926
0.179284
0.179237
0.179087
0.1788
0.178334
0.177641
0.176657
0.175311
0.173511
0.171162
0.168173
0.164464
0.159979
0.155282
0.151224
0.147979
0.145141
0.14332
0.14364
0.174947
0.175231
0.175455
0.175595
0.175618
0.175559
0.175462
0.175352
0.17523
0.175074
0.174853
0.174537
0.174087
0.173466
0.172629
0.171524
0.170088
0.168246
0.165912
0.162997
0.159419
0.155123
0.150109
0.145084
0.141037
0.138143
0.135807
0.134695
0.136157
0.17193
0.172206
0.172403
0.172471
0.172376
0.17217
0.171909
0.171624
0.171312
0.170949
0.170501
0.169932
0.169203
0.168273
0.167095
0.165616
0.163771
0.161488
0.158683
0.15527
0.151176
0.14635
0.140819
0.135395
0.131225
0.128549
0.126618
0.126228
0.129017
0.168918
0.169194
0.169365
0.169362
0.169157
0.16881
0.168393
0.167945
0.167459
0.166907
0.16625
0.165449
0.164465
0.163254
0.16177
0.159958
0.157755
0.15509
0.151884
0.148058
0.143536
0.13826
0.132244
0.126326
0.121789
0.118988
0.117089
0.117234
0.121515
0.165919
0.166189
0.166325
0.16625
0.165942
0.165469
0.164918
0.16433
0.163694
0.162973
0.162127
0.161117
0.159904
0.158443
0.156689
0.154587
0.152078
0.149094
0.145563
0.141414
0.136578
0.130982
0.124602
0.118213
0.113121
0.109725
0.10709
0.107166
0.113053
0.162959
0.163274
0.163436
0.163318
0.162884
0.162237
0.161517
0.160784
0.160012
0.159146
0.158138
0.156947
0.155535
0.15386
0.151877
0.149534
0.146773
0.143535
0.139758
0.135387
0.130365
0.124593
0.117964
0.111147
0.105403
0.101086
0.0968927
0.0953042
0.101466
0.145633
0.125771
0.0982182
0.062442
0.0213482
-0.0196723
-0.0574724
-0.0918993
-0.123826
-0.156426
-0.190061
-0.227217
-0.265295
-0.30083
-0.329488
-0.34852
-0.358085
-0.360685
-0.360327
0.154127
0.139072
0.11301
0.076919
0.032747
-0.0147028
-0.0619067
-0.108132
-0.152923
-0.200517
-0.248032
-0.29572
-0.341301
-0.381101
-0.411635
-0.431682
-0.442701
-0.447584
-0.449387
0.150053
0.136387
0.111917
0.0762229
0.0301721
-0.0219988
-0.0764655
-0.134755
-0.192922
-0.251048
-0.30871
-0.364762
-0.416254
-0.459596
-0.49217
-0.51372
-0.526271
-0.53276
-0.535962
0.140242
0.127034
0.104709
0.0698924
0.0219158
-0.0350777
-0.0973157
-0.163089
-0.230445
-0.298234
-0.365448
-0.4298
-0.487431
-0.534501
-0.568954
-0.591453
-0.604834
-0.612319
-0.616511
0.12718
0.115145
0.0946149
0.060565
0.0115913
-0.0483294
-0.115696
-0.188006
-0.263614
-0.340753
-0.416836
-0.488189
-0.550226
-0.599308
-0.634391
-0.657222
-0.671288
-0.679757
-0.68482
0.109187
0.0979601
0.0792047
0.0467376
-0.00177207
-0.0629926
-0.13376
-0.211796
-0.294656
-0.379466
-0.462324
-0.538448
-0.602995
-0.653029
-0.688634
-0.712336
-0.727899
-0.73819
-0.744956
0.0867244
0.0748558
0.0569004
0.0259378
-0.021446
-0.0829274
-0.155691
-0.237421
-0.324913
-0.414188
-0.500226
-0.577426
-0.641093
-0.689295
-0.723214
-0.745954
-0.761388
-0.771938
-0.778981
0.0610733
0.0473357
0.0287101
-0.0018601
-0.0483944
-0.109464
-0.182618
-0.265444
-0.354312
-0.444452
-0.529985
-0.604965
-0.665345
-0.710371
-0.742095
-0.763825
-0.779186
-0.790006
-0.797407
0.033259
0.0171011
-0.00333106
-0.0347851
-0.0811482
-0.141459
-0.213633
-0.29531
-0.382628
-0.470234
-0.551739
-0.621408
-0.67623
-0.716567
-0.745037
-0.764893
-0.779398
-0.789865
-0.797088
0.00417673
-0.0143961
-0.0371441
-0.0702932
-0.117087
-0.176572
-0.24693
-0.325946
-0.409634
-0.492296
-0.567484
-0.630166
-0.678531
-0.713882
-0.739117
-0.757262
-0.771153
-0.781719
-0.789391
-0.0251905
-0.0458792
-0.0709688
-0.106092
-0.153707
-0.212512
-0.280718
-0.356084
-0.434399
-0.509764
-0.576136
-0.629661
-0.669832
-0.698674
-0.71913
-0.733892
-0.745297
-0.754052
-0.760372
-0.053685
-0.0760068
-0.103085
-0.139919
-0.188278
-0.246338
-0.312096
-0.383087
-0.454869
-0.521696
-0.578473
-0.622789
-0.655258
-0.678264
-0.694514
-0.706242
-0.715244
-0.722137
-0.727019
-0.0802424
-0.103629
-0.132116
-0.170006
-0.218568
-0.27547
-0.338414
-0.404664
-0.469673
-0.528169
-0.576236
-0.612769
-0.639125
-0.657736
-0.670967
-0.680638
-0.688147
-0.694112
-0.69845
-0.104131
-0.128059
-0.157358
-0.195567
-0.243636
-0.298805
-0.358441
-0.419471
-0.477343
-0.527513
-0.567365
-0.59692
-0.617976
-0.632815
-0.643405
-0.651192
-0.657225
-0.662089
-0.665596
-0.124917
-0.148947
-0.178515
-0.216352
-0.263213
-0.316001
-0.371786
-0.427236
-0.478031
-0.520586
-0.553529
-0.577687
-0.594983
-0.607397
-0.616478
-0.623321
-0.628703
-0.633136
-0.636359
-0.142553
-0.166374
-0.19578
-0.232698
-0.277774
-0.327678
-0.379304
-0.429229
-0.473576
-0.50975
-0.537358
-0.557683
-0.572569
-0.583654
-0.592132
-0.598822
-0.604324
-0.609035
-0.612588
-0.157362
-0.180821
-0.209811
-0.245487
-0.288415
-0.335061
-0.382198
-0.426458
-0.464616
-0.495099
-0.518282
-0.535642
-0.548789
-0.558994
-0.567124
-0.573761
-0.579363
-0.58419
-0.587842
-0.169772
-0.192857
-0.221333
-0.25564
-0.296253
-0.339463
-0.382029
-0.420843
-0.453478
-0.479273
-0.499096
-0.514401
-0.526494
-0.536293
-0.544382
-0.551143
-0.556922
-0.56187
-0.565603
-0.180276
-0.203117
-0.231159
-0.264177
-0.302547
-0.342426
-0.380696
-0.414655
-0.442667
-0.464762
-0.482057
-0.495868
-0.507203
-0.516695
-0.524714
-0.5315
-0.537323
-0.542274
-0.546
-0.189385
-0.212252
-0.240146
-0.272165
-0.308469
-0.345035
-0.378994
-0.408266
-0.432078
-0.451
-0.466201
-0.478746
-0.489336
-0.498361
-0.506035
-0.512508
-0.518005
-0.522597
-0.526002
-0.19737
-0.220709
-0.248964
-0.280488
-0.315036
-0.348376
-0.378095
-0.402967
-0.423072
-0.43933
-0.452793
-0.464225
-0.47405
-0.482475
-0.489613
-0.495562
-0.50052
-0.504573
-0.507533
-0.204359
-0.228837
-0.25822
-0.289935
-0.323041
-0.353116
-0.378484
-0.399039