/*--------------------------------*- C++ -*----------------------------------*\
| =========                 |                                                 |
| \\      /  F ield         | OpenFOAM: The Open Source CFD Toolbox           |
|  \\    /   O peration     | Version:  2312                                  |
|   \\  /    A nd           | Website:  www.openfoam.com                      |
|    \\/     M anipulation  |                                                 |
\*---------------------------------------------------------------------------*/
FoamFile
{
    version     2.0;
    format      ascii;
    arch        "LSB;label=32;scalar=64";
    class       volScalarField;
    location    "13.490747857563337";
    object      p;
}
// * * * * * * * * * * * * * * * * * * * * * * * * * * * * * * * * * * * * * //

dimensions      [0 2 -2 0 0 0 0];

internalField   nonuniform List<scalar> 
21039
(
0.57871
0.444936
0.402871
0.374702
0.353482
0.337519
0.325211
0.315455
0.307568
0.301099
0.295731
0.291235
0.287437
0.284207
0.281441
0.279057
0.276987
0.275173
0.273569
0.272132
0.270827
0.269625
0.268494
0.267467
0.26657
0.265766
0.265018
0.264299
0.263598
0.431549
0.393773
0.380044
0.361754
0.345095
0.331926
0.321305
0.312599
0.305413
0.299436
0.294426
0.290196
0.286603
0.283534
0.280898
0.27862
0.276638
0.274899
0.273359
0.271978
0.270721
0.269558
0.26846
0.267455
0.266567
0.265765
0.265019
0.264301
0.2636
0.342026
0.339718
0.341987
0.335334
0.327005
0.319329
0.312206
0.305819
0.300239
0.295408
0.291237
0.28764
0.284536
0.281853
0.279528
0.277507
0.275741
0.274187
0.272807
0.271567
0.270434
0.26938
0.268379
0.26745
0.266617
0.265855
0.26514
0.264447
0.263767
0.303791
0.305968
0.310557
0.309591
0.307095
0.304001
0.300333
0.296561
0.29295
0.289602
0.286564
0.283847
0.281438
0.279315
0.27745
0.275813
0.274375
0.273104
0.271973
0.270955
0.270022
0.269149
0.268314
0.267526
0.266803
0.266127
0.26548
0.26484
0.264201
0.278587
0.282601
0.288615
0.290461
0.2908
0.290209
0.288819
0.287045
0.285106
0.283129
0.281211
0.27941
0.277757
0.276264
0.27493
0.273749
0.272707
0.271786
0.270969
0.270235
0.269564
0.268933
0.268323
0.26773
0.267163
0.26661
0.26606
0.265495
0.264912
0.258719
0.264008
0.271485
0.275502
0.277661
0.278619
0.278708
0.278307
0.2776
0.276711
0.275744
0.274768
0.273829
0.272958
0.272169
0.27147
0.270859
0.270328
0.269869
0.269466
0.269105
0.268765
0.268432
0.268083
0.267711
0.267313
0.266885
0.266419
0.26591
0.24568
0.250725
0.257943
0.263048
0.266435
0.268544
0.269737
0.270362
0.270596
0.27057
0.270389
0.270124
0.269829
0.26954
0.269281
0.269065
0.268899
0.268784
0.268713
0.268679
0.268669
0.268667
0.268659
0.2686
0.268462
0.268252
0.267971
0.267617
0.267202
0.238073
0.242186
0.248042
0.253156
0.257041
0.259807
0.261741
0.263115
0.264075
0.264743
0.265216
0.265565
0.265844
0.266091
0.266334
0.266592
0.266875
0.267188
0.267529
0.267894
0.268273
0.268652
0.269015
0.269293
0.269435
0.269449
0.269346
0.269129
0.268809
0.233199
0.236403
0.240877
0.245538
0.249423
0.25242
0.254744
0.256591
0.258068
0.259268
0.260272
0.26114
0.261923
0.262657
0.263372
0.264087
0.264815
0.265564
0.266333
0.267122
0.267922
0.268722
0.269507
0.270174
0.270641
0.270919
0.271031
0.270982
0.270786
0.229398
0.231847
0.23527
0.2394
0.243103
0.246123
0.248622
0.250742
0.252563
0.254153
0.255572
0.25687
0.258088
0.25926
0.260412
0.261563
0.262727
0.263912
0.265122
0.266355
0.267605
0.268864
0.270119
0.271229
0.27207
0.272658
0.273021
0.27317
0.273123
0.225967
0.227811
0.230477
0.234096
0.237566
0.24054
0.243117
0.245402
0.247455
0.249332
0.251076
0.252728
0.25432
0.255882
0.257436
0.259001
0.260589
0.26221
0.263868
0.265562
0.267289
0.269041
0.27081
0.272416
0.273684
0.274631
0.275287
0.27567
0.275799
0.222592
0.223986
0.226115
0.229268
0.232492
0.23539
0.237996
0.240383
0.242603
0.244698
0.246703
0.24865
0.250568
0.252479
0.254404
0.256361
0.258361
0.260414
0.262524
0.264691
0.266914
0.269188
0.271509
0.273658
0.275406
0.276761
0.277758
0.278413
0.27875
0.219115
0.220193
0.221948
0.224699
0.227684
0.230489
0.23309
0.235537
0.237876
0.24014
0.242358
0.244556
0.246757
0.248982
0.251251
0.25358
0.25598
0.25846
0.261022
0.263668
0.266397
0.269209
0.272107
0.274833
0.277101
0.27891
0.280293
0.281263
0.281841
0.215467
0.216325
0.217811
0.220225
0.22299
0.225694
0.228269
0.230747
0.233169
0.235563
0.237954
0.240363
0.242811
0.24532
0.247909
0.250592
0.25338
0.256279
0.259292
0.262418
0.265654
0.269001
0.27247
0.27577
0.278565
0.280848
0.282646
0.283964
0.284817
0.21163
0.212334
0.213608
0.215724
0.218277
0.220873
0.223409
0.225899
0.228376
0.230867
0.233395
0.235979
0.238641
0.241404
0.244287
0.247306
0.250469
0.253783
0.257246
0.260853
0.264593
0.268457
0.272455
0.276258
0.279506
0.282209
0.284402
0.286074
0.287229
0.207933
0.208525
0.20963
0.211523
0.213902
0.216397
0.218887
0.221374
0.223885
0.226444
0.229073
0.231792
0.234629
0.237606
0.240745
0.244064
0.247573
0.251277
0.255173
0.259244
0.26346
0.267784
0.272186
0.276264
0.279656
0.282449
0.284752
0.286593
0.287968
0.204765
0.205282
0.20628
0.208029
0.210277
0.212682
0.215132
0.217618
0.220157
0.222768
0.225475
0.228302
0.23128
0.234437
0.237795
0.241375
0.245195
0.24926
0.253564
0.258081
0.262758
0.267508
0.27222
0.27633
0.279413
0.281636
0.283276
0.2846
0.285841
0.202109
0.202576
0.203499
0.205141
0.207287
0.209633
0.212073
0.214577
0.21715
0.219811
0.222587
0.225513
0.228619
0.231935
0.235493
0.239318
0.243433
0.247849
0.252562
0.257542
0.26272
0.267962
0.273055
0.277177
0.279643
0.280489
0.280006
0.278741
0.277827
0.199938
0.200451
0.201389
0.202924
0.204899
0.207141
0.209574
0.212118
0.214741
0.21746
0.220312
0.223337
0.226569
0.230045
0.233798
0.237865
0.242274
0.247046
0.252184
0.257664
0.26342
0.2693
0.275029
0.279534
0.281682
0.280952
0.277011
0.269313
0.257693
0.262909
0.262214
0.261525
0.26084
0.260158
0.259479
0.2588
0.258121
0.257442
0.256761
0.256077
0.25539
0.254699
0.254003
0.253301
0.252593
0.251879
0.251157
0.250427
0.24969
0.248944
0.24819
0.247427
0.246656
0.245877
0.245089
0.244294
0.243491
0.24268
0.241863
0.241039
0.24021
0.239375
0.238536
0.237693
0.236847
0.235999
0.23515
0.234301
0.233453
0.232606
0.231762
0.230921
0.230086
0.229255
0.228432
0.227616
0.226807
0.226007
0.262914
0.262229
0.26155
0.260876
0.260205
0.259535
0.258867
0.258198
0.257528
0.256856
0.256182
0.255504
0.254821
0.254132
0.253438
0.252736
0.252027
0.25131
0.250584
0.249849
0.249106
0.248353
0.24759
0.246818
0.246038
0.245247
0.244449
0.243641
0.242826
0.242003
0.241173
0.240336
0.239494
0.238646
0.237795
0.23694
0.236082
0.235223
0.234363
0.233503
0.232645
0.231789
0.230937
0.230089
0.229246
0.22841
0.227581
0.226761
0.225949
0.263105
0.262446
0.261792
0.261142
0.260494
0.259847
0.2592
0.258552
0.257902
0.257248
0.256589
0.255926
0.255255
0.254578
0.253893
0.253198
0.252495
0.251781
0.251057
0.250322
0.249575
0.248818
0.248049
0.247269
0.246479
0.245677
0.244864
0.244042
0.24321
0.242369
0.241519
0.240662
0.239797
0.238927
0.238051
0.23717
0.236286
0.2354
0.234512
0.233624
0.232736
0.23185
0.230967
0.230088
0.229214
0.228346
0.227485
0.226633
0.225789
0.263576
0.262957
0.26234
0.261725
0.26111
0.260494
0.259876
0.259254
0.258628
0.257996
0.257357
0.25671
0.256054
0.255387
0.25471
0.254021
0.25332
0.252606
0.251878
0.251137
0.250382
0.249613
0.24883
0.248034
0.247223
0.246399
0.245563
0.244713
0.243853
0.24298
0.242098
0.241206
0.240305
0.239396
0.23848
0.237558
0.236632
0.235701
0.234768
0.233834
0.232899
0.231964
0.231032
0.230102
0.229177
0.228257
0.227344
0.226438
0.22554
0.264337
0.263769
0.2632
0.26263
0.262057
0.26148
0.260897
0.260308
0.25971
0.259104
0.258486
0.257857
0.257215
0.25656
0.255889
0.255203
0.254501
0.253783
0.253047
0.252294
0.251524
0.250736
0.24993
0.249108
0.248268
0.247412
0.24654
0.245653
0.244751
0.243836
0.242907
0.241967
0.241015
0.240054
0.239083
0.238105
0.23712
0.23613
0.235135
0.234138
0.233138
0.232139
0.231139
0.230142
0.229148
0.228158
0.227173
0.226194
0.225224
0.265393
0.264888
0.264379
0.263864
0.263343
0.262813
0.262274
0.261723
0.26116
0.260583
0.25999
0.259381
0.258755
0.258109
0.257445
0.256759
0.256054
0.255326
0.254577
0.253807
0.253014
0.252199
0.251363
0.250505
0.249626
0.248728
0.247809
0.246872
0.245917
0.244945
0.243957
0.242954
0.241937
0.240908
0.239867
0.238817
0.237757
0.236691
0.235618
0.234541
0.23346
0.232377
0.231294
0.230211
0.22913
0.228052
0.226978
0.225909
0.224849
0.266795
0.266333
0.265905
0.265457
0.264996
0.264523
0.264034
0.263528
0.263005
0.262461
0.261896
0.261309
0.260699
0.260064
0.259403
0.258716
0.258003
0.257263
0.256495
0.2557
0.254877
0.254027
0.253151
0.252249
0.25132
0.250367
0.24939
0.248391
0.247369
0.246326
0.245264
0.244183
0.243086
0.241973
0.240846
0.239707
0.238556
0.237396
0.236227
0.235052
0.233872
0.232688
0.231502
0.230315
0.229129
0.227944
0.226762
0.225586
0.224417
0.26849
0.268176
0.267841
0.267436
0.267052
0.266643
0.266209
0.265753
0.265274
0.264768
0.264234
0.263671
0.263076
0.262451
0.261793
0.261102
0.260377
0.259619
0.258826
0.258
0.25714
0.256247
0.255322
0.254364
0.253375
0.252356
0.251308
0.250232
0.249129
0.248002
0.24685
0.245676
0.244482
0.243268
0.242037
0.240791
0.23953
0.238257
0.236974
0.235682
0.234383
0.233078
0.23177
0.23046
0.229148
0.227838
0.226529
0.225225
0.22393
0.270571
0.27035
0.270105
0.269843
0.269552
0.269225
0.268801
0.268415
0.267989
0.267525
0.267025
0.266488
0.265912
0.265296
0.264639
0.263941
0.263203
0.262422
0.2616
0.260736
0.259832
0.258888
0.257903
0.256881
0.25582
0.254723
0.253592
0.252426
0.251228
0.25
0.248743
0.247458
0.246149
0.244816
0.243462
0.242089
0.240698
0.239293
0.237873
0.236443
0.235004
0.233556
0.232104
0.230648
0.22919
0.227732
0.226274
0.224822
0.22338
0.273039
0.272936
0.272791
0.272613
0.272404
0.272164
0.271889
0.271567
0.271189
0.270747
0.270288
0.26978
0.269223
0.268618
0.267963
0.267258
0.266503
0.265698
0.264843
0.263938
0.262985
0.261983
0.260933
0.259836
0.258695
0.257509
0.256282
0.255014
0.253706
0.252361
0.250981
0.249568
0.248125
0.246652
0.245153
0.243631
0.242087
0.240524
0.238944
0.23735
0.235745
0.234129
0.232507
0.230879
0.229249
0.227618
0.225986
0.224361
0.222749
0.275869
0.275904
0.275883
0.275818
0.275708
0.275552
0.275349
0.275096
0.274795
0.274441
0.274028
0.273546
0.273014
0.272427
0.271779
0.271071
0.270304
0.269477
0.268591
0.267645
0.266642
0.26558
0.264461
0.263286
0.262058
0.260774
0.259441
0.258057
0.256625
0.255148
0.253627
0.252065
0.250465
0.248829
0.24716
0.245461
0.243734
0.241985
0.240214
0.238425
0.236621
0.234805
0.23298
0.231149
0.229314
0.227477
0.225641
0.223812
0.222001
0.278998
0.279188
0.27931
0.279377
0.279387
0.279339
0.279231
0.279062
0.278832
0.278538
0.278183
0.277763
0.277275
0.276719
0.276093
0.275399
0.274635
0.2738
0.272896
0.271919
0.270874
0.269759
0.268575
0.267323
0.266005
0.26462
0.263173
0.261664
0.260093
0.258467
0.256785
0.255049
0.253266
0.251435
0.249563
0.247653
0.245706
0.24373
0.241726
0.239699
0.237654
0.235592
0.233521
0.231441
0.229357
0.227274
0.22519
0.223118
0.22107
0.282295
0.282659
0.282942
0.283161
0.283314
0.283399
0.283415
0.283359
0.283234
0.283035
0.282764
0.282418
0.281997
0.2815
0.280925
0.280276
0.279553
0.27874
0.277845
0.276863
0.275798
0.27465
0.273415
0.272098
0.270698
0.269213
0.267649
0.266007
0.264284
0.262488
0.26062
0.258682
0.25668
0.254615
0.252494
0.250323
0.248102
0.245842
0.243546
0.241219
0.23887
0.236499
0.234117
0.231726
0.229333
0.226941
0.224553
0.222183
0.219845
0.285506
0.286063
0.286533
0.286936
0.287267
0.287528
0.287716
0.287829
0.287867
0.287825
0.287704
0.287498
0.287207
0.286832
0.286366
0.285808
0.285155
0.284435
0.283603
0.282662
0.28162
0.280476
0.279222
0.277865
0.276402
0.274828
0.273151
0.271369
0.26948
0.267492
0.265404
0.26322
0.260949
0.258589
0.256153
0.253645
0.251069
0.248438
0.245757
0.243036
0.240285
0.237506
0.234717
0.231918
0.229123
0.226335
0.223558
0.220812
0.218113
0.288181
0.288944
0.289632
0.29027
0.290852
0.291379
0.291843
0.292236
0.292556
0.292787
0.292931
0.292976
0.292923
0.29277
0.292509
0.292144
0.291661
0.291064
0.290374
0.28957
0.288623
0.287545
0.286328
0.284978
0.283487
0.281849
0.280071
0.278149
0.276077
0.273867
0.271517
0.269029
0.266415
0.263675
0.260822
0.257868
0.254813
0.251681
0.248475
0.245213
0.241909
0.238571
0.235222
0.231867
0.228526
0.225208
0.22192
0.218685
0.215529
0.289149
0.290072
0.291017
0.292022
0.29305
0.294078
0.295061
0.29597
0.296782
0.297474
0.298045
0.298481
0.298789
0.29897
0.299018
0.298943
0.298732
0.298389
0.297913
0.297296
0.296562
0.295638
0.294539
0.293269
0.291814
0.290159
0.288312
0.286264
0.284005
0.281549
0.27889
0.276034
0.272995
0.269772
0.266387
0.262853
0.259175
0.255382
0.251483
0.247501
0.243458
0.239367
0.235262
0.231156
0.227084
0.223064
0.219116
0.215276
0.211578
0.287177
0.288156
0.289534
0.291304
0.293256
0.295232
0.297098
0.29879
0.300278
0.301545
0.302611
0.303479
0.304174
0.304714
0.305098
0.30535
0.305456
0.305426
0.305258
0.304917
0.304432
0.303772
0.302886
0.301787
0.300452
0.298857
0.297004
0.294876
0.292457
0.289764
0.286788
0.283535
0.280027
0.276264
0.272277
0.268085
0.263697
0.259153
0.254462
0.249657
0.244761
0.239791
0.234788
0.229771
0.224788
0.219881
0.215095
0.210509
0.206189
0.277711
0.279108
0.282689
0.287141
0.291473
0.295315
0.29855
0.301218
0.303405
0.305184
0.306651
0.30785
0.308847
0.309677
0.310355
0.310916
0.311346
0.311661
0.311859
0.311888
0.311751
0.311456
0.310894
0.310079
0.308972
0.307529
0.305745
0.303591
0.30104
0.29811
0.294793
0.291098
0.287058
0.282678
0.278004
0.273065
0.26788
0.262503
0.256947
0.251254
0.245445
0.239532
0.233552
0.227502
0.221426
0.215359
0.209384
0.203697
0.198568
0.249101
0.260155
0.27301
0.283578
0.291458
0.29719
0.301364
0.304484
0.306891
0.308797
0.31036
0.311655
0.31277
0.31375
0.314621
0.315426
0.31615
0.316815
0.317409
0.31787
0.318182
0.318298
0.318188
0.317756
0.316988
0.315815
0.314204
0.312106
0.309483
0.306355
0.302716
0.298582
0.294001
0.288989
0.283612
0.277915
0.271931
0.265733
0.259348
0.252825
0.246193
0.239456
0.232633
0.225678
0.21856
0.2112
0.203522
0.195603
0.188032
0.225226
0.224422
0.223565
0.222642
0.22164
0.220551
0.219401
0.218331
0.217446
0.216775
0.216355
0.21622
0.216413
0.216982
0.217979
0.219469
0.221531
0.224266
0.227799
0.232299
0.237991
0.245188
0.254336
0.266114
0.281621
0.30246
0.330323
0.372108
0.50566
0.225153
0.224333
0.223457
0.22251
0.221475
0.220347
0.219152
0.218031
0.217094
0.216369
0.215891
0.215694
0.215816
0.2163
0.217196
0.218564
0.220473
0.22301
0.226284
0.230435
0.235643
0.242145
0.250249
0.260345
0.27306
0.289332
0.307311
0.320756
0.358329
0.224959
0.224102
0.223179
0.222176
0.221072
0.219859
0.21856
0.217323
0.216263
0.215409
0.214791
0.214439
0.214385
0.214665
0.215318
0.216389
0.217928
0.219994
0.222654
0.225982
0.23006
0.23497
0.240769
0.247377
0.254606
0.262548
0.268874
0.266299
0.268411
0.224654
0.223734
0.222736
0.221643
0.220431
0.219086
0.217627
0.21621
0.214962
0.213909
0.213076
0.212487
0.212167
0.21214
0.212432
0.213069
0.214075
0.215473
0.21728
0.219501
0.222121
0.225086
0.228289
0.231459
0.234118
0.236231
0.236863
0.231963
0.229611
0.224261
0.223255
0.222156
0.220942
0.219586
0.218065
0.216395
0.214745
0.213256
0.21195
0.210847
0.209966
0.209322
0.20893
0.2088
0.208941
0.209355
0.210035
0.210963
0.212101
0.213384
0.214708
0.215942
0.216857
0.217034
0.216329
0.214158
0.207857
0.2037
0.22379
0.222676
0.22145
0.220087
0.21855
0.216814
0.214886
0.212956
0.211182
0.209581
0.208171
0.206963
0.205967
0.205185
0.20462
0.204264
0.204106
0.204121
0.204273
0.204508
0.204748
0.204884
0.204783
0.204256
0.202915
0.200419
0.196103
0.188375
0.182973
0.223243
0.221998
0.22062
0.219075
0.217324
0.215331
0.213102
0.210848
0.208749
0.206821
0.205077
0.203523
0.202162
0.20099
0.200001
0.199179
0.198502
0.197937
0.19744
0.19695
0.196386
0.195636
0.194562
0.192979
0.190533
0.186849
0.181487
0.174061
0.168933
0.222618
0.221219
0.21966
0.217901
0.215897
0.213606
0.21103
0.20841
0.205953
0.203672
0.201576
0.199667
0.197942
0.196394
0.195007
0.193762
0.192629
0.191571
0.190539
0.189472
0.188288
0.186882
0.185125
0.182863
0.179818
0.175695
0.170379
0.164366
0.160197
0.221908
0.220327
0.218555
0.216548
0.214251
0.211617
0.208648
0.205624
0.202779
0.200126
0.197669
0.195405
0.193329
0.191427
0.189679
0.188061
0.186541
0.185078
0.183625
0.182121
0.180495
0.178659
0.176511
0.173937
0.170736
0.166684
0.161891
0.157316
0.154076
0.221091
0.219297
0.217278
0.214981
0.212346
0.209322
0.205915
0.202448
0.19919
0.196152
0.193332
0.190725
0.188318
0.186094
0.184031
0.182099
0.180264
0.178488
0.176724
0.174919
0.173014
0.170938
0.168616
0.165961
0.162825
0.159045
0.15486
0.151391
0.148921
0.220123
0.218081
0.215773
0.213141
0.210117
0.206651
0.202756
0.198811
0.195122
0.191692
0.188518
0.185586
0.18288
0.180376
0.178047
0.175863
0.173789
0.171786
0.169811
0.167818
0.165757
0.163572
0.161202
0.158579
0.155594
0.152148
0.148559
0.145898
0.144045
0.218931
0.216596
0.213949
0.210925
0.207455
0.20349
0.19906
0.194606
0.190474
0.186659
0.183149
0.179924
0.176958
0.174223
0.171687
0.169316
0.167075
0.164924
0.162823
0.160731
0.158604
0.156398
0.15406
0.151535
0.148746
0.145657
0.142623
0.140547
0.139152
0.217391
0.214705
0.211658
0.208178
0.204196
0.199673
0.194663
0.189682
0.185111
0.180934
0.177123
0.17365
0.170478
0.167572
0.164894
0.162405
0.160068
0.157843
0.155692
0.153576
0.151456
0.149295
0.14705
0.144672
0.142111
0.139379
0.136836
0.135178
0.134104
0.215272
0.212165
0.208644
0.204633
0.200074
0.194944
0.18933
0.183829
0.178851
0.174358
0.170307
0.166652
0.163345
0.160342
0.157597
0.155065
0.152707
0.150483
0.148353
0.146282
0.144234
0.142176
0.140071
0.137877
0.135563
0.133177
0.131057
0.129704
0.128851
0.212206
0.20859
0.204512
0.1999
0.194713
0.188956
0.182757
0.17679
0.17148
0.166757
0.162557
0.158813
0.155464
0.152453
0.149728
0.14724
0.144941
0.142794
0.140757
0.138796
0.136878
0.134972
0.133046
0.131064
0.129013
0.126966
0.125223
0.124106
0.1234
0.207703
0.203533
0.198886
0.193701
0.187961
0.181699
0.175072
0.16881
0.163331
0.158534
0.154328
0.150628
0.147358
0.14445
0.141844
0.139488
0.137331
0.135332
0.133451
0.131654
0.129908
0.128186
0.12646
0.124703
0.122911
0.121165
0.119722
0.118793
0.118185
0.201709
0.196994
0.191895
0.186339
0.180297
0.173798
0.167009
0.160686
0.155234
0.150528
0.146455
0.142916
0.139823
0.137101
0.134685
0.132518
0.130551
0.128739
0.127044
0.125431
0.123868
0.122331
0.120797
0.119253
0.117705
0.116215
0.115
0.114207
0.11367
0.193545
0.188565
0.1835
0.178042
0.17208
0.165647
0.158942
0.152752
0.147478
0.142984
0.139142
0.135841
0.132986
0.130497
0.128308
0.12636
0.124603
0.122993
0.121492
0.120067
0.118685
0.117319
0.115951
0.114584
0.113243
0.111978
0.110957
0.110285
0.109806
0.181903
0.178029
0.174058
0.169262
0.163722
0.157586
0.15114
0.14522
0.140228
0.136024
0.132471
0.129451
0.126864
0.12463
0.12268
0.120956
0.11941
0.118
0.116687
0.115438
0.114221
0.113002
0.111772
0.110573
0.109478
0.108502
0.107676
0.107047
0.106548
0.197746
0.198037
0.198796
0.200357
0.202524
0.204965
0.20752
0.210123
0.212788
0.215563
0.218496
0.221626
0.224992
0.228632
0.232587
0.236897
0.2416
0.246724
0.252279
0.258249
0.264579
0.271113
0.277538
0.282619
0.284821
0.282886
0.275205
0.259356
0.227004
0.195548
0.195966
0.196838
0.19838
0.200457
0.202822
0.205338
0.207948
0.21066
0.213511
0.216544
0.219797
0.22331
0.227125
0.231289
0.23585
0.240851
0.246333
0.25232
0.25882
0.265822
0.273242
0.280853
0.287534
0.291809
0.292897
0.290211
0.285126
0.288727
0.1933
0.193802
0.194756
0.196287
0.198289
0.200574
0.203033
0.205624
0.208356
0.211258
0.214365
0.217712
0.221344
0.225306
0.229652
0.234438
0.239723
0.245565
0.25202
0.259148
0.267034
0.275785
0.285489
0.295594
0.305073
0.313969
0.323168
0.330176
0.346103
0.190975
0.191455
0.192381
0.193894
0.195896
0.198183
0.200633
0.203216
0.205957
0.208887
0.212041
0.215457
0.21918
0.22326
0.227759
0.232744
0.238288
0.244473
0.251396
0.259183
0.268036
0.278318
0.290483
0.30465
0.320088
0.336322
0.356074
0.373864
0.39613
0.188576
0.189021
0.189894
0.191371
0.193369
0.195664
0.198115
0.200697
0.20344
0.206385
0.209568
0.213031
0.216819
0.22099
0.22561
0.230756
0.236518
0.242999
0.250336
0.258716
0.26844
0.280125
0.294423
0.311962
0.33223
0.353077
0.37935
0.406927
0.436997
0.186106
0.186532
0.187369
0.188802
0.190763
0.193032
0.195464
0.198031
0.200765
0.203708
0.206899
0.210382
0.214206
0.218431
0.223129
0.228384
0.234299
0.240995
0.248639
0.257461
0.267806
0.280521
0.296093
0.315461
0.338656
0.36457
0.393404
0.424076
0.455808
0.18356
0.183974
0.184784
0.186169
0.188072
0.190289
0.192679
0.19521
0.197914
0.200832
0.204004
0.207476
0.211297
0.21553
0.220251
0.225548
0.231533
0.23833
0.246136
0.255181
0.265792
0.278752
0.295697
0.31656
0.340702
0.367396
0.395373
0.424069
0.453521
0.180932
0.181332
0.182113
0.183444
0.185277
0.187428
0.189757
0.192232
0.194883
0.197749
0.200872
0.204295
0.20807
0.21226
0.21694
0.222199
0.22816
0.234918
0.242717
0.251633
0.262462
0.275737
0.29285
0.313706
0.336963
0.361822
0.387182
0.41254
0.437744
0.178221
0.178606
0.179354
0.180624
0.182377
0.184446
0.186697
0.189096
0.191669
0.194455
0.197495
0.200831
0.204513
0.208603
0.213175
0.218305
0.224142
0.230681
0.238319
0.247209
0.257819
0.270751
0.287019
0.306483
0.327594
0.349519
0.371431
0.393018
0.413472
0.175425
0.175797
0.176509
0.177711
0.179372
0.181343
0.183497
0.185798
0.188269
0.190946
0.193869
0.197076
0.200617
0.204546
0.208944
0.213839
0.219429
0.225781
0.233083
0.24158
0.251576
0.263581
0.278343
0.295575
0.313768
0.332114
0.349985
0.367448
0.383445
0.172544
0.172899
0.173573
0.174701
0.176261
0.178121
0.18016
0.182342
0.184686
0.187226
0.189997
0.193035
0.196386
0.200094
0.204236
0.20888
0.214132
0.220105
0.226905
0.234722
0.243804
0.254517
0.267361
0.281894
0.296747
0.311196
0.324795
0.337923
0.349665
0.169578
0.169918
0.170551
0.1716
0.17305
0.174784
0.17669
0.178732
0.180925
0.183299
0.185886
0.188717
0.191832
0.195276
0.199111
0.203406
0.208229
0.21367
0.219813
0.226778
0.234742
0.243931
0.254604
0.26622
0.27763
0.288255
0.297825
0.306861
0.314721
0.166533
0.166861
0.167455
0.168422
0.169749
0.17134
0.173094
0.174974
0.176991
0.179172
0.181544
0.184132
0.186972
0.190102
0.193569
0.197427
0.20173
0.206536
0.211901
0.217889
0.224588
0.232105
0.240497
0.249198
0.257334
0.264507
0.270611
0.276191
0.280845
0.16341
0.163721
0.16427
0.165148
0.166349
0.16779
0.169379
0.17108
0.172902
0.174866
0.176995
0.17931
0.181835
0.184602
0.187646
0.191002
0.19471
0.198802
0.203299
0.208215
0.213564
0.219354
0.225496
0.231473
0.236706
0.240978
0.244319
0.247241
0.24955
0.160214
0.160511
0.161013
0.1618
0.162869
0.16415
0.165559
0.167065
0.168672
0.170401
0.172265
0.174277
0.176456
0.17882
0.181394
0.184199
0.187256
0.190573
0.194139
0.197928
0.201898
0.205987
0.210015
0.213565
0.216347
0.218307
0.219567
0.220601
0.221402
0.156953
0.157237
0.157695
0.158388
0.159318
0.160429
0.161647
0.162942
0.164322
0.165799
0.167377
0.169063
0.170865
0.172795
0.174863
0.177077
0.179439
0.181935
0.184529
0.187165
0.189765
0.192223
0.194312
0.195752
0.196526
0.196712
0.196481
0.196268
0.196249
0.153633
0.153903
0.154311
0.154909
0.1557
0.156639
0.157655
0.158734
0.159877
0.161087
0.162364
0.163705
0.165112
0.166584
0.16812
0.169714
0.171351
0.172999
0.174603
0.176087
0.17735
0.178267
0.178598
0.178225
0.17738
0.176243
0.174977
0.173986
0.173619
0.150265
0.15052
0.150882
0.151381
0.152034
0.152789
0.153608
0.154463
0.15536
0.156296
0.15726
0.158246
0.159243
0.160243
0.161232
0.162191
0.163088
0.163878
0.164492
0.164839
0.164809
0.164275
0.163011
0.161074
0.158914
0.156779
0.154779
0.153282
0.152813
0.146857
0.147103
0.147425
0.147819
0.148331
0.148909
0.149519
0.150147
0.150795
0.151451
0.152098
0.152722
0.153305
0.153827
0.154262
0.15458
0.154735
0.154669
0.1543
0.153531
0.15225
0.150337
0.147598
0.144269
0.140996
0.138065
0.135493
0.133618
0.133145
0.143419
0.143648
0.14392
0.144238
0.144604
0.145001
0.145405
0.145811
0.146211
0.146587
0.146919
0.147183
0.147352
0.147398
0.147284
0.146967
0.14639
0.145481
0.144149
0.14229
0.139793
0.13655
0.132408
0.127785
0.123515
0.1199
0.11684
0.114638
0.114179
0.139962
0.140178
0.140404
0.140635
0.140861
0.141084
0.141291
0.141479
0.141636
0.141738
0.141761
0.141672
0.141438
0.14102
0.140373
0.139441
0.138155
0.136431
0.134167
0.131253
0.127576
0.123035
0.117518
0.111626
0.106388
0.102123
0.098586
0.0960613
0.0956191
0.136497
0.136702
0.136885
0.137025
0.13712
0.137176
0.137194
0.137172
0.137093
0.136933
0.136658
0.136231
0.135611
0.13475
0.133593
0.132075
0.130115
0.127616
0.124466
0.120539
0.115718
0.109897
0.10299
0.0957782
0.0895123
0.0845468
0.0804849
0.0776123
0.0772089
0.133037
0.133235
0.133378
0.133433
0.1334
0.133296
0.133131
0.132908
0.132607
0.132199
0.131643
0.130898
0.129913
0.128636
0.127003
0.124938
0.122349
0.119129
0.115149
0.110268
0.104349
0.0972643
0.0889271
0.0802675
0.0728017
0.0669733
0.0622467
0.0589591
0.0586465
0.129591
0.12978
0.129882
0.129855
0.129701
0.129448
0.129116
0.128709
0.128204
0.127567
0.126752
0.125711
0.124391
0.122732
0.120662
0.118099
0.114939
0.111063
0.106328
0.100574
0.09363
0.0853253
0.0755317
0.0652732
0.0563477
0.0493549
0.0436705
0.0397998
0.0396041
0.126171
0.126355
0.126423
0.12632
0.12605
0.125654
0.125166
0.124592
0.123905
0.123061
0.122012
0.120705
0.119084
0.117083
0.114625
0.111621
0.107959
0.103509
0.0981154
0.0915964
0.0837447
0.0743227
0.0631134
0.0511424
0.0404499
0.0318315
0.02464
0.0198264
0.0197563
0.122784
0.122956
0.122983
0.122804
0.122428
0.121908
0.121291
0.120579
0.119736
0.118713
0.117459
0.115919
0.114034
0.111735
0.108943
0.105564
0.101478
0.0965482
0.090609
0.0834628
0.0748697
0.0645231
0.0520899
0.0384965
0.0258829
0.0151488
0.00557998
-0.000917865
-0.00084176
0.119464
0.119679
0.119721
0.119484
0.118975
0.118289
0.117518
0.116671
0.115695
0.114523
0.113097
0.111362
0.109257
0.106713
0.103647
0.0999676
0.0955442
0.0902398
0.0838858
0.0762789
0.0671561
0.0561332
0.0427282
0.0277311
0.0132952
0.000305794
-0.0123394
-0.0221705
-0.0235316
0.151894
0.13675
0.115662
0.0889679
0.0595031
0.031178
0.00639107
-0.0166594
-0.0374951
-0.0609281
-0.0850479
-0.11433
-0.14488
-0.173731
-0.197111
-0.212575
-0.220146
-0.221865
-0.221193
0.159417
0.148264
0.128106
0.100528
0.0675764
0.0328779
-0.000564656
-0.0349991
-0.0667947
-0.102877
-0.139992
-0.178197
-0.215199
-0.247848
-0.273012
-0.289518
-0.298497
-0.30235
-0.303679
0.155191
0.145358
0.126618
0.0990511
0.0638405
0.0244215
-0.015817
-0.0601803
-0.10492
-0.150697
-0.196954
-0.242594
-0.28498
-0.320955
-0.348111
-0.3661
-0.376546
-0.381902
-0.38453
0.145596
0.136339
0.119441
0.0925818
0.0554932
0.0111082
-0.0373991
-0.0887875
-0.142121
-0.196636
-0.251326
-0.304323
-0.352181
-0.391488
-0.420349
-0.439227
-0.450453
-0.456742
-0.460287
0.133796
0.125278
0.109453
0.0826528
0.0439515
-0.00375458
-0.0575714
-0.115424
-0.176345
-0.239176
-0.301686
-0.3608
-0.412474
-0.453501
-0.482897
-0.502069
-0.513905
-0.521085
-0.525419
0.117568
0.109363
0.0946519
0.0686236
0.0294363
-0.0202085
-0.0776282
-0.141115
-0.208817
-0.278585
-0.347136
-0.410433
-0.464281
-0.506134
-0.536
-0.555957
-0.569127
-0.577946
-0.583812
0.0971872
0.0881285
0.0738187
0.0486553
0.00974683
-0.0408805
-0.100765
-0.168125
-0.240401
-0.314401
-0.385909
-0.450208
-0.503306
-0.543561
-0.571938
-0.591023
-0.604035
-0.613047
-0.619126
0.0738794
0.0630276
0.047937
0.022778
-0.0159142
-0.066834
-0.127788
-0.196779
-0.270812
-0.345947
-0.41725
-0.479752
-0.530088
-0.567653
-0.59417
-0.612399
-0.625346
-0.634586
-0.640964
0.0485665
0.0355491
0.0187809
-0.00738304
-0.0463077
-0.0970731
-0.157773
-0.226355
-0.299542
-0.372843
-0.440909
-0.499002
-0.544685
-0.578321
-0.602111
-0.61877
-0.631002
-0.639954
-0.646182
0.0220215
0.00691348
-0.0118805
-0.0396222
-0.0791365
-0.129504
-0.189034
-0.25574
-0.326178
-0.395528
-0.458414
-0.510743
-0.55112
-0.580697
-0.601906
-0.617259
-0.629095
-0.638236
-0.644918
-0.00486905
-0.0217594
-0.0425206
-0.0719485
-0.112211
-0.162103
-0.219957
-0.283726
-0.349743
-0.413009
-0.468534
-0.513246
-0.546846
-0.571072
-0.588373
-0.600974
-0.610798
-0.618464
-0.624033
-0.0310463
-0.0492545
-0.0716169
-0.102404
-0.143205
-0.192389
-0.248107
-0.308112
-0.36854
-0.424558
-0.47202
-0.509076
-0.536338
-0.555808
-0.569714
-0.579888
-0.587799
-0.593974
-0.598383
-0.0555273
-0.0745128
-0.0979276
-0.129445
-0.170229
-0.218232
-0.271361
-0.327145
-0.381669
-0.430557
-0.470692
-0.5013
-0.523567
-0.539497
-0.551008
-0.559577
-0.566344
-0.571822
-0.575837
-0.077625
-0.0968825
-0.120788
-0.152356
-0.192472
-0.238726
-0.28874
-0.339782
-0.388
-0.429706
-0.462894
-0.487688
-0.505583
-0.51842
-0.52777
-0.534793
-0.540342
-0.544896
-0.548205
-0.0969371
-0.116033
-0.139911
-0.170898
-0.209701
-0.25361
-0.299997
-0.345951
-0.387907
-0.423051
-0.450404
-0.470702
-0.485491
-0.496325
-0.504419
-0.510639
-0.515611
-0.519759
-0.522789
-0.113417
-0.132021
-0.155443
-0.185346
-0.222325
-0.263459
-0.30597
-0.346923
-0.383209
-0.412885
-0.435753
-0.452863
-0.465646
-0.475358
-0.482914
-0.488956
-0.493966
-0.498285
-0.501542
-0.127349
-0.145251
-0.167932
-0.196434
-0.231264
-0.26931
-0.307691
-0.343582
-0.374498
-0.39935
-0.41852
-0.433153
-0.444454
-0.453368
-0.460548
-0.466447
-0.471436
-0.475752
-0.479013
-0.139144
-0.156231
-0.177999
-0.204937
-0.237462
-0.2723
-0.306563
-0.337695
-0.363915
-0.384859
-0.401247
-0.41416
-0.424536
-0.433035
-0.440089
-0.445996
-0.451041
-0.455374
-0.458641
-0.149298
-0.165538
-0.186338
-0.211702
-0.241968
-0.273759
-0.30427
-0.331293
-0.353691
-0.371612
-0.38593
-0.397589
-0.407289
-0.415467
-0.422392
-0.428255
-0.433282
-0.437573
-0.440803
-0.158333
-0.173764
-0.193664
-0.217558
-0.245659
-0.274486
-0.3014
-0.324653
-0.343731
-0.359148
-0.371786
-0.382392
-0.391436
-0.399178
-0.40577
-0.411333
-0.416057
-0.42002
-0.422961
-0.166634
-0.181373
-0.200555
-0.223185
-0.249288
-0.275328
-0.298945
-0.318925
-0.335272
-0.348692
-0.359977
-0.369671
-0.378061
-0.385283
-0.391413
-0.396532
-0.400803
-0.404309
-0.406872
-0.174509
-0.188775
-0.207548
-0.229159