/*--------------------------------*- C++ -*----------------------------------*\
| =========                 |                                                 |
| \\      /  F ield         | OpenFOAM: The Open Source CFD Toolbox           |
|  \\    /   O peration     | Version:  2312                                  |
|   \\  /    A nd           | Website:  www.openfoam.com                      |
|    \\/     M anipulation  |                                                 |
\*---------------------------------------------------------------------------*/
FoamFile
{
    version     2.0;
    format      ascii;
    arch        "LSB;label=32;scalar=64";
    class       surfaceScalarField;
    location    "77.043195737373168";
    object      phi;
}
// * * * * * * * * * * * * * * * * * * * * * * * * * * * * * * * * * * * * * //

dimensions      [0 3 -1 0 0 0 0];

oriented        oriented;

internalField   nonuniform List<scalar> 
41713
(
0.00736395
0.0568825
0.00362988
0.0679805
0.00211904
0.0657573
0.001487
0.0648785
0.00110185
0.0646316
0.000848387
0.0644999
0.000673967
0.0644209
0.000547668
0.0643727
0.000452883
0.0643412
0.000379956
0.0643194
0.000322763
0.0643036
0.000277249
0.064292
0.000240649
0.064283
0.00021102
0.0642761
0.000186967
0.0642705
0.000167467
0.0642659
0.00015175
0.0642622
0.000139228
0.064259
0.000129437
0.0642562
0.000121986
0.0642539
0.000116506
0.0642519
0.000112622
0.0642503
0.000110043
0.064249
0.00010834
0.0548129
0.000106853
0.0456775
0.000105388
0.0380648
0.000103974
0.0317208
0.000102648
0.0264342
0.0220286
0.000101397
0.00999584
0.0468866
0.00843129
0.0695451
0.00572126
0.0684673
0.00412944
0.0664703
0.00313072
0.0656303
0.00244136
0.0651893
0.00194554
0.0649167
0.00157785
0.0647404
0.00129797
0.0646211
0.00108011
0.0645372
0.000907334
0.0644764
0.000768265
0.064431
0.000655055
0.0643962
0.000562161
0.064369
0.000485593
0.0643471
0.000422424
0.0643291
0.000370472
0.0643141
0.000328086
0.0643013
0.000293987
0.0642903
0.000267163
0.0642807
0.000246779
0.0642723
0.000232102
0.064265
0.000222386
0.0642587
0.000217093
0.0548182
0.000214191
0.0456804
0.000212414
0.0380666
0.000211055
0.0317222
0.00020979
0.0264354
0.0220298
0.000208664
0.00859714
0.0382895
0.00971147
0.0684307
0.00747637
0.0707024
0.00571016
0.0682365
0.00452461
0.0668159
0.00364217
0.0660717
0.0029626
0.0655962
0.0024343
0.0652687
0.00201859
0.0650368
0.00168692
0.0648689
0.00141885
0.0647445
0.00119977
0.0646501
0.00101912
0.0645769
0.000869211
0.0645189
0.000744373
0.0644719
0.000640381
0.0644331
0.000554058
0.0644004
0.000482984
0.0643724
0.000425294
0.064348
0.000379526
0.0643265
0.000344506
0.0643073
0.000319248
0.0642903
0.000302753
0.0642752
0.000294315
0.0548266
0.000290356
0.0456843
0.000288522
0.0380684
0.000287468
0.0317233
0.000286576
0.0264363
0.0220305
0.000285807
0.00677515
0.0315144
0.00947645
0.0657294
0.00812518
0.0720537
0.00644902
0.0699127
0.00526147
0.0680034
0.00435947
0.0669737
0.00363156
0.0663241
0.00303836
0.0658619
0.00255269
0.0655225
0.00215255
0.065269
0.00182066
0.0650764
0.00154367
0.0649271
0.00131126
0.0648093
0.00111556
0.0647146
0.000950536
0.0646369
0.000811564
0.0645721
0.000695095
0.0645169
0.000598393
0.0644691
0.000519335
0.0644271
0.000456252
0.0643896
0.000407819
0.0643558
0.000372926
0.0643251
0.000350361
0.0642978
0.000339214
0.0548378
0.000334442
0.0456891
0.000332684
0.0380701
0.000332053
0.0317239
0.000331719
0.0264367
0.0220307
0.000331577
0.00506434
0.02645
0.00856799
0.0622258
0.00818238
0.0724393
0.00674267
0.0713524
0.00559115
0.0691549
0.00471871
0.0678461
0.00400404
0.0670388
0.00340334
0.0664626
0.00289566
0.0660302
0.0024651
0.0656996
0.0020987
0.0654428
0.00178599
0.0652398
0.00151852
0.0650768
0.00128954
0.0649436
0.00109367
0.0648328
0.000926679
0.0647391
0.000785244
0.0646583
0.000666754
0.0645876
0.00056917
0.0645247
0.000490886
0.0644678
0.000430623
0.064416
0.000387292
0.0643685
0.00035959
0.0643255
0.00034643
0.0548509
0.000341406
0.0456941
0.000340226
0.0380713
0.00034051
0.0317236
0.000341216
0.026436
0.0220297
0.000342144
0.00361666
0.0228334
0.00730598
0.0585365
0.00777875
0.0719665
0.00672383
0.0724073
0.0056669
0.0702119
0.00484466
0.0686684
0.00416644
0.067717
0.00358404
0.067045
0.0030796
0.0665346
0.00264161
0.0661376
0.0022606
0.0658238
0.00192873
0.0655717
0.00163961
0.0653659
0.00138798
0.0651952
0.00116959
0.0650512
0.000981017
0.0649276
0.00081952
0.0648198
0.000682948
0.0647242
0.000569616
0.064638
0.00047821
0.0645593
0.000407693
0.0644865
0.000357152
0.064419
0.000325356
0.0643573
0.000311053
0.0548652
0.000306538
0.0456986
0.000306637
0.0380712
0.000308507
0.0317217
0.000310893
0.0264336
0.0220272
0.000313473
0.00252049
0.0203129
0.00601061
0.0550463
0.00708849
0.0708886
0.00646213
0.0730337
0.00555408
0.0711199
0.00480141
0.0694211
0.00417382
0.0683446
0.00362447
0.0675944
0.00313753
0.0670215
0.00270542
0.0665697
0.00232191
0.0662073
0.00198162
0.065912
0.00168005
0.0656675
0.00141349
0.0654617
0.00117886
0.0652858
0.000973694
0.0651328
0.000796028
0.0649975
0.000644342
0.0648759
0.000517489
0.0647648
0.000414619
0.0646621
0.000335105
0.064566
0.000278368
0.0644758
0.00024338
0.0643923
0.000228734
0.0548799
0.000225457
0.0457019
0.000227541
0.0380691
0.000231687
0.0317176
0.00023645
0.0264288
0.0220222
0.000241393
0.00175578
0.0185571
0.00487801
0.0519241
0.00630687
0.0694598
0.00606097
0.0732796
0.00531946
0.0718614
0.00464116
0.0700994
0.00406707
0.0689187
0.00355713
0.0681043
0.00309541
0.0674832
0.0026769
0.0669882
0.00229815
0.066586
0.00195606
0.0662541
0.00164791
0.0659756
0.00137143
0.0657382
0.00112472
0.0655325
0.000906309
0.0653512
0.000715059
0.0651887
0.000550182
0.0650407
0.000411177
0.0649039
0.000297791
0.0647755
0.000209958
0.0646539
0.000147602
0.0645381
0.000109975
0.0644299
9.53981e-05
0.0548944
9.38678e-05
0.0457034
9.85393e-05
0.0380645
0.000105623
0.0317105
0.000113381
0.0264211
0.0220143
0.000121322
0.00124475
0.0173123
0.00395666
0.0492122
0.00554878
0.0678676
0.00560517
0.0732232
0.00502462
0.072442
0.00441493
0.070709
0.00388683
0.0694468
0.00341342
0.0685777
0.00297769
0.067919
0.00257527
0.0673906
0.00220446
0.0669568
0.00186386
0.0665947
0.00155223
0.0662872
0.00126854
0.0660219
0.00101199
0.0657891
0.000782041
0.0655812
0.000578403
0.0653924
0.000401053
0.0652181
0.00025022
0.0650547
0.000126302
0.0648994
2.97897e-05
0.0647504
-3.88649e-05
0.0646068
-7.98072e-05
0.0644708
-9.45065e-05
0.0549091
-9.42766e-05
0.0457032
-8.6841e-05
0.038057
-7.64861e-05
0.0317001
-6.52876e-05
0.0264099
0.0220031
-5.4133e-05
0.000910363
0.016402
0.00322764
0.0468949
0.00485802
0.0662373
0.00513946
0.0729417
0.00470572
0.0728757
0.00415789
0.0712569
0.00366563
0.0699391
0.00322108
0.0690223
0.00280721
0.0683328
0.00241912
0.0677787
0.00205588
0.0673201
0.00171713
0.0669334
0.00140265
0.0666017
0.00111239
0.0663122
0.000846437
0.066055
0.000605088
0.0658225
0.000388851
0.0656086
0.000198443
0.0654085
3.47353e-05
0.0652184
-0.000101212
0.0650354
-0.000208097
0.0648573
-0.000284583
0.0646833
-0.000330164
0.0645164
-0.000345889
0.0549249
-0.00034416
0.0457015
-0.000333621
0.0380465
-0.000319173
0.0316857
-0.000303284
0.026394
0.0219869
-0.000287106
0.000692897
0.0157091
0.00265756
0.0449303
0.00424736
0.0646475
0.00468562
0.0725035
0.00438009
0.0731812
0.00388848
0.0717485
0.00342367
0.0704039
0.00299984
0.0694461
0.00260197
0.0687307
0.00222431
0.0681564
0.00186605
0.0676783
0.00152739
0.0672721
0.00120878
0.0669203
0.000910822
0.0666101
0.000634309
0.0663315
0.000380229
0.0660766
0.000149734
0.0658391
-5.58778e-05
0.0656141
-0.000235036
0.0653975
-0.000385798
0.0651861
-0.000505972
0.0649775
-0.00059339
0.0647707
-0.000646714
0.0645698
-0.000665851
0.054944
-0.000664259
0.0456999
-0.000651575
0.0380338
-0.00063346
0.0316676
-0.000613005
0.0263735
0.0219658
-0.000591902
0.000548799
0.0151603
0.0022122
0.0432669
0.00371632
0.0631433
0.0042557
0.0719641
0.00405761
0.0733793
0.00361674
0.0721893
0.00317292
0.0708477
0.00276265
0.0698564
0.00237486
0.0691185
0.0020031
0.0685281
0.00164625
0.0680352
0.00130477
0.0676136
0.000979474
0.0672456
0.000671423
0.0669182
0.000381909
0.066621
0.000112381
0.0663461
-0.000135558
0.0660871
-0.000359967
0.0658385
-0.000558471
0.0655961
-0.000728317
0.065356
-0.000866479
0.0651156
-0.000969897
0.0648741
-0.0010363
0.0646362
-0.00106342
0.0549711
-0.00106549
0.045702
-0.00105311
0.0380214
-0.00103279
0.0316473
-0.00100841
0.0263491
0.0219398
-0.000982407
0.000448847
0.0147114
0.00186114
0.0418546
0.00325773
0.0617467
0.00385584
0.071366
0.00374487
0.0734903
0.00334918
0.072585
0.00292144
0.0712754
0.00251871
0.0702591
0.00213552
0.0695017
0.00176509
0.0688986
0.00140579
0.0683945
0.00105803
0.0679613
0.00072279
0.0675809
0.00040139
0.0672396
9.5359e-05
0.0669271
-0.000193595
0.0666351
-0.000463373
0.0663568
-0.000711362
0.0660865
-0.000934515
0.0658192
-0.00112938
0.0655508
-0.00129214
0.0652784
-0.00141892
0.0650009
-0.00150659
0.0647238
-0.00154931
0.0550138
-0.00156147
0.0457141
-0.00155438
0.0380143
-0.0015354
0.0316283
-0.0015094
0.0263231
0.0219103
-0.00147986
0.000375323
0.0143361
0.00158033
0.0406496
0.00286195
0.0604651
0.00348795
0.07074
0.00344598
0.0735323
0.00309022
0.0729408
0.00267503
0.0716906
0.00227513
0.070659
0.00189178
0.069885
0.00151842
0.0692719
0.00115284
0.0687601
0.000795161
0.068319
0.000446328
0.0679297
0.000107655
0.0675783
-0.000219315
0.067254
-0.000532598
0.0669484
-0.000829615
0.0666538
-0.00110726
0.0663642
-0.00136193
0.0660739
-0.00158952
0.0657784
-0.00178553
0.0654744
-0.00194549
0.0651608
-0.00206586
0.0648442
-0.00213569
0.0550837
-0.00216866
0.0457471
-0.00217603
0.0380217
-0.00216555
0.0316178
-0.00214312
0.0263007
0.0218808
-0.00211367
0.000318172
0.0140179
0.00135382
0.0396139
0.00252239
0.0592966
0.00315375
0.0701086
0.00316397
0.0735221
0.00284262
0.0732622
0.00243741
0.0720958
0.00203697
0.0710595
0.00164966
0.0702724
0.00126972
0.0696519
0.000894365
0.0691354
0.000523276
0.0686901
0.000157141
0.0682958
-0.000202993
0.0679384
-0.000555589
0.0676066
-0.000898435
0.0672912
-0.00122869
0.0669841
-0.0015429
0.0666784
-0.00183692
0.0663679
-0.00210604
0.0660475
-0.00234518
0.0657135
-0.00254968
0.0653653
-0.00271671
0.0650112
-0.00282961
0.0551966
-0.002901
0.0458185
-0.00294047
0.0380612
-0.00295396
0.0316313
-0.00294682
0.0262936
0.0218592
-0.00292521
0.000233738
0.0137842
0.000996544
0.0388511
0.00189829
0.0583948
0.00242414
0.0695828
0.0024637
0.0734825
0.00221599
0.0735099
0.001881
0.0724308
0.0015416
0.0713989
0.00121021
0.0706038
0.000882831
0.0699792
0.000556627
0.0694616
0.000230868
0.0690158
-9.43078e-05
0.068621
-0.000418294
0.0682624
-0.000739912
0.0679283
-0.00105738
0.0676087
-0.0013683
0.067295
-0.0016696
0.0669797
-0.00195743
0.0666557
-0.00222721
0.0663173
-0.00247389
0.0659602
-0.00269296
0.0655844
-0.00288254
0.0652008
-0.00302415
0.0553382
-0.00312992
0.0459243
-0.00320755
0.0381388
-0.0032589
0.0316826
-0.00328441
0.0263191
0.021863
-0.0032882
0.000175201
0.013609
0.00074492
0.0382814
0.00144181
0.0576979
0.00187223
0.0691524
0.00192285
0.0734319
0.0017309
0.0737018
0.00145584
0.0727059
0.00117142
0.0716833
0.000891433
0.0708837
0.000613111
0.0702576
0.000333675
0.0697411
5.20811e-05
0.0692974
-0.000231965
0.068905
-0.000518243
0.0685487
-0.00080603
0.068216
-0.00109413
0.0678968
-0.00138078
0.0675817
-0.00166352
0.0672624
-0.00193906
0.0669313
-0.00220327
0.0665815
-0.00245116
0.0662081
-0.00267785
0.0658111
-0.00288055
0.0654035
-0.00303827
0.0554959
-0.00316545
0.0460514
-0.00327417
0.0382475
-0.0033696
0.0317781
-0.00344981
0.0263993
0.0219147
-0.00350145
0.000135492
0.0134735
0.000569856
0.037847
0.00111484
0.0571529
0.00146646
0.0688007
0.00151905
0.0733793
0.00136883
0.073852
0.00114302
0.0729317
0.000905461
0.0719208
0.000669849
0.0711194
0.000434273
0.0704931
0.000196144
0.0699792
-4.57739e-05
0.0695394
-0.000291998
0.0691513
-0.00054265
0.0687993
-0.000797477
0.0684709
-0.00105585
0.0681551
-0.00131664
0.0678425
-0.00157812
0.0675239
-0.00183779
0.0671909
-0.00209222
0.066836
-0.00233695
0.0664528
-0.00256682
0.066041
-0.00277678
0.0656135
-0.00293934
0.0556584
-0.00306686
0.046179
-0.00317684
0.0383575
-0.0032839
0.0318851
-0.00340619
0.0265216
0.0220636
-0.00355513
0.000104126
0.0133694
0.000443345
0.0375078
0.000878133
0.0567181
0.0011675
0.0685114
0.00121623
0.0733305
0.00109522
0.0739731
0.000908384
0.0731185
0.000710242
0.072119
0.00051281
0.0713168
0.00031433
0.0706916
0.00011239
0.0701811
-9.42446e-05
0.069746
-0.000306209
0.0693632
-0.00052386
0.069017
-0.000747338
0.0686943
-0.000976493
0.0683843
-0.00121081
0.0680768
-0.00144928
0.0677623
-0.00169025
0.0674319
-0.00193131
0.067077
-0.00216919
0.0666907
-0.00239991
0.0662717
-0.00261824
0.0658318
-0.00278957
0.0558298
-0.0029148
0.0463042
-0.00300136
0.0384441
-0.00305949
0.0319433
-0.00310696
0.0265691
-0.00328073
0.0222374
0.000146191
0.0219826
0.000188453
0.0219851
0.000221764
0.021994
0.000252719
0.0219964
0.000277847
0.0220022
0.000298434
0.0220068
0.000315978
0.0220098
0.000327197
0.0220161
0.000336396
0.0220182
0.000340564
0.0220232
0.000341652
0.0220263
0.0003402
0.0220288
0.000334292
0.0220333
0.000326767
0.0220349
0.000315978
0.0220381
0.000302868
0.0220405
0.000288405
0.0220418
0.00027095
0.0220448
0.000252412
0.0220459
0.000232615
0.0220472
0.000211239
0.0220487
0.000189226
0.0220494
0.000166525
0.0220501
0.000143296
0.0220506
0.000119937
0.0220507
9.66159e-05
0.0220507
7.37204e-05
0.0220503
5.12446e-05
0.0220498
2.95109e-05
0.0220491
9.16056e-06
0.0220477
-1.03083e-05
0.0220468
-2.80632e-05
0.0220451
-4.38001e-05
0.0220431
-5.82869e-05
0.0220418
-6.94792e-05
0.0220385
-7.87044e-05
0.0220366
-8.56543e-05
0.0220343
-8.8431e-05
0.0220301
-8.94307e-05
0.0220284
-8.57576e-05
0.0220237
-7.89289e-05
0.0220205
-6.8979e-05
0.0220174
-5.32277e-05
0.0220116
-3.53197e-05
0.0220094
-1.06916e-05
0.0220027
1.73786e-05
0.0219993
5.02582e-05
0.0219945
8.94972e-05
0.0219881
0.0219856
0.000131237
0.000253497
0.0219377
0.000296007
0.0219426
0.000329785
0.0219603
0.000361428
0.0219648
0.000387477
0.0219762
0.000409214
0.021985
0.000428124
0.0219909
0.000440923
0.0220033
0.000451891
0.0220072
0.000458017
0.0220171
0.000461231
0.0220231
0.000462057
0.022028
0.000458578
0.0220367
0.000453603
0.0220399
0.000445484
0.0220463
0.000435146
0.0220508
0.000423535
0.0220534
0.000409019
0.0220593
0.000393473
0.0220614
0.000376713
0.0220639
0.000358415
0.022067
0.000339494
0.0220683
0.00031989
0.0220697
0.000299759
0.0220707
0.000279471
0.022071
0.000259185
0.022071
0.000239288
0.0220701
0.000219744
0.0220694
0.000200869
0.022068
0.000183303
0.0220653
0.000166514
0.0220636
0.000151333
0.0220603
0.000138051
0.0220564
0.000125871
0.022054
0.000116848
0.0220476
0.000109621
0.0220438
0.000104488
0.0220394
0.000103351
0.0220313
0.000103776
0.0220279
0.000108671
0.0220188
0.000116491
0.0220127
0.000127189
0.0220067
0.000143451
0.0219953
0.000161594
0.0219913
0.000186197
0.0219781
0.000213945
0.0219715
0.00024619
0.0219622
0.000284461
0.0219498
0.0219452
0.000324871
0.000330948
0.0218926
0.000373969
0.0218996
0.000408506
0.0219257
0.000441151
0.0219321
0.000468446
0.0219489
0.000491663
0.0219618
0.000512271
0.0219703
0.000526985
0.0219886
0.000540061
0.0219941
0.000548484
0.0220086
0.000554166
0.0220174
0.000557617
0.0220245
0.000556916
0.0220374
0.000554845
0.0220419
0.000549753
0.0220514
0.000542548
0.022058
0.000534156
0.0220618
0.000522946
0.0220705
0.000510765
0.0220736
0.000497418
0.0220773
0.000482576
0.0220819
0.000467128
0.0220837
0.000451006
0.0220858
0.000434355
0.0220874
0.000417524
0.0220878
0.000400663
0.0220878
0.000384149
0.0220867
0.000367925
0.0220856
0.000352296
0.0220836
0.000337895
0.0220797
0.000324164
0.0220773
0.000311932
0.0220725
0.000301474
0.0220668
0.000291972
0.0220635
0.000285485
0.0220541
0.000280625
0.0220487
0.000277678
0.0220424
0.000278546
0.0220304
0.000280763
0.0220257
0.000287244
0.0220123
0.000296419
0.0220035
0.000308227
0.0219949
0.000325357
0.0219782
0.000344089
0.0219726
0.000369014
0.0219532
0.000396783
0.0219438
0.000428741
0.0219303
0.000466404
0.0219122
0.0219058
0.000505841
0.000377545
0.0218466
0.000421584
0.0218555
0.000457369
0.0218899
0.000491507
0.021898
0.000520546
0.0219198
0.00054575
0.0219366
0.000568581
0.0219475
0.000585746
0.0219715
0.000601482
0.0219784
0.000612768
0.0219974
0.000621497
0.0220086
0.000628165
0.0220179
0.000630843
0.0220348
0.000632291
0.0220405
0.000630849
0.0220528
0.000627408
0.0220614
0.000622875
0.0220664
0.000615615
0.0220778
0.00060745
0.0220818
0.000598173
0.0220865
0.000587444
0.0220926
0.000576132
0.022095
0.000564154
0.0220978
0.000551647
0.0220999
0.000538936
0.0221005
0.00052616
0.0221006
0.000513687
0.0220991
0.000501437
0.0220978
0.000489703
0.0220953
0.000479112
0.0220903
0.00046908
0.0220874
0.00046043
0.0220812
0.000453424
0.0220738
0.000447221
0.0220697
0.000443882
0.0220574
0.000441995
0.0220506
0.000441832
0.0220425
0.000445297
0.0220269
0.000449892
0.0220211
0.000458538
0.0220037
0.000469643
0.0219924
0.000483133
0.0219814
0.000501699
0.0219596
0.000521589
0.0219527
0.000547405
0.0219274
0.000575765
0.0219154
0.000608007
0.021898
0.00064564
0.0218745
0.0218667
0.000684689
0.000389661
0.0217991
0.000435441
0.0218097
0.000473191
0.0218522
0.000509546
0.0218616
0.000541058
0.0218883
0.000568993
0.0219087
0.000594807
0.0219216
0.000615193
0.0219511
0.000634381
0.0219592
0.000649334
0.0219824
0.000661933
0.021996
0.000672659
0.0220071
0.000679566
0.0220279
0.000685403
0.0220346
0.000688491
0.0220497
0.000689707
0.0220602
0.000689941
0.0220661
0.000687542
0.0220802
0.000684317
0.022085
0.000680041
0.0220908
0.000674359
0.0220983
0.000668121
0.0221013
0.000661231
0.0221047
0.000653809
0.0221073
0.000646162
0.0221082
0.000638413
0.0221083
0.000630919
0.0221066
0.000623577
0.0221052
0.000616668
0.0221022
0.000610807
0.0220961
0.000605388
0.0220928
0.000601224
0.0220853
0.000598565
0.0220765
0.000596546
0.0220717
0.00059723
0.0220567
0.000599178
0.0220486
0.000602653
0.0220391
0.000609555
0.02202
0.000617359
0.0220133
0.000628992
0.021992
0.00064284
0.0219786
0.000658817
0.0219654
0.000679619
0.0219388
0.000701462
0.0219308
0.000728963
0.0218999
0.000758712
0.0218857
0.00079204
0.0218647
0.000830451
0.0218361
0.0218272
0.000869924
0.000363435
0.0217491
0.000411863
0.0217613
0.000452488
0.0218116
0.000491994
0.0218221
0.00052693
0.0218534
0.000558568
0.021877
0.000588362
0.0218919
0.000612989
0.0219264
0.000636677
0.0219355
0.000656365
0.0219627
0.000673929
0.0219785
0.000689831
0.0219912
0.000702107
0.0220156
0.000713493
0.0220233
0.000722291
0.0220409
0.00072936
0.0220532
0.000735574
0.0220599
0.000739263
0.0220765
0.000742216
0.0220821
0.000744189
0.0220888
0.00074481
0.0220977
0.000744909
0.0221012
0.000744371
0.0221052
0.000743301
0.0221084
0.000741984
0.0221095
0.000740525
0.0221098
0.000739266
0.0221079
0.000738084
0.0221064
0.000737241
0.0221031
0.00073734
0.022096
0.000737752
0.0220924
0.000739278
0.0220838
0.000742153
0.0220736
0.000745488
0.0220684
0.000751345
0.0220509
0.000758263
0.0220417
0.000766489
0.0220308
0.000777923
0.0220086
0.000790011
0.0220012
0.000805686
0.0219764
0.000823314
0.021961
0.000842797
0.0219459
0.000866837
0.0219148
0.000891618
0.0219061
0.000921777
0.0218697
0.000953871
0.0218536
0.00098923
0.0218293
0.00102935
0.021796
0.0217864
0.00107017
0.000294891
0.0216956
0.000347089
0.0217091
0.000391723
0.0217669
0.000435525
0.0217783
0.000475057
0.0218139
0.000511611
0.0218405
0.000546643
0.0218568
0.000576802
0.0218963
0.000606325
0.021906
0.00063212
0.0219369
0.000656054
0.0219545
0.000678575
0.0219687
0.00069769
0.0219965
0.000716127
0.0220048
0.000732162
0.0220249
0.000746638
0.0220387
0.000760411
0.0220461
0.000771781
0.0220651
0.000782525
0.0220713
0.000792376
0.022079
0.000800937
0.0220891
0.000809021
0.0220931
0.000816489
0.0220977
0.000823423
0.0221014
0.000830089
0.0221028
0.000836569
0.0221033
0.000843185
0.0221013
0.00084979
0.0220998
0.000856627
0.0220962
0.000864282
0.0220884
0.000872099
0.0220846
0.000880865
0.022075
0.000890798
0.0220637
0.000900982
0.0220582
0.000913479
0.0220384
0.000926798
0.0220284
0.000941171
0.0220165
0.0009585
0.0219913
0.000976196
0.0219835
0.000997203
0.0219553
0.00101986
0.0219383
0.00104406
0.0219217
0.00107252
0.0218863
0.00110138
0.0218772
0.00113531
0.0218358
0.00117083
0.021818
0.00120926
0.0217909
0.00125211
0.0217532
0.0217433
0.00129525
0.000179705
0.0216373
0.000236796
0.021652
0.00028666
0.0217171
0.000336191
0.0217288
0.00038184
0.0217682
0.000424854
0.0217975
0.000466684
0.021815
0.00050397
0.021859
0.000540978
0.021869
0.000574585
0.0219033
0.000606648
0.0219225
0.000637597
0.0219378
0.000665403
0.0219687
0.000692794
0.0219774
0.000718006
0.0219997
0.000741866
0.0220148
0.00076521
0.0220228
0.000786301
0.022044
0.000806904
0.0220507
0.000826721
0.0220592
0.000845327
0.0220705
0.000863514
0.0220749
0.000881113
0.0220801
0.000898181
0.0220844
0.000914956
0.0220861
0.000931492
0.0220868
0.000948091
0.0220847
0.000964571
0.0220833
0.000981153
0.0220797
0.000998402
0.0220711
0.00101563
0.0220673
0.0010336
0.0220571
0.00105252
0.0220448
0.00107143
0.0220393
0.0010924
0.0220174
0.0011139
0.0220069
0.00113614
0.0219942
0.00116103
0.0219664
0.00118594
0.0219586
0.00121382
0.0219275
0.00124299
0.0219091
0.00127333
0.0218914
0.00130757
0.0218521
0.00134181
0.021843
0.00138075
0.0217969
0.00142087
0.0217779
0.0014635
0.0217483
0.00151014
0.0217065
0.0216968
0.00155661
9.33193e-06
0.0215738
7.33166e-05
0.021588
0.000130792
0.0216596
0.000188234
0.0216713
0.000242025
0.0217144
0.000293359
0.0217461
0.000344025
0.0217643
0.000390574
0.0218125
0.00043724
0.0218223
0.00048084
0.0218597
0.000523251
0.0218801
0.000564903
0.0218961
0.000603732
0.0219298
0.000642467
0.0219387
0.000679301
0.0219628
0.000715042
0.0219791
0.000750505
0.0219873
0.000783906
0.0220106
0.000816996
0.0220176
0.000849442
0.0220267
0.000880782
0.0220392
0.000911781
0.0220439
0.000942234
0.0220497
0.000972164
0.0220544
0.00100177
0.0220565
0.00103108
0.0220575
0.00106036
0.0220554
0.00108939
0.0220543
0.00111836
0.0220507
0.00114779
0.0220417
0.00117697
0.0220382
0.00120664
0.0220274
0.00123697
0.0220144
0.00126696
0.0220093
0.00129867
0.0219857
0.00133053
0.021975
0.00136275
0.021962
0.00139721
0.0219319
0.00143124
0.0219246
0.00146782
0.0218909
0.00150523
0.0218717
0.00154333
0.0218533
0.00158488
0.0218106
0.00162591
0.0218019
0.00167119
0.0217516
0.00171715
0.021732
0.00176512
0.0217003
0.00181661
0.021655
0.0216461
0.00186736
-0.000215335
0.021502
-0.000143948
0.0215167
-7.90662e-05
0.0215947
-1.35186e-05
0.0216058
4.94642e-05
0.0216514
0.000111499
0.0216841
0.00017346
0.0217024
0.000231752
0.0217542
0.000290334
0.0217637
0.000346386
0.0218037
0.000401809
0.0218246
0.00045696
0.021841
0.000509696
0.0218771
0.000562752
0.0218856
0.00061427
0.0219113
0.000665036
0.0219283
0.000715838
0.0219365
0.000764838
0.0219616
0.000813769
0.0219687
0.00086225
0.0219782
0.000909776
0.0219916
0.000957071
0.0219966
0.00100388
0.0220029
0.00105019
0.0220081
0.00109616
0.0220105
0.00114174
0.0220119
0.00118718
0.02201
0.0012322
0.0220092
0.00127693
0.022006
0.00132188
0.0219967
0.00136626
0.0219938
0.00141079
0.0219829
0.00145558
0.0219697
0.00149959
0.0219653
0.00154488
0.0219404
0.00158982
0.0219301
0.00163456
0.0219173
0.00168103
0.0218854
0.00172647
0.0218792
0.00177388
0.0218435
0.0018215
0.0218241
0.00186918
0.0218056
0.00191971
0.02176
0.00196906
0.0217526
0.00202207
0.0216986
0.00207509
0.0216789
0.00212949
0.0216459
0.00218678
0.0215977
0.0215902
0.00224262
-0.000511242
0.0214214
-0.000429621
0.021435
-0.000353565
0.0215187
-0.00027609
0.0215283
-0.000200983
0.0215763
-0.000127133
0.0216102
-5.27823e-05
0.021628
1.86523e-05
0.0216827
9.2353e-05
0.02169
0.000164269
0.0217317
0.000236085
0.0217528
0.000308037
0.021769
0.000378144
0.021807
0.000449169
0.0218146
0.000519176
0.0218413
0.000588921
0.0218586
0.000659144
0.0218663
0.000727936
0.0218929
0.000797004
0.0218996
0.000865904
0.0219093
0.000934071
0.0219235
0.00100218
0.0219285
0.0010699
0.0219351
0.00113717
0.0219409
0.00120406
0.0219436
0.00127048
0.0219455
0.0013366
0.0219438
0.00140207
0.0219438
0.00146697
0.0219411
0.00153174
0.021932
0.00159551
0.02193
0.00165894
0.0219194
0.00172211
0.0219065
0.00178387
0.0219036
0.0018463
0.021878
0.00190766
0.0218687
0.00196809
0.0218569
0.0020295
0.021824
0.00208904
0.0218196
0.00214977
0.0217827
0.00220986
0.021764
0.00226912
0.0217464
0.00233043
0.0216987
0.00238965
0.0216934
0.00245171
0.0216365
0.00251291
0.0216177
0.00257464
0.0215842
0.00263845
0.0215339
0.0215288
0.00269988
-0.000891306
0.0213303
-0.000798187
0.0213419
-0.000709765
0.0214302
-0.000618869
0.0214374
-0.000529155
0.0214866
-0.000439239
0.0215203
-0.000347637
0.0215364
-0.000258025
0.0215931
-0.000166429
0.0215984
-7.59415e-05
0.0216413
1.54235e-05
0.0216615
0.000108323
0.0216761
0.000200145
0.0217152
0.000293642
0.0217211
0.000386906
0.021748
0.000480617
0.0217649
0.000575476
0.0217714
0.000669474
0.0217989
0.000764257
0.0218048
0.00085929
0.0218143
0.000953928
0.0218288
0.00104876
0.0218337
0.00114338
0.0218405
0.00123763
0.0218466
0.00133149
0.0218497
0.00142477
0.0218522
0.00151757
0.021851
0.0016094
0.0218519
0.00170025
0.0218502
0.00179051
0.0218417
0.00187915
0.0218414
0.00196678
0.0218318
0.00205339
0.0218199
0.00213771
0.0218192
0.00222182
0.0217938
0.00230385
0.0217867
0.00238386
0.0217768
0.00246381
0.0217441
0.00254069
0.0217427
0.00261762
0.0217058
0.0026927
0.0216889
0.00276572
0.0216733
0.00283963
0.0216248
0.00291017
0.0216228
0.00298245
0.0215642
0.00305266
0.0215475
0.00312223
0.0215146
0.00319279
0.0214634
0.0214618
0.00325978
-0.00137752
0.0212279
-0.00127152
0.0212359
-0.00116885
0.0213276
-0.00106219
0.0213308
-0.000955386
0.0213798
-0.000847078
0.021412
-0.00073572
0.0214251
-0.000625048
0.0214824
-0.000510492
0.0214839
-0.000395603
0.0215264
-0.000278513
0.0215444
-0.000159118
0.0215567
-3.96622e-05
0.0215957
8.25756e-05
0.0215989
0.000205307
0.0216253
0.000329452
0.0216407
0.000455814
0.0216451
0.000582105
0.0216726
0.000709944
0.021677
0.000838657
0.0216856
0.000967488
0.0217
0.00109691
0.0217043
0.0012264
0.021711
0.00135568
0.0217173
0.00148459
0.0217208
0.0016128
0.021724
0.0017403
0.0217235
0.00186642
0.0217258
0.001991
0.0217256
0.00211433
0.0217184
0.00223517
0.0217205
0.00235404
0.0217129
0.0024708
0.0217031
0.00258397
0.0217061
0.00269565
0.0216822
0.00280377
0.0216786
0.00290829
0.0216723
0.00301121
0.0216412
0.00310928
0.0216447
0.00320577
0.0216093
0.00329863
0.0215961
0.00338764
0.0215843
0.00347588
0.0215366
0.00355893
0.0215398
0.00364214
0.021481
0.00372159
0.0214681
0.00379882
0.0214374
0.00387557
0.0213866
0.0213903
0.00394713
-0.00200064
0.0211149
-0.00188166
0.0211169
-0.00176404
0.0212099
-0.00164014
0.0212069
-0.0015139
0.0212536
-0.00138388
0.021282
-0.00124851
0.0212897
-0.00111172
0.0213457
-0.000968892
0.021341
-0.000823809
0.0213813
-0.000674635
0.0213952
-0.000521225
0.0214033
-0.000366201
0.0214407
-0.000206837
0.0214395
-4.54066e-05
0.0214639
0.000118315
0.021477
0.000284724
0.0214787
0.000452816
0.0215045
0.000623392
0.0215064
0.000795736
0.0215133
0.000969001
0.0215267
0.0011435
0.0215298
0.00131856
0.021536
0.00149375
0.0215421
0.00166867
0.0215459
0.00184283
0.0215498
0.00201602
0.0215503
0.00218729
0.0215546
0.00235629
0.0215566
0.00252312
0.0215515
0.00268621
0.0215575
0.00284594
0.0215532
0.00300196
0.0215471
0.0031525
0.0215555
0.00329962
0.021535
0.00344097
0.0215372
0.00357637
0.0215369
0.00370783
0.0215097
0.00383184
0.0215207
0.00395175
0.0214894
0.00406539
0.0214824
0.0041725
0.0214772
0.00427637
0.0214327
0.00437236
0.0214438
0.00446619
0.0213872
0.00455383
0.0213804
0.00463705
0.0213542
0.00471776
0.0213059
0.0213169
0.00479115
-0.00280428
0.020994
-0.00267378
0.0209864
-0.00254186
0.021078
-0.00240027
0.0210653
-0.00225285
0.0211062
-0.0020978
0.021127
-0.00193345
0.0211253
-0.00176407
0.0211763
-0.00158512
0.0211621
-0.00140089
0.0211971
-0.00120984
0.0212041
-0.00101214
0.0212056
-0.000810725
0.0212393
-0.00060306
0.0212318
-0.000391686
0.0212525
-0.000175961
0.0212613
4.44963e-05
0.0212582
0.000265552
0.0212834
0.000491458
0.0212805
0.000720562
0.0212841
0.000951882
0.0212954
0.00118553
0.0212961
0.00142065
0.0213008
0.00165662
0.0213062
0.00189274
0.0213098
0.00212819
0.0213144
0.00236253
0.021316
0.00259432
0.0213228
0.00282287
0.0213281
0.00304797
0.0213264
0.00326753
0.0213379
0.00348167
0.0213391
0.00368968
0.0213391
0.00388932
0.0213559
0.00408263
0.0213417
0.00426678
0.0213531
0.00444142
0.0213623
0.00460855
0.0213426
0.00476423
0.021365
0.00491203
0.0213416
0.00504951
0.021345
0.0051764
0.0213503
0.00529625
0.0213128
0.00540419
0.0213358
0.0055065
0.0212849
0.0055991
0.0212879
0.00568412
0.0212691
0.00576388
0.0212262
0.0212473
0.00583345
-0.00319139
0.0208971
-0.00308348
0.0208785
-0.00296949
0.020964
-0.00283988
0.0209357
-0.00269758
0.0209639
-0.00254158
0.020971
-0.00237153
0.0209553
-0.00219244
0.0209972
-0.00200151
0.0209712
-0.00180342
0.020999
-0.00159751
0.0209982
-0.00138444
0.0209925
-0.001167
0.0210218
-0.000943108
0.021008
-0.000714985
0.0210244
-0.000482214
0.0210285
-0.000244229
0.0210202
-2.21485e-06
0.0210414
0.000242092
0.0210362
0.0004919
0.0210343
0.000745041
0.0210423
0.00100173
0.0210394
0.00126113
0.0210414
0.00152256
0.0210447
0.00178505
0.0210473
0.00204755
0.0210519
0.00230929
0.0210543
0.00256847
0.0210636
0.00282401
0.0210726
0.00307527
0.0210752
0.00331982
0.0210933
0.00355734
0.0211016
0.00378681
0.0211096
0.00400576
0.0211369
0.00421584
0.0211316
0.00441416
0.0211547
0.00460022
0.0211762
0.00477577
0.021167
0.00493706
0.0212037
0.00508733
0.0211913
0.00522428
0.021208
0.00534763
0.021227
0.00546055
0.0211999
0.00555857
0.0212378
0.0056474
0.0211961
0.00572347
0.0212118
0.00578909
0.0212035
0.00584698
0.0211683
0.0212008
0.00589348
-0.00342666
0.0208224
-0.00335076
0.0208026
-0.0032652
0.0208785
-0.0031532
0.0208236
-0.00301683
0.0208275
-0.00285803
0.0208122
-0.00268009
0.0207773
-0.00249043
0.0208075
-0.00228874
0.0207695
-0.00208043
0.0207907
-0.00186561
0.0207834
-0.0016451
0.020772
-0.00142131
0.020798