/*--------------------------------*- C++ -*----------------------------------*\
| =========                 |                                                 |
| \\      /  F ield         | OpenFOAM: The Open Source CFD Toolbox           |
|  \\    /   O peration     | Version:  2312                                  |
|   \\  /    A nd           | Website:  www.openfoam.com                      |
|    \\/     M anipulation  |                                                 |
\*---------------------------------------------------------------------------*/
FoamFile
{
    version     2.0;
    format      ascii;
    arch        "LSB;label=32;scalar=64";
    class       volVectorField;
    location    "39.016573964051716";
    object      U;
}
// * * * * * * * * * * * * * * * * * * * * * * * * * * * * * * * * * * * * * //

dimensions      [0 1 -1 0 0 0 0];

internalField   nonuniform List<vector> 
21039
(
(0.91379 0.0474806 0)
(1.02605 0.0665153 0)
(1.00449 0.0294796 0)
(1.00177 0.0189137 0)
(1.00121 0.0139076 0)
(1.0008 0.0105298 0)
(1.00055 0.00820725 0)
(1.0004 0.00656859 0)
(1.0003 0.00536269 0)
(1.00023 0.00444569 0)
(1.00018 0.00373214 0)
(1.00015 0.00316702 0)
(1.00012 0.00271333 0)
(1.00009 0.0023455 0)
(1.00008 0.00204541 0)
(1.00006 0.00179991 0)
(1.00005 0.00159931 0)
(1.00004 0.00143627 0)
(1.00003 0.0013051 0)
(1.00002 0.00120121 0)
(1.00002 0.00112067 0)
(1.00001 0.00106146 0)
(1.00001 0.00102519 0)
(1 0.000992652 0)
(1.00001 0.000968254 0)
(1.00001 0.000948962 0)
(1.00001 0.00093055 0)
(1.00001 0.000902972 0)
(1.00001 0.000844576 0)
(0.794618 0.0730981 0)
(1.07447 0.121701 0)
(1.03987 0.0708208 0)
(1.0181 0.049727 0)
(1.01128 0.0383106 0)
(1.00763 0.0295319 0)
(1.00537 0.0232397 0)
(1.00395 0.0186685 0)
(1.00299 0.0152176 0)
(1.00232 0.0125461 0)
(1.00184 0.0104373 0)
(1.00147 0.00874456 0)
(1.0012 0.0073671 0)
(1.00098 0.0062345 0)
(1.0008 0.00529651 0)
(1.00066 0.00451654 0)
(1.00054 0.00386761 0)
(1.00044 0.00332944 0)
(1.00035 0.00288663 0)
(1.00028 0.00252711 0)
(1.00021 0.00224087 0)
(1.00016 0.00202146 0)
(1.00011 0.00187288 0)
(1.00008 0.00176337 0)
(1.00007 0.0016976 0)
(1.00007 0.00165803 0)
(1.00008 0.00163072 0)
(1.00009 0.00159641 0)
(1.0001 0.00152549 0)
(0.667376 0.0572896 0)
(1.08299 0.124803 0)
(1.08432 0.0902724 0)
(1.04627 0.0676827 0)
(1.02904 0.0541636 0)
(1.02023 0.0432049 0)
(1.01467 0.0349029 0)
(1.01097 0.0285245 0)
(1.00842 0.0234976 0)
(1.0066 0.0194906 0)
(1.00527 0.016258 0)
(1.00427 0.0136173 0)
(1.00349 0.0114373 0)
(1.00289 0.00962255 0)
(1.00239 0.00810314 0)
(1.00199 0.00682706 0)
(1.00165 0.0057554 0)
(1.00136 0.00485876 0)
(1.00111 0.00411474 0)
(1.00089 0.00350605 0)
(1.00069 0.00301856 0)
(1.00052 0.00264191 0)
(1.00037 0.00238187 0)
(1.00027 0.00220181 0)
(1.00021 0.00210083 0)
(1.00018 0.00204471 0)
(1.00018 0.00200996 0)
(1.00019 0.00197163 0)
(1.0002 0.00189678 0)
(0.541073 0.0352665 0)
(1.05074 0.110818 0)
(1.11586 0.0969907 0)
(1.07607 0.0762699 0)
(1.0492 0.0621048 0)
(1.03524 0.0509944 0)
(1.02639 0.0423189 0)
(1.02023 0.0352882 0)
(1.01581 0.0295004 0)
(1.01257 0.02473 0)
(1.01015 0.0207727 0)
(1.0083 0.0174645 0)
(1.00686 0.0146811 0)
(1.00571 0.0123273 0)
(1.00478 0.0103299 0)
(1.004 0.00863292 0)
(1.00334 0.00719348 0)
(1.00278 0.00597862 0)
(1.00228 0.00496296 0)
(1.00184 0.004127 0)
(1.00145 0.00345502 0)
(1.00109 0.00293434 0)
(1.00077 0.00257223 0)
(1.00054 0.00233007 0)
(1.0004 0.00219879 0)
(1.00032 0.00212893 0)
(1.0003 0.0020887 0)
(1.0003 0.0020483 0)
(1.00031 0.00196967 0)
(0.444261 0.0186677 0)
(0.997739 0.0918587 0)
(1.12895 0.0956172 0)
(1.10137 0.0794382 0)
(1.06819 0.0653852 0)
(1.04973 0.0546986 0)
(1.03823 0.0463015 0)
(1.03002 0.039252 0)
(1.02394 0.0332622 0)
(1.01936 0.0281827 0)
(1.01585 0.0238548 0)
(1.01312 0.0201507 0)
(1.01095 0.0169704 0)
(1.00919 0.0142335 0)
(1.00775 0.0118759 0)
(1.00653 0.00984688 0)
(1.0055 0.00810663 0)
(1.0046 0.00662402 0)
(1.0038 0.00537484 0)
(1.00308 0.00434045 0)
(1.00243 0.00350607 0)
(1.00183 0.00285881 0)
(1.00129 0.00240781 0)
(1.00088 0.00211442 0)
(1.00062 0.0019607 0)
(1.00047 0.00188364 0)
(1.00041 0.00184437 0)
(1.0004 0.00180841 0)
(1.00039 0.00173 0)
(0.378735 0.00810276 0)
(0.93974 0.071827 0)
(1.12692 0.0882451 0)
(1.12076 0.078561 0)
(1.08545 0.0657941 0)
(1.06303 0.0557881 0)
(1.04927 0.0478956 0)
(1.03947 0.0411163 0)
(1.03206 0.0352181 0)
(1.02635 0.0300967 0)
(1.02189 0.0256319 0)
(1.01833 0.0217297 0)
(1.01547 0.0183152 0)
(1.01311 0.0153266 0)
(1.01114 0.012713 0)
(1.00946 0.0104339 0)
(1.00801 0.00845653 0)
(1.00673 0.00675544 0)
(1.00559 0.00531063 0)
(1.00455 0.00410694 0)
(1.00359 0.00313276 0)
(1.00271 0.00237698 0)
(1.0019 0.00185176 0)
(1.00127 0.00151984 0)
(1.00086 0.00135398 0)
(1.00061 0.00127852 0)
(1.0005 0.00124844 0)
(1.00046 0.00122562 0)
(1.00043 0.00115481 0)
(0.333542 0.00233316 0)
(0.883507 0.0538177 0)
(1.11402 0.0777782 0)
(1.13381 0.0747026 0)
(1.10085 0.0641225 0)
(1.07532 0.0550131 0)
(1.05949 0.0477519 0)
(1.04839 0.0414127 0)
(1.03991 0.0357746 0)
(1.03328 0.0307663 0)
(1.028 0.0263074 0)
(1.02373 0.0223356 0)
(1.02023 0.0187992 0)
(1.0173 0.0156541 0)
(1.01483 0.0128638 0)
(1.01269 0.0103991 0)
(1.01081 0.00823644 0)
(1.00914 0.00635761 0)
(1.00762 0.00474891 0)
(1.00622 0.00340045 0)
(1.00492 0.00230566 0)
(1.0037 0.00145724 0)
(1.00257 0.000870973 0)
(1.00169 0.000511525 0)
(1.0011 0.000343412 0)
(1.00074 0.00027616 0)
(1.00055 0.000259882 0)
(1.00047 0.000261351 0)
(1.0004 0.000224074 0)
(0.301273 -0.000195102 0)
(0.831856 0.0395471 0)
(1.0939 0.066856 0)
(1.14056 0.0692252 0)
(1.11388 0.0611475 0)
(1.08658 0.0530095 0)
(1.06894 0.0463815 0)
(1.05673 0.0405419 0)
(1.04742 0.0352475 0)
(1.04003 0.0304402 0)
(1.03407 0.0260733 0)
(1.02919 0.0221125 0)
(1.02512 0.0185268 0)
(1.02169 0.0152889 0)
(1.01873 0.0123764 0)
(1.01615 0.00977131 0)
(1.01385 0.00745975 0)
(1.01177 0.00543178 0)
(1.00986 0.00368096 0)
(1.00808 0.00220396 0)
(1.0064 0.00100048 0)
(1.0048 6.77908e-05 0)
(1.00331 -0.000573058 0)
(1.00213 -0.000952665 0)
(1.00132 -0.00111573 0)
(1.00082 -0.00116277 0)
(1.00055 -0.00115204 0)
(1.00041 -0.00113145 0)
(1.00028 -0.00117136 0)
(0.278333 -0.00099078 0)
(0.786283 0.0290517 0)
(1.06982 0.0568423 0)
(1.14183 0.0631765 0)
(1.12427 0.0575499 0)
(1.09671 0.0503657 0)
(1.07761 0.0442732 0)
(1.06449 0.0388836 0)
(1.05451 0.0339317 0)
(1.04654 0.0293501 0)
(1.04003 0.0251122 0)
(1.03464 0.021203 0)
(1.03009 0.0176079 0)
(1.02619 0.0143139 0)
(1.0228 0.011311 0)
(1.0198 0.00859169 0)
(1.01709 0.00615157 0)
(1.0146 0.00398911 0)
(1.01229 0.00210568 0)
(1.0101 0.000504957 0)
(1.00801 -0.000807343 0)
(1.006 -0.00182625 0)
(1.00411 -0.00252257 0)
(1.00258 -0.00292214 0)
(1.00152 -0.00307844 0)
(1.00084 -0.00310108 0)
(1.00045 -0.0030542 0)
(1.00022 -0.00299598 0)
(1.00002 -0.00301792 0)
(0.261933 -0.00103666 0)
(0.747164 0.021624 0)
(1.04433 0.0481555 0)
(1.13894 0.0571238 0)
(1.13215 0.0537228 0)
(1.10577 0.0474581 0)
(1.0856 0.0417926 0)
(1.0717 0.0367557 0)
(1.06121 0.0320914 0)
(1.05279 0.0277124 0)
(1.04585 0.0235992 0)
(1.04004 0.0197478 0)
(1.03508 0.0161543 0)
(1.03079 0.0128164 0)
(1.027 0.00973378 0)
(1.02361 0.00690813 0)
(1.0205 0.00434341 0)
(1.01762 0.0020462 0)
(1.0149 2.48416e-05 0)
(1.01229 -0.00171033 0)
(1.00977 -0.00314479 0)
(1.00731 -0.00426434 0)
(1.00497 -0.00503061 0)
(1.00305 -0.00546286 0)
(1.00168 -0.00561987 0)
(1.00079 -0.00562113 0)
(1.00024 -0.00553765 0)
(0.999886 -0.00543591 0)
(0.999572 -0.00542697 0)
(0.249751 -0.000818767 0)
(0.713994 0.0164751 0)
(1.01903 0.0408179 0)
(1.13313 0.0513524 0)
(1.13787 0.0498567 0)
(1.11389 0.0444688 0)
(1.09308 0.0391514 0)
(1.07849 0.0343724 0)
(1.06757 0.029925 0)
(1.05881 0.0257032 0)
(1.05154 0.0216861 0)
(1.04539 0.0178747 0)
(1.0401 0.0142717 0)
(1.03547 0.010882 0)
(1.03134 0.00771209 0)
(1.02758 0.00477092 0)
(1.02411 0.00206963 0)
(1.02084 -0.000379327 0)
(1.01772 -0.00256103 0)
(1.01468 -0.00445622 0)
(1.0117 -0.00604137 0)
(1.00877 -0.00729335 0)
(1.00592 -0.00816283 0)
(1.00355 -0.00865807 0)
(1.00183 -0.00883811 0)
(1.00067 -0.00883252 0)
(0.999914 -0.00872036 0)
(0.999389 -0.00857778 0)
(0.998917 -0.0085363 0)
(0.240262 -0.000560012 0)
(0.685929 0.0129192 0)
(0.994812 0.0347053 0)
(1.12535 0.0460074 0)
(1.14175 0.0460598 0)
(1.12117 0.0414882 0)
(1.10017 0.0364668 0)
(1.085 0.0318673 0)
(1.07371 0.027568 0)
(1.06467 0.023452 0)
(1.05715 0.0194925 0)
(1.05074 0.015691 0)
(1.04518 0.0120537 0)
(1.04026 0.0085896 0)
(1.03583 0.00531033 0)
(1.03175 0.00222989 0)
(1.02794 -0.000636381 0)
(1.02431 -0.00327061 0)
(1.02079 -0.00564991 0)
(1.01732 -0.00774703 0)
(1.01387 -0.0095303 0)
(1.01042 -0.0109673 0)
(1.00703 -0.011997 0)
(1.00416 -0.0126104 0)
(1.00203 -0.0128589 0)
(1.00054 -0.0128805 0)
(0.999507 -0.0127626 0)
(0.998743 -0.0125929 0)
(0.998052 -0.0125248 0)
(0.232592 -0.000350499 0)
(0.662133 0.0104185 0)
(0.972145 0.0296366 0)
(1.11635 0.0411455 0)
(1.1441 0.0424017 0)
(1.12768 0.0385719 0)
(1.10696 0.0338115 0)
(1.09132 0.0293298 0)
(1.07971 0.0251169 0)
(1.07045 0.0210564 0)
(1.06273 0.0171129 0)
(1.05612 0.0132855 0)
(1.05035 0.00958128 0)
(1.0452 0.00601125 0)
(1.04051 0.00258972 0)
(1.03616 -0.000667134 0)
(1.03205 -0.00374056 0)
(1.02808 -0.00660663 0)
(1.02418 -0.00923593 0)
(1.02028 -0.0115945 0)
(1.01635 -0.0136434 0)
(1.01236 -0.0153419 0)
(1.00839 -0.0166175 0)
(1.00498 -0.0174381 0)
(1.00238 -0.0178347 0)
(1.00048 -0.0179486 0)
(0.999099 -0.017874 0)
(0.998008 -0.0177118 0)
(0.997016 -0.017637 0)
(0.226228 -0.000208476 0)
(0.641874 0.00859796 0)
(0.951233 0.0254254 0)
(1.10668 0.0367651 0)
(1.14521 0.0389227 0)
(1.13351 0.035756 0)
(1.1135 0.0312339 0)
(1.09754 0.0268252 0)
(1.08565 0.0226469 0)
(1.07622 0.0185957 0)
(1.06836 0.0146278 0)
(1.06161 0.0107372 0)
(1.05568 0.00692953 0)
(1.05035 0.00321578 0)
(1.04547 -0.000389936 0)
(1.04089 -0.00387069 0)
(1.03652 -0.00720429 0)
(1.03224 -0.0103621 0)
(1.02799 -0.0133097 0)
(1.02368 -0.0160074 0)
(1.01928 -0.0184103 0)
(1.01475 -0.0204714 0)
(1.01018 -0.02211 0)
(1.00619 -0.0232672 0)
(1.00307 -0.0239381 0)
(1.00069 -0.0242572 0)
(0.998851 -0.0243191 0)
(0.997319 -0.0242365 0)
(0.995911 -0.0242031 0)
(0.220843 -0.000123864 0)
(0.624535 0.00722657 0)
(0.932116 0.0219355 0)
(1.09672 0.0328652 0)
(1.14529 0.0356586 0)
(1.13867 0.0330647 0)
(1.11979 0.0287615 0)
(1.10367 0.0243958 0)
(1.09154 0.0202124 0)
(1.08198 0.0161317 0)
(1.07402 0.0121031 0)
(1.06718 0.00811392 0)
(1.06115 0.00416656 0)
(1.0557 0.000269305 0)
(1.05068 -0.00356591 0)
(1.04594 -0.00732183 0)
(1.04135 -0.0109741 0)
(1.03682 -0.0144913 0)
(1.03224 -0.0178349 0)
(1.02755 -0.0209599 0)
(1.02269 -0.0238166 0)
(1.01764 -0.0263546 0)
(1.0125 -0.0284919 0)
(1.00796 -0.030154 0)
(1.00435 -0.0312909 0)
(1.00148 -0.0320154 0)
(0.999112 -0.0324021 0)
(0.997018 -0.0325554 0)
(0.995056 -0.0326648 0)
(0.216596 -6.70827e-05 0)
(0.610703 0.00624468 0)
(0.916047 0.0192368 0)
(1.0876 0.0296591 0)
(1.14476 0.0328613 0)
(1.14299 0.0307297 0)
(1.12547 0.0266194 0)
(1.10936 0.0222809 0)
(1.09706 0.0180716 0)
(1.08741 0.0139401 0)
(1.07942 0.00983023 0)
(1.07255 0.00572185 0)
(1.06649 0.00161197 0)
(1.061 -0.00249591 0)
(1.05592 -0.00659345 0)
(1.05108 -0.010665 0)
(1.04637 -0.014687 0)
(1.04166 -0.0186277 0)
(1.03685 -0.0224461 0)
(1.03185 -0.0260915 0)
(1.0266 -0.0295064 0)
(1.02108 -0.032633 0)
(1.01545 -0.0353837 0)
(1.01048 -0.0376745 0)
(1.0065 -0.0394342 0)
(1.00325 -0.0407765 0)
(1.00039 -0.0417439 0)
(0.997644 -0.042383 0)
(0.994922 -0.0428144 0)
(0.21345 -3.33756e-05 0)
(0.600499 0.00557725 0)
(0.903709 0.0173005 0)
(1.08012 0.0272517 0)
(1.14394 0.0307057 0)
(1.14629 0.0289225 0)
(1.13012 0.0249673 0)
(1.11412 0.0206478 0)
(1.10174 0.0164111 0)
(1.09205 0.01223 0)
(1.08406 0.0080428 0)
(1.07722 0.00382131 0)
(1.07118 -0.000443644 0)
(1.06572 -0.00475435 0)
(1.06065 -0.00910721 0)
(1.0558 -0.0134909 0)
(1.05105 -0.0178862 0)
(1.04626 -0.0222647 0)
(1.04132 -0.0265867 0)
(1.03612 -0.0307988 0)
(1.0306 -0.0348352 0)
(1.02474 -0.0386247 0)
(1.01872 -0.0420526 0)
(1.01344 -0.0449945 0)
(1.00929 -0.0473771 0)
(1.00595 -0.0493964 0)
(1.00295 -0.0511772 0)
(0.999907 -0.0527516 0)
(0.99671 -0.0539574 0)
(0.211004 1.40087e-05 0)
(0.592647 0.00512345 0)
(0.893936 0.0158947 0)
(1.07385 0.02543 0)
(1.14297 0.0290421 0)
(1.14884 0.0275315 0)
(1.13394 0.0237128 0)
(1.11812 0.0194206 0)
(1.10568 0.0151697 0)
(1.09598 0.0109527 0)
(1.08802 0.00670339 0)
(1.08123 0.00238658 0)
(1.07525 -0.00201281 0)
(1.06985 -0.00650279 0)
(1.06484 -0.0110859 0)
(1.06004 -0.0157573 0)
(1.05532 -0.0205051 0)
(1.05053 -0.0253079 0)
(1.04554 -0.0301318 0)
(1.04025 -0.0349265 0)
(1.03456 -0.0396231 0)
(1.02845 -0.0441398 0)
(1.02211 -0.0483186 0)
(1.01656 -0.051914 0)
(1.01227 -0.0547663 0)
(1.00901 -0.0571414 0)
(1.00637 -0.0594103 0)
(1.00407 -0.0619564 0)
(1.00148 -0.064219 0)
(0.209425 5.96889e-06 0)
(0.587212 0.00476923 0)
(0.886945 0.014893 0)
(1.06927 0.0241454 0)
(1.14226 0.0278609 0)
(1.15083 0.0265146 0)
(1.13697 0.0227695 0)
(1.12134 0.0184942 0)
(1.1089 0.0142419 0)
(1.09922 0.0100056 0)
(1.09132 0.00571055 0)
(1.08461 0.00131626 0)
(1.07872 -0.00319649 0)
(1.07342 -0.00784095 0)
(1.0685 -0.0126265 0)
(1.0638 -0.0175566 0)
(1.05917 -0.0226286 0)
(1.05446 -0.0278316 0)
(1.04953 -0.033142 0)
(1.04427 -0.0385197 0)
(1.03856 -0.0439041 0)
(1.03239 -0.0492249 0)
(1.02596 -0.0543136 0)
(1.02033 -0.0587708 0)
(1.01598 -0.0622135 0)
(1.01276 -0.0646863 0)
(1.01038 -0.066219 0)
(1.00882 -0.0675298 0)
(1.00903 -0.0724814 0)
(1.00002 0.000853729 0)
(1.00001 0.000855424 0)
(1.00001 0.000852056 0)
(1.00001 0.000849569 1.02918e-21)
(1.00001 0.000849073 5.13146e-21)
(1.00001 0.000850388 -9.23248e-21)
(1.00001 0.000853345 5.12688e-21)
(1.00001 0.000857836 -4.0834e-21)
(1 0.0008637 5.22431e-22)
(1 0.000870958 4.08079e-21)
(1 0.000879439 0)
(1 0.000889128 -4.5604e-21)
(0.999999 0.000899912 5.18723e-22)
(0.999998 0.00091166 4.04816e-21)
(0.999997 0.000924355 0)
(0.999995 0.000937833 0)
(0.999994 0.000952048 -4.00755e-21)
(0.999993 0.000966873 4.01008e-21)
(0.999992 0.000982146 0)
(0.999991 0.000997863 -1.98791e-21)
(0.99999 0.00101385 2.1129e-21)
(0.999989 0.00102998 1.85256e-21)
(0.999988 0.00104621 -2.96204e-21)
(0.999988 0.00106237 9.54585e-22)
(0.999987 0.00107836 3.05847e-23)
(0.999986 0.00109411 -6.1129e-23)
(0.999986 0.00110945 8.50164e-22)
(0.999985 0.00112429 -9.71801e-22)
(0.999985 0.00113862 0)
(0.999985 0.00115218 0)
(0.999985 0.00116488 -2.39711e-22)
(0.999985 0.00117678 -2.38688e-22)
(0.999985 0.00118777 -4.03208e-21)
(0.999985 0.0011978 3.31851e-21)
(0.999986 0.00120675 -4.23135e-21)
(0.999986 0.0012146 4.2259e-21)
(0.999987 0.00122131 -3.25864e-21)
(0.999987 0.00122677 3.25733e-21)
(0.999988 0.00123098 4.62106e-22)
(0.999989 0.00123384 4.59844e-22)
(0.99999 0.00123535 -4.57551e-22)
(0.999992 0.00123547 0)
(0.999993 0.0012341 0)
(0.999994 0.00123131 0)
(0.999996 0.00122698 0)
(0.999997 0.00122133 0)
(0.999999 0.00121415 1.77156e-21)
(1 0.00120464 -1.76853e-21)
(1 0.00118876 0)
(1.00009 0.00153262 0)
(1.00008 0.0015332 2.07721e-21)
(1.00006 0.00153065 -2.06962e-21)
(1.00005 0.00153195 -1.0327e-21)
(1.00003 0.00153831 -1.03288e-21)
(1.00002 0.00154912 -3.08777e-21)
(1 0.00156409 5.15474e-21)
(0.999991 0.00158319 0)
(0.999979 0.00160589 -5.12777e-22)
(0.999967 0.00163234 -1.02439e-21)
(0.999955 0.00166205 0)
(0.999944 0.00169491 5.09709e-22)
(0.999934 0.00173075 -4.57196e-21)
(0.999924 0.00176911 4.06695e-21)
(0.999915 0.00181 0)
(0.999907 0.00185299 1.01126e-21)
(0.999899 0.00189786 0)
(0.999892 0.00194448 0)
(0.999886 0.00199232 0)
(0.99988 0.00204134 -1.99654e-21)
(0.999876 0.00209122 1.87269e-21)
(0.999872 0.00214159 -1.24495e-22)
(0.999869 0.00219231 0)
(0.999866 0.00224304 -4.62181e-22)
(0.999865 0.00229349 4.85403e-22)
(0.999864 0.00234347 9.20184e-23)
(0.999864 0.00239266 1.22174e-22)
(0.999865 0.00244079 0)
(0.999867 0.00248768 -1.93726e-21)
(0.999869 0.00253303 1.93683e-21)
(0.999872 0.00257661 -3.60328e-21)
(0.999876 0.00261821 7.91029e-21)
(0.999881 0.00265758 -3.58775e-21)
(0.999887 0.00269453 4.75243e-22)
(0.999893 0.00272878 4.73183e-22)
(0.9999 0.0027602 4.71509e-22)
(0.999908 0.00278857 -4.68873e-22)
(0.999916 0.00281363 4.19359e-21)
(0.999925 0.00283533 -3.25841e-21)
(0.999935 0.00285333 -1.38688e-21)
(0.999946 0.00286759 5.0525e-21)
(0.999957 0.00287792 -3.66819e-21)
(0.999969 0.00288405 -1.82128e-21)
(0.999982 0.00288604 3.61663e-21)
(0.999995 0.00288346 -7.21032e-21)
(1.00001 0.00287653 3.59271e-21)
(1.00002 0.00286505 1.78003e-21)
(1.00004 0.00284819 -4.0587e-24)
(1.00005 0.00282093 0)
(1.00018 0.00189432 3.12615e-21)
(1.00014 0.00189379 -1.0438e-21)
(1.0001 0.00189563 -4.15749e-21)
(1.00006 0.00190417 2.07221e-21)
(1.00002 0.00192065 -2.07169e-21)
(0.999979 0.00194425 0)
(0.999942 0.00197464 -2.061e-21)
(0.999906 0.00201194 -6.17067e-21)
(0.999872 0.00205504 6.17173e-21)
(0.999839 0.0021044 1.02433e-21)
(0.999808 0.00215906 0)
(0.99978 0.00221888 -6.12229e-21)
(0.999753 0.00228372 1.20824e-23)
(0.999728 0.00235261 4.07145e-21)
(0.999705 0.00242572 0)
(0.999684 0.00250229 -1.01059e-21)
(0.999665 0.00258193 -1.01042e-21)
(0.999648 0.00266461 0)
(0.999634 0.00274926 -1.00494e-21)
(0.999621 0.00283586 -1.99802e-21)
(0.999611 0.00292403 1.99862e-21)
(0.999603 0.00301301 -2.49567e-22)
(0.999598 0.00310263 -2.48221e-22)
(0.999594 0.00319244 0)
(0.999593 0.00328182 3.84133e-23)
(0.999594 0.00337053 -2.14865e-22)
(0.999597 0.00345813 0)
(0.999603 0.00354406 0)
(0.99961 0.00362804 -1.93757e-21)
(0.99962 0.00370968 1.9372e-21)
(0.999632 0.0037885 -3.84411e-21)
(0.999646 0.00386417 3.84283e-21)
(0.999662 0.00393631 0)
(0.99968 0.00400455 0)
(0.9997 0.00406849 0)
(0.999722 0.00412786 -9.41778e-22)
(0.999746 0.00418226 -1.87639e-21)
(0.999771 0.00423132 0)
(0.999799 0.00427489 -9.286e-22)
(0.999828 0.0043124 -9.16646e-22)
(0.99986 0.00434379 2.76656e-21)
(0.999893 0.00436865 0)
(0.999927 0.00438659 3.63501e-21)
(0.999964 0.00439764 -5.44071e-21)
(1 0.00440106 0)
(1.00004 0.00439709 0)
(1.00008 0.00438515 0)
(1.00013 0.00436441 -1.77434e-21)
(1.00017 0.00433074 -1.76275e-21)
(1.00026 0.00195768 -2.0887e-21)
(1.00019 0.00196029 4.18024e-21)
(1.00011 0.00197173 4.17207e-21)
(1.00003 0.00199245 6.23572e-21)
(0.999947 0.00202413 -2.08341e-21)
(0.999871 0.00206575 -4.13787e-21)
(0.999798 0.00211702 8.27304e-21)
(0.999728 0.00217825 -4.35891e-24)
(0.999662 0.00224761 -2.05753e-21)
(0.999599 0.00232598 2.05975e-21)
(0.99954 0.00241186 0)
(0.999485 0.00250507 2.04438e-21)
(0.999434 0.00260557 -2.03203e-21)
(0.999387 0.00271168 8.15122e-21)
(0.999343 0.00282395 -8.13081e-21)
(0.999304 0.0029411 6.0933e-21)
(0.999269 0.00306258 -1.01701e-21)
(0.999239 0.00318859 1.0105e-21)
(0.999212 0.00331728 1.00415e-21)
(0.99919 0.00344881 -1.00477e-21)
(0.999173 0.00358271 0)
(0.999159 0.00371769 -1.49204e-21)
(0.99915 0.00385369 1.24641e-21)
(0.999146 0.00399006 9.91654e-22)
(0.999146 0.00412582 4.62137e-23)
(0.99915 0.00426069 9.19392e-23)
(0.999158 0.00439414 1.46797e-21)
(0.999171 0.00452524 -9.77373e-22)
(0.999188 0.00465366 1.9397e-21)
(0.99921 0.00477889 -1.93938e-21)
(0.999235 0.00490015 0)
(0.999264 0.00501706 4.79206e-21)
(0.999298 0.00512906 -3.82977e-21)
(0.999335 0.00523558 3.79704e-21)
(0.999376 0.00533614 -3.79564e-21)
(0.999421 0.0054303 0)
(0.99947 0.00551748 3.74187e-21)
(0.999523 0.00559722 -1.87384e-21)
(0.999579 0.00566924 0)
(0.999639 0.00573278 3.69096e-21)
(0.999702 0.00578777 -3.68636e-21)
(0.999769 0.00583357 1.8299e-21)
(0.99984 0.00586966 1.82076e-21)
(0.999913 0.00589609 5.4314e-21)
(0.99999 0.00591177 6.31454e-24)
(1.00007 0.00591707 3.59067e-21)
(1.00015 0.00591098 1.77824e-21)
(1.00024 0.00589256 1.76607e-21)
(1.00034 0.00585897 1.76411e-21)
(1.00031 0.00171196 0)
(1.00019 0.00172432 -4.18614e-21)
(1.00006 0.00175245 -4.17596e-21)
(0.999933 0.00179254 0)
(0.999803 0.0018469 -4.16338e-21)
(0.999677 0.00191427 1.07513e-23)
(0.999556 0.00199434 8.32408e-21)
(0.999441 0.00208774 -2.08444e-21)
(0.999332 0.00219172 -1.11048e-23)
(0.999228 0.00230782 -6.19393e-21)
(0.999131 0.00243377 0)
(0.999041 0.00256945 -6.16634e-21)
(0.998957 0.00271496 2.06041e-21)
(0.99888 0.00286775 0)
(0.998809 0.00302885 -2.04612e-21)
(0.998745 0.0031964 9.9046e-24)
(0.998689 0.00336966 -2.0278e-21)
(0.998639 0.00354915 7.08565e-21)
(0.998597 0.00373203 -1.32133e-23)
(0.998561 0.00391874 -1.01819e-21)
(0.998533 0.00410875 -1.00357e-21)
(0.998512 0.0043001 1.99567e-21)
(0.998499 0.00449289 -1.99596e-21)
(0.998492 0.00468629 -2.46658e-22)
(0.998493 0.00487884 5.10903e-22)
(0.998502 0.00507032 -2.75707e-22)
(0.998517 0.00526002 9.81537e-22)
(0.99854 0.0054466 -9.79643e-22)
(0.998569 0.00562975 9.75713e-22)
(0.998606 0.00580878 1.93548e-21)
(0.998649 0.00598257 -5.78879e-21)
(0.9987 0.00615074 -9.44027e-22)
(0.998757 0.00631251 5.75255e-21)
(0.99882 0.00646707 1.90746e-21)
(0.99889 0.00661391 -3.78406e-21)
(0.998967 0.00675237 3.78178e-21)
(0.999049 0.00688173 8.6592e-24)
(0.999138 0.00700141 5.60644e-21)
(0.999233 0.00711102 -3.73593e-21)
(0.999334 0.00720959 -9.25603e-21)
(0.999441 0.00729703 3.68023e-21)
(0.999554 0.00737254 1.83031e-21)
(0.999672 0.00743543 7.27298e-21)
(0.999796 0.00748583 -3.62914e-21)
(0.999925 0.00752227 -9.24188e-24)
(1.00006 0.00754531 -1.00883e-23)
(1.0002 0.00755351 0)
(1.00035 0.00754596 -3.5443e-21)
(1.00051 0.00752167 -3.51741e-21)
(1.00031 0.00113673 0)
(1.00014 0.00116759 -6.33225e-21)
(0.99995 0.00122136 6.32207e-21)
(0.999754 0.00128994 0)
(0.99956 0.00137647 0)
(0.99937 0.00147945 -4.17932e-21)
(0.999188 0.00159862 -2.94296e-24)
(0.999015 0.00173497 -4.17815e-21)
(0.99885 0.00188462 -8.34056e-24)
(0.998694 0.00204992 0)
(0.998548 0.00222769 0)
(0.998411 0.00241791 2.06124e-21)
(0.998284 0.00262082 0)
(0.998168 0.00283288 0)
(0.998061 0.00305571 -2.05059e-21)
(0.997965 0.00328673 4.11021e-21)
(0.99788 0.00352501 2.04727e-21)
(0.997805 0.00377146 0)
(0.997741 0.00402208 2.01414e-21)
(0.997689 0.00427767 -5.06395e-21)
(0.997647 0.00453758 -2.01534e-21)
(0.997616 0.00479914 -2.00424e-21)
(0.997596 0.00506261 2.00443e-21)
(0.997587 0.00532694 1.37453e-24)
(0.997589 0.00559017 1.55605e-23)
(0.997602 0.0058521 2.4684e-22)
(0.997626 0.00611188 -4.93509e-22)
(0.997661 0.00636766 0)
(0.997707 0.00661914 -9.74729e-22)
(0.997763 0.00686547 0)
(0.99783 0.00710515 0)
(0.997907 0.00733776 -1.93105e-21)
(0.997994 0.00756231 -7.66408e-21)
(0.998091 0.00777774 2.33104e-23)
(0.998198 0.00798347 1.90501e-21)
(0.998315 0.00817866 0)
(0.998442 0.00836236 -1.87783e-21)
(0.998577 0.00853392 -3.74444e-21)
(0.998722 0.00869283 3.71716e-21)
(0.998876 0.00883788 7.40156e-21)
(0.999038 0.00896904 -7.3602e-21)
(0.99921 0.00908524 1.36428e-24)
(0.999389 0.0091857 -3.63991e-21)
(0.999577 0.00927064 -1.51198e-24)
(0.999773 0.00933817 0)
(0.999978 0.00938911 -3.57903e-21)
(1.00019 0.0094215 -1.7738e-21)
(1.00042 0.00943462 1.77248e-21)
(1.00066 0.00943042 3.51958e-21)
(1.00023 0.000216859 0)
(0.999986 0.000265013 4.234e-21)
(0.999729 0.000351345 -1.27196e-20)
(0.999455 0.000458872 0)
(0.999179 0.000590002 0)
(0.998911 0.000741552 -8.43901e-21)
(0.998652 0.000913074 8.40678e-21)
(0.998404 0.00110603 -4.2137e-21)
(0.998169 0.00131541 -8.44602e-24)
(0.997947 0.00154462 4.18565e-21)
(0.997738 0.00178935 0)
(0.997543 0.00204963 0)
(0.997361 0.00232595 4.16848e-21)
(0.997194 0.00261351 0)
(0.997042 0.00291474 0)
(0.996905 0.00322613 -4.11993e-21)
(0.996783 0.00354657 1.56233e-23)
(0.996676 0.00387741 0)
(0.996585 0.00421332 2.03356e-21)
(0.996509 0.00455552 5.08549e-21)
(0.996449 0.00490323 -2.03742e-21)
(0.996405 0.00525292 0)
(0.996377 0.00560509 -1.00389e-21)
(0.996364 0.00595839 1.25412e-21)
(0.996367 0.00631031 -5.46793e-22)
(0.996386 0.00666065 -2.49297e-22)
(0.996421 0.00700837 4.90979e-22)
(0.996471 0.00735111 -9.87224e-22)
(0.996537 0.00768852 0)
(0.996618 0.00801957 -3.90548e-21)
(0.996714 0.00834232 5.82323e-21)
(0.996825 0.0086563 1.91092e-21)
(0.996951 0.0089603 -8.37142e-24)
(0.997091 0.00925293 1.90725e-21)
(0.997245 0.00953354 -1.91602e-21)
(0.997412 0.00980109 -3.77696e-21)
(0.997594 0.0100544 7.53077e-21)
(0.997789 0.0102927 -3.74943e-21)
(0.997996 0.0105153 7.45985e-21)
(0.998216 0.0107208 5.2552e-24)
(0.998449 0.0109093 7.36284e-21)
(0.998694 0.0110793 -3.65821e-21)
(0.99895 0.0112301 0)
(0.999218 0.0113618 -1.60452e-24)
(0.999497 0.0114723 7.18707e-21)
(0.999788 0.0115626 0)
(1.00009 0.0116302 0)
(1.00041 0.0116746 6.16977e-21)
(1.00076 0.0117024 8.79215e-22)
(1.00003 -0.00115859 1.07005e-21)
(0.999701 -0.000996181 7.52241e-21)
(0.999339 -0.00084619 8.51016e-21)
(0.998965 -0.000730501 -8.56855e-21)
(0.998594 -0.000547882 0)
(0.99824 -0.000332347 -1.13843e-23)
(0.997889 -9.23013e-05 -4.27877e-21)
(0.99755 0.000174488 -4.26515e-21)
(0.997228 0.000461568 1.27017e-20)
(0.996923 0.000773164 -4.22166e-21)
(0.996636 0.00110367 0)
(0.996368 0.00145345 8.41213e-21)
(0.996118 0.00182323 -8.36093e-21)
(0.995888 0.00220678 2.69385e-23)
(0.995678 0.00260739 8.32829e-21)
(0.995489 0.00302055 -2.09106e-21)
(0.995321 0.00344486 -2.0342e-21)
(0.995173 0.00388221 4.13247e-21)
(0.995047 0.00432573 0)
(0.994942 0.00477712 -2.04075e-21)
(0.994859 0.00523541 2.04195e-21)
(0.994797 0.00569613 2.02946e-21)
(0.994758 0.00615999 -2.02942e-21)
(0.994741 0.00662531 2.53219e-22)
(0.994745 0.00708896 3.12678e-23)
(0.994771 0.00755067 7.47783e-22)
(0.994819 0.00800919 -2.76221e-24)
(0.994889 0.0084616 0)
(0.99498 0.00890739 0)
(0.995092 0.00934533 -7.6561e-25)
(0.995225 0.00977301 -1.9364e-21)
(0.995378 0.0101898 3.89146e-21)
(0.995552 0.0105943 -3.86182e-21)
(0.995746 0.0109847 3.82866e-21)
(0.995959 0.0113602 -7.65549e-21)
(0.996191 0.0117196 1.80767e-23)
(0.996442 0.0120613 3.78348e-21)
(0.99671 0.0123846 3.74152e-21)
(0.996996 0.0126885 -7.47744e-21)
(0.9973 0.0129714 -7.42027e-21)
(0.997619 0.0132334 -3.69384e-21)
(0.997955 0.0134727 -3.66954e-21)
(0.998307 0.0136885 0)
(0.998673 0.0138812 -3.61292e-21)
(0.999055 0.014048 -7.56594e-24)
(0.999453 0.0141903 7.12642e-21)
(0.999869 0.0143049 -8.84354e-21)
(1.00031 0.014392 1.74556e-21)
(1.00077 0.0144644 0)
(0.999682 -0.00299698 0)
(0.999249 -0.00281543 -8.59937e-21)
(0.998759 -0.00259219 0)
(0.998263 -0.00234963 8.57756e-21)
(0.997768 -0.0020268 4.29672e-21)
(0.997285 -0.00172728 -8.58795e-21)
(0.996817 -0.00145106 1.28298e-20)
(0.996369 -0.00109813 4.25747e-21)
(0.995951 -0.000713326 -4.25114e-21)
(0.995545 -0.000298343 0)
(0.995162 0.000140369 4.2459e-21)
(0.994802 0.000603318 -8.46822e-21)
(0.994468 0.00109106 4.25336e-21)
(0.994159 0.00159577 -4.19816e-21)
(0.993877 0.00212173 3.07843e-23)
(0.993622 0.00266326 4.19938e-21)
(0.993395 0.00321859 -8.36415e-21)
(0.993196 0.00379011 0)
(0.993025 0.00436933 4.14269e-21)
(0.992884 0.0049584 -4.14268e-21)
(0.992771 0.00555607 -1.02475e-21)
(0.992688 0.00615687 0)
(0.992634 0.00676165 1.02636e-21)
(0.99261 0.00736831 2.54072e-22)
(0.992616 0.00797308 -5.38791e-22)
(0.992651 0.00857546 7.55186e-22)
(0.992715 0.00917395 4.97313e-22)
(0.992809 0.009765 -9.99264e-22)
(0.992932 0.0103478 0)
(0.993084 0.0109209 -1.9673e-21)
(0.993263 0.0114813 3.93525e-21)
(0.993471 0.0120282 0)
(0.993706 0.0125597 1.93367e-21)
(0.993968 0.0130736 0)
(0.994256 0.013569 3.82293e-21)
(0.994569 0.0140444 -7.61583e-21)
(0.994907 0.0144978 3.77115e-21)
(0.995268 0.0149281 -2.29405e-23)
(0.995653 0.0153346 3.70578e-21)
(0.996061 0.0157148 -3.72175e-21)
(0.996489 0.0160694 3.6823e-21)
(0.996939 0.0163959 7.32095e-21)
(0.997408 0.0166935 0)
(0.997898 0.0169628 0)
(0.998406 0.0172004 -7.17497e-21)
(0.998935 0.0174083 -1.42341e-20)
(0.999486 0.0175821 1.41326e-20)
(1.00006 0.0177233 -7.90494e-21)
(1.00068 0.0178531 7.82811e-21)
(0.999117 -0.00537891 0)
(0.998556 -0.00513363 8.76093e-21)
(0.997937 -0.00482633 8.74556e-21)
(0.997297 -0.00449122 1.3096e-20)
(0.996653 -0.00410683 -1.30868e-20)
(0.996009 -0.00369622 -4.33704e-21)
(0.995395 -0.0032556 1.30681e-20)
(0.994806 -0.00272932 -4.32398e-21)
(0.994246 -0.00222109 4.32768e-21)
(0.993713 -0.00172333 0)
(0.993211 -0.00115691 8.66102e-21)
(0.992743 -0.000552779 0)
(0.992303 8.28292e-05 -4.2551e-21)
(0.991896 0.00073927 -4.29715e-21)
(0.991523 0.00142264 5.23176e-23)
(0.991185 0.0021256 0)
(0.990884 0.00284578 4.23902e-21)
(0.99062 0.00358606 8.45678e-21)
(0.990392 0.00433633 0)
(0.990204 0.00509909 2.08531e-21)
(0.990053 0.00587266 -2.08466e-21)
(0.989941 0.00665058 -2.06687e-21)
(0.989869 0.00743364 2.07806e-21)
(0.989837 0.00821924 -4.25742e-24)
(0.989843 0.0090029 -5.11737e-22)
(0.98989 0.00978369 -2.25006e-22)
(0.989975 0.0105597 -5.0639e-22)
(0.9901 0.0113267 1.00972e-21)
(0.990264 0.0120835 0)
(0.990466 0.012828 1.98027e-21)
(0.990706 0.0135568 -3.94576e-21)
(0.990983 0.0142684 0)
(0.991296 0.0149608 0)
(0.991645 0.0156309 3.85977e-21)
(0.992029 0.0162775 -7.6952e-21)
(0.992445 0.0168991 3.83664e-21)
(0.992895 0.0174928 3.80639e-21)
(0.993375 0.0180574 0)
(0.993885 0.0185919 1.12201e-20)
(0.994424 0.0190935 -7.42908e-21)
(0.994991 0.0195629 -3.68063e-21)
(0.995583 0.0199972 6.86128e-24)
(0.996201 0.0203954 -7.26701e-21)
(0.996843 0.0207585 -7.2034e-21)
(0.997509 0.0210822 -7.15096e-21)
(0.998199 0.0213694 1.61181e-23)
(0.998918 0.0216146 -2.1847e-23)
(0.99967 0.0218203 0)
(1.00047 0.0220195 -1.38717e-20)
(0.998305 -0.00844789 0)
(0.997581 -0.00810961 2.2976e-21)
(0.996789 -0.00769642 -1.09447e-20)
(0.995971 -0.00724837 -8.74897e-21)
(0.995148 -0.00675165 8.73835e-21)
(0.994333 -0.00621147 4.4511e-21)
(0.993543 -0.00562781 -4.33379e-21)
(0.992779 -0.00498796 0)
(0.992039 -0.0043209 0)
(0.991343 -0.00361439 8.79865e-21)
(0.990687 -0.00285056 -8.66724e-21)
(0.990072 -0.00207328 4.34713e-21)
(0.989497 -0.00127792 -4.34365e-21)
(0.988963 -0.000435738 4.33743e-21)
(0.988474 0.00044432 4.34014e-21)
(0.98803 0.00134927 -4.30467e-21)
(0.987633 0.00227632 -4.25596e-21)
(0.987284 0.00322881 -4.23799e-21)
(0.986983 0.00419486 4.24045e-21)
(0.986733 0.00517718 -4.23947e-21)
(0.986533 0.00617344 0)
(0.986384 0.00717617 2.11075e-21)
(0.986287 0.00818589 -2.07667e-21)
(0.986242 0.00919923 1.55544e-21)
(0.98625 0.0102109 0)
(0.986311 0.0112193 1.02642e-21)
(0.986424 0.0122219 0)
(0.986589 0.0132137 -1.00858e-21)
(0.986806 0.0141925 1.78959e-23)
(0.987074 0.0151558 1.24642e-23)
(0.987392 0.0160992 3.99382e-21)