/*--------------------------------*- C++ -*----------------------------------*\
| =========                 |                                                 |
| \\      /  F ield         | OpenFOAM: The Open Source CFD Toolbox           |
|  \\    /   O peration     | Version:  2312                                  |
|   \\  /    A nd           | Website:  www.openfoam.com                      |
|    \\/     M anipulation  |                                                 |
\*---------------------------------------------------------------------------*/
FoamFile
{
    version     2.0;
    format      ascii;
    arch        "LSB;label=32;scalar=64";
    class       volVectorField;
    location    "69.859189222590956";
    object      U;
}
// * * * * * * * * * * * * * * * * * * * * * * * * * * * * * * * * * * * * * //

dimensions      [0 1 -1 0 0 0 0];

internalField   nonuniform List<vector> 
21039
(
(0.913746 0.0474206 0)
(1.02608 0.0664942 0)
(1.00449 0.0295168 0)
(1.00177 0.0189065 0)
(1.00121 0.0138986 0)
(1.0008 0.0105184 0)
(1.00055 0.00819102 0)
(1.0004 0.00654717 0)
(1.00031 0.00533599 0)
(1.00024 0.00441357 0)
(1.00019 0.00369443 0)
(1.00015 0.00312357 0)
(1.00012 0.00266399 0)
(1.0001 0.0022901 0)
(1.00008 0.00198378 0)
(1.00006 0.00173191 0)
(1.00005 0.00152479 0)
(1.00004 0.00135513 0)
(1.00003 0.00121727 0)
(1.00003 0.00110666 0)
(1.00002 0.00101948 0)
(1.00001 0.00095367 0)
(1.00001 0.000910745 0)
(1.00001 0.000872708 0)
(1.00001 0.000844006 0)
(1.00001 0.000821357 0)
(1.00001 0.000800416 0)
(1.00001 0.000771501 0)
(1.00002 0.000713637 0)
(0.794495 0.0730507 0)
(1.07453 0.121721 0)
(1.03989 0.0709113 0)
(1.0181 0.0497465 0)
(1.01129 0.0383332 0)
(1.00764 0.0295527 0)
(1.00539 0.0232542 0)
(1.00396 0.0186775 0)
(1.003 0.0152216 0)
(1.00233 0.012545 0)
(1.00185 0.0104312 0)
(1.00149 0.00873351 0)
(1.00121 0.00735109 0)
(1.00099 0.0062135 0)
(1.00082 0.00527042 0)
(1.00068 0.00448526 0)
(1.00056 0.00383101 0)
(1.00046 0.00328743 0)
(1.00037 0.00283911 0)
(1.00029 0.00247406 0)
(1.00023 0.00218233 0)
(1.00017 0.00195753 0)
(1.00012 0.00180321 0)
(1.00009 0.00168937 0)
(1.00008 0.00162028 0)
(1.00008 0.00157818 0)
(1.00009 0.00154896 0)
(1.0001 0.0015139 0)
(1.0001 0.00144467 0)
(0.667221 0.0572884 0)
(1.08301 0.124882 0)
(1.08436 0.0904174 0)
(1.04628 0.0677687 0)
(1.02906 0.0542604 0)
(1.02025 0.0433069 0)
(1.01469 0.0350064 0)
(1.01099 0.0286324 0)
(1.00843 0.023611 0)
(1.00662 0.0196104 0)
(1.00528 0.016385 0)
(1.00428 0.0137523 0)
(1.00351 0.0115808 0)
(1.0029 0.00977529 0)
(1.00241 0.00826546 0)
(1.00201 0.00699928 0)
(1.00167 0.00593776 0)
(1.00138 0.00505142 0)
(1.00113 0.0043178 0)
(1.00091 0.00371954 0)
(1.00071 0.0032425 0)
(1.00054 0.00287632 0)
(1.00039 0.00262603 0)
(1.00028 0.00245572 0)
(1.00022 0.00236282 0)
(1.0002 0.00231345 0)
(1.00019 0.00228421 0)
(1.0002 0.00225109 0)
(1.00021 0.00218309 0)
(0.540851 0.0352831 0)
(1.05065 0.110938 0)
(1.11589 0.0972056 0)
(1.0761 0.0764575 0)
(1.04921 0.0623086 0)
(1.03524 0.0512163 0)
(1.02639 0.04256 0)
(1.02022 0.035553 0)
(1.0158 0.029791 0)
(1.01256 0.0250486 0)
(1.01014 0.0211215 0)
(1.00829 0.0178453 0)
(1.00685 0.0150958 0)
(1.0057 0.0127773 0)
(1.00476 0.0108165 0)
(1.00399 0.00915735 0)
(1.00333 0.00775659 0)
(1.00277 0.00658107 0)
(1.00227 0.00560522 0)
(1.00183 0.00480928 0)
(1.00143 0.0041773 0)
(1.00108 0.00369649 0)
(1.00076 0.00337303 0)
(1.00053 0.00316675 0)
(1.00038 0.00306489 0)
(1.0003 0.00301913 0)
(1.00027 0.00299839 0)
(1.00028 0.00297443 0)
(1.00028 0.00291211 0)
(0.443923 0.0186855 0)
(0.997467 0.0920073 0)
(1.1289 0.0959101 0)
(1.10139 0.0797486 0)
(1.06817 0.0657198 0)
(1.04969 0.0550682 0)
(1.03818 0.0467151 0)
(1.02997 0.0397161 0)
(1.02388 0.0337806 0)
(1.01929 0.0287591 0)
(1.01578 0.0244932 0)
(1.01304 0.0208545 0)
(1.01087 0.0177429 0)
(1.00911 0.0150776 0)
(1.00766 0.0127941 0)
(1.00644 0.0108414 0)
(1.0054 0.00917925 0)
(1.0045 0.0077762 0)
(1.0037 0.00660757 0)
(1.00298 0.00565423 0)
(1.00233 0.00490089 0)
(1.00173 0.00433435 0)
(1.00119 0.00396243 0)
(1.00079 0.00374153 0)
(1.00053 0.00364728 0)
(1.00037 0.00361879 0)
(1.00031 0.00361864 0)
(1.0003 0.00361457 0)
(1.00029 0.00356497 0)
(0.378274 0.00811935 0)
(0.939218 0.0719929 0)
(1.12673 0.0886074 0)
(1.12072 0.0789959 0)
(1.08538 0.0662713 0)
(1.06291 0.0563205 0)
(1.04914 0.0485005 0)
(1.03932 0.0418037 0)
(1.03189 0.0359939 0)
(1.02617 0.0309669 0)
(1.02169 0.0266024 0)
(1.01813 0.0228059 0)
(1.01525 0.0195021 0)
(1.01289 0.0166285 0)
(1.01091 0.0141342 0)
(1.00923 0.0119778 0)
(1.00777 0.0101262 0)
(1.00649 0.00855322 0)
(1.00534 0.00723823 0)
(1.0043 0.00616528 0)
(1.00335 0.00532192 0)
(1.00246 0.00469652 0)
(1.00165 0.00429968 0)
(1.00103 0.00408501 0)
(1.00062 0.00401558 0)
(1.00038 0.00401917 0)
(1.00027 0.00405288 0)
(1.00023 0.00408043 0)
(1.00021 0.00405199 0)
(0.332963 0.00234897 0)
(0.882691 0.0539871 0)
(1.1136 0.0781864 0)
(1.13366 0.0752444 0)
(1.1007 0.064738 0)
(1.07509 0.0557076 0)
(1.05922 0.0485491 0)
(1.04809 0.0423271 0)
(1.03959 0.036815 0)
(1.03293 0.0319411 0)
(1.02763 0.0276246 0)
(1.02334 0.0238025 0)
(1.01982 0.0204228 0)
(1.01688 0.0174406 0)
(1.01439 0.0148191 0)
(1.01224 0.0125283 0)
(1.01035 0.0105438 0)
(1.00867 0.00884674 0)
(1.00715 0.00742233 0)
(1.00575 0.00625967 0)
(1.00445 0.00535085 0)
(1.00323 0.00468768 0)
(1.00211 0.00428472 0)
(1.00124 0.00409337 0)
(1.00065 0.00406357 0)
(1.0003 0.00411256 0)
(1.00012 0.00419253 0)
(1.00005 0.00426319 0)
(0.999985 0.00426483 0)
(0.300578 -0.000179689 0)
(0.830725 0.0397071 0)
(1.09317 0.0672788 0)
(1.14023 0.0698399 0)
(1.1136 0.0618788 0)
(1.0862 0.0538487 0)
(1.06848 0.0473535 0)
(1.05623 0.0416665 0)
(1.04687 0.0365366 0)
(1.03945 0.0319042 0)
(1.03346 0.0277224 0)
(1.02854 0.0239561 0)
(1.02445 0.0205738 0)
(1.02099 0.0175477 0)
(1.01801 0.0148545 0)
(1.01541 0.0124756 0)
(1.01309 0.0103961 0)
(1.011 0.00860503 0)
(1.00908 0.00709473 0)
(1.0073 0.00586048 0)
(1.00562 0.00490026 0)
(1.00403 0.00421077 0)
(1.00255 0.00381185 0)
(1.00138 0.00365367 0)
(1.00058 0.00367323 0)
(1.00009 0.00377772 0)
(0.999826 0.00391463 0)
(0.999695 0.0040392 0)
(0.999584 0.00408015 0)
(0.27753 -0.000975279 0)
(0.784843 0.0291921 0)
(1.06875 0.0572462 0)
(1.14124 0.0638189 0)
(1.12379 0.0583575 0)
(1.09613 0.0513152 0)
(1.07692 0.0453856 0)
(1.06373 0.0401818 0)
(1.0537 0.0354308 0)
(1.04567 0.0310627 0)
(1.03911 0.0270503 0)
(1.03367 0.023378 0)
(1.02908 0.0200306 0)
(1.02515 0.0169947 0)
(1.02172 0.0142593 0)
(1.01868 0.0118162 0)
(1.01595 0.00965992 0)
(1.01345 0.00778767 0)
(1.01112 0.00619931 0)
(1.00893 0.00489715 0)
(1.00684 0.00388597 0)
(1.00484 0.00316871 0)
(1.00296 0.00277189 0)
(1.00145 0.00264647 0)
(1.0004 0.00271745 0)
(0.999736 0.00288197 0)
(0.999358 0.00308276 0)
(0.999146 0.00327002 0)
(0.998963 0.00335909 0)
(0.261033 -0.00102125 0)
(0.745448 0.0217369 0)
(1.04289 0.0485088 0)
(1.13803 0.0577433 0)
(1.13142 0.0545545 0)
(1.10495 0.0484694 0)
(1.08465 0.0429958 0)
(1.07064 0.0381741 0)
(1.06007 0.0337425 0)
(1.05157 0.0296107 0)
(1.04457 0.0257582 0)
(1.03869 0.0221805 0)
(1.03368 0.0188736 0)
(1.02933 0.0158345 0)
(1.02549 0.0130622 0)
(1.02205 0.0105575 0)
(1.01892 0.00832322 0)
(1.01601 0.00636453 0)
(1.01326 0.00468884 0)
(1.01065 0.00330588 0)
(1.00812 0.00222814 0)
(1.00567 0.00146591 0)
(1.00334 0.00105359 0)
(1.00145 0.000946229 0)
(1.00011 0.00105915 0)
(0.999231 0.00127933 0)
(0.998701 0.00154443 0)
(0.998369 0.00179914 0)
(0.998082 0.00194532 0)
(0.248772 -0.00080468 0)
(0.712056 0.016554 0)
(1.01723 0.0410935 0)
(1.13184 0.051899 0)
(1.13683 0.0506531 0)
(1.11278 0.045482 0)
(1.09181 0.0403836 0)
(1.07709 0.0358438 0)
(1.06607 0.0316541 0)
(1.05721 0.0277057 0)
(1.04985 0.0239768 0)
(1.04362 0.0204682 0)
(1.03825 0.0171825 0)
(1.03354 0.0141241 0)
(1.02934 0.0112992 0)
(1.02553 0.00871575 0)
(1.02201 0.00638378 0)
(1.0187 0.00431558 0)
(1.01554 0.00252601 0)
(1.01249 0.00103217 0)
(1.0095 -0.000146062 0)
(1.00657 -0.000990261 0)
(1.00375 -0.00145568 0)
(1.00141 -0.0015783 0)
(0.999726 -0.00144873 0)
(0.998592 -0.00119278 0)
(0.997864 -0.00088241 0)
(0.997371 -0.000562313 0)
(0.996936 -0.00030681 0)
(0.239227 -0.000549054 0)
(0.683839 0.0129589 0)
(0.992704 0.0348833 0)
(1.12368 0.0464367 0)
(1.14035 0.0467602 0)
(1.11972 0.0424371 0)
(1.09855 0.0376579 0)
(1.08322 0.0333147 0)
(1.07181 0.0292895 0)
(1.06265 0.0254638 0)
(1.05501 0.0218101 0)
(1.0485 0.0183303 0)
(1.04284 0.0150307 0)
(1.03783 0.0119205 0)
(1.03331 0.00901077 0)
(1.02916 0.006315 0)
(1.02527 0.00384912 0)
(1.02158 0.00163172 0)
(1.01801 -0.00031678 0)
(1.01451 -0.0019728 0)
(1.01105 -0.00330762 0)
(1.0076 -0.00429275 0)
(1.00424 -0.00487215 0)
(1.00141 -0.00506789 0)
(0.999322 -0.004967 0)
(0.997868 -0.00470341 0)
(0.996882 -0.00435658 0)
(0.996168 -0.00399613 0)
(0.995532 -0.00375013 0)
(0.23153 -0.000344503 0)
(0.659968 0.0104152 0)
(0.969797 0.0297042 0)
(1.1143 0.041422 0)
(1.1423 0.0429497 0)
(1.12586 0.0393889 0)
(1.10497 0.034887 0)
(1.08915 0.0306707 0)
(1.07739 0.026738 0)
(1.06799 0.0229736 0)
(1.06014 0.0193423 0)
(1.0534 0.0158439 0)
(1.0475 0.0124863 0)
(1.04223 0.00928097 0)
(1.03743 0.00624238 0)
(1.03298 0.0033879 0)
(1.02877 0.000737526 0)
(1.02471 -0.00168673 0)
(1.02074 -0.00385822 0)
(1.0168 -0.00574529 0)
(1.01285 -0.00731162 0)
(1.00886 -0.00852003 0)
(1.00492 -0.00930317 0)
(1.00155 -0.009663 0)
(0.998997 -0.00967101 0)
(0.99715 -0.0094647 0)
(0.99582 -0.00912841 0)
(0.994794 -0.00875081 0)
(0.993874 -0.00849222 0)
(0.225172 -0.000208692 0)
(0.639714 0.00854966 0)
(0.948736 0.0253772 0)
(1.10431 0.0368642 0)
(1.14301 0.0392707 0)
(1.1313 0.0363773 0)
(1.11113 0.0321199 0)
(1.09498 0.0279758 0)
(1.08291 0.0240726 0)
(1.07332 0.0203112 0)
(1.0653 0.0166493 0)
(1.05839 0.0130826 0)
(1.05231 0.00961811 0)
(1.04684 0.00626797 0)
(1.04181 0.00304814 0)
(1.0371 -2.29209e-05 0)
(1.0326 -0.00292341 0)
(1.02822 -0.00562648 0)
(1.02387 -0.00809921 0)
(1.0195 -0.0103036 0)
(1.01505 -0.0121971 0)
(1.01051 -0.0137357 0)
(1.00597 -0.0148434 0)
(1.00201 -0.0154985 0)
(0.998938 -0.0157424 0)
(0.996619 -0.0157069 0)
(0.994842 -0.0154769 0)
(0.993386 -0.015153 0)
(0.992064 -0.0149181 0)
(0.219829 -0.000131885 0)
(0.622464 0.00713165 0)
(0.929577 0.0217714 0)
(1.09411 0.0327731 0)
(1.14273 0.0357701 0)
(1.13607 0.0334337 0)
(1.11704 0.0293876 0)
(1.10073 0.0252738 0)
(1.08841 0.021348 0)
(1.07866 0.0175378 0)
(1.07052 0.013796 0)
(1.0635 0.0101125 0)
(1.05728 0.00649201 0)
(1.05166 0.00294536 0)
(1.04645 -0.000512927 0)
(1.04154 -0.00386475 0)
(1.03679 -0.00708618 0)
(1.03211 -0.0101463 0)
(1.02742 -0.0130073 0)
(1.02263 -0.0156257 0)
(1.0177 -0.0179532 0)
(1.01262 -0.0199421 0)
(1.00749 -0.0215144 0)
(1.00297 -0.0226341 0)
(0.999399 -0.0233039 0)
(0.996586 -0.0236362 0)
(0.994288 -0.0236974 0)
(0.992281 -0.0235796 0)
(0.990416 -0.0234654 0)
(0.215654 -8.28306e-05 0)
(0.608779 0.00610702 0)
(0.913565 0.0189694 0)
(1.08485 0.0293869 0)
(1.14191 0.032734 0)
(1.14006 0.0308269 0)
(1.12239 0.0269524 0)
(1.10609 0.0228429 0)
(1.09359 0.0188641 0)
(1.08374 0.014974 0)
(1.07554 0.0111218 0)
(1.06846 0.0072915 0)
(1.06218 0.00348317 0)
(1.05648 -0.000295998 0)
(1.05118 -0.004035 0)
(1.04614 -0.00771723 0)
(1.04122 -0.0113184 0)
(1.03633 -0.0148065 0)
(1.03136 -0.0181407 0)
(1.02623 -0.0212717 0)
(1.02088 -0.0241431 0)
(1.01531 -0.0266991 0)
(1.00965 -0.0288556 0)
(1.00467 -0.0305674 0)
(1.00071 -0.0318204 0)
(0.997508 -0.03273 0)
(0.99472 -0.0333336 0)
(0.992075 -0.0336673 0)
(0.989464 -0.0338491 0)
(0.212594 -5.46538e-05 0)
(0.598745 0.00540617 0)
(0.901346 0.0169524 0)
(1.07732 0.0268308 0)
(1.14091 0.0303685 0)
(1.14312 0.0287682 0)
(1.1268 0.0250195 0)
(1.11062 0.0209006 0)
(1.09802 0.0168631 0)
(1.08812 0.0128903 0)
(1.0799 0.0089281 0)
(1.07282 0.00495347 0)
(1.06654 0.000961259 0)
(1.06083 -0.00304643 0)
(1.0555 -0.00706304 0)
(1.05041 -0.0110756 0)
(1.04542 -0.0150628 0)
(1.04041 -0.0189956 0)
(1.03527 -0.0228343 0)
(1.02991 -0.0265266 0)
(1.02425 -0.0300078 0)
(1.0183 -0.0332086 0)
(1.01222 -0.036018 0)
(1.00691 -0.038351 0)
(1.00275 -0.0401928 0)
(0.999426 -0.0417419 0)
(0.996489 -0.0431172 0)
(0.993544 -0.0443413 0)
(0.990452 -0.0452666 0)
(0.210236 -1.11879e-05 0)
(0.591066 0.00492708 0)
(0.89172 0.0154851 0)
(1.07109 0.0248898 0)
(1.13984 0.0285274 0)
(1.14551 0.0271549 0)
(1.13045 0.0235094 0)
(1.11444 0.019387 0)
(1.10179 0.0153029 0)
(1.09186 0.0112606 0)
(1.08366 0.00720294 0)
(1.0766 0.00310117 0)
(1.07036 -0.00105478 0)
(1.06468 -0.0052684 0)
(1.05938 -0.00953849 0)
(1.0543 -0.0138572 0)
(1.0493 -0.0182101 0)
(1.04425 -0.0225744 0)
(1.03903 -0.0269163 0)
(1.03353 -0.0311862 0)
(1.02767 -0.0353165 0)
(1.02144 -0.0392278 0)
(1.01501 -0.0427676 0)
(1.00939 -0.0457319 0)
(1.00506 -0.0480199 0)
(1.00179 -0.0498965 0)
(0.999183 -0.0517225 0)
(0.996932 -0.0538791 0)
(0.994461 -0.055817 0)
(0.208738 -2.14497e-05 0)
(0.585789 0.004554 0)
(0.884879 0.0144364 0)
(1.06656 0.0235103 0)
(1.13908 0.0271981 0)
(1.14738 0.0259457 0)
(1.13335 0.0223398 0)
(1.11754 0.0182039 0)
(1.10489 0.0140868 0)
(1.09497 0.0099929 0)
(1.08681 0.00585767 0)
(1.07981 0.00164814 0)
(1.07362 -0.00264896 0)
(1.06801 -0.00704205 0)
(1.06278 -0.0115359 0)
(1.05776 -0.0161298 0)
(1.05282 -0.020818 0)
(1.04781 -0.0255876 0)
(1.04261 -0.0304147 0)
(1.0371 -0.0352597 0)
(1.03119 -0.0400636 0)
(1.02487 -0.0447582 0)
(1.01831 -0.0491822 0)
(1.01257 -0.0529813 0)
(1.00814 -0.0558324 0)
(1.00487 -0.0577794 0)
(1.00249 -0.0588514 0)
(1.00101 -0.0597349 0)
(1.00127 -0.0643538 0)
(1.00002 0.000720644 0)
(1.00002 0.000720468 0)
(1.00001 0.000715632 0)
(1.00001 0.000711794 1.01921e-21)
(1.00001 0.000709988 5.08418e-21)
(1.00001 0.00071004 -9.14923e-21)
(1.00001 0.000711784 5.08164e-21)
(1.00001 0.000715112 -4.05e-21)
(1.00001 0.000719871 5.16834e-22)
(1 0.000726074 4.0488e-21)
(1 0.000733558 0)
(1 0.000742305 -4.52938e-21)
(1 0.000752204 5.13827e-22)
(0.999998 0.000763128 4.02217e-21)
(0.999997 0.000775056 0)
(0.999996 0.000787829 0)
(0.999995 0.000801402 -3.98779e-21)
(0.999993 0.000815646 3.9903e-21)
(0.999992 0.000830406 0)
(0.999991 0.000845671 -1.98041e-21)
(0.99999 0.000861271 2.10495e-21)
(0.999989 0.00087709 1.84705e-21)
(0.999988 0.000893071 -2.95358e-21)
(0.999988 0.000909048 9.52103e-22)
(0.999987 0.000924924 3.05299e-23)
(0.999986 0.000940627 -6.10258e-23)
(0.999986 0.000955992 8.49356e-22)
(0.999985 0.000970946 -9.7085e-22)
(0.999985 0.000985436 0)
(0.999985 0.0009992 0)
(0.999985 0.00101222 -2.39799e-22)
(0.999985 0.00102451 -2.38874e-22)
(0.999985 0.00103594 -4.03765e-21)
(0.999985 0.00104648 3.32303e-21)
(0.999985 0.00105601 -4.2407e-21)
(0.999986 0.0010645 4.23544e-21)
(0.999986 0.00107191 -3.26874e-21)
(0.999987 0.00107813 3.26723e-21)
(0.999988 0.00108317 4.63826e-22)
(0.999988 0.00108691 4.61751e-22)
(0.999989 0.00108935 -4.59641e-22)
(0.99999 0.00109046 0)
(0.999992 0.00109014 0)
(0.999993 0.00108844 0)
(0.999994 0.00108526 0)
(0.999996 0.00108078 0)
(0.999997 0.00107487 1.78456e-21)
(0.999999 0.00106673 -1.78159e-21)
(1 0.0010525 0)
(1.0001 0.00144961 0)
(1.00008 0.00144788 2.05564e-21)
(1.00007 0.00144354 -2.04921e-21)
(1.00005 0.00144315 -1.02291e-21)
(1.00004 0.00144784 -1.02321e-21)
(1.00002 0.00145701 -3.06048e-21)
(1.00001 0.00147039 5.10899e-21)
(0.999996 0.00148795 0)
(0.999983 0.00150918 -5.08661e-22)
(0.999971 0.00153419 -1.01647e-21)
(0.999959 0.00156253 0)
(0.999948 0.00159407 5.06156e-22)
(0.999938 0.00162867 -4.54244e-21)
(0.999928 0.00166584 4.04077e-21)
(0.999919 0.0017056 0)
(0.99991 0.00174755 1.00567e-21)
(0.999902 0.00179144 0)
(0.999895 0.00183715 0)
(0.999888 0.00188418 0)
(0.999882 0.00193244 -1.989e-21)
(0.999877 0.00198166 1.8656e-21)
(0.999873 0.00203145 -1.24098e-22)
(0.99987 0.00208165 0)
(0.999867 0.00213198 -4.61178e-22)
(0.999865 0.00218211 4.84342e-22)
(0.999864 0.00223183 9.18738e-23)
(0.999864 0.00228088 1.2203e-22)
(0.999865 0.00232896 0)
(0.999866 0.00237588 -1.93699e-21)
(0.999868 0.00242135 1.93656e-21)
(0.999871 0.00246512 -3.60583e-21)
(0.999875 0.00250699 7.91742e-21)
(0.99988 0.0025467 -3.59169e-21)
(0.999885 0.00258406 4.76064e-22)
(0.999891 0.0026188 4.74199e-22)
(0.999898 0.00265077 4.72772e-22)
(0.999905 0.00267974 -4.70274e-22)
(0.999913 0.00270549 4.20874e-21)
(0.999922 0.00272794 -3.27012e-21)
(0.999932 0.00274674 -1.39284e-21)
(0.999942 0.00276188 5.07705e-21)
(0.999953 0.00277312 -3.68619e-21)
(0.999965 0.00278022 -1.83149e-21)
(0.999977 0.00278323 3.63896e-21)
(0.99999 0.00278171 -7.25635e-21)
(1 0.00277588 3.61641e-21)
(1.00002 0.0027655 1.79326e-21)
(1.00003 0.00274984 -3.58595e-24)
(1.00005 0.00272425 0)
(1.00019 0.00218212 3.09196e-21)
(1.00015 0.00218146 -1.03235e-21)
(1.00011 0.00218379 -4.11414e-21)
(1.00006 0.00219282 2.05163e-21)
(1.00002 0.00220968 -2.05152e-21)
(0.999983 0.00223361 0)
(0.999945 0.00226424 -2.04257e-21)
(0.999909 0.00230174 -6.11791e-21)
(0.999875 0.002345 6.11968e-21)
(0.999842 0.00239443 1.01623e-21)
(0.999811 0.00244915 0)
(0.999783 0.00250893 -6.07873e-21)
(0.999756 0.00257371 1.04915e-23)
(0.999731 0.00264249 4.04431e-21)
(0.999708 0.00271543 0)
(0.999687 0.00279182 -1.00482e-21)
(0.999668 0.0028712 -1.005e-21)
(0.999651 0.00295359 0)
(0.999637 0.00303796 -1.00034e-21)
(0.999624 0.00312419 -1.99009e-21)
(0.999614 0.003212 1.9907e-21)
(0.999606 0.00330059 -2.48726e-22)
(0.9996 0.00338976 -2.47486e-22)
(0.999596 0.00347913 0)
(0.999595 0.00356805 3.83371e-23)
(0.999596 0.00365623 -2.14488e-22)
(0.999599 0.00374332 0)
(0.999604 0.00382872 0)
(0.999612 0.00391211 -1.93704e-21)
(0.999622 0.00399317 1.93667e-21)
(0.999633 0.00407136 -3.84628e-21)
(0.999647 0.00414635 3.84501e-21)
(0.999663 0.0042178 0)
(0.999681 0.00428527 0)
(0.999701 0.00434841 0)
(0.999723 0.00440695 -9.44079e-22)
(0.999746 0.00446042 -1.88199e-21)
(0.999772 0.00450855 0)
(0.9998 0.00455111 -9.32055e-22)
(0.999829 0.00458755 -9.21178e-22)
(0.99986 0.00461784 2.77862e-21)
(0.999893 0.00464149 0)
(0.999928 0.00465819 3.65544e-21)
(0.999964 0.00466793 -5.47229e-21)
(1 0.00466996 0)
(1.00004 0.00466454 0)
(1.00008 0.00465104 0)
(1.00012 0.00462875 -1.78772e-21)
(1.00017 0.00459413 -1.77714e-21)
(1.00023 0.00290854 -2.06509e-21)
(1.00016 0.00291572 4.13339e-21)
(1.00008 0.00293259 4.12652e-21)
(1 0.0029586 6.17098e-21)
(0.999926 0.00299519 -2.0615e-21)
(0.99985 0.0030415 -4.09818e-21)
(0.999778 0.00309711 8.19512e-21)
(0.99971 0.00316246 -3.62979e-24)
(0.999645 0.00323567 -2.03972e-21)
(0.999584 0.00331757 2.0424e-21)
(0.999526 0.00340677 0)
(0.999472 0.00350293 2.02891e-21)
(0.999422 0.00360615 -2.01821e-21)
(0.999376 0.00371473 8.09532e-21)
(0.999335 0.00382913 -8.07818e-21)
(0.999297 0.00394821 6.05535e-21)
(0.999263 0.00407126 -1.01114e-21)
(0.999234 0.00419861 1.00513e-21)
(0.999209 0.00432843 9.9925e-22)
(0.999188 0.0044607 -1.00024e-21)
(0.999172 0.00459515 0)
(0.99916 0.00473044 -1.48696e-21)
(0.999152 0.00486638 1.24173e-21)
(0.999149 0.00500251 9.88625e-22)
(0.99915 0.00513777 4.61083e-23)
(0.999156 0.00527181 9.1759e-23)
(0.999166 0.00540423 1.46587e-21)
(0.99918 0.00553404 -9.76033e-22)
(0.999198 0.00566083 1.9387e-21)
(0.999221 0.00578424 -1.93838e-21)
(0.999247 0.00590338 0)
(0.999278 0.00601786 4.79565e-21)
(0.999313 0.00612722 -3.83276e-21)
(0.999351 0.00623074 3.80331e-21)
(0.999394 0.00632805 -3.80191e-21)
(0.99944 0.00641872 0)
(0.999491 0.00650203 3.75265e-21)
(0.999545 0.00657769 -1.87879e-21)
(0.999602 0.00664531 0)
(0.999663 0.00670415 3.70711e-21)
(0.999728 0.00675419 -3.70213e-21)
(0.999796 0.00679468 1.83917e-21)
(0.999867 0.00682524 1.83037e-21)
(0.999942 0.00684582 5.46329e-21)
(1.00002 0.00685538 6.09397e-24)
(1.0001 0.00685429 3.61389e-21)
(1.00019 0.00684147 1.79129e-21)
(1.00027 0.0068162 1.78037e-21)
(1.00037 0.00677651 1.77799e-21)
(1.00021 0.00356463 0)
(1.0001 0.0035888 -4.13764e-21)
(0.999974 0.00363031 -4.12894e-21)
(0.999845 0.0036833 0)
(0.999719 0.00374967 -4.11959e-21)
(0.999597 0.0038285 9.158e-24)
(0.999481 0.00391933 8.2397e-21)
(0.99937 0.00402293 -2.06334e-21)
(0.999265 0.00413654 -9.46255e-24)
(0.999166 0.00426157 -6.13822e-21)
(0.999074 0.00439595 0)
(0.998988 0.00453929 -6.11682e-21)
(0.998908 0.00469191 2.04353e-21)
(0.998835 0.00485123 0)
(0.99877 0.00501814 -2.03177e-21)
(0.998711 0.00519098 9.67506e-24)
(0.998659 0.00536876 -2.01608e-21)
(0.998614 0.0055522 7.04487e-21)
(0.998576 0.00573853 -1.14713e-23)
(0.998545 0.00592786 -1.0119e-21)
(0.998522 0.00611996 -9.98634e-22)
(0.998506 0.00631282 1.98794e-21)
(0.998497 0.00650635 -1.98823e-21)
(0.998495 0.00669996 -2.45962e-22)
(0.998501 0.00689212 5.09371e-22)
(0.998514 0.00708244 -2.75145e-22)
(0.998534 0.00727048 9.79762e-22)
(0.998561 0.00745478 -9.77964e-22)
(0.998596 0.00763487 9.74741e-22)
(0.998637 0.00781034 1.93473e-21)
(0.998685 0.00797991 -5.78823e-21)
(0.99874 0.00814314 -9.45937e-22)
(0.998802 0.00829944 5.75603e-21)
(0.99887 0.00844779 1.90989e-21)
(0.998945 0.00858782 -3.79104e-21)
(0.999026 0.00871891 3.78877e-21)
(0.999113 0.0088401 7.89558e-24)
(0.999206 0.0089511 5.62329e-21)
(0.999306 0.00905134 -3.74758e-21)
(0.999411 0.00913989 -9.29144e-21)
(0.999522 0.00921678 3.69674e-21)
(0.999639 0.00928097 1.8399e-21)
(0.999762 0.00933205 7.31249e-21)
(0.999889 0.00936998 -3.64781e-21)
(1.00002 0.00939338 -7.97962e-24)
(1.00016 0.00940284 -8.65549e-24)
(1.00031 0.00939678 0)
(1.00046 0.00937463 -3.57024e-21)
(1.00062 0.00933667 -3.54607e-21)
(1.00009 0.00406192 0)
(0.999925 0.00411428 -6.25303e-21)
(0.999741 0.00419255 6.24449e-21)
(0.999553 0.00428463 0)
(0.999367 0.0043931 0)
(0.999187 0.00451692 -4.13397e-21)
(0.999014 0.00465565 -2.80862e-24)
(0.99885 0.00481051 -4.1347e-21)
(0.998694 0.00497763 -8.57751e-24)
(0.998548 0.0051592 0)
(0.998412 0.00535232 0)
(0.998285 0.00555659 2.04334e-21)
(0.998169 0.00577259 0)
(0.998062 0.00599667 0)
(0.997966 0.00623031 -2.03587e-21)
(0.997881 0.00647121 4.07985e-21)
(0.997806 0.00671805 2.03344e-21)
(0.997742 0.00697205 0)
(0.997688 0.00722929 2.00324e-21)
(0.997646 0.00749011 -5.03553e-21)
(0.997615 0.00775431 -2.00525e-21)
(0.997595 0.00801908 -1.99552e-21)
(0.997585 0.00828447 1.99572e-21)
(0.997587 0.00854975 1.38063e-24)
(0.9976 0.00881284 1.55106e-23)
(0.997624 0.00907331 2.46271e-22)
(0.997658 0.00933068 -4.92243e-22)
(0.997704 0.00958296 0)
(0.99776 0.00982962 -9.73279e-22)
(0.997827 0.0100702 0)
(0.997904 0.0103029 0)
(0.997992 0.0105274 -1.93116e-21)
(0.99809 0.0107428 -7.66819e-21)
(0.998198 0.0109478 2.19933e-23)
(0.998315 0.0111421 1.90644e-21)
(0.998442 0.0113249 0)
(0.998579 0.0114948 -1.88189e-21)
(0.998725 0.0116517 -3.75535e-21)
(0.99888 0.0117947 3.72861e-21)
(0.999043 0.0119229 7.429e-21)
(0.999215 0.0120361 -7.39096e-21)
(0.999396 0.0121332 2.7196e-24)
(0.999585 0.0122137 -3.65784e-21)
(0.999782 0.0122776 -5.963e-26)
(0.999987 0.0123231 0)
(1.0002 0.0123511 -3.6016e-21)
(1.00042 0.0123595 -1.78657e-21)
(1.00066 0.012348 1.78524e-21)
(1.0009 0.0123202 3.54662e-21)
(0.999821 0.00429342 0)
(0.999594 0.00438741 4.17849e-21)
(0.999341 0.00451659 -1.25547e-20)
(0.99908 0.00466198 0)
(0.998821 0.00482719 0)
(0.998569 0.00501101 -8.33945e-21)
(0.998327 0.00521299 8.3104e-21)
(0.998096 0.00543492 -4.16656e-21)
(0.997879 0.00567162 -8.72837e-24)
(0.997674 0.00592624 4.14188e-21)
(0.997483 0.00619489 0)
(0.997306 0.00647717 0)
(0.997143 0.00677398 4.13047e-21)
(0.996995 0.00708041 0)
(0.996862 0.00739867 0)
(0.996744 0.00772566 -4.08796e-21)
(0.996641 0.00805973 1.53239e-23)
(0.996553 0.00840266 0)
(0.996481 0.00874918 2.02051e-21)
(0.996425 0.00909994 5.05545e-21)
(0.996385 0.00945472 -2.02566e-21)
(0.99636 0.00980983 0)
(0.996351 0.0101655 -9.99476e-22)
(0.996359 0.0105207 1.24878e-21)
(0.996381 0.0108729 -5.44651e-22)
(0.99642 0.0112215 -2.48504e-22)
(0.996475 0.011566 4.8982e-22)
(0.996545 0.0119038 -9.84725e-22)
(0.99663 0.0122343 0)
(0.996731 0.0125569 -3.90092e-21)
(0.996846 0.0128695 5.81868e-21)
(0.996977 0.0131714 1.91185e-21)
(0.997121 0.0134618 -7.39275e-24)
(0.997281 0.0137389 1.90953e-21)
(0.997454 0.0140024 -1.91742e-21)
(0.997641 0.0142513 -3.78379e-21)
(0.997841 0.014484 7.54624e-21)
(0.998054 0.0147002 -3.75958e-21)
(0.99828 0.0148991 7.48239e-21)
(0.998518 0.0150792 6.79282e-24)
(0.998768 0.0152408 7.39259e-21)
(0.99903 0.0153822 -3.67396e-21)
(0.999303 0.015503 0)
(0.999588 0.0156032 1.85642e-25)
(0.999883 0.0156807 7.2321e-21)
(1.00019 0.0157368 0)
(1.00051 0.0157685 0)
(1.00084 0.0157762 6.21773e-21)
(1.0012 0.0157682 8.85982e-22)
(0.999358 0.00413749 1.05531e-21)
(0.999058 0.00428873 7.41493e-21)
(0.998721 0.00448457 8.39477e-21)
(0.998373 0.00469935 -8.45117e-21)
(0.998025 0.0049381 0)
(0.997685 0.00519931 -1.14321e-23)
(0.997359 0.00548255 -4.22569e-21)
(0.997047 0.00579021 -4.21419e-21)
(0.996753 0.00611564 1.25559e-20)
(0.996476 0.00646313 -4.17428e-21)
(0.996218 0.0068276 0)
(0.995979 0.0072087 8.32701e-21)
(0.995759 0.00760762 -8.27901e-21)
(0.995559 0.00801805 2.53357e-23)
(0.99538 0.00844302 8.25456e-21)
(0.995221 0.0088785 -2.07241e-21)
(0.995084 0.00932247 -2.01932e-21)
(0.994968 0.00977727 4.10055e-21)
(0.994873 0.0102362 0)
(0.9948 0.0107001 -2.02738e-21)
(0.994748 0.0111689 2.02951e-21)
(0.994719 0.0116377 2.01855e-21)
(0.994711 0.012107 -2.0185e-21)
(0.994726 0.0125755 2.52051e-22)
(0.994762 0.01304 3.11361e-23)
(0.994821 0.0134998 7.45141e-22)
(0.994901 0.0139542 -2.66344e-24)
(0.995002 0.0144 0)
(0.995125 0.0148365 0)
(0.995269 0.015263 -1.45617e-24)
(0.995434 0.0156766 -1.93557e-21)
(0.99562 0.0160768 3.88784e-21)
(0.995825 0.0164625 -3.86122e-21)
(0.99605 0.0168314 3.83094e-21)
(0.996294 0.0171831 -7.6618e-21)
(0.996556 0.0175165 1.79428e-23)
(0.996837 0.0178296 3.78964e-21)
(0.997136 0.0181221 3.75144e-21)
(0.997452 0.018393 -7.4975e-21)
(0.997784 0.0186405 -7.44395e-21)
(0.998132 0.0188651 -3.70768e-21)
(0.998496 0.0190647 -3.685e-21)
(0.998874 0.0192389 0)
(0.999268 0.0193877 -3.63181e-21)
(0.999675 0.0195088 -3.102e-24)
(1.0001 0.0196036 7.17552e-21)
(1.00054 0.0196686 -8.90893e-21)
(1.001 0.0197049 1.76328e-21)
(1.00148 0.0197271 0)
(0.998658 0.00345725 0)
(0.998266 0.00368325 -8.48438e-21)
(0.997829 0.0039624 0)
(0.997374 0.00426405 8.46147e-21)
(0.996919 0.00459525 4.23848e-21)
(0.996473 0.00495379 -8.4719e-21)
(0.996043 0.00533921 1.26626e-20)
(0.995632 0.0057545 4.20427e-21)
(0.995242 0.00619134 -4.19981e-21)
(0.994876 0.00665532 0)
(0.994534 0.00713995 4.19867e-21)
(0.994218 0.00764499 -8.37538e-21)
(0.993927 0.00817186 4.20833e-21)
(0.993663 0.00871272 -4.1566e-21)
(0.993426 0.0092715 2.90359e-23)
(0.993216 0.00984309 4.16034e-21)
(0.993035 0.010425 -8.2923e-21)
(0.992882 0.0110203 0)
(0.992758 0.0116204 4.11218e-21)
(0.992664 0.0122268 -4.11214e-21)
(0.992599 0.0128389 -1.01797e-21)
(0.992563 0.0134511 0)
(0.992558 0.0140636 1.02062e-21)
(0.992582 0.0146751 2.52914e-22)
(0.992635 0.0152815 -5.36185e-22)
(0.992719 0.0158819 7.52254e-22)
(0.992832 0.0164753 4.95936e-22)
(0.992973 0.0170581 -9.95966e-22)
(0.993145 0.017629 0)
(0.993344 0.0181871 -1.96392e-21)
(0.993572 0.0187291 3.92935e-21)
(0.993827 0.0192542 0)
(0.994109 0.019761 1.93262e-21)
(0.994417 0.0202466 0)
(0.994751 0.0207105 3.82489e-21)
(0.99511 0.0211516 -7.62552e-21)
(0.995494 0.0215671 3.77894e-21)
(0.9959 0.0219569 -2.09709e-23)
(0.996329 0.0223196 3.71756e-21)
(0.996779 0.0226532 -3.73355e-21)
(0.99725 0.0229583 3.69595e-21)
(0.997741 0.0232324 7.35681e-21)
(0.99825 0.0234751 0)
(0.998779 0.0236867 0)
(0.999326 0.0238641 -7.21691e-21)
(0.999891 0.0240094 -1.43305e-20)
(1.00048 0.0241182 1.4236e-20)
(1.00109 0.0241925 -7.96433e-21)
(1.00173 0.0242558 7.89679e-21)
(0.997679 0.00210008 0)
(0.997175 0.00241923 8.64528e-21)
(0.996613 0.00279794 8.62922e-21)
(0.996028 0.00320465 1.29232e-20)
(0.995439 0.00364856 -1.2911e-20)
(0.994861 0.00412626 -4.28045e-21)
(0.994303 0.00463736 1.28906e-20)
(0.993767 0.00518537 -4.26745e-21)
(0.99326 0.00576004 4.26993e-21)
(0.992781 0.00636834 0)
(0.992334 0.00700216 8.55397e-21)
(0.99192 0.00766134 0)
(0.991539 0.00834747 -4.20816e-21)
(0.991193 0.00905103 -4.25056e-21)
(0.990882 0.00977692 5.07684e-23)
(0.990607 0.0105188 0)
(0.99037 0.0112737 4.19886e-21)
(0.990171 0.012045 8.38199e-21)
(0.990009 0.0128227 0)
(0.989886 0.0136084 2.06993e-21)
(0.989802 0.0144013 -2.06926e-21)
(0.989758 0.0151945 -2.05382e-21)
(0.989754 0.0159883 2.06498e-21)
(0.989789 0.0167808 -4.11708e-24)
(0.989863 0.0175671 -5.09065e-22)
(0.989978 0.018346 -2.23905e-22)
(0.990132 0.0191161 -5.04291e-22)
(0.990325 0.019873 1.0065e-21)
(0.990557 0.020615 0)
(0.990827 0.0213407 1.97649e-21)
(0.991134 0.0220463 -3.93848e-21)
(0.991479 0.0227304 0)
(0.991859 0.0233913 0)
(0.992274 0.0240254 3.86125e-21)
(0.992722 0.0246321 -7.70038e-21)
(0.993203 0.0252098 3.83832e-21)
(0.993716 0.0257554 3.81229e-21)
(0.994259 0.0262682 0)
(0.994831 0.026747 1.12576e-20)
(0.99543 0.0271893 -7.45577e-21)
(0.996055 0.0275958 -3.70004e-21)
(0.996706 0.0279634 1.25824e-23)
(0.997379 0.0282919 -7.30919e-21)
(0.998076 0.0285817 -7.24962e-21)
(0.998795 0.0288292 -7.20119e-21)
(0.999537 0.0290372 9.58418e-24)
(1.0003 0.0292002 -1.51416e-23)
(1.0011 0.0293214 0)
(1.00194 0.0294356 -1.39956e-20)
(0.996379 -7.2377e-05 0)
(0.995723 0.000318577 2.26339e-21)
(0.995005 0.00080266 -1.08191e-20)
(0.994269 0.00133458 -8.6481e-21)
(0.993518 0.00191566 8.63599e-21)
(0.992775 0.00253851 4.39222e-21)
(0.992055 0.0032037 -4.28366e-21)
(0.991363 0.00391444 0)
(0.990705 0.00465845 0)
(0.990083 0.00544429 8.68501e-21)
(0.989501 0.00626206 -8.55914e-21)
(0.988961 0.00711182 4.29441e-21)
(0.988463 0.00799517 -4.29088e-21)
(0.98801 0.00890093 4.28682e-21)
(0.987603 0.00983497 4.29252e-21)
(0.987243 0.0107895 -4.25911e-21)
(0.986932 0.0117612 -4.21478e-21)
(0.986669 0.0127535 -4.19923e-21)
(0.986456 0.0137549 4.20489e-21)
(0.986295 0.0147671 -4.20385e-21)
(0.986185 0.0157885 0)
(0.986126 0.0168113 2.096e-21)
(0.986121 0.0178355 -2.06361e-21)
(0.986169 0.0188583 1.54602e-21)
(0.986269 0.0198742 0)
(0.986422 0.020881 1.02162e-21)
(0.986627 0.0218769 0)
(0.986885 0.0228566 -1.00493e-21)
(0.987194 0.0238175 1.75766e-23)
(0.987554 0.0247578 1.12265e-23)
(0.987964 0.0256728 3.98692e-21)
(0.988422 0.0265602 0)
(0.988928 0.027418 0)
(0.98948 0.0282416 0)
(0.990075 0.0290299 0)
(0.990713 0.0297811 -7.68654e-21)
(0.991393 0.0304911 3.82775e-21)