/*--------------------------------*- C++ -*----------------------------------*\
| =========                 |                                                 |
| \\      /  F ield         | OpenFOAM: The Open Source CFD Toolbox           |
|  \\    /   O peration     | Version:  2312                                  |
|   \\  /    A nd           | Website:  www.openfoam.com                      |
|    \\/     M anipulation  |                                                 |
\*---------------------------------------------------------------------------*/
FoamFile
{
    version     2.0;
    format      ascii;
    arch        "LSB;label=32;scalar=64";
    class       volScalarField;
    location    "20.676582689391179";
    object      p;
}
// * * * * * * * * * * * * * * * * * * * * * * * * * * * * * * * * * * * * * //

dimensions      [0 2 -2 0 0 0 0];

internalField   nonuniform List<scalar> 
21039
(
0.696622
0.562872
0.520719
0.492494
0.471201
0.455148
0.442734
0.432856
0.424832
0.418209
0.412671
0.407987
0.403986
0.400534
0.397529
0.394888
0.392542
0.390435
0.38852
0.386754
0.385103
0.383536
0.382024
0.380629
0.379411
0.378333
0.377353
0.376438
0.375572
0.549524
0.511711
0.497919
0.479574
0.462838
0.449579
0.438853
0.430025
0.422703
0.416573
0.411392
0.406975
0.403179
0.399888
0.397013
0.394478
0.392221
0.390189
0.388338
0.386628
0.385024
0.383496
0.382016
0.380642
0.379432
0.378356
0.377376
0.376461
0.375595
0.460063
0.457717
0.459929
0.453217
0.44481
0.437045
0.429817
0.423309
0.417593
0.41261
0.40827
0.404487
0.40118
0.398276
0.395713
0.393436
0.391395
0.389548
0.387857
0.386286
0.384805
0.383385
0.382
0.380699
0.379542
0.378503
0.377552
0.376661
0.375814
0.421921
0.424072
0.428606
0.427576
0.425002
0.421819
0.418047
0.414154
0.410408
0.40691
0.403704
0.400802
0.398191
0.395849
0.393747
0.391854
0.390141
0.388577
0.387135
0.385785
0.384503
0.383262
0.382039
0.380875
0.379824
0.378868
0.377981
0.377139
0.376331
0.396849
0.400842
0.406804
0.408585
0.408845
0.408165
0.406672
0.404779
0.402706
0.40058
0.398495
0.396511
0.394658
0.392947
0.391378
0.389942
0.388626
0.387412
0.386283
0.385217
0.384193
0.383191
0.382189
0.381216
0.380315
0.379477
0.378682
0.37791
0.377154
0.377147
0.382417
0.389845
0.393798
0.39588
0.39675
0.396735
0.396217
0.395378
0.394342
0.39321
0.392053
0.390916
0.389829
0.388806
0.387854
0.38697
0.386147
0.385375
0.384639
0.383923
0.383209
0.38248
0.381744
0.381032
0.380342
0.379664
0.378982
0.378292
0.364308
0.369336
0.376508
0.38155
0.384861
0.386881
0.387974
0.388483
0.388587
0.388416
0.388073
0.387631
0.387141
0.386639
0.386148
0.385682
0.385245
0.384838
0.384455
0.384087
0.38372
0.38334
0.38293
0.382477
0.381994
0.381485
0.38095
0.380381
0.379776
0.356932
0.36103
0.366843
0.371896
0.375705
0.378385
0.38022
0.381481
0.382314
0.38284
0.383156
0.383331
0.383418
0.383456
0.383472
0.383483
0.383499
0.383523
0.383553
0.383583
0.383603
0.383599
0.383558
0.383436
0.383222
0.38293
0.382566
0.382131
0.38163
0.352318
0.355511
0.359946
0.364545
0.368357
0.371269
0.373496
0.375234
0.376588
0.377651
0.378502
0.379202
0.379799
0.380331
0.380823
0.381297
0.381762
0.382225
0.382687
0.383142
0.383584
0.383998
0.384371
0.38463
0.384734
0.384698
0.384539
0.38426
0.383874
0.348807
0.351248
0.354635
0.358705
0.362335
0.365273
0.367678
0.369693
0.371396
0.372854
0.374127
0.375263
0.376304
0.37728
0.378217
0.379134
0.380043
0.380949
0.381856
0.382759
0.383653
0.384525
0.385363
0.386057
0.386526
0.38679
0.386873
0.386783
0.386534
0.345692
0.347531
0.350164
0.353725
0.357122
0.360017
0.362505
0.364689
0.366631
0.368383
0.369989
0.371488
0.372912
0.374289
0.375639
0.37698
0.378323
0.379674
0.381036
0.382408
0.383783
0.385151
0.386502
0.387686
0.388575
0.389188
0.389556
0.389691
0.389611
0.342657
0.344049
0.346149
0.349244
0.352398
0.35522
0.357741
0.360034
0.362149
0.364128
0.366006
0.367812
0.369573
0.371311
0.373046
0.374792
0.37656
0.378357
0.380184
0.38204
0.383921
0.385817
0.387724
0.389451
0.390814
0.391829
0.392528
0.392929
0.393048
0.339538
0.340618
0.342347
0.345043
0.347961
0.350693
0.353215
0.355576
0.357819
0.359978
0.362081
0.36415
0.36621
0.368279
0.370375
0.37251
0.374696
0.376938
0.379236
0.381588
0.38399
0.386438
0.38893
0.39124
0.393123
0.394589
0.395669
0.396377
0.396731
0.336265
0.337128
0.338593
0.340956
0.343657
0.346292
0.348795
0.351195
0.353532
0.355834
0.358123
0.360421
0.362746
0.365118
0.367554
0.370066
0.372663
0.375348
0.378122
0.380978
0.383911
0.386916
0.39
0.392898
0.395316
0.397259
0.398754
0.399807
0.400432
0.332815
0.333527
0.334786
0.336856
0.339349
0.341882
0.344353
0.346775
0.34918
0.351593
0.354036
0.356528
0.359089
0.361737
0.364493
0.367368
0.370369
0.3735
0.376755
0.380126
0.383596
0.387153
0.390799
0.394228
0.397122
0.399499
0.401397
0.40281
0.403737
0.329484
0.330086
0.331181
0.333033
0.335358
0.337795
0.340228
0.342658
0.345109
0.347605
0.350166
0.352814
0.35557
0.358458
0.361498
0.364703
0.368083
0.37164
0.375364
0.379238
0.383226
0.387286
0.391383
0.395135
0.398215
0.400717
0.402751
0.404351
0.405512
0.326624
0.327154
0.328148
0.329861
0.332058
0.334411
0.336811
0.339248
0.341738
0.3443
0.346956
0.349729
0.352648
0.355738
0.359023
0.36252
0.366242
0.370192
0.374361
0.378719
0.383209
0.387741
0.392201
0.396043
0.398874
0.400866
0.402292
0.403419
0.404473
0.324226
0.324709
0.325631
0.327242
0.329342
0.33164
0.334034
0.336497
0.339031
0.341654
0.344394
0.34728
0.350345
0.353618
0.357125
0.360893
0.364939
0.369273
0.373884
0.37874
0.383769
0.388834
0.393722
0.397634
0.399922
0.400624
0.400025
0.398657
0.397628
0.322268
0.3228
0.32374
0.325249
0.327182
0.329378
0.331769
0.334278
0.33687
0.339562
0.342388
0.345387
0.348594
0.352044
0.355769
0.359801
0.364167
0.368884
0.37395
0.379337
0.384975
0.39071
0.396272
0.40061
0.40264
0.401863
0.397955
0.390369
0.378903
0.374733
0.373886
0.373043
0.372204
0.371366
0.370529
0.369692
0.368853
0.368013
0.367171
0.366324
0.365474
0.364619
0.363758
0.36289
0.362016
0.361135
0.360246
0.359349
0.358444
0.357531
0.356609
0.355678
0.354739
0.353792
0.352837
0.351874
0.350904
0.349927
0.348944
0.347956
0.346962
0.345964
0.344962
0.343958
0.342951
0.341944
0.340936
0.33993
0.338925
0.337924
0.336927
0.335935
0.334948
0.33397
0.332999
0.332037
0.331085
0.330143
0.374758
0.37392
0.373088
0.372258
0.37143
0.370603
0.369775
0.368946
0.368115
0.367281
0.366443
0.365601
0.364752
0.363898
0.363037
0.362168
0.361291
0.360406
0.359512
0.358608
0.357696
0.356773
0.355842
0.354901
0.353951
0.352993
0.352025
0.35105
0.350067
0.349077
0.348081
0.347079
0.346072
0.345061
0.344047
0.34303
0.342012
0.340993
0.339975
0.338959
0.337945
0.336935
0.33593
0.334931
0.333939
0.332955
0.331981
0.331016
0.330062
0.375
0.374187
0.373378
0.372571
0.371764
0.370958
0.37015
0.369339
0.368525
0.367706
0.366882
0.366052
0.365214
0.364369
0.363514
0.36265
0.361776
0.360891
0.359996
0.359089
0.358171
0.357242
0.356302
0.35535
0.354387
0.353414
0.35243
0.351437
0.350435
0.349424
0.348405
0.34738
0.346348
0.345311
0.34427
0.343225
0.342178
0.34113
0.340081
0.339034
0.337989
0.336947
0.335909
0.334877
0.333852
0.332834
0.331826
0.330827
0.32984
0.375552
0.374776
0.374001
0.373226
0.37245
0.371671
0.370889
0.370102
0.369308
0.368508
0.3677
0.366882
0.366055
0.365216
0.364366
0.363503
0.362627
0.361738
0.360835
0.359918
0.358987
0.358042
0.357083
0.35611
0.355123
0.354124
0.353111
0.352087
0.351052
0.350006
0.34895
0.347885
0.346812
0.345733
0.344648
0.343558
0.342464
0.341368
0.340271
0.339173
0.338077
0.336983
0.335893
0.334807
0.333728
0.332656
0.331592
0.330537
0.329493
0.376423
0.375696
0.374965
0.374231
0.373493
0.372749
0.371997
0.371238
0.370469
0.369689
0.368897
0.368093
0.367274
0.366441
0.365592
0.364727
0.363845
0.362946
0.362029
0.361094
0.360142
0.359172
0.358184
0.357179
0.356158
0.35512
0.354067
0.352998
0.351916
0.350821
0.349713
0.348594
0.347465
0.346328
0.345182
0.34403
0.342873
0.341712
0.340548
0.339382
0.338217
0.337053
0.335891
0.334733
0.333581
0.332434
0.331295
0.330165
0.329045
0.377623
0.376956
0.37628
0.375596
0.374904
0.374202
0.373488
0.372761
0.37202
0.371264
0.37049
0.369699
0.368889
0.368059
0.367209
0.366338
0.365445
0.364529
0.363592
0.362632
0.36165
0.360645
0.359619
0.358571
0.357503
0.356415
0.355307
0.354181
0.353038
0.351878
0.350703
0.349514
0.348313
0.3471
0.345877
0.344646
0.343407
0.342163
0.340914
0.339662
0.338409
0.337156
0.335904
0.334655
0.33341
0.332171
0.330937
0.329712
0.328497
0.379181
0.378584
0.377974
0.377351
0.376714
0.376061
0.375392
0.374703
0.373994
0.373263
0.372509
0.371732
0.37093
0.370102
0.369247
0.368365
0.367455
0.366517
0.365552
0.364558
0.363536
0.362487
0.361411
0.360309
0.359181
0.358029
0.356853
0.355654
0.354434
0.353194
0.351936
0.35066
0.349368
0.348062
0.346744
0.345414
0.344075
0.342729
0.341376
0.340018
0.338658
0.337296
0.335934
0.334574
0.333217
0.331864
0.330517
0.329178
0.327849
0.381131
0.38061
0.380086
0.379533
0.378958
0.378361
0.377741
0.377095
0.376422
0.37572
0.374988
0.374224
0.373428
0.372599
0.371736
0.370839
0.369907
0.36894
0.367938
0.366901
0.36583
0.364726
0.363588
0.362419
0.361218
0.359987
0.358727
0.357441
0.356128
0.35479
0.35343
0.352049
0.350648
0.34923
0.347796
0.346348
0.344888
0.343419
0.34194
0.340456
0.338967
0.337474
0.335981
0.334489
0.332998
0.331512
0.33003
0.328556
0.327094
0.383489
0.383096
0.382661
0.382141
0.381645
0.381125
0.380565
0.379966
0.379333
0.378663
0.377954
0.377204
0.376414
0.375582
0.374707
0.37379
0.372829
0.371826
0.37078
0.369692
0.368562
0.367391
0.36618
0.36493
0.363643
0.362319
0.36096
0.359568
0.358145
0.356692
0.355211
0.353705
0.352175
0.350622
0.349051
0.347463
0.345859
0.344243
0.342616
0.34098
0.339339
0.337692
0.336044
0.334395
0.332748
0.331104
0.329464
0.327834
0.326217
0.386262
0.385966
0.385629
0.385261
0.384856
0.384402
0.38388
0.383333
0.382753
0.382118
0.381432
0.380697
0.379912
0.379075
0.378187
0.377246
0.376253
0.375208
0.374112
0.372965
0.371767
0.37052
0.369225
0.367883
0.366496
0.365064
0.36359
0.362077
0.360524
0.358936
0.357314
0.35566
0.353978
0.352268
0.350535
0.34878
0.347006
0.345216
0.343413
0.341599
0.339776
0.337947
0.336116
0.334283
0.332451
0.330622
0.328798
0.326984
0.325187
0.389482
0.389313
0.389084
0.388808
0.388484
0.388111
0.387692
0.38722
0.386687
0.386081
0.385423
0.384712
0.383937
0.383099
0.382198
0.381235
0.380209
0.379122
0.377974
0.376763
0.375493
0.374165
0.372777
0.371333
0.369835
0.368282
0.366679
0.365027
0.363326
0.361582
0.359796
0.35797
0.356108
0.354213
0.352287
0.350335
0.348358
0.346362
0.344348
0.34232
0.340282
0.338235
0.336184
0.334132
0.332081
0.330034
0.327991
0.325963
0.323956
0.393089
0.393065
0.392967
0.392809
0.39259
0.392309
0.391964
0.391553
0.391077
0.390536
0.389929
0.389249
0.388489
0.387663
0.386763
0.38579
0.384742
0.38362
0.382427
0.381159
0.379819
0.378409
0.376927
0.375377
0.37376
0.372075
0.370329
0.368521
0.366652
0.364729
0.362752
0.360725
0.358652
0.356534
0.354378
0.352189
0.349966
0.347718
0.345447
0.343159
0.340858
0.338545
0.336229
0.333909
0.331593
0.329282
0.326979
0.324693
0.322436
0.39697
0.397108
0.39716
0.397142
0.397052
0.396887
0.396648
0.396331
0.395938
0.395467
0.394918
0.394288
0.393578
0.392786
0.391917
0.390963
0.38992
0.388789
0.387571
0.386263
0.384869
0.383388
0.381819
0.380167
0.37843
0.376608
0.374707
0.372728
0.37067
0.368541
0.366341
0.364074
0.361747
0.35936
0.356922
0.354438
0.35191
0.349349
0.346757
0.344141
0.341509
0.338863
0.336213
0.333561
0.330915
0.328278
0.325652
0.323052
0.320493
0.400899
0.40122
0.401447
0.401599
0.401673
0.401668
0.401581
0.401411
0.401159
0.400817
0.400389
0.399868
0.399256
0.39855
0.397742
0.396837
0.3959
0.394796
0.393592
0.39228
0.390862
0.389339
0.387703
0.385963
0.384114
0.382155
0.380092
0.377925
0.375652
0.373282
0.370817
0.368258
0.365616
0.362891
0.360095
0.357234
0.354311
0.351341
0.348329
0.345285
0.342219
0.339136
0.33605
0.332966
0.329894
0.32684
0.323808
0.320815
0.317881
0.404464
0.404984
0.40542
0.405797
0.406105
0.406348
0.406516
0.406603
0.406604
0.406506
0.406311
0.406006
0.405593
0.40507
0.404431
0.403674
0.402792
0.401815
0.400718
0.399468
0.398087
0.396573
0.394915
0.393119
0.391182
0.389095
0.386868
0.384498
0.38198
0.379327
0.376537
0.373615
0.370573
0.367411
0.364145
0.360786
0.357336
0.353818
0.350237
0.346611
0.342955
0.339276
0.335599
0.331929
0.328286
0.324679
0.321114
0.317616
0.31421
0.406471
0.407153
0.407841
0.408573
0.409314
0.410037
0.4107
0.411274
0.411737
0.412065
0.412259
0.412305
0.412209
0.411973
0.411593
0.411077
0.41041
0.409598
0.40866
0.407578
0.406313
0.404882
0.40327
0.40148
0.399501
0.39732
0.394947
0.392373
0.389591
0.386616
0.383445
0.380082
0.376546
0.372835
0.368973
0.364973
0.360842
0.356611
0.352287
0.347896
0.343459
0.338989
0.334522
0.330071
0.325669
0.321338
0.317094
0.312974
0.309014
0.405605
0.406353
0.407473
0.408959
0.410601
0.412247
0.413764
0.415089
0.416195
0.417063
0.417716
0.418154
0.418404
0.418482
0.418388
0.418146
0.41774
0.417181
0.416463
0.415584
0.414536
0.413276
0.411794
0.410093
0.40815
0.405943
0.403477
0.400738
0.397712
0.394416
0.390846
0.387008
0.382927
0.378605
0.374074
0.369352
0.364453
0.359417
0.354253
0.348994
0.343665
0.338281
0.332886
0.327496
0.322162
0.316923
0.311827
0.30695
0.302359
0.397354
0.398524
0.401814
0.40593
0.4099
0.413365
0.416212
0.418482
0.420258
0.421613
0.422639
0.42338
0.423898
0.424228
0.424384
0.424402
0.424266
0.423995
0.423577
0.422967
0.422235
0.42125
0.420006
0.418501
0.416697
0.414554
0.412067
0.409211
0.405963
0.402343
0.398347
0.393986
0.389295
0.384282
0.378997
0.373466
0.367714
0.361793
0.355719
0.349533
0.343258
0.336904
0.330507
0.324066
0.317621
0.311208
0.304908
0.298916
0.293507
0.370326
0.381023
0.393403
0.403492
0.410917
0.416218
0.419972
0.422675
0.424658
0.426127
0.427235
0.428053
0.428665
0.429115
0.429427
0.429644
0.429751
0.429772
0.429693
0.429444
0.429023
0.428433
0.427517
0.42631
0.424758
0.422791
0.420381
0.417484
0.414068
0.410157
0.405748
0.400862
0.395549
0.389828
0.383769
0.377418
0.37081
0.36402
0.357073
0.350023
0.342895
0.335696
0.328441
0.321084
0.313591
0.305877
0.297864
0.289621
0.281746
0.329221
0.328265
0.327227
0.326092
0.324841
0.323463
0.321985
0.320577
0.319373
0.318402
0.317699
0.317302
0.317236
0.317575
0.318356
0.319646
0.321522
0.324085
0.327461
0.331816
0.337376
0.344453
0.353493
0.365175
0.380598
0.401363
0.429164
0.470924
0.60437
0.329125
0.328152
0.327094
0.325934
0.32465
0.323232
0.321708
0.32025
0.318993
0.317967
0.317206
0.316743
0.316617
0.31687
0.31755
0.318717
0.320441
0.322808
0.325925
0.329932
0.335008
0.341391
0.349388
0.359388
0.372019
0.388218
0.406129
0.419524
0.457057
0.328868
0.327857
0.326751
0.325534
0.324179
0.322675
0.321046
0.319471
0.318092
0.316937
0.316037
0.315421
0.315122
0.315172
0.315612
0.316485
0.317841
0.319738
0.322243
0.325428
0.329376
0.334169
0.339861
0.346374
0.353517
0.361384
0.367639
0.364996
0.367072
0.328463
0.327387
0.326204
0.324894
0.32343
0.321791
0.32
0.318246
0.316679
0.315327
0.314213
0.313364
0.3128
0.312547
0.312629
0.313072
0.313899
0.315131
0.316786
0.318868
0.32136
0.324208
0.327306
0.330379
0.332952
0.334986
0.335542
0.330568
0.32818
0.327934
0.326769
0.325482
0.324048
0.322436
0.320619
0.318616
0.316627
0.31482
0.313217
0.311837
0.310698
0.309815
0.309201
0.308867
0.308819
0.309059
0.309578
0.310358
0.31136
0.312518
0.313728
0.314857
0.315677
0.315765
0.314978
0.312726
0.306351
0.302166
0.327287
0.326011
0.324593
0.323006
0.321209
0.319174
0.316911
0.314642
0.312551
0.310657
0.308974
0.307514
0.306284
0.305288
0.304524
0.303987
0.30366
0.303521
0.30353
0.303634
0.303754
0.303778
0.303574
0.302952
0.301522
0.298939
0.294537
0.286734
0.281313
0.326519
0.325107
0.323533
0.32176
0.319744
0.317449
0.314882
0.31229
0.309877
0.30766
0.305649
0.30385
0.302264
0.300887
0.299709
0.298714
0.297878
0.297167
0.296535
0.29592
0.295241
0.294384
0.293209
0.291531
0.288995
0.285221
0.279766
0.272265
0.267124
0.325621
0.324049
0.322288
0.320297
0.318023
0.315426
0.312512
0.309556
0.30679
0.304228
0.301874
0.29973
0.297792
0.296049
0.294486
0.293079
0.291798
0.290605
0.289448
0.288264
0.286972
0.285464
0.28361
0.281254
0.278118
0.273899
0.268484
0.262398
0.258225
0.324576
0.322817
0.320839
0.318592
0.316022
0.313079
0.309773
0.306416
0.303271
0.300346
0.297643
0.29516
0.292885
0.290804
0.288895
0.287131
0.285478
0.283893
0.282327
0.280718
0.278992
0.27706
0.27482
0.272154
0.26886
0.264709
0.259811
0.255167
0.251932
0.323353
0.321375
0.319143
0.316602
0.31369
0.310356
0.306614
0.302822
0.299276
0.29598
0.292933
0.290124
0.287539
0.285157
0.282952
0.280893
0.278944
0.277063
0.275201
0.273304
0.27131
0.269148
0.266738
0.263995
0.260766
0.256882
0.252588
0.249057
0.246601
0.321893
0.319661
0.317134
0.314253
0.310949
0.307174
0.302951
0.298695
0.294734
0.291069
0.28769
0.284583
0.281724
0.279087
0.276642
0.274357
0.27219
0.270103
0.268049
0.26598
0.263844
0.261583
0.259134
0.256427
0.253349
0.249795
0.246095
0.243381
0.241551
0.320104
0.317572
0.314702
0.311426
0.307676
0.303408
0.298661
0.293917
0.289538
0.285518
0.281836
0.278467
0.275382
0.272548
0.269929
0.267486
0.26518
0.26297
0.260814
0.258665
0.25648
0.25421
0.251802
0.249198
0.246317
0.243118
0.239974
0.237855
0.236492
0.317836
0.314949
0.311675
0.307942
0.303685
0.298871
0.293567
0.288326
0.283546
0.279202
0.275262
0.271689
0.268441
0.265477
0.262755
0.260231
0.257864
0.255611
0.25343
0.251281
0.249122
0.246913
0.244609
0.242159
0.239507
0.236664
0.234016
0.232326
0.231292
0.314827
0.311516
0.307769
0.30351
0.298687
0.293287
0.287414
0.281699
0.276564
0.27196
0.267835
0.264136
0.260807
0.257798
0.255056
0.252534
0.250187
0.24797
0.245843
0.243765
0.2417
0.239611
0.237461
0.235204
0.232801
0.230305
0.228086
0.226715
0.225911
0.310667
0.306848
0.302551
0.297704
0.292276
0.286287
0.279882
0.273768
0.268371
0.263611
0.259409
0.255692
0.252389
0.249436
0.246773
0.244346
0.242106
0.240007
0.238008
0.236071
0.23416
0.232244
0.230287
0.228251
0.226117
0.223963
0.22213
0.221008
0.22036
0.304916
0.300552
0.295702
0.290306
0.284364
0.277925
0.271167
0.264845
0.25937
0.254624
0.250504
0.246912
0.243764
0.240983
0.238503
0.236264
0.234215
0.232308
0.230502
0.228759
0.227046
0.225333
0.22359
0.221788
0.219918
0.218068
0.216546
0.215625
0.215086
0.297659
0.292766
0.287489
0.281758
0.275566
0.268958
0.262126
0.255841
0.250489
0.245929
0.24203
0.238682
0.235785
0.233257
0.231026
0.22903
0.227215
0.225535
0.223947
0.222416
0.220909
0.219397
0.217858
0.216274
0.214649
0.213061
0.211776
0.211007
0.210547
0.288265
0.283128
0.277915
0.272328
0.266277
0.259815
0.253162
0.247113
0.242039
0.237783
0.234201
0.231169
0.22858
0.226348
0.224398
0.222667
0.221102
0.219658
0.218293
0.216973
0.215664
0.214338
0.212975
0.211572
0.210154
0.208794
0.207715
0.207079
0.206685
0.275411
0.271432
0.267363
0.262496
0.256938
0.250856
0.24456
0.238883
0.234186
0.230308
0.227096
0.224416
0.222159
0.220236
0.218572
0.217107
0.215788
0.214572
0.213419
0.212295
0.211166
0.21
0.208781
0.207546
0.206371
0.205304
0.204435
0.203855
0.203445
0.320273
0.320583
0.321345
0.322881
0.325007
0.327407
0.329925
0.332499
0.33514
0.337896
0.340812
0.34393
0.347286
0.350918
0.354864
0.359162
0.363847
0.368943
0.374456
0.380365
0.38661
0.393033
0.39933
0.404282
0.406424
0.404532
0.397059
0.381644
0.35001
0.318271
0.318706
0.319583
0.321104
0.323144
0.32547
0.327954
0.330538
0.333232
0.336072
0.339098
0.34235
0.345868
0.349692
0.353867
0.358438
0.363448
0.36893
0.374906
0.381378
0.388331
0.395672
0.403193
0.409757
0.413985
0.415094
0.412547
0.407863
0.411713
0.316218
0.316738
0.317698
0.31921
0.32118
0.323428
0.325858
0.328427
0.331147
0.334045
0.337156
0.340515
0.344165
0.348153
0.35253
0.357351
0.36267
0.368543
0.375019
0.382152
0.390024
0.398714
0.408365
0.418305
0.427688
0.436449
0.445433
0.452532
0.468616
0.314089
0.314588
0.315521
0.317016
0.318988
0.321241
0.323665
0.326231
0.328965
0.331899
0.335067
0.338506
0.342262
0.346386
0.350936
0.355978
0.361584
0.367832
0.374809
0.382634
0.391518
0.401735
0.413916
0.427809
0.443122
0.459063
0.478141
0.49556
0.517498
0.311885
0.312349
0.31323
0.314692
0.316662
0.318925
0.321353
0.323922
0.326664
0.32962
0.332826
0.336323
0.340159
0.34439
0.349082
0.35431
0.360162
0.366739
0.374168
0.382613
0.39244
0.404016
0.418493
0.43558
0.455883
0.476417
0.501772
0.528331
0.557246
0.309609
0.310055
0.310901
0.312322
0.314255
0.316495
0.318907
0.321464
0.324202
0.327162
0.330384
0.333913
0.337799
0.342101
0.34689
0.352253
0.358288
0.365116
0.372898
0.381797
0.392378
0.40487
0.42095
0.439738
0.462591
0.488031
0.516434
0.546469
0.577238
0.307256
0.307691
0.308512
0.309885
0.311763
0.313952
0.316323
0.318848
0.321559
0.3245
0.327713
0.331241
0.335137
0.339464
0.344296
0.349726
0.355861
0.36283
0.370842
0.379937
0.391003
0.403736
0.4208
0.441574
0.465367
0.491598
0.51917
0.547342
0.576046
0.30482
0.305242
0.306034
0.307356
0.309165
0.311289
0.3136
0.316072
0.318734
0.321629
0.324798
0.328288
0.332151
0.33645
0.34126
0.34668
0.352819
0.359788
0.3679
0.376844
0.387954
0.401429
0.418559
0.439477
0.462552
0.487055
0.512005
0.536872
0.561516
0.3023
0.302708
0.303468
0.304729
0.30646
0.308503
0.310736
0.313133
0.315721
0.31854
0.321633
0.325045
0.328827
0.333042
0.337758
0.343081
0.349119
0.355919
0.363809
0.372919
0.383789
0.397079
0.413505
0.433097
0.454176
0.47592
0.497579
0.51883
0.538911
0.299693
0.300088
0.300814
0.302009
0.303648
0.305593
0.307729
0.310029
0.312516
0.31523
0.318212
0.321503
0.325155
0.329229
0.33377
0.338906
0.344717
0.351323
0.358939
0.367768
0.378114
0.390531
0.405616
0.423111
0.441445
0.459822
0.477666
0.495011
0.510841
0.297
0.297379
0.298067
0.299188
0.300727
0.30256
0.304582
0.306762
0.309124
0.311702
0.314536
0.317665
0.321136
0.32502
0.329294
0.334183
0.339704
0.34597
0.353145
0.361362
0.370891
0.382097
0.395421
0.410407
0.425608
0.440312
0.454108
0.46734
0.479127
0.29422
0.294584
0.295232
0.296275
0.297703
0.29941
0.301298
0.303337
0.305547
0.307961
0.310613
0.313538
0.316776
0.320383
0.324408
0.328943
0.334064
0.339847
0.346412
0.353842
0.362343
0.372139
0.383457
0.39573
0.407706
0.41881
0.42879
0.438143
0.446251
0.291359
0.291712
0.292322
0.293283
0.294588
0.29615
0.297883
0.299758
0.301791
0.304011
0.306447
0.30913
0.312095
0.31539
0.319066
0.323182
0.327807
0.332991
0.338822
0.345341
0.35267
0.360917
0.370124
0.379685
0.388605
0.396476
0.403197
0.409292
0.414379
0.288417
0.288755
0.28932
0.290192
0.29137
0.29278
0.294345
0.296038
0.297873
0.299873
0.302064
0.304471
0.307123
0.310059
0.313317
0.316947
0.320996
0.325497
0.330502
0.336015
0.342082
0.348722
0.355845
0.36288
0.36911
0.374292
0.378446
0.38207
0.384979
0.285402
0.285726
0.286245
0.287026
0.288069
0.289316
0.290698
0.292192
0.293808
0.295567
0.297488
0.299588
0.301891
0.304424
0.307217
0.310302
0.313714
0.317465
0.321575
0.326018
0.330786
0.335835
0.341
0.345799
0.349785
0.352858
0.355122
0.357034
0.358591
0.282321
0.282632
0.283106
0.283792
0.284695
0.285769
0.286955
0.288234
0.289614
0.291114
0.292742
0.294509
0.296431
0.298525
0.300809
0.303304
0.306026
0.308972
0.312137
0.315472
0.318937
0.322452
0.32582
0.328689
0.330864
0.332363
0.333324
0.334166
0.335055
0.27918
0.279476
0.2799
0.28049
0.281251
0.282148
0.283131
0.284184
0.285319
0.286543
0.28786
0.289273
0.290789
0.292414
0.294158
0.296026
0.298021
0.300124
0.302311
0.304523
0.3067
0.308752
0.310484
0.311702
0.312446
0.312818
0.31294
0.313188
0.313893
0.275988
0.276272
0.276645
0.277139
0.277757
0.278474
0.279239
0.280066
0.280946
0.281885
0.282877
0.283921
0.285012
0.28615
0.28733
0.288547
0.289788
0.291024
0.292216
0.293299
0.29421
0.294865
0.295094
0.294887
0.294488
0.294056
0.293646
0.293586
0.294371
0.272757
0.273032
0.273355
0.273755
0.274229
0.274748
0.275313
0.275901
0.276519
0.277164
0.277825
0.278489
0.279146
0.279783
0.280386
0.280936
0.281408
0.281761
0.281948
0.2819
0.281557
0.280853
0.279663
0.278166
0.276801
0.275754
0.27498
0.274749
0.275729
0.269496
0.26976
0.270031
0.270336
0.27066
0.27101
0.27136
0.271711
0.272069
0.272419
0.272745
0.273028
0.273246
0.273379
0.273399
0.273278
0.272976
0.272443
0.27162
0.270437
0.268841
0.266786
0.264199
0.26146
0.259201
0.257628
0.256562
0.256209
0.257407
0.266217
0.266463
0.266695
0.266907
0.267094
0.267262
0.267401
0.267523
0.267623
0.267682
0.267678
0.267583
0.267368
0.267
0.266445
0.265659
0.264592
0.26318
0.261353
0.259039
0.256182
0.252756
0.248735
0.244707
0.241521
0.239402
0.238024
0.237523
0.238918
0.26293
0.263164
0.263355
0.263479
0.263529
0.263519
0.263459
0.263358
0.263208
0.262985
0.262659
0.262197
0.261559
0.260706
0.259591
0.258157
0.256343
0.25407
0.251256
0.247815
0.243686
0.238843
0.233292
0.227827
0.223557
0.22076
0.218956
0.218217
0.219767
0.259652
0.259877
0.260027
0.260064
0.259982
0.259804
0.259552
0.259237
0.258848
0.258356
0.257723
0.256909
0.255868
0.254549
0.252896
0.250842
0.248309
0.245206
0.241433
0.236884
0.231476
0.225159
0.21794
0.21079
0.205136
0.201375
0.198896
0.197742
0.199389
0.256389
0.256604
0.256712
0.256664
0.256457
0.256125
0.255696
0.255184
0.254573
0.253829
0.252909
0.251764
0.250342
0.248585
0.246426
0.243788
0.240578
0.236689
0.232
0.226379
0.219706
0.211879
0.202853
0.193721
0.186259
0.181067
0.177466
0.17558
0.177202
0.253156
0.253365
0.253438
0.253312
0.252985
0.252503
0.251909
0.251216
0.250404
0.249431
0.248246
0.246797
0.245025
0.242865
0.240241
0.237065
0.233231
0.228616
0.223076
0.216451
0.208568
0.199249
0.188336
0.176944
0.167175
0.159878
0.154387
0.151204
0.152624
0.249962
0.250159
0.250189
0.249984
0.249547
0.248935
0.248201
0.247357
0.246371
0.245195
0.243775
0.242052
0.239964
0.237442
0.2344
0.23074
0.226347
0.221079
0.214772
0.207234
0.198245
0.187533
0.174793
0.161052
0.148605
0.138474
0.129966
0.1245
0.125526
0.246836
0.247077
0.247122
0.246859
0.246288
0.245503
0.244604
0.243611
0.242475
0.241127
0.239503
0.237545
0.235186
0.23235
0.228948
0.224873
0.219998
0.214169
0.207203
0.198886
0.188952
0.177029
0.162622
0.146607
0.131376
0.117994
0.105422
0.0956011
0.0942725
0.243473
0.226676
0.203334
0.173621
0.140787
0.108796
0.0802721
0.0540795
0.0301345
0.00391634
-0.022773
-0.0544831
-0.0872118
-0.117952
-0.142813
-0.15929
-0.167447
-0.16945
-0.168896
0.250087
0.237219
0.214772
0.184117
0.147836
0.109262
0.0717391
0.0341145
-0.00125568
-0.0406575
-0.0806148
-0.121442
-0.160776
-0.195367
-0.221994
-0.23948
-0.24904
-0.253204
-0.254688
0.244759
0.23295
0.211794
0.181062
0.142625
0.0990996
0.0544921
0.00624179
-0.0420876
-0.091163
-0.140498
-0.188936
-0.233736
-0.271659
-0.300255
-0.319202
-0.330226
-0.335907
-0.338707
0.233974
0.222447
0.203012
0.17295
0.131929
0.083514
0.0311043
-0.0242936
-0.0814756
-0.139555
-0.197579
-0.253564
-0.303952
-0.345256
-0.375558
-0.395382
-0.407176
-0.413788
-0.417513
0.220243
0.209545
0.191406
0.161564
0.118888
0.0671251
0.00930531
-0.0527048
-0.117733
-0.184434
-0.250514
-0.312775
-0.367065
-0.410109
-0.440931
-0.461025
-0.47342
-0.480925
-0.485444
0.202115
0.191801
0.17483
0.145796
0.102824
0.0491037
-0.0125511
-0.0803805
-0.152364
-0.226192
-0.298468
-0.36501
-0.42151
-0.465372
-0.496644
-0.517516
-0.531258
-0.540425
-0.546504
0.1799
0.168667
0.151981
0.123736
0.0810981
0.0263832
-0.0378198
-0.109603
-0.186239
-0.264386
-0.339676
-0.407225
-0.462929
-0.505118
-0.53483
-0.554777
-0.568334
-0.577679
-0.583964
0.154662
0.14149
0.123853
0.0954972
0.0530244
-0.00199933
-0.0672609
-0.140666
-0.219065
-0.298352
-0.373406
-0.439083
-0.491914
-0.5313
-0.559062
-0.578097
-0.59156
-0.60112
-0.607698
0.127332
0.11181
0.0922983
0.0627914
0.019991
-0.0349175
-0.0999153
-0.172879
-0.25039
-0.327776
-0.39948
-0.460592
-0.508599
-0.5439
-0.568814
-0.586197
-0.598896
-0.608135
-0.614542
0.0987866
0.0809607
0.0591882
0.0279003
-0.0156416
-0.0702387
-0.134094
-0.205158
-0.279854
-0.353169
-0.41952
-0.474658
-0.51715
-0.548215
-0.570416
-0.586408
-0.598663
-0.608069
-0.614927
0.0700003
0.0501507
0.0261277
-0.0071191
-0.0516393
-0.105917
-0.168172
-0.236301
-0.306496
-0.373565
-0.432319
-0.479566
-0.515009
-0.540485
-0.558587
-0.571681
-0.581813
-0.589662
-0.595347
0.0421148
0.0206712
-0.00528152
-0.0402208
-0.0855814
-0.139372
-0.199618
-0.26401
-0.328539
-0.388178
-0.43861
-0.47791
-0.506737
-0.52722
-0.54174
-0.552264
-0.560371
-0.566642
-0.571102
0.0161993
-0.00634284
-0.0337255
-0.0697839
-0.115488
-0.16837
-0.226196
-0.286422
-0.344982
-0.397317
-0.440177
-0.472764
-0.496354
-0.513101
-0.525079
-0.533892
-0.540777
-0.546303
-0.550339
-0.00696529
-0.0301659
-0.0584824
-0.0950481
-0.140506
-0.191959
-0.246872
-0.302426
-0.354615
-0.39959
-0.435254
-0.461764
-0.480746
-0.494207
-0.503877
-0.511035
-0.516619
-0.521163
-0.524451
-0.0268616
-0.0503751
-0.0791948
-0.115724
-0.160362
-0.209836
-0.26134
-0.311871
-0.357717
-0.395937
-0.425522
-0.447296
-0.462969
-0.474274
-0.482579
-0.48886
-0.49382
-0.497926
-0.500914
-0.0433191
-0.0669296
-0.0959403
-0.132046
-0.175449
-0.222562
-0.270413
-0.315983
-0.356049
-0.388597
-0.413464
-0.431842
-0.445351
-0.455428
-0.463136
-0.469214
-0.47421
-0.4785
-0.481734
-0.0564946
-0.0801405
-0.109202
-0.144729
-0.186698
-0.2312
-0.275143
-0.315645
-0.350171
-0.377646
-0.398563
-0.414255
-0.426134
-0.435319
-0.442598
-0.448512
-0.453483
-0.457775
-0.461018
-0.0666301
-0.09038
-0.119502
-0.154491
-0.195041
-0.236901
-0.276941
-0.312614
-0.342201
-0.365472
-0.383346
-0.397129
-0.407964
-0.416676
-0.423809
-0.429734
-0.434776
-0.439102
-0.442363
-0.074036
-0.0980695
-0.127408
-0.162112
-0.201523
-0.24103
-0.277543
-0.308969
-0.334411
-0.354316
-0.36985
-0.382207
-0.39228
-0.400646
-0.407665
-0.41358
-0.418648
-0.422977
-0.426241
-0.0790455
-0.103638
-0.133501
-0.168353
-0.207032
-0.24446
-0.277632
-0.305072
-0.326763
-0.343734
-0.357267
-0.368377
-0.377701
-0.3856
-0.392289
-0.397922
-0.402709
-0.406729
-0.409718
-0.0818099
-0.107319
-0.138137
-0.173734
-0.212253
-0.248052
-0.278266
-0.302162
-0.320587
-0.335041
-0.346846
-0.356827
-0.3654
-0.372755
-0.378994
-0.384209
-0.388568
-0.392153
-0.394777
-0.0824095
-0.109272
-0.141592
-0.178631
-0.217612
-0.252247
-0.279872
-0.300593
-0.316086
-0.328242
-0.338384
-0.347175