/*--------------------------------*- C++ -*----------------------------------*\
| =========                 |                                                 |
| \\      /  F ield         | OpenFOAM: The Open Source CFD Toolbox           |
|  \\    /   O peration     | Version:  2312                                  |
|   \\  /    A nd           | Website:  www.openfoam.com                      |
|    \\/     M anipulation  |                                                 |
\*---------------------------------------------------------------------------*/
FoamFile
{
    version     2.0;
    format      ascii;
    arch        "LSB;label=32;scalar=64";
    class       volScalarField;
    location    "41.060178293921474";
    object      p;
}
// * * * * * * * * * * * * * * * * * * * * * * * * * * * * * * * * * * * * * //

dimensions      [0 2 -2 0 0 0 0];

internalField   nonuniform List<scalar> 
21039
(
0.603267
0.469572
0.427273
0.399003
0.377649
0.361527
0.34904
0.339085
0.330981
0.324275
0.31865
0.313878
0.309785
0.30624
0.30314
0.300404
0.297962
0.295758
0.293747
0.291885
0.290139
0.288479
0.286875
0.285397
0.284113
0.282984
0.281965
0.281021
0.280137
0.45627
0.418373
0.404487
0.386101
0.369296
0.355963
0.345163
0.336258
0.328854
0.32264
0.317373
0.312867
0.308978
0.305594
0.302624
0.299992
0.297638
0.29551
0.293562
0.291755
0.290056
0.288434
0.286862
0.285405
0.284129
0.283001
0.281982
0.281039
0.280154
0.366829
0.364404
0.366533
0.359767
0.351284
0.343444
0.336141
0.329554
0.323756
0.318687
0.314259
0.310385
0.306984
0.303985
0.301326
0.29895
0.296811
0.294865
0.293075
0.291406
0.289829
0.288313
0.286834
0.28545
0.284227
0.283136
0.282145
0.281225
0.28036
0.32872
0.330825
0.335271
0.334163
0.331508
0.328248
0.324397
0.320423
0.316592
0.313006
0.30971
0.306714
0.304008
0.301568
0.299366
0.297372
0.295558
0.293892
0.292348
0.290898
0.289516
0.288177
0.286858
0.285609
0.28449
0.28348
0.282552
0.281681
0.280852
0.303713
0.307676
0.313545
0.315231
0.315404
0.314642
0.313065
0.311086
0.308925
0.306707
0.304528
0.302447
0.300494
0.298682
0.297009
0.295468
0.294046
0.292726
0.291491
0.29032
0.289193
0.28809
0.286989
0.285928
0.284956
0.284062
0.283224
0.282421
0.281644
0.284089
0.28934
0.296674
0.300524
0.30251
0.303292
0.303189
0.302579
0.301646
0.300513
0.299282
0.298023
0.296782
0.295587
0.294455
0.293392
0.292396
0.291462
0.290578
0.289732
0.288908
0.288088
0.287255
0.286427
0.285641
0.284892
0.284169
0.283455
0.282742
0.271337
0.276355
0.283439
0.288373
0.291583
0.293509
0.294506
0.294919
0.294923
0.294649
0.2942
0.293649
0.293047
0.292431
0.291823
0.291238
0.290682
0.290156
0.289654
0.289168
0.288686
0.288194
0.287675
0.287126
0.286565
0.285995
0.285413
0.284808
0.284177
0.264061
0.268157
0.273892
0.278837
0.28254
0.28512
0.286854
0.288011
0.288738
0.289154
0.289356
0.289414
0.289381
0.289295
0.289184
0.289067
0.288953
0.288848
0.28875
0.288653
0.28855
0.288426
0.288267
0.288043
0.28775
0.287395
0.286984
0.286512
0.28598
0.259567
0.262762
0.267129
0.271624
0.275328
0.278135
0.280256
0.281883
0.283124
0.284069
0.284797
0.285369
0.285835
0.286231
0.286586
0.286919
0.287242
0.287564
0.287884
0.288201
0.288507
0.28879
0.289037
0.289188
0.289206
0.289105
0.288899
0.288586
0.288175
0.256197
0.258643
0.261971
0.265942
0.269465
0.272295
0.274589
0.276488
0.278069
0.2794
0.280539
0.281537
0.282433
0.28326
0.284045
0.284806
0.285558
0.286306
0.287056
0.287805
0.288548
0.289274
0.289973
0.290548
0.290926
0.291121
0.291156
0.291036
0.29077
0.253251
0.255095
0.257679
0.261146
0.264439
0.267223
0.269595
0.271656
0.273468
0.275083
0.276544
0.277891
0.279156
0.280368
0.281549
0.282716
0.283882
0.285055
0.28624
0.287436
0.288639
0.289842
0.291036
0.292085
0.292872
0.293409
0.293723
0.293838
0.293745
0.250415
0.251813
0.253871
0.256878
0.259929
0.262639
0.26504
0.267203
0.26918
0.271011
0.272731
0.27437
0.275956
0.277511
0.279056
0.280607
0.282174
0.283767
0.28539
0.287044
0.288728
0.290435
0.292162
0.293735
0.294981
0.29591
0.296545
0.296903
0.297009
0.247533
0.248618
0.250311
0.252923
0.255739
0.258358
0.260756
0.262981
0.265077
0.267077
0.269007
0.270894
0.27276
0.274625
0.276506
0.278419
0.280375
0.282381
0.284443
0.286563
0.288738
0.290969
0.293255
0.295388
0.297137
0.298503
0.299511
0.30017
0.300498
0.244534
0.245404
0.246835
0.249118
0.251718
0.254239
0.256613
0.258872
0.261053
0.263183
0.265287
0.267383
0.269494
0.271638
0.273831
0.276087
0.278418
0.280833
0.283333
0.28592
0.28859
0.291345
0.294193
0.29689
0.299159
0.300992
0.302412
0.303417
0.304019
0.241399
0.242119
0.243346
0.245339
0.247731
0.250149
0.25249
0.254764
0.257003
0.259234
0.261475
0.263748
0.266072
0.268463
0.270942
0.273524
0.276221
0.279038
0.281976
0.28503
0.288193
0.291457
0.294831
0.298036
0.300767
0.30303
0.30485
0.306217
0.307124
0.238393
0.239005
0.240072
0.241849
0.244073
0.246394
0.248694
0.250971
0.253249
0.255552
0.257898
0.260309
0.262805
0.265406
0.268135
0.27101
0.274042
0.277237
0.280592
0.284094
0.28772
0.291436
0.29522
0.298724
0.301636
0.304028
0.305995
0.30756
0.308711
0.23583
0.236371
0.237339
0.238979
0.241077
0.243312
0.245576
0.247857
0.250169
0.252529
0.254958
0.257479
0.260115
0.262893
0.265837
0.268968
0.272301
0.275842
0.279587
0.283514
0.28758
0.29171
0.295808
0.299379
0.302047
0.303956
0.305352
0.306482
0.307551
0.233693
0.234189
0.235088
0.236627
0.238627
0.240807
0.243064
0.245368
0.247719
0.250134
0.252638
0.255258
0.258021
0.26096
0.264102
0.267471
0.271088
0.274964
0.279096
0.283461
0.287999
0.292594
0.297061
0.30067
0.302805
0.30348
0.302937
0.301668
0.300741
0.23196
0.232506
0.233425
0.234866
0.236701
0.238776
0.241027
0.243375
0.245782
0.24826
0.250842
0.253562
0.256454
0.259552
0.262887
0.26649
0.27039
0.274604
0.279137
0.283969
0.289044
0.294233
0.299295
0.303271
0.30514
0.3044
0.300704
0.29348
0.282423
0.279283
0.278422
0.277566
0.276714
0.275864
0.275015
0.274166
0.273317
0.272467
0.271614
0.270759
0.2699
0.269037
0.268169
0.267295
0.266415
0.265528
0.264634
0.263733
0.262825
0.261908
0.260984
0.260052
0.259112
0.258165
0.25721
0.256249
0.255281
0.254306
0.253327
0.252342
0.251353
0.25036
0.249365
0.248367
0.247368
0.246368
0.24537
0.244372
0.243378
0.242387
0.241401
0.240421
0.239448
0.238482
0.237525
0.236578
0.235641
0.234714
0.279303
0.278451
0.277606
0.276763
0.275923
0.275084
0.274245
0.273405
0.272564
0.27172
0.270873
0.270022
0.269165
0.268304
0.267436
0.266561
0.265678
0.264788
0.26389
0.262983
0.262067
0.261142
0.260209
0.259268
0.258317
0.257359
0.256393
0.255419
0.254439
0.253452
0.25246
0.251462
0.25046
0.249455
0.248447
0.247438
0.246428
0.245418
0.244409
0.243403
0.2424
0.241401
0.240408
0.239422
0.238443
0.237473
0.236513
0.235564
0.234626
0.27953
0.278703
0.27788
0.27706
0.276241
0.275422
0.274602
0.273781
0.272956
0.272128
0.271294
0.270455
0.269609
0.268756
0.267894
0.267023
0.266144
0.265254
0.264354
0.263444
0.262522
0.261591
0.260648
0.259695
0.258732
0.257759
0.256777
0.255785
0.254785
0.253777
0.252762
0.251741
0.250714
0.249683
0.248648
0.247611
0.246572
0.245532
0.244493
0.243456
0.242421
0.241391
0.240365
0.239346
0.238334
0.237331
0.236337
0.235354
0.234383
0.280058
0.279268
0.278479
0.27769
0.2769
0.276109
0.275315
0.274516
0.273711
0.272901
0.272082
0.271256
0.27042
0.269573
0.268715
0.267846
0.266964
0.26607
0.265162
0.264241
0.263306
0.262359
0.261397
0.260423
0.259436
0.258436
0.257425
0.256402
0.255368
0.254325
0.253273
0.252212
0.251145
0.250071
0.248992
0.247909
0.246823
0.245736
0.244648
0.24356
0.242475
0.241393
0.240314
0.239242
0.238176
0.237118
0.236069
0.23503
0.234003
0.280896
0.280155
0.279409
0.278661
0.277909
0.277151
0.276387
0.275616
0.274835
0.274044
0.273242
0.272428
0.2716
0.270759
0.269902
0.26903
0.268141
0.267236
0.266314
0.265375
0.264419
0.263446
0.262456
0.26145
0.260427
0.259389
0.258336
0.257269
0.256189
0.255096
0.253992
0.252877
0.251753
0.250621
0.249481
0.248336
0.247187
0.246034
0.244879
0.243724
0.24257
0.241417
0.240267
0.239123
0.237984
0.236852
0.235727
0.234613
0.23351
0.282055
0.281374
0.280683
0.279984
0.279278
0.278561
0.277834
0.277095
0.276341
0.275573
0.274789
0.273988
0.273168
0.272329
0.271471
0.270592
0.269692
0.26877
0.267827
0.266862
0.265875
0.264867
0.263839
0.262789
0.261719
0.26063
0.259522
0.258397
0.257255
0.256098
0.254926
0.253741
0.252544
0.251336
0.25012
0.248895
0.247664
0.246428
0.245188
0.243946
0.242704
0.241462
0.240223
0.238987
0.237755
0.23653
0.235312
0.234103
0.232905
0.283564
0.282956
0.28233
0.281691
0.281039
0.280371
0.279687
0.278984
0.278262
0.277519
0.276754
0.275966
0.275153
0.274315
0.273451
0.272561
0.271643
0.270699
0.269726
0.268727
0.267701
0.266647
0.265568
0.264463
0.263333
0.262179
0.261003
0.259804
0.258585
0.257347
0.25609
0.254818
0.25353
0.252229
0.250916
0.249593
0.248261
0.246922
0.245578
0.24423
0.24288
0.241529
0.240179
0.238832
0.237489
0.236151
0.234819
0.233496
0.232185
0.285457
0.284934
0.284385
0.283816
0.283226
0.282615
0.28198
0.281319
0.280632
0.279916
0.279171
0.278396
0.277588
0.276748
0.275875
0.274968
0.274027
0.273052
0.272043
0.271
0.269923
0.268813
0.267671
0.266498
0.265294
0.264061
0.262799
0.261511
0.260198
0.258862
0.257503
0.256124
0.254726
0.253312
0.251882
0.25044
0.248987
0.247524
0.246054
0.244578
0.243099
0.241618
0.240137
0.238657
0.23718
0.235708
0.234242
0.232784
0.23134
0.287758
0.287333
0.286872
0.286383
0.285867
0.285319
0.28474
0.284127
0.283478
0.282793
0.282069
0.281306
0.280502
0.279658
0.278772
0.277843
0.276873
0.27586
0.274806
0.27371
0.272572
0.271395
0.270178
0.268923
0.267631
0.266303
0.264941
0.263546
0.262121
0.260667
0.259186
0.25768
0.256152
0.254602
0.253035
0.251451
0.249852
0.248242
0.246622
0.244995
0.243363
0.241727
0.24009
0.238453
0.236819
0.23519
0.233566
0.231951
0.230352
0.290477
0.290162
0.289802
0.289406
0.288972
0.288499
0.287984
0.287424
0.286819
0.286167
0.285467
0.284718
0.283919
0.283069
0.282168
0.281215
0.280211
0.279155
0.278048
0.276891
0.275684
0.274429
0.273126
0.271776
0.270382
0.268944
0.267465
0.265947
0.26439
0.262799
0.261175
0.259519
0.257836
0.256127
0.254395
0.252643
0.250872
0.249088
0.24729
0.245483
0.243669
0.241849
0.240028
0.238207
0.236388
0.234574
0.232765
0.230968
0.229188
0.293595
0.293404
0.293162
0.29287
0.292533
0.292146
0.291705
0.291209
0.290657
0.290046
0.289376
0.288646
0.287854
0.287002
0.286088
0.285111
0.284073
0.282972
0.281812
0.280589
0.279307
0.277967
0.276569
0.275114
0.273606
0.272044
0.270432
0.268771
0.267064
0.265313
0.263522
0.261691
0.259826
0.257928
0.256001
0.25405
0.252074
0.25008
0.24807
0.246047
0.244016
0.241977
0.239937
0.237895
0.235857
0.233824
0.231797
0.229784
0.227795
0.297052
0.29702
0.296919
0.296711
0.296507
0.296227
0.295875
0.295455
0.294968
0.294413
0.293787
0.293089
0.292319
0.291476
0.29056
0.28957
0.288506
0.287369
0.286159
0.284875
0.28352
0.282095
0.280598
0.279033
0.277402
0.275703
0.273944
0.272123
0.270243
0.268309
0.266322
0.264285
0.262205
0.260081
0.25792
0.255727
0.253502
0.251254
0.248985
0.246699
0.244403
0.242097
0.239789
0.23748
0.235176
0.232879
0.23059
0.228321
0.226082
0.300721
0.300848
0.300907
0.300907
0.300826
0.30066
0.300411
0.300093
0.299703
0.29923
0.298678
0.298042
0.297321
0.296517
0.295626
0.29465
0.293584
0.292432
0.291194
0.289866
0.288451
0.28695
0.285361
0.283687
0.28193
0.280088
0.278168
0.27617
0.274093
0.271947
0.269731
0.267449
0.265108
0.26271
0.260262
0.25777
0.255235
0.252669
0.250075
0.247459
0.244829
0.242188
0.239545
0.236902
0.234267
0.231644
0.229034
0.226452
0.223911
0.304472
0.304783
0.305005
0.305158
0.305234
0.305236
0.305159
0.305
0.304755
0.304418
0.304015
0.303496
0.302886
0.302184
0.301376
0.300466
0.299449
0.298327
0.297103
0.295766
0.294323
0.292773
0.29111
0.289341
0.287464
0.285476
0.283385
0.281189
0.278889
0.276493
0.274002
0.27142
0.268756
0.266011
0.263197
0.26032
0.257385
0.254405
0.251385
0.248337
0.24527
0.242188
0.239108
0.236032
0.232971
0.229931
0.226916
0.223942
0.221027
0.307841
0.308359
0.308795
0.309174
0.30949
0.309742
0.309921
0.310021
0.310036
0.309947
0.309754
0.309454
0.309067
0.308585
0.307942
0.307186
0.306298
0.305282
0.30414
0.302857
0.301442
0.29989
0.298193
0.296358
0.29438
0.292251
0.289983
0.287571
0.285012
0.28232
0.279492
0.276533
0.273457
0.270264
0.26697
0.263585
0.260113
0.256577
0.252982
0.249346
0.245684
0.242004
0.238329
0.234666
0.231033
0.227441
0.223896
0.22042
0.217036
0.309671
0.310364
0.311067
0.311815
0.312573
0.313313
0.313991
0.31458
0.31506
0.315404
0.315615
0.315672
0.315576
0.31533
0.314957
0.314511
0.313837
0.313014
0.312042
0.310898
0.309592
0.308114
0.306449
0.304604
0.302568
0.300329
0.297896
0.295261
0.29242
0.289386
0.286157
0.28274
0.279152
0.275393
0.271488
0.26745
0.263285
0.259025
0.254679
0.250271
0.245821
0.241345
0.236877
0.232431
0.22804
0.223724
0.219503
0.215411
0.211479
0.308701
0.309485
0.310638
0.312145
0.313802
0.315458
0.316987
0.318326
0.319449
0.320337
0.321012
0.321472
0.321743
0.321831
0.321723
0.321443
0.321136
0.320571
0.319834
0.318904
0.317788
0.31647
0.314923
0.31315
0.311131
0.308845
0.306298
0.303475
0.300365
0.296986
0.293335
0.289421
0.285267
0.280877
0.276285
0.27151
0.266564
0.261488
0.256293
0.25101
0.245663
0.240268
0.234868
0.22948
0.224153
0.218928
0.213854
0.209008
0.204454
0.300555
0.3018
0.305095
0.309178
0.313111
0.316549
0.319387
0.321662
0.323459
0.324843
0.325905
0.326683
0.327239
0.327606
0.327786
0.327793
0.327621
0.327407
0.326985
0.326345
0.325512
0.324457
0.323137
0.321545
0.319643
0.317395
0.314797
0.311826
0.308462
0.304728
0.30062
0.296152
0.291362
0.286257
0.280889
0.275287
0.269473
0.263503
0.25739
0.251176
0.244882
0.238519
0.232119
0.225678
0.219236
0.212827
0.206536
0.200565
0.195199
0.27409
0.284767
0.296897
0.306762
0.314043
0.319268
0.322999
0.325716
0.327739
0.329262
0.330435
0.331318
0.331995
0.332504
0.332869
0.333121
0.33322
0.333195
0.33317
0.332871
0.332393
0.331688
0.330692
0.329389
0.327724
0.325626
0.323076
0.320032
0.316467
0.312409
0.307857
0.302836
0.297397
0.291563
0.285403
0.278966
0.272287
0.265442
0.258455
0.25138
0.244241
0.237041
0.229795
0.222447
0.214957
0.207226
0.199161
0.190827
0.18287
0.233808
0.232869
0.231847
0.230729
0.229497
0.228143
0.226693
0.225321
0.224156
0.223227
0.222569
0.22222
0.222196
0.222586
0.223419
0.224761
0.226688
0.229301
0.232726
0.237127
0.242731
0.249849
0.258927
0.270642
0.286092
0.306877
0.334682
0.376535
0.50987
0.233705
0.232749
0.231707
0.230564
0.2293
0.227907
0.226412
0.22499
0.223773
0.22279
0.222073
0.221658
0.22158
0.221884
0.222616
0.223835
0.225611
0.228028
0.231195
0.235249
0.24037
0.246795
0.25483
0.264864
0.277525
0.29375
0.311661
0.325089
0.362655
0.233427
0.232433
0.231345
0.230146
0.228813
0.227334
0.225736
0.224199
0.222861
0.221752
0.220898
0.220331
0.220082
0.220186
0.220679
0.221606
0.223016
0.224966
0.227522
0.230757
0.234752
0.239589
0.245321
0.251869
0.259045
0.266941
0.2732
0.270565
0.272672
0.232989
0.231931
0.230766
0.229476
0.228034
0.226423
0.224666
0.222951
0.221429
0.220124
0.21906
0.218263
0.217753
0.217557
0.217696
0.218196
0.219079
0.220368
0.222077
0.224212
0.226754
0.229649
0.23279
0.235903
0.238509
0.240575
0.241146
0.236181
0.233801
0.232416
0.23127
0.230002
0.228589
0.227
0.225213
0.223246
0.221302
0.219542
0.21799
0.216664
0.215581
0.214757
0.214203
0.21393
0.213943
0.214243
0.214823
0.215662
0.216721
0.217933
0.219195
0.220372
0.221235
0.221362
0.220611
0.218385
0.21203
0.207855
0.231712
0.230456
0.229059
0.227493
0.225723
0.22372
0.221497
0.219276
0.217237
0.215398
0.213774
0.212375
0.211208
0.210277
0.20958
0.209108
0.208848
0.208774
0.208847
0.209013
0.209193
0.209274
0.209124
0.208552
0.207167
0.204627
0.200262
0.19249
0.187082
0.230872
0.229482
0.227929
0.22618
0.224193
0.221933
0.219411
0.216872
0.214517
0.212361
0.210415
0.208683
0.207166
0.205859
0.204753
0.203829
0.203065
0.202425
0.201863
0.201316
0.200704
0.19991
0.198796
0.197176
0.194695
0.190973
0.185567
0.178104
0.172977
0.229884
0.228336
0.226599
0.224633
0.222392
0.219834
0.21697
0.214073
0.211371
0.208876
0.206594
0.204524
0.202661
0.200996
0.19951
0.198182
0.19698
0.195864
0.194785
0.193676
0.192457
0.191021
0.189237
0.186948
0.183877
0.179723
0.174372
0.168331
0.164168
0.22873
0.226996
0.225043
0.222826
0.22029
0.217392
0.214142
0.210852
0.207778
0.204929
0.202305
0.199903
0.197712
0.195716
0.193893
0.192216
0.190648
0.189149
0.187668
0.186142
0.184499
0.182648
0.180487
0.1779
0.174684
0.170613
0.165795
0.161203
0.157973
0.227373
0.225422
0.223219
0.22071
0.217838
0.214554
0.210876
0.20716
0.203694
0.200483
0.197524
0.194807
0.192314
0.190026
0.187916
0.185952
0.184098
0.182311
0.180544
0.17874
0.176838
0.174767
0.172449
0.169796
0.16666
0.162874
0.158677
0.155201
0.152745
0.225753
0.22355
0.221055
0.21821
0.214953
0.211235
0.207086
0.202916
0.199046
0.195477
0.192198
0.189192
0.186437
0.183905
0.181565
0.179384
0.177324
0.175341
0.173392
0.171427
0.169394
0.167236
0.164891
0.162289
0.159321
0.155883
0.152293
0.149637
0.147801
0.223773
0.221273
0.21844
0.215206
0.211509
0.207308
0.202647
0.198002
0.193729
0.189817
0.186247
0.182993
0.180025
0.177307
0.174804
0.172478
0.17029
0.168196
0.166155
0.164123
0.162053
0.1599
0.15761
0.155127
0.152373
0.149307
0.146284
0.144223
0.14285
0.221279
0.218429
0.215198
0.211514
0.207319
0.202584
0.197381
0.192256
0.187597
0.183379
0.179567
0.176122
0.173005
0.170171
0.167579
0.165186
0.162948
0.160825
0.158773
0.156753
0.154724
0.152645
0.150474
0.148161
0.145653
0.142962
0.140442
0.138807
0.13776
0.218004
0.214736
0.211039
0.20684
0.202092
0.196788
0.191034
0.185457
0.180462
0.176002
0.172023
0.16847
0.165288
0.162425
0.159829
0.157452
0.155248
0.153177
0.151192
0.149258
0.147337
0.145394
0.143391
0.141287
0.139047
0.136716
0.134632
0.133312
0.13249
0.21353
0.209764
0.205528
0.200755
0.19542
0.189548
0.183289
0.177337
0.172104
0.16751
0.163475
0.159924
0.156786
0.153996
0.151496
0.149231
0.147151
0.145212
0.143373
0.141595
0.139844
0.138088
0.136294
0.134428
0.132472
0.130495
0.1288
0.127726
0.127057
0.207429
0.203131
0.198361
0.193061
0.187237
0.180944
0.174361
0.168231
0.162946
0.15839
0.154458
0.151053
0.148089
0.145491
0.143191
0.141131
0.139258
0.137526
0.135898
0.134329
0.13279
0.131251
0.129687
0.128068
0.12639
0.124727
0.123343
0.122465
0.1219
0.199814
0.195008
0.189837
0.184234
0.178193
0.171765
0.165141
0.159075
0.153939
0.14959
0.145901
0.142759
0.140065
0.137737
0.135703
0.133901
0.132276
0.130781
0.129396
0.128046
0.126724
0.125399
0.124049
0.122663
0.121241
0.119844
0.118696
0.117963
0.117473
0.190047
0.185035
0.179978
0.174564
0.168704
0.162454
0.156038
0.150232
0.145395
0.14137
0.138016
0.135206
0.132837
0.13082
0.129081
0.127558
0.126198
0.124955
0.123792
0.122669
0.121556
0.120426
0.119262
0.118066
0.11686
0.115695
0.114748
0.114141
0.113713
0.176693
0.172996
0.169189
0.164557
0.159229
0.153386
0.147346
0.14193
0.137486
0.133855
0.130884
0.128441
0.126416
0.12472
0.12328
0.122034
0.12093
0.119924
0.11898
0.118061
0.117136
0.116173
0.115161
0.114142
0.113188
0.112315
0.111571
0.111013
0.110565
0.23018
0.230507
0.231246
0.232709
0.234736
0.237017
0.239398
0.241811
0.244266
0.246804
0.249469
0.252299
0.255328
0.258593
0.262128
0.265972
0.270157
0.274709
0.279637
0.284931
0.290542
0.29634
0.302055
0.306579
0.308538
0.306743
0.299664
0.284932
0.254173
0.228403
0.228852
0.229705
0.231157
0.233099
0.235307
0.237653
0.240077
0.242582
0.245202
0.247973
0.250932
0.254114
0.257559
0.261307
0.2654
0.26988
0.27478
0.280124
0.285922
0.292166
0.298794
0.305622
0.311638
0.315551
0.316633
0.314294
0.310438
0.314751
0.226585
0.227116
0.228053
0.229499
0.231372
0.233505
0.235799
0.238209
0.24074
0.243418
0.246272
0.249335
0.252644
0.256243
0.260178
0.2645
0.269262
0.274515
0.280309
0.286703
0.293778
0.301647
0.310439
0.319628
0.328366
0.336847
0.345327
0.35268
0.369395
0.224699
0.225208
0.226119
0.22755
0.229428
0.231569
0.23386
0.23627
0.238819
0.241534
0.244446
0.247587
0.250999
0.254726
0.258822
0.263347
0.268368
0.273958
0.280202
0.287221
0.295203
0.304492
0.315613
0.328576
0.342708
0.358331
0.37609
0.392518
0.41411
0.222747
0.223221
0.224082
0.225482
0.22736
0.229514
0.231815
0.234233
0.236794
0.239534
0.242487
0.245688
0.249179
0.253009
0.257237
0.261932
0.267174
0.273058
0.279702
0.287287
0.296086
0.306673
0.31985
0.336021
0.354366
0.375278
0.39914
0.422632
0.448999
0.220729
0.221187
0.222014
0.223376
0.225223
0.227359
0.229649
0.232061
0.234624
0.237376
0.240351
0.243588
0.24713
0.25103
0.255351
0.260169
0.265574
0.271678
0.278622
0.286646
0.296024
0.30757
0.322097
0.340334
0.360709
0.384454
0.411713
0.440918
0.470126
0.218642
0.219089
0.219894
0.221214
0.22301
0.225102
0.227358
0.229746
0.232292
0.235034
0.238007
0.241251
0.244811
0.24874
0.253104
0.257983
0.263473
0.269702
0.2768
0.2851
0.29469
0.306762
0.321537
0.340947
0.363106
0.387469
0.413738
0.441046
0.468521
0.216479
0.216914
0.217694
0.218967
0.220702
0.222736
0.224942
0.227287
0.229794
0.232502
0.235445
0.238663
0.242201
0.246111
0.250462
0.255331
0.260812
0.267056
0.274122
0.282545
0.291818
0.303992
0.319256
0.338372
0.35982
0.382607
0.405952
0.429417
0.452784
0.214238
0.21466
0.215412
0.216632
0.218295
0.220257
0.222397
0.224679
0.227126
0.229774
0.232657
0.235813
0.239286
0.243128
0.247402
0.252186
0.257551
0.263694
0.270504
0.278597
0.288079
0.299732
0.314328
0.331944
0.351107
0.371029
0.390963
0.410646
0.429389
0.211916
0.212326
0.213048
0.214209
0.21579
0.217665
0.219719
0.221919
0.224283
0.226844
0.229636
0.232694
0.236059
0.239778
0.24391
0.248533
0.253669
0.259527
0.266182
0.273835
0.282839
0.293588
0.306703
0.322068
0.338285
0.354704
0.370771
0.38651
0.400956
0.209511
0.209908
0.210597
0.211693
0.213183
0.214958
0.216911
0.21901
0.221267
0.223715
0.226385
0.229308
0.232522
0.236067
0.239993
0.244372
0.249253
0.254755
0.261013
0.268069
0.276187
0.285696
0.296944
0.309668
0.322631
0.33526
0.347182
0.358714
0.369026
0.207023
0.207408
0.208062
0.209088
0.210479
0.212141
0.213976
0.215953
0.218082
0.220391
0.222908
0.225662
0.228683
0.232008
0.23568
0.239761
0.244298
0.249355
0.255019
0.261318
0.268393
0.276459
0.285647
0.295558
0.305186
0.314085
0.322048
0.329558
0.33605
0.204457
0.204833
0.205454
0.206408
0.207688
0.209219
0.210917
0.21275
0.214728
0.216874
0.21921
0.221761
0.224552
0.227617
0.230986
0.234707
0.238811
0.243331
0.248302
0.253735
0.259676
0.266198
0.273258
0.280385
0.28685
0.292375
0.296915
0.300999
0.304294
0.201811
0.202173
0.202756
0.203632
0.204797
0.206191
0.20774
0.209415
0.211222
0.213181
0.215312
0.217631
0.220161
0.222925
0.225944
0.22925
0.232856
0.236774
0.241
0.245505
0.250261
0.255227
0.260229
0.264797
0.268486
0.271188
0.272994
0.274425
0.275339
0.19909
0.199441
0.199985
0.200779
0.201823
0.20307
0.204457
0.205958
0.207576
0.209329
0.211234
0.213299
0.215539
0.217969
0.220601
0.223451
0.226517
0.229792
0.233239
0.236793
0.240367
0.243848
0.246972
0.24933
0.250735
0.251227
0.250991
0.250536
0.249895
0.1963
0.196642
0.197147
0.197858
0.198775
0.199864
0.201076
0.20239
0.203803
0.205337
0.206997
0.208786
0.210712
0.212782
0.214997
0.217362
0.219859
0.222463
0.225115
0.227722
0.230162
0.232277
0.233758
0.23429
0.233918
0.232793
0.231151
0.229491
0.228013
0.193444
0.193775
0.194238
0.194864
0.195652
0.196581
0.197612
0.198726
0.199928
0.201229
0.202629
0.204127
0.205722
0.207411
0.209191
0.211051
0.212963
0.214887
0.216748
0.218438
0.219819
0.220712
0.220802
0.219893
0.218223
0.216019
0.213512
0.211202
0.209441
0.190532
0.190853
0.191274
0.191813
0.192471
0.193235
0.194078
0.194986
0.195969
0.197029
0.19816
0.199355
0.200607
0.201907
0.203239
0.204586
0.205909
0.207157
0.208247
0.209067
0.209476
0.209296
0.208238
0.20624
0.203694
0.20086
0.197912
0.195352
0.193685
0.18757
0.187886
0.188266
0.18872
0.189246
0.18984
0.190486
0.191188
0.191947
0.192759
0.193615
0.194502
0.195406
0.19631
0.197192
0.198025
0.198764
0.19935
0.199697
0.199696
0.199214
0.198096
0.196097
0.193301
0.190217
0.187102
0.18403
0.181508
0.180191
0.184567
0.184875
0.185211
0.185579
0.185979
0.186394
0.186861
0.187354
0.187885
0.18845
0.189029
0.189607
0.190163
0.190673
0.19111
0.191438
0.191606
0.191553
0.191191
0.190418
0.18912
0.187171
0.184393
0.181023
0.177667
0.174549
0.171604
0.169349
0.168581
0.18153
0.181833
0.182127
0.182407
0.182672
0.182942
0.183215
0.1835
0.183808
0.184127
0.184435
0.184709
0.184923
0.185049
0.185053
0.184893
0.184515
0.183853
0.182822
0.18133
0.179281
0.176587
0.173142
0.169347
0.165902
0.162987
0.160362
0.158558
0.158524
0.178471
0.178768
0.179026
0.179211
0.17937
0.179478
0.179561
0.179645
0.179736
0.179816
0.179859
0.179839
0.179724
0.179481
0.179071
0.178447
0.177552
0.176319
0.174664
0.172503
0.169759
0.166375
0.162319
0.15816
0.154711
0.152118
0.149946
0.148745
0.149641
0.175397
0.175683
0.175911
0.176047
0.176074
0.176014
0.175916
0.175806
0.175688
0.175539
0.17533
0.175028
0.1746
0.174007
0.173206
0.172148
0.170772
0.169009
0.166779
0.164002
0.160613
0.156574
0.151913
0.147348
0.143848
0.141568
0.139881
0.139375
0.141404
0.172317
0.172596
0.172794
0.17286
0.172766
0.172557
0.172291
0.172001
0.171686
0.171322
0.170876
0.17031
0.169588
0.168668
0.167505
0.166046
0.164229
0.161986
0.159236
0.155903
0.151925
0.147268
0.141984
0.136907
0.133181
0.13104
0.129703
0.129867
0.133181
0.169243
0.169521
0.169693
0.169687
0.169479
0.169127
0.168701
0.168243
0.167748
0.167187
0.166521
0.165712
0.164719
0.1635
0.162007
0.160186
0.157976
0.155306
0.152101
0.148285
0.143793
0.138579
0.132674
0.126946
0.122703
0.120308
0.118897
0.119493
0.124208
0.16618
0.166452
0.166589
0.166511
0.166197
0.165716
0.165153
0.16455
0.163899
0.163161
0.162297
0.161266
0.160027
0.158538
0.15675
0.154609
0.152054
0.149016
0.145424
0.141207
0.1363
0.130637
0.124202
0.117805
0.112805
0.109626
0.107307
0.107678
0.113863
0.163158
0.163474
0.163635
0.163513
0.163073
0.162416
0.16168
0.160928
0.160134
0.159243
0.158206
0.156982
0.155529
0.153805
0.151763
0.149348
0.146502
0.143158
0.139254
0.13473
0.129527
0.123546
0.116674
0.109616
0.103716
0.099371
0.0952535
0.0937205
0.0999443
0.142473
0.122432
0.0946762
0.0586321
0.0172695
-0.0240598
-0.0621299
-0.0968448
-0.129043
-0.161921
-0.195843
-0.233278
-0.271632
-0.307421
-0.336288
-0.355466
-0.365112
-0.367739
-0.367382
0.150741
0.135438
0.109171
0.0727856
0.0283301
-0.0194733
-0.0669726
-0.113539
-0.158642
-0.206559
-0.254395
-0.302401
-0.348286
-0.388359
-0.419108
-0.439303
-0.4504
-0.455313
-0.457122
0.146403
0.132463
0.107796
0.0717746
0.0254207
-0.0271585
-0.0819531
-0.140633
-0.199176
-0.257673
-0.315697
-0.372103
-0.423926
-0.467554
-0.50035
-0.522047
-0.534677
-0.541197
-0.544407
0.136297
0.12284
0.100313
0.0651834
0.0168211
-0.0406043
-0.103274
-0.169475
-0.237256
-0.305463
-0.373085
-0.437831
-0.495823
-0.543199
-0.577881
-0.600528
-0.613987
-0.6215
-0.625701
0.122986
0.110679
0.0898818
0.0554744
0.00607091
-0.0543086
-0.122157
-0.19494
-0.271019
-0.348625
-0.425162
-0.496948
-0.559375
-0.608777
-0.644092
-0.667067
-0.681204
-0.6897
-0.694771
0.104697
0.0931641
0.0740917
0.0412199
-0.00775233
-0.0694712
-0.140755
-0.219313
-0.302695
-0.388022
-0.471381
-0.547977
-0.612939
-0.663304
-0.699141
-0.722983
-0.738616
-0.748935
-0.755712
0.0818832
0.0696816
0.0513788
0.0199788
-0.0279041
-0.0899281
-0.163251
-0.245554
-0.33362
-0.423463
-0.51005
-0.587757
-0.651856
-0.700388
-0.734526
-0.757391
-0.772882
-0.783452
-0.790501
0.0558568
0.0417593
0.0227566
-0.00828335
-0.0553582
-0.117014
-0.190774
-0.274221
-0.363714
-0.454472
-0.540598
-0.616113
-0.676935
-0.722283
-0.754213
-0.776055
-0.791464
-0.802299
-0.809704
0.0276571
0.0111082
-0.0097373
-0.041701
-0.0886496
-0.149591
-0.222415
-0.304758
-0.392746
-0.481016
-0.563151
-0.633376
-0.688638
-0.729285
-0.757945
-0.777899
-0.792443
-0.802921
-0.810145
-0.00181776
-0.0208158
-0.0440186
-0.0777225
-0.125149
-0.185307
-0.256358
-0.336081
-0.420483
-0.50385
-0.579697
-0.642945
-0.691747
-0.727394
-0.752807
-0.771044
-0.784974
-0.795554
-0.803232
-0.0315777
-0.0527283
-0.0783182
-0.114045
-0.162341
-0.221865
-0.290805
-0.36692
-0.44599
-0.522093
-0.589138
-0.643221
-0.683801
-0.712909
-0.733517
-0.748354
-0.759789
-0.768553
-0.774876
-0.0604515
-0.0832747
-0.110902
-0.14839
-0.197481
-0.256306
-0.32284
-0.394621
-0.467195
-0.53478
-0.592227
-0.637073
-0.669915
-0.693152
-0.70953
-0.721319
-0.730344
-0.737244
-0.742127
-0.0873604
-0.111292
-0.14038
-0.178978
-0.228323
-0.286034
-0.349796
-0.416873
-0.482702
-0.541965
-0.590685
-0.627715
-0.654408
-0.673224
-0.686566
-0.696291
-0.703824
-0.709801
-0.714145
-0.111561
-0.136081
-0.16604
-0.205012
-0.253917
-0.309938
-0.370429
-0.432319
-0.491027
-0.541955
-0.582426
-0.61243
-0.633777
-0.648785
-0.659465
-0.667294
-0.673347
-0.678221
-0.681735
-0.132605
-0.157283
-0.187575
-0.226235
-0.273983
-0.327663
-0.384336
-0.440666
-0.492297
-0.535583
-0.569095
-0.593648
-0.611193
-0.623748
-0.632904
-0.639783
-0.645185
-0.64963
-0.652861
-0.150433
-0.174969
-0.205173
-0.24298
-0.288995
-0.339826
-0.39236
-0.44317
-0.488334
-0.525196
-0.553321
-0.573995
-0.589096
-0.600305
-0.608854
-0.615585
-0.621114
-0.625848
-0.629419
-0.165356
-0.189613
-0.219488
-0.256131
-0.300055
-0.347658
-0.39571
-0.44084
-0.479775
-0.510885
-0.534522
-0.55218
-0.56551
-0.575824
-0.58402
-0.590701
-0.596337
-0.601193
-0.604869
-0.177785
-0.201774
-0.231244
-0.266611
-0.308287
-0.35248
-0.395954
-0.435598
-0.468946
-0.495294
-0.515508
-0.531068
-0.543322
-0.553223
-0.561382
-0.568194
-0.574016
-0.579002
-0.582765
-0.188198
-0.212076
-0.241245
-0.275445
-0.314961
-0.355853
-0.395007
-0.429733
-0.458373
-0.480943
-0.49857
-0.512603
-0.524085
-0.53368
-0.541777
-0.548627
-0.554505
-0.559505
-0.563269
-0.197084
-0.221157
-0.250345
-0.283706
-0.321273
-0.358892
-0.393699
-0.423646
-0.447976
-0.467277
-0.482745
-0.495477
-0.506201
-0.515327
-0.523082
-0.529623
-0.53518
-0.539824
-0.54327
-0.204686
-0.22944
-0.259194
-0.292273
-0.328251
-0.36271
-0.393233
-0.418662
-0.439148
-0.455674
-0.469335
-0.480918
-0.490864
-0.499388
-0.506608
-0.512628
-0.517646
-0.521751
-0.524749
-0.211098
-0.237241
-0.268372
-0.301926
-0.336701
-0.368002
-0.394131
-0.415097
-0.43197