/*--------------------------------*- C++ -*----------------------------------*\
| =========                 |                                                 |
| \\      /  F ield         | OpenFOAM: The Open Source CFD Toolbox           |
|  \\    /   O peration     | Version:  2312                                  |
|   \\  /    A nd           | Website:  www.openfoam.com                      |
|    \\/     M anipulation  |                                                 |
\*---------------------------------------------------------------------------*/
FoamFile
{
    version     2.0;
    format      ascii;
    arch        "LSB;label=32;scalar=64";
    class       volScalarField;
    location    "42.01639979626939";
    object      p;
}
// * * * * * * * * * * * * * * * * * * * * * * * * * * * * * * * * * * * * * //

dimensions      [0 2 -2 0 0 0 0];

internalField   nonuniform List<scalar> 
21039
(
0.59408
0.460259
0.418088
0.38985
0.368547
0.35249
0.340082
0.33022
0.322222
0.31564
0.310155
0.305539
0.301622
0.298272
0.295387
0.292886
0.290702
0.288779
0.28707
0.285534
0.284138
0.282852
0.281645
0.280557
0.279617
0.278782
0.278014
0.277283
0.276576
0.446968
0.409101
0.39528
0.376921
0.360171
0.346906
0.336183
0.32737
0.320072
0.31398
0.308851
0.3045
0.300786
0.297595
0.294838
0.292442
0.290344
0.288494
0.286848
0.285367
0.284018
0.282769
0.281596
0.280529
0.279598
0.278765
0.277999
0.277269
0.276562
0.357494
0.355102
0.357272
0.35054
0.342111
0.334334
0.327105
0.320607
0.314912
0.309962
0.305669
0.301947
0.298717
0.295908
0.293459
0.291315
0.289429
0.28776
0.286271
0.284927
0.283698
0.282556
0.281476
0.280484
0.279606
0.278813
0.278077
0.277371
0.276686
0.319331
0.321449
0.325928
0.324858
0.322253
0.319051
0.315271
0.311381
0.307648
0.304175
0.301009
0.29816
0.295619
0.293364
0.291367
0.289601
0.288036
0.286643
0.285397
0.284269
0.283235
0.28227
0.281352
0.280497
0.279727
0.279018
0.278348
0.277695
0.277049
0.29423
0.298202
0.304098
0.305819
0.306036
0.305327
0.303815
0.301914
0.299844
0.297733
0.295676
0.293735
0.291941
0.290305
0.288831
0.287511
0.286333
0.285281
0.284339
0.283488
0.282708
0.281978
0.28128
0.280616
0.279998
0.27941
0.278835
0.278255
0.277664
0.27449
0.27975
0.287103
0.290978
0.293
0.293828
0.293783
0.293243
0.292393
0.291358
0.290241
0.289112
0.28802
0.286994
0.286052
0.285201
0.284441
0.283768
0.283172
0.282641
0.282161
0.281714
0.281285
0.280859
0.280433
0.279996
0.279541
0.279054
0.278534
0.261603
0.266629
0.273722
0.278671
0.281906
0.283869
0.284914
0.285387
0.285464
0.285277
0.28493
0.284499
0.284034
0.283574
0.283145
0.282761
0.282431
0.282156
0.281934
0.281758
0.281616
0.281495
0.281382
0.281239
0.281044
0.280793
0.280486
0.280114
0.279681
0.254169
0.258273
0.264009
0.268956
0.272673
0.275278
0.277048
0.278253
0.27904
0.27953
0.27982
0.279983
0.280072
0.280128
0.280182
0.280251
0.28035
0.280484
0.280655
0.280859
0.281089
0.281333
0.28158
0.281768
0.281846
0.281817
0.281688
0.281457
0.28113
0.249496
0.252699
0.25706
0.261546
0.26525
0.268069
0.270212
0.271872
0.273157
0.274159
0.274959
0.275619
0.276189
0.276709
0.277209
0.27771
0.278229
0.278773
0.279348
0.279953
0.280583
0.281228
0.281879
0.282444
0.282839
0.283073
0.283157
0.283095
0.282896
0.24593
0.248382
0.2517
0.255651
0.25916
0.261986
0.264287
0.266201
0.267809
0.269178
0.270368
0.271431
0.272409
0.273338
0.274244
0.275152
0.276075
0.277026
0.27801
0.27903
0.280082
0.281161
0.282258
0.283244
0.284
0.284544
0.284882
0.285022
0.284979
0.242773
0.244621
0.247191
0.25063
0.253894
0.256659
0.259019
0.261077
0.262894
0.264524
0.266012
0.267398
0.268719
0.270003
0.271277
0.272561
0.273871
0.275219
0.276612
0.278055
0.279548
0.281089
0.28267
0.284128
0.285296
0.28618
0.286799
0.287166
0.287307
0.23972
0.241118
0.243158
0.246129
0.249139
0.251812
0.254181
0.256319
0.258277
0.260097
0.261815
0.263463
0.265071
0.266666
0.268269
0.2699
0.271575
0.273307
0.275104
0.276973
0.278917
0.280938
0.283034
0.285006
0.286632
0.287907
0.288851
0.289477
0.289807
0.236619
0.237702
0.239372
0.241941
0.244703
0.247266
0.249611
0.251787
0.253837
0.255795
0.257691
0.259551
0.261401
0.263264
0.265161
0.26711
0.269128
0.271227
0.273418
0.275709
0.278104
0.280611
0.283238
0.285751
0.287873
0.289585
0.290906
0.291841
0.292409
0.233411
0.234275
0.235679
0.23791
0.240443
0.24289
0.245189
0.247372
0.249476
0.251531
0.253561
0.25559
0.25764
0.259733
0.26189
0.264129
0.266466
0.268915
0.271486
0.274186
0.277021
0.28
0.283142
0.286186
0.288805
0.290973
0.2927
0.293979
0.294821
0.230087
0.230796
0.23199
0.233922
0.236233
0.238558
0.240799
0.242968
0.245098
0.247214
0.24934
0.251498
0.253708
0.255994
0.258375
0.260874
0.263507
0.266288
0.269223
0.272316
0.275569
0.278986
0.282586
0.286081
0.28912
0.29169
0.293801
0.295431
0.296575
0.226936
0.227532
0.228559
0.230266
0.232398
0.234608
0.236785
0.238928
0.241063
0.243213
0.245401
0.247647
0.249975
0.252409
0.254975
0.257695
0.260588
0.263666
0.266934
0.270389
0.274017
0.277796
0.281716
0.285427
0.28858
0.291227
0.293445
0.295247
0.296617
0.22428
0.224802
0.225725
0.227289
0.229284
0.231394
0.233514
0.235637
0.237776
0.23995
0.24218
0.244492
0.24691
0.249463
0.252181
0.25509
0.25821
0.261556
0.265132
0.268925
0.272903
0.277001
0.281136
0.284817
0.287639
0.289724
0.291303
0.292612
0.293859
0.222091
0.222566
0.223415
0.224873
0.226764
0.228805
0.230903
0.233028
0.235181
0.23738
0.239651
0.242022
0.244521
0.247184
0.250044
0.253129
0.256467
0.260076
0.263962
0.268109
0.272472
0.276944
0.281351
0.28497
0.287162
0.287913
0.287449
0.28625
0.285401
0.220336
0.220859
0.221726
0.223082
0.224801
0.226728
0.228806
0.230957
0.233145
0.235383
0.237702
0.240139
0.242727
0.245505
0.248509
0.251775
0.255336
0.259218
0.263435
0.267976
0.272798
0.277781
0.282696
0.286592
0.288425
0.287659
0.283914
0.276579
0.265287
0.275884
0.275188
0.274499
0.273816
0.273136
0.272461
0.271787
0.271115
0.270443
0.269771
0.269098
0.268422
0.267744
0.267062
0.266376
0.265685
0.264988
0.264286
0.263576
0.26286
0.262137
0.261407
0.260669
0.259924
0.259172
0.258413
0.257647
0.256874
0.256095
0.25531
0.254519
0.253724
0.252924
0.25212
0.251314
0.250505
0.249696
0.248885
0.248076
0.247267
0.246461
0.245658
0.24486
0.244066
0.243278
0.242498
0.241725
0.240961
0.240205
0.275874
0.275187
0.274509
0.273836
0.273168
0.272502
0.271839
0.271177
0.270515
0.269852
0.269188
0.268522
0.267852
0.267178
0.266498
0.265814
0.265123
0.264425
0.263719
0.263007
0.262286
0.261557
0.26082
0.260074
0.259321
0.258559
0.25779
0.257013
0.25623
0.255439
0.254642
0.25384
0.253033
0.252222
0.251407
0.25059
0.24977
0.24895
0.24813
0.247311
0.246494
0.245679
0.244869
0.244063
0.243264
0.242471
0.241687
0.240911
0.240144
0.276021
0.275361
0.274707
0.274059
0.273413
0.272771
0.272129
0.271488
0.270845
0.270201
0.269553
0.268902
0.268245
0.267582
0.266913
0.266236
0.265551
0.264857
0.264154
0.263441
0.262718
0.261986
0.261243
0.26049
0.259728
0.258955
0.258173
0.257382
0.256583
0.255775
0.25496
0.254138
0.253309
0.252476
0.251638
0.250796
0.249951
0.249105
0.248258
0.247411
0.246566
0.245722
0.244882
0.244047
0.243217
0.242393
0.241577
0.24077
0.239972
0.276422
0.275802
0.275185
0.274571
0.273959
0.273348
0.272735
0.272121
0.271503
0.270881
0.270253
0.269619
0.268976
0.268326
0.267665
0.266994
0.266313
0.26562
0.264914
0.264197
0.263466
0.262723
0.261967
0.261199
0.260418
0.259625
0.25882
0.258004
0.257177
0.256339
0.255493
0.254637
0.253774
0.252904
0.252027
0.251146
0.25026
0.249371
0.248481
0.247589
0.246698
0.245807
0.24492
0.244036
0.243156
0.242282
0.241415
0.240556
0.239705
0.277088
0.27652
0.275952
0.275383
0.274813
0.27424
0.273664
0.273082
0.272494
0.271897
0.271292
0.270676
0.270049
0.26941
0.268758
0.268091
0.26741
0.266713
0.266001
0.265273
0.264529
0.263769
0.262992
0.2622
0.261391
0.260568
0.25973
0.258877
0.258011
0.257133
0.256242
0.25534
0.254428
0.253507
0.252578
0.251642
0.250701
0.249754
0.248804
0.247851
0.246898
0.245944
0.244992
0.244042
0.243095
0.242154
0.241217
0.240288
0.239367
0.278023
0.277521
0.277012
0.276499
0.275981
0.275456
0.274923
0.27438
0.273827
0.273261
0.272681
0.272087
0.271476
0.270849
0.270203
0.269539
0.268856
0.268152
0.267429
0.266685
0.26592
0.265135
0.26433
0.263505
0.26266
0.261796
0.260913
0.260013
0.259097
0.258164
0.257216
0.256254
0.25528
0.254294
0.253297
0.252292
0.251278
0.250258
0.249232
0.248203
0.24717
0.246136
0.245103
0.24407
0.243039
0.242012
0.240989
0.239972
0.238964
0.27925
0.278826
0.27839
0.277944
0.277487
0.277019
0.276538
0.276041
0.275528
0.274997
0.274446
0.273875
0.273282
0.272667
0.272028
0.271364
0.270675
0.269961
0.269221
0.268455
0.267663
0.266846
0.266003
0.265136
0.264244
0.263329
0.262391
0.261431
0.26045
0.25945
0.258431
0.257395
0.256343
0.255277
0.254197
0.253105
0.252003
0.250893
0.249774
0.24865
0.247522
0.24639
0.245257
0.244123
0.24299
0.24186
0.240733
0.239611
0.238498
0.280795
0.280463
0.280111
0.279743
0.27936
0.278957
0.278536
0.278092
0.277625
0.277133
0.276615
0.27607
0.275496
0.274892
0.274257
0.273592
0.272894
0.272165
0.271403
0.27061
0.269784
0.268926
0.268037
0.267118
0.266169
0.265191
0.264186
0.263153
0.262095
0.261014
0.259909
0.258783
0.257638
0.256474
0.255294
0.254099
0.25289
0.251671
0.250442
0.249204
0.247961
0.246712
0.24546
0.244206
0.242953
0.2417
0.24045
0.239204
0.237969
0.282673
0.282446
0.282191
0.281913
0.281613
0.281287
0.280934
0.280551
0.280136
0.279689
0.279208
0.278691
0.278137
0.277546
0.276916
0.276247
0.275539
0.27479
0.274003
0.273175
0.272309
0.271404
0.270461
0.26948
0.268464
0.267412
0.266326
0.265209
0.264059
0.262881
0.261675
0.260443
0.259186
0.257907
0.256608
0.255291
0.253957
0.252609
0.251247
0.249876
0.248496
0.247109
0.245717
0.244322
0.242926
0.24153
0.240136
0.238746
0.237368
0.284883
0.284769
0.284623
0.284451
0.284248
0.28401
0.283736
0.283422
0.283069
0.282673
0.282234
0.281751
0.281221
0.280645
0.280021
0.27935
0.27863
0.277862
0.277046
0.276182
0.27527
0.274312
0.273308
0.272258
0.271165
0.270029
0.268853
0.267636
0.266382
0.265092
0.263767
0.262411
0.261025
0.259611
0.258171
0.25671
0.255226
0.253725
0.252208
0.250678
0.249137
0.247586
0.24603
0.244468
0.242904
0.24134
0.239777
0.23822
0.236676
0.287406
0.28745
0.287376
0.287329
0.287238
0.2871
0.286918
0.286687
0.286407
0.286073
0.285687
0.285246
0.284749
0.284196
0.283585
0.282917
0.282191
0.281407
0.280566
0.279666
0.27871
0.277698
0.27663
0.275507
0.274332
0.273103
0.271825
0.270499
0.269125
0.267707
0.266247
0.264746
0.263208
0.261635
0.26003
0.258397
0.256736
0.255054
0.25335
0.25163
0.249896
0.24815
0.246396
0.244636
0.242873
0.24111
0.239346
0.237592
0.235855
0.290067
0.290288
0.290446
0.290548
0.290587
0.290503
0.290434
0.290304
0.290112
0.289858
0.289542
0.289162
0.288715
0.288203
0.287622
0.286974
0.286256
0.28547
0.284616
0.283692
0.282701
0.281641
0.280513
0.279319
0.27806
0.276735
0.275349
0.273902
0.272394
0.270832
0.269215
0.267546
0.26583
0.264067
0.262265
0.260425
0.258549
0.256645
0.254714
0.252761
0.250791
0.248805
0.246811
0.244808
0.242803
0.240798
0.238795
0.236803
0.234835
0.292864
0.293243
0.293551
0.293806
0.294006
0.294141
0.294207
0.294205
0.294085
0.29395
0.293743
0.293464
0.293104
0.292668
0.292152
0.291558
0.290881
0.290124
0.289286
0.288363
0.287359
0.286272
0.285099
0.283846
0.28251
0.281091
0.279594
0.278018
0.276364
0.274637
0.272839
0.270972
0.269042
0.26705
0.265003
0.262907
0.260763
0.25858
0.256362
0.254116
0.251847
0.249558
0.24726
0.244952
0.242644
0.240339
0.238037
0.235755
0.233505
0.295512
0.296087
0.296583
0.297021
0.297394
0.297703
0.297944
0.298116
0.298216
0.298232
0.298165
0.298163
0.297936
0.297633
0.297243
0.296762
0.296184
0.29551
0.294741
0.293867
0.292894
0.291817
0.290633
0.289346
0.287953
0.28645
0.284845
0.283134
0.281317
0.279403
0.277389
0.275281
0.273085
0.270802
0.268444
0.266016
0.26352
0.260972
0.258374
0.255738
0.253073
0.250383
0.247683
0.244976
0.242273
0.239579
0.236897
0.234247
0.231646
0.297534
0.298326
0.299053
0.299737
0.300373
0.300962
0.301496
0.301968
0.302372
0.302693
0.302926
0.303058
0.303096
0.303068
0.302946
0.302688
0.30231
0.301816
0.301203
0.300459
0.29959
0.298591
0.297452
0.296178
0.294764
0.293202
0.2915
0.289653
0.287657
0.285523
0.283249
0.280838
0.278302
0.27564
0.272869
0.269996
0.267025
0.263978
0.26086
0.257688
0.254476
0.251231
0.247978
0.244722
0.241482
0.238267
0.235083
0.231955
0.228906
0.297813
0.298782
0.299783
0.300851
0.301952
0.303059
0.304128
0.30513
0.306043
0.306843
0.30753
0.308085
0.308508
0.308795
0.308951
0.309028
0.308992
0.308788
0.308433
0.307915
0.307246
0.306414
0.305403
0.304217
0.302843
0.301267
0.299498
0.297525
0.295341
0.292959
0.290374
0.287592
0.284628
0.281482
0.278176
0.274722
0.271127
0.267421
0.263611
0.259721
0.255773
0.25178
0.247777
0.243776
0.239811
0.235903
0.232069
0.228347
0.22477
0.295224
0.296273
0.297725
0.299566
0.301591
0.303648
0.305606
0.307402
0.309007
0.310403
0.31161
0.312627
0.313477
0.31417
0.314698
0.315064
0.315251
0.315594
0.315528
0.315304
0.314922
0.31435
0.31356
0.312551
0.311301
0.309784
0.308006
0.30595
0.3036
0.300973
0.298063
0.294876
0.291435
0.287741
0.283827
0.27971
0.275402
0.270942
0.26634
0.261629
0.25683
0.251961
0.247063
0.242154
0.237284
0.232492
0.227829
0.22337
0.219182
0.285351
0.286846
0.290472
0.294939
0.299295
0.303188
0.306505
0.309286
0.311612
0.313551
0.315197
0.316587
0.317783
0.31882
0.319706
0.320469
0.321055
0.321482
0.3219
0.322088
0.322098
0.321901
0.321449
0.320732
0.319712
0.318345
0.316628
0.314532
0.312034
0.309155
0.305886
0.302241
0.298252
0.293927
0.289314
0.28444
0.279328
0.274031
0.268562
0.262964
0.257256
0.25145
0.24558
0.239644
0.233682
0.227729
0.22187
0.216308
0.211324
0.256734
0.267863
0.28049
0.290866
0.298666
0.304414
0.308676
0.311938
0.314528
0.316644
0.318439
0.319979
0.321348
0.322585
0.323713
0.324773
0.325736
0.326579
0.327294
0.327989
0.328444
0.328703
0.328687
0.328371
0.327698
0.326596
0.32504
0.322985
0.320396
0.317297
0.313686
0.309581
0.305033
0.300061
0.29473
0.28909
0.283172
0.277053
0.270756
0.264333
0.25781
0.251191
0.244492
0.237663
0.230665
0.22341
0.21581
0.207938
0.200423
0.239468
0.238712
0.237909
0.23705
0.236122
0.235121
0.234075
0.233115
0.232339
0.231777
0.231463
0.231424
0.231717
0.232379
0.233465
0.235037
0.237177
0.239981
0.243578
0.248134
0.253875
0.261113
0.270295
0.2821
0.297627
0.318476
0.34634
0.388147
0.521667
0.239392
0.238621
0.237799
0.236916
0.235957
0.234918
0.233827
0.232819
0.231992
0.231376
0.231004
0.230909
0.231129
0.231707
0.232693
0.234143
0.236129
0.238737
0.242075
0.246283
0.251539
0.258083
0.266221
0.276344
0.289078
0.305363
0.323336
0.336781
0.37437
0.239188
0.238381
0.237515
0.236577
0.235551
0.23443
0.233238
0.232116
0.23117
0.230427
0.229918
0.229671
0.229718
0.230094
0.230837
0.231993
0.233611
0.235749
0.238473
0.241859
0.245986
0.250939
0.256772
0.263406
0.270653
0.278607
0.284923
0.28233
0.28445
0.238867
0.237999
0.23706
0.236036
0.234905
0.233656
0.232309
0.231012
0.229882
0.228945
0.228224
0.227744
0.227529
0.227601
0.227987
0.228712
0.229799
0.231271
0.233144
0.235425
0.238095
0.241103
0.24434
0.247534
0.25021
0.252332
0.252953
0.248028
0.245669
0.238454
0.237502
0.236465
0.235324
0.234053
0.232633
0.231081
0.229558
0.228193
0.227008
0.226024
0.225257
0.224723
0.224434
0.224403
0.224635
0.225133
0.22589
0.226887
0.228086
0.229421
0.23079
0.232058
0.232998
0.233189
0.23249
0.230306
0.223981
0.219819
0.237957
0.236901
0.235742
0.234455
0.23301
0.231381
0.22958
0.227784
0.226141
0.22467
0.223384
0.222297
0.221416
0.220744
0.220282
0.220022
0.219952
0.220048
0.220272
0.220571
0.220865
0.221046
0.22098
0.220478
0.219152
0.216658
0.212326
0.204574
0.199176
0.237378
0.236196
0.234889
0.233427
0.231774
0.229896
0.227803
0.225693
0.223735
0.221945
0.220334
0.218909
0.21767
0.216615
0.215735
0.215014
0.21443
0.21395
0.213529
0.213106
0.212599
0.211896
0.210858
0.2093
0.206867
0.203183
0.197801
0.190352
0.185234
0.236716
0.235384
0.233901
0.232233
0.230334
0.228168
0.225739
0.223275
0.22097
0.218838
0.216885
0.215114
0.21352
0.212096
0.210825
0.209687
0.208653
0.207685
0.206734
0.205736
0.204612
0.203255
0.201536
0.199299
0.196267
0.19214
0.186802
0.180768
0.176614
0.23596
0.234451
0.232763
0.230854
0.228672
0.226174
0.223366
0.220511
0.217831
0.215339
0.213037
0.210922
0.208986
0.207216
0.205593
0.20409
0.202675
0.201308
0.199939
0.198509
0.196946
0.195162
0.193053
0.190505
0.187316
0.18326
0.178444
0.173854
0.170633
0.235086
0.233372
0.231445
0.229255
0.226746
0.223872
0.22064
0.217358
0.214281
0.211418
0.208766
0.20632
0.204065
0.201984
0.200053
0.198244
0.196522
0.194847
0.193173
0.191447
0.189608
0.187587
0.185306
0.182679
0.179556
0.175772
0.171567
0.168089
0.165641
0.234051
0.232096
0.229889
0.227375
0.22449
0.221189
0.217487
0.213746
0.210255
0.207017
0.204026
0.201269
0.198728
0.196378
0.194192
0.19214
0.190186
0.188291
0.186412
0.184502
0.182512
0.180385
0.178059
0.175466
0.172497
0.169048
0.165443
0.16278
0.160951
0.232778
0.230539
0.228004
0.225111
0.221795
0.218013
0.213796
0.209568
0.205655
0.202051
0.198742
0.195707
0.19292
0.190352
0.187971
0.185741
0.183629
0.181593
0.179594
0.177591
0.175539
0.173394
0.171104
0.168612
0.165841
0.162753
0.159707
0.157636
0.156267
0.231141
0.228562
0.225639
0.222304
0.218495
0.214176
0.209405
0.204675
0.200346
0.196401
0.192812
0.189546
0.18657
0.183845
0.181333
0.178997
0.176797
0.174695
0.172653
0.170631
0.168591
0.166496
0.164301
0.16196
0.15942
0.156693
0.154143
0.152495
0.151448
0.228904
0.225917
0.222535
0.218688
0.214322
0.209423
0.204076
0.198857
0.194149
0.189914
0.186106
0.182679
0.179585
0.176778
0.174213
0.171845
0.169634
0.167541
0.165527
0.163556
0.161593
0.159604
0.157554
0.1554
0.153109
0.150731
0.14861
0.147271
0.146446
0.225695
0.222213
0.218294
0.213868
0.208901
0.203407
0.197511
0.191861
0.186853
0.182417
0.178486
0.174992
0.171876
0.169078
0.166547
0.164233
0.162093
0.160084
0.15817
0.156314
0.154485
0.152652
0.150783
0.148845
0.14682
0.144783
0.143043
0.141945
0.141268
0.221022
0.217005
0.212541
0.20757
0.202085
0.196123
0.189841
0.183935
0.178793
0.174313
0.170403
0.166976
0.163956
0.161277
0.158879
0.156709
0.154718
0.152865
0.151112
0.149424
0.147771
0.146125
0.144458
0.142745
0.140981
0.139247
0.13781
0.136902
0.136326
0.214845
0.210305
0.205418
0.200112
0.194363
0.188205
0.181803
0.175874
0.170792
0.166432
0.162679
0.159433
0.156607
0.154128
0.15193
0.149958
0.148164
0.146504
0.14494
0.143439
0.141971
0.14051
0.139036
0.137536
0.136014
0.134536
0.133329
0.132561
0.132057
0.206472
0.201707
0.196899
0.191735
0.186108
0.180057
0.173778
0.168016
0.163143
0.159018
0.155516
0.152525
0.149952
0.147717
0.145755
0.144008
0.142428
0.140973
0.139606
0.138294
0.137007
0.135717
0.134409
0.133084
0.131766
0.130512
0.129501
0.128855
0.12841
0.194526
0.190985
0.187354
0.182906
0.177744
0.172026
0.166038
0.160576
0.156008
0.152194
0.148998
0.146302
0.144007
0.142034
0.140317
0.138799
0.137433
0.136178
0.135
0.133865
0.132742
0.131599
0.130427
0.129265
0.128189
0.127222
0.126409
0.12581
0.125343
0.218552
0.218856
0.219539
0.220914
0.222818
0.224945
0.227141
0.229343
0.231561
0.233836
0.236212
0.238727
0.241417
0.244322
0.247481
0.250936
0.254726
0.258884
0.26343
0.26836
0.273639
0.279148
0.284628
0.288983
0.290814
0.288892
0.281631
0.266613
0.235263
0.216787
0.217212
0.218007
0.219367
0.221183
0.223229
0.225381
0.227581
0.229833
0.232171
0.23463
0.237247
0.240059
0.243108
0.246438
0.250096
0.254128
0.258576
0.263471
0.268834
0.274671
0.280928
0.287435
0.293209
0.296927
0.297851
0.295351
0.291393
0.295842
0.214997
0.215502
0.21638
0.21773
0.219473
0.221439
0.22353
0.225705
0.227968
0.230345
0.232865
0.235559
0.238468
0.241636
0.245112
0.248951
0.253211
0.25795
0.263231
0.269119
0.275712
0.283132
0.291532
0.300448
0.308972
0.31736
0.325845
0.333282
0.35046
0.213155
0.213638
0.214487
0.21582
0.217563
0.219531
0.221612
0.223777
0.226043
0.228438
0.230993
0.233741
0.23672
0.239979
0.243573
0.247565
0.252028
0.257041
0.262703
0.269142
0.27657
0.28533
0.295987
0.308689
0.322579
0.338119
0.356121
0.372632
0.394903
0.211266
0.211713
0.212509
0.213808
0.215548
0.217525
0.219609
0.22177
0.224035
0.226438
0.229013
0.231792
0.234819
0.238143
0.241825
0.245936
0.250562
0.255803
0.261792
0.268716
0.276894
0.286858
0.299488
0.315439
0.333511
0.354104
0.378806
0.402087
0.428109
0.20933
0.209759
0.210521
0.211779
0.213485
0.215439
0.217506
0.219652
0.221906
0.224304
0.22688
0.22967
0.232717
0.236074
0.239804
0.243986
0.248713
0.254105
0.26032
0.267587
0.276303
0.28709
0.300994
0.319065
0.339284
0.362451
0.389615
0.419053
0.448814
0.207344
0.207761
0.208499
0.209714
0.211366
0.213274
0.215302
0.217416
0.219641
0.222014
0.224569
0.227341
0.230376
0.233725
0.237454
0.241644
0.246396
0.251834
0.258137
0.265542
0.274514
0.285564
0.299892
0.318162
0.340286
0.364556
0.390728
0.418316
0.446206
0.205302
0.205706
0.206418
0.207585
0.209175
0.211023
0.212997
0.215061
0.217239
0.219564
0.22207
0.224794
0.227777
0.231072
0.234743
0.238871
0.243555
0.248917
0.255146
0.262434
0.271395
0.281885
0.296398
0.314549
0.335717
0.358318
0.381535
0.405044
0.428596
0.203203
0.203594
0.204276
0.205389
0.206909
0.208684
0.210589
0.212586
0.214695
0.216948
0.219379
0.222019
0.224911
0.228102
0.231655
0.235643
0.240161
0.245308
0.25129
0.258169
0.266547
0.276985
0.290539
0.307128
0.325635
0.345052
0.364635
0.384126
0.402859
0.201045
0.201424
0.202076
0.20313
0.204568
0.206256
0.208076
0.209988
0.212008
0.214165
0.21649
0.219014
0.221772
0.224809
0.22818
0.231948
0.236203
0.240999
0.246522
0.252993
0.26066
0.270133
0.281986
0.296083
0.311314
0.32694
0.342401
0.357712
0.371914
0.198827
0.199191
0.19981
0.2008
0.202149
0.203741
0.205461
0.207271
0.209181
0.211219
0.21341
0.215783
0.218367
0.221201
0.22433
0.227804
0.231694
0.236079
0.241057
0.246842
0.25353
0.261514
0.271228
0.28241
0.2941
0.305667
0.316717
0.327561
0.337364
0.196548
0.1969
0.197484
0.198407
0.19966
0.201142
0.202749
0.204438
0.206219
0.208114
0.210146
0.212336
0.214709
0.217295
0.220128
0.22325
0.226718
0.230589
0.234898
0.239768
0.245259
0.251579
0.258949
0.267033
0.275085
0.282626
0.28943
0.295973
0.301688
0.194214
0.194557
0.19511
0.195962
0.19711
0.198468
0.199942
0.201493
0.203125
0.204856
0.206703
0.208682
0.210809
0.213107
0.215604
0.218324
0.221297
0.224553
0.228087
0.231934
0.236114
0.240685
0.245651
0.250646
0.255202
0.259047
0.262125
0.264959
0.267212
0.191824
0.192153
0.192669
0.193447
0.194486
0.195715
0.197049
0.198449
0.199916
0.201464
0.203105
0.204847
0.206702
0.208682
0.210802
0.213072
0.215495
0.21807
0.220766
0.223551
0.226373
0.229179
0.231804
0.233915
0.235347
0.236034
0.236066
0.23596
0.235568
0.189383
0.189701
0.190179
0.190881
0.191806
0.192897
0.19408
0.195317
0.196605
0.197955
0.199373
0.200861
0.202423
0.204061
0.205775
0.20756
0.209401
0.211265
0.213095
0.214807
0.216286
0.217392
0.217853
0.217415
0.216207
0.214337
0.212007
0.209723
0.20751
0.186897
0.187205
0.187647
0.188272
0.189078
0.190024
0.191046
0.192108
0.193206
0.194347
0.19553
0.196751
0.198003
0.19928
0.200568
0.201849
0.203089
0.204232
0.205192
0.205848
0.20604
0.205571
0.204104
0.201496
0.198142
0.194293
0.190219
0.186425
0.183103
0.184369
0.184666
0.185069
0.185615
0.186303
0.187102
0.187959
0.18884
0.189742
0.190668
0.191608
0.192551
0.193484
0.19439
0.195244
0.196016
0.196653
0.197081
0.197192
0.19684
0.195836
0.19395
0.190815
0.186417
0.181383
0.17607
0.170769
0.165995
0.162097
0.181806
0.182094
0.182459
0.182926
0.183495
0.184145
0.184834
0.185529
0.186234
0.18694
0.187634
0.188297
0.188909
0.189443
0.189867
0.190135
0.190183
0.189921
0.189226
0.187935
0.185846
0.182715
0.178174
0.17234
0.166034
0.15968
0.153543
0.148154
0.14402
0.179218
0.1795
0.179828
0.180221
0.180669
0.181165
0.18168
0.182193
0.182699
0.183186
0.183633
0.184019
0.184314
0.184485
0.184489
0.184271
0.183755
0.18284
0.181393
0.179244
0.176185
0.171975
0.166263
0.1593
0.152054
0.144983
0.138287
0.132524
0.128361
0.176609
0.176883
0.177172
0.177494
0.177825
0.178161
0.17852
0.178852
0.179162
0.179433
0.179641
0.179757
0.179746
0.179568
0.179172
0.178495
0.177453
0.175936
0.173804
0.170884
0.166973
0.161837
0.15516
0.147321
0.139406
0.131878
0.124833
0.118876
0.114827
0.173987
0.174257
0.174505
0.174765
0.174951
0.175183
0.175368
0.175522
0.175644
0.175708
0.175687
0.175547
0.175248
0.174744
0.173979
0.172882
0.171363
0.169306
0.166569
0.162977
0.158333
0.152416
0.144954
0.136446
0.128079
0.1203
0.113078
0.107079
0.103287
0.17136
0.171628
0.171838
0.172014
0.172135
0.172212
0.172233
0.17222
0.172162
0.172032
0.171797
0.171419
0.170856
0.170056
0.168958
0.167487
0.165549
0.163025
0.15977
0.155612
0.150357
0.143798
0.135701
0.126679
0.118016
0.110144
0.102889
0.0969995
0.0936473
0.168738
0.168997
0.169193
0.169305
0.169323
0.169255
0.169127
0.168958
0.168733
0.168423
0.167992
0.167399
0.166598
0.165535
0.164147
0.162355
0.160063
0.157153
0.153478
0.148868
0.143131
0.136064
0.127462
0.118025
0.109141
0.101261
0.0940651
0.0884343
0.0857684
0.166126
0.16638
0.166553
0.166604
0.166516
0.166322
0.16606
0.16575
0.165375
0.164905
0.164299
0.163516
0.162508
0.16122
0.159587
0.157532
0.15496
0.151751
0.147764
0.142829
0.136756
0.129334
0.120365
0.110593
0.101499
0.0935991
0.086462
0.0811825
0.0794577
0.163533
0.163788
0.163941
0.163933
0.163746
0.163434
0.163046
0.162608
0.162102
0.161492
0.160736
0.159791
0.158609
0.157137
0.155311
0.153056
0.150279
0.146868
0.142687
0.137572
0.131335
0.12375
0.114599
0.104592
0.0952546
0.0871953
0.0799305
0.0749748
0.0745005
0.160964
0.161213
0.161337
0.161269
0.160995
0.160578
0.160085
0.159544
0.158932
0.158207
0.157327
0.156249
0.154929
0.153315
0.151348
0.148958
0.146059
0.142547
0.138297
0.133162
0.126962
0.119468
0.110424
0.100436
0.0909359
0.0825467
0.0746904
0.069637
0.0706496
0.158442
0.15874
0.158894
0.158792
0.158406
0.157836
0.157206
0.156558
0.155856
0.155041
0.154065
0.152888
0.151467
0.149756
0.147703
0.145242
0.142299
0.138783
0.134589
0.129594
0.123643
0.116507
0.107862
0.0981776
0.0887033
0.0799713
0.0710923
0.0647481
0.0663843
0.162854
0.145403
0.120969
0.0894128
0.0536188
0.0182854
-0.0138336
-0.0432369
-0.0701775
-0.098737
-0.128138
-0.161769
-0.196465
-0.22898
-0.255229
-0.272621
-0.281281
-0.283515
-0.283059
0.171671
0.158919
0.135689
0.103608
0.0646299
0.0229423
-0.0182668
-0.0592203
-0.0980872
-0.140741
-0.183587
-0.227005
-0.268704
-0.305234
-0.333282
-0.351683
-0.361773
-0.366227
-0.367861
0.168334
0.156909
0.135074
0.103262
0.0623554
0.0160368
-0.032216
-0.0842162
-0.136326
-0.188875
-0.241338
-0.292651
-0.339963
-0.379881
-0.40991
-0.429785
-0.441374
-0.447387
-0.450375
0.159515
0.148331
0.128425
0.0973715
0.0545068
0.0034756
-0.0522765
-0.11141
-0.172392
-0.234094
-0.295561
-0.354693
-0.407781
-0.451192
-0.482981
-0.503762
-0.516156
-0.52314
-0.527088
0.147488
0.137362
0.119223
0.0888309
0.044806
-0.00923544
-0.0700809
-0.135623
-0.204453
-0.274993
-0.344814
-0.410481
-0.467639
-0.512874
-0.545222
-0.566311
-0.579364
-0.587299
-0.592086
0.130987
0.121587
0.105113
0.0760991
0.0322871
-0.0232294
-0.0875436
-0.15869
-0.234453
-0.312249
-0.388425
-0.4585
-0.517927
-0.563997
-0.596816
-0.618733
-0.633217
-0.642896
-0.649309
0.11043
0.100365
0.0845678
0.0568375
0.0138971
-0.0420808
-0.108504
-0.183306
-0.263546
-0.34557
-0.424684
-0.495664
-0.554166
-0.598456
-0.62967
-0.650684
-0.665053
-0.674982
-0.681658
0.0869005
0.0750394
0.0585553
0.0310963
-0.011182
-0.0669471
-0.133933
-0.209926
-0.291563
-0.37441
-0.452981
-0.521778
-0.577123
-0.618406
-0.647569
-0.667655
-0.681971
-0.692163
-0.699178
0.0613162
0.0471941
0.0290133
0.000686907
-0.0415072
-0.0966813
-0.162892
-0.237927
-0.318168
-0.398613
-0.473325
-0.537061
-0.587158
-0.624055
-0.650197
-0.668556
-0.682089
-0.691963
-0.698817
0.0345315
0.0181925
-0.0021089
-0.032002
-0.0746113
-0.129062
-0.193644
-0.266243
-0.34309
-0.418851
-0.487571
-0.544725
-0.588797
-0.621084
-0.644266
-0.661081
-0.674078
-0.684069
-0.691356
0.00748306
-0.0107659
-0.0331725
-0.0648414
-0.108166
-0.161955
-0.224507
-0.293652
-0.365389
-0.434212
-0.494608
-0.543199
-0.579683
-0.605989
-0.624799
-0.638524
-0.649245
-0.657566
-0.663599
-0.0187433
-0.0384267
-0.062578
-0.0957367
-0.139654
-0.192653
-0.252815
-0.317739
-0.383212
-0.443919
-0.495303
-0.535349
-0.564759
-0.585745
-0.600734
-0.611701
-0.620226
-0.626833
-0.631537
-0.043147
-0.0637084
-0.0890373
-0.123048
-0.167022
-0.218805
-0.276187
-0.336499
-0.395461
-0.448268
-0.491512
-0.524381
-0.548213
-0.565216
-0.577474
-0.586573
-0.593733
-0.599483
-0.60368
-0.0650336
-0.0859544
-0.111879
-0.146037
-0.18941
-0.239425
-0.293534
-0.348756
-0.400861
-0.445806
-0.481424
-0.507909
-0.526939
-0.540537
-0.550405
-0.557782
-0.563575
-0.56829
-0.571702
-0.0839997
-0.104836
-0.130821
-0.164473
-0.206582
-0.254235
-0.304574
-0.354392
-0.399752
-0.437576
-0.46685
-0.488447
-0.504101
-0.515519
-0.524016
-0.530514
-0.535678
-0.539959
-0.543076
-0.100013
-0.120428
-0.146035
-0.178662
-0.218989
-0.263851
-0.310191
-0.354736
-0.394033
-0.425966
-0.450397
-0.468555
-0.482052
-0.492266
-0.50019
-0.506504
-0.511722
-0.516198
-0.519571
-0.11339
-0.133174
-0.158114
-0.189397
-0.227621
-0.26939
-0.311495
-0.350738
-0.38433
-0.41111
-0.431593
-0.447126
-0.459074
-0.468478
-0.476044
-0.482252
-0.487495
-0.492014
-0.495425
-0.124572
-0.143615
-0.167721
-0.197498
-0.233473
-0.272052
-0.309963
-0.344254
-0.372896
-0.395535
-0.41308
-0.426812
-0.437813
-0.446816
-0.454288
-0.460543
-0.46588
-0.470447
-0.473887
-0.134085
-0.15237
-0.175597
-0.203864
-0.237649
-0.273222
-0.307347
-0.337405
-0.362055
-0.381522
-0.396896
-0.409321
-0.419624
-0.428301
-0.435646
-0.441857
-0.447172
-0.451685
-0.455075
-0.142493
-0.160082
-0.182527
-0.209406
-0.241097
-0.273734
-0.304221
-0.330408
-0.351625
-0.368499
-0.382134
-0.393469
-0.403089
-0.411307
-0.418293
-0.424177
-0.429159
-0.433315
-0.436391
-0.150204
-0.167264
-0.189166
-0.21489
-0.244633
-0.274452
-0.301559
-0.324378
-0.342799
-0.357642
-0.3699
-0.380292
-0.389214
-0.396856
-0.40332
-0.4087
-0.413171
-0.41682
-0.419477
-0.157538
-0.174383
-0.196151
-0.221002
-0.248841
-0.275802
-0.299636