/*--------------------------------*- C++ -*----------------------------------*\
| =========                 |                                                 |
| \\      /  F ield         | OpenFOAM: The Open Source CFD Toolbox           |
|  \\    /   O peration     | Version:  2312                                  |
|   \\  /    A nd           | Website:  www.openfoam.com                      |
|    \\/     M anipulation  |                                                 |
\*---------------------------------------------------------------------------*/
FoamFile
{
    version     2.0;
    format      ascii;
    arch        "LSB;label=32;scalar=64";
    class       volScalarField;
    location    "21.220281795439643";
    object      p;
}
// * * * * * * * * * * * * * * * * * * * * * * * * * * * * * * * * * * * * * //

dimensions      [0 2 -2 0 0 0 0];

internalField   nonuniform List<scalar> 
21039
(
0.67875
0.545049
0.50284
0.474602
0.453289
0.437211
0.424769
0.414859
0.406799
0.400136
0.394554
0.389821
0.385765
0.382255
0.379186
0.376476
0.374056
0.371869
0.369868
0.368012
0.366264
0.364595
0.362975
0.361475
0.360166
0.35901
0.357965
0.356996
0.356087
0.5317
0.493869
0.480047
0.461691
0.444933
0.431648
0.420894
0.412034
0.404676
0.398506
0.393281
0.388816
0.384965
0.381616
0.378677
0.376073
0.373742
0.371631
0.369695
0.367894
0.366193
0.364563
0.362976
0.361496
0.360196
0.359041
0.357996
0.357027
0.356117
0.442248
0.439883
0.442074
0.435348
0.426918
0.419127
0.411872
0.405333
0.399582
0.39456
0.390176
0.386345
0.382985
0.380023
0.377397
0.375051
0.372936
0.37101
0.369234
0.367573
0.365996
0.364473
0.36298
0.361574
0.360326
0.359209
0.358192
0.357246
0.356356
0.404121
0.406263
0.410778
0.409729
0.407133
0.403926
0.400127
0.396204
0.392424
0.388887
0.385639
0.382689
0.380027
0.377627
0.375463
0.373503
0.371716
0.370074
0.368547
0.367107
0.365728
0.364384
0.363053
0.361784
0.36064
0.359605
0.358652
0.357755
0.356902
0.379079
0.383066
0.38901
0.390771
0.39101
0.390307
0.388788
0.386865
0.384759
0.382596
0.38047
0.37844
0.376535
0.374768
0.373138
0.371635
0.370247
0.368955
0.367742
0.366585
0.365466
0.36436
0.36325
0.36217
0.361176
0.360257
0.359394
0.358567
0.357764
0.359413
0.364679
0.372092
0.376026
0.378087
0.378935
0.378896
0.37835
0.377479
0.376407
0.375235
0.374033
0.372847
0.371706
0.370623
0.369605
0.368649
0.36775
0.366894
0.366068
0.365256
0.364439
0.363599
0.362756
0.361949
0.361177
0.36043
0.359691
0.358954
0.346617
0.351642
0.358802
0.363828
0.367121
0.369121
0.370191
0.370674
0.370748
0.370542
0.370161
0.369676
0.369138
0.368583
0.368033
0.367503
0.366996
0.366513
0.366047
0.365589
0.365127
0.364643
0.364122
0.363561
0.362982
0.36239
0.361785
0.361156
0.360501
0.33929
0.343386
0.349192
0.354232
0.358026
0.360688
0.362503
0.363739
0.364545
0.365039
0.365318
0.365452
0.365494
0.365481
0.36544
0.365389
0.365336
0.365285
0.365233
0.365175
0.365099
0.364992
0.364838
0.364607
0.364297
0.363922
0.363488
0.362994
0.36244
0.334735
0.337927
0.342356
0.346948
0.350749
0.353646
0.355855
0.357571
0.3589
0.359934
0.360751
0.361413
0.361967
0.36245
0.362888
0.363301
0.3637
0.36409
0.364471
0.364838
0.365183
0.365495
0.365755
0.365904
0.365908
0.365788
0.365559
0.365228
0.364801
0.331291
0.33373
0.337114
0.341181
0.344804
0.347731
0.350122
0.352119
0.3538
0.355232
0.356475
0.357576
0.358576
0.359507
0.360393
0.361252
0.362096
0.362932
0.363759
0.364576
0.365375
0.366143
0.366867
0.367448
0.367816
0.367993
0.368001
0.367849
0.367556
0.328251
0.330088
0.332721
0.336281
0.339677
0.342566
0.345043
0.347213
0.349137
0.350867
0.352447
0.353914
0.355302
0.356637
0.357939
0.359226
0.360508
0.36179
0.363076
0.364363
0.365644
0.366909
0.368146
0.369214
0.369999
0.370522
0.370812
0.370883
0.370749
0.325299
0.326689
0.32879
0.331889
0.335045
0.337865
0.34038
0.342664
0.344766
0.346727
0.348583
0.350362
0.352091
0.353793
0.355485
0.357181
0.358892
0.360624
0.362379
0.364153
0.365942
0.367738
0.369531
0.371142
0.3724
0.373323
0.373944
0.374279
0.374345
0.322269
0.323348
0.32508
0.327782
0.330706
0.333442
0.335963
0.338319
0.340554
0.342701
0.344787
0.346836
0.34887
0.350907
0.352965
0.355056
0.357191
0.359373
0.361603
0.363878
0.366194
0.368544
0.370928
0.373123
0.374903
0.376277
0.377279
0.377921
0.378222
0.319091
0.319954
0.321423
0.323794
0.326506
0.329149
0.331656
0.334058
0.336393
0.338689
0.340968
0.343251
0.345558
0.347905
0.350309
0.352784
0.355336
0.357969
0.360681
0.363468
0.366321
0.369236
0.372216
0.375006
0.377325
0.379179
0.380597
0.381586
0.382159
0.315739
0.316452
0.317716
0.319798
0.322305
0.324851
0.327333
0.329763
0.332172
0.334587
0.337027
0.339512
0.342062
0.344694
0.347427
0.350272
0.353237
0.356324
0.359527
0.362835
0.366234
0.36971
0.373263
0.376595
0.379398
0.381694
0.383521
0.384875
0.385753
0.312498
0.313101
0.314203
0.316069
0.318412
0.320867
0.323317
0.325761
0.328223
0.330728
0.333295
0.335945
0.338698
0.341579
0.344605
0.34779
0.351142
0.354663
0.358344
0.362164
0.366091
0.370081
0.374099
0.37777
0.380777
0.383214
0.385192
0.386745
0.387865
0.309711
0.310243
0.311244
0.312972
0.315191
0.317566
0.319987
0.322444
0.324952
0.32753
0.330198
0.332982
0.335906
0.338997
0.342276
0.345762
0.349464
0.353387
0.35752
0.361832
0.366269
0.37074
0.375134
0.378916
0.3817
0.383656
0.385055
0.386159
0.387191
0.307369
0.307855
0.308785
0.310413
0.312535
0.314859
0.317279
0.319767
0.322324
0.324968
0.327728
0.33063
0.333708
0.336989
0.3405
0.344263
0.348297
0.352609
0.35719
0.362006
0.366986
0.371997
0.37683
0.380699
0.382968
0.383675
0.383101
0.381769
0.380768
0.305455
0.30599
0.306938
0.308464
0.310422
0.312646
0.315066
0.317604
0.320224
0.322942
0.325793
0.328814
0.332041
0.335506
0.33924
0.343273
0.347633
0.352333
0.357373
0.362722
0.368313
0.373995
0.379503
0.383806
0.385839
0.385111
0.381304
0.373875
0.362616
0.355208
0.354322
0.353438
0.352558
0.351678
0.350799
0.34992
0.349038
0.348155
0.347268
0.346378
0.345483
0.344582
0.343676
0.342763
0.341843
0.340916
0.339981
0.339037
0.338085
0.337125
0.336156
0.335178
0.334191
0.333197
0.332194
0.331184
0.330167
0.329143
0.328112
0.327077
0.326036
0.324991
0.323943
0.322892
0.321839
0.320786
0.319732
0.318681
0.317631
0.316585
0.315543
0.314507
0.313477
0.312455
0.311442
0.310438
0.309443
0.30846
0.355241
0.354363
0.35349
0.35262
0.35175
0.35088
0.35001
0.349138
0.348263
0.347385
0.346502
0.345615
0.344722
0.343822
0.342914
0.341999
0.341076
0.340144
0.339203
0.338252
0.337292
0.336323
0.335344
0.334355
0.333357
0.332351
0.331336
0.330313
0.329282
0.328245
0.327201
0.326151
0.325097
0.324039
0.322978
0.321914
0.32085
0.319785
0.318721
0.317659
0.3166
0.315546
0.314497
0.313454
0.312418
0.311391
0.310374
0.309368
0.308372
0.355501
0.354648
0.353798
0.352949
0.352101
0.351251
0.3504
0.349545
0.348687
0.347824
0.346955
0.346079
0.345195
0.344303
0.343402
0.342491
0.341569
0.340637
0.339694
0.338739
0.337773
0.336795
0.335806
0.334806
0.333795
0.332773
0.33174
0.330698
0.329647
0.328588
0.327521
0.326447
0.325367
0.324282
0.323193
0.3221
0.321006
0.319911
0.318816
0.317722
0.316631
0.315544
0.314461
0.313384
0.312315
0.311254
0.310202
0.309161
0.308132
0.356082
0.355265
0.354449
0.353631
0.352812
0.351989
0.351163
0.350331
0.349493
0.348647
0.347792
0.346928
0.346053
0.345167
0.344269
0.343358
0.342434
0.341496
0.340543
0.339577
0.338597
0.337602
0.336593
0.33557
0.334533
0.333483
0.332421
0.331346
0.330261
0.329164
0.328059
0.326944
0.325822
0.324693
0.323558
0.32242
0.321277
0.320133
0.318987
0.317842
0.316699
0.315558
0.314422
0.31329
0.312166
0.311049
0.30994
0.308842
0.307755
0.356992
0.356223
0.35545
0.354672
0.35389
0.353101
0.352304
0.351498
0.350683
0.349856
0.349017
0.348164
0.347297
0.346414
0.345516
0.344601
0.343669
0.342719
0.341751
0.340766
0.339762
0.33874
0.337701
0.336644
0.335571
0.334481
0.333375
0.332255
0.331121
0.329973
0.328814
0.327643
0.326463
0.325273
0.324077
0.322874
0.321666
0.320455
0.319241
0.318026
0.316812
0.315599
0.314389
0.313184
0.311984
0.310791
0.309606
0.308431
0.307266
0.358242
0.357533
0.356813
0.356084
0.355347
0.354598
0.353838
0.353063
0.352274
0.351468
0.350646
0.349805
0.348944
0.348063
0.347161
0.346238
0.345293
0.344325
0.343334
0.34232
0.341284
0.340226
0.339146
0.338044
0.336921
0.335778
0.334616
0.333435
0.332237
0.331023
0.329793
0.32855
0.327295
0.326028
0.324751
0.323466
0.322175
0.320878
0.319577
0.318273
0.316969
0.315665
0.314363
0.313064
0.31177
0.310482
0.309201
0.307928
0.306667
0.359863
0.359224
0.358569
0.357899
0.357215
0.356514
0.355796
0.355057
0.354298
0.353516
0.352711
0.351881
0.351026
0.350144
0.349236
0.348299
0.347334
0.346341
0.345319
0.344269
0.343191
0.342085
0.340951
0.339792
0.338606
0.337396
0.336162
0.334905
0.333628
0.33233
0.331013
0.32968
0.328331
0.326968
0.325592
0.324206
0.322811
0.321408
0.32
0.318587
0.317173
0.315757
0.314342
0.312929
0.31152
0.310117
0.308719
0.30733
0.305953
0.36189
0.361332
0.360752
0.360152
0.35953
0.358884
0.358214
0.357516
0.35679
0.356034
0.355248
0.354429
0.353577
0.352691
0.351771
0.350816
0.349825
0.348799
0.347737
0.346641
0.34551
0.344344
0.343146
0.341915
0.340652
0.33936
0.338038
0.336689
0.335314
0.333915
0.332493
0.331049
0.329587
0.328108
0.326613
0.325104
0.323584
0.322054
0.320517
0.318973
0.317426
0.315876
0.314327
0.312778
0.311232
0.309691
0.308156
0.306629
0.305116
0.364339
0.363874
0.363391
0.362871
0.362319
0.361736
0.361121
0.360469
0.359781
0.359054
0.358286
0.357479
0.356628
0.355736
0.3548
0.353821
0.352798
0.351731
0.350621
0.349469
0.348274
0.347037
0.34576
0.344444
0.34309
0.341699
0.340273
0.338815
0.337324
0.335804
0.334256
0.332682
0.331085
0.329467
0.327829
0.326175
0.324506
0.322825
0.321134
0.319435
0.317731
0.316022
0.314313
0.312604
0.310897
0.309195
0.307498
0.30581
0.304138
0.36725
0.366918
0.366532
0.366054
0.365589
0.365092
0.364542
0.363941
0.363294
0.362599
0.361853
0.361057
0.360208
0.359306
0.358352
0.357345
0.356284
0.355171
0.354005
0.352788
0.35152
0.350201
0.348834
0.34742
0.34596
0.344455
0.342908
0.341321
0.339694
0.338033
0.336337
0.33461
0.332854
0.331071
0.329265
0.327439
0.325593
0.323733
0.321859
0.319976
0.318085
0.316189
0.314291
0.312392
0.310496
0.308604
0.306718
0.304843
0.302987
0.370573
0.370352
0.370076
0.369758
0.369391
0.368966
0.368479
0.367929
0.367343
0.366687
0.365964
0.365181
0.364335
0.363426
0.362454
0.361419
0.360319
0.359157
0.357933
0.356646
0.355298
0.35389
0.352423
0.3509
0.349321
0.347687
0.346002
0.344268
0.342486
0.34066
0.338793
0.336885
0.334943
0.332966
0.33096
0.328929
0.326872
0.324798
0.322706
0.320602
0.318489
0.316368
0.314245
0.31212
0.309999
0.307883
0.305773
0.303678
0.301607
0.374336
0.374257
0.374104
0.373891
0.373616
0.373279
0.372883
0.372426
0.371897
0.371289
0.370596
0.369846
0.369019
0.368115
0.367136
0.366082
0.364952
0.363747
0.362469
0.361116
0.359689
0.358191
0.356621
0.354981
0.353274
0.351499
0.349661
0.347762
0.345801
0.343786
0.341718
0.339598
0.337434
0.335226
0.332981
0.330702
0.328391
0.326056
0.323699
0.321325
0.318941
0.316546
0.314149
0.311751
0.309357
0.306971
0.304593
0.302235
0.299908
0.378411
0.378494
0.378489
0.378413
0.378263
0.378037
0.377736
0.377356
0.376899
0.376364
0.375751
0.375051
0.374265
0.373395
0.372436
0.371392
0.370256
0.369031
0.367719
0.366315
0.364823
0.363243
0.361574
0.35982
0.357981
0.356056
0.354052
0.351968
0.349806
0.347572
0.345268
0.342897
0.340466
0.337976
0.335437
0.332852
0.330224
0.327565
0.324875
0.322164
0.319439
0.316701
0.313961
0.311222
0.30849
0.30577
0.303063
0.300384
0.297747
0.382575
0.382841
0.383011
0.383105
0.383117
0.383049
0.382896
0.382657
0.382334
0.38192
0.381417
0.380819
0.380126
0.379335
0.378449
0.377472
0.376375
0.375173
0.373868
0.372449
0.370922
0.369286
0.367537
0.36568
0.363714
0.361636
0.359453
0.357166
0.354772
0.352282
0.349696
0.347017
0.344256
0.341413
0.338499
0.335523
0.332486
0.329405
0.326282
0.32313
0.319959
0.316772
0.313586
0.310404
0.307237
0.304091
0.300969
0.297889
0.294871
0.386431
0.386898
0.387277
0.387594
0.387841
0.388018
0.388117
0.388131
0.388055
0.387877
0.387597
0.387203
0.386699
0.386079
0.385332
0.384465
0.383513
0.382414
0.381179
0.379802
0.378293
0.376646
0.374854
0.372922
0.370846
0.36862
0.366252
0.36374
0.361081
0.358286
0.355355
0.352292
0.349111
0.345811
0.34241
0.338916
0.335335
0.331688
0.327981
0.324232
0.320456
0.316661
0.31287
0.30909
0.305341
0.301632
0.297969
0.294375
0.290876
0.388782
0.389415
0.39005
0.390725
0.391403
0.392058
0.392647
0.393142
0.393521
0.39376
0.393861
0.393808
0.39361
0.393267
0.392774
0.392136
0.391339
0.390406
0.389357
0.388103
0.386689
0.385106
0.383337
0.381387
0.379245
0.3769
0.37436
0.371619
0.368669
0.365527
0.362188
0.358661
0.35496
0.351088
0.347068
0.342913
0.33863
0.334251
0.329783
0.325252
0.320679
0.316078
0.311485
0.306911
0.302392
0.297948
0.293597
0.289374
0.285313
0.388291
0.389002
0.390075
0.391501
0.393075
0.394643
0.396077
0.397315
0.398328
0.399099
0.399651
0.399981
0.400119
0.400078
0.399862
0.39949
0.398944
0.398229
0.397361
0.396339
0.395101
0.393665
0.392004
0.390117
0.387984
0.385584
0.382924
0.379988
0.376766
0.373274
0.369508
0.365478
0.361207
0.356698
0.351985
0.347086
0.342014
0.33681
0.331485
0.32607
0.32059
0.315062
0.309528
0.304005
0.298543
0.293182
0.287971
0.282983
0.278286
0.380504
0.381647
0.384871
0.388898
0.392771
0.396136
0.398883
0.401053
0.402729
0.403981
0.404902
0.405531
0.405931
0.406136
0.406159
0.406035
0.40575
0.405314
0.404716
0.403953
0.403002
0.401817
0.400369
0.398653
0.396631
0.394265
0.391552
0.388467
0.384991
0.381144
0.376922
0.37234
0.367431
0.362206
0.356713
0.350983
0.345037
0.338931
0.33268
0.326324
0.319886
0.313378
0.306834
0.300252
0.293672
0.287129
0.280704
0.274594
0.269072
0.354203
0.364766
0.376956
0.386866
0.394138
0.399308
0.402947
0.405545
0.407428
0.408796
0.4098
0.410508
0.411003
0.411325
0.4115
0.411567
0.411512
0.411358
0.411079
0.410612
0.410054
0.409192
0.408047
0.406602
0.404802
0.402579
0.39991
0.396752
0.393074
0.388903
0.384238
0.3791
0.373541
0.367582
0.361293
0.35472
0.3479
0.340908
0.33377
0.326539
0.31924
0.311879
0.304473
0.296971
0.289338
0.281487
0.273335
0.264947
0.256929
0.307497
0.306496
0.305404
0.304204
0.302875
0.301406
0.299824
0.298311
0.297006
0.29594
0.295149
0.294668
0.294534
0.2948
0.295517
0.296747
0.298571
0.301085
0.304418
0.308734
0.31426
0.321307
0.330321
0.341981
0.357384
0.378132
0.405916
0.447701
0.581073
0.307394
0.306376
0.305263
0.304037
0.302676
0.301167
0.299539
0.297975
0.296618
0.295498
0.294649
0.294104
0.293902
0.294085
0.294702
0.295811
0.297482
0.299801
0.302875
0.306844
0.311886
0.318239
0.326211
0.336189
0.348801
0.364985
0.382878
0.39627
0.433798
0.307118
0.306061
0.3049
0.303616
0.302184
0.300588
0.298854
0.297173
0.295694
0.294445
0.293457
0.292759
0.292384
0.292366
0.292742
0.293558
0.294862
0.296712
0.299175
0.302323
0.306238
0.311002
0.316669
0.323161
0.330286
0.338139
0.344376
0.34172
0.343795
0.306682
0.305559
0.304321
0.302944
0.301399
0.299669
0.297772
0.29591
0.294243
0.292797
0.291595
0.290664
0.290026
0.289704
0.289725
0.290111
0.290887
0.292074
0.293688
0.295734
0.298194
0.301016
0.30409
0.307143
0.309698
0.311719
0.31226
0.307273
0.304878
0.306112
0.304899
0.303554
0.302052
0.300358
0.298448
0.296337
0.29424
0.292332
0.290634
0.289167
0.287948
0.286989
0.286309
0.285914
0.285812
0.286002
0.286477
0.287218
0.288187
0.289315
0.2905
0.291607
0.292408
0.292481
0.291681
0.289418
0.283034
0.278845
0.305411
0.304085
0.302608
0.30095
0.29907
0.296939
0.294567
0.292189
0.289996
0.288007
0.286237
0.284697
0.283394
0.282333
0.28151
0.28092
0.280546
0.280365
0.280338
0.28041
0.280502
0.280503
0.28028
0.279641
0.278198
0.275606
0.271195
0.263387
0.257964
0.304574
0.303111
0.301475
0.299629
0.297528
0.295134
0.292457
0.289753
0.287238
0.284927
0.28283
0.280952
0.279295
0.277854
0.276619
0.275574
0.274693
0.273943
0.273277
0.272634
0.27193
0.271053
0.269861
0.26817
0.265623
0.261843
0.256384
0.248881
0.243739
0.303592
0.301967
0.300141
0.298074
0.295712
0.293014
0.289987
0.286918
0.284049
0.281392
0.278953
0.276733
0.274726
0.272922
0.271305
0.269851
0.268529
0.2673
0.266113
0.264904
0.263591
0.262066
0.260199
0.257834
0.254691
0.250469
0.245055
0.23897
0.234796
0.302444
0.300629
0.298583
0.296257
0.293595
0.290548
0.287126
0.283656
0.280407
0.277389
0.274603
0.272045
0.269705
0.267566
0.265607
0.2638
0.26211
0.260494
0.258902
0.257272
0.25553
0.253586
0.251337
0.248666
0.24537
0.241221
0.236329
0.231689
0.228452
0.301095
0.299057
0.296755
0.294131
0.291124
0.287682
0.283822
0.279916
0.276267
0.27288
0.269752
0.266873
0.264226
0.261791
0.259541
0.257444
0.255464
0.253557
0.251675
0.249763
0.247758
0.245589
0.243176
0.240432
0.237207
0.233331
0.229048
0.225522
0.223065
0.299483
0.297187
0.294586
0.291618
0.288216
0.284331
0.279988
0.275617
0.271555
0.267801
0.264347
0.261173
0.258258
0.255575
0.253092
0.250775
0.248585
0.246479
0.244412
0.242334
0.240194
0.237932
0.235486
0.232785
0.229717
0.226176
0.222491
0.219784
0.217952
0.297509
0.29491
0.291962
0.288595
0.284744
0.280362
0.275496
0.270638
0.266162
0.262057
0.258305
0.254878
0.251745
0.248873
0.246223
0.243758
0.241437
0.239217
0.237055
0.234906
0.232724
0.23046
0.228063
0.225472
0.222607
0.219427
0.216302
0.214192
0.212827
0.295019
0.292061
0.288705
0.284878
0.280516
0.275587
0.270164
0.264813
0.259941
0.255521
0.251519
0.247897
0.244611
0.24162
0.238878
0.236343
0.23397
0.231718
0.229542
0.227402
0.225255
0.223061
0.220775
0.218346
0.215718
0.2129
0.210273
0.208593
0.207558
0.29174
0.288355
0.284521
0.280166
0.275236
0.269723
0.263733
0.257916
0.252697
0.248027
0.243852
0.240117
0.236764
0.23374
0.230993
0.228473
0.226133
0.22393
0.221819
0.219762
0.217719
0.215656
0.213532
0.211304
0.208932
0.206467
0.204273
0.202912
0.202107
0.287252
0.283355
0.27897
0.274024
0.268491
0.262391
0.255878
0.249672
0.244205
0.239394
0.235159
0.231423
0.228112
0.225162
0.22251
0.220101
0.217885
0.215813
0.213845
0.211941
0.210065
0.208185
0.206264
0.204266
0.20217
0.200053
0.198248
0.197139
0.19649
0.28113
0.276687
0.271749
0.266257
0.260213
0.253671
0.246817
0.240419
0.234892
0.230115
0.225981
0.22239
0.219254
0.216496
0.214046
0.211844
0.209835
0.207972
0.206211
0.204515
0.202849
0.201183
0.199487
0.197731
0.195906
0.194099
0.192607
0.1917
0.191161
0.273499
0.268529
0.263167
0.257346
0.25106
0.244362
0.237449
0.231107
0.225724
0.221152
0.217261
0.213935
0.211071
0.208586
0.206404
0.204462
0.202704
0.201083
0.199554
0.198082
0.196633
0.195178
0.193695
0.192165
0.190591
0.189049
0.187797
0.187042
0.186583
0.263743
0.258532
0.253243
0.247574
0.241442
0.234903
0.228188
0.222101
0.217016
0.212771
0.209217
0.206227
0.203692
0.201521
0.199637
0.197977
0.196485
0.195113
0.19382
0.19257
0.191329
0.190069
0.188768
0.187425
0.186064
0.184753
0.183708
0.183086
0.182694
0.250512
0.246491
0.242369
0.237435
0.231809
0.225666
0.219324
0.213629
0.208941
0.205094
0.201929
0.199311
0.197125
0.195281
0.1937
0.19232
0.191086
0.189954
0.188884
0.18784
0.186787
0.185694
0.184544
0.183375
0.182261
0.181244
0.18041
0.179845
0.179437
0.303497
0.30381
0.304581
0.306134
0.308286
0.310716
0.313266
0.315871
0.318545
0.321331
0.324278
0.327424
0.330805
0.334458
0.338419
0.342725
0.347409
0.352494
0.357984
0.363858
0.370057
0.376427
0.382669
0.387592
0.389752
0.38795
0.380662
0.365548
0.334395
0.30153
0.301968
0.302853
0.304392
0.306459
0.308816
0.311334
0.313953
0.316682
0.319557
0.322619
0.325904
0.329452
0.333303
0.337498
0.342083
0.347097
0.352572
0.358529
0.364968
0.371874
0.37916
0.386616
0.393139
0.397364
0.39853
0.396112
0.391669
0.395613
0.299511
0.300033
0.301002
0.302533
0.304529
0.306811
0.309276
0.311884
0.314642
0.31758
0.32073
0.324128
0.327814
0.331835
0.336239
0.341079
0.346408
0.352278
0.358738
0.365838
0.373659
0.382284
0.391837
0.401693
0.410993
0.419693
0.4286
0.435742
0.451824
0.297412
0.297913
0.298856
0.300371
0.30237
0.304658
0.30712
0.309728
0.312504
0.315482
0.318694
0.322178
0.325976
0.33014
0.334724
0.339793
0.345414
0.351664
0.35863
0.36642
0.375243
0.38539
0.397422
0.411183
0.426305
0.442064
0.460852
0.478048
0.499761
0.295237
0.295703
0.296594
0.298076
0.300074
0.302373
0.304842
0.307455
0.310245
0.313249
0.316505
0.320052
0.323938
0.328217
0.332951
0.338214
0.344089
0.350673
0.358095
0.366509
0.376258
0.387775
0.402037
0.418967
0.438994
0.459294
0.48423
0.510316
0.538708
0.292986
0.293435
0.294291
0.295732
0.297695
0.299972
0.302427
0.305032
0.307821
0.310834
0.314113
0.317699
0.321642
0.326
0.330842
0.336249
0.342316
0.349154
0.35694
0.365817
0.376291
0.388766
0.404558
0.423196
0.445706
0.47078
0.498752
0.528329
0.558582
0.290655
0.291092
0.291924
0.293319
0.295226
0.297455
0.299871
0.302447
0.305214
0.308214
0.311488
0.315081
0.319043
0.323436
0.328331
0.333818
0.339999
0.346974
0.355005
0.364106
0.375018
0.387781
0.404617
0.425099
0.448536
0.474373
0.501509
0.529233
0.557452
0.288237
0.288662
0.289466
0.290809
0.292649
0.294814
0.297173
0.299698
0.30242
0.305379
0.308618
0.312181
0.316119
0.320494
0.325381
0.33087
0.33708
0.344039
0.352184
0.361178
0.372252
0.385583
0.402549
0.423161
0.445887
0.470012
0.49455
0.518996
0.543205
0.285731
0.286142
0.286915
0.288198
0.289961
0.292045
0.294329
0.296783
0.299435
0.302325
0.305494
0.308986
0.312853
0.317156
0.321967
0.327368
0.333528
0.340273
0.34826
0.35745
0.368302
0.38143
0.397712
0.417038
0.437799
0.4592
0.480497
0.501382
0.521096
0.283134
0.283533
0.284272
0.285489
0.287161
0.289148
0.291337
0.293698
0.296254
0.299044
0.302109
0.30549
0.309236
0.313406
0.318073
0.323282
0.32921
0.335894
0.343572
0.352488
0.362829
0.375151
0.390117
0.407394
0.425457
0.443541
0.461082
0.478122
0.493652
0.280445
0.28083
0.281531
0.282676
0.284247
0.286124
0.2882
0.290444
0.292879
0.29554
0.298466
0.301694
0.30527
0.309248
0.313695
0.318679
0.324322
0.330716
0.337973
0.346289
0.355849
0.367031
0.380281
0.395102
0.410092
0.424562
0.438116
0.451102
0.462651
0.277665
0.278035
0.278697
0.279764
0.281225
0.282977
0.28492
0.287027
0.289315
0.291817
0.294569
0.297604
0.300964
0.3047
0.308875
0.313552
0.318823
0.324755
0.331446
0.339005
0.347588
0.357422
0.368724
0.380901
0.392733
0.403667
0.413468
0.422633
0.430555
0.274799
0.275158
0.275783
0.276767
0.278106
0.279713
0.281503
0.283448
0.285564
0.287879
0.290423
0.293228
0.29633
0.299773
0.303613
0.307899
0.312704
0.318069
0.324073
0.330766
0.338235
0.346586
0.355848
0.365394
0.374246
0.382014
0.388613
0.394572
0.39952
0.271846
0.27219
0.27277
0.273666
0.274877
0.276333
0.277956
0.279722
0.281643
0.283744
0.286052
0.288592
0.291395
0.294497
0.297942
0.301767
0.306029
0.310751
0.315978
0.321719
0.327993
0.334812
0.342077
0.349189
0.355435
0.360584
0.364674
0.368208
0.371014
0.268813
0.269144
0.269678
0.270483
0.271559
0.272851
0.274292
0.275861
0.277566
0.279432
0.281478
0.283723
0.286191
0.288908
0.291909
0.29522
0.298879
0.302894
0.307279
0.31201
0.31706
0.322378
0.327786
0.332769
0.336866
0.339984
0.342242
0.34411
0.345595
0.265707
0.266026
0.266515
0.267226
0.268161
0.269278
0.270524
0.271878
0.273351
0.274962
0.276723
0.278646
0.280746
0.283042
0.285558
0.288308
0.291315
0.294571
0.298069
0.30176
0.305591
0.309477
0.313205
0.316383
0.318781
0.320417
0.321442
0.322292
0.323144
0.262533
0.262839
0.263278
0.263892
0.264684
0.265623
0.266665
0.267793
0.269023
0.270364
0.27182
0.273398
0.275105
0.276951
0.278949
0.281103
0.28342
0.285881
0.288463
0.291105
0.293743
0.29628
0.298508
0.300185
0.301289
0.301915
0.302191
0.302518
0.303237
0.259302
0.259596
0.259984
0.260501
0.261148
0.261905
0.262731
0.26363
0.264606
0.265664
0.266802
0.268018
0.269313
0.270688
0.272145
0.273677
0.275279
0.276922
0.278573
0.280168
0.281643
0.282909
0.283792
0.28422
0.284354
0.284326
0.284193
0.284315
0.285197
0.256023
0.256311
0.256647
0.257069
0.25757
0.258131
0.258747
0.259407
0.260122
0.260889
0.261698
0.262542
0.263413
0.264303
0.265202
0.266096
0.266966
0.267777
0.268488
0.269037
0.269368
0.269417
0.269059
0.268408
0.267785
0.267338
0.267009
0.267109
0.268313
0.252707
0.252983
0.253267
0.253594
0.253943
0.254328
0.254726
0.255148
0.255601
0.256073
0.25655
0.257017
0.257458
0.257855
0.25819
0.258439
0.258571
0.258544
0.258311
0.257813
0.257007
0.255858
0.254305
0.252655
0.251396
0.250669
0.250268
0.25045
0.252058
0.249363
0.249621
0.249869
0.2501
0.250309
0.250506
0.25069
0.250878
0.251069
0.251248
0.251395
0.251487
0.251499
0.251407
0.251181
0.250787
0.250186
0.249326
0.248153
0.24661
0.244663
0.242304
0.239537
0.236876
0.234992
0.234021
0.233588
0.233884
0.235936
0.246003
0.246248
0.246457
0.246597
0.246665
0.24668
0.246658
0.246618
0.246554
0.246446
0.246269
0.245993
0.245586
0.245013
0.244237
0.243213
0.241892
0.240211
0.238109
0.235523
0.232421
0.22881
0.224746
0.220954
0.218331
0.217038
0.216518
0.216894
0.21941
0.242642
0.24288
0.243047
0.243099
0.24303
0.24287
0.242649
0.242388
0.242078
0.241695
0.241206
0.240574
0.23976
0.238723
0.237415
0.235782
0.233762
0.231284
0.228271
0.224652
0.220381
0.21546
0.209962
0.204806
0.201177
0.199325
0.198527
0.198858
0.201829
0.239289
0.239516
0.239641
0.239605
0.239407
0.239085
0.238679
0.238211
0.237671
0.237027
0.236242
0.235271
0.234071
0.232591
0.230776
0.228562
0.225876
0.222634
0.218744
0.214116
0.208677
0.202394
0.195315
0.188497
0.183456
0.180616
0.179141
0.17915
0.182491
0.235956
0.236179
0.236267
0.23615
0.235826
0.235347
0.234766
0.234107
0.233354
0.23247
0.231408
0.230122
0.22856
0.226667
0.224378
0.221621
0.218311
0.214352
0.209635
0.204046
0.197474
0.189823
0.181054
0.17227
0.165304
0.160814
0.157931
0.157087
0.160638
0.232653
0.232864
0.232909
0.23271
0.232271
0.231653
0.230921
0.230098
0.229158
0.228057
0.226744
0.225167
0.223273
0.220999
0.218275
0.215019
0.211137
0.206518
0.201037
0.194557
0.186928
0.177974
0.167532
0.156637
0.147324
0.140411
0.134978
0.132339
0.135942
0.229412
0.229666
0.229725
0.229466
0.228886
0.228086
0.227176
0.22619
0.225084
0.223793
0.222259
0.220427
0.218238
0.215627
0.212516
0.208818
0.204427
0.199222
0.193064
0.185797
0.177234
0.167108
0.155074
0.142048
0.13018
0.120348
0.111274
0.104782
0.106475
0.217812
0.200149
0.175612
0.144221
0.109109
0.0746818
0.0435842
0.0151081
-0.0110659
-0.0390662
-0.0680899
-0.101389
-0.135781
-0.168035
-0.194103
-0.211398
-0.220009
-0.222201
-0.221706
0.224457
0.210825
0.187306
0.155103
0.116586
0.0755894
0.0353018
-0.00471722
-0.0427023
-0.0845198
-0.126708
-0.169583
-0.210846
-0.247059
-0.274914
-0.293211
-0.30323
-0.307615
-0.309191
0.218991
0.206429
0.184263
0.152068
0.111399
0.0654883
0.0179456
-0.0330808
-0.0842213
-0.135918
-0.187668
-0.238382
-0.285227
-0.324822
-0.354656
-0.374416
-0.385911
-0.391831
-0.394745
0.207964
0.195713
0.175347
0.143793
0.100657
0.0497401
-0.00549256
-0.0638357
-0.123975
-0.184874
-0.245596
-0.304072
-0.356646
-0.399707
-0.431285
-0.45193
-0.464201
-0.471062
-0.474914
0.19387
0.18251
0.163508
0.132262
0.0876055
0.0333878
-0.0272163
-0.0922203
-0.160343
-0.230091
-0.299112
-0.364067
-0.420674
-0.46554
-0.497652
-0.518568
-0.531447
-0.539217
-0.54388
0.175214
0.16431
0.146572
0.116282
0.0714821
0.0154288
-0.0489754
-0.119834
-0.195021
-0.272069
-0.347456
-0.416833
-0.475731
-0.521442
-0.554011
-0.575715
-0.589969
-0.599439
-0.605697
0.152335
0.140551
0.123183
0.0938153
0.0495006
-0.00741569
-0.0742865
-0.149084
-0.228959
-0.3104
-0.388872
-0.459289
-0.51737
-0.561353
-0.592305
-0.613051
-0.627115
-0.63677
-0.643243
0.126351
0.11262
0.0943356
0.0649429
0.0209196
-0.0361744
-0.103979
-0.180309
-0.261892
-0.344443
-0.422642
-0.491114
-0.546217
-0.587288
-0.616209
-0.636
-0.649963
-0.659838
-0.666616
0.0982237
0.0820998
0.0619285
0.0314174
-0.0128459
-0.0697014
-0.137097
-0.212845
-0.293411
-0.373938
-0.448644
-0.512377
-0.562465
-0.599284
-0.625237
-0.643307
-0.656473
-0.666014
-0.672617
0.0688389
0.0503622
0.0278881
-0.0044101
-0.0493643
-0.105805
-0.171916
-0.245601
-0.323176
-0.399444
-0.468577
-0.52609
-0.570423
-0.602807
-0.625909
-0.642505
-0.655188
-0.664886
-0.671945
0.0391802
0.0186363
-0.00613653
-0.0404185
-0.0863287
-0.142375
-0.20676
-0.277349
-0.350228
-0.420006
-0.481243
-0.530538
-0.567512
-0.594053
-0.612865
-0.626431
-0.636897
-0.644974
-0.650815
0.0104008
-0.0117659
-0.038506
-0.0744988
-0.121232
-0.176727
-0.238996
-0.305695
-0.372699
-0.434772
-0.487356
-0.528361
-0.558415
-0.579724
-0.594782
-0.605656
-0.614002
-0.620434
-0.625001
-0.0164249
-0.0397
-0.0678849
-0.104987
-0.152022
-0.206533
-0.266271
-0.328652
-0.389479
-0.443978
-0.488679
-0.522667
-0.547233
-0.56462
-0.577006
-0.586082
-0.593147
-0.598797
-0.602919
-0.0405267
-0.0644497
-0.093556
-0.131116
-0.177824
-0.230801
-0.287497
-0.345044
-0.399283
-0.446144
-0.483346
-0.51098
-0.53072
-0.544667
-0.554644
-0.561998
-0.567716
-0.572356
-0.575711
-0.0614077
-0.0856136
-0.115182
-0.15261
-0.198364
-0.249211
-0.302336
-0.354672
-0.402335
-0.442167
-0.473019
-0.495694
-0.511967
-0.523662
-0.532222
-0.538677
-0.543762
-0.547966
-0.551025
-0.0789303
-0.103188
-0.132879
-0.169742
-0.214066
-0.262342
-0.311605
-0.358761
-0.400401
-0.43431
-0.460222
-0.479337
-0.493347
-0.503768
-0.511721
-0.517984
-0.523129
-0.527546
-0.530878
-0.0932984
-0.117539
-0.147194
-0.183288
-0.225923
-0.271314
-0.316403
-0.358227
-0.394059
-0.422645
-0.44441
-0.460712
-0.473027
-0.482538
-0.49007
-0.496192
-0.501343
-0.505791
-0.509154
-0.104799
-0.129099
-0.158719
-0.194048
-0.234943
-0.277342
-0.318192
-0.354871
-0.385478
-0.40963
-0.428195
-0.442501
-0.453743
-0.462784
-0.470193
-0.476355
-0.481605
-0.486113
-0.489513
-0.113783
-0.138351
-0.168106
-0.202893
-0.242261
-0.281868
-0.318773
-0.350842
-0.377014
-0.397598
-0.413703
-0.426529
-0.436995
-0.445698
-0.453009
-0.459178
-0.464468
-0.468987
-0.472396
-0.120612
-0.145781
-0.176022
-0.210696
-0.248883
-0.285869
-0.318906
-0.346543
-0.36864
-0.386092
-0.400097
-0.411639
-0.421348
-0.429587
-0.436571
-0.442456
-0.44746
-0.451662
-0.454786
-0.12543
-0.151661
-0.182905
-0.218091
-0.25562
-0.290316
-0.319733
-0.34328
-0.361746
-0.376483
-0.388678
-0.399069
-0.408025
-0.415718
-0.422244
-0.427695
-0.43225
-0.435994
-0.438734
-0.128278
-0.156164
-0.189098
-0.225569
-0.263025
-0.295763