/*--------------------------------*- C++ -*----------------------------------*\
| =========                 |                                                 |
| \\      /  F ield         | OpenFOAM: The Open Source CFD Toolbox           |
|  \\    /   O peration     | Version:  2312                                  |
|   \\  /    A nd           | Website:  www.openfoam.com                      |
|    \\/     M anipulation  |                                                 |
\*---------------------------------------------------------------------------*/
FoamFile
{
    version     2.0;
    format      ascii;
    arch        "LSB;label=32;scalar=64";
    class       volScalarField;
    location    "100";
    object      magR;
}
// * * * * * * * * * * * * * * * * * * * * * * * * * * * * * * * * * * * * * //

dimensions      [0 2 -2 0 0 0 0];

internalField   nonuniform List<scalar> 
10720
(
0.0929025
0.0986851
0.122383
0.143011
0.168544
0.205985
0.254838
0.316174
0.396758
0.50793
0.669192
0.919007
1.33071
2.02797
3.45607
6.44895
12.3246
26.3491
52.1468
82.7489
122.998
187.623
271.219
387.677
542.991
704.301
1195.01
1772.88
1176.63
467.986
134.199
14.1838
3.26746
0.249333
1.16454e-15
1.15668e-15
1.17547e-15
0.306044
8.41356
0.134582
0.13014
0.0801745
0.0578609
0.0621482
0.0926334
0.10338
0.0999826
0.106062
0.115772
0.133991
0.16443
0.217059
0.308533
0.479859
0.771772
1.30846
1.94849
2.72657
3.57043
4.53797
5.8515
7.88961
11.1249
15.4035
20.5036
20.4964
13.7028
6.26629
1.942
0.339253
0.019597
0.00465067
0.00164608
0.00127454
0.0531459
0.000839756
2.35165
176.019
0.040205
0.050872
0.0434371
0.0399803
0.0374525
0.0351034
0.032999
0.030869
0.0291397
0.0277713
0.0267652
0.0261783
0.0278241
0.0382711
0.0727354
0.171253
0.41747
1.12228
2.99489
7.12956
13.3884
26.5602
59.4001
101.347
164.989
220.395
468.411
774.692
598.747
339.892
152.388
52.5649
13.0346
1.10997
0.0220152
1.19452e-15
0.0119505
0.888298
13.3028
0.00406032
0.0236541
0.0306378
0.0565664
0.0679602
0.0498048
0.0293743
0.0286397
0.0299872
0.0311638
0.0339818
0.0338581
0.0291457
0.0215083
0.0323865
0.137
0.232394
0.352438
0.504794
0.0986682
0.107196
0.0525008
0.105687
0.0511716
0.0871896
0.205137
0.347854
0.363652
0.279605
0.186031
0.10459
0.0495233
0.0200434
0.0069963
0.00161502
0.00259042
4.31953e-05
0.574472
39.9172
0.0132351
0.0062563
0.00860212
0.00828001
0.00894892
0.00986051
0.0107099
0.011544
0.0123633
0.0131906
0.0140134
0.0148085
0.0159486
0.0155306
0.0190603
0.00393338
0.0838241
0.213043
0.562264
1.36521
2.65383
0.623525
10.0926
36.2896
75.9991
107.946
224.276
352.51
282.682
187.348
102.958
47.5414
16.1366
2.8504
0.240231
0.00535396
0.00718295
0.463589
19.6632
0.0261007
0.0658029
0.0708425
0.050507
0.0191649
0.00342604
0.00493801
0.00481653
0.00506912
0.00552132
0.00383725
0.00614256
0.00813632
0.00921461
0.0095181
0.0117727
0.00907184
0.00820339
0.000946691
0.0205166
0.0227966
0.0114141
0.0226398
0.0122859
0.0206303
0.0472725
0.0804772
0.0845416
0.0657668
0.0450494
0.0265312
0.00134981
0.00391782
0.00604198
0.007045
0.014524
0.000250992
0.225745
15.4016
0.0522044
0.0532401
0.0536595
0.0523646
0.0529744
0.0536689
0.0541627
0.0545161
0.0548146
0.0550726
0.0552648
0.0553713
0.0554665
0.0557133
0.0558656
0.056218
0.0542533
0.0438129
0.00977572
0.00956722
2.0065e-15
0.123067
2.51909
9.44081
44.2082
0.0262192
0.00107749
0.00177334
0.00219448
0.00441109
0.0239392
0.451662
2.69103
2.3382
0.809348
0.0237151
0.035947
0.439039
16.9976
0.0727919
0.0521287
0.0195321
0.0102924
0.00746576
0.00733257
0.00741517
0.00752215
0.00762057
0.0077175
0.00798205
0.00840149
0.00878475
0.00909615
0.00934279
0.00991644
0.000774292
0.00175198
0.00259667
0.00320892
0.0036027
0.00474602
0.00604085
0.00617228
0.00617874
0.00660032
0.00701088
0.00724965
0.00731362
0.00733085
0.0071283
0.00697955
0.00695797
0.00728475
0.006476
0.0137681
0.000254997
0.156528
10.399
0.0585964
0.051708
0.0501054
0.048463
0.0468161
0.0454576
0.0444467
0.0437234
0.0432986
0.0431804
0.0433221
0.0437204
0.0438929
0.0448383
0.0470309
0.0482342
0.0492722
0.0511986
0.0512921
0.0337847
0.0114916
0.00535821
2.05377e-15
3.12075
24.4651
0.00990731
0.000657054
0.000385339
0.000483478
0.000984326
0.00540544
0.103101
0.62032
1.25769e-05
0.39472
0.233386
0.142987
0.152707
8.29468
0.0270342
0.0138521
0.011589
0.00539934
0.0212627
0.0338602
0.0348111
0.0351909
0.0353148
0.0352265
0.0350476
0.0348737
0.034717
0.0346083
0.0344994
0.034632
0.0348898
0.034825
0.0346538
0.0344627
0.0338225
0.0323061
0.0311066
0.0299153
0.0287631
0.0277642
0.0268941
0.0261216
0.0254059
0.0264282
0.0256026
0.0224525
0.0211803
0.0200299
0.017641
0.0189569
0.00259748
0.118843
7.78505
0.017654
0.0199521
0.0184254
0.0177954
0.0174961
0.0173568
0.0155872
0.0131557
0.0118444
0.0114683
0.0118021
0.0127174
0.0140808
0.0156466
0.0176869
0.0202864
0.0221301
0.0242133
0.0268228
0.0297217
0.0315831
0.0212385
0.0011565
0.594847
11.6887
0.00544643
0.000243955
1.1547e-15
1.1547e-15
1.1547e-15
1.1547e-15
1.1547e-15
1.1547e-15
2.9194e-06
3.11069e-07
3.40103e-06
2.18154e-05
3.92916e-07
1.8669
0.0165828
0.0176793
0.0257868
0.0386632
0.0422411
0.0419772
0.0422617
0.042876
0.0435921
0.0442289
0.0448722
0.0455719
0.046338
0.0471821
0.0479339
0.0491032
0.0504449
0.0508541
0.051001
0.0512765
0.0513842
0.049995
0.0483054
0.0466251
0.0449255
0.0433237
0.0418832
0.0405692
0.0393384
0.0381713
0.0370572
0.0357522
0.0341305
0.0323045
0.0295162
0.0284052
0.00979106
0.083595
5.19926
0.0173878
0.0138793
0.0137294
0.0130313
0.0130143
0.0131537
0.0130732
0.0130982
0.0131059
0.0130506
0.0130168
0.0129621
0.0129697
0.000640157
0.00190085
0.00326269
0.00394331
0.00422648
0.00649472
0.0113939
0.0147722
0.0310993
0.00643509
0.181323
3.3948
0.00234563
0.000109283
1.1547e-15
1.1547e-15
1.1547e-15
1.1547e-15
1.1547e-15
1.1547e-15
1.1547e-15
7.23229e-08
7.97519e-07
5.15592e-06
1.1547e-15
1.1547e-15
0.0260361
0.0399749
0.0443231
0.038193
0.0298498
0.0275456
0.0278545
0.028357
0.0290965
0.0299834
0.0310084
0.0321829
0.033524
0.0350506
0.0365036
0.0358179
0.0351703
0.0343931
0.0333895
0.0323686
0.0313727
0.0304132
0.0294745
0.0285394
0.0276064
0.0267204
0.0259189
0.0251917
0.0245228
0.0238979
0.0233423
0.0230063
0.0225339
0.0224281
0.0227524
0.0238394
0.013869
0.049717
2.85247
0.0387479
0.0387148
0.0393489
0.0400913
0.0407282
0.0413925
0.0420806
0.0427569
0.0434478
0.0441521
0.044869
0.0456009
0.0463602
0.0471822
0.0480994
0.0491413
0.0502628
0.0525226
0.0486541
0.0390989
0.0332233
0.0334174
0.0235717
0.0177795
0.268975
0.000391972
1.89845e-05
1.1547e-15
1.1547e-15
1.1547e-15
1.1547e-15
1.1547e-15
1.1547e-15
1.1547e-15
1.1547e-15
1.1547e-15
1.1547e-15
1.1547e-15
1.1547e-15
0.0508699
0.0469174
0.0365408
0.00798998
0.00749504
0.00486367
0.00488357
0.00485363
0.00489335
0.00495595
0.00499267
0.00504945
0.00514769
0.00539348
0.00115231
0.00295857
0.00402538
0.00454775
0.00475334
0.00477863
0.00469502
0.00454892
0.00436992
0.00419601
0.00404851
0.0039257
0.00383454
0.0037767
0.00375323
0.00375264
0.00376423
0.00393801
0.00451311
0.00531691
0.00624733
0.00814086
0.00836094
0.0201498
1.09603
0.0573991
0.0547909
0.0543836
0.0541611
0.0538438
0.0536944
0.0537366
0.0539033
0.0542291
0.0547126
0.0553222
0.0560561
0.0569428
0.0580398
0.0593536
0.0608965
0.0582357
0.0568883
0.0563378
0.0524948
0.0474751
0.0413639
0.0421443
0.00807689
0.0598032
7.99316e-05
1.1547e-15
1.1547e-15
1.1547e-15
1.1547e-15
1.1547e-15
1.1547e-15
1.1547e-15
1.1547e-15
1.1547e-15
1.1547e-15
1.1547e-15
1.1547e-15
1.1547e-15
0.0508674
0.0131551
0.00675604
0.00280179
0.00378955
0.00384946
0.00376725
0.00359677
0.00340355
0.00320996
0.00298992
0.00277703
0.00258737
0.00240963
0.00241993
0.00256688
0.00263751
0.00265705
0.00264994
0.00263027
0.00260315
0.00257232
0.00253849
0.00250451
0.00247153
0.00244158
0.00241849
0.0024022
0.00239207
0.0023848
0.00237729
0.00240269
0.00246122
0.0025353
0.00262854
0.00297695
0.00126443
0.00447118
0.231605
0.033925
0.034573
0.0300308
0.0276258
0.0260342
0.0245994
0.0234087
0.022385
0.0216339
0.0212043
0.0209396
0.0208544
0.0211542
0.0217648
0.0223071
0.0227871
0.0238671
0.0254881
0.0278955
0.0305473
0.0324022
0.0321323
0.0335111
0.0299133
0.00466278
1.68596e-06
8.80907e-08
1.1547e-15
1.1547e-15
1.1547e-15
1.1547e-15
1.1547e-15
1.1547e-15
1.1547e-15
1.1547e-15
1.1547e-15
1.1547e-15
1.1547e-15
1.1547e-15
0.0112369
0.00249517
0.00556052
0.0125275
0.0244992
0.0241788
0.0234137
0.0225631
0.0215644
0.0204723
0.0193149
0.0181191
0.0169222
0.0157462
0.0146209
0.0135984
0.0126918
0.011921
0.0112685
0.0107161
0.0102448
0.00983646
0.00947202
0.00914241
0.00884298
0.00856881
0.00831913
0.00808912
0.00787195
0.00766113
0.00745172
0.00724096
0.00677114
0.00613759
0.00546206
0.00480076
0.00466135
0.00175831
0.00885704
0.00365686
0.00380989
0.00355343
0.00329129
0.00346562
0.00357032
0.0035968
0.00365663
0.00372545
0.00379302
0.00388195
0.00397594
0.00411488
0.00430538
0.00447682
0.00476639
0.00495802
0.00512903
0.00585159
0.00284781
0.00716747
0.0113636
0.0146418
0.0185189
0.0185821
0.000206159
1.11784e-05
1.1547e-15
1.1547e-15
1.1547e-15
1.1547e-15
1.1547e-15
1.1547e-15
1.1547e-15
1.1547e-15
1.1547e-15
1.1547e-15
1.1547e-15
1.1547e-15
0.00311281
0.00820721
0.0274906
0.0337358
0.0350551
0.0342538
0.0332745
0.0323383
0.0313787
0.0303703
0.0293082
0.0281999
0.0270289
0.0258019
0.0245646
0.0233795
0.0222994
0.021323
0.0204461
0.0196601
0.0189527
0.0183065
0.0177068
0.017146
0.0166214
0.0161322
0.0156802
0.0152593
0.0148602
0.0144759
0.0140999
0.0137486
0.0131797
0.0125581
0.0119721
0.0108149
0.00924368
0.00662665
0.00336047
0.0046843
0.00270322
0.00317425
0.000611363
0.00257924
0.0038627
0.00496463
0.00585749
0.00656276
0.00706512
0.00739356
0.00755923
0.007622
0.00761955
0.00750202
0.00809108
0.00745244
0.0061146
0.0057533
0.00507986
0.00515668
0.00635589
0.00824406
0.00950314
0.0165248
0.000515368
2.89793e-05
1.1547e-15
1.1547e-15
1.1547e-15
1.1547e-15
1.1547e-15
1.1547e-15
1.1547e-15
1.1547e-15
1.1547e-15
1.1547e-15
1.1547e-15
1.1547e-15
0.0153942
0.0277991
0.02704
0.0206206
0.0167057
0.0163722
0.0159718
0.015649
0.0154087
0.015196
0.0149703
0.0147168
0.0143589
0.0139505
0.0135206
0.0130945
0.0126746
0.012265
0.0118691
0.0114896
0.011126
0.0107779
0.0104447
0.0101305
0.00983716
0.00956404
0.00931264
0.00908118
0.0088664
0.00866392
0.00846849
0.00830652
0.00825608
0.00827263
0.00829601
0.00818234
0.00794857
0.00779687
0.00499368
0.019896
0.0195694
0.0209535
0.0220481
0.0232325
0.0243103
0.0251421
0.0257438
0.026123
0.0262816
0.0262645
0.0261133
0.0258424
0.0254656
0.0249891
0.0243901
0.0237895
0.0231155
0.0223058
0.021614
0.0189064
0.0153007
0.0137943
0.0116138
0.0153751
0.00116763
6.80464e-05
1.1547e-15
1.1547e-15
1.1547e-15
1.1547e-15
1.1547e-15
1.1547e-15
1.1547e-15
1.1547e-15
1.1547e-15
1.1547e-15
1.1547e-15
1.1547e-15
0.0251633
0.0177739
0.00768198
0.000652284
0.0022599
0.00221568
0.00219288
0.00213835
0.0020977
0.00207125
0.00203049
0.00199395
0.00196984
7.013e-05
0.000135713
0.000194204
0.000242569
0.000279993
0.000305666
0.000320514
0.000325068
0.000321986
0.000314578
0.000309367
0.000309903
0.000314856
0.000323911
0.000337158
0.000355289
0.000378194
0.000400447
0.000419376
0.000563246
0.00092008
0.00145761
0.00214724
0.00295817
0.00394345
0.00399794
0.0199739
0.0178341
0.0172696
0.0172684
0.0171862
0.0170796
0.0170862
0.0172007
0.0173403
0.0174696
0.0176162
0.0177972
0.0180016
0.0182215
0.0184441
0.0186637
0.0188448
0.0189536
0.0190871
0.0191388
0.0190178
0.0182731
0.0167336
0.0141357
0.0153604
0.00252468
1.31289e-09
7.42083e-11
1.1547e-15
1.1547e-15
1.1547e-15
1.1547e-15
1.1547e-15
1.1547e-15
1.1547e-15
1.1547e-15
1.1547e-15
1.1547e-15
1.1547e-15
0.0101734
0.00086708
0.0011015
0.00061203
0.000566918
0.000568886
0.000565551
0.000549163
0.000531663
0.000515918
0.000495169
0.000475236
0.00046039
0.000457011
0.000456423
0.000459129
0.000462876
0.000467729
0.000473053
0.000478342
0.000483094
0.00048744
0.000491539
0.000495317
0.000498207
0.000500682
0.000503624
0.000507089
0.000511148
0.000515745
0.000519543
0.000520821
0.000539527
0.000583548
0.000651585
0.000772747
0.000874171
0.00030302
0.00152449
0.00433659
0.00498606
0.00387833
0.00325986
0.00275909
0.00230496
0.00203493
0.00199816
0.00206517
0.00217754
0.00238241
0.00267256
0.00302957
0.00344639
0.00390077
0.00438153
0.00489574
0.0054354
0.00594032
0.00675502
0.0084115
0.010091
0.0111403
0.0110431
0.0125072
0.00420318
1.55156e-08
9.09027e-10
1.1547e-15
1.1547e-15
1.1547e-15
1.1547e-15
1.1547e-15
1.1547e-15
1.1547e-15
1.1547e-15
1.1547e-15
1.1547e-15
1.1547e-15
0.00172851
0.000652848
4.56189e-05
0.00348401
0.003672
0.0035884
0.00354443
0.00349841
0.00344621
0.0033922
0.00333159
0.00326444
0.00319618
0.00312706
0.00305668
0.00298697
0.0029183
0.00285114
0.00278636
0.00272435
0.00266527
0.00260898
0.00255527
0.00250399
0.00245446
0.00240554
0.00235766
0.00231092
0.00226485
0.00221919
0.00217277
0.00212004
0.00202298
0.001823
0.00154346
0.00134692
0.00088507
0.00044857
0.00100037
0.000605686
0.000758801
0.000773627
0.000753155
0.0007725
0.000787686
0.000779801
0.00079798
0.000823218
0.000844254
0.000881122
0.000929275
0.000988189
0.00106069
0.00114119
0.00122962
0.00132775
0.0014333
0.00153472
0.00174958
0.00201432
0.000722732
0.00269123
0.00427013
0.00636896
0.00430763
5.78137e-08
3.50888e-09
1.1547e-15
1.1547e-15
1.1547e-15
1.1547e-15
1.1547e-15
1.1547e-15
1.1547e-15
1.1547e-15
1.1547e-15
1.1547e-15
1.1564e-15
0.00139849
0.00399407
0.00896801
0.0104214
0.0102906
0.010055
0.00986641
0.00971812
0.00958674
0.00946344
0.00934166
0.00921684
0.00908929
0.00895674
0.00881741
0.00867197
0.00852078
0.0083644
0.00820461
0.00804284
0.00788057
0.00771848
0.00755702
0.00739718
0.00723983
0.00708493
0.00693403
0.00678772
0.00664484
0.00650449
0.00636427
0.00622319
0.00607147
0.00580849
0.00542849
0.00490442
0.00420202
0.0033972
0.00269369
0.000568989
0.00100992
0.00174263
0.00233513
0.00283854
0.00325708
0.00350157
0.00364335
0.00373834
0.00379051
0.00381564
0.00382443
0.0038214
0.0038103
0.00378724
0.0037546
0.00371796
0.00367011
0.00359947
0.00388332
0.00321455
0.00223449
0.00228101
0.0027474
0.003603
0.00395678
1.89832e-07
1.19272e-08
1.1547e-15
1.1547e-15
1.1547e-15
1.1547e-15
1.1547e-15
1.1547e-15
1.1547e-15
1.1547e-15
1.1547e-15
1.1556e-15
1.17174e-15
0.00680015
0.0103363
0.00918078
0.00700137
0.00688224
0.00675688
0.00662625
0.00652853
0.00645154
0.00638496
0.0063277
0.00627463
0.00622075
0.00616412
0.00610301
0.00603558
0.00596156
0.00588075
0.00579345
0.00570023
0.0056019
0.00549936
0.00539319
0.00528541
0.00517835
0.00507327
0.00497108
0.0048721
0.00477597
0.00468235
0.0045899
0.00449822
0.00443999
0.00443387
0.00440997
0.00430946
0.00419626
0.00388103
0.00322818
0.00828121
0.00810352
0.00853489
0.00897452
0.00926842
0.00948982
0.00960421
0.00964672
0.00967036
0.0096815
0.00968154
0.00966734
0.00965039
0.00962817
0.00958737
0.00952737
0.00944807
0.00934354
0.00921016
0.00905433
0.00852337
0.00761542
0.00678388
0.00572298
0.00460362
0.00448661
6.81334e-07
4.42862e-08
1.1547e-15
1.1547e-15
1.1547e-15
1.1547e-15
1.1547e-15
1.1547e-15
1.1547e-15
1.1547e-15
1.1547e-15
1.15526e-15
1.15503e-15
0.009997
0.0067125
0.00277627
0.00085401
0.000838527
0.000865466
0.000847258
0.000821762
0.000802836
0.000790122
0.000782021
0.000777772
0.000776154
0.000776541
0.000777975
0.000779849
0.000781481
0.000782594
0.00078264
0.000781445
0.000778759
0.000774841
0.000770006
0.000765222
0.000760865
0.000756974
0.000753519
0.000750516
0.000748032
0.00074624
0.000744934
0.000740244
0.000742701
0.000875595
0.00110919
0.00141622
0.00185562
0.00226007
0.00231396
0.00785637
0.00698742
0.00661323
0.00641699
0.00617798
0.00597515
0.00580887
0.00567606
0.00561333
0.0056
0.00561526
0.00563536
0.00567977
0.00574827
0.00581126
0.0058726
0.00593288
0.00598983
0.00604372
0.00616466
0.00640995
0.00650336
0.00641541
0.00613499
0.00526796
0.00486507
2.15331e-06
1.447e-07
1.1547e-15
1.1547e-15
1.1547e-15
1.1547e-15
1.1547e-15
1.1547e-15
1.1547e-15
1.1547e-15
1.1547e-15
1.1547e-15
1.15889e-15
0.00400242
0.000466605
0.000445857
0.000121399
0.000121725
0.000129196
0.000127526
0.000121912
0.0001172
0.000113847
0.000109964
0.000106831
0.000105192
0.000104153
0.000104112
0.000105252
0.000107028
0.000109535
0.000112575
0.000115993
0.000119555
0.000123264
0.00012707
0.000130673
0.000133615
0.000136279
0.000138935
0.000141576
0.000144208
0.000146857
0.000149486
0.000151305
0.000154466
0.000185107
0.000241048
0.000308482
0.000423143
0.000406686
0.000993635
0.00170359
0.00171782
0.00114855
0.000814979
0.000560701
0.000353988
0.000220921
0.000144581
0.000113016
0.000115786
0.000139661
0.000177037
0.000220809
0.000273294
0.000337315
0.00041427
0.000504034
0.000607638
0.000718326
0.000856018
0.00120712
0.00183368
0.00259716
0.00332324
0.00345779
0.00402466
5.3804e-06
3.7352e-07
1.1547e-15
1.1547e-15
1.1547e-15
1.1547e-15
1.1547e-15
1.1547e-15
1.1547e-15
1.1547e-15
1.1547e-15
2.40745e-15
1.16473e-15
0.00071108
0.000129075
0.000388632
0.000476539
0.000481398
0.000485009
0.00048239
0.000470572
0.000458688
0.00044855
0.000433053
0.00041778
0.000406948
0.000397052
0.000390357
0.000387897
0.000387821
0.000390575
0.000395687
0.000402603
0.000410572
0.000419576
0.000429183
0.000437588
0.000442731
0.000446046
0.000448849
0.000451116
0.000452802
0.000453829
0.000454136
0.000453685
0.000452728
0.0004434
1.43016e-05
0.000371992
0.000303691
0.000334096
0.000240221
0.000223249
0.000228453
0.000163175
0.000126839
0.000116563
0.000111835
0.000109196
0.00010965
0.000112219
0.000116198
0.000122603
0.000130122
0.000138032
0.000147416
0.000158594
0.000172163
0.000188091
0.000206591
0.000226644
0.000250845
0.000302033
0.000401213
0.000516089
0.000321368
0.000887143
0.00221053
9.96004e-06
7.13783e-07
1.1547e-15
1.1547e-15
1.1547e-15
1.1547e-15
1.1547e-15
1.1547e-15
1.1547e-15
1.1547e-15
1.1547e-15
1.15501e-15
1.15587e-15
0.000273919
0.000498774
0.00256306
0.00313649
0.00311171
0.00305777
0.00302802
0.00301245
0.00300137
0.00299224
0.00298334
0.00297259
0.00296032
0.00294652
0.00293068
0.0029129
0.00289315
0.00287116
0.00284693
0.00282034
0.00279134
0.00275984
0.00272587
0.00268983
0.00265214
0.00261281
0.00257229
0.00253091
0.0024886
0.00244541
0.00240118
0.00235582
0.00231067
0.00222313
0.00206825
0.00180884
0.00145838
0.00111825
0.000883663
0.000540509
0.000387322
0.000454265
0.000108433
0.000269498
0.000423016
0.000543921
0.000621118
0.000670549
0.000702337
0.000723756
0.000738848
0.000748582
0.000754197
0.000757776
0.000760207
0.000760984
0.000759977
0.000756879
0.00074833
0.000691401
0.000645166
0.000368467
0.00016787
0.000204733
0.00115691
2.07197e-05
1.53198e-06
1.1547e-15
1.1547e-15
1.1547e-15
1.1547e-15
1.1547e-15
1.1547e-15
1.1547e-15
1.1547e-15
1.1547e-15
1.15472e-15
1.15921e-15
0.001591
0.00351622
0.00374453
0.00360456
0.00357911
0.0035041
0.00344667
0.00340992
0.00338366
0.00336257
0.00334546
0.00332986
0.00331451
0.00329908
0.00328283
0.00326519
0.00324591
0.00322459
0.00320084
0.0031744
0.00314502
0.00311246
0.00307642
0.00303725
0.00299582
0.00295256
0.00290785
0.00286206
0.00281525
0.00276753
0.00271886
0.00266976
0.00262743
0.00258845
0.00252396
0.00241106
0.00222964
0.00190421
0.00149429
0.00259095
0.00277339
0.00296169
0.00308876
0.00319804
0.00329681
0.0033781
0.00342452
0.0034508
0.00346891
0.00348036
0.00348679
0.00348858
0.00348419
0.00347809
0.00347089
0.00345993
0.00344374
0.00342112
0.00339298
0.00334671
0.00314115
0.00276713
0.00233074
0.00188625
0.00185464
9.43861e-05
7.33861e-06
1.1547e-15
1.1547e-15
1.1547e-15
1.1547e-15
1.1547e-15
1.1547e-15
1.1547e-15
1.1547e-15
1.1547e-15
1.1547e-15
1.15481e-15
0.00380023
0.00296965
0.00145858
0.00106512
0.00105416
0.00102876
0.000994184
0.000967086
0.000946939
0.000930624
0.000917927
0.000907928
0.000899524
0.000892427
0.000886124
0.000880041
0.000874029
0.000867786
0.00086101
0.000853595
0.000845416
0.000836337
0.000826396
0.000815993
0.00080539
0.000794706
0.00078417
0.000773599
0.000763251
0.00075321
0.000743337
0.000733361
0.000726962
0.000756701
0.000847157
0.000981809
0.00113278
0.0012406
0.00121927
0.00353132
0.00327291
0.00320467
0.00314758
0.00309599
0.00305203
0.00302178
0.00298387
0.00294576
0.00292182
0.00290297
0.00288774
0.00287608
0.00286233
0.00285472
0.0028552
0.00285457
0.00285326
0.00285081
0.00284913
0.00288424
0.00293207
0.00289051
0.00278828
0.00249901
0.00232938
0.000371181
8.34824e-07
6.22222e-08
1.1547e-15
1.1547e-15
1.1547e-15
1.1547e-15
1.1547e-15
1.1547e-15
1.1547e-15
1.1547e-15
1.1547e-15
1.1547e-15
0.00230867
0.000582011
0.000281965
0.000159618
0.000160879
0.000160994
0.000156324
0.00014909
0.000142768
0.000137502
0.000131027
0.000125015
0.00012064
0.000116703
0.000113931
0.000112672
0.000112285
0.000112982
0.000114576
0.000116899
0.000119737
0.000123015
0.000126633
0.000129908
0.000132098
0.000133734
0.000135335
0.000136838
0.000138261
0.000139611
0.000140857
0.000141926
0.000143551
0.000152338
0.000173722
0.000204904
0.00025259
0.000298183
0.000550355
0.00122165
0.00104699
0.000934218
0.000860874
0.000793513
0.000733841
0.000681409
0.000646696
0.000622105
0.000604192
0.000590636
0.000581614
0.000577433
0.000577657
0.000580458
0.00058685
0.000597296
0.000612034
0.000630983
0.000650506
0.000691346
0.000863242
0.00112241
0.00138127
0.00151799
0.00175889
0.000749822
6.81513e-06
5.238e-07
1.1547e-15
1.1547e-15
1.1547e-15
1.1547e-15
1.1547e-15
1.1547e-15
1.1547e-15
1.1547e-15
1.1547e-15
1.1547e-15
0.000449232
7.94898e-05
0.000103648
0.000115256
0.000115411
0.000116872
0.000116776
0.000113995
0.000110975
0.000108319
0.000104027
9.95559e-05
9.6138e-05
9.28471e-05
9.03726e-05
8.91184e-05
8.85742e-05
8.89723e-05
9.02231e-05
9.21963e-05
9.47349e-05
9.77948e-05
0.000101322
0.00010461
0.000106837
0.000108475
0.000109985
0.00011134
0.000112518
0.000113488
0.000114245
0.000114776
0.000114921
0.000113167
0.000103028
8.54272e-05
6.85911e-05
0.000101094
9.08818e-06
0.000167949
0.000145789
0.000138886
0.000122624
0.000114072
0.000106708
9.71082e-05
9.16704e-05
8.76822e-05
8.40545e-05
8.18935e-05
8.04524e-05
7.98304e-05
8.02863e-05
8.12636e-05
8.30112e-05
8.55582e-05
8.89178e-05
9.30754e-05
9.74656e-05
0.000105167
0.000133109
0.000175223
0.00024366
0.000279275
0.000644437
0.000703625
2.82368e-05
2.23624e-06
1.1547e-15
1.1547e-15
1.1547e-15
1.1547e-15
1.1547e-15
1.1547e-15
1.1547e-15
1.1547e-15
1.1547e-15
1.1548e-15
6.55437e-05
0.000259341
0.000677637
0.000753039
0.00074144
0.000733131
0.000730395
0.000728963
0.000727813
0.000727246
0.000726199
0.000724377
0.000722361
0.000720155
0.000717718
0.000715228
0.000712707
0.000710106
0.000707423
0.000704606
0.000701594
0.000698277
0.000694573
0.000690396
0.000685538
0.00067983
0.000673306
0.000666043
0.00065804
0.000649305
0.000639866
0.000629726
0.00061812
0.000597113
0.000533636
0.000434618
0.000343023
0.000181694
0.000115097
0.00017266
0.000119386
0.000133805
0.000135879
0.000143363
0.000149575
0.000149467
0.000150453
0.000150662
0.00014926
0.00014897
0.000148573
0.000148241
0.000148609
0.000149094
0.000149892
0.000150855
0.000151892
0.000152896
0.000153789
0.000154603
0.000148625
0.000131736
0.000109138
0.000136084
0.000195049
0.00028366
5.58459e-05
5.1115e-06
1.1547e-15
1.1547e-15
1.1547e-15
1.1547e-15
1.1547e-15
1.1547e-15
1.1547e-15
1.1547e-15
1.1547e-15
1.1547e-15
0.000475974
0.00138618
0.00170195
0.00171181
0.0016853
0.00165927
0.00164136
0.00162948
0.00162056
0.00161366
0.00160776
0.00160189
0.00159636
0.00159096
0.00158528
0.00157955
0.00157368
0.00156743
0.00156073
0.00155343
0.00154532
0.00153612
0.00152569
0.00151399
0.00150072
0.00148561
0.00146902
0.00145127
0.00143233
0.00141221
0.00139088
0.00136826
0.00134437
0.00131951
0.00126782
0.00118326
0.00105856
0.000861305
0.000648078
0.000856748
0.000846072
0.000887321
0.000941164
0.000983857
0.00101488
0.0010358
0.00104911
0.00105789
0.00106354
0.00106682
0.00106858
0.00106896
0.0010682
0.00106637
0.00106355
0.00105976
0.00105493
0.00104898
0.00104217
0.00103567
0.000986409
0.000867631
0.000715488
0.000596328
0.000408979
0.000376959
0.000196411
3.33354e-06
2.66434e-07
1.1547e-15
1.1547e-15
1.1547e-15
1.1547e-15
1.1547e-15
1.1547e-15
1.1547e-15
1.1547e-15
1.1547e-15
0.00171531
0.00149245
0.00105947
0.00103341
0.00102492
0.00101064
0.000997037
0.000986886
0.000978897
0.000971978
0.000966675
0.00096251
0.000958681
0.000955237
0.000951973
0.000948544
0.000944904
0.00094097
0.000936463
0.00093138
0.000925512
0.000918697
0.000910851
0.000901869
0.000892154
0.000881919
0.00087117
0.000859907
0.00084821
0.00083606
0.000823557
0.000810448
0.000796652
0.000789038
0.000802306
0.000825039
0.000836101
0.000817776
0.000723558
0.00166783
0.00154084
0.00155208
0.00156208
0.00155971
0.00154991
0.00153855
0.0015263
0.00151511
0.00150552
0.00149688
0.00148921
0.00148223
0.0014756
0.00146913
0.00146268
0.00145606
0.00144901
0.00144127
0.00143324
0.00143053
0.00142356
0.00137468
0.00128875
0.00117267
0.000973197
0.000773804
0.000543337
4.08734e-05
3.5148e-06
1.1547e-15
1.1547e-15
1.1547e-15
1.1547e-15
1.1547e-15
1.1547e-15
1.1547e-15
1.1547e-15
1.1547e-15
0.00115878
0.000460803
5.37172e-05
3.70787e-05
4.49445e-05
4.77472e-05
4.55498e-05
4.13983e-05
3.72181e-05
3.31997e-05
2.94462e-05
2.617e-05
2.32882e-05
2.07592e-05
1.86052e-05
1.66765e-05
1.49743e-05
1.34432e-05
1.20965e-05
1.09201e-05
9.96831e-06
9.26478e-06
8.85742e-06
8.72911e-06
8.85642e-06
9.23885e-06
9.83542e-06
1.05647e-05
1.14028e-05
1.23507e-05
1.33587e-05
1.43417e-05
1.3984e-05
1.44431e-05
4.99279e-05
0.000119486
0.000220707
0.000348249
0.000413795
0.000843929
0.000836181
0.000769412
0.000729237
0.000692714
0.000659187
0.00063333
0.000613618
0.000598592
0.000587425
0.000578807
0.000572242
0.000567281
0.000563526
0.000560852
0.000559105
0.00055821
0.000558164
0.000558818
0.000559955
0.000565104
0.000597433
0.000663746
0.000732714
0.000783018
0.000795203
0.000746287
0.000676726
0.000151326
9.05002e-07
7.30753e-08
1.1547e-15
1.1547e-15
1.1547e-15
1.1547e-15
1.1547e-15
1.1547e-15
1.1547e-15
1.1547e-15
9.7495e-05
7.55911e-05
1.12254e-05
1.04848e-05
1.20321e-05
1.30592e-05
1.31244e-05
1.24006e-05
1.15455e-05
1.07593e-05
9.79274e-06
8.82971e-06
8.0424e-06
7.32017e-06
6.71952e-06
6.27442e-06
5.93021e-06
5.69671e-06
5.56705e-06
5.53341e-06
5.59257e-06
5.74931e-06
6.02893e-06
6.38861e-06
6.72101e-06
7.02589e-06
7.35638e-06
7.7051e-06
8.06953e-06
8.44618e-06
8.82532e-06
9.18856e-06
9.26153e-06
9.25307e-06
1.39894e-05
2.35873e-05
4.4179e-05
7.54476e-05
8.71827e-05
0.000119367
0.000119665
0.000117497
0.000106506
0.000101978
9.80343e-05
9.20652e-05
8.84959e-05
8.55751e-05
8.25518e-05
8.07528e-05
7.92864e-05
7.81874e-05
7.77311e-05
7.75539e-05
7.77682e-05
7.82608e-05
7.90187e-05
7.99659e-05
8.10103e-05
8.25922e-05
8.79933e-05
0.00010175
3.30739e-05
0.000155348
0.00028355
0.000384956
0.000471794
0.000269022
1.03433e-05
8.60168e-07
1.1547e-15
1.1547e-15
1.1547e-15
1.1547e-15
1.1547e-15
1.1547e-15
1.1547e-15
1.1547e-15
2.44634e-05
7.32066e-05
1.86952e-05
3.06013e-05
3.14621e-05
3.3275e-05
3.57024e-05
3.7202e-05
3.79935e-05
3.87656e-05
3.89955e-05
3.86029e-05
3.81425e-05
3.75693e-05
3.68578e-05
3.6234e-05
3.56944e-05
3.52512e-05
3.49409e-05
3.47927e-05
3.48313e-05
3.50295e-05
3.55193e-05
3.63318e-05
3.71537e-05
3.77164e-05
3.8137e-05
3.84575e-05
3.86825e-05
3.88026e-05
3.88168e-05
3.87096e-05
3.83033e-05
3.66156e-05
2.41603e-05
8.79273e-07
7.48771e-05
5.99069e-05
6.33642e-05
4.76786e-05
3.35782e-05
3.56661e-05
3.47904e-05
3.62059e-05
3.79838e-05
3.82576e-05
3.89192e-05
3.94103e-05
3.93564e-05
3.95515e-05
3.9644e-05
3.96713e-05
3.98578e-05
4.00226e-05
4.02423e-05
4.04731e-05
4.07035e-05
4.08963e-05
4.10376e-05
4.10157e-05
4.01095e-05
3.51579e-05
3.285e-05
4.50222e-05
5.80939e-05
1.18606e-05
0.00012933
0.000208598
3.48384e-05
3.40997e-06
1.1547e-15
1.1547e-15
1.1547e-15
1.1547e-15
1.1547e-15
1.1547e-15
1.1547e-15
1.1547e-15
7.73879e-05
0.000508099
0.000649704
0.000654614
0.000647853
0.000641406
0.000636725
0.000633055
0.000629606
0.00062649
0.000623675
0.000620835
0.000618086
0.000615472
0.000612853
0.000610261
0.000607679
0.000605013
0.000602236
0.000599286
0.000596087
0.000592537
0.000588592
0.000584281
0.000579568
0.000574349
0.000568684
0.000562618
0.000556115
0.000549155
0.000541718
0.000533787
0.000525429
0.000517008
0.000497562
0.000459388
0.000397356
0.000311307
0.000233766
0.00027797
0.000235273
0.00023409
0.000238927
0.000246731
0.000256284
0.000264307
0.000271215
0.0002773
0.000282078
0.00028592
0.000288982
0.00029123
0.000292825
0.000293817
0.000294249
0.000294145
0.000293529
0.000292431
0.000290894
0.00028853
0.000280884
0.000245684
0.000196082
0.000153609
9.64639e-05
5.76443e-05
7.65369e-05
0.000156377
9.01286e-05
2.61976e-06
2.36011e-07
1.1547e-15
1.1547e-15
1.1547e-15
1.1547e-15
1.1547e-15
1.1547e-15
1.1547e-15
0.000748175
0.000818605
0.000707951
0.000691279
0.000678683
0.000667868
0.000659351
0.000653037
0.000647831
0.000643301
0.000639562
0.000636299
0.000633326
0.000629201
0.000625234
0.000621581
0.000618224
0.000615038
0.000611891
0.000608664
0.000605244
0.0006015
0.000597265
0.0005925
0.000587332
0.000581791
0.000575857
0.000569511
0.000562749
0.000555583
0.000547982
0.000539953
0.000531728
0.000525518
0.000521273
0.000512087
0.000488563
0.000442407
0.000372672
0.000815426
0.00073606
0.000714911
0.000709343
0.000706865
0.000707055
0.000708101
0.000708957
0.000709759
0.000709985
0.000709633
0.000708876
0.000707547
0.000705737
0.000703483
0.000700748
0.000697568
0.000693915
0.000689761
0.000685093
0.000679914
0.000674734
0.000648714
0.000603383
0.000541994
0.000464285
0.00039198
0.000306803
0.000252859
0.000209264
3.57916e-05
9.53415e-08
7.87283e-09
1.1547e-15
1.1547e-15
1.1547e-15
1.1547e-15
1.1547e-15
1.1547e-15
0.000746638
0.000363388
0.000174218
0.000151034
0.00014576
0.00014156
0.000137385
0.000133906
0.000131136
0.000128746
0.000126779
0.000125191
0.00012392
0.000125965
0.000130165
0.000134152
0.000137481
0.000140106
0.000142178
0.000143784
0.000145075
0.000146051
0.000146771
0.000147298
0.000147588
0.000147625
0.000147348
0.000146811
0.000146055
0.000145077
0.00014386
0.000142436
0.000140721
0.000139812
0.000148623
0.000172209
0.00020693
0.000242485
0.000248086
0.000573826
0.000544168
0.000511911
0.000492735