/*--------------------------------*- C++ -*----------------------------------*\
| =========                 |                                                 |
| \\      /  F ield         | OpenFOAM: The Open Source CFD Toolbox           |
|  \\    /   O peration     | Version:  2312                                  |
|   \\  /    A nd           | Website:  www.openfoam.com                      |
|    \\/     M anipulation  |                                                 |
\*---------------------------------------------------------------------------*/
FoamFile
{
    version     2.0;
    format      ascii;
    arch        "LSB;label=32;scalar=64";
    class       volVectorField;
    location    "100";
    object      momentError;
}
// * * * * * * * * * * * * * * * * * * * * * * * * * * * * * * * * * * * * * //

dimensions      [0 1 -2 0 0 0 0];

internalField   nonuniform List<vector> 
10720
(
(0.22752 -7.65794 5.54615e-16)
(-0.100502 -8.13931 -1.1527e-15)
(-0.45944 -7.61 -1.7856e-14)
(-0.962191 -7.58797 6.97586e-14)
(-1.29864 -7.22648 5.30476e-14)
(-1.56569 -6.78698 -1.29161e-13)
(-1.88746 -6.26309 -1.09618e-13)
(-2.07766 -5.5199 -8.70566e-14)
(-2.1447 -4.73563 1.67307e-14)
(-2.12749 -3.9882 4.74982e-15)
(-1.99666 -3.22672 -1.5546e-14)
(-1.83518 -2.71082 5.93861e-14)
(-1.32621 -1.79866 -1.94849e-13)
(-0.949386 -1.21665 -3.5895e-13)
(-0.545153 -0.774976 6.6442e-14)
(-0.217382 -0.218473 -9.45562e-14)
(0.152389 0.422026 1.05241e-13)
(1.09755 0.377089 8.23531e-13)
(1.91963 -0.00831654 2.21038e-13)
(2.2575 0.561429 -4.78712e-13)
(2.2381 2.24001 -1.62365e-13)
(7.23015 0.276059 1.84349e-14)
(6.62581 -0.352257 3.81608e-13)
(4.06309 -0.366068 -2.53058e-13)
(0.0116866 -0.11523 4.2536e-14)
(-1.10295 -0.22915 -3.13428e-14)
(-1.30793 -0.38748 -3.76184e-14)
(-1.28715 -0.367223 1.75706e-14)
(-0.782373 -0.222861 -2.59688e-15)
(-0.865155 0.0572107 1.20491e-13)
(-0.731601 0.0849127 5.38687e-14)
(-0.0170755 0.0268399 -1.00434e-13)
(0.27917 -0.0517572 -8.01455e-14)
(-0.188223 0.0210095 -1.83385e-13)
(4.25744 -0.492264 -7.32328e-14)
(-3.34517 0.530837 1.29032e-14)
(-2.31693 1.59855 -1.79509e-13)
(6.27812 2.78497 8.26153e-14)
(-17.9088 -1.47278 2.18837e-14)
(0.772246 -6.5225 1.31279e-14)
(1.42259 -4.61328 -2.60313e-14)
(1.61497 -3.01065 2.93067e-14)
(1.33721 -1.99255 1.21283e-13)
(1.09843 -1.05258 5.86988e-14)
(0.672873 -0.217898 -3.16362e-13)
(0.0495107 0.335186 -9.42751e-14)
(-0.0232853 0.126544 8.51845e-14)
(0.395398 -0.422911 -6.8912e-14)
(0.449649 -0.331505 6.20689e-14)
(0.325971 -0.218399 -7.11064e-14)
(0.344598 -0.265443 -1.28449e-13)
(0.457876 -0.289378 3.22116e-14)
(0.499435 -0.232721 6.4214e-14)
(0.452262 -0.15755 -1.04948e-13)
(0.337317 -0.242499 -9.05874e-14)
(0.275073 -0.067507 -6.35966e-14)
(0.164524 -0.151729 -7.59196e-14)
(0.096815 -0.113774 -2.76323e-14)
(0.101367 -0.0421897 -1.74121e-15)
(0.112481 0.0499817 2.4707e-14)
(0.195643 0.265242 4.87564e-14)
(0.123715 0.152499 -2.12622e-14)
(0.14144 0.246402 -1.5615e-14)
(0.0579161 0.0396587 1.56291e-14)
(0.0420237 -0.00268686 -3.37367e-15)
(0.0426397 0.0843454 5.63769e-16)
(0.0239336 0.138523 6.89571e-16)
(-0.0341125 0.120908 -6.2591e-16)
(-0.036892 0.0800613 1.23898e-15)
(-0.050874 0.0523943 4.26606e-15)
(-0.082919 0.0356812 -2.01091e-15)
(-0.116878 0.0257653 -2.49916e-15)
(-0.118424 0.0201296 -5.45499e-14)
(-0.125902 0.0140023 -4.87466e-14)
(-0.167613 0.0129631 3.0108e-14)
(-0.201503 -0.0422477 -4.37707e-15)
(-0.25205 0.151219 2.07748e-15)
(0.294554 -0.628412 5.00524e-15)
(-0.26153 -5.37645 -5.3585e-15)
(-0.802724 -5.53806 4.56896e-15)
(-1.08235 -5.12961 -3.26736e-15)
(-1.67472 -5.25943 -5.21243e-15)
(-2.09223 -5.12986 6.44122e-15)
(-2.43272 -4.95432 4.82203e-14)
(-2.85554 -4.66767 6.08925e-14)
(-3.16547 -4.22963 2.33427e-14)
(-3.35792 -3.73723 -7.08892e-14)
(-3.47123 -3.21464 -3.01239e-14)
(-3.49506 -2.74228 -2.2212e-13)
(-3.38012 -2.2177 -4.02405e-13)
(-3.4634 -2.3476 -2.00714e-14)
(-3.48715 -2.27074 -1.7246e-14)
(-3.60799 -2.06611 -7.70819e-14)
(-3.44432 -2.07744 7.99055e-14)
(-3.33606 -2.08683 3.47763e-13)
(-3.61833 -1.86805 -6.4811e-13)
(-3.49846 -1.63538 -5.03118e-13)
(-3.14982 -1.50362 -3.28262e-13)
(-1.08539 -2.49892 2.21588e-13)
(-10.6551 3.16851 1.86962e-13)
(-6.62051 0.862727 -2.51953e-13)
(-3.77052 3.1202 2.25153e-14)
(0.315513 1.10286 -1.31509e-15)
(-0.00020134 0.550719 -4.58177e-14)
(-1.05789 0.188184 -6.16009e-16)
(-1.41142 0.0998547 1.04881e-14)
(-1.20816 0.189157 -1.50382e-14)
(-0.929438 0.189587 5.58645e-14)
(-0.491878 0.0853342 2.60671e-14)
(-0.536307 0.0746044 3.06811e-15)
(-0.374194 0.000269469 -9.37146e-14)
(-0.939681 0.0226847 -1.46969e-13)
(6.283 -1.16144 1.47902e-13)
(-18.3023 2.78313 6.44624e-14)
(-3.94569 1.11987 4.72892e-14)
(28.9184 -3.75651 -1.41524e-13)
(-6.15503 0.318956 1.80581e-14)
(0.264814 -4.76092 -1.91043e-14)
(0.705046 -3.54559 1.76103e-13)
(0.837703 -2.42632 -5.40441e-14)
(0.903644 -1.71966 -1.30664e-13)
(1.02409 -1.14856 7.41282e-14)
(0.919214 -0.552416 9.1897e-14)
(0.565539 -0.0993679 -8.82791e-14)
(0.409603 -0.119805 1.81227e-13)
(0.515004 -0.291084 1.07071e-13)
(0.538751 -0.228562 -7.1846e-14)
(0.479161 -0.238374 6.60661e-14)
(0.480355 -0.325222 -9.63542e-14)
(0.539997 -0.353728 2.49761e-14)
(0.547732 -0.297499 9.06701e-15)
(0.450872 -0.206652 2.0597e-14)
(0.447377 -0.0345094 2.26352e-14)
(0.345839 -0.0408064 4.2267e-14)
(0.289486 0.0932185 -1.23576e-14)
(0.268701 0.122198 2.56222e-15)
(0.188608 0.0254939 -5.74189e-15)
(0.147115 -0.0463696 1.51293e-14)
(-0.000566718 -0.216601 4.27688e-14)
(0.0461228 -0.0361343 -1.77385e-15)
(-0.099592 -0.195905 -1.11487e-14)
(-0.0292422 -0.0374572 -1.02544e-14)
(0.0118644 0.0593983 1.01311e-14)
(-0.00664281 0.0987302 1.75505e-15)
(-0.0431049 0.0598883 -5.47836e-16)
(-0.0651868 -0.0297583 4.75221e-17)
(-0.110029 -0.0631423 -8.89151e-17)
(-0.116014 -0.0626812 -2.11309e-16)
(-0.118206 -0.0688115 -6.57267e-15)
(-0.0870242 -0.048421 9.94452e-15)
(-0.0653044 -0.0375993 4.26054e-14)
(-0.0551841 -0.0280686 6.76188e-15)
(-0.0221585 -0.0280689 -1.24001e-14)
(-0.079038 -0.0344827 7.33866e-15)
(-0.00256255 -0.0226446 -2.28474e-14)
(2.46238 0.220355 -6.47657e-15)
(0.150215 -4.33144 1.82251e-15)
(-0.135276 -4.47559 5.5852e-15)
(-0.306751 -4.13085 1.82529e-15)
(-0.563578 -4.36675 -9.31638e-15)
(-0.770335 -4.33155 3.74535e-14)
(-1.0006 -4.17206 -4.75511e-14)
(-1.27071 -3.95987 -5.99262e-14)
(-1.49473 -3.62918 1.17754e-13)
(-1.66017 -3.23689 5.15273e-14)
(-1.77443 -2.84052 7.59696e-14)
(-1.8051 -2.45595 1.60004e-14)
(-1.78005 -2.10907 3.82053e-15)
(-1.70783 -1.76115 3.06695e-13)
(-1.63583 -1.42182 9.01807e-15)
(-1.52815 -1.19131 1.97808e-13)
(-1.65699 -0.909381 -6.35307e-15)
(-1.81462 -0.709232 -6.22585e-13)
(-1.76214 -0.634458 3.82998e-13)
(-1.63931 -0.526464 8.59669e-13)
(-1.50707 -0.332719 1.5894e-13)
(-1.95644 -0.552773 -5.27955e-14)
(2.7161 -5.56139 -1.99304e-15)
(-2.9257 -0.714822 7.4121e-14)
(-4.43706 -2.33203 4.63339e-14)
(-4.12178 0.635761 -4.84244e-14)
(-1.82993 0.064865 1.74341e-15)
(-1.24403 0.115086 -5.69819e-15)
(-0.954836 0.0750694 6.4455e-15)
(-0.663712 0.0343683 -2.9044e-14)
(-0.655458 0.0329234 -7.80072e-14)
(-0.587756 0.046612 1.86278e-14)
(-0.387265 0.0434075 1.3913e-13)
(0.111668 -0.0283955 2.08096e-14)
(-1.75507 0.0344094 1.13638e-13)
(2.06907 -0.985596 1.03104e-13)
(-1.26125 0.798929 6.95186e-14)
(23.2561 -3.25171 -3.63782e-15)
(13.0025 -0.953694 9.42601e-14)
(-6.66326 2.80564 4.71256e-15)
(0.460029 -3.87218 2.89628e-14)
(0.722627 -3.13222 -4.53256e-14)
(0.863039 -2.37572 -5.945e-14)
(0.979056 -1.8143 -7.44024e-15)
(1.0254 -1.22688 3.81336e-15)
(0.887147 -0.651753 -9.34496e-14)
(0.660753 -0.343491 3.55957e-14)
(0.590608 -0.337369 -1.73967e-13)
(0.61864 -0.409955 -1.26613e-13)
(0.605946 -0.411017 -1.11867e-13)
(0.571701 -0.412917 1.11168e-13)
(0.55794 -0.406974 1.11262e-13)
(0.569163 -0.364246 -6.25633e-14)
(0.569619 -0.273341 -1.40551e-13)
(0.53183 -0.16308 3.95008e-14)
(0.454311 -0.0201227 6.5337e-14)
(0.386254 0.0368863 -1.76285e-14)
(0.306667 0.103028 -8.18044e-14)
(0.234508 0.107356 -2.32085e-14)
(0.198856 0.110253 2.69624e-15)
(0.179271 0.0953864 -1.63499e-14)
(0.178358 0.0990821 -3.3898e-14)
(0.149064 0.138927 7.37527e-15)
(0.172857 0.250698 -6.94161e-16)
(0.0997641 0.153662 4.67622e-16)
(0.0430993 0.00891904 -3.44327e-15)
(0.000729776 -0.0996538 -6.55739e-15)
(-0.0203848 -0.0622236 1.11897e-15)
(-0.0394256 0.0526841 7.71338e-17)
(-0.0566449 0.121546 -1.71849e-15)
(-0.0560177 0.155727 1.40288e-16)
(-0.0476392 0.174727 6.75489e-15)
(-0.0471442 0.133666 -7.25646e-15)
(-0.0338503 0.106421 -1.15883e-14)
(-0.030139 0.084339 1.39838e-15)
(-0.00471174 0.0602387 2.26752e-16)
(0.0188683 0.00210182 -1.44164e-15)
(0.0794237 0.0454204 1.64414e-14)
(2.94078 0.0456306 -4.55937e-15)
(-0.382274 -3.35191 1.24949e-14)
(-0.612797 -3.46905 5.55665e-15)
(-0.688531 -3.24511 -9.80207e-16)
(-0.975977 -3.4133 -4.78098e-15)
(-1.22358 -3.33252 -1.8421e-15)
(-1.47786 -3.17808 -1.05619e-14)
(-1.74347 -2.96871 7.77909e-14)
(-1.94771 -2.67736 1.84131e-14)
(-2.09929 -2.36685 -1.98712e-13)
(-2.20867 -2.06559 6.72737e-14)
(-2.24124 -1.77153 2.26937e-13)
(-2.22759 -1.49502 2.91101e-13)
(-2.17003 -1.24341 6.69703e-14)
(-2.07818 -1.0637 -3.39558e-13)
(-1.97312 -0.963953 -8.53932e-14)
(-1.90512 -0.916228 -8.16485e-14)
(-1.78659 -0.945526 -1.59741e-13)
(-1.6778 -0.82645 -3.45532e-13)
(-1.45261 -0.637265 -5.98595e-13)
(-1.0909 -0.523825 1.4862e-13)
(-0.875765 -0.170305 -1.09798e-13)
(-0.245592 1.62243 -1.83639e-13)
(-0.977356 0.652239 7.36329e-15)
(-4.92403 1.26668 -1.83353e-13)
(-6.64399 0.364459 -8.92686e-15)
(-1.23247 -0.357335 1.53229e-14)
(-0.785112 -0.00227679 2.28713e-14)
(-0.583048 0.0347165 -1.34268e-14)
(-0.391711 0.0212499 2.23433e-14)
(-0.323395 0.0272728 4.05493e-14)
(-0.367244 0.0454827 -4.17498e-14)
(-0.330775 0.05082 1.92385e-14)
(0.0775201 0.0235653 1.36067e-13)
(-1.06249 -0.0473637 9.20602e-14)
(-0.249477 -0.710175 -8.04445e-15)
(0.624609 0.0449177 -1.36019e-13)
(44.5301 -7.75099 -3.85748e-14)
(29.1969 -3.21947 -3.94989e-14)
(-17.12 7.40241 -1.08871e-14)
(-0.0461533 -3.15607 -3.9168e-15)
(0.290942 -2.74383 -4.17795e-14)
(0.557775 -2.09979 -3.83169e-14)
(0.711396 -1.5936 -3.9448e-14)
(0.767677 -1.13489 1.40009e-13)
(0.727421 -0.708345 1.97982e-13)
(0.618853 -0.506306 1.3755e-14)
(0.59373 -0.496671 1.55912e-13)
(0.614405 -0.502007 -1.0322e-14)
(0.615745 -0.467152 -4.17016e-14)
(0.603875 -0.426711 -8.008e-14)
(0.593807 -0.383091 -3.23538e-14)
(0.590579 -0.320109 -2.33451e-14)
(0.577305 -0.240118 7.25414e-14)
(0.540739 -0.155168 -3.88052e-14)
(0.486169 -0.0791009 -1.20244e-13)
(0.41488 -0.0309343 -1.67246e-14)
(0.342172 0.00423432 7.65798e-14)
(0.289116 0.012526 -2.79236e-15)
(0.243177 0.0312898 -2.12368e-14)
(0.207509 0.0388377 -5.55158e-14)
(0.168995 0.0453076 2.20622e-14)
(0.131647 0.0129237 2.84056e-14)
(0.115952 -0.050275 -5.23386e-15)
(0.0896975 -0.0241753 -1.74977e-15)
(0.0509856 0.0157092 2.55989e-15)
(0.0136486 0.0445296 3.33742e-15)
(-0.00781182 0.0311558 -4.61974e-16)
(-0.0316312 -0.012198 2.84756e-16)
(-0.054492 -0.0353878 6.5092e-16)
(-0.0601713 -0.0363151 -1.71577e-15)
(-0.0677814 -0.0496207 -3.26826e-15)
(-0.0638001 -0.0446648 -1.97597e-15)
(-0.0468836 -0.0410918 5.114e-15)
(-0.0353086 -0.0361669 1.18004e-14)
(-0.0163679 -0.0270289 -1.38571e-14)
(-0.0400462 -0.0405003 4.31084e-15)
(0.102165 0.0927468 2.73476e-14)
(1.18595 0.773163 -1.8189e-14)
(-0.127129 -2.87472 -1.08223e-14)
(-0.236578 -2.90573 8.17917e-15)
(-0.292699 -2.75998 -2.59686e-15)
(-0.499598 -2.94763 -4.97361e-15)
(-0.68287 -2.89919 3.36275e-15)
(-0.872342 -2.79742 1.62541e-14)
(-1.06892 -2.68677 -1.3292e-14)
(-1.21448 -2.50942 1.64028e-14)
(-1.33712 -2.31906 -7.61435e-14)
(-1.43541 -2.12959 -2.35215e-13)
(-1.48728 -1.92243 -9.091e-15)
(-1.50769 -1.71453 -1.11023e-13)
(-1.49666 -1.51789 -6.84328e-14)
(-1.46703 -1.34785 -1.53438e-14)
(-1.45556 -1.20177 -2.892e-13)
(-1.44518 -1.08709 2.712e-13)
(-1.45315 -0.927856 1.53051e-13)
(-1.4289 -0.744174 -3.37441e-13)
(-1.27815 -0.526911 1.16706e-13)
(-1.00403 -0.302867 -1.86269e-13)
(-0.67655 -0.151439 -1.24068e-13)
(-0.762392 0.202082 2.38236e-13)
(-0.406605 0.205779 1.88375e-14)
(0.67046 -1.83971 1.89087e-13)
(-3.209 -1.51376 6.49239e-14)
(-0.703668 0.037032 -1.57279e-14)
(-0.627788 0.072193 5.40921e-15)
(-0.751784 0.0113408 2.08243e-14)
(-0.615369 0.0101455 -2.65071e-14)
(-0.511147 0.0404974 -4.58807e-14)
(-0.518169 0.0596942 1.9773e-14)
(-0.417952 0.0416248 -4.07825e-14)
(-0.194743 0.0539901 -3.56181e-14)
(-0.301734 -0.109429 -1.01897e-13)
(-0.351001 -0.341256 -1.78799e-13)
(-4.72236 -0.244316 4.28411e-14)
(19.8442 -4.28179 -1.1341e-13)
(27.6041 -5.09282 -4.20845e-14)
(-34.9754 8.61427 -9.10657e-15)
(0.0726708 -2.71226 2.22023e-14)
(0.280586 -2.29783 4.07865e-14)
(0.422921 -1.79143 -4.54254e-14)
(0.534787 -1.41596 -2.85449e-14)
(0.644625 -1.04656 5.2646e-14)
(0.649763 -0.70798 -1.42623e-13)
(0.599831 -0.565636 -1.02804e-13)
(0.619298 -0.561361 1.68147e-13)
(0.630039 -0.53381 1.94006e-13)
(0.630105 -0.486355 7.47167e-16)
(0.616215 -0.437981 -5.17506e-14)
(0.595115 -0.392215 -3.88384e-14)
(0.572784 -0.33908 1.15687e-13)
(0.54637 -0.275337 -5.02334e-14)
(0.506983 -0.208444 -1.17318e-14)
(0.451408 -0.146266 8.89657e-14)
(0.389284 -0.112285 -4.02414e-14)
(0.332783 -0.0793846 3.54615e-14)
(0.285073 -0.0556194 2.2342e-14)
(0.248369 -0.0460462 2.91881e-15)
(0.220206 -0.0421055 5.82708e-14)
(0.188934 -0.0329638 -2.09494e-14)
(0.155683 -0.0265962 -3.7444e-14)
(0.132263 -0.0192421 -6.56912e-15)
(0.113133 -0.012079 1.388e-14)
(0.0836505 -0.00825957 -2.5154e-16)
(0.047867 -0.000438121 4.66734e-15)
(0.0172164 0.0181511 -8.74435e-16)
(-0.015614 0.0308355 -2.38993e-16)
(-0.0434974 0.0298362 5.89478e-16)
(-0.0541506 0.0273738 1.07864e-15)
(-0.0629388 0.0351149 1.9448e-15)
(-0.0613096 0.0355925 -3.37285e-15)
(-0.0484982 0.0367983 -1.43069e-14)
(-0.0412975 0.0387001 -4.95898e-15)
(-0.0298313 0.0397152 -4.25484e-15)
(-0.0463412 0.0215141 -7.70637e-15)
(0.135635 0.0317922 -1.7197e-14)
(0.818292 0.89871 -1.6031e-15)
(-0.185972 -2.39166 1.69439e-15)
(-0.278622 -2.43086 -3.8477e-16)
(-0.322175 -2.32367 2.12419e-15)
(-0.51041 -2.47181 -1.14148e-15)
(-0.685936 -2.41454 2.77621e-15)
(-0.856526 -2.31786 -6.83073e-15)
(-1.03027 -2.22117 -2.63501e-14)
(-1.16574 -2.07053 5.75216e-14)
(-1.28688 -1.91089 1.30488e-13)
(-1.39105 -1.74744 -8.38913e-14)
(-1.45614 -1.56464 -8.65667e-14)
(-1.49492 -1.37909 5.59074e-14)
(-1.50739 -1.19911 -1.24445e-13)
(-1.51131 -1.05031 -1.74633e-14)
(-1.51279 -0.925975 -3.95202e-14)
(-1.51598 -0.820096 2.0253e-14)
(-1.51235 -0.698546 3.93983e-14)
(-1.45029 -0.617163 4.04191e-13)
(-1.28359 -0.466984 3.30186e-13)
(-0.970353 -0.265693 -1.41435e-13)
(-0.671525 -0.0786045 2.00395e-13)
(-0.563308 0.142968 1.85812e-14)
(-0.602049 0.136928 -5.96263e-14)
(-0.33358 0.0678482 -1.10907e-13)
(-1.29086 -0.374437 8.89509e-15)
(-0.497843 0.152889 2.58309e-14)
(-0.601433 0.0561976 3.35993e-14)
(-0.734973 0.00416759 -3.17762e-14)
(-0.656177 0.0188564 6.93861e-15)
(-0.577672 0.0495205 6.31348e-14)
(-0.601916 0.0638066 -2.58613e-14)
(-0.507529 0.0482775 -1.38605e-13)
(-0.375074 0.0583222 -6.61245e-14)
(-0.372232 -0.124092 -6.60946e-14)
(0.834182 -0.220756 4.59954e-14)
(-3.55129 -0.928343 2.25616e-14)
(-2.6727 -2.01674 1.1574e-13)
(9.56061 -2.70162 1.00598e-13)
(-28.5056 6.02555 -1.99494e-14)
(-0.0621677 -2.22323 -9.55276e-15)
(0.107171 -1.9194 -1.45907e-14)
(0.294846 -1.53046 1.82407e-15)
(0.434196 -1.24616 3.90408e-14)
(0.565307 -0.963163 5.25017e-14)
(0.598738 -0.71436 -2.01916e-13)
(0.59089 -0.601934 -1.24351e-13)
(0.625578 -0.577662 -1.59152e-13)
(0.640479 -0.534271 3.84275e-14)
(0.643346 -0.47578 2.1687e-14)
(0.632996 -0.414838 -5.75686e-14)
(0.610844 -0.355743 4.7122e-15)
(0.581038 -0.294557 -2.39434e-14)
(0.545765 -0.228231 -4.22035e-14)
(0.502665 -0.160052 -1.35275e-13)
(0.448155 -0.0913481 -1.25506e-14)
(0.390742 -0.0336677 7.95513e-14)
(0.340017 0.00481658 -1.23112e-14)
(0.294869 0.0286302 1.556e-14)
(0.2567 0.0406132 -2.66794e-14)
(0.226042 0.0442797 -4.03382e-14)
(0.1934 0.0432561 -2.98446e-15)
(0.157136 0.0386718 1.34526e-14)
(0.128114 0.0353407 1.46254e-14)
(0.105635 0.0359163 -1.20173e-15)
(0.0759663 0.0367217 -5.19362e-15)
(0.0394617 0.0405123 -8.88432e-15)
(0.0094041 0.0482996 1.69239e-15)
(-0.0218422 0.0510487 2.01381e-16)
(-0.0493692 0.0501906 -5.85095e-16)
(-0.0588969 0.0545783 -1.04372e-15)
(-0.0645528 0.0502243 -1.78625e-15)
(-0.062519 0.0383645 3.1092e-15)
(-0.0496198 0.0281964 1.27678e-14)
(-0.0408054 0.0223668 3.82373e-15)
(-0.0289908 0.0153042 7.16452e-15)
(-0.0303095 -0.00216919 -2.69601e-15)
(0.0964702 0.013117 -1.07399e-14)
(1.24295 0.0803778 -2.64286e-15)
(-0.208725 -1.97337 6.17286e-16)
(-0.251591 -2.01805 -3.76036e-16)
(-0.283489 -1.94656 -2.17799e-15)
(-0.435699 -2.0711 3.29333e-15)
(-0.573847 -2.02405 2.31667e-15)
(-0.703862 -1.95535 -9.62155e-15)
(-0.83867 -1.891 3.09947e-14)
(-0.941271 -1.77941 -1.14435e-14)
(-1.03221 -1.66317 4.4455e-14)
(-1.112 -1.54627 8.36007e-14)
(-1.16225 -1.41159 1.50683e-14)
(-1.19398 -1.2736 2.66695e-14)
(-1.19879 -1.1446 1.81063e-13)
(-1.2005 -1.02653 3.18859e-13)
(-1.21864 -0.9256 2.88521e-13)
(-1.23381 -0.849263 -5.21741e-15)
(-1.22724 -0.77837 3.57885e-13)
(-1.18187 -0.658195 1.06697e-14)
(-1.0476 -0.488397 -1.06793e-13)
(-0.79573 -0.282301 1.45612e-13)
(-0.526906 -0.0853277 -2.41932e-13)
(-0.431846 0.0749974 9.88276e-14)
(-0.526548 0.116066 1.10479e-13)
(-0.610956 -0.0636394 3.68181e-14)
(0.00172699 -0.554904 1.05071e-13)
(-0.26192 0.127633 -4.08403e-14)
(-0.390557 0.0102082 -3.64847e-14)
(-0.451913 -0.023508 4.85222e-15)
(-0.407755 0.0113661 2.37205e-14)
(-0.380385 0.0304057 -5.91264e-14)
(-0.457238 0.0497768 -5.70891e-14)
(-0.428537 0.0557135 1.05463e-13)
(-0.342447 0.0500973 2.24677e-14)
(-0.634585 -0.136819 -3.81129e-14)
(1.0871 -0.178748 9.21726e-15)
(-0.957062 -1.02643 -8.74505e-14)
(-8.96004 -0.728513 5.22114e-14)
(5.64976 -1.30647 -3.25576e-14)
(-20.1078 6.4654 7.28192e-15)
(-0.0936589 -1.8214 -6.73973e-15)
(0.0767498 -1.6148 -1.03928e-14)
(0.241021 -1.33892 7.40542e-15)
(0.435246 -1.13306 7.87494e-14)
(0.54562 -0.892328 3.56684e-14)
(0.584565 -0.70051 1.04575e-14)
(0.605673 -0.610305 1.65935e-13)
(0.651472 -0.566208 -9.27216e-14)
(0.675534 -0.508891 -1.45464e-13)
(0.68214 -0.44085 4.40381e-14)
(0.67469 -0.371042 9.5278e-14)
(0.651698 -0.301876 -2.13076e-14)
(0.615734 -0.233654 6.26778e-14)
(0.571949 -0.168567 6.0915e-15)
(0.526662 -0.100822 3.2642e-14)
(0.468654 -0.0430975 1.4363e-14)
(0.406171 0.0104333 -3.44359e-14)
(0.347483 0.046112 2.94132e-14)
(0.299314 0.0634744 -2.20326e-14)
(0.25949 0.0699155 2.71743e-15)
(0.223425 0.0700393 5.53998e-14)
(0.185797 0.0656246 -1.89843e-14)
(0.146151 0.0599769 -2.48011e-14)
(0.113123 0.0549144 5.26521e-15)
(0.0883436 0.0505005 -8.67844e-16)
(0.0583373 0.0453727 1.37008e-15)
(0.0218654 0.0425954 4.70077e-15)
(-0.00698894 0.0444213 -7.7785e-16)
(-0.0356475 0.0423923 1.53038e-16)
(-0.06042 0.0351856 3.80962e-17)
(-0.0675573 0.031795 -2.45286e-15)
(-0.0722477 0.0252071 3.98695e-16)
(-0.069053 0.0166738 4.51496e-15)
(-0.0546822 0.0125499 -4.64802e-16)
(-0.0456508 0.00932348 -5.40442e-16)
(-0.0328683 0.00735531 -8.07056e-16)
(-0.0185921 0.00621393 3.25188e-15)
(0.0199241 0.022798 1.1953e-14)
(1.08043 -0.200957 -8.03271e-15)
(-0.254472 -1.61728 3.52055e-15)
(-0.305573 -1.65781 -3.74074e-15)
(-0.327991 -1.59859 3.02339e-15)
(-0.456005 -1.69935 -9.33536e-15)
(-0.560297 -1.66119 5.33059e-15)
(-0.658975 -1.6083 3.83556e-15)
(-0.768695 -1.56156 6.0542e-15)
(-0.853642 -1.47466 -8.35414e-14)
(-0.930248 -1.38325 -6.3093e-15)
(-0.999619 -1.28927 1.30229e-13)
(-1.04436 -1.17812 -5.35813e-14)
(-1.07456 -1.0626 -1.25983e-13)
(-1.09037 -0.946858 -2.51852e-13)
(-1.08962 -0.827062 -2.14656e-13)
(-1.1022 -0.745847 -1.48188e-13)
(-1.11933 -0.680305 -5.70183e-14)
(-1.12617 -0.607786 -2.01612e-13)
(-1.07494 -0.507934 -2.75283e-13)
(-0.93123 -0.374678 -1.36474e-13)
(-0.669501 -0.189274 3.3063e-13)
(-0.419709 -0.00542896 3.07285e-13)
(-0.374552 0.106906 -2.75703e-14)
(-0.475347 0.0790915 -4.46453e-14)
(-0.568327 -0.0555258 -1.44628e-13)
(-0.190025 -0.0669001 -8.07958e-14)
(-0.312776 0.0888106 3.67483e-14)
(-0.300057 0.0286169 2.82207e-14)
(-0.246223 0.00154175 3.3035e-15)
(-0.170736 0.0255095 -1.63776e-14)
(-0.137703 0.023806 6.03479e-14)
(-0.22074 0.0409596 1.29111e-13)
(-0.226195 0.053377 -1.00916e-15)
(-0.152477 0.0368451 1.42128e-14)
(-0.626297 -0.16759 3.17174e-14)
(0.637592 -0.124833 -1.79148e-14)
(-0.0995635 -0.835451 8.98709e-14)
(-5.62692 -1.2211 -5.0227e-14)
(5.78808 -0.376963 -7.23861e-14)
(-20.383 9.7444 -2.7931e-14)
(-0.109288 -1.55244 1.78314e-14)
(0.10438 -1.44705 2.21033e-14)
(0.267881 -1.26363 4.81675e-15)
(0.363334 -1.07283 1.1332e-13)
(0.456159 -0.820387 -1.83588e-13)
(0.493349 -0.66916 8.26323e-14)
(0.53045 -0.605083 1.50738e-13)
(0.577422 -0.561915 7.92891e-14)
(0.60984 -0.505812 -3.25274e-14)
(0.624833 -0.440174 -3.35231e-14)
(0.626593 -0.374585 2.34291e-14)
(0.612175 -0.307927 3.50922e-14)
(0.581905 -0.23787 -8.27104e-14)
(0.545655 -0.171789 6.37137e-14)
(0.499027 -0.109246 1.49369e-14)
(0.441462 -0.0559119 -1.19354e-14)
(0.387912 -0.0143426 -5.33822e-14)
(0.33944 0.0182679 -5.31508e-14)
(0.298494 0.0394154 4.3695e-14)
(0.263886 0.0496696 1.29485e-14)
(0.231701 0.0550019 4.5747e-15)
(0.195851 0.0586077 4.3245e-14)
(0.15689 0.0603552 1.68208e-14)
(0.123456 0.0604355 -2.00281e-15)
(0.0976684 0.059354 4.59711e-15)
(0.0662906 0.05636 -2.94781e-15)
(0.0278837 0.0534172 -5.78377e-15)
(-0.00243159 0.0533269 9.58944e-16)
(-0.0314142 0.0499924 -5.09358e-16)
(-0.0569448 0.0414188 3.64179e-16)
(-0.0650176 0.0377041 2.34141e-15)
(-0.069628 0.0323898 -2.37543e-15)
(-0.0676122 0.0222743 -9.22228e-15)
(-0.0542227 0.0157025 -8.31186e-15)
(-0.0467493 0.0127888 -5.01586e-15)
(-0.0349299 0.0115698 2.10592e-15)
(-0.00820279 0.010416 -2.9719e-15)
(-0.0644981 0.0317836 -5.8737e-15)
(0.804378 -0.244404 6.88806e-15)
(-0.176886 -1.45159 8.19962e-16)
(-0.227199 -1.45209 2.00592e-15)
(-0.246112 -1.41738 -1.50031e-15)
(-0.353613 -1.50243 -2.97686e-15)
(-0.441462 -1.47703 -1.5294e-14)
(-0.525007 -1.44216 1.37566e-14)
(-0.623714 -1.41546 -1.24204e-14)
(-0.705093 -1.35454 -1.17614e-14)
(-0.780634 -1.28994 -2.74174e-14)
(-0.852136 -1.22147 -3.51989e-14)
(-0.90366 -1.13487 1.5111e-14)
(-0.944354 -1.04353 1.49243e-13)
(-0.973791 -0.950039 2.02053e-13)
(-0.997017 -0.862701 3.31675e-14)
(-1.02913 -0.791463 8.10136e-15)
(-1.0639 -0.730318 1.30334e-14)
(-1.08028 -0.655491 -3.80904e-14)
(-1.04311 -0.539077 1.16558e-13)
(-0.910361 -0.368092 1.04837e-13)
(-0.623165 -0.164719 -2.5725e-13)
(-0.353032 0.00299305 -2.84349e-14)
(-0.302718 0.0851582 5.58986e-14)
(-0.434198 0.0587006 -6.57395e-14)
(-0.483274 -0.0335079 7.45012e-14)
(-0.381517 -0.0986347 2.92216e-16)
(-0.40167 -0.031389 -1.2417e-14)
(-0.34481 0.0148417 -3.62473e-14)
(-0.241023 0.00260245 1.78933e-15)
(-0.12156 0.0263101 -2.2029e-16)
(-0.0490765 0.0192904 3.38306e-14)
(-0.0911083 0.0350089 1.25011e-14)
(-0.0783757 0.0479033 -5.79534e-14)
(0.0244481 0.0264459 -1.68625e-14)
(-0.412594 -0.193393 1.11959e-13)
(0.256067 -0.0564759 1.98867e-14)
(-0.243599 -0.69466 -2.05119e-14)
(-2.7489 -1.8751 -3.28031e-14)
(4.82932 1.06325 6.21347e-14)
(-24.2915 12.6554 2.38606e-14)
(-0.0432722 -1.47817 4.10597e-15)
(0.0814054 -1.34985 -5.19646e-14)
(0.212655 -1.06646 1.89767e-14)
(0.250791 -0.838027 2.68219e-14)
(0.28426 -0.675547 4.80154e-14)
(0.312583 -0.596945 -1.65804e-14)
(0.35965 -0.569697 -2.80119e-14)
(0.404961 -0.542024 -5.51349e-15)
(0.44218 -0.504935 -8.28666e-15)
(0.465888 -0.456605 9.89358e-15)
(0.479665 -0.406585 3.51219e-14)
(0.480217 -0.355934 6.16787e-14)
(0.468174 -0.300996 -1.5236e-15)
(0.448411 -0.242347 -1.3069e-13)
(0.416938 -0.188335 2.42035e-14)
(0.382079 -0.133158 7.05262e-14)
(0.34606 -0.0863704 5.3432e-14)
(0.311745 -0.050034 2.44539e-14)
(0.282159 -0.0237046 -1.87917e-14)
(0.256204 -0.00559446 -4.43902e-15)
(0.229983 0.00792003 -1.97562e-14)
(0.198231 0.0196012 -3.61638e-14)
(0.162285 0.0294551 1.45825e-14)
(0.130863 0.0367476 1.37556e-14)
(0.106253 0.0415308 2.18458e-15)
(0.0751153 0.0435794 1.14307e-14)
(0.0358183 0.0444312 3.44425e-15)
(0.00457166 0.0468786 -7.72971e-16)
(-0.0245969 0.0459304 2.86324e-16)
(-0.0510015 0.0394751 -5.96059e-16)
(-0.0602666 0.036796 1.22948e-15)
(-0.0650192 0.0322469 1.29071e-15)
(-0.0646717 0.0245055 4.20121e-15)
(-0.0529784 0.0200681 2.90823e-15)
(-0.0461612 0.0178187 -5.79992e-15)
(-0.0345914 0.0171331 6.01395e-16)
(-0.00291364 0.0168638 5.3333e-16)
(-0.115072 0.0361387 -6.82469e-16)
(0.628725 -0.241782 3.40187e-16)
(-0.104231 -1.33954 3.90618e-15)
(-0.135489 -1.31608 -1.00688e-15)
(-0.161708 -1.29171 -6.32438e-15)
(-0.265392 -1.36081 -9.69099e-16)
(-0.353227 -1.33073 1.11615e-14)
(-0.428703 -1.29672 -1.14007e-14)
(-0.516281 -1.27509 -9.81642e-16)
(-0.590626 -1.22491 2.27643e-14)
(-0.661072 -1.17569 1.40218e-14)
(-0.729151 -1.12373 3.01949e-14)
(-0.780726 -1.05388 6.49041e-14)
(-0.824503 -0.981331 5.52159e-14)
(-0.860611 -0.906456 -1.2851e-13)
(-0.893007 -0.834882 -2.08677e-13)
(-0.935196 -0.777392 3.54925e-14)
(-0.983077 -0.720414 2.70398e-13)
(-1.00981 -0.639158 5.77653e-14)
(-0.97508 -0.519987 -1.55313e-13)
(-0.842463 -0.353816 -2.59721e-14)
(-0.58937 -0.152166 3.28394e-14)
(-0.31789 0.0162213 -6.5004e-14)
(-0.272616 0.0868271 -7.9258e-14)
(-0.427032 0.0568205 6.32526e-15)
(-0.466783 -0.0202171 5.88749e-14)
(-0.374965 -0.092688 5.29979e-14)
(-0.395582 -0.0346921 -3.14911e-15)
(-0.374034 0.0245997 3.06266e-14)
(-0.290847 0.00166102 5.53756e-15)
(-0.170954 0.0249821 5.15167e-14)
(-0.0866539 0.0179558 -4.02559e-14)
(-0.100797 0.0311994 -1.30963e-13)
(-0.0646528 0.0410283 -4.46298e-14)
(0.0716873 0.0195515 2.63779e-14)
(-0.239217 -0.19726 2.22781e-14)
(0.143058 0.00768156 -2.11954e-14)
(-0.369567 -0.652621 -3.14434e-14)
(-2.20503 -2.10595 5.00031e-14)
(2.51034 3.01096 1.88891e-14)
(-23.2478 14.002 3.40735e-15)
(-0.0383307 -1.24938 -8.99691e-15)
(0.0335458 -1.02201 -8.59492e-15)
(0.0713949 -0.805692 -1.28429e-14)
(0.142677 -0.679408 -2.45501e-14)
(0.221327 -0.575803 3.33126e-14)
(0.258798 -0.532929 -4.08937e-14)
(0.306535 -0.516083 -2.04833e-14)
(0.349572 -0.491106 6.4147e-14)
(0.384328 -0.459002 -3.33278e-14)
(0.407377 -0.417876 6.75561e-14)
(0.422596 -0.375507 6.71769e-14)
(0.425617 -0.33116 4.47738e-14)
(0.416153 -0.283679 2.91192e-14)
(0.398587 -0.235612 4.64216e-14)
(0.373725 -0.1881 -1.32068e-14)
(0.34404 -0.142028 3.81413e-15)
(0.314694 -0.101428 3.31782e-14)
(0.287627 -0.0684788 2.46404e-14)
(0.264679 -0.0429933 -2.40746e-15)
(0.244053 -0.0234023 -4.94859e-14)
(0.221668 -0.00699249 -9.489e-15)
(0.192667 0.00796318 2.40154e-16)
(0.158829 0.0209422 -3.13372e-14)
(0.129056 0.0305808 3.38312e-15)
(0.105866 0.0369592 -4.15947e-15)
(0.0757159 0.0405173 -9.09944e-15)
(0.0365691 0.0424355 7.38984e-16)
(0.00537435 0.0451864 7.18175e-17)
(-0.0230651 0.0447774 7.49825e-19)
(-0.0494209 0.0386965 4.1452e-16)
(-0.0591409 0.0361754 -1.06681e-15)
(-0.0633202 0.0323487 -2.62831e-15)
(-0.0630362 0.0247962 2.41156e-15)
(-0.0521351 0.0196018 6.8778e-15)
(-0.0456968 0.0169239 3.68951e-15)
(-0.0338808 0.0165469 -2.28358e-15)
(-0.00343718 0.0179466 3.36092e-15)
(-0.112302 0.0313538 9.05289e-15)
(0.520259 -0.160434 4.07595e-15)
(-0.12287 -1.05035 -3.12634e-15)
(-0.159272 -1.09559 9.16305e-16)
(-0.19643 -1.0789 6.12024e-15)
(-0.288024 -1.1415 7.94254e-15)
(-0.364232 -1.10751 7.31179e-16)
(-0.424875 -1.07303 2.60179e-15)
(-0.493364 -1.05334 -9.0525e-15)
(-0.54839 -1.01033 -3.55503e-14)
(-0.598134 -0.970515 -3.45565e-14)
(-0.646509 -0.931949 -9.83876e-15)
(-0.68189 -0.879536 -5.03243e-14)
(-0.71255 -0.826063 -1.53214e-14)
(-0.73967 -0.773443 1.19558e-13)
(-0.765939 -0.726403 6.00985e-14)
(-0.803509 -0.689303 -4.07322e-15)
(-0.8461 -0.647461 -2.09075e-13)
(-0.873818 -0.586337 -5.67817e-14)
(-0.847832 -0.489734 1.92711e-13)
(-0.717493 -0.336676 9.18399e-14)
(-0.489537 -0.148897 -4.42501e-14)
(-0.244861 0.00799905 -3.50418e-15)
(-0.221593 0.0654377 4.43851e-14)
(-0.404434 0.0334741 1.09913e-14)
(-0.46056 -0.0138685 -8.01031e-14)
(-0.362131 -0.0478151 -1.34778e-13)
(-0.362317 -0.00916999 4.02128e-14)
(-0.36106 0.0232525 -7.23886e-15)
(-0.299152 0.0035369 -8.13568e-15)
(-0.195599 0.0329059 -2.83896e-14)
(-0.127735 0.0230438 -2.56374e-14)
(-0.146294 0.0282461 3.96234e-14)
(-0.114868 0.03167 1.30053e-13)
(0.021541 0.0132292 3.70395e-14)
(-0.19649 -0.183463 -9.60999e-14)
(0.110373 0.0598777 1.46625e-14)
(-0.273083 -0.623865 -2.71425e-14)
(-2.69433 -1.96462 -8.94036e-15)
(0.468477 4.6949 -2.45293e-14)
(-14.7874 12.6761 1.56673e-14)
(-0.0988351 -0.918054 8.76596e-15)
(-0.0397942 -0.786769 2.85184e-14)
(0.0641412 -0.676922 -6.35008e-14)
(0.157017 -0.616508 -5.84871e-15)
(0.250961 -0.542418 -1.24815e-13)
(0.296467 -0.490174 7.18697e-15)
(0.342119 -0.466454 3.29937e-14)
(0.381236 -0.435812 -1.30709e-13)
(0.410942 -0.398953 2.5851e-14)
(0.428797 -0.354871 -1.27255e-14)
(0.437149 -0.312256 -6.20574e-14)
(0.433151 -0.270138 -7.55539e-14)
(0.417644 -0.226446 -9.20308e-16)
(0.39505 -0.184217 5.53297e-14)
(0.36623 -0.144445 2.3351e-14)
(0.334089 -0.107169 -2.23037e-14)
(0.303848 -0.0748063 -3.14993e-14)
(0.277125 -0.0484549 -8.28058e-15)
(0.255027 -0.0274977 1.59047e-14)
(0.235137 -0.0105156 4.18197e-14)
(0.21312 0.00453737 4.18137e-14)
(0.184423 0.0186807 3.72024e-14)
(0.150996 0.0308701 -1.49867e-15)
(0.121835 0.0393374 -3.36594e-14)
(0.099391 0.0442514 3.09457e-15)
(0.0699673 0.0465971 -9.85217e-15)
(0.0311873 0.0473284 -5.45775e-15)
(0.000421118 0.0486735 -6.87847e-16)
(-0.0268418 0.047366 3.59108e-16)
(-0.0525313 0.0407085 -2.0533e-16)
(-0.0621297 0.0374266 6.34976e-16)
(-0.0653235 0.0329625 2.36725e-15)
(-0.0643153 0.0251375 -2.80652e-15)
(-0.0538759 0.0204353 -2.20309e-15)
(-0.0476216 0.0176707 3.92717e-15)
(-0.0350614 0.0177208 5.34805e-16)
(-0.00884649 0.0200856 -1.1395e-15)
(-0.0868381 0.028838 -1.01191e-15)
(0.442855 -0.0826204 -2.16845e-14)
(-0.178169 -0.811867 -5.45822e-16)
(-0.205055 -0.863953 6.3151e-16)
(-0.236916 -0.859639 -3.05473e-16)
(-0.319216 -0.906657 -2.22593e-15)
(-0.383119 -0.883721 5.14765e-15)
(-0.429608 -0.855677 -8.47826e-16)
(-0.483238 -0.840831 2.81229e-15)
(-0.523325 -0.807879 2.01598e-14)
(-0.558559 -0.777693 -2.23974e-14)