/*--------------------------------*- C++ -*----------------------------------*\
| =========                 |                                                 |
| \\      /  F ield         | OpenFOAM: The Open Source CFD Toolbox           |
|  \\    /   O peration     | Version:  2312                                  |
|   \\  /    A nd           | Website:  www.openfoam.com                      |
|    \\/     M anipulation  |                                                 |
\*---------------------------------------------------------------------------*/
FoamFile
{
    version     2.0;
    format      ascii;
    arch        "LSB;label=32;scalar=64";
    class       volSymmTensorField;
    location    "100";
    object      turbulenceProperties:devReff;
}
// * * * * * * * * * * * * * * * * * * * * * * * * * * * * * * * * * * * * * //

dimensions      [0 2 -2 0 0 0 0];

internalField   nonuniform List<symmTensor> 
10720
(
(0.00967382 0.0223664 -2.67726e-20 -0.0103656 -3.45101e-19 0.000691813)
(0.0127023 0.0238305 2.17114e-20 -0.0131568 3.1919e-19 0.000454483)
(0.0196224 0.0279022 6.9495e-20 -0.020611 2.97819e-19 0.000988641)
(0.0261205 0.0295014 4.75262e-19 -0.0272728 3.00339e-18 0.00115228)
(0.0333272 0.0296684 -1.39184e-18 -0.0344766 -5.21299e-18 0.00114937)
(0.0439407 0.0296368 -1.5469e-18 -0.0455395 -3.10138e-18 0.00159872)
(0.0580775 0.0289912 4.59669e-19 -0.0600011 3.06953e-20 0.00192363)
(0.0757642 0.0261565 2.46652e-19 -0.0780166 3.90001e-19 0.00225232)
(0.0981178 0.019869 6.47267e-19 -0.100974 -5.22838e-19 0.00285632)
(0.127413 0.00920991 -1.06596e-19 -0.130885 -1.06947e-19 0.00347267)
(0.167569 -0.00887903 1.27847e-17 -0.171958 5.36348e-18 0.00438921)
(0.2264 -0.0398149 -3.18618e-18 -0.232175 -2.44683e-18 0.00577478)
(0.318374 -0.0950519 7.27435e-18 -0.32628 -1.0917e-17 0.00790594)
(0.465443 -0.197897 4.0658e-18 -0.476831 8.91013e-18 0.0113882)
(0.751297 -0.421044 8.57339e-18 -0.769806 -1.51998e-17 0.0185093)
(1.31123 -0.928725 2.79993e-18 -1.34403 7.3025e-17 0.032793)
(2.30862 -2.0256 5.04066e-16 -2.36986 2.52548e-16 0.0612467)
(4.47213 -4.81199 -1.51222e-16 -4.60014 2.52222e-16 0.128015)
(7.83307 -10.3863 -1.21395e-16 -8.08576 -1.59683e-15 0.252682)
(10.6817 -17.6876 1.39369e-16 -11.0692 5.9046e-18 0.387514)
(13.0845 -27.8181 -2.55e-15 -13.6471 -1.21322e-15 0.562616)
(15.6708 -44.2541 4.66048e-15 -16.4567 4.20058e-15 0.785912)
(17.044 -65.7679 -1.62315e-15 -17.9907 -3.15174e-15 0.94674)
(17.7991 -95.5523 1.18981e-15 -18.8388 2.50628e-16 1.03972)
(17.252 -135.114 -3.26664e-16 -18.2855 -1.58913e-17 1.03352)
(13.8401 -176.15 1.25159e-16 -15.4331 -2.13632e-15 1.59302)
(9.32961 -299.699 6.03051e-16 -12.5171 -1.912e-16 3.18752)
(-10.0723 -444.87 8.25236e-16 8.12591 1.42161e-15 1.94641)
(-23.0292 -285.332 1.69613e-14 24.8047 4.71922e-16 -1.77545)
(-11.9468 -94.675 8.87541e-15 12.6363 4.4665e-15 -0.689521)
(-4.08597 -25.2855 -2.68916e-15 4.18863 -6.50444e-16 -0.102661)
(-0.421958 -2.19894 -3.94905e-16 0.426579 -1.92177e-16 -0.00462129)
(-0.095583 -0.451976 -2.18556e-17 0.0959266 -8.18479e-17 -0.000343568)
(-0.00725095 -0.0340846 -9.82632e-18 0.00725959 -1.22375e-17 -8.64306e-06)
(-0.000143133 -0.000696873 1.0941e-19 0.000137444 3.63961e-19 5.68968e-06)
(-4.3427e-05 -0.000242209 4.90218e-20 5.13862e-05 4.41794e-19 -7.95915e-06)
(0.000213705 0.000462258 -1.4333e-19 -0.000200705 2.12095e-20 -1.29997e-05)
(0.0199768 0.0685086 -3.43548e-17 -0.0126931 -2.78545e-16 -0.00728362)
(-0.332757 1.71307 9.57505e-16 0.564074 -9.89384e-16 -0.231317)
(0.0104259 0.0331789 1.82632e-20 -0.0108365 -4.89972e-20 0.000410564)
(0.00763453 0.0326458 -1.25342e-19 -0.00846556 1.37108e-19 0.00083103)
(0.00299881 0.0207434 -4.29206e-19 -0.00330874 -3.17519e-19 0.000309927)
(0.00115757 0.017611 6.21806e-19 -0.00139164 -7.39046e-19 0.000234066)
(0.000348263 0.0162273 -1.05442e-18 -0.000444971 3.46552e-20 9.67082e-05)
(0.00102275 0.0237418 -9.05042e-18 -0.000602795 1.18529e-17 -0.000419954)
(0.00455902 0.0259934 8.63726e-18 -0.00295718 1.25614e-17 -0.00160184)
(0.00980503 0.0237187 4.32147e-18 -0.00828667 -2.03454e-17 -0.00151836)
(0.0153482 0.0224036 6.43893e-18 -0.0149245 -6.79628e-19 -0.000423695)
(0.0195219 0.0221389 -3.29524e-18 -0.0196668 -1.00214e-18 0.000144903)
(0.0235579 0.0246893 2.29025e-18 -0.0238777 5.48203e-18 0.000319827)
(0.0284813 0.0306402 4.08317e-18 -0.028897 -1.99181e-18 0.000415655)
(0.0358365 0.0418342 -4.08109e-18 -0.0364197 -4.64593e-19 0.000583237)
(0.0476949 0.0617893 1.24676e-18 -0.0485385 7.66013e-19 0.000843604)
(0.0690358 0.0994291 1.36701e-17 -0.0702261 1.30334e-18 0.00119035)
(0.102735 0.164839 1.42029e-17 -0.104545 -3.24989e-18 0.00181018)
(0.161105 0.286665 6.56115e-18 -0.163872 8.5647e-18 0.00276684)
(0.231497 0.45587 3.27385e-18 -0.235466 9.61992e-18 0.00396918)
(0.32099 0.69742 4.69166e-18 -0.326375 -2.61155e-18 0.00538455)
(0.375947 0.903729 6.99473e-18 -0.382468 3.88673e-19 0.0065206)
(0.415359 1.10982 -8.1324e-18 -0.422867 -4.91023e-17 0.00750804)
(0.468038 1.40899 -2.34297e-17 -0.477353 -5.70003e-20 0.00931492)
(0.549374 1.90563 1.722e-17 -0.562177 2.35098e-17 0.012803)
(0.649804 2.71507 7.63683e-18 -0.670057 -2.08873e-19 0.0202527)
(0.713224 3.79823 2.95916e-16 -0.743598 -4.15242e-17 0.0303735)
(0.703377 5.09637 3.77294e-19 -0.742881 -9.25291e-18 0.0395034)
(0.430054 4.78445 -6.60637e-20 -0.464497 -2.4349e-18 0.0344425)
(0.127668 2.88557 -2.214e-19 -0.146719 6.80189e-21 0.0190511)
(0.00158679 1.22071 3.34553e-19 -0.00920209 4.53072e-21 0.0076153)
(-0.0142548 0.363013 8.87071e-18 0.0120491 -6.03994e-19 0.00220574)
(-0.00500903 0.0644467 -9.17381e-20 0.00462258 -4.57666e-21 0.000386445)
(-0.000595377 0.00521386 -2.0945e-20 0.000564718 5.83797e-20 3.06585e-05)
(-0.000353267 0.00237405 -3.65646e-19 0.000339772 -4.96787e-20 1.34956e-05)
(-0.000318559 0.00175476 -4.76813e-19 0.000309075 1.0156e-19 9.48449e-06)
(-0.000352381 0.00165632 4.24673e-19 0.000343916 1.95445e-20 8.46524e-06)
(-0.00371266 0.0152784 -1.68583e-20 0.00363708 -3.30221e-19 7.55766e-05)
(-0.00040403 0.00145995 -4.82024e-21 0.000398113 4.58924e-20 5.91693e-06)
(-0.211698 0.666637 2.37431e-19 0.202081 -1.10679e-17 0.00961727)
(-15.821 41.2915 -1.43609e-14 15.5965 -2.22543e-15 0.224516)
(0.0158688 -0.0115732 -1.04942e-19 -0.0144697 -3.10492e-19 -0.00139908)
(0.0174817 -0.0180154 1.94068e-19 -0.0154117 5.4256e-19 -0.00207)
(0.00961894 -0.0149272 2.19807e-20 -0.00781199 8.29495e-21 -0.00180695)
(0.00502506 -0.0119628 2.43832e-19 -0.00344131 3.10999e-20 -0.00158375)
(0.00234067 -0.0099679 2.32438e-19 -0.000880225 1.35532e-18 -0.00146045)
(0.000552042 -0.00899582 1.01057e-18 0.000962899 1.81262e-18 -0.00151494)
(-0.000739397 -0.00819756 -4.47318e-19 0.00237454 7.35445e-20 -0.00163514)
(-0.00166615 -0.00727786 -4.00518e-19 0.00340845 -1.15291e-19 -0.0017423)
(-0.00230102 -0.0063834 -2.60004e-18 0.00416401 -2.83916e-18 -0.001863)
(-0.00263909 -0.00559137 -8.67378e-19 0.00464018 -3.07751e-19 -0.00200108)
(-0.00276484 -0.00493663 -8.53452e-18 0.00492177 -8.23258e-18 -0.00215693)
(-0.00272666 -0.00446358 -1.11858e-19 0.00506108 1.40942e-18 -0.00233442)
(-0.00270842 -0.00451786 -5.26671e-18 0.00539849 9.20694e-20 -0.00269008)
(-0.00317701 -0.00616434 5.0791e-18 0.00709165 3.00409e-18 -0.00391464)
(-0.00442041 -0.0121703 -2.03162e-17 0.0121424 -5.91543e-18 -0.00772196)
(-0.00517129 -0.030953 1.05381e-16 0.0235598 2.49402e-17 -0.0183885)
(0.00268907 -0.0826489 -2.31251e-16 0.0403963 -1.92279e-16 -0.0430854)
(0.0453458 -0.238188 -5.37469e-16 0.0594971 -1.85567e-16 -0.104843)
(0.19895 -0.66184 -1.38782e-15 0.0435847 5.60936e-16 -0.242535)
(0.592104 -1.60612 3.33998e-16 -0.0974546 2.59561e-18 -0.49465)
(1.24419 -3.03062 3.08786e-15 -0.413788 2.92027e-15 -0.830404)
(2.75741 -5.96992 -6.72723e-15 -1.22568 -8.18132e-15 -1.53173)
(5.19497 -11.0599 1.15147e-15 -2.49245 1.01041e-14 -2.70252)
(3.70792 -9.91862 6.81242e-17 -1.14124 -1.61548e-15 -2.56668)
(2.11334 -7.14303 -0 -0.0649725 -0 -2.04836)
(0.206945 -4.13823 -6.90784e-17 2.15751 1.53281e-15 -2.36446)
(-0.923457 -4.791 -1.4853e-15 5.72808 2.38731e-16 -4.80463)
(1.40118 -4.14569 -1.02945e-16 0.348264 -9.67914e-16 -1.74945)
(4.08524 -3.49624 -1.31492e-14 -6.03681 -5.72846e-15 1.95158)
(5.29543 -3.71373 -6.98157e-16 -8.29947 -2.21492e-14 3.00404)
(1.9687 -2.48465 9.47826e-16 -3.02579 1.36131e-14 1.05708)
(0.121393 -1.26955 2.29093e-16 -0.28538 6.14062e-15 0.163988)
(-0.0978416 -0.704657 -1.10698e-15 0.0805772 1.02862e-15 0.0172644)
(-0.0226212 -0.149715 2.08197e-16 0.0232158 3.46968e-16 -0.000594596)
(-0.000837838 -0.00504083 -2.04699e-19 0.000838829 -2.48857e-18 -9.91178e-07)
(-5.04262e-05 -0.000478941 2.79552e-19 5.69318e-05 -1.77857e-19 -6.50561e-06)
(0.000146339 -0.000540819 1.1555e-19 -0.000157373 2.13498e-20 1.10334e-05)
(-0.110303 -0.235455 3.5809e-16 0.094946 2.3165e-15 0.015357)
(-2.00697 -2.64367 -3.32083e-16 1.80222 6.64702e-16 0.204754)
(0.0029281 -0.00139766 2.25964e-20 -0.00273564 5.982e-20 -0.000192468)
(0.0062861 -0.00172019 -1.24878e-20 -0.00593008 -7.26544e-19 -0.000356021)
(0.00824709 -0.000446835 -6.22452e-19 -0.00790399 -1.23988e-18 -0.0003431)
(0.0144925 0.00285918 3.70879e-19 -0.014096 4.41118e-18 -0.000396578)
(0.0155883 0.00791635 3.70462e-18 -0.0154391 -3.41889e-18 -0.000149246)
(0.00918979 0.00890044 -1.1417e-18 -0.00927548 -3.65623e-18 8.56961e-05)
(0.00373976 0.00663782 -2.65555e-19 -0.00389597 -5.83421e-18 0.000156213)
(0.00191844 0.00715494 -4.77314e-18 -0.00214613 -7.80997e-20 0.000227694)
(-8.26093e-05 0.00774867 -2.56518e-18 -0.000109163 5.60012e-18 0.000191773)
(-0.00231672 0.00768197 -1.38419e-18 0.00228531 -1.43434e-20 3.1402e-05)
(-0.00443194 0.00741002 -8.21856e-19 0.00466075 -4.38608e-18 -0.000228807)
(-0.00567924 0.0062477 1.13729e-19 0.00618385 -2.32433e-18 -0.000504606)
(-0.00555745 0.00444805 1.7575e-18 0.00622229 4.52384e-18 -0.000664844)
(-0.00436997 0.0027141 -1.63164e-18 0.0050271 -8.04288e-19 -0.000657132)
(-0.00666255 0.00342006 -1.40521e-18 0.00787888 -4.88861e-18 -0.00121633)
(-0.0278747 0.0126123 -3.09519e-17 0.0339001 -5.41448e-18 -0.00602536)
(-0.0465029 0.0199275 -8.57478e-18 0.0581064 5.36811e-19 -0.0116036)
(-0.0687266 0.029896 -8.84245e-19 0.0882243 -8.36628e-18 -0.0194977)
(-0.0957328 0.0440164 -2.20401e-17 0.125784 1.28719e-17 -0.0300509)
(-0.00467 0.00232136 1.92484e-18 0.00628487 -6.23892e-19 -0.00161487)
(-0.00443678 0.00241097 -1.57059e-17 0.00612522 8.9365e-18 -0.00168844)
(-0.0089821 0.00526361 -6.8491e-18 0.0127414 1.28575e-18 -0.00375932)
(-0.0172539 0.0107027 1.36738e-18 0.0253958 -9.88379e-18 -0.00814197)
(-0.000406896 0.000272381 1.79719e-18 0.000631839 -2.1217e-20 -0.000224943)
(-0.000784916 0.000630798 -3.41315e-18 0.00130191 3.05101e-19 -0.00051699)
(-0.00180126 0.00189892 -7.95145e-18 0.00316034 8.98891e-19 -0.00135908)
(-0.00330834 0.00471906 -7.29882e-20 0.00600671 1.16203e-19 -0.00269838)
(-0.00352928 0.00649095 1.22421e-21 0.00644354 6.40518e-20 -0.00291426)
(-0.00268916 0.00601932 -5.3441e-21 0.00478596 -7.26171e-23 -0.00209679)
(-0.00216552 0.00565554 1.34619e-19 0.00368337 6.51251e-19 -0.00151784)
(-0.00135624 0.00399037 1.44401e-20 0.00217349 -2.83428e-19 -0.000817245)
(-0.000761902 0.00244487 1.63072e-19 0.00113867 -4.51199e-19 -0.000376768)
(-0.000393458 0.00133106 5.28693e-18 0.000545483 2.53794e-19 -0.000152025)
(-0.000199487 0.000690224 1.8826e-18 0.000256989 -6.21032e-19 -5.75022e-05)
(-9.70445e-05 0.000334159 -6.49019e-19 0.000116803 4.6624e-20 -1.97583e-05)
(-0.000167656 0.000565239 8.85651e-19 0.000191873 1.10053e-19 -2.4217e-05)
(-8.03253e-05 0.000258889 -5.98721e-19 8.58838e-05 -8.45071e-20 -5.55848e-06)
(-0.0478157 0.131884 -2.43309e-16 0.0572687 -3.06077e-17 -0.00945296)
(-1.24722 3.99244 -1.42622e-14 1.42373 -3.03251e-15 -0.176506)
(0.00288894 -0.00231442 -1.17488e-20 -0.00306421 -2.86192e-20 0.000175273)
(0.00173754 -0.00212077 -2.16103e-19 -0.00190044 -4.60113e-19 0.0001629)
(0.00130269 -0.00268116 1.74494e-19 -0.00151881 3.5151e-19 0.000216122)
(0.000587485 -0.0028232 2.36101e-19 -0.00085444 4.12312e-19 0.000266955)
(-0.000138602 -0.00297327 4.61304e-19 -0.000190699 6.60615e-19 0.000329301)
(-0.000961233 -0.00299936 -1.53796e-18 0.000550437 -2.54313e-18 0.000410796)
(-0.00183072 -0.00280871 1.18112e-18 0.00131652 2.19771e-18 0.000514198)
(-0.00266083 -0.00239371 1.69945e-18 0.00203695 1.5452e-18 0.000623883)
(-0.00338793 -0.00175242 -1.08387e-19 0.00264694 2.15897e-19 0.000740987)
(-0.00393557 -0.000942301 1.31587e-18 0.00307232 2.18744e-18 0.000863246)
(-0.00426232 -3.68544e-05 -2.93131e-18 0.00328515 -2.05707e-19 0.000977176)
(-0.00435764 0.00089456 4.35505e-18 0.00327665 4.69153e-18 0.00108099)
(-0.0043243 0.00180447 2.20965e-18 0.00314436 9.40102e-19 0.00117994)
(-0.00386385 0.0024622 1.05339e-18 0.00270755 -9.98379e-19 0.0011563)
(-0.00400265 0.00350366 3.66403e-18 0.00269485 3.57083e-18 0.0013078)
(-0.00197351 0.00223419 -5.19403e-18 0.00127614 -5.24767e-18 0.000697362)
(-0.0123113 0.0174727 9.3747e-18 0.00763094 1.39648e-17 0.00468031)
(-0.0264628 0.0467951 2.02911e-16 0.0155122 5.7995e-17 0.0109506)
(-0.0570728 0.128731 1.65151e-16 0.0302318 1.19871e-16 0.026841)
(-0.104183 0.322943 -1.34142e-16 0.0424861 -8.34516e-18 0.0616971)
(-0.115482 0.639854 3.27517e-16 -0.00823875 -7.35068e-16 0.123721)
(0.00531206 0.148311 1.30083e-17 -0.0370527 1.4114e-16 0.0317407)
(1.48454 1.66918 9.11508e-15 -2.01221 -1.70774e-15 0.527665)
(6.52695 -1.05906 -1.51661e-14 -7.21402 -4.27671e-15 0.687077)
(8.64956 -3.63542 3.13136e-16 -9.37916 1.22915e-16 0.729601)
(8.01026 -5.2146 -1.90222e-14 -8.44147 2.88747e-15 0.43121)
(4.72128 -3.24653 1.80411e-15 -5.08673 2.07747e-16 0.365451)
(2.35238 -2.07035 -4.37503e-16 -2.38857 4.16201e-18 0.0361847)
(0.925565 -1.18453 -6.24372e-15 -0.687029 3.50793e-15 -0.238535)
(0.535158 -0.710286 -7.1027e-15 -0.310351 2.72164e-16 -0.224807)
(0.411638 -0.360575 1.20471e-14 -0.243417 -3.33398e-15 -0.168222)
(0.26921 0.0706814 6.41191e-15 -0.162483 2.50293e-15 -0.106727)
(0.0762705 0.155947 2.21598e-16 -0.0613724 1.26762e-15 -0.0148981)
(0.0116331 0.016083 3.17371e-16 -0.0111534 -1.60623e-16 -0.000479751)
(-0.0011859 -0.0128639 2.06656e-17 0.0011183 -6.13898e-18 6.76049e-05)
(-0.000109152 -0.00117913 -9.98098e-19 0.000134336 -1.03577e-18 -2.51843e-05)
(-0.000543356 -0.00221874 6.41933e-20 0.000542265 -8.25039e-19 1.09158e-06)
(-0.0442522 -0.103633 -4.13821e-17 0.0367084 -3.61092e-16 0.00754381)
(-2.58914 -4.26482 -3.80346e-15 2.3164 3.80067e-15 0.272736)
(0.00606222 -0.00303978 -1.23331e-19 -0.00634581 -2.63405e-19 0.00028359)
(0.0159324 -0.00438589 -2.15101e-19 -0.0164585 6.25525e-20 0.000526125)
(0.0178207 -0.000828047 2.75946e-18 -0.0182418 3.58553e-18 0.000421036)
(0.0126432 0.00237877 -1.2905e-18 -0.0128169 -1.35211e-19 0.000173742)
(0.0047308 0.0021928 9.62865e-20 -0.00476173 3.98159e-19 3.09254e-05)
(0.00195169 0.00161942 -2.09007e-20 -0.00195099 9.57869e-19 -6.94133e-07)
(0.00147984 0.00210591 -1.59146e-20 -0.00148361 7.14812e-19 3.76154e-06)
(0.000849343 0.00237057 2.69826e-18 -0.000860363 1.55289e-18 1.10193e-05)
(0.000195784 0.00253558 5.66334e-19 -0.000201845 -5.12109e-19 6.06068e-06)
(-0.000466593 0.00257513 1.57935e-18 0.000457995 1.8321e-19 8.5978e-06)
(-0.00101341 0.00231194 -1.74669e-18 0.000989776 -7.83446e-19 2.36296e-05)
(-0.00163693 0.00227649 -1.47419e-18 0.00157937 2.16037e-18 5.75666e-05)
(-0.00227766 0.00214307 2.76519e-18 0.0021603 -1.29704e-18 0.000117361)
(-0.00282585 0.00184354 2.16056e-18 0.0026178 -1.16802e-20 0.000208042)
(-0.00322788 0.00142956 -2.78122e-18 0.00290716 2.16235e-18 0.000320713)
(-0.00385553 0.00105411 -2.3236e-18 0.00334845 4.87326e-18 0.000507086)
(-0.0037026 0.000478984 7.35364e-18 0.00308393 -3.82211e-18 0.000618671)
(-0.00376694 -4.42721e-06 7.38176e-18 0.00298679 -1.38837e-18 0.000780142)
(-0.00042621 -5.07247e-05 3.67716e-19 0.000322886 -4.18184e-20 0.000103324)
(-0.00583902 -0.00142484 -2.01216e-18 0.00416849 6.16308e-18 0.00167053)
(-0.00607519 -0.00233048 3.55468e-17 0.00405808 1.74359e-18 0.00201712)
(-0.00302076 -0.00167015 6.03755e-19 0.00186162 -2.77401e-18 0.00115914)
(-0.00484103 -0.00386112 -1.02752e-19 0.00259409 -3.13129e-19 0.00224694)
(-0.00188545 -0.00231981 -3.07394e-19 0.000651704 -1.50522e-18 0.00123375)
(-0.00196289 -0.0043893 -1.61402e-19 -0.000473007 1.46848e-18 0.0024359)
(-0.00135448 -0.00883863 1.21269e-16 -0.00413778 -7.15663e-18 0.00549227)
(0.00120349 -0.013658 -1.84692e-18 -0.010722 1.21295e-19 0.00951851)
(0.0036129 -0.0114713 -2.13926e-17 -0.0126975 1.15965e-19 0.00908458)
(0.00377452 -0.0073985 -1.91633e-19 -0.00988188 1.68142e-20 0.00610736)
(0.00331684 -0.00549649 -1.69095e-17 -0.00739628 -5.70126e-19 0.00407944)
(0.00228256 -0.00387725 1.79968e-17 -0.00456027 1.83718e-18 0.00227771)
(0.000117295 -0.000220215 -3.5185e-20 -0.000213749 -7.33365e-22 9.6454e-05)
(0.000317392 -0.000664436 -6.4525e-18 -0.000532229 8.58279e-19 0.000214837)
(0.00048809 -0.00111688 -2.25461e-20 -0.000756365 1.11041e-18 0.000268275)
(0.000573784 -0.00142141 1.82867e-19 -0.00082871 -1.6783e-18 0.000254926)
(0.00127531 -0.00318095 -1.27118e-18 -0.00171585 4.47791e-18 0.00044053)
(3.11355e-05 -8.6599e-05 8.064e-20 -3.72567e-05 -2.65614e-19 6.12114e-06)
(0.0305233 -0.044215 6.62332e-16 -0.037548 1.01126e-16 0.00702464)
(0.0946794 3.13399 8.40327e-14 -0.245779 1.68421e-14 0.151099)
(0.0107993 -0.00811124 -2.4642e-19 -0.0105468 -3.92656e-19 -0.000252526)
(0.00943491 -0.0100098 -4.90079e-19 -0.0091449 -8.18981e-19 -0.000290014)
(0.00740119 -0.0117069 1.00706e-18 -0.00701521 1.35976e-18 -0.000385974)
(0.00488221 -0.0125913 1.16584e-18 -0.00441797 1.35474e-18 -0.000464238)
(0.00242197 -0.0133877 1.51851e-19 -0.00184524 -3.67368e-20 -0.00057673)
(-0.000213713 -0.0136937 -3.96984e-19 0.00093643 1.09257e-18 -0.000722717)
(-0.00281057 -0.0134105 1.09499e-17 0.00369778 1.09357e-17 -0.000887207)
(-0.0051905 -0.0126105 -1.08234e-17 0.00626425 -1.38203e-17 -0.00107374)
(-0.00728099 -0.0113844 2.81182e-18 0.00857953 7.36725e-19 -0.00129854)
(-0.00898139 -0.00987095 1.59401e-17 0.0105242 1.17773e-17 -0.00154278)
(-0.0102671 -0.00816881 1.37359e-17 0.0120881 1.36252e-17 -0.00182098)
(-0.011141 -0.0063775 1.5972e-17 0.0132693 4.86968e-18 -0.00212829)
(-0.0116383 -0.00460302 -1.92722e-17 0.0141044 -1.44541e-17 -0.00246611)
(-0.0118535 -0.00290104 -1.3681e-17 0.0146805 -1.31746e-17 -0.00282707)
(-0.0117798 -0.00129517 1.52845e-18 0.0149802 -4.86492e-18 -0.00320032)
(-0.0115133 0.000229397 -4.10245e-17 0.0151197 2.65686e-18 -0.00360637)
(-0.0106252 0.00186181 -1.28803e-17 0.0144491 -1.59611e-17 -0.00382388)
(-0.00810172 0.00304839 -6.99725e-17 0.0114947 -5.38457e-17 -0.00339296)
(-0.00354859 0.00239685 4.35622e-18 0.00529497 -5.90599e-18 -0.00174638)
(-0.00299871 0.00352689 2.31073e-18 0.00477648 -5.44498e-18 -0.00177778)
(-1.88992e-05 4.06601e-05 -2.48242e-19 3.36311e-05 3.07291e-21 -1.47319e-05)
(-0.00544772 0.0281332 2.76722e-17 0.012028 5.58009e-18 -0.00658024)
(0.133704 0.618464 -2.9535e-15 -0.0804928 -3.25752e-16 -0.0532115)
(1.82825 1.47738 -4.47601e-15 -1.87456 2.78963e-15 0.046318)
(11.1934 1.31931 4.28171e-15 -10.8136 2.77283e-16 -0.379839)
(2.62274e-05 -1.35662e-05 5.66432e-20 -2.83219e-05 1.17502e-20 2.09454e-06)
(2.48681e-05 -2.33911e-05 -2.93641e-21 -2.80055e-05 4.37172e-21 3.13742e-06)
(2.06823e-05 -2.92062e-05 5.95087e-21 -2.33078e-05 4.55716e-22 2.62556e-06)
(1.59189e-05 -3.39268e-05 8.28013e-20 -1.64892e-05 -1.80022e-20 5.70213e-07)
(1.32629e-05 -3.78467e-05 -8.51857e-21 -1.35526e-05 3.71315e-20 2.89703e-07)
(1.13663e-05 -3.72688e-05 -1.27717e-19 -1.1887e-05 -6.87236e-20 5.20749e-07)
(7.69057e-05 -0.00023758 1.73605e-18 -8.10961e-05 -1.52013e-18 4.19045e-06)
(0.016242 -0.0373286 2.98776e-16 -0.0172026 -2.52824e-17 0.000960544)
(0.0179139 0.0289461 -1.08593e-16 -0.0188071 -5.65107e-16 0.00089318)
(0.00461036 -0.000514522 -1.66522e-16 -0.00527166 -2.82299e-17 0.000661301)
(-0.000149598 -0.00365878 3.10284e-19 0.000199419 2.7124e-18 -4.98203e-05)
(-0.00440062 -0.0161319 -8.74194e-18 0.00433644 4.11588e-19 6.41735e-05)
(-0.0605666 -0.187695 -7.95402e-17 0.0490256 -2.45566e-16 0.011541)
(-1.50647 -4.02212 2.47039e-15 1.19772 -1.4056e-15 0.308743)
(0.0166269 -0.00836509 -1.6429e-19 -0.0164088 -2.21662e-20 -0.000218025)
(0.0128452 -0.00387288 4.12465e-19 -0.0127115 2.16414e-18 -0.000133641)
(0.00604229 -0.000525631 6.38702e-19 -0.00602255 1.21516e-18 -1.97407e-05)
(0.00471666 0.000651091 6.83561e-19 -0.00471461 -3.50434e-19 -2.04626e-06)
(0.0041711 0.00165621 -1.31751e-18 -0.00417742 -9.46576e-19 6.31296e-06)
(0.00363329 0.00264779 -2.59155e-19 -0.00363038 -1.53134e-18 -2.91166e-06)
(0.00284899 0.00349612 -2.30201e-18 -0.00284689 -1.8213e-18 -2.10072e-06)
(0.00187021 0.0041271 -3.16331e-18 -0.00187828 5.64517e-20 8.06893e-06)
(0.000768387 0.00449379 -7.10312e-19 -0.000784369 -6.05703e-19 1.59821e-05)
(-0.000363923 0.00457951 1.42909e-18 0.000344003 -9.40924e-19 1.992e-05)
(-0.00142663 0.0044274 1.31131e-18 0.00141158 3.00412e-18 1.50515e-05)
(-0.00236318 0.00409752 3.61317e-18 0.00236636 -1.42854e-18 -3.17573e-06)
(-0.00314905 0.00364192 -3.59093e-18 0.00318419 -3.09244e-18 -3.51374e-05)
(-0.00378085 0.00311947 -3.8187e-19 0.00386186 1.40387e-18 -8.1016e-05)
(-0.00426413 0.00258857 4.95153e-18 0.00440894 -1.20247e-18 -0.000144806)
(-0.00466058 0.00209795 1.14573e-17 0.00488356 -1.13674e-18 -0.000222979)
(-0.00045597 0.000151199 -8.41962e-19 0.000484951 -1.34053e-19 -2.8981e-05)
(-0.00093426 0.000222491 -4.50752e-19 0.00100874 -6.43421e-19 -7.44792e-05)
(-0.00129103 0.000204856 -3.08801e-19 0.0014149 1.80265e-19 -0.000123873)
(-0.00148546 0.000125936 5.50923e-18 0.00165038 -1.88593e-18 -0.000164925)
(-0.00154909 1.44669e-05 9.51057e-19 0.00174492 -1.233e-18 -0.000195833)
(-0.00187923 -0.000145642 -8.19173e-18 0.00214446 2.05332e-18 -0.000265233)
(-0.00217242 -0.000407111 -3.28732e-19 0.00251439 1.09192e-18 -0.00034196)
(-0.00195009 -0.00064084 -1.269e-19 0.00230007 -6.64931e-19 -0.00034998)
(-0.00164307 -0.000784886 7.06381e-20 0.00200779 -6.01405e-21 -0.00036472)
(-0.00145036 -0.000877742 -8.83244e-18 0.00187825 -3.68708e-19 -0.000427895)
(-0.00127316 -0.000909208 -5.12806e-20 0.00176608 7.76942e-21 -0.000492922)
(-0.00108376 -0.000880462 2.05789e-18 0.00161558 -7.37051e-20 -0.000531822)
(-0.000889257 -0.000804129 -9.18153e-20 0.00142829 -1.25802e-21 -0.000539036)
(-0.000721877 -0.000710124 3.84133e-21 0.00125391 -3.50025e-19 -0.000532037)
(-0.000564647 -0.000610746 -5.76272e-18 0.00106398 2.45363e-19 -0.000499333)
(-0.000439455 -0.000548884 -1.14874e-19 0.000906899 -6.78098e-21 -0.000467444)
(-0.000334499 -0.000544963 1.95323e-19 0.000771746 -5.33355e-19 -0.000437248)
(-0.000235546 -0.000645219 1.71688e-17 0.000655661 2.97819e-18 -0.000420115)
(-9.23274e-05 -0.000721112 -6.77324e-20 0.000421338 -9.57364e-21 -0.000329011)
(0.000180354 -0.00221819 -5.17889e-17 0.000429887 -2.96053e-18 -0.000610241)
(1.57322e-05 -7.09691e-05 4.60944e-18 -4.59211e-06 6.47398e-19 -1.11401e-05)
(0.0154856 -0.036489 -4.22079e-18 -0.0119696 5.44299e-18 -0.00351601)
(1.55725 2.13883 7.83894e-16 -1.40032 -4.36485e-15 -0.156926)
(0.0121161 -0.00932084 -3.99527e-19 -0.0122263 -5.12009e-19 0.000110219)
(0.00925063 -0.0101731 -7.09527e-19 -0.00940412 -9.71725e-19 0.000153492)
(0.00691326 -0.0115066 2.3723e-18 -0.00708404 3.01644e-18 0.000170783)
(0.00434197 -0.0123579 -9.85344e-18 -0.00456475 -1.25372e-17 0.000222787)
(0.00168204 -0.0126725 2.43511e-18 -0.00196267 3.20076e-18 0.00028063)
(-0.00103125 -0.0125225 5.30505e-18 0.000693746 5.42613e-18 0.000337503)
(-0.00366588 -0.0118821 -4.76833e-18 0.00324563 -7.13324e-18 0.000420245)
(-0.00612105 -0.0107654 -2.74029e-18 0.00559986 3.80998e-19 0.00052119)
(-0.00833548 -0.00920058 -2.03522e-17 0.0076966 -1.87049e-17 0.000638881)
(-0.0102204 -0.00724629 -3.48855e-18 0.00942965 -7.93909e-18 0.000790743)
(-0.0117022 -0.00495357 5.93168e-19 0.0107338 -1.94462e-18 0.000968319)
(-0.0127176 -0.0023989 -1.28791e-17 0.0115406 -1.55665e-17 0.00117703)
(-0.0131203 0.000317187 6.63845e-18 0.0117103 7.63067e-18 0.00141)
(-0.0130778 0.00306619 -2.90909e-17 0.011399 -1.48681e-17 0.00167877)
(-0.0126708 0.00582288 6.64184e-18 0.0106846 3.69721e-18 0.00198624)
(-0.011516 0.00832902 3.29872e-17 0.0092531 2.68392e-17 0.0022629)
(-0.00995081 0.0104211 -4.77083e-17 0.00751072 -1.33218e-17 0.00244009)
(-0.0082767 0.0122354 -9.53217e-18 0.00573514 4.25172e-17 0.00254156)
(-0.00621809 0.0134362 -3.47895e-18 0.00370701 -5.75942e-18 0.00251108)
(-0.00327405 0.0116806 -3.59656e-17 0.00128467 -5.27542e-18 0.00198939)
(-0.000789106 0.00705113 2.3999e-17 -0.000307252 1.44891e-17 0.00109636)
(0.000105523 0.00321351 3.30834e-19 -0.000551654 -5.8968e-19 0.000446131)
(5.22543e-06 5.28777e-05 1.67699e-19 -9.6799e-06 3.64642e-20 4.45447e-06)
(0.202851 0.752492 2.42241e-15 -0.226777 5.50531e-16 0.023926)
(4.62351 3.98891 -2.76308e-15 -4.70989 -1.41963e-16 0.0863789)
(1.79385e-05 -1.69252e-06 9.15382e-22 -2.00173e-05 5.53696e-21 2.07874e-06)
(1.78789e-05 -1.41634e-05 1.32538e-20 -1.91056e-05 -3.35761e-21 1.2267e-06)
(1.61556e-05 -2.36743e-05 -6.10014e-21 -1.68262e-05 -8.62657e-21 6.70524e-07)
(1.43815e-05 -3.16897e-05 -8.39841e-20 -1.49374e-05 -9.4687e-22 5.55897e-07)
(1.22517e-05 -3.93956e-05 7.92534e-21 -1.27693e-05 4.48519e-22 5.17605e-07)
(9.92265e-06 -4.57747e-05 -1.47242e-20 -1.05467e-05 5.21473e-21 6.2408e-07)
(7.8402e-06 -4.95391e-05 -2.34012e-19 -8.63035e-06 -1.72968e-19 7.90152e-07)
(2.5774e-05 -0.000206197 -8.28801e-20 -2.81757e-05 -3.19951e-19 2.40174e-06)
(2.58559e-06 -3.93605e-05 -6.47971e-19 -2.80178e-06 4.53424e-20 2.16191e-07)
(0.00360048 0.0051291 2.79329e-17 -0.0039648 7.92471e-17 0.000364321)
(0.00294506 -0.0182165 6.34575e-20 -0.00288828 -1.17129e-20 -5.67813e-05)
(-0.0146723 -0.0526046 -9.22125e-18 0.0141542 6.78936e-17 0.000518108)
(-0.0182407 -0.0617759 1.10261e-17 0.0161629 5.20795e-17 0.00207787)
(-0.494455 -2.02905 -3.42504e-15 0.392878 5.3106e-16 0.101577)
(0.00822042 -0.00424522 4.70212e-19 -0.00829202 1.74735e-19 7.16033e-05)
(0.00742636 -0.00232878 -1.14628e-18 -0.00745553 -1.60519e-18 2.9168e-05)
(0.00767095 -0.0008051 -8.19328e-19 -0.00770284 1.24399e-18 3.18896e-05)
(0.00389142 0.000430261 1.65904e-18 -0.00389899 7.7316e-19 7.57594e-06)
(0.00803834 0.00284088 -1.10067e-18 -0.00804465 -6.41149e-18 6.30756e-06)
(0.00870271 0.00569886 -3.1629e-18 -0.00868447 3.32355e-18 -1.8246e-05)
(0.00717972 0.0078042 8.23363e-18 -0.00716492 6.2519e-18 -1.4799e-05)
(0.0050822 0.00944018 -3.31822e-18 -0.00508335 -7.12306e-18 1.14915e-06)
(0.00263993 0.01048 -7.55661e-18 -0.00264796 -2.90042e-18 8.03232e-06)
(8.59711e-05 0.0108669 -6.31938e-18 -9.69295e-05 2.56613e-18 1.09584e-05)
(-0.00234445 0.0106704 8.57307e-18 0.00233115 -2.47274e-19 1.32992e-05)
(-0.00450964 0.0100314 -6.32265e-18 0.00449077 -4.04734e-18 1.88757e-05)
(-0.00636231 0.00908982 -7.91571e-18 0.00632773 5.74657e-18 3.45778e-05)
(-0.00790974 0.00796623 8.87421e-18 0.00784483 3.03294e-18 6.49108e-05)
(-0.00916601 0.00675723 -1.67837e-17 0.00905435 3.29304e-18 0.000111663)
(-0.0102186 0.00554126 -3.42669e-18 0.010035 -1.17137e-17 0.000183629)
(-0.0111092 0.00433331 5.50997e-18 0.0108239 7.02879e-18 0.000285267)
(-0.0118278 0.00310722 -2.9867e-17 0.0114107 2.31614e-18 0.000417169)
(-0.0124385 0.00184891 1.37707e-17 0.0118643 -6.89463e-19 0.000574121)
(-0.0128956 0.000494795 -6.3198e-17 0.0121452 6.0575e-18 0.000750392)
(-0.0126475 -0.000959535 -7.2532e-18 0.0117488 2.02471e-18 0.000898675)
(-0.0108363 -0.00222286 5.42007e-17 0.00991098 1.58378e-18 0.000925308)
(-0.00915568 -0.00333722 4.90477e-17 0.00823197 -9.65492e-18 0.000923718)
(-0.00736025 -0.00423793 -4.10691e-17 0.00643737 3.27657e-18 0.000922884)
(-0.00548106 -0.00470183 -4.87491e-19 0.00454299 1.97469e-19 0.000938065)
(-0.00377335 -0.00470133 -3.66469e-17 0.00282113 6.02927e-18 0.000952224)
(-0.00234366 -0.00444125 -3.24351e-19 0.00134063 1.09863e-20 0.00100303)
(-0.00118793 -0.00406162 2.37713e-21 0.000113605 1.244e-19 0.00107433)
(-0.000279023 -0.00361878 7.68439e-20 -0.00085109 -9.5444e-21 0.00113011)
(0.000439795 -0.00336254 1.28112e-17 -0.0016806 7.67331e-19 0.00124081)
(0.000961914 -0.00285546 -3.25762e-22 -0.00219751 -1.60764e-18 0.00123559)
(0.00117839 -0.00215776 -6.00354e-19 -0.0022593 -8.74483e-20 0.0010809)
(0.00132629 -0.00171773 -6.38393e-17 -0.00232617 -9.01426e-18 0.000999889)
(0.00138401 -0.00135291 -5.51847e-17 -0.0022919 -3.91174e-18 0.000907898)
(0.0012747 -0.000983923 -6.69285e-20 -0.00202724 5.2896e-20 0.000752538)
(0.00145614 -0.0010046 -8.79656e-17 -0.00216973 -2.26956e-17 0.000713588)
(0.000227624 -0.000131508 -5.94838e-19 -0.000322841 4.27639e-18 9.52174e-05)
(0.0165824 -0.00836123 8.70296e-19 -0.0208983 1.30591e-19 0.00431592)
(1.43287 1.35336 -1.11218e-13 -1.3821 -1.75084e-14 -0.050772)
(0.00907312 -0.00698617 7.96242e-19 -0.00903395 8.14824e-19 -3.9175e-05)
(0.00792727 -0.0085459 -5.88194e-19 -0.007892 -5.7467e-19 -3.52768e-05)
(0.00624482 -0.00991038 -1.81874e-20 -0.00618528 -6.55631e-20 -5.95363e-05)
(0.00429372 -0.0109954 -1.80348e-19 -0.00422156 1.03053e-19 -7.216e-05)
(0.00216164 -0.011727 7.62911e-18 -0.00207326 7.80326e-18 -8.83798e-05)
(-0.000165603 -0.0120233 -5.02574e-18 0.000288148 -5.9236e-18 -0.000122545)
(-0.00225886 -0.0106082 -2.77728e-19 0.00239923 1.12558e-18 -0.000140369)
(-0.00358667 -0.00840336 1.36183e-17 0.00373676 1.26309e-17 -0.00015009)
(-0.00459491 -0.00678126 -2.60973e-18 0.00476892 2.71073e-19 -0.000174006)
(-0.00555869 -0.00558065 -1.43556e-17 0.00576979 -9.5205e-18 -0.000211101)
(-0.00660669 -0.00455882 4.78459e-18 0.00687809 3.90457e-18 -0.000271396)
(-0.00778194 -0.00352156 -1.42663e-17 0.00814456 -4.68188e-18 -0.000362617)
(-0.00902508 -0.00231451 -6.25556e-18 0.00951619 -2.38931e-18 -0.000491112)
(-0.0101389 -0.000834624 -1.22965e-17 0.0108038 6.47549e-18 -0.00066497)
(-0.0112272 0.000927193 1.24546e-18 0.0121363 6.89664e-19 -0.000909076)
(-0.0122449 0.00303464 1.35482e-17 0.013493 2.98716e-18 -0.00124815)
(-0.0123131 0.00524252 2.2311e-17 0.0139157 3.17039e-17 -0.00160257)
(-0.0119183 0.00767655 9.76984e-17 0.0138672 2.61422e-17 -0.00194889)
(-0.0107665 0.0101976 -4.55754e-17 0.0130069 -1.79759e-18 -0.00224046)