/*--------------------------------*- C++ -*----------------------------------*\
| =========                 |                                                 |
| \\      /  F ield         | OpenFOAM: The Open Source CFD Toolbox           |
|  \\    /   O peration     | Version:  2312                                  |
|   \\  /    A nd           | Website:  www.openfoam.com                      |
|    \\/     M anipulation  |                                                 |
\*---------------------------------------------------------------------------*/
FoamFile
{
    version     2.0;
    format      ascii;
    arch        "LSB;label=32;scalar=64";
    class       volScalarField;
    location    "100";
    object      turbulenceProperties:nuEff;
}
// * * * * * * * * * * * * * * * * * * * * * * * * * * * * * * * * * * * * * //

dimensions      [0 2 -1 0 0 0 0];

internalField   nonuniform List<scalar> 
10720
(
0.000210332
0.000215007
0.000252493
0.000267508
0.000281818
0.000313666
0.00036112
0.000422926
0.000505165
0.000620158
0.000789647
0.00105496
0.00149461
0.0022427
0.00378398
0.00702923
0.0134525
0.0289745
0.0581053
0.0938692
0.142483
0.222281
0.328455
0.477745
0.678738
0.89502
1.5565
2.39015
1.58942
0.546075
0.152195
0.0140235
0.00312715
0.000280457
1e-05
1e-05
1e-05
0.00160041
0.0877846
0.00032651
0.000342826
0.000242977
0.00023442
0.000255876
0.000462694
0.000631885
0.000663496
0.000638749
0.00058389
0.000564327
0.0005932
0.000689455
0.000884065
0.00126475
0.00189992
0.00304437
0.00451675
0.00650907
0.00799729
0.00936225
0.0113709
0.0147572
0.0202476
0.0274458
0.0359698
0.033203
0.0198019
0.00832954
0.00247676
0.000442054
3.6148e-05
1.67305e-05
1.26455e-05
1.22985e-05
0.000117884
1.19066e-05
0.00567655
0.354801
0.000426825
0.000542845
0.000386491
0.000290602
0.000240695
0.000226196
0.000225468
0.000227977
0.000235009
0.00024739
0.000265468
0.000289272
0.000341458
0.000516711
0.00106864
0.0026768
0.00656102
0.016589
0.0400749
0.0872273
0.156049
0.32347
0.744808
0.974675
1.17889
1.12865
2.00784
1.7645
1.4041
1.81817
1.05721
0.25084
0.0600799
0.00502251
9.04615e-05
1e-05
7.24675e-05
0.00787178
0.169851
7.18608e-05
0.000148266
0.0001961
0.000373619
0.000482519
0.000395315
0.00026583
0.00028975
0.000341292
0.000405804
0.00050945
0.000586533
0.000585837
0.000504358
0.000875641
0.00424601
0.00827539
0.0142529
0.0229488
0.00126581
0.00133736
0.00296493
0.00613318
0.000155409
0.000326264
0.000831758
0.00173124
0.00201126
0.00152263
0.00113057
0.00062109
0.000296296
0.00012672
5.21588e-05
2.02137e-05
2.74513e-05
1.03142e-05
0.00458975
0.303679
0.000136535
0.000102575
0.000114468
0.000115068
0.000123354
0.000136005
0.000151075
0.000167827
0.000185704
0.000203973
0.000222094
0.000239442
0.000259553
0.000259275
0.000304842
0.000171891
0.0012382
0.00314925
0.0085043
0.0222233
0.0500417
0.0162604
0.51148
1.639
2.41295
2.94138
2.08489
1.25761
0.685309
0.50018
0.43086
0.274483
0.0692386
0.00923014
0.000714282
2.73863e-05
4.30087e-05
0.0038271
0.253727
0.000247492
0.000599561
0.000645397
0.000470187
0.00019635
0.000101435
0.000112456
0.000121197
0.000136271
0.000160946
0.000183391
0.000245373
0.000333989
0.000444051
0.00057387
0.00080037
0.000910638
0.00110108
0.000146695
0.00235908
0.00285565
0.00165216
0.00318406
0.00167664
0.00304888
0.00647572
0.0111244
0.0109015
0.00757637
0.00518648
0.00297935
0.000131537
0.00031286
0.000431351
0.000475833
0.000980059
2.97445e-05
0.0132478
1.04468
0.000575655
0.00058505
0.000591926
0.00058312
0.000599635
0.000623157
0.000650133
0.000683231
0.000723689
0.000773
0.000832182
0.000901931
0.000985536
0.00109155
0.00121977
0.00138846
0.00155152
0.00148798
0.00085236
0.0010014
1e-05
0.00638453
0.151547
0.659938
4.06337
1.00098e-05
1e-05
1e-05
1.00001e-05
1.00011e-05
1.00649e-05
7.50941e-05
0.017065
0.0170001
0.00528818
0.000182936
0.000285209
0.00445252
0.188839
0.000803285
0.000588532
0.000273483
0.000221825
0.000218392
0.000231764
0.000249417
0.000271925
0.00030209
0.000343063
0.000397709
0.000467319
0.000552612
0.000655737
0.000777535
0.000925721
0.000100463
0.000230001
0.000354502
0.000453217
0.000522249
0.000699395
0.000901971
0.000935217
0.000946532
0.00101217
0.00106908
0.00109482
0.00109078
0.00107884
0.00103928
0.00100833
0.000993803
0.00102667
0.000899386
0.00186229
4.55803e-05
0.0158704
3.27281
0.000870596
0.00078552
0.000772643
0.00076465
0.000762405
0.000771571
0.00079174
0.000823426
0.000867831
0.000924894
0.000994474
0.00107617
0.00116062
0.00126247
0.00139062
0.00149617
0.00159818
0.00173158
0.00185377
0.00164134
0.00105528
0.000534686
1e-05
0.19738
3.04679
1.00075e-05
1e-05
1e-05
1e-05
1e-05
1e-05
1.00002e-05
4.00823e-05
1e-05
0.00674898
0.00408751
0.00173418
0.0019351
0.0850666
0.00052872
0.0004471
0.000449405
0.00023326
0.000526117
0.00067455
0.000730348
0.000792645
0.000870405
0.000969032
0.00109473
0.00125352
0.00145269
0.00170308
0.00201373
0.00240319
0.00288033
0.00343611
0.00407436
0.00476844
0.00528008
0.00512932
0.00499169
0.00484218
0.00469602
0.00455901
0.00442794
0.00430602
0.0041967
0.00437458
0.00425252
0.00375372
0.0035751
0.00343043
0.00307621
0.00337904
0.000486334
0.0223351
2.96315
0.000797083
0.000808298
0.000812287
0.000821925
0.000838992
0.000860659
0.000794927
0.000691028
0.000644442
0.000649516
0.000699473
0.000792903
0.000928264
0.00109602
0.00132168
0.00162209
0.00190476
0.00226075
0.00267121
0.003212
0.00378531
0.0027425
0.000168321
0.0511788
1.2869
1.00044e-05
1e-05
1e-05
1e-05
1e-05
1e-05
1e-05
1e-05
1e-05
1e-05
1e-05
1e-05
1e-05
6.31795e-05
0.000801108
0.000850286
0.000901118
0.00103678
0.00111613
0.00117001
0.00124239
0.00133866
0.00146542
0.00162644
0.00183013
0.00208385
0.00239605
0.00277811
0.0032361
0.00379252
0.00444949
0.00517108
0.00596514
0.00679878
0.00765191
0.00775409
0.00760997
0.00745471
0.00728175
0.00709527
0.0069155
0.00674147
0.00658086
0.00644589
0.00632951
0.00618674
0.00598466
0.0057434
0.00531258
0.00516694
0.00179162
0.0148263
1.50657
0.00103182
0.000821878
0.000811943
0.000772659
0.00077699
0.000795077
0.000804498
0.000825498
0.000851163
0.00087852
0.000913321
0.000952734
0.00100252
6.16946e-05
0.000172179
0.000303992
0.000384202
0.00042984
0.000682644
0.00124036
0.00167954
0.00371566
0.000823125
0.0150471
0.305927
1.00028e-05
1e-05
1e-05
1e-05
1e-05
1e-05
1e-05
1e-05
1e-05
1e-05
1e-05
1e-05
1e-05
1e-05
0.00148969
0.00162966
0.00167148
0.00166921
0.00166182
0.00172059
0.00181611
0.00194299
0.00211014
0.00232212
0.00258787
0.00291663
0.00332086
0.00381837
0.00439494
0.00462493
0.00482765
0.00496316
0.00501611
0.00502231
0.00499236
0.0049351
0.00485675
0.00476307
0.00465443
0.0045397
0.00443372
0.00433348
0.00424424
0.00417055
0.00411704
0.00411161
0.00408859
0.0041433
0.0042829
0.00457585
0.00270319
0.00954042
0.62108
0.00243328
0.00244889
0.00245699
0.00247942
0.00249898
0.00252857
0.00257621
0.00264411
0.00273644
0.00285517
0.00300391
0.00318547
0.00340425
0.00366861
0.00398788
0.00437403
0.0048395
0.00542966
0.00543348
0.00461101
0.00412698
0.00436962
0.00322389
0.00253553
0.0267201
1.0001e-05
1e-05
1e-05
1e-05
1e-05
1e-05
1e-05
1e-05
1e-05
1e-05
1e-05
1e-05
1e-05
1e-05
0.00264296
0.0026075
0.00257133
0.000600511
0.000578871
0.000391285
0.000406908
0.000421378
0.000445383
0.000475536
0.00050765
0.000545953
0.00059287
0.000661494
0.000158152
0.000412885
0.000586432
0.000688784
0.000744911
0.000770688
0.000775339
0.000765906
0.000747671
0.000727226
0.000709175
0.000694265
0.000683925
0.000678603
0.000679763
0.000686051
0.000695867
0.000737419
0.000856782
0.00102642
0.00122868
0.00163395
0.00171226
0.0041612
0.23071
0.00400565
0.00395091
0.00393195
0.00392907
0.00392396
0.00394391
0.00399337
0.00407455
0.00419136
0.00434562
0.00454078
0.0047813
0.00507439
0.00543334
0.00587129
0.00640255
0.00638967
0.00650646
0.0067016
0.00648131
0.0060917
0.00552767
0.00584828
0.00116648
0.00872422
1.00005e-05
1e-05
1e-05
1e-05
1e-05
1e-05
1e-05
1e-05
1e-05
1e-05
1e-05
1e-05
1e-05
1e-05
0.00400734
0.00111569
0.000585082
0.000253288
0.000347117
0.000362215
0.000365681
0.000362069
0.000357033
0.000352316
0.000344705
0.000337159
0.00033121
0.000325262
0.000343142
0.000380488
0.000406966
0.000424863
0.000437375
0.000446151
0.000451847
0.000455149
0.000456132
0.000455424
0.00045401
0.000452681
0.000452144
0.0004525
0.000454268
0.000457098
0.000460602
0.000471299
0.000489429
0.000512513
0.000541036
0.000624538
0.000276516
0.000974718
0.0497543
0.00324917
0.00328624
0.0028365
0.0025982
0.00244398
0.00231098
0.00220647
0.00212413
0.00207388
0.00206091
0.00207156
0.00210805
0.00219271
0.00232093
0.00245411
0.00259223
0.00281159
0.00311113
0.00352998
0.00401293
0.00442371
0.00455471
0.004911
0.0044977
0.00072327
1e-05
1e-05
1e-05
1e-05
1e-05
1e-05
1e-05
1e-05
1e-05
1e-05
1e-05
1e-05
1e-05
1e-05
0.00109474
0.000253197
0.00055892
0.0012708
0.00253087
0.00255969
0.00254758
0.0025327
0.00250501
0.0024679
0.00242221
0.0023677
0.0023062
0.00223817
0.00216494
0.00209195
0.0020218
0.00196179
0.00190974
0.00186358
0.00182157
0.00178188
0.00174101
0.00169994
0.00166197
0.00162637
0.00159358
0.00156288
0.00153479
0.00150848
0.00148377
0.00146016
0.00138505
0.00127706
0.00115811
0.00103986
0.00103001
0.000405503
0.0019767
0.00041048
0.000423876
0.000393257
0.000363091
0.00038049
0.000391106
0.000394191
0.000401919
0.0004119
0.000423148
0.000438392
0.000456044
0.000480838
0.000514002
0.000547568
0.000598355
0.00064017
0.000681733
0.000800208
0.000407194
0.00104279
0.00170084
0.00225455
0.00291584
0.00297909
1.00064e-05
1e-05
1e-05
1e-05
1e-05
1e-05
1e-05
1e-05
1e-05
1e-05
1e-05
1e-05
1e-05
1e-05
0.000354322
0.000926445
0.00312283
0.00390025
0.00413475
0.00412908
0.00410863
0.00410131
0.0040951
0.00408512
0.0040694
0.00404561
0.00400824
0.0039549
0.00388868
0.00381727
0.00375315
0.00369412
0.00363798
0.00358279
0.00352679
0.00346621
0.00339979
0.00333187
0.00326653
0.00320417
0.00314586
0.00309001
0.00303796
0.00298845
0.00294268
0.0029033
0.00281876
0.00272602
0.00264145
0.00243093
0.00211632
0.00156159
0.000783567
0.000591567
0.00034276
0.000398031
8.43005e-05
0.000322058
0.000475944
0.000608073
0.000716295
0.00080402
0.000869827
0.000917608
0.000948641
0.000970067
0.000986195
0.000989925
0.00108985
0.00102811
0.00086672
0.000838514
0.000763291
0.000798058
0.0010109
0.00134436
0.00158129
0.00278637
1.00398e-05
1e-05
1e-05
1e-05
1e-05
1e-05
1e-05
1e-05
1e-05
1e-05
1e-05
1e-05
1e-05
1e-05
0.0019386
0.00353386
0.00348484
0.00270423
0.00223239
0.00223015
0.00222131
0.00222587
0.00224351
0.00226674
0.00228959
0.00230887
0.00231133
0.00230426
0.00229185
0.00227903
0.00226467
0.00224787
0.00222782
0.00220385
0.00217505
0.00214129
0.00210432
0.00206749
0.00203273
0.00199979
0.00196896
0.0019396
0.001913
0.00188822
0.00186569
0.00185076
0.0018612
0.00189004
0.00192315
0.00192831
0.00190348
0.0019154
0.00120476
0.00277757
0.00270882
0.00288027
0.00301198
0.00315733
0.00329029
0.00339328
0.00347073
0.0035245
0.00355523
0.00357021
0.00357541
0.00357283
0.00356386
0.00354803
0.00352178
0.00350361
0.00348072
0.00343941
0.0034187
0.00307379
0.00255824
0.00236617
0.00203402
0.0027297
1.02297e-05
1e-05
1e-05
1e-05
1e-05
1e-05
1e-05
1e-05
1e-05
1e-05
1e-05
1e-05
1e-05
1e-05
0.00354541
0.00254087
0.00111599
0.000105278
0.000345424
0.000344378
0.000346781
0.0003445
0.000344337
0.000346465
0.000346354
0.000346961
0.000349691
2.23524e-05
3.44384e-05
4.5769e-05
5.5698e-05
6.39282e-05
7.0126e-05
7.4279e-05
7.63377e-05
7.67578e-05
7.6186e-05
7.60024e-05
7.70116e-05
7.89496e-05
8.17695e-05
8.55012e-05
9.03868e-05
9.6459e-05
0.000102521
0.000107947
0.000143007
0.000229979
0.000363185
0.000538149
0.000748256
0.00101776
0.00100703
0.00308744
0.00273531
0.0026321
0.00261675
0.00259103
0.00256363
0.00255549
0.00256644
0.00258424
0.00260416
0.00263143
0.0026695
0.00271751
0.0027754
0.00284181
0.00291705
0.00299612
0.00307196
0.00315878
0.00324085
0.00330056
0.00325065
0.00304569
0.0026215
0.00288549
1.13066e-05
1e-05
1e-05
1e-05
1e-05
1e-05
1e-05
1e-05
1e-05
1e-05
1e-05
1e-05
1e-05
1e-05
0.0015964
0.000146845
0.000185306
0.000108665
0.000102712
0.000104417
0.000105301
0.000103984
0.000102413
0.000101089
9.88526e-05
9.67201e-05
9.54875e-05
9.64147e-05
9.79391e-05
0.000100173
0.000102686
0.000105472
0.000108355
0.0001112
0.000113914
0.000116504
0.000118995
0.000121385
0.000123561
0.000125586
0.000127645
0.000129725
0.000131931
0.000134316
0.000136511
0.000138169
0.000144186
0.000156837
0.000176012
0.000209636
0.000238923
9.11059e-05
0.000407737
0.000743639
0.000848228
0.000658362
0.000552124
0.000466513
0.000389581
0.000343738
0.000336604
0.000346726
0.000364616
0.000398145
0.000446495
0.000507209
0.000579726
0.00066098
0.000750058
0.000849202
0.00095771
0.00106528
0.0012351
0.00156992
0.00192327
0.00216535
0.00218174
0.00249869
1.59063e-05
1e-05
1e-05
1e-05
1e-05
1e-05
1e-05
1e-05
1e-05
1e-05
1e-05
1e-05
1e-05
1e-05
0.000306137
0.000122915
1.79535e-05
0.000625319
0.000667062
0.000660657
0.000661357
0.000661629
0.000660611
0.00065916
0.000656435
0.000652438
0.000648262
0.000644019
0.000639597
0.000635235
0.000630957
0.000626763
0.000622687
0.000618629
0.000614563
0.000610469
0.000606318
0.000602203
0.000598072
0.000593487
0.000588507
0.000583046
0.000577343
0.00057167
0.000565445
0.000557702
0.00053811
0.000491312
0.000422406
0.000374687
0.000252823
0.000135597
0.000283557
0.000121852
0.0001495
0.000151529
0.00014711
0.000149909
0.000151954
0.000149858
0.000152477
0.00015645
0.000159849
0.0001663
0.000175074
0.00018617
0.000200179
0.00021618
0.000234377
0.000255324
0.000278724
0.000302452
0.000349541
0.000408899
0.000156092
0.000564415
0.000903526
0.00135802
2.69166e-05
1e-05
1e-05
1e-05
1e-05
1e-05
1e-05
1e-05
1e-05
1e-05
1e-05
1e-05
1e-05
1e-05
0.000271253
0.000762198
0.00171332
0.00201424
0.00201205
0.00198809
0.00197285
0.00196534
0.00196092
0.00195793
0.00195531
0.00195219
0.00194881
0.00194493
0.00194003
0.00193412
0.00192704
0.00191859
0.00190871
0.00189732
0.00188456
0.00187054
0.00185528
0.00183916
0.00182261
0.00180506
0.00178677
0.00176754
0.00174804
0.00172908
0.00170891
0.0016889
0.00166521
0.00161135
0.00152428
0.00139597
0.00121334
0.00100195
0.000781385
0.00012378
0.000210981
0.000355166
0.000470395
0.000566833
0.000645541
0.000689596
0.00071364
0.000729225
0.000737519
0.000741762
0.000744136
0.000745554
0.000746648
0.000746538
0.000746004
0.000746382
0.000745935
0.000741928
0.000812283
0.000686176
0.000488978
0.000507839
0.000619005
0.000818347
5.42399e-05
1e-05
1e-05
1e-05
1e-05
1e-05
1e-05
1e-05
1e-05
1e-05
1e-05
1e-05
1e-05
1e-05
0.00138266
0.00211354
0.00189408
0.00146196
0.00145078
0.00143759
0.00142334
0.00141604
0.00141303
0.00141208
0.00141314
0.0014152
0.00141732
0.0014192
0.00142047
0.00142064
0.00141965
0.00141729
0.00141343
0.00140791
0.00140078
0.00139218
0.00138206
0.00137089
0.00135933
0.00134732
0.00133498
0.00132218
0.00130939
0.00129732
0.00128494
0.00127286
0.00126966
0.00128188
0.00128968
0.00127647
0.00125966
0.00118755
0.00097499
0.00178127
0.00173412
0.00181906
0.00190513
0.00195852
0.00199519
0.00200934
0.00200971
0.00200843
0.00200707
0.00200587
0.0020042
0.00200464
0.00200646
0.00200675
0.00200651
0.00200664
0.00200513
0.00200027
0.00199366
0.00190718
0.00173402
0.00157149
0.00134721
0.00109923
0.000150833
1e-05
1e-05
1e-05
1e-05
1e-05
1e-05
1e-05
1e-05
1e-05
1e-05
1e-05
1e-05
1e-05
0.00216559
0.0014714
0.000619096
0.000198973
0.000197041
0.000204634
0.000202175
0.000198023
0.000195282
0.000193891
0.000193528
0.000194057
0.000195231
0.000196942
0.000198979
0.000201213
0.000203497
0.000205763
0.000207864
0.000209726
0.000211264
0.000212529
0.000213569
0.000214623
0.000215796
0.000217044
0.00021834
0.000219662
0.000221086
0.00022279
0.000224695
0.000225687
0.000228723
0.00027071
0.000344033
0.000441801
0.000583221
0.000720655
0.000729603
0.0017879
0.00158402
0.00149631
0.00144857
0.00139019
0.00133973
0.00129808
0.00126499
0.00124865
0.00124427
0.00124706
0.00125188
0.00126324
0.00128113
0.00129905
0.00131879
0.00134136
0.00136592
0.00139215
0.00143668
0.00151434
0.00155934
0.00156142
0.00151453
0.00131805
0.000397873
1e-05
1e-05
1e-05
1e-05
1e-05
1e-05
1e-05
1e-05
1e-05
1e-05
1e-05
1e-05
1e-05
0.000923605
0.000117701
0.000113592
3.8415e-05
3.86989e-05
4.06946e-05
4.05419e-05
3.94331e-05
3.85174e-05
3.79099e-05
3.71546e-05
3.65709e-05
3.63523e-05
3.62843e-05
3.6474e-05
3.69759e-05
3.76601e-05
3.85578e-05
3.96233e-05
4.0818e-05
4.20836e-05
4.34232e-05
4.48213e-05
4.61943e-05
4.74128e-05
4.85702e-05
4.97366e-05
5.09062e-05
5.2085e-05
5.33042e-05
5.45607e-05
5.5608e-05
5.70747e-05
6.70459e-05
8.51397e-05
0.00010735
0.000145291
0.000142257
0.000330638
0.000414839
0.000416937
0.000281845
0.000202645
0.000142241
9.32891e-05
6.18732e-05
4.38934e-05
3.64637e-05
3.7091e-05
4.26606e-05
5.13994e-05
6.16701e-05
7.40426e-05
8.92192e-05
0.000107649
0.000129493
0.000155133
0.000183085
0.000218407
0.000307552
0.000468046
0.000667474
0.000862134
0.000907202
0.000645783
1e-05
1e-05
1e-05
1e-05
1e-05
1e-05
1e-05
1e-05
1e-05
1e-05
1e-05
1e-05
1e-05
0.000180798
4.1358e-05
0.000104914
0.000127153
0.000129158
0.000130926
0.000131176
0.000129086
0.000126907
0.000125098
0.000121847
0.000118593
0.000116451
0.000114532
0.00011345
0.000113506
0.000114237
0.000115785
0.000118042
0.000120871
0.000124079
0.000127679
0.00013155
0.000135174
0.00013795
0.000140239
0.000142395
0.000144403
0.000146247
0.000147969
0.000149578
0.000151011
0.000152305
0.00015097
1.46002e-05
0.00013115
0.000110228
0.00012211
9.02371e-05
6.54489e-05
6.66421e-05
5.04645e-05
4.14487e-05
3.88727e-05
3.76738e-05
3.69971e-05
3.70864e-05
3.76999e-05
3.86615e-05
4.02223e-05
4.20667e-05
4.40294e-05
4.63821e-05
4.92098e-05
5.26957e-05
5.68799e-05
6.18288e-05
6.7296e-05
7.39884e-05
8.78957e-05
0.000114703
0.000146294
9.58624e-05
0.00024966
0.000514569
1.00001e-05
1e-05
1e-05
1e-05
1e-05
1e-05
1e-05
1e-05
1e-05
1e-05
1e-05
1e-05
1e-05
7.89092e-05
0.000136788
0.000664216
0.000815426
0.000814156
0.000805449
0.000803007
0.000804178
0.00080634
0.000808795
0.000811164
0.000812947
0.000814276
0.000815225
0.000815697
0.000815769
0.000815498
0.000814843
0.000813807
0.000812338
0.000810436
0.000808121
0.000805352
0.000802162
0.000798671
0.000794677
0.000790183
0.000785251
0.000779843
0.000774275
0.000768711
0.000762843
0.000756961
0.000737075
0.00069452
0.000616273
0.000505474
0.000396216
0.0003147
0.000149811
0.000110089
0.000127495
3.80707e-05
7.97756e-05
0.000119514
0.000150775
0.00017066
0.000183325
0.00019141
0.000196825
0.000200678
0.000203282
0.000204955
0.000206219
0.000207415
0.000208524
0.000209432
0.000209963
0.000209282
0.000195923
0.000185323
0.000111199
5.65916e-05
6.74044e-05
0.000320041
1.0001e-05
1e-05
1e-05
1e-05
1e-05
1e-05
1e-05
1e-05
1e-05
1e-05
1e-05
1e-05
1e-05
0.000427256
0.000940569
0.00100437
0.000972461
0.000971061
0.000956243
0.000946094
0.000941491
0.000939608
0.000938969
0.00093932
0.000940026
0.000940775
0.000941537
0.000942134
0.000942434
0.000942436
0.000942066
0.000941207
0.00093979
0.00093779
0.000935246
0.000932071
0.000928291
0.000924177
0.00091963
0.000914594
0.000909138
0.000903223
0.000897123
0.000891108
0.000885186
0.000881539
0.000878894
0.000867613
0.000839824
0.000788037
0.000685404
0.000540576
0.000705239
0.000753553
0.000805307
0.000840966
0.000871181
0.000898116
0.00091992
0.000931939
0.000938428
0.00094278
0.000945532
0.000947408
0.000948715
0.00094895
0.000949162
0.000949955
0.0009511
0.000951811
0.000951315
0.000950228
0.000945547
0.000896399
0.000798301
0.000680273
0.000557505
0.00054483
1.00164e-05
1e-05
1e-05
1e-05
1e-05
1e-05
1e-05
1e-05
1e-05
1e-05
1e-05
1e-05
1e-05
0.0010438
0.000824503
0.000411285
0.000304447
0.000302786
0.000297044
0.000288737
0.000282513
0.000278209
0.000274944
0.000272678
0.00027116
0.000270086
0.000269386
0.000268919
0.000268528
0.000268187
0.000267814
0.000267324
0.000266689
0.000265893
0.000264937
0.000263848
0.000262736
0.000261689
0.000260691
0.000259763
0.000258837
0.000257975
0.000257248
0.000256696
0.00025625
0.000257072
0.000270324
0.000305076
0.000356442
0.000415329
0.000461129
0.00045484
0.000988542
0.000916055
0.000899279
0.0008858
0.000872732
0.000860988
0.000852577
0.00084173
0.000830864
0.000824123
0.00081907
0.000815463
0.000813397
0.000811163
0.000810913
0.000813525
0.000816819
0.000820628
0.000824457
0.000829267
0.000846021
0.000867208
0.000862309
0.000839142
0.000759378
0.000711413
1.02466e-05
1e-05
1e-05
1e-05
1e-05
1e-05
1e-05
1e-05
1e-05
1e-05
1e-05
1e-05
1e-05
0.000658206
0.00017473
9.00321e-05
5.54862e-05
5.60163e-05
5.62205e-05
5.50661e-05
5.31783e-05
5.15465e-05
5.02108e-05
4.8509e-05
4.69272e-05
4.58146e-05
4.48216e-05
4.41675e-05
4.39634e-05
4.40244e-05
4.44201e-05
4.51001e-05
4.60188e-05
4.71193e-05
4.83901e-05
4.98103e-05
5.1169e-05
5.22312e-05
5.31542e-05
5.40945e-05
5.50302e-05
5.59625e-05
5.68977e-05
5.78416e-05
5.87785e-05
5.99491e-05
6.36661e-05
7.19733e-05
8.40585e-05
0.000102584
0.000121043
0.000215984
0.000358022
0.00030799
0.000276757
0.000256649
0.000237776
0.000220826
0.000205835
0.000195891
0.000188886
0.000183854
0.000180132
0.000177792
0.000176936
0.000177419
0.00017869
0.000181112
0.000184916
0.000190136
0.000196696
0.000203645
0.000217346
0.000270979
0.000351997
0.000434087
0.000479583
0.000557609
1.19826e-05
1.00003e-05
1e-05
1e-05
1e-05
1e-05
1e-05
1e-05
1e-05
1e-05
1e-05
1e-05
1e-05
0.000139618
3.31265e-05
4.02292e-05
4.37196e-05
4.38642e-05
4.44017e-05
4.45058e-05
4.38337e-05
4.3095e-05
4.2463e-05
4.13345e-05
4.01402e-05
3.92522e-05
3.83921e-05
3.77722e-05
3.75224e-05
3.74917e-05
3.77575e-05
3.82974e-05
3.90762e-05
4.00526e-05
4.1224e-05
4.25832e-05
4.39082e-05
4.49324e-05
4.58e-05
4.66521e-05
4.74793e-05
4.82686e-05
4.90087e-05
4.97089e-05
5.03705e-05
5.09317e-05
5.08159e-05
4.76347e-05
4.16172e-05
3.57446e-05
4.85378e-05
1.3486e-05
5.90063e-05
5.25166e-05
5.06686e-05
4.60486e-05
4.36103e-05
4.14821e-05
3.86784e-05
3.70988e-05
3.59523e-05
3.49186e-05
3.43243e-05
3.39504e-05
3.38283e-05
3.40341e-05
3.4401e-05
3.50141e-05
3.58968e-05
3.70495e-05
3.84612e-05
3.99786e-05
4.25802e-05
5.15532e-05
6.51029e-05
8.71598e-05
9.90386e-05
0.000216776
1.75967e-05
1.00047e-05
1e-05
1e-05
1e-05
1e-05
1e-05
1e-05
1e-05
1e-05
1e-05
1e-05
1e-05
2.93711e-05
8.73058e-05
0.000212383
0.000235435
0.000232507
0.000230676
0.000230706
0.000231287
0.000232044
0.000233028
0.000233892
0.00023451
0.000235041
0.000235484
0.000235823
0.000236131
0.000236435
0.000236737
0.000237049
0.000237369
0.000237708
0.000238084
0.000238504
0.000238938
0.000239312
0.000239535
0.000239561
0.000239401
0.000239025
0.000238419
0.000237642
0.000236723
0.000235382
0.000230514
0.000209622
0.000174734
0.000141846
8.09036e-05
5.52298e-05
6.14729e-05
4.55933e-05
5.00837e-05
5.08866e-05
5.32582e-05
5.52243e-05
5.52752e-05
5.56608e-05
5.58257e-05
5.55133e-05
5.55475e-05
5.55575e-05
5.55963e-05
5.58571e-05
5.616e-05
5.65836e-05
5.71015e-05
5.76714e-05
5.82387e-05
5.88031e-05
5.94075e-05
5.78549e-05
5.2718e-05
4.56218e-05
5.46919e-05
7.44315e-05
2.21449e-05
1.00355e-05
1.00001e-05
1e-05
1e-05
1e-05
1e-05
1e-05
1e-05
1e-05
1e-05
1e-05
1e-05
0.000153782
0.000432321
0.00052925
0.000533228
0.0005263
0.000519921
0.000516517
0.000515346
0.000515288
0.000515967
0.000516989
0.000517962
0.000518934
0.000519829
0.000520522
0.000521132
0.000521695
0.000522177
0.000522603
0.000522955
0.000523236
0.000523464
0.000523668
0.000523816
0.000523769
0.000523367
0.000522614
0.000521598
0.000520267
0.000518563
0.00051658
0.000514339
0.000511891
0.000509039
0.000495771
0.000469413
0.000426769
0.000354179
0.000270931
0.000270568
0.000267514
0.000281531
0.000299456
0.000313633
0.000324113
0.00033148
0.000336531
0.000340283
0.000343139
0.000345291
0.000346986
0.000348278
0.000349222
0.000349861
0.00035035
0.000350816
0.000351109
0.000351039
0.000350829
0.000351083
0.000337304
0.000299908
0.00025058
0.000211674
0.000149045
6.15807e-05
1.04998e-05
1.00003e-05
1e-05
1e-05
1e-05
1e-05
1e-05
1e-05
1e-05
1e-05
1e-05
1e-05
0.000538915
0.000473997
0.000339735
0.000332148
0.000330263
0.000326891
0.000324059
0.000322542
0.000321825
0.000321501
0.000321694
0.00032219
0.000322701
0.00032324
0.000323747
0.000324141
0.000324452
0.000324691
0.000324793
0.000324784
0.000324633
0.000324349
0.000323943
0.000323356
0.000322696
0.000321997
0.0003212
0.000320303
0.000319323
0.000318215
0.000317078
0.000315832
0.000314506
0.000315598
0.000324869
0.000338151
0.000347236
0.000344719
0.000308548
0.000527095
0.000488357
0.000494728
0.000500643
0.000501994
0.000500759
0.000498937
0.000496797
0.00049506
0.000493873
0.000492973
0.000492357
0.000491935
0.00049161
0.000491377
0.000491389
0.000491748
0.000492194
0.000492387
0.000492625
0.000495122
0.000496419
0.00048302
0.000456215
0.000418284
0.000350492
0.000216701
1.56834e-05
1.0013e-05
1.00001e-05
1e-05
1e-05
1e-05
1e-05
1e-05
1e-05
1e-05
1e-05
1e-05
0.000374413
0.00015607
2.70451e-05
2.17855e-05
2.43236e-05
2.52752e-05
2.46454e-05
2.33885e-05
2.21122e-05
2.08746e-05
1.97075e-05
1.86812e-05
1.77706e-05
1.6965e-05
1.62746e-05
1.56521e-05
1.51001e-05
1.46015e-05
1.4162e-05
1.37779e-05
1.34691e-05
1.32454e-05
1.31256e-05
1.31052e-05
1.3178e-05
1.3346e-05
1.35964e-05
1.39019e-05
1.42558e-05
1.46597e-05
1.50977e-05
1.55389e-05
1.54707e-05
1.57264e-05
3.00624e-05
5.86685e-05
0.000101173
0.000155983
0.000184972
0.000276599
0.000274608
0.000255082
0.000243808
0.000233243
0.000223419
0.000215944
0.000210375
0.000206309
0.000203492
0.000201487
0.000200134
0.000199288
0.000198824
0.000198737
0.000199059
0.000199832
0.000200993
0.000202393
0.000204009
0.000207193
0.000220074
0.000245051
0.000271101
0.000290558
0.000296256
0.000263589
3.84189e-05
1.01866e-05
1.00001e-05
1e-05
1e-05
1e-05
1e-05
1e-05
1e-05
1e-05
1e-05
1e-05
4.12502e-05
3.44236e-05
1.36315e-05
1.33987e-05
1.39119e-05
1.42636e-05
1.4308e-05
1.40958e-05
1.38387e-05
1.36017e-05
1.33003e-05
1.2995e-05
1.27445e-05
1.25122e-05
1.23183e-05
1.21757e-05
1.20667e-05
1.19954e-05
1.19602e-05
1.19592e-05
1.1992e-05
1.20614e-05
1.21775e-05
1.23261e-05
1.24683e-05
1.26038e-05
1.27522e-05
1.29112e-05
1.30807e-05
1.32593e-05
1.34446e-05
1.36297e-05
1.37058e-05
1.37529e-05
1.57514e-05
1.9832e-05
2.86797e-05
4.23749e-05
4.7765e-05
4.84039e-05
4.85769e-05
4.81541e-05
4.48434e-05
4.35618e-05
4.2435e-05
4.06105e-05
3.95607e-05
3.87192e-05
3.78371e-05
3.7362e-05
3.6995e-05
3.67475e-05
3.67157e-05
3.67819e-05
3.6998e-05
3.73356e-05
3.77833e-05
3.83009e-05
3.88606e-05
3.96372e-05
4.18206e-05
4.70606e-05
2.21231e-05
6.72559e-05
0.000114988
0.000151417
7.52558e-05
1.13358e-05
1.00026e-05
1e-05
1e-05
1e-05
1e-05
1e-05
1e-05
1e-05
1e-05
1e-05
1.79887e-05
3.41093e-05
1.61673e-05
2.01185e-05
2.04373e-05
2.10877e-05
2.19638e-05
2.25478e-05
2.29034e-05
2.32585e-05
2.34301e-05
2.33829e-05
2.33052e-05
2.31814e-05
2.30022e-05
2.28486e-05
2.27222e-05
2.26292e-05
2.2585e-05
2.2602e-05
2.26917e-05
2.2848e-05
2.3123e-05
2.35307e-05
2.39551e-05
2.42938e-05
2.45881e-05
2.48541e-05
2.50947e-05
2.5304e-05
2.54842e-05
2.56276e-05
2.56629e-05
2.51785e-05
2.01541e-05
1.03748e-05
4.23777e-05
3.6295e-05
3.80986e-05
2.56167e-05
2.10232e-05
2.18033e-05
2.161e-05
2.21631e-05
2.2835e-05
2.29969e-05
2.32878e-05
2.3523e-05
2.35742e-05
2.37137e-05
2.38199e-05
2.39032e-05
2.40417e-05
2.41742e-05
2.43341e-05
2.45109e-05
2.46965e-05
2.48693e-05
2.50242e-05
2.51266e-05
2.49087e-05
2.31636e-05
2.2379e-05
2.70606e-05
3.21158e-05
1.45254e-05
4.64897e-05
1.42182e-05
1.00336e-05
1.00003e-05
1e-05
1e-05
1e-05
1e-05
1e-05
1e-05
1e-05
1e-05
3.57436e-05
0.000180588
0.000228579
0.0002308
0.000229268
0.000228074
0.000227745
0.000227949
0.000228307
0.0002288
0.000229371
0.000229848
0.00023026
0.000230631
0.000230919
0.000231161
0.000231384
0.000231578
0.000231757
0.000231917
0.000232056
0.000232173
0.000232289
0.000232404
0.000232468
0.000232415
0.000232244
0.000231985
0.000231651
0.000231209
0.000230693
0.000230081
0.000229419
0.000228888
0.000223603
0.000210037
0.000185573
0.000149658
0.000116032
0.000102682
8.86477e-05
8.89488e-05
9.13204e-05
9.45836e-05
9.84088e-05
0.000101699
0.000104596
0.000107234
0.000109456
0.000111393
0.00011309
0.000114511
0.000115695
0.000116669
0.00011749
0.0001182
0.000118779
0.000119174
0.00011939
0.000119315
0.000117268
0.000104519
8.59309e-05
6.9821e-05
4.77436e-05
3.26487e-05
3.81321e-05
2.19332e-05
1.03398e-05
1.00008e-05
1e-05
1e-05
1e-05
1e-05
1e-05
1e-05
1e-05
1e-05
0.00026359
0.000290251
0.000252898
0.000247802
0.000244264
0.000241584
0.000239988
0.000239358
0.000239191
0.000239279
0.000239614
0.000240026
0.000240437
0.000240334
0.000240197
0.000240114
0.000240108
0.000240158
0.000240236
0.000240319
0.000240388
0.000240435
0.000240436
0.000240373
0.000240257
0.000240073
0.000239793
0.00023942
0.000238983
0.000238464
0.000237892
0.000237255
0.000236662
0.000237126
0.000238469
0.000237687
0.000230451
0.000212713
0.000182768
0.000286837
0.000260623
0.000255774
0.000256255
0.000257265
0.000258965
0.000260846
0.000262566
0.000264283
0.000265867
0.000267339
0.00026874
0.000269944
0.000270935
0.000271743
0.000272454
0.000273173
0.00027384
0.000274308
0.000274523
0.000274546
0.000274667
0.000266368
0.000250041
0.000226865
0.000196669
0.000168312
0.000132672
6.3317e-05
1.31426e-05
1.00379e-05
1e-05
1e-05
1e-05
1e-05
1e-05
1e-05
1e-05
1e-05
0.000267988
0.000136892
7.09573e-05
6.29758e-05
6.12931e-05
6.0041e-05
5.88572e-05
5.79556e-05
5.73158e-05
5.68084e-05
5.64411e-05
5.61877e-05
5.60259e-05
5.70807e-05
5.89396e-05
6.07251e-05
6.22724e-05
6.35627e-05
6.46556e-05
6.55853e-05
6.6415e-05
6.71531e-05
6.78342e-05
6.84848e-05
6.90788e-05
6.96032e-05
7.00274e-05
7.0374e-05
7.06668e-05
7.08988e-05
7.10714e-05
7.11946e-05
7.12315e-05
7.16795e-05
7.64964e-05
8.81695e-05
0.00010533
0.000123445
0.000127493
0.000208479
0.000198837
0.000189474
0.000184528
0.000180755
0.000177476
0.000175191
0.000173209
0.000171511
0.000170223
0.000169169
0.000168355
0.000167722
0.000167186
0.000166745
0.000166441
0.000166342
0.000166422
0.000166592
0.00016682
0.00016704
0.000169634
0.00017783
0.000185214
0.000188458
0.000186619
0.000179133
0.000162727
0.000118733
2.59226e-05
1.04817e-05
1.00027e-05
1e-05
1e-05
1e-05
1e-05
1e-05
1e-05
1e-05
8.39481e-05
3.66381e-05
1.98178e-05
1.85232e-05