/*--------------------------------*- C++ -*----------------------------------*\
| =========                 |                                                 |
| \\      /  F ield         | OpenFOAM: The Open Source CFD Toolbox           |
|  \\    /   O peration     | Version:  2312                                  |
|   \\  /    A nd           | Website:  www.openfoam.com                      |
|    \\/     M anipulation  |                                                 |
\*---------------------------------------------------------------------------*/
FoamFile
{
    version     2.0;
    format      ascii;
    arch        "LSB;label=32;scalar=64";
    class       volVectorField;
    location    "84.120620451420436";
    object      U;
}
// * * * * * * * * * * * * * * * * * * * * * * * * * * * * * * * * * * * * * //

dimensions      [0 1 -1 0 0 0 0];

internalField   nonuniform List<vector> 
21039
(
(0.913757 0.0474338 0)
(1.02607 0.0664963 0)
(1.00449 0.0295024 0)
(1.00177 0.0188996 0)
(1.00121 0.0138895 0)
(1.0008 0.010507 0)
(1.00055 0.00817759 0)
(1.0004 0.00653163 0)
(1.00031 0.0053182 0)
(1.00024 0.0043934 0)
(1.00019 0.00367174 0)
(1.00015 0.00309822 0)
(1.00012 0.00263584 0)
(1.0001 0.00225903 0)
(1.00008 0.00194965 0)
(1.00007 0.00169461 0)
(1.00005 0.00148422 0)
(1.00004 0.00131119 0)
(1.00003 0.00116989 0)
(1.00003 0.00105579 0)
(1.00002 0.000965066 0)
(1.00001 0.000895714 0)
(1.00001 0.000849296 0)
(1.00001 0.000808016 0)
(1.00001 0.000776616 0)
(1.00001 0.000751742 0)
(1.00001 0.000729007 0)
(1.00001 0.000698611 0)
(1.00002 0.000639259 0)
(0.794526 0.0730586 0)
(1.07452 0.121711 0)
(1.03989 0.0708797 0)
(1.01811 0.0497222 0)
(1.01129 0.0383016 0)
(1.00765 0.0295142 0)
(1.00539 0.0232092 0)
(1.00397 0.0186253 0)
(1.00301 0.0151617 0)
(1.00234 0.012477 0)
(1.00186 0.0103547 0)
(1.0015 0.008648 0)
(1.00122 0.00725616 0)
(1.001 0.00610873 0)
(1.00083 0.00515542 0)
(1.00069 0.00435966 0)
(1.00057 0.00369448 0)
(1.00047 0.00313969 0)
(1.00038 0.00267994 0)
(1.00031 0.00230329 0)
(1.00024 0.0019999 0)
(1.00018 0.00176341 0)
(1.00013 0.00159754 0)
(1.0001 0.00147313 0)
(1.00009 0.00139532 0)
(1.00009 0.00134612 0)
(1.0001 0.00131118 0)
(1.00011 0.00127151 0)
(1.00011 0.00119814 0)
(0.667262 0.0572865 0)
(1.08303 0.12486 0)
(1.08437 0.0903747 0)
(1.0463 0.0677261 0)
(1.02908 0.0542064 0)
(1.02027 0.0432416 0)
(1.01471 0.0349296 0)
(1.01101 0.028543 0)
(1.00846 0.0235082 0)
(1.00664 0.0194935 0)
(1.00531 0.0162532 0)
(1.00431 0.0136048 0)
(1.00354 0.0114169 0)
(1.00293 0.00959417 0)
(1.00244 0.00806648 0)
(1.00204 0.00678178 0)
(1.0017 0.00570117 0)
(1.00141 0.00479524 0)
(1.00116 0.00404162 0)
(1.00094 0.00342308 0)
(1.00075 0.00292561 0)
(1.00057 0.00253899 0)
(1.00042 0.00226849 0)
(1.00031 0.00207974 0)
(1.00025 0.00197167 0)
(1.00023 0.00190999 0)
(1.00022 0.00187082 0)
(1.00023 0.00182965 0)
(1.00024 0.00175466 0)
(0.540909 0.035279 0)
(1.0507 0.110912 0)
(1.11592 0.0971546 0)
(1.07613 0.076398 0)
(1.04924 0.062235 0)
(1.03528 0.0511274 0)
(1.02643 0.0424545 0)
(1.02027 0.0354296 0)
(1.01585 0.0296487 0)
(1.01261 0.0248863 0)
(1.0102 0.020938 0)
(1.00835 0.0176396 0)
(1.00691 0.0148667 0)
(1.00576 0.0125238 0)
(1.00482 0.0105376 0)
(1.00405 0.00885206 0)
(1.0034 0.00742407 0)
(1.00283 0.00622057 0)
(1.00234 0.00521613 0)
(1.0019 0.00439116 0)
(1.0015 0.00372989 0)
(1.00115 0.00321975 0)
(1.00083 0.00286725 0)
(1.00059 0.00263447 0)
(1.00045 0.00251081 0)
(1.00037 0.00244734 0)
(1.00034 0.00241229 0)
(1.00034 0.00237667 0)
(1.00034 0.00230438 0)
(0.444005 0.0186819 0)
(0.997554 0.0919813 0)
(1.12896 0.0958547 0)
(1.10144 0.0796768 0)
(1.06823 0.0656312 0)
(1.04975 0.0549608 0)
(1.03825 0.0465867 0)
(1.03004 0.0395651 0)
(1.02396 0.0336056 0)
(1.01938 0.0285587 0)
(1.01587 0.0242661 0)
(1.01313 0.0205992 0)
(1.01096 0.0174579 0)
(1.00921 0.0147615 0)
(1.00776 0.0124457 0)
(1.00655 0.0104593 0)
(1.00551 0.00876241 0)
(1.00461 0.00732352 0)
(1.00382 0.00611817 0)
(1.0031 0.00512747 0)
(1.00245 0.00433636 0)
(1.00185 0.00373191 0)
(1.00131 0.00332236 0)
(1.0009 0.00306707 0)
(1.00064 0.00294447 0)
(1.00048 0.00289291 0)
(1.00042 0.00287409 0)
(1.0004 0.00285478 0)
(1.00039 0.00279227 0)
(0.378375 0.00811613 0)
(0.939344 0.0719698 0)
(1.12683 0.0885532 0)
(1.1208 0.0789188 0)
(1.08547 0.0661741 0)
(1.06301 0.0562014 0)
(1.04924 0.048357 0)
(1.03943 0.0416337 0)
(1.03201 0.0357959 0)
(1.0263 0.0307392 0)
(1.02182 0.0263433 0)
(1.01827 0.0225136 0)
(1.0154 0.0191749 0)
(1.01304 0.0162648 0)
(1.01107 0.0137322 0)
(1.00939 0.0115359 0)
(1.00794 0.00964299 0)
(1.00666 0.00802728 0)
(1.00552 0.00666839 0)
(1.00448 0.0055506 0)
(1.00352 0.00466176 0)
(1.00264 0.00399059 0)
(1.00183 0.00354814 0)
(1.00121 0.00329167 0)
(1.00079 0.00318769 0)
(1.00055 0.00316313 0)
(1.00043 0.00317399 0)
(1.00039 0.00318286 0)
(1.00036 0.00313874 0)
(0.33308 0.00234583 0)
(0.882854 0.0539689 0)
(1.11373 0.0781393 0)
(1.13378 0.0751701 0)
(1.10082 0.0646399 0)
(1.07522 0.0555852 0)
(1.05937 0.0483998 0)
(1.04824 0.0421488 0)
(1.03975 0.0366058 0)
(1.0331 0.0316992 0)
(1.02781 0.027348 0)
(1.02353 0.0234893 0)
(1.02002 0.0200709 0)
(1.01709 0.0170481 0)
(1.01461 0.014384 0)
(1.01246 0.0120484 0)
(1.01059 0.0100174 0)
(1.00891 0.00827209 0)
(1.00739 0.00679787 0)
(1.006 0.00558412 0)
(1.0047 0.00462325 0)
(1.00348 0.00390744 0)
(1.00236 0.00345179 0)
(1.00148 0.00321195 0)
(1.00089 0.00314193 0)
(1.00053 0.00315806 0)
(1.00035 0.0032113 0)
(1.00027 0.00326008 0)
(1.0002 0.00324353 0)
(0.300708 -0.000182677 0)
(0.830916 0.0396951 0)
(1.09335 0.0672437 0)
(1.14038 0.0697767 0)
(1.11375 0.0617887 0)
(1.08637 0.0537323 0)
(1.06867 0.0472091 0)
(1.05643 0.0414918 0)
(1.04708 0.0363297 0)
(1.03967 0.0316632 0)
(1.03369 0.0274452 0)
(1.02879 0.0236405 0)
(1.02471 0.0202175 0)
(1.02126 0.0171484 0)
(1.01829 0.0144099 0)
(1.0157 0.0119832 0)
(1.0134 0.00985371 0)
(1.01131 0.00801046 0)
(1.0094 0.006446 0)
(1.00762 0.00515586 0)
(1.00595 0.00413833 0)
(1.00436 0.00339053 0)
(1.00288 0.00293283 0)
(1.0017 0.00272026 0)
(1.0009 0.0026945 0)
(1.0004 0.00276181 0)
(1.00013 0.00286839 0)
(0.999989 0.00296815 0)
(0.999871 0.00298879 0)
(0.277668 -0.000977876 0)
(0.785051 0.0291868 0)
(1.06896 0.0572265 0)
(1.14143 0.063774 0)
(1.12398 0.0582845 0)
(1.09634 0.0512147 0)
(1.07715 0.045257 0)
(1.06397 0.0400234 0)
(1.05396 0.0352406 0)
(1.04594 0.0308388 0)
(1.0394 0.0267905 0)
(1.03397 0.0230799 0)
(1.0294 0.0196918 0)
(1.02548 0.0166125 0)
(1.02207 0.013831 0)
(1.01905 0.011339 0)
(1.01633 0.00913114 0)
(1.01384 0.00720457 0)
(1.01152 0.00555937 0)
(1.00934 0.00419805 0)
(1.00725 0.00312572 0)
(1.00526 0.00234569 0)
(1.00337 0.00188494 0)
(1.00186 0.0016999 0)
(1.0008 0.00172092 0)
(1.00013 0.00184421 0)
(0.999744 0.00201116 0)
(0.999523 0.00217085 0)
(0.999331 0.00223832 0)
(0.261175 -0.00102306 0)
(0.74566 0.0217385 0)
(1.04312 0.0485065 0)
(1.13826 0.0577222 0)
(1.13166 0.0545068 0)
(1.1052 0.0483945 0)
(1.08491 0.042894 0)
(1.07093 0.0380445 0)
(1.06037 0.0335834 0)
(1.0519 0.0294203 0)
(1.04491 0.0255341 0)
(1.03905 0.0219204 0)
(1.03406 0.0185747 0)
(1.02973 0.0154939 0)
(1.02591 0.0126768 0)
(1.02249 0.0101241 0)
(1.01937 0.00783849 0)
(1.01648 0.00582517 0)
(1.01375 0.00409162 0)
(1.01115 0.0026478 0)
(1.00863 0.0015066 0)
(1.00619 0.000678468 0)
(1.00386 0.000197657 0)
(1.00195 2.58652e-05 0)
(1.00061 8.48353e-05 0)
(0.999721 0.000259584 0)
(0.999182 0.000486307 0)
(0.99884 0.000709761 0)
(0.998541 0.000834717 0)
(0.248912 -0.000805254 0)
(0.712261 0.0165626 0)
(1.01747 0.0411091 0)
(1.1321 0.0519051 0)
(1.1371 0.0506373 0)
(1.11307 0.0454414 0)
(1.09211 0.0403189 0)
(1.07741 0.0357549 0)
(1.06641 0.03154 0)
(1.05757 0.0275645 0)
(1.05024 0.0238064 0)
(1.04403 0.0202659 0)
(1.03869 0.0169455 0)
(1.034 0.0138492 0)
(1.02983 0.0109828 0)
(1.02604 0.00835408 0)
(1.02254 0.00597291 0)
(1.01925 0.00385147 0)
(1.01612 0.00200458 0)
(1.01308 0.00044902 0)
(1.0101 -0.000794758 0)
(1.00718 -0.00170779 0)
(1.00436 -0.00224528 0)
(1.00202 -0.00243693 0)
(1.00033 -0.0023662 0)
(0.999188 -0.00215833 0)
(0.99845 -0.00188606 0)
(0.997947 -0.00161158 0)
(0.997502 -0.00143259 0)
(0.239361 -0.000548038 0)
(0.684023 0.0129742 0)
(0.992936 0.0349158 0)
(1.12395 0.0464711 0)
(1.14065 0.0467807 0)
(1.12004 0.0424377 0)
(1.09889 0.037639 0)
(1.08358 0.0332772 0)
(1.07219 0.0292327 0)
(1.06306 0.0253863 0)
(1.05544 0.0217097 0)
(1.04896 0.0182043 0)
(1.04332 0.0148761 0)
(1.03834 0.0117336 0)
(1.03385 0.00878762 0)
(1.02973 0.0060512 0)
(1.02588 0.00353992 0)
(1.02221 0.00127212 0)
(1.01867 -0.000732203 0)
(1.01519 -0.00244955 0)
(1.01175 -0.00385064 0)
(1.00832 -0.00490687 0)
(1.00496 -0.00556169 0)
(1.00213 -0.00583085 0)
(1.00004 -0.00579375 0)
(0.998578 -0.00558271 0)
(0.99758 -0.00527844 0)
(0.996854 -0.00495676 0)
(0.996208 -0.00475127 0)
(0.231651 -0.000341676 0)
(0.660122 0.010437 0)
(0.970007 0.0297521 0)
(1.11458 0.0414841 0)
(1.14262 0.0430088 0)
(1.12621 0.0394359 0)
(1.10533 0.0349212 0)
(1.08953 0.0306934 0)
(1.07779 0.0267493 0)
(1.06842 0.0229722 0)
(1.06059 0.0193263 0)
(1.05389 0.0158105 0)
(1.04802 0.0124322 0)
(1.04279 0.00920213 0)
(1.03803 0.00613427 0)
(1.03361 0.00324538 0)
(1.02944 0.000554929 0)
(1.02542 -0.00191555 0)
(1.02149 -0.00413981 0)
(1.01758 -0.00608647 0)
(1.01365 -0.00771919 0)
(1.00969 -0.0090008 0)
(1.00576 -0.00986338 0)
(1.00239 -0.0103022 0)
(0.999839 -0.0103803 0)
(0.997984 -0.0102333 0)
(0.996644 -0.00994756 0)
(0.995605 -0.00961314 0)
(0.994672 -0.0093922 0)
(0.225273 -0.000203965 0)
(0.639829 0.00857742 0)
(0.948908 0.0254383 0)
(1.10457 0.0369518 0)
(1.14334 0.0393682 0)
(1.13166 0.0364734 0)
(1.1115 0.0322121 0)
(1.09537 0.0280654 0)
(1.08332 0.0241603 0)
(1.07376 0.0203962 0)
(1.06578 0.0167296 0)
(1.0589 0.0131554 0)
(1.05286 0.00967981 0)
(1.04743 0.00631418 0)
(1.04245 0.00307367 0)
(1.03779 -2.39262e-05 0)
(1.03333 -0.00295753 0)
(1.02899 -0.00570109 0)
(1.02469 -0.00822235 0)
(1.02036 -0.0104839 0)
(1.01595 -0.0124435 0)
(1.01145 -0.0140574 0)
(1.00693 -0.0152496 0)
(1.00299 -0.015991 0)
(0.999918 -0.0163132 0)
(0.997595 -0.0163456 0)
(0.99581 -0.016174 0)
(0.994343 -0.0159005 0)
(0.993009 -0.0157095 0)
(0.219906 -0.000125146 0)
(0.622534 0.00716517 0)
(0.929697 0.0218435 0)
(1.09433 0.0328832 0)
(1.14304 0.0359041 0)
(1.13642 0.0335792 0)
(1.11741 0.0295403 0)
(1.10111 0.0254348 0)
(1.08881 0.0215182 0)
(1.0791 0.0177167 0)
(1.071 0.0139817 0)
(1.06401 0.0103022 0)
(1.05784 0.00668185 0)
(1.05227 0.00313056 0)
(1.04712 -0.000338051 0)
(1.04226 -0.00370683 0)
(1.03757 -0.00695288 0)
(1.03295 -0.0100464 0)
(1.02831 -0.0129505 0)
(1.02358 -0.0156227 0)
(1.01871 -0.0180156 0)
(1.01367 -0.020082 0)
(1.00858 -0.0217443 0)
(1.00409 -0.022959 0)
(1.00054 -0.0237171 0)
(0.997727 -0.024128 0)
(0.995426 -0.0242579 0)
(0.993412 -0.0242005 0)
(0.991538 -0.0241394 0)
(0.215703 -7.42325e-05 0)
(0.608802 0.00614553 0)
(0.913628 0.01905 0)
(1.08502 0.0295143 0)
(1.14219 0.0328984 0)
(1.14039 0.0310161 0)
(1.12275 0.0271609 0)
(1.10645 0.0230709 0)
(1.09398 0.0191128 0)
(1.08416 0.015243 0)
(1.076 0.0114094 0)
(1.06897 0.00759483 0)
(1.06274 0.00379824 0)
(1.05709 2.57565e-05 0)
(1.05185 -0.00371271 0)
(1.04688 -0.00740181 0)
(1.04203 -0.0110187 0)
(1.03721 -0.0145325 0)
(1.03231 -0.0179041 0)
(1.02726 -0.0210851 0)
(1.02198 -0.0240206 0)
(1.01648 -0.026656 0)
(1.01088 -0.0289077 0)
(1.00595 -0.030723 0)
(1.00202 -0.0320751 0)
(0.998826 -0.0330755 0)
(0.996045 -0.0337602 0)
(0.9934 -0.0341668 0)
(0.990784 -0.0344128 0)
(0.212617 -4.46303e-05 0)
(0.598726 0.00544841 0)
(0.901356 0.0170385 0)
(1.07745 0.02697 0)
(1.14115 0.0305553 0)
(1.14342 0.0289919 0)
(1.12712 0.0252736 0)
(1.11095 0.0211846 0)
(1.09838 0.017178 0)
(1.08851 0.0132361 0)
(1.08034 0.00930319 0)
(1.0733 0.00535498 0)
(1.06708 0.00138509 0)
(1.06143 -0.00260545 0)
(1.05617 -0.0066114 0)
(1.05116 -0.0106214 0)
(1.04625 -0.0146159 0)
(1.04132 -0.0185673 0)
(1.03627 -0.0224376 0)
(1.031 -0.0261761 0)
(1.02543 -0.02972 0)
(1.01956 -0.0330015 0)
(1.01356 -0.0359103 0)
(1.00832 -0.0383538 0)
(1.00421 -0.0403037 0)
(1.00092 -0.0419541 0)
(0.998 -0.0434226 0)
(0.995065 -0.0447332 0)
(0.991976 -0.045736 0)
(0.210234 -1.15752e-07 0)
(0.59101 0.00497203 0)
(0.891684 0.0155746 0)
(1.07116 0.0250368 0)
(1.14003 0.0287304 0)
(1.14577 0.027405 0)
(1.13074 0.0237999 0)
(1.11474 0.0197166 0)
(1.10212 0.0156724 0)
(1.09222 0.0116703 0)
(1.08406 0.00765133 0)
(1.07706 0.00358566 0)
(1.07087 -0.000538436 0)
(1.06526 -0.00472563 0)
(1.06004 -0.00897593 0)
(1.05504 -0.0132836 0)
(1.05013 -0.0176358 0)
(1.04518 -0.0220119 0)
(1.04007 -0.0263799 0)
(1.03467 -0.0306923 0)
(1.02892 -0.0348838 0)
(1.02279 -0.0388766 0)
(1.01646 -0.0425192 0)
(1.01092 -0.0455993 0)
(1.00666 -0.0480015 0)
(1.00343 -0.0499864 0)
(1.00087 -0.0519143 0)
(0.998648 -0.05417 0)
(0.9962 -0.0561993 0)
(0.208715 -9.71597e-06 0)
(0.585703 0.00460085 0)
(0.884802 0.0145281 0)
(1.06659 0.0236624 0)
(1.13924 0.027413 0)
(1.14761 0.0262164 0)
(1.13361 0.0226594 0)
(1.11781 0.0185706 0)
(1.10518 0.0145015 0)
(1.0953 0.0104557 0)
(1.08718 0.00636733 0)
(1.08024 0.00220237 0)
(1.07412 -0.00205452 0)
(1.06858 -0.00641303 0)
(1.06343 -0.010879 0)
(1.0585 -0.0154541 0)
(1.05366 -0.0201346 0)
(1.04876 -0.0249098 0)
(1.04367 -0.029758 0)
(1.03829 -0.0346421 0)
(1.0325 -0.039506 0)
(1.02629 -0.0442836 0)
(1.01986 -0.0488142 0)
(1.01421 -0.0527345 0)
(1.00987 -0.055705 0)
(1.00666 -0.0577634 0)
(1.00434 -0.0589349 0)
(1.00291 -0.0599076 0)
(1.00321 -0.0646219 0)
(1.00002 0.000645422 0)
(1.00002 0.000644452 0)
(1.00001 0.000638828 0)
(1.00001 0.000634235 1.01341e-21)
(1.00001 0.000631703 5.05605e-21)
(1.00001 0.00063106 -9.09922e-21)
(1.00001 0.000632142 5.0542e-21)
(1.00001 0.000634835 -4.02901e-21)
(1.00001 0.000638993 5.13713e-22)
(1 0.000644626 4.02829e-21)
(1 0.000651571 0)
(1 0.000659814 -4.50802e-21)
(1 0.000669239 5.10944e-22)
(0.999999 0.000679725 4.00373e-21)
(0.999997 0.000691249 0)
(0.999996 0.000703651 0)
(0.999995 0.00071689 -3.97152e-21)
(0.999994 0.000730833 3.97402e-21)
(0.999993 0.000745326 0)
(0.999991 0.000760364 -1.9731e-21)
(0.99999 0.00077577 2.09719e-21)
(0.999989 0.00079143 1.84074e-21)
(0.999989 0.000807291 -2.94361e-21)
(0.999988 0.00082318 9.48975e-22)
(0.999987 0.000839003 3.0438e-23)
(0.999986 0.00085469 -6.08443e-23)
(0.999986 0.000870071 8.47044e-22)
(0.999985 0.000885098 -9.68198e-22)
(0.999985 0.000899644 0)
(0.999985 0.000913497 0)
(0.999985 0.000926695 -2.39246e-22)
(0.999985 0.000939192 -2.38357e-22)
(0.999985 0.000950863 -4.02975e-21)
(0.999985 0.000961687 3.3165e-21)
(0.999985 0.000971543 -4.2336e-21)
(0.999985 0.000980393 4.22842e-21)
(0.999986 0.000988203 -3.26426e-21)
(0.999986 0.000994859 3.26269e-21)
(0.999987 0.00100037 4.6329e-22)
(0.999988 0.00100462 4.61284e-22)
(0.999989 0.00100761 -4.59243e-22)
(0.99999 0.0010093 0)
(0.999991 0.0010096 0)
(0.999992 0.00100855 0)
(0.999994 0.00100606 0)
(0.999995 0.00100229 0)
(0.999997 0.000997157 1.7847e-21)
(0.999998 0.000989829 -1.78179e-21)
(1 0.000976358 0)
(1.00011 0.00120024 0)
(1.00009 0.00119595 2.04356e-21)
(1.00008 0.00118908 -2.03755e-21)
(1.00006 0.00118625 -1.01722e-21)
(1.00005 0.00118858 -1.01756e-21)
(1.00003 0.00119549 -3.04411e-21)
(1.00002 0.00120671 5.08159e-21)
(1 0.0012222 0)
(0.99999 0.00124145 -5.06084e-22)
(0.999977 0.00126459 -1.01142e-21)
(0.999965 0.00129117 0)
(0.999954 0.00132106 5.03773e-22)
(0.999943 0.0013541 -4.52183e-21)
(0.999933 0.00138984 4.02247e-21)
(0.999923 0.00142828 0)
(0.999914 0.00146901 1.00142e-21)
(0.999905 0.00151181 0)
(0.999898 0.00155654 0)
(0.999891 0.00160271 0)
(0.999885 0.00165023 -1.98179e-21)
(0.999879 0.00169883 1.85883e-21)
(0.999875 0.00174812 -1.23671e-22)
(0.999871 0.00179795 0)
(0.999868 0.00184802 -4.5976e-22)
(0.999865 0.00189802 4.8285e-22)
(0.999864 0.00194774 9.161e-23)
(0.999863 0.00199691 1.21697e-22)
(0.999864 0.00204523 0)
(0.999865 0.00209251 -1.93239e-21)
(0.999867 0.00213846 1.93195e-21)
(0.999869 0.00218285 -3.59829e-21)
(0.999872 0.00222545 7.90141e-21)
(0.999877 0.00226602 -3.58467e-21)
(0.999881 0.00230436 4.75236e-22)
(0.999887 0.00234019 4.73442e-22)
(0.999893 0.00237338 4.72102e-22)
(0.9999 0.00240369 -4.69659e-22)
(0.999908 0.0024309 4.20413e-21)
(0.999917 0.00245492 -3.26651e-21)
(0.999926 0.00247541 -1.39165e-21)
(0.999936 0.00249233 5.07365e-21)
(0.999946 0.00250548 -3.68378e-21)
(0.999958 0.00251459 -1.83073e-21)
(0.99997 0.00251971 3.63815e-21)
(0.999982 0.0025204 -7.25525e-21)
(0.999995 0.00251688 3.61611e-21)
(1.00001 0.00250891 1.79363e-21)
(1.00002 0.00249575 -3.40856e-24)
(1.00004 0.00247264 0)
(1.00021 0.00174862 3.07359e-21)
(1.00017 0.00174343 -1.02623e-21)
(1.00013 0.00174127 -4.09042e-21)
(1.00009 0.00174595 2.04017e-21)
(1.00005 0.00175864 -2.04017e-21)
(1.00001 0.00177854 0)
(0.999967 0.00180533 -2.03185e-21)
(0.99993 0.00183914 -6.08655e-21)
(0.999895 0.00187889 6.08856e-21)
(0.999861 0.00192498 1.01126e-21)
(0.999829 0.00197655 0)
(0.999799 0.00203337 -6.05054e-21)
(0.999771 0.00209537 9.93711e-24)
(0.999745 0.00216157 4.02619e-21)
(0.999721 0.00223214 0)
(0.999699 0.00230635 -1.00066e-21)
(0.999679 0.00238377 -1.00093e-21)
(0.999661 0.0024644 0)
(0.999645 0.00254721 -9.96567e-22)
(0.999631 0.00263211 -1.98301e-21)
(0.99962 0.0027188 1.98362e-21)
(0.99961 0.00280648 -2.47887e-22)
(0.999603 0.00289497 -2.4669e-22)
(0.999598 0.00298387 0)
(0.999596 0.00307254 3.8227e-23)
(0.999595 0.0031607 -2.13887e-22)
(0.999597 0.00324799 0)
(0.999601 0.00333381 0)
(0.999607 0.00341785 -1.93261e-21)
(0.999616 0.00349976 1.93224e-21)
(0.999626 0.00357903 -3.83861e-21)
(0.999639 0.00365532 3.83733e-21)
(0.999653 0.00372828 0)
(0.99967 0.00379748 0)
(0.999689 0.00386256 0)
(0.999709 0.00392325 -9.42805e-22)
(0.999732 0.0039791 -1.87979e-21)
(0.999756 0.00402978 0)
(0.999783 0.00407511 -9.31204e-22)
(0.999811 0.00411452 -9.20727e-22)
(0.999841 0.00414796 2.77669e-21)
(0.999873 0.00417497 0)
(0.999906 0.0041952 3.65447e-21)
(0.999941 0.00420865 -5.47118e-21)
(0.999978 0.00421456 0)
(1.00002 0.00421319 0)
(1.00006 0.00420392 0)
(1.0001 0.00418601 -1.7884e-21)
(1.00014 0.00415577 -1.7782e-21)
(1.00029 0.00229343 -2.05291e-21)
(1.00022 0.00229393 4.10907e-21)
(1.00014 0.00230416 4.10266e-21)
(1.00006 0.00232376 6.13648e-21)
(0.999976 0.00235417 -2.04987e-21)
(0.999898 0.00239453 -4.07637e-21)
(0.999824 0.00244446 8.152e-21)
(0.999754 0.00250434 -3.39197e-24)
(0.999686 0.00257234 -2.02955e-21)
(0.999623 0.0026493 2.03232e-21)
(0.999563 0.00273381 0)
(0.999507 0.00282558 2.01954e-21)
(0.999455 0.00292467 -2.00943e-21)
(0.999406 0.0030294 8.05985e-21)
(0.999362 0.00314026 -8.04385e-21)
(0.999322 0.00325609 6.0301e-21)
(0.999286 0.0033762 -1.00704e-21)
(0.999254 0.0035009 1.00124e-21)
(0.999226 0.00362839 9.95562e-22)
(0.999203 0.00375866 -9.96657e-22)
(0.999184 0.00389141 0)
(0.999169 0.00402531 -1.48221e-21)
(0.999159 0.00416022 1.23762e-21)
(0.999153 0.00429562 9.8559e-22)
(0.999152 0.00443048 4.59789e-23)
(0.999154 0.00456446 9.1513e-23)
(0.999162 0.00469713 1.46219e-21)
(0.999173 0.00482753 -9.73606e-22)
(0.999189 0.00495525 1.93445e-21)
(0.999208 0.00507989 -1.93414e-21)
(0.999233 0.0052006 0)
(0.999261 0.00531697 4.78724e-21)
(0.999293 0.00542853 -3.82608e-21)
(0.999329 0.00553458 3.79783e-21)
(0.999369 0.00563473 -3.79643e-21)
(0.999413 0.00572854 0)
(0.99946 0.00581531 3.74885e-21)
(0.999512 0.00589472 -1.87673e-21)
(0.999567 0.00596639 0)
(0.999626 0.00602957 3.70525e-21)
(0.999688 0.00608422 -3.70015e-21)
(0.999754 0.00612961 1.83868e-21)
(0.999823 0.00616533 1.83002e-21)
(0.999895 0.00619134 5.46336e-21)
(0.999971 0.00620657 6.01454e-24)
(1.00005 0.00621139 3.61466e-21)
(1.00013 0.00620474 1.7922e-21)
(1.00022 0.00618586 1.78176e-21)
(1.00031 0.00615263 1.7792e-21)
(1.00031 0.00278228 0)
(1.00019 0.00279749 -4.11357e-21)
(1.00007 0.00283008 -4.10538e-21)
(0.999934 0.00287445 0)
(0.999805 0.00293253 -4.09708e-21)
(0.999679 0.00300336 8.62154e-24)
(0.999559 0.00308652 8.19571e-21)
(0.999444 0.00318277 -2.05231e-21)
(0.999336 0.00328935 -8.90409e-24)
(0.999233 0.00340771 -6.10796e-21)
(0.999137 0.00353575 0)
(0.999047 0.00367314 -6.08862e-21)
(0.998963 0.00382017 2.03399e-21)
(0.998887 0.00397427 0)
(0.998817 0.00413637 -2.02309e-21)
(0.998753 0.00430479 9.51108e-24)
(0.998697 0.00447857 -2.00834e-21)
(0.998648 0.0046584 7.01799e-21)
(0.998606 0.00484153 -1.08576e-23)
(0.99857 0.00502813 -1.00788e-21)
(0.998543 0.00521789 -9.95135e-22)
(0.998522 0.00540885 1.98166e-21)
(0.998509 0.00560094 -1.98195e-21)
(0.998502 0.00579353 -2.4528e-22)
(0.998504 0.0059851 5.07918e-22)
(0.998512 0.00617531 -2.74456e-22)
(0.998527 0.00636365 9.77367e-22)
(0.99855 0.0065487 -9.75611e-22)
(0.99858 0.00673 9.72627e-22)
(0.998617 0.0069071 1.93096e-21)
(0.99866 0.00707874 -5.77758e-21)
(0.998711 0.00724449 -9.44907e-22)
(0.998768 0.00740373 5.74683e-21)
(0.998832 0.00755545 1.90726e-21)
(0.998902 0.00769927 -3.78664e-21)
(0.998979 0.00783456 3.78436e-21)
(0.999062 0.00796037 7.60746e-24)
(0.999151 0.00807638 5.61902e-21)
(0.999246 0.00818202 -3.74486e-21)
(0.999348 0.00827637 -9.28701e-21)
(0.999455 0.00835941 3.69583e-21)
(0.999568 0.00843015 1.83992e-21)
(0.999686 0.00848812 7.31308e-21)
(0.999811 0.00853327 -3.64772e-21)
(0.99994 0.00856424 -7.5103e-24)
(1.00008 0.00858156 -8.11697e-24)
(1.00022 0.0085837 0)
(1.00037 0.00857006 -3.57281e-21)
(1.00052 0.00854077 -3.54967e-21)
(1.00024 0.00313688 0)
(1.00007 0.00317792 -6.21559e-21)
(0.999881 0.00324487 6.20761e-21)
(0.999688 0.00332601 0)
(0.999497 0.00342395 0)
(0.999311 0.00353762 -4.11164e-21)
(0.999133 0.0036666 -2.72736e-24)
(0.998964 0.00381209 -4.11295e-21)
(0.998803 0.00397027 -8.52513e-24)
(0.998651 0.00414332 0)
(0.998509 0.00432836 0)
(0.998376 0.00452503 2.0339e-21)
(0.998253 0.00473387 0)
(0.998141 0.00495129 0)
(0.998038 0.00517876 -2.02744e-21)
(0.997946 0.00541398 4.06268e-21)
(0.997865 0.00565569 2.02532e-21)
(0.997794 0.00590505 0)
(0.997734 0.00615819 1.99628e-21)
(0.997685 0.00641547 -5.01755e-21)
(0.997647 0.00667665 -1.99852e-21)
(0.99762 0.00693896 -1.98929e-21)
(0.997603 0.00720247 1.98949e-21)
(0.997598 0.00746641 1.3708e-24)
(0.997604 0.00772871 1.54681e-23)
(0.997621 0.007989 2.45675e-22)
(0.997649 0.00824673 -4.91016e-22)
(0.997687 0.00849993 0)
(0.997736 0.0087481 -9.71235e-22)
(0.997796 0.00899071 0)
(0.997867 0.00922608 0)
(0.997947 0.00945372 -1.9281e-21)
(0.998038 0.00967288 -7.65746e-21)
(0.998139 0.00988218 2.1445e-23)
(0.99825 0.0100813 1.90393e-21)
(0.998371 0.0102693 0)
(0.998501 0.0104451 -1.88034e-21)
(0.998641 0.0106084 -3.75322e-21)
(0.998789 0.0107583 3.72675e-21)
(0.998947 0.0108937 7.4269e-21)
(0.999113 0.0110148 -7.39008e-21)
(0.999288 0.0111202 3.19313e-24)
(0.999471 0.0112094 -3.65835e-21)
(0.999662 0.0112824 4.73761e-25)
(0.999862 0.0113374 0)
(1.00007 0.0113754 -3.60381e-21)
(1.00029 0.0113941 -1.78822e-21)
(1.00052 0.0113933 1.78689e-21)
(1.00076 0.0113765 3.55044e-21)
(1.00003 0.00325839 0)
(0.999798 0.00333863 4.15345e-21)
(0.999538 0.00345394 -1.24795e-20)
(0.999271 0.00358594 0)
(0.999005 0.00373824 0)
(0.998745 0.00390962 -8.29291e-21)
(0.998496 0.00409966 8.26527e-21)
(0.998258 0.00431009 -4.14413e-21)
(0.998032 0.00453582 -8.6932e-24)
(0.99782 0.00477998 4.12081e-21)
(0.997621 0.0050387 0)
(0.997435 0.00531164 0)
(0.997264 0.00559964 4.11125e-21)
(0.997107 0.00589787 0)
(0.996965 0.00620852 0)
(0.996837 0.00652851 -4.07103e-21)
(0.996725 0.00685624 1.50796e-23)
(0.996628 0.00719343 0)
(0.996547 0.00753488 2.01317e-21)
(0.996481 0.00788125 5.03783e-21)
(0.996431 0.00823229 -2.01866e-21)
(0.996396 0.00858434 0)
(0.996378 0.00893763 -9.96536e-22)
(0.996375 0.00929121 1.24517e-21)
(0.996388 0.0096424 -5.43143e-22)
(0.996417 0.00999076 -2.47875e-22)
(0.996461 0.0103357 4.88748e-22)
(0.996521 0.0106746 -9.82487e-22)
(0.996596 0.0110069 0)
(0.996687 0.0113321 -3.89391e-21)
(0.996793 0.0116478 5.8091e-21)
(0.996914 0.0119537 1.9096e-21)
(0.997049 0.0122487 -7.0328e-24)
(0.997198 0.012531 1.90772e-21)
(0.997362 0.0128004 -1.91527e-21)
(0.99754 0.0130559 -3.78107e-21)
(0.997731 0.0132958 7.54146e-21)
(0.997935 0.0135198 -3.75805e-21)
(0.998152 0.0137271 7.4802e-21)
(0.998381 0.0139162 7.31231e-24)
(0.998623 0.0140874 7.39313e-21)
(0.998877 0.0142389 -3.67457e-21)
(0.999142 0.0143703 0)
(0.999419 0.0144817 8.5775e-25)
(0.999707 0.0145709 7.23835e-21)
(1.00001 0.014639 0)
(1.00032 0.0146833 0)
(1.00065 0.014704 6.22642e-21)
(1.00099 0.0147096 8.87172e-22)
(0.999638 0.0030308 1.04864e-21)
(0.99933 0.00316577 7.36753e-21)
(0.998985 0.00334497 8.34414e-21)
(0.998628 0.00354367 -8.39949e-21)
(0.998271 0.00376697 0)
(0.997922 0.00401329 -1.12713e-23)
(0.997586 0.00428224 -4.20149e-21)
(0.997265 0.00457615 -4.19079e-21)
(0.99696 0.00488845 1.2489e-20)
(0.996672 0.00522341 -4.15251e-21)
(0.996403 0.00557598 0)
(0.996153 0.00594587 8.28668e-21)
(0.995922 0.00633421 -8.24019e-21)
(0.99571 0.0067348 2.45847e-23)
(0.995519 0.00715063 8.21851e-21)
(0.995348 0.00757768 -2.06326e-21)
(0.995198 0.00801402 -2.01184e-21)
(0.995069 0.00846192 4.08431e-21)
(0.994961 0.0089147 0)
(0.994875 0.00937338 -2.02027e-21)
(0.99481 0.00983759 2.02266e-21)
(0.994768 0.0103027 2.01227e-21)
(0.994747 0.0107692 -2.01222e-21)
(0.994748 0.0112357 2.51327e-22)
(0.994771 0.011699 3.10531e-23)
(0.994816 0.0121585 7.43327e-22)
(0.994883 0.0126134 -2.61286e-24)
(0.994971 0.0130606 0)
(0.995081 0.0134993 0)
(0.995211 0.0139288 -1.66601e-24)
(0.995363 0.0143463 -1.93304e-21)
(0.995535 0.0147512 3.88203e-21)
(0.995727 0.0151424 -3.85654e-21)
(0.995939 0.0155176 3.82734e-21)
(0.996171 0.0158765 -7.65519e-21)
(0.996421 0.0162178 1.78273e-23)
(0.99669 0.0165396 3.78749e-21)
(0.996976 0.0168415 3.75073e-21)
(0.99728 0.0171224 -7.49612e-21)
(0.997601 0.0173808 -7.44397e-21)
(0.997938 0.0176168 -3.70842e-21)
(0.998291 0.0178285 -3.68635e-21)
(0.998659 0.0180154 0)
(0.999042 0.0181776 -3.63445e-21)
(0.99944 0.0183126 -1.34393e-24)
(0.999853 0.0184218 7.18512e-21)
(1.00028 0.0185018 -8.92242e-21)
(1.00073 0.0185535 1.76788e-21)
(1.00121 0.018592 0)
(0.999017 0.00232053 0)
(0.998616 0.00252763 -8.43028e-21)
(0.998168 0.00278664 0)
(0.997703 0.00306888 8.40981e-21)
(0.997236 0.00338162 4.21301e-21)
(0.996779 0.00372255 -8.42165e-21)
(0.996336 0.0040911 1.259e-20)
(0.995912 0.00449018 4.18103e-21)
(0.99551 0.00491157 -4.17723e-21)
(0.99513 0.00536079 0)
(0.994774 0.00583142 4.17736e-21)
(0.994443 0.00632324 -8.33359e-21)
(0.994138 0.00683764 4.18761e-21)
(0.993858 0.00736687 -4.13755e-21)
(0.993606 0.00791484 2.81972e-23)
(0.993381 0.00847647 4.14202e-21)
(0.993184 0.00904937 -8.25789e-21)
(0.993014 0.00963641 0)
(0.992874 0.0102293 4.09697e-21)
(0.992763 0.0108294 -4.09694e-21)
(0.99268 0.0114362 -1.01452e-21)
(0.992628 0.0120439 0)
(0.992605 0.0126531 1.01747e-21)
(0.992611 0.0132622 2.52232e-22)
(0.992647 0.0138672 -5.34704e-22)
(0.992713 0.0144672 7.50434e-22)
(0.992808 0.0150613 4.94945e-22)
(0.992933 0.0156457 -9.93785e-22)
(0.993087 0.0162192 0)
(0.993269 0.016781 -1.96078e-21)
(0.993479 0.0173277 3.92333e-21)
(0.993717 0.0178584 0)
(0.993983 0.0183718 1.93041e-21)
(0.994275 0.0188649 0)
(0.994592 0.0193374 3.82199e-21)
(0.994935 0.0197878 -7.62178e-21)
(0.995302 0.0202137 3.7782e-21)
(0.995693 0.0206146 -2.02006e-23)
(0.996107 0.0209892 3.71839e-21)
(0.996543 0.0213357 -3.73432e-21)
(0.996999 0.0216544 3.69745e-21)
(0.997476 0.0219428 7.36304e-21)
(0.997972 0.0222005 0)
(0.998488 0.0224277 0)
(0.999022 0.0226215 -7.22537e-21)
(0.999575 0.0227837 -1.43523e-20)
(1.00015 0.02291 1.42604e-20)
(1.00075 0.0230025 -7.97839e-21)
(1.00138 0.023085 7.9146e-21)
(0.998116 0.000974488 0)
(0.997613 0.00127199 8.58506e-21)
(0.997039 0.00162515 8.57043e-21)
(0.996441 0.00200835 1.28381e-20)
(0.995838 0.00243091 -1.28274e-20)
(0.995246 0.00288822 -4.25424e-21)
(0.994672 0.00337958 1.28111e-20)
(0.994121 0.00390857 -4.24271e-21)
(0.993597 0.00446516 4.24521e-21)
(0.993101 0.00505619 0)
(0.992637 0.00567361 8.50692e-21)
(0.992205 0.0063173 0)
(0.991805 0.0069888 -4.18744e-21)
(0.99144 0.0076787 -4.22952e-21)
(0.99111 0.00839187 4.97313e-23)
(0.990815 0.009122 0)
(0.990558 0.00986624 4.18041e-21)
(0.990338 0.0106279 8.34694e-21)
(0.990155 0.0113971 0)
(0.990011 0.0121754 2.06246e-21)
(0.989906 0.0129619 -2.06181e-21)
(0.98984 0.0137499 -2.04724e-21)
(0.989813 0.0145397 2.0583e-21)
(0.989826 0.0153294 -4.03928e-24)
(0.989879 0.0161141 -5.07646e-22)
(0.989972 0.0168926 -2.23298e-22)
(0.990103 0.0176635 -5.03093e-22)
(0.990274 0.0184224 1.00444e-21)
(0.990484 0.0191675 0)
(0.990732 0.0198976 1.97348e-21)
(0.991018 0.0206088 -3.93263e-21)
(0.991341 0.0212995 0)
(0.991699 0.0219683 0)
(0.992093 0.0226115 3.85874e-21)
(0.992521 0.0232282 -7.69621e-21)
(0.992982 0.0238171 3.83593e-21)
(0.993476 0.0243748 3.81148e-21)
(0.993999 0.0249008 0)
(0.994552 0.0253938 1.12628e-20)
(0.995133 0.0258511 -7.45995e-21)
(0.99574 0.0262735 -3.70452e-21)
(0.996374 0.026658 1.48641e-23)
(0.997031 0.0270041 -7.31941e-21)
(0.997712 0.0273121 -7.26141e-21)
(0.998415 0.0275788 -7.21454e-21)
(0.999142 0.0278064 6.8121e-24)
(0.999894 0.0279897 -1.22609e-23)
(1.00068 0.028132 0)
(1.0015 0.0282687 -1.40309e-20)
(0.996929 -0.00114962 0)
(0.996259 -0.00072904 2.24369e-21)
(0.995522 -0.000328134 -1.07447e-20)
(0.994761 0.000168276 -8.5904e-21)
(0.994002 0.000725018 8.57965e-21)
(0.993245 0.001325 4.36159e-21)
(0.992507 0.00196702 -4.25806e-21)
(0.991797 0.00265601 0)
(0.991119 0.00337945 0)
(0.990478 0.00414549 8.63296e-21)
(0.989875 0.00494435 -8.51194e-21)
(0.989313 0.00577613 4.27137e-21)
(0.988793 0.00664239 -4.26789e-21)
(0.988317 0.00753217 4.26454e-21)
(0.987886 0.00845127 4.27116e-21)
(0.987501 0.00939204 -4.23879e-21)
(0.987165 0.0103511 -4.19632e-21)
(0.986877 0.011332 -4.18168e-21)
(0.986638 0.0123232 4.1883e-21)
(0.98645 0.0133266 -4.18729e-21)
(0.986313 0.0143405 0)
(0.986228 0.0153572 2.08876e-21)
(0.986196 0.0163767 -2.05721e-21)
(0.986216 0.0173962 1.54136e-21)
(0.986288 0.0184102 0)
(0.986414 0.0194166 1.01907e-21)
(0.986592 0.0204134 0)
(0.986821 0.0213955 -1.00287e-21)
(0.987104 0.0223603 1.7374e-23)
(0.987436 0.0233059 1.07359e-23)
(0.987819 0.0242275 3.98154e-21)
(0.988251 0.0251229 0)
(0.98873 0.0259901 0)
(0.989256 0.0268245 0)
(0.989826 0.0276247 0)