/*--------------------------------*- C++ -*----------------------------------*\
| =========                 |                                                 |
| \\      /  F ield         | OpenFOAM: The Open Source CFD Toolbox           |
|  \\    /   O peration     | Version:  2312                                  |
|   \\  /    A nd           | Website:  www.openfoam.com                      |
|    \\/     M anipulation  |                                                 |
\*---------------------------------------------------------------------------*/
FoamFile
{
    version     2.0;
    format      ascii;
    arch        "LSB;label=32;scalar=64";
    class       surfaceScalarField;
    location    "38.612614224822515";
    object      phi;
}
// * * * * * * * * * * * * * * * * * * * * * * * * * * * * * * * * * * * * * //

dimensions      [0 3 -1 0 0 0 0];

oriented        oriented;

internalField   nonuniform List<scalar> 
41713
(
0.0073608
0.0568856
0.0036277
0.0679795
0.00211626
0.0657579
0.00148305
0.0648796
0.00109686
0.0646326
0.000842385
0.0645009
0.000666909
0.0644219
0.000539503
0.0643738
0.000443556
0.0643424
0.000369411
0.0643206
0.000310942
0.0643049
0.000264093
0.0642933
0.000226101
0.0642844
0.000195027
0.0642775
0.000169477
0.064272
0.000148432
0.0642675
0.00013113
0.0642637
0.000116988
0.0642606
0.000105551
0.0642579
9.64393e-05
0.0642555
8.92953e-05
0.0642536
8.37585e-05
0.064252
7.95508e-05
0.0642506
7.64883e-05
0.0548142
7.38966e-05
0.0456786
7.15342e-05
0.0380657
6.93883e-05
0.0317216
6.7468e-05
0.0264348
0.0220291
6.57326e-05
0.00999218
0.0468935
0.00842347
0.0695482
0.00571128
0.0684701
0.00411716
0.0664738
0.00311567
0.0656341
0.0024233
0.0651933
0.00192433
0.0649209
0.00155331
0.0647449
0.00126994
0.0646258
0.00104843
0.0645421
0.000871836
0.0644815
0.000728782
0.0644363
0.000611427
0.0644018
0.000514235
0.0643747
0.000433225
0.064353
0.000365484
0.0643352
0.000308848
0.0643204
0.000261685
0.0643077
0.000222744
0.0642968
0.000191042
0.0642873
0.00016578
0.0642788
0.000146263
0.0642715
0.000131786
0.0642651
0.000122532
0.0548235
0.000116429
0.0456847
0.000112071
0.03807
0.000108633
0.031725
0.000105695
0.0264377
0.0220316
0.00010322
0.00859218
0.0383013
0.00970016
0.0684403
0.00746092
0.0707093
0.00569095
0.0682437
0.00450099
0.0668241
0.00361374
0.0660805
0.0029291
0.0656055
0.00239546
0.0652785
0.00197415
0.0650471
0.00163662
0.0648796
0.00136243
0.0647557
0.00113697
0.0646618
0.000949688
0.0645891
0.000792904
0.0645315
0.000660961
0.0644849
0.000549656
0.0644465
0.000455838
0.0644142
0.000377123
0.0643865
0.000311685
0.0643623
0.000258111
0.0643408
0.000215284
0.0643217
0.000182282
0.0643045
0.000158176
0.0642892
0.000143421
0.0548382
0.000134366
0.0456937
0.00012843
0.038076
0.000124077
0.0317294
0.000120525
0.0264413
0.0220345
0.000117606
0.00677023
0.031531
0.00946356
0.0657469
0.00810614
0.0720667
0.00642481
0.0699251
0.00523156
0.0680173
0.00432327
0.0669888
0.0035887
0.0663401
0.00298849
0.0658787
0.00249549
0.0655401
0.00208768
0.0652874
0.00174778
0.0650956
0.00146244
0.0649471
0.00122135
0.0648302
0.00101664
0.0647362
0.000842297
0.0646593
0.000693725
0.0645951
0.000567407
0.0645405
0.00046065
0.0644932
0.000371383
0.0644515
0.000298005
0.0644142
0.000239262
0.0643804
0.00019413
0.0643496
0.000161502
0.0643219
0.000142002
0.0548577
0.00013049
0.0457052
0.000123305
0.0380832
0.000118308
0.0317344
0.000114456
0.0264451
0.0220375
0.000111465
0.00505992
0.0264711
0.00855548
0.0622514
0.00816217
0.07246
0.0067159
0.0713713
0.00555771
0.0691755
0.00467796
0.0678686
0.00395551
0.0670626
0.00334664
0.0664876
0.00283041
0.0660563
0.0023909
0.065727
0.00201516
0.0654713
0.0016927
0.0652696
0.00141508
0.0651078
0.00117554
0.0649757
0.000968743
0.0648661
0.000790467
0.0647734
0.000637423
0.0646936
0.000507052
0.0646236
0.000397376
0.0645612
0.000306866
0.0645047
0.000234329
0.0644529
0.000178773
0.0644052
0.000139015
0.0643616
0.000115851
0.0548809
0.000102738
0.0457184
9.50296e-05
0.0380909
9.00607e-05
0.0317393
8.65596e-05
0.0264486
0.02204
8.41081e-05
0.00361296
0.0228582
0.00729542
0.0585689
0.00776002
0.0719954
0.0066974
0.0724339
0.00563304
0.0702399
0.00480296
0.0686986
0.0041164
0.0677491
0.00352525
0.0670787
0.00301166
0.0665699
0.0025641
0.0661745
0.00217307
0.0658623
0.00183075
0.0656119
0.0015307
0.0654078
0.00126769
0.0652387
0.00103746
0.0650963
0.000836612
0.0649742
0.000662443
0.0648677
0.000512847
0.0647732
0.000386204
0.0646878
0.000281284
0.0646096
0.000197144
0.0645371
0.000132984
0.0644693
8.76303e-05
0.064407
6.21648e-05
0.0549064
4.8544e-05
0.045732
4.12509e-05
0.0380982
3.7105e-05
0.0317435
3.45911e-05
0.0264511
0.0220413
3.32718e-05
0.00251759
0.0203406
0.006003
0.0550835
0.00707353
0.0709249
0.00643901
0.0730685
0.00552308
0.0711558
0.00476246
0.0694593
0.00412656
0.068385
0.00356852
0.0676368
0.00307251
0.0670659
0.00263091
0.0666161
0.00223745
0.0662558
0.00188672
0.0659627
0.00157422
0.0657203
0.0012962
0.0655168
0.00104958
0.0653429
0.000831913
0.0651919
0.000641253
0.0650584
0.000476126
0.0649383
0.000335447
0.0648285
0.000218453
0.0647266
0.000124634
0.0646309
5.3585e-05
0.0645404
4.49696e-06
0.0644561
-2.25051e-05
0.0549334
-3.58463e-05
0.0457453
-4.19645e-05
0.0381043
-4.45258e-05
0.031746
-4.53095e-05
0.0264519
0.022041
-4.50224e-05
0.00175372
0.0185869
0.00487378
0.0519634
0.00629724
0.0695015
0.00604369
0.073322
0.00529435
0.0719052
0.00460845
0.0701452
0.00402667
0.0689668
0.00350875
0.0681547
0.00303873
0.0675359
0.00261152
0.0670433
0.00222363
0.0666437
0.00187188
0.0663144
0.00155355
0.0660387
0.00126629
0.065804
0.00100821
0.065601
0.000777806
0.0654223
0.000573971
0.0652622
0.000395938
0.0651163
0.000243257
0.0649812
0.000115747
0.0648541
1.33942e-05
0.0647333
-6.3858e-05
0.0646176
-0.000116591
0.0645088
-0.000143748
0.0549605
-0.000155641
0.0457572
-0.000159471
0.0381081
-0.000159311
0.0317459
-0.000157166
0.0264498
0.0220377
-0.000153867
0.00124356
0.0173433
0.00395579
0.0492512
0.00554523
0.067912
0.00559555
0.0732717
0.00500792
0.0724928
0.00439148
0.0707616
0.00385684
0.0695014
0.00337681
0.0686347
0.00293421
0.0679785
0.00252457
0.067453
0.00214612
0.0670222
0.00179737
0.0666631
0.001477
0.066359
0.00118394
0.0660971
0.000917337
0.0658676
0.00067661
0.065663
0.000461462
0.0654774
0.000271873
0.0653059
0.000108076
0.065145
-2.95036e-05
0.0649917
-0.000140293
0.064844
-0.00022361
0.064701
-0.000279421
0.0645646
-0.000306804
0.0549879
-0.000316977
0.0457674
-0.000317974
0.0381091
-0.000314412
0.0317423
-0.000308637
0.026444
0.0220308
-0.000301711
0.000910037
0.0164333
0.00322972
0.0469315
0.00486048
0.0662813
0.00513837
0.0729938
0.00469918
0.072932
0.004146
0.0713148
0.00364889
0.0699985
0.00319964
0.069084
0.00278094
0.0683972
0.00238774
0.0678461
0.00201899
0.0673909
0.00167421
0.0670079
0.0013531
0.0666801
0.0010555
0.0663947
0.000781419
0.0661417
0.000531095
0.0659133
0.00030498
0.0657035
0.000103752
0.0655072
-7.17235e-05
0.0653205
-0.000220332
0.0651403
-0.000340672
0.0649644
-0.000431312
0.0647916
-0.000491592
0.0646249
-0.000520045
0.0550164
-0.000528924
0.0457763
-0.000527123
0.0381073
-0.000519844
0.031735
-0.000509858
0.026434
0.0220195
-0.000498586
0.0006934
0.0157399
0.00266197
0.044963
0.00425506
0.0646882
0.00469296
0.0725559
0.00438448
0.0732405
0.00388961
0.0718097
0.00342213
0.070466
0.00299602
0.0695101
0.00259588
0.0687973
0.00221575
0.0682263
0.00185463
0.067752
0.0015126
0.06735
0.00118997
0.0670028
0.000887219
0.0666974
0.00060501
0.0664239
0.000344221
0.0661741
0.000105922
0.0659418
-0.000108635
0.0657217
-0.000297912
0.0655097
-0.000459985
0.0653024
-0.000592636
0.065097
-0.000693626
0.0648926
-0.000761459
0.0646927
-0.000793502
0.0550484
-0.000802866
0.0457856
-0.000799343
0.0381038
-0.000788827
0.0317245
-0.000774655
0.0264198
0.0220036
-0.000758743
0.000550061
0.0151898
0.00221819
0.0432948
0.00372806
0.0631783
0.00427056
0.0720134
0.00407276
0.0734383
0.00363139
0.072251
0.00318759
0.0709098
0.00277787
0.0699198
0.00239079
0.0691844
0.00201959
0.0685975
0.00166297
0.0681087
0.00132118
0.0676917
0.000994884
0.0673291
0.000684965
0.0670074
0.000392544
0.0667163
0.000118948
0.0664477
-0.000134326
0.0661951
-0.000365464
0.0659529
-0.000572208
0.0657165
-0.000751883
0.0654821
-0.0009015
0.0652467
-0.00101798
0.0650091
-0.00109891
0.0647736
-0.00113937
0.0550889
-0.00115303
0.0457993
-0.00115054
0.0381013
-0.00113856
0.0317125
-0.0011212
0.0264025
0.0219835
-0.00110109
0.000450768
0.014739
0.00186799
0.0418776
0.00327205
0.0617742
0.00387666
0.0714088
0.00376976
0.0735452
0.00337693
0.0726439
0.00295234
0.0713344
0.00255334
0.0703188
0.00217414
0.0695636
0.00180762
0.068964
0.00145192
0.0684644
0.0011072
0.0680365
0.000774262
0.067662
0.000454187
0.0673274
0.000148344
0.0670222
-0.000141719
0.0667378
-0.000414117
0.0664675
-0.000666467
0.0662052
-0.000895899
0.0659459
-0.00109911
0.0656853
-0.00127242
0.06542
-0.001412
0.0651486
-0.00151462
0.0648763
-0.00157159
0.0551458
-0.0015965
0.0458242
-0.00160052
0.0381053
-0.0015911
0.0317031
-0.00157325
0.0263846
0.0219608
-0.00155062
0.000377793
0.0143612
0.00158743
0.040668
0.00287738
0.0604843
0.00351283
0.0707733
0.00347889
0.0735791
0.00312983
0.0729929
0.00272129
0.071743
0.00232856
0.0707115
0.0019527
0.0699395
0.0015868
0.0693299
0.00122837
0.0688228
0.000877274
0.0683875
0.000534211
0.0680051
0.000200304
0.0676613
-0.000123132
0.0673456
-0.000434392
0.0670491
-0.000731223
0.0667643
-0.0010108
0.0664848
-0.00126978
0.0662049
-0.00150431
0.0659198
-0.00171016
0.0656258
-0.001883
0.0653215
-0.00201928
0.0650125
-0.00210492
0.0552315
-0.00215252
0.0458718
-0.00217296
0.0381258
-0.00217393
0.0317041
-0.00216142
0.0263721
0.0219399
-0.00214047
0.000321104
0.0140401
0.00136069
0.0396284
0.00253764
0.0593073
0.00318066
0.0701303
0.00320271
0.073557
0.00289213
0.0733035
0.00249736
0.0721377
0.00210771
0.0711012
0.00173149
0.0703157
0.00136267
0.0696987
0.000998121
0.0691873
0.000637262
0.0687484
0.000280529
0.0683618
-7.12375e-05
0.0680131
-0.000416815
0.0676912
-0.00075443
0.0673867
-0.0010816
0.0670915
-0.00139522
0.0667984
-0.00169157
0.0665012
-0.00196631
0.0661946
-0.00221475
0.0658743
-0.00243253
0.0655393
-0.00261696
0.065197
-0.00274799
0.0553625
-0.00283674
0.0459605
-0.00289218
0.0381812
-0.00291998
0.0317319
-0.0029254
0.0263775
0.0219292
-0.00291468
0.000236507
0.0138036
0.00100188
0.038863
0.00191015
0.0583991
0.00244694
0.0695935
0.00249906
0.0735049
0.00226357
0.073539
0.0019404
0.0724609
0.00161296
0.0714286
0.00129374
0.0706349
0.00097856
0.0700139
0.000664324
0.0695016
0.000350055
0.0690627
3.57206e-05
0.0686761
-0.00027835
0.0683272
-0.000591349
0.0680042
-0.000901842
0.0676972
-0.00120782
0.0673974
-0.00150661
0.0670972
-0.00179481
0.0667894
-0.00206828
0.066468
-0.00232243
0.0661284
-0.00255311
0.06577
-0.00275876
0.0654026
-0.00291777
0.0555215
-0.00304082
0.0460836
-0.00313489
0.0382753
-0.00320135
0.0317984
-0.00324036
0.0264165
0.0219447
-0.00325591
0.000177685
0.0136259
0.000748916
0.0382918
0.00145054
0.0576974
0.0018904
0.0691537
0.00195302
0.0734423
0.00177335
0.0737187
0.00151026
0.072724
0.00123778
0.0717011
0.000969886
0.0709028
0.000703691
0.0702801
0.000436223
0.0697691
0.000166241
0.0693327
-0.000106721
0.0689491
-0.000382723
0.0686032
-0.000661356
0.0682828
-0.000941764
0.0679776
-0.00122255
0.0676782
-0.00150168
0.0673763
-0.00177632
0.0670641
-0.0020428
0.0667345
-0.00229661
0.0663822
-0.00253324
0.0660066
-0.00275026
0.0656196
-0.00292396
0.0556952
-0.00306741
0.046227
-0.00319204
0.0383999
-0.00330257
0.0319089
-0.00339678
0.0265108
0.0220089
-0.00346098
0.000137655
0.0134883
0.000572808
0.0378566
0.00112108
0.0571492
0.00148054
0.0687942
0.00154397
0.0733789
0.00140532
0.0738573
0.00119091
0.0729384
0.000964668
0.0719273
0.000740453
0.071127
0.000516321
0.0705042
0.000289536
0.0699958
5.87386e-05
0.0695635
-0.000176819
0.0691847
-0.000417471
0.0688438
-0.000663231
0.0685286
-0.000913786
0.0682281
-0.00116838
0.0679328
-0.00142568
0.0676336
-0.00168363
0.067322
-0.0019393
0.0669902
-0.00218867
0.0666316
-0.00242695
0.0662449
-0.00264941
0.0658421
-0.00282618
0.055872
-0.00296833
0.0463692
-0.00309283
0.0385244
-0.00321407
0.0320301
-0.00335028
0.026647
0.0221713
-0.00351267
0.000105958
0.0133823
0.000445515
0.0375171
0.000882519
0.0567122
0.00117825
0.0684985
0.00123646
0.0733207
0.00112596
0.0739678
0.000949585
0.0731148
0.000761791
0.0721151
0.000574758
0.0713141
0.000386732
0.0706923
0.000195197
0.0701874
-1.217e-06
0.0697599
-0.000203245
0.0693867
-0.000411512
0.0690521
-0.000626378
0.0687434
-0.000847977
0.0684497
-0.00107613
0.068161
-0.00131022
0.0678677
-0.00154902
0.0675608
-0.00179058
0.0672317
-0.0020321
0.0668731
-0.00226993
0.0664827
-0.00249907
0.0660712
-0.00268286
0.0560558
-0.00282078
0.0465071
-0.00291949
0.0386231
-0.00298888
0.0320995
-0.00304637
0.0267044
-0.00322994
0.0223549
0.000110216
0.0219829
0.000152183
0.0219854
0.000185209
0.0219943
0.000215894
0.0219967
0.000240763
0.0220025
0.000261103
0.022007
0.000278414
0.02201
0.000289409
0.0220164
0.000298399
0.0220184
0.000302369
0.0220234
0.000303272
0.0220265
0.000301648
0.022029
0.000295579
0.0220334
0.000287908
0.022035
0.000276985
0.0220383
0.000263753
0.0220406
0.000249184
0.0220419
0.000231632
0.0220449
0.000213012
0.022046
0.000193149
0.0220472
0.000171715
0.0220488
0.000149661
0.0220494
0.000126932
0.0220501
0.000103687
0.0220506
8.0325e-05
0.0220507
5.70145e-05
0.0220507
3.41393e-05
0.0220502
1.16979e-05
0.0220498
-9.98885e-06
0.022049
-3.0281e-05
0.0220476
-4.96738e-05
0.0220467
-6.73373e-05
0.022045
-8.29674e-05
0.022043
-9.73287e-05
0.0220417
-0.000108383
0.0220384
-0.000117455
0.0220364
-0.000124236
0.0220341
-0.000126834
0.02203
-0.000127639
0.0220282
-0.000123761
0.0220235
-0.000116713
0.0220203
-0.000106528
0.0220172
-9.05303e-05
0.0220114
-7.23572e-05
0.0220092
-4.74513e-05
0.0220024
-1.90871e-05
0.021999
1.41004e-05
0.0219942
5.36584e-05
0.0219878
0.0219853
9.57317e-05
0.000147172
0.0219389
0.000188839
0.0219437
0.000221795
0.0219614
0.000252656
0.0219658
0.000277953
0.0219772
0.00029897
0.021986
0.0003172
0.0219918
0.000329346
0.0220042
0.000339705
0.022008
0.000345252
0.0220178
0.000347927
0.0220238
0.000348255
0.0220287
0.000344308
0.0220374
0.000338911
0.0220404
0.000330405
0.0220468
0.000319719
0.0220513
0.000307808
0.0220538
0.000293019
0.0220597
0.000277248
0.0220617
0.000260307
0.0220642
0.00024186
0.0220672
0.000222837
0.0220684
0.000203174
0.0220697
0.000183018
0.0220708
0.000162752
0.022071
0.000142532
0.0220709
0.000122734
0.02207
0.000103338
0.0220692
8.46545e-05
0.0220677
6.73151e-05
0.022065
5.08009e-05
0.0220633
3.59337e-05
0.0220599
2.30027e-05
0.0220559
1.12222e-05
0.0220535
2.62932e-06
0.022047
-4.12181e-06
0.0220432
-8.73453e-06
0.0220387
-9.31786e-06
0.0220305
-8.28872e-06
0.0220271
-2.75647e-06
0.0220179
5.74301e-06
0.0220118
1.71624e-05
0.0220058
3.41748e-05
0.0219943
5.31127e-05
0.0219902
7.8538e-05
0.021977
0.000107146
0.0219704
0.000140287
0.021961
0.000179484
0.0219486
0.0219439
0.00022086
0.000161311
0.0218952
0.000202955
0.0219021
0.000236147
0.0219282
0.000267509
0.0219344
0.000293569
0.0219511
0.000315603
0.021964
0.000335093
0.0219723
0.000348732
0.0219906
0.000360804
0.0219959
0.000368274
0.0220104
0.000373067
0.022019
0.000375697
0.022026
0.000374226
0.0220388
0.000371461
0.0220432
0.000365734
0.0220525
0.000357959
0.022059
0.000349075
0.0220627
0.000337422
0.0220713
0.000324877
0.0220743
0.000311239
0.0220778
0.000296162
0.0220823
0.000280558
0.022084
0.00026435
0.022086
0.000247675
0.0220874
0.000230898
0.0220878
0.000214162
0.0220876
0.000197834
0.0220864
0.000181873
0.0220852
0.00016658
0.022083
0.000152576
0.022079
0.000139321
0.0220765
0.00012763
0.0220716
0.000117778
0.0220658
0.000108961
0.0220623
0.000103213
0.0220528
9.91665e-05
0.0220472
9.71039e-05
0.0220408
9.89104e-05
0.0220287
0.000102143
0.0220239
0.000109693
0.0220104
0.000120004
0.0220015
0.000133015
0.0219927
0.000151395
0.021976
0.00017145
0.0219702
0.000197742
0.0219507
0.00022694
0.0219412
0.000260382
0.0219276
0.000299576
0.0219094
0.0219029
0.000340607
0.000155457
0.0218512
0.000197596
0.0218599
0.000231522
0.0218943
0.000263884
0.0219021
0.00029121
0.0219238
0.000314776
0.0219404
0.000336055
0.021951
0.000351728
0.0219749
0.00036607
0.0219816
0.000376032
0.0220004
0.000383527
0.0220115
0.000389056
0.0220205
0.000390665
0.0220372
0.000391151
0.0220427
0.000388827
0.0220548
0.000384598
0.0220633
0.000379385
0.0220679
0.000371516
0.0220792
0.000362851
0.022083
0.000353176
0.0220875
0.000342131
0.0220934
0.000330611
0.0220956
0.000318526
0.022098
0.000305999
0.0221
0.000293378
0.0221004
0.000280792
0.0221002
0.000268596
0.0220986
0.000256732
0.022097
0.000245485
0.0220943
0.000235467
0.022089
0.000226118
0.0220859
0.000218242
0.0220795
0.000212102
0.0220719
0.000206873
0.0220675
0.000204586
0.022055
0.000203851
0.022048
0.000204939
0.0220397
0.00020973
0.0220239
0.000215756
0.0220179
0.000225908
0.0220002
0.000238608
0.0219888
0.000253784
0.0219776
0.000274102
0.0219556
0.000295839
0.0219485
0.000323564
0.021923
0.000353917
0.0219108
0.000388223
0.0218933
0.000427984
0.0218696
0.0218616
0.000469244
0.000129134
0.0218062
0.000172499
0.0218166
0.000207867
0.0218589
0.000241952
0.021868
0.000271279
0.0218945
0.000297123
0.0219146
0.000320954
0.0219272
0.000339437
0.0219564
0.000356845
0.0219642
0.000370109
0.0219871
0.000381132
0.0220005
0.000390401
0.0220112
0.000395946
0.0220317
0.000400551
0.0220381
0.000402516
0.0220529
0.000402726
0.0220631
0.000402091
0.0220686
0.000398921
0.0220824
0.000395061
0.0220868
0.000390279
0.0220923
0.000384202
0.0220994
0.000377708
0.022102
0.00037069
0.0221051
0.000363256
0.0221074
0.000355737
0.0221079
0.000348245
0.0221077
0.000341124
0.0221057
0.000334293
0.0221038
0.000328026
0.0221005
0.00032292
0.0220941
0.000318395
0.0220904
0.000315245
0.0220826
0.000313717
0.0220734
0.000312965
0.0220683
0.000315019
0.022053
0.000318464
0.0220445
0.000323558
0.0220346
0.000332178
0.0220153
0.000341829
0.0220082
0.000355404
0.0219867
0.000371307
0.0219729
0.000389448
0.0219594
0.000412501
0.0219326
0.000436708
0.0219242
0.000466652
0.0218931
0.000498944
0.0218785
0.000534902
0.0218573
0.000576021
0.0218285
0.0218193
0.0006183
8.04856e-05
0.021759
0.000125918
0.0217711
0.000163712
0.0218211
0.000200503
0.0218312
0.000232789
0.0218622
0.000261892
0.0218855
0.000289282
0.0218998
0.000311604
0.0219341
0.00033313
0.0219427
0.000350771
0.0219695
0.00036642
0.0219848
0.00038055
0.0219971
0.000391172
0.0220211
0.000401059
0.0220282
0.000408489
0.0220454
0.000414336
0.0220572
0.000419489
0.0220634
0.000422243
0.0220796
0.000424424
0.0220846
0.000425783
0.0220909
0.000425929
0.0220993
0.000425722
0.0221023
0.000425034
0.0221057
0.000423961
0.0221085
0.000422809
0.0221091
0.000421675
0.0221088
0.000420888
0.0221065
0.000420344
0.0221044
0.0004203
0.0221006
0.00042134
0.0220931
0.000422861
0.0220889
0.000425643
0.0220798
0.000429919
0.0220692
0.000434819
0.0220634
0.000442371
0.0220454
0.000451134
0.0220358
0.000461351
0.0220244
0.000474899
0.0220018
0.000489251
0.0219939
0.000507308
0.0219686
0.000527448
0.0219528
0.000549571
0.0219373
0.000576357
0.0219058
0.000604013
0.0218966
0.000637142
0.0218599
0.000672319
0.0218434
0.000710863
0.0218188
0.000754259
0.0217851
0.0217751
0.000798457
4.47697e-06
0.0217095
5.37937e-05
0.0217218
9.56713e-05
0.0217792
0.000136366
0.0217905
0.000172981
0.0218256
0.000206713
0.0218517
0.000239004
0.0218675
0.000266512
0.0219066
0.00029353
0.0219156
0.000316945
0.0219461
0.000338644
0.0219631
0.000359086
0.0219766
0.000376262
0.0220039
0.000392935
0.0220115
0.00040736
0.022031
0.000420394
0.0220442
0.000432909
0.0220509
0.000443178
0.0220694
0.000453009
0.0220748
0.000462132
0.0220818
0.000470136
0.0220913
0.000477858
0.0220945
0.000485151
0.0220985
0.00049209
0.0221015
0.000498958
0.0221022
0.000505831
0.022102
0.000513019
0.0220993
0.000520392
0.022097
0.000528187
0.0220928
0.000536976
0.0220843
0.000546122
0.0220797
0.000556394
0.0220695
0.000568008
0.0220575
0.000580062
0.0220513
0.000594586
0.0220309
0.000610107
0.0220202
0.000626853
0.0220077
0.000646702
0.0219819
0.000667087
0.0219735
0.000690922
0.0219448
0.000716558
0.0219271
0.000743883
0.02191
0.000775587
0.0218741
0.000807836
0.0218643
0.00084526
0.0218225
0.0008844
0.0218042
0.00092657
0.0217766
0.000973252
0.0217384
0.021728
0.00102034
-9.97793e-05
0.0216554
-4.70096e-05
0.0216691
-1.36051e-06
0.0217336
4.50638e-05
0.0217441
8.77146e-05
0.0217829
0.000127662
0.0218118
0.000166467
0.0218287
0.000200838
0.0218722
0.000235043
0.0218814
0.000265943
0.0219152
0.000295451
0.0219336
0.000324013
0.0219481
0.00034959
0.0219783
0.00037494
0.0219862
0.000398289
0.0220077
0.000420477
0.022022
0.000442353
0.022029
0.000462165
0.0220496
0.000481702
0.0220553
0.000500666
0.0220628
0.000518625
0.0220733
0.000536388
0.0220768
0.000553782
0.0220811
0.00057086
0.0220844
0.000587874
0.0220852
0.000604872
0.022085
0.000622147
0.022082
0.000639533
0.0220796
0.000657241
0.0220751
0.000675828
0.0220657
0.000694616
0.0220609
0.000714361
0.0220498
0.000735255
0.0220367
0.000756358
0.0220302
0.000779706
0.0220076
0.000803784
0.0219962
0.0008288
0.0219827
0.000856638
0.0219541
0.000884682
0.0219454
0.000915864
0.0219136
0.000948502
0.0218945
0.000982468
0.021876
0.00102047
0.0218361
0.00105863
0.0218262
0.00110161
0.0217795
0.00114591
0.0217599
0.00119284
0.0217297
0.00124389
0.0216874
0.0216771
0.00129488
-0.000242035
0.0215957
-0.000182615
0.0216096
-0.00012991
0.0216809
-7.76127e-05
0.0216918
-2.86707e-05
0.021734
1.87192e-05
0.0217644
6.59425e-05
0.0217815
0.000109231
0.0218289
0.000152535
0.0218381
0.000193012
0.0218747
0.000232496
0.0218941
0.000271391
0.0219092
0.000307641
0.0219421
0.000344004
0.0219498
0.000378674
0.021973
0.000412468
0.0219882
0.000446214
0.0219953
0.000478125
0.0220176
0.000509967
0.0220234
0.000541411
0.0220314
0.000571994
0.0220427
0.000602492
0.0220463
0.000632701
0.0220509
0.000662642
0.0220545
0.000692526
0.0220553
0.000722371
0.0220551
0.000752442
0.0220519
0.000782525
0.0220495
0.000812802
0.0220448
0.000843805
0.0220347
0.000874804
0.0220299
0.000906539
0.0220181
0.00093917
0.022004
0.000971705
0.0219977
0.00100619
0.0219731
0.00104106
0.0219613
0.00107649
0.0219472
0.00111437
0.0219162
0.00115203
0.0219078
0.00119243
0.0218732
0.00123384
0.0218531
0.00127611
0.0218337
0.00132199
0.0217902
0.00136752
0.0217807
0.00141743
0.0217296
0.00146816
0.0217092
0.00152103
0.0216768
0.00157753
0.0216309
0.0216212
0.00163341
-0.000431903
0.021529
-0.000365043
0.0215428
-0.000304356
0.0216202
-0.000242844
0.0216303
-0.000184146
0.0216753
-0.000127184
0.0217074
-7.043e-05
0.0217248
-1.71007e-05
0.0217756
3.78016e-05
0.0217832
9.03989e-05
0.0218221
0.000142422
0.0218421
0.000194314
0.0218573
0.000244031
0.0218923
0.000294305
0.0218996
0.000343281
0.021924
0.000391758
0.0219397
0.000440535
0.0219465
0.00048778
0.0219704
0.000535235
0.021976
0.000582527
0.0219841
0.000629156
0.0219961
0.000675853
0.0219996
0.000722368
0.0220043
0.000768686
0.0220082
0.000814961
0.022009
0.000861166
0.0220089
0.00090753
0.0220056
0.000953775
0.0220033
0.00100004
0.0219985
0.00104682
0.0219879
0.00109333
0.0219834
0.00114026
0.0219711
0.00118775
0.0219565
0.00123473
0.0219507
0.00128326
0.0219245
0.00133169
0.0219129
0.00138018
0.0218987
0.00143062
0.0218658
0.00148026
0.0218581
0.00153209
0.0218214
0.00158433
0.0218008
0.00163682
0.0217813
0.00169234
0.0217347
0.00174684
0.0217262
0.00180515
0.0216713
0.00186362
0.0216507
0.0019236
0.0216168
0.00198659
0.0215679
0.0215595
0.00204824
-0.000683625
0.0214539
-0.000607509
0.0214667
-0.000536933
0.0215496
-0.000464883
0.0215582
-0.000394886
0.0216053
-0.000325554
0.0216381
-0.00025542
0.0216546
-0.000188085
0.0217083
-0.000119504
0.0217146
-5.2616e-05
0.0217552
1.46928e-05
0.0217748
8.27615e-05
0.0217892
0.00014924
0.0218259
0.000216901
0.0218319
0.00028384
0.0218571
0.000350825
0.0218727
0.000418604
0.0218787
0.000485284
0.0219037
0.000552575
0.0219087
0.000620041
0.0219166
0.000687127
0.021929
0.000754503
0.0219322
0.000821858
0.021937
0.00088912
0.0219409
0.00095637
0.0219418
0.00102351
0.0219418
0.00109073
0.0219383
0.00115765
0.0219364
0.00122436
0.0219318
0.0012913
0.021921
0.00135757
0.0219172
0.00142386
0.0219049
0.00149021
0.0218902
0.00155547
0.0218855
0.00162172
0.0218583
0.00168719
0.0218474
0.00175201
0.0218339
0.00181809
0.0217997
0.00188255
0.0217937
0.00194844
0.0217555
0.00201391
0.0217354
0.00207877
0.0217164
0.00214587
0.0216676
0.00221104
0.021661
0.00227923
0.0216031
0.0023467
0.0215833
0.00241482
0.0215487
0.00248515
0.0214976
0.0214915
0.00255321
-0.00101645
0.0213693
-0.000929705
0.0213799
-0.000847564
0.0214675
-0.000762862
0.0214735
-0.000679272
0.0215217
-0.000595447
0.0215543
-0.000509844
0.021569
-0.000426031
0.0216245
-0.000339525
0.0216281
-0.00025379
0.0216695
-0.000167037
0.021688
-7.88851e-05
0.0217011
8.52184e-06
0.0217385
9.79416e-05
0.0217425
0.000187458
0.0217676
0.000277837
0.0217824
0.000369747
0.0217868
0.0004612
0.0218123
0.000553829
0.021816
0.000647115
0.0218233
0.00074043
0.0218357
0.000834365
0.0218383
0.000928524
0.0218428
0.00102276
0.0218467
0.00111704
0.0218475
0.00121118
0.0218476
0.00130529
0.0218442
0.00139887
0.0218428
0.0014919
0.0218388
0.00158477
0.0218281
0.00167643
0.0218255
0.0017675
0.0218138
0.00185795
0.0217997
0.00194648
0.0217969
0.00203517
0.0217696
0.00212212
0.0217604
0.00220739
0.0217487
0.00229291
0.0217141
0.00237565
0.021711
0.00245872
0.0216724
0.00254018
0.0216539
0.00261982
0.0216368
0.00270056
0.0215869
0.0027781
0.0215834
0.00285756
0.0215237
0.00293508
0.0215057
0.0030121
0.0214717
0.00309022
0.0214195
0.0214168
0.00316487
-0.00145588
0.0212745
-0.00135747
0.0212815
-0.00126237
0.0213724
-0.00116321
0.0213744
-0.0010638
0.0214223
-0.000962742
0.0214532
-0.000858453
0.0214647
-0.00075467
0.0215207
-0.000646833
0.0215203
-0.000538415
0.0215611
-0.000427478
0.0215771
-0.000313732
0.0215873
-0.000199557
0.0216243
-8.21858e-05
0.0216251
3.61088e-05
0.0216493
0.00015603
0.0216624
0.000278835
0.021664
0.000401975
0.0216891
0.000527115
0.0216909
0.000653636
0.0216968
0.000780798
0.0217086
0.000909081
0.02171
0.00103797
0.0217139
0.00116721
0.0217175
0.00129662
0.0217181
0.00142589
0.0217184
0.001555
0.0217151
0.00168327
0.0217145
0.00181055
0.0217115
0.00193711
0.0217015
0.00206169
0.0217009
0.0021848
0.0216907
0.00230629
0.0216782
0.00242465
0.0216786
0.00254197
0.0216523
0.00265614
0.0216463
0.00276711
0.0216377
0.00287684
0.0216044
0.00298207
0.0216057
0.00308602
0.0215684
0.00318663
0.0215533
0.00328364
0.0215397
0.00338011
0.0214904
0.00347158
0.021492
0.00356338
0.0214319
0.00365156
0.0214176
0.00373764
0.0213856
0.00382334
0.0213338
0.0213362
0.00390393
-0.00203662
0.0211707
-0.00192689
0.0211718
-0.00181855
0.021264
-0.0017039
0.0212597
-0.00158686
0.0213053
-0.00146593
0.0213323
-0.00133947
0.0213383
-0.00121139
0.0213926
-0.00107699
0.0213859
-0.000940019
0.0214241
-0.000798603
0.0214357
-0.000652543
0.0214413
-0.000504402
0.0214761
-0.000351392
0.0214721
-0.000195703
0.0214936
-3.681e-05
0.0215035
0.000124922
0.0215023
0.000288493
0.0215256
0.000455417
0.021524
0.00062481
0.0215274
0.000795809
0.0215376
0.000968749
0.021537
0.00114295
0.0215397
0.001318
0.0215424
0.00149352
0.0215426
0.00166898
0.0215429
0.00184419
0.0215399
0.00201819
0.0215405
0.00219061
0.0215391
0.00236154
0.0215306
0.00252939
0.0215331
0.00269452
0.0215255
0.00285654
0.0215162
0.00301366
0.0215214
0.00316792
0.021498
0.00331692
0.0214973
0.00346046
0.0214941
0.00360049
0.0214644
0.00373346
0.0214727
0.00386272
0.0214392
0.00398601
0.02143
0.00410307
0.0214227
0.00421711
0.0213764
0.00432348
0.0213856
0.00442786
0.0213275
0.00452618
0.0213192
0.00462016
0.0212916
0.00471171
0.0212422
0.0212519
0.00479599
-0.00280524
0.0210613
-0.00268636
0.0210529
-0.0025662
0.0211439
-0.00243642
0.0211299
-0.0023008
0.0211696
-0.00215749
0.021189
-0.00200471
0.0211855
-0.00184671
0.0212346
-0.00167883
0.021218
-0.00150534
0.0212506
-0.0013246
0.021255
-0.00113674
0.0212534
-0.000944653
0.0212841
-0.000745711
0.0212731
-0.000542447
0.0212903
-0.000334258
0.0212954
-0.000120273
0.0212883
9.61583e-05
0.0213091
0.000317124
0.021303
0.000542326
0.0213022
0.000770593
0.0213093
0.00100212
0.0213055
0.00123606
0.0213058
0.0014718
0.0213067
0.00170864
0.0213057
0.00194578
0.0213058
0.00218273
0.021303
0.00241809
0.0213052
0.00265113
0.0213061
0.0028816
0.0213001
0.00310742
0.0213072
0.00332864
0.0213043
0.00354452
0.0213003
0.0037528
0.0213132
0.00395544
0.0212954
0.00414957
0.0213031
0.00433479
0.0213089
0.00451303
0.0212862
0.00468031
0.0213055
0.00484013
0.0212794
0.00499001
0.0212801
0.00512962
0.0212831
0.00526242
0.0212435
0.00538353
0.0212645
0.00549915
0.0212119
0.00560516
0.0212132
0.00570364
0.0211931
0.00579687
0.021149
0.0211689
0.00587989
-0.00317131
0.0209767
-0.00307585
0.0209574
-0.00297456
0.0210426
-0.00285774
0.0210131
-0.00272827
0.0210402
-0.00258502
0.0210457
-0.00242758
0.021028
-0.00226091
0.0210679
-0.00208211
0.0210392
-0.00189584
0.0210643
-0.00170136
0.0210605
-0.00149923
0.0210513
-0.00129223
0.0210771
-0.00107814
0.0210591
-0.000859138
0.0210713
-0.000634709
0.0210709
-0.000404266
0.0210578
-0.000169391
0.0210742
7.077e-05
0.0210629
0.000315569
0.0210574
0.000565061
0.0210598
0.000819215
0.0210514
0.00107717
0.0210478
0.00133821
0.0210456
0.00160143
0.0210425
0.00186573
0.0210415
0.00213033
0.0210384
0.00239346
0.021042
0.00265399
0.0210455
0.00291123
0.0210429
0.00316276
0.0210557
0.00340819
0.0210589
0.00364643
0.0210621
0.003875
0.0210846
0.00409542
0.021075
0.00430479
0.0210938
0.00450254
0.0211112
0.0046903
0.0210984
0.00486431
0.0211314
0.00502769
0.021116
0.00517811
0.0211297
0.0053152
0.021146
0.00544205
0.0211167
0.00555417
0.0211524
0.00565716
0.0211089
0.00574744
0.0211229
0.00582724
0.0211133
0.00589924
0.021077
0.0211084
0.00595976
-0.00339876
0.0209144
-0.00333599
0.0208947
-0.00326389
0.0209705
-0.00316536
0.0209146
-0.00304239
0.0209172
-0.00289685
0.0209002
-0.00273198
0.0208632
-0.00255523
0.0208912
-0.00236622
0.0208502
-0.00217033
0.0208684