/*--------------------------------*- C++ -*----------------------------------*\
| =========                 |                                                 |
| \\      /  F ield         | OpenFOAM: The Open Source CFD Toolbox           |
|  \\    /   O peration     | Version:  2312                                  |
|   \\  /    A nd           | Website:  www.openfoam.com                      |
|    \\/     M anipulation  |                                                 |
\*---------------------------------------------------------------------------*/
FoamFile
{
    version     2.0;
    format      ascii;
    arch        "LSB;label=32;scalar=64";
    class       surfaceScalarField;
    location    "83.301037388353421";
    object      phi;
}
// * * * * * * * * * * * * * * * * * * * * * * * * * * * * * * * * * * * * * //

dimensions      [0 3 -1 0 0 0 0];

oriented        oriented;

internalField   nonuniform List<scalar> 
41713
(
0.00736759
0.0568788
0.00362953
0.0679845
0.00211792
0.065758
0.00148619
0.0648782
0.00110087
0.0646318
0.000847023
0.0645003
0.000672196
0.0644213
0.000545478
0.0643732
0.000450261
0.0643417
0.000376893
0.0643198
0.000319251
0.0643041
0.000273281
0.0642924
0.000236216
0.0642835
0.000206114
0.0642765
0.000181582
0.064271
0.000161595
0.0642664
0.000145386
0.0642626
0.000132371
0.0642595
0.000122086
0.0642567
0.000114148
0.0642544
0.000108193
0.0642524
0.000103857
0.0642508
0.000100852
0.0642494
9.88174e-05
0.0548132
9.70883e-05
0.0456777
9.54507e-05
0.038065
9.39114e-05
0.031721
9.24976e-05
0.0264343
0.0220287
9.11889e-05
0.00999798
0.0468809
0.00843519
0.0695473
0.00572399
0.0684692
0.00413135
0.0664708
0.00313212
0.065631
0.0024423
0.0651901
0.00194606
0.0649175
0.00157797
0.0647412
0.00129772
0.0646219
0.00107951
0.064538
0.000906413
0.0644772
0.000767042
0.0644318
0.000653547
0.064397
0.000560384
0.0643697
0.000483557
0.0643478
0.000420139
0.0643298
0.000367949
0.0643148
0.000325334
0.0643021
0.000291019
0.064291
0.000263993
0.0642814
0.000243427
0.064273
0.000228593
0.0642656
0.000218757
0.0642593
0.000213405
0.0548186
0.000210491
0.0456806
0.000208737
0.0380667
0.000207423
0.0317223
0.000206219
0.0264355
0.0220298
0.000205156
0.00860163
0.0382792
0.00971976
0.0684292
0.00748449
0.0707045
0.00571756
0.0682377
0.004532
0.0668166
0.00364981
0.0660723
0.00297059
0.0655967
0.00244275
0.0652691
0.00202761
0.065037
0.00169662
0.064869
0.00142934
0.0647445
0.00121113
0.06465
0.00103145
0.0645767
0.000882582
0.0645186
0.000758851
0.0644715
0.000656026
0.0644327
0.000570922
0.0643999
0.000501111
0.0643719
0.000444723
0.0643474
0.000400286
0.0643258
0.000366623
0.0643066
0.00034274
0.0642895
0.000327637
0.0642744
0.000320405
0.0548258
0.000317465
0.0456836
0.000316491
0.0380677
0.000316167
0.0317226
0.000315897
0.0264357
0.02203
0.000315653
0.00678039
0.0314988
0.00948953
0.06572
0.00814046
0.0720536
0.00646435
0.0699138
0.00527777
0.0680031
0.0043774
0.0669727
0.00365137
0.0663227
0.00306028
0.0658602
0.00257696
0.0655204
0.00217941
0.0652666
0.00185033
0.0650735
0.00157634
0.064924
0.00134713
0.0648059
0.00115479
0.0647109
0.000993293
0.064633
0.00085798
0.064568
0.000745289
0.0645126
0.000652463
0.0644647
0.000577357
0.0644225
0.00051828
0.0643849
0.000473882
0.064351
0.000443023
0.0643203
0.000424473
0.0642929
0.000416722
0.0548335
0.000414751
0.0456855
0.000415305
0.0380671
0.00041659
0.0317213
0.000417847
0.0264345
0.0220288
0.000419017
0.00507009
0.0264288
0.00858543
0.0622047
0.00820579
0.0724332
0.00676783
0.0713518
0.00561853
0.0691524
0.00474949
0.0678417
0.00403883
0.0670334
0.00344256
0.0664565
0.00293972
0.0660232
0.00251436
0.0656919
0.00215355
0.0654344
0.00184677
0.0652308
0.00158555
0.0650671
0.0013631
0.0649333
0.00117404
0.0648221
0.0010141
0.0647279
0.00087992
0.0646468
0.000768854
0.0645758
0.00067882
0.0645126
0.00060817
0.0644556
0.000555574
0.0644036
0.00051989
0.064356
0.000499769
0.0643131
0.000492986
0.0548403
0.000493192
0.0456853
0.000496302
0.038064
0.000500112
0.0317175
0.000503717
0.0264309
0.0220255
0.000507022
0.00362274
0.022806
0.00732672
0.0585007
0.00780982
0.0719501
0.00675946
0.0724022
0.00570643
0.0702055
0.00488962
0.0686585
0.00421794
0.0677051
0.00364275
0.0670316
0.00314612
0.0665198
0.0027165
0.0661215
0.0023444
0.0658065
0.00202195
0.0655532
0.00174272
0.0653463
0.00150143
0.0651746
0.00129378
0.0650297
0.0011163
0.0649054
0.000966206
0.0647969
0.000841293
0.0647007
0.000739812
0.064614
0.000660379
0.064535
0.00060188
0.0644621
0.000563327
0.0643946
0.000543406
0.064333
0.000539072
0.0548447
0.000542718
0.0456817
0.000549498
0.0380572
0.000556831
0.0317102
0.000563678
0.026424
0.0220193
0.000569908
0.0025265
0.0202795
0.00603297
0.0549942
0.00712533
0.0708578
0.00650726
0.0730202
0.00560545
0.0711073
0.00486045
0.0694035
0.0042421
0.0683234
0.00370302
0.0675707
0.00322715
0.0669957
0.00280686
0.0665418
0.00243589
0.0661774
0.00210883
0.0658803
0.00182114
0.065634
0.00156905
0.0654267
0.00134944
0.0652493
0.00115979
0.065095
0.000998076
0.0649586
0.000862695
0.0648361
0.000752416
0.0647243
0.000666295
0.0646211
0.000603595
0.0645248
0.000563635
0.0644345
0.000545276
0.0643513
0.000544582
0.0548454
0.000552745
0.0456735
0.000564201
0.0380458
0.000576019
0.0316984
0.000587019
0.026413
0.0220093
0.000597016
0.00176136
0.0185181
0.00490004
0.0518556
0.00634656
0.0694113
0.00611305
0.0732537
0.00538079
0.0718395
0.00471262
0.0700717
0.00415053
0.0688855
0.00365393
0.0680673
0.00320659
0.067443
0.0028034
0.066945
0.00244086
0.06654
0.00211585
0.0662053
0.0018256
0.0659243
0.00156778
0.0656846
0.00134045
0.0654767
0.00114206
0.0652934
0.000971398
0.0651293
0.00082758
0.0649799
0.000709996
0.0648419
0.000618265
0.0647128
0.000552159
0.0645909
0.000511435
0.0644753
0.000495272
0.0643675
0.000498878
0.0548417
0.000512291
0.0456601
0.000529242
0.0380288
0.000546422
0.0316812
0.00056247
0.026397
0.0219947
0.000577102
0.0012496
0.0172685
0.00397643
0.0491287
0.0055878
0.0677999
0.00566044
0.0731811
0.00509259
0.0724074
0.0044957
0.0706686
0.00398222
0.069399
0.00352506
0.0685245
0.00310681
0.0678613
0.00272298
0.0673288
0.00237183
0.0668911
0.00205192
0.0665252
0.00176197
0.0662142
0.0015009
0.0659456
0.00126786
0.0657097
0.00106222
0.0654991
0.000883605
0.0653079
0.000731884
0.0651316
0.000607131
0.0649667
0.000509612
0.0648104
0.000439722
0.0646608
0.000397792
0.0645172
0.000383461
0.0643818
0.000391275
0.0548339
0.000410128
0.0456412
0.000433013
0.0380059
0.000456211
0.031658
0.000478097
0.0263751
0.0219746
0.000498195
0.000914172
0.0163544
0.00324342
0.0467995
0.00489277
0.0661505
0.00519333
0.0728805
0.00477582
0.0728249
0.00424352
0.0712009
0.0037683
0.0698742
0.0033425
0.0689503
0.00294878
0.068255
0.0025821
0.0676955
0.00224147
0.0672317
0.00192651
0.0668401
0.00163699
0.0665038
0.00137279
0.0662098
0.00113397
0.0659485
0.000920735
0.0657123
0.000733489
0.0654951
0.000572829
0.0652923
0.000439555
0.0650999
0.000334654
0.0649153
0.000259225
0.0647362
0.000214327
0.0645621
0.000200157
0.064396
0.000211002
0.0548231
0.00023465
0.0456176
0.000263234
0.0379774
0.0002927
0.0316285
0.000320924
0.0263469
0.0219483
0.000347167
0.000695332
0.015659
0.00266795
0.0448269
0.00427448
0.064544
0.00473324
0.0724218
0.00444697
0.0731112
0.00397352
0.0716743
0.00352779
0.07032
0.00312466
0.0693534
0.00274897
0.0686307
0.00239484
0.0680496
0.00206141
0.0675652
0.00174892
0.0671526
0.00145779
0.0667949
0.00118862
0.066479
0.000942132
0.066195
0.000719248
0.0659352
0.000521065
0.0656933
0.000348913
0.0654644
0.000204295
0.0652446
8.89058e-05
0.0650307
4.6393e-06
0.0648205
-4.67739e-05
0.0646135
-6.41404e-05
0.0644134
-5.27829e-05
0.0548117
-2.59314e-05
0.0455907
7.62789e-06
0.0379438
4.25093e-05
0.0315936
7.66082e-05
0.0263128
0.021916
0.000108893
0.000549529
0.0151095
0.00221617
0.0431602
0.00373305
0.0630271
0.00429247
0.0718623
0.00411562
0.073288
0.00369508
0.0720948
0.0032719
0.0707431
0.00288356
0.0697418
0.00251914
0.0689951
0.00217214
0.0683966
0.00184147
0.0678958
0.0015276
0.0674665
0.00123139
0.0670911
0.000953912
0.0667565
0.000696416
0.0664525
0.000460392
0.0661712
0.00024753
0.0659062
5.97061e-05
0.0656522
-0.000100948
0.0654052
-0.000231975
0.0651617
-0.000330641
0.0649192
-0.000394128
0.064677
-0.000420466
0.0644397
-0.000413534
0.0548048
-0.000387529
0.0455647
-0.000352106
0.0379084
-0.000312798
0.0315543
-0.000272996
0.026273
0.0218776
-0.000234606
0.00044758
0.0146619
0.00185806
0.0417498
0.00326205
0.0616231
0.00387777
0.0712466
0.00378855
0.0733773
0.00341451
0.0724689
0.00300825
0.0711494
0.00262784
0.0701222
0.00226825
0.0693547
0.0019228
0.0687421
0.00158996
0.0682287
0.00127021
0.0677863
0.000964614
0.0673967
0.000674533
0.0670466
0.00040162
0.0667254
0.000147712
0.0664251
-8.51252e-05
0.066139
-0.000294462
0.0658616
-0.000477429
0.0655882
-0.000630762
0.065315
-0.000750913
0.0650393
-0.000834264
0.0647603
-0.000877946
0.0644834
-0.000882879
0.0548097
-0.000863555
0.0455454
-0.000830423
0.0378752
-0.00079003
0.0315139
-0.000746461
0.0262294
0.0218337
-0.000702502
0.000371865
0.0142901
0.00156994
0.0405517
0.00285263
0.0603404
0.00349196
0.0706073
0.00347044
0.0733988
0.00313645
0.0728029
0.00274266
0.0715432
0.00236452
0.0705003
0.00200394
0.0697153
0.00165468
0.0690914
0.00131471
0.0685687
0.00098431
0.0681167
0.000664562
0.0677164
0.000356975
0.0673541
6.3262e-05
0.0670191
-0.000214524
0.0667029
-0.000473899
0.0663984
-0.000711836
0.0660995
-0.000924818
0.0658012
-0.00110889
0.0654991
-0.00125978
0.0651902
-0.00137321
0.0648738
-0.00144588
0.0645561
-0.00147426
0.0548381
-0.00147241
0.0455436
-0.0014508
0.0378536
-0.00141638
0.0314795
-0.00137429
0.0261873
0.0217881
-0.00132872
0.000312313
0.0139778
0.00133608
0.0395279
0.00249893
0.0591776
0.00313777
0.0699685
0.00316522
0.0733713
0.00286418
0.0731039
0.00247915
0.0719282
0.00209881
0.0708807
0.0017323
0.0700818
0.0013744
0.0694492
0.00102263
0.0689204
0.000676908
0.0684624
0.000338205
0.0680551
7.78037e-06
0.0676846
-0.000312577
0.0673395
-0.000620681
0.067011
-0.000913635
0.0666914
-0.00118798
0.0663739
-0.00143965
0.0660528
-0.00166401
0.0657234
-0.00185613
0.0653823
-0.00201149
0.0650291
-0.00212739
0.064672
-0.00219523
0.0549059
-0.00222825
0.0455766
-0.00223543
0.0378608
-0.00222204
0.0314661
-0.00219269
0.026158
0.0217482
-0.0021528
0.000226835
0.0137509
0.000976013
0.0387787
0.00186765
0.058286
0.00239441
0.0694417
0.00244462
0.0733211
0.00221168
0.0733369
0.00189177
0.0722481
0.00156719
0.0712052
0.00125097
0.070398
0.000939718
0.0697605
0.000630981
0.0692292
0.000324319
0.068769
2.01581e-05
0.0683593
-0.000280568
0.0679853
-0.000576639
0.0676356
-0.00086608
0.0673005
-0.00114641
0.0669717
-0.0014145
0.066642
-0.00166653
0.0663049
-0.00189795
0.0659549
-0.0021038
0.0655882
-0.00227964
0.065205
-0.00242363
0.064816
-0.00252439
0.0550067
-0.00259478
0.045647
-0.00264218
0.0379082
-0.00266803
0.031492
-0.00267228
0.0261622
0.0217344
-0.00265841
0.00016816
0.0135828
0.000724192
0.0382227
0.001409
0.0576011
0.00183596
0.0690147
0.00189197
0.0732651
0.00170985
0.073519
0.00144539
0.0725126
0.00117128
0.0714794
0.000901755
0.0706675
0.000634636
0.0700276
0.000367562
0.0694962
9.98097e-05
0.0690368
-0.000168637
0.0686277
-0.000437355
0.068254
-0.000705381
0.0679036
-0.000971356
0.0675664
-0.00123339
0.0672337
-0.00148894
0.0668975
-0.00173473
0.0665506
-0.00196662
0.0661868
-0.00217969
0.0658013
-0.0023691
0.0653944
-0.00253208
0.0649789
-0.0026538
0.0551284
-0.0027493
0.0457425
-0.0028304
0.0379893
-0.00290199
0.0315636
-0.00296179
0.026222
0.021769
-0.00299645
0.000128804
0.013454
0.000550282
0.0378012
0.00108276
0.0570687
0.00142837
0.0686691
0.00148258
0.0732109
0.00133836
0.0736632
0.0011196
0.0727314
0.000888881
0.0717101
0.000660157
0.0708963
0.000432048
0.0702557
0.000202387
0.0697259
-2.97497e-05
0.0692689
-0.000264631
0.0688626
-0.00050213
0.0684915
-0.000741766
0.0681432
-0.000982727
0.0678074
-0.00122375
0.0674747
-0.00146301
0.0671368
-0.00169796
0.0667856
-0.0019252
0.066414
-0.00214031
0.0660164
-0.00233819
0.0655923
-0.00251385
0.0651546
-0.00264521
0.0552598
-0.00274504
0.0458423
-0.00283038
0.0380747
-0.00291565
0.0316488
-0.00301882
0.0263252
0.0219003
-0.00315009
9.804e-05
0.0133559
0.000425584
0.0374737
0.000848331
0.0566459
0.00113043
0.068387
0.00117826
0.073163
0.00106045
0.073781
0.000878018
0.0729138
0.000684167
0.0719039
0.000491016
0.0710894
0.000297278
0.0704495
0.00010095
0.0699222
-9.89124e-05
0.0694688
-0.000302697
0.0690664
-0.00051053
0.0686993
-0.000722321
0.068355
-0.000937734
0.0680228
-0.0011561
0.0676931
-0.0013763
0.067357
-0.00159662
0.0670059
-0.00181467
0.066632
-0.00202722
0.0662289
-0.00223033
0.0657954
-0.0024188
0.0653431
-0.00256288
0.0554039
-0.00266387
0.0459433
-0.00272897
0.0381398
-0.00276832
0.0316882
-0.00280056
0.0263574
-0.00296143
0.0220612
0.000135903
0.0219826
0.000178089
0.0219852
0.000211329
0.0219941
0.000242217
0.0219965
0.000267279
0.0220023
0.000287804
0.0220068
0.00030529
0.0220099
0.000316454
0.0220162
0.0003256
0.0220182
0.00032972
0.0220232
0.000330762
0.0220263
0.000329268
0.0220288
0.000323322
0.0220333
0.000315762
0.0220349
0.000304942
0.0220382
0.000291804
0.0220405
0.000277316
0.0220418
0.000259842
0.0220448
0.000241286
0.0220459
0.000221477
0.0220472
0.000200092
0.0220487
0.000178075
0.0220494
0.000155372
0.0220501
0.000132147
0.0220506
0.000108795
0.0220507
8.5485e-05
0.0220507
6.2605e-05
0.0220502
4.01487e-05
0.0220498
1.84385e-05
0.0220491
-1.88392e-06
0.0220477
-2.13212e-05
0.0220468
-3.90402e-05
0.0220451
-5.4737e-05
0.0220431
-6.91802e-05
0.0220418
-8.03247e-05
0.0220385
-8.94986e-05
0.0220365
-9.63941e-05
0.0220343
-9.91123e-05
0.0220301
-0.000100051
0.0220283
-9.63126e-05
0.0220236
-8.94158e-05
0.0220205
-7.93948e-05
0.0220173
-6.35689e-05
0.0220115
-4.55835e-05
0.0220094
-2.08742e-05
0.0220026
7.28005e-06
0.0219992
4.02468e-05
0.0219944
7.95764e-05
0.021988
0.0219855
0.000121411
0.000249936
0.0219379
0.000292394
0.0219427
0.000326127
0.0219604
0.000357724
0.0219649
0.00038373
0.0219763
0.000405427
0.0219851
0.000424296
0.021991
0.00043706
0.0220034
0.000447994
0.0220073
0.000454089
0.0220171
0.000457275
0.0220231
0.000458074
0.0220281
0.000454575
0.0220368
0.00044958
0.0220399
0.000441446
0.0220463
0.000431097
0.0220508
0.000419476
0.0220535
0.000404957
0.0220593
0.00038941
0.0220615
0.000372653
0.0220639
0.000354363
0.022067
0.000335454
0.0220683
0.000315866
0.0220696
0.000295756
0.0220707
0.000275492
0.022071
0.000255236
0.0220709
0.000235373
0.0220701
0.000215868
0.0220693
0.000197036
0.0220679
0.000179519
0.0220652
0.000162781
0.0220635
0.000147657
0.0220602
0.000134434
0.0220563
0.000122315
0.0220539
0.000113357
0.0220475
0.000106198
0.0220437
0.000101135
0.0220393
0.000100072
0.0220311
0.000100572
0.0220278
0.000105545
0.0220186
0.000113446
0.0220126
0.000124225
0.0220066
0.000140572
0.0219952
0.000158799
0.0219911
0.000183489
0.021978
0.000211324
0.0219714
0.000243658
0.0219621
0.000282022
0.0219497
0.021945
0.000322526
0.000360955
0.0218926
0.000404126
0.0218995
0.000438818
0.0219257
0.000471605
0.0219321
0.00049904
0.0219489
0.000522391
0.0219618
0.000543123
0.0219703
0.000557963
0.0219886
0.000571153
0.0219941
0.00057969
0.0220086
0.000585479
0.0220173
0.000589029
0.0220245
0.00058843
0.0220374
0.00058645
0.0220419
0.000581449
0.0220513
0.00057433
0.022058
0.000566014
0.0220618
0.000554887
0.0220705
0.000542779
0.0220736
0.000529501
0.0220772
0.000514729
0.0220818
0.000499343
0.0220837
0.00048328
0.0220857
0.00046669
0.0220873
0.000449912
0.0220877
0.0004331
0.0220877
0.000416638
0.0220866
0.000400457
0.0220855
0.000384868
0.0220835
0.000370508
0.0220796
0.000356809
0.0220772
0.000344606
0.0220724
0.000334175
0.0220667
0.000324688
0.0220634
0.000318218
0.0220539
0.000313365
0.0220485
0.000310418
0.0220423
0.000311285
0.0220303
0.000313489
0.0220256
0.000319955
0.0220122
0.000329107
0.0220034
0.000340882
0.0219948
0.000357977
0.0219781
0.00037666
0.0219725
0.000401535
0.0219531
0.000429242
0.0219437
0.000461131
0.0219302
0.000498722
0.0219121
0.0219057
0.000538078
0.000465543
0.021846
0.00051011
0.021855
0.000546424
0.0218894
0.000581057
0.0218975
0.000610577
0.0219193
0.000636244
0.0219361
0.000659509
0.021947
0.000677102
0.021971
0.000693233
0.021978
0.000704904
0.0219969
0.000713996
0.0220082
0.000720999
0.0220175
0.000724007
0.0220344
0.000725753
0.0220401
0.000724597
0.0220525
0.000721422
0.0220611
0.000717124
0.0220661
0.000710099
0.0220775
0.00070214
0.0220815
0.000693045
0.0220863
0.000682491
0.0220924
0.000671325
0.0220948
0.000659474
0.0220976
0.000647084
0.0220997
0.000634464
0.0221004
0.000621757
0.0221004
0.000609345
0.022099
0.000597127
0.0220977
0.000585405
0.0220952
0.000574815
0.0220901
0.000564753
0.0220873
0.000556056
0.0220811
0.000548987
0.0220738
0.000542685
0.0220697
0.000539242
0.0220574
0.000537221
0.0220506
0.000536897
0.0220426
0.00054019
0.022027
0.000544577
0.0220212
0.000553004
0.0220038
0.000563862
0.0219925
0.000577075
0.0219816
0.000595353
0.0219598
0.000614917
0.0219529
0.000640396
0.0219276
0.000668389
0.0219157
0.00070024
0.0218983
0.000737468
0.0218748
0.021867
0.000776083
0.00055567
0.0217974
0.000602526
0.0218081
0.000641348
0.0218506
0.000678714
0.0218601
0.000711209
0.0218868
0.000740088
0.0219072
0.000766791
0.0219203
0.000788051
0.0219497
0.000808048
0.021958
0.000823785
0.0219812
0.000837122
0.0219949
0.000848531
0.0220061
0.000856104
0.0220268
0.00086254
0.0220337
0.0008662
0.0220488
0.000867944
0.0220594
0.000868643
0.0220654
0.000866699
0.0220794
0.000863868
0.0220844
0.000859935
0.0220902
0.000854576
0.0220977
0.000848599
0.0221008
0.000841927
0.0221042
0.000834694
0.0221069
0.00082718
0.0221079
0.000819516
0.0221081
0.000812082
0.0221064
0.00080474
0.0221051
0.000797784
0.0221022
0.000791848
0.0220961
0.00078629
0.0220928
0.00078195
0.0220854
0.000779074
0.0220767
0.000776772
0.022072
0.000777151
0.022057
0.000778736
0.022049
0.000781792
0.0220395
0.00078825
0.0220205
0.00079554
0.0220139
0.000806631
0.0219927
0.000819882
0.0219793
0.000835205
0.0219662
0.000855327
0.0219397
0.000876418
0.0219318
0.000903145
0.0219009
0.00093206
0.0218868
0.00096451
0.0218659
0.00100201
0.0218373
0.0218285
0.00104052
0.000621746
0.0217455
0.000671976
0.0217579
0.000714393
0.0218081
0.000755593
0.0218189
0.000792175
0.0218503
0.000825392
0.021874
0.000856679
0.021889
0.000882765
0.0219236
0.00090781
0.0219329
0.000928811
0.0219602
0.000947607
0.0219761
0.000964652
0.021989
0.000978034
0.0220134
0.00099042
0.0220213
0.00100016
0.0220391
0.0010081
0.0220515
0.00101509
0.0220584
0.00101952
0.022075
0.00102311
0.0220808
0.00102563
0.0220877
0.00102676
0.0220966
0.00102727
0.0221003
0.00102706
0.0221044
0.00102626
0.0221077
0.00102513
0.022109
0.00102376
0.0221095
0.00102255
0.0221076
0.00102131
0.0221063
0.00102033
0.0221031
0.00102024
0.0220962
0.00102035
0.0220927
0.00102151
0.0220843
0.00102395
0.0220742
0.00102674
0.0220692
0.00103201
0.0220517
0.00103824
0.0220427
0.00104569
0.0220321
0.0010563
0.0220099
0.00106745
0.0220028
0.00108214
0.021978
0.00109869
0.0219627
0.00111701
0.0219479
0.00113983
0.0219169
0.00116328
0.0219084
0.00119207
0.0218721
0.00122271
0.0218561
0.00125654
0.021832
0.00129508
0.0217988
0.0217894
0.00133423
0.000653288
0.0216893
0.000708169
0.021703
0.000755479
0.0217608
0.000801841
0.0217725
0.000843861
0.0218082
0.000882798
0.0218351
0.00092008
0.0218517
0.000952431
0.0218913
0.000983995
0.0219013
0.00101176
0.0219324
0.00103754
0.0219503
0.00106177
0.0219648
0.00108254
0.0219927
0.00110247
0.0220014
0.00111992
0.0220216
0.00113569
0.0220357
0.00115061
0.0220435
0.00116307
0.0220626
0.00117475
0.0220691
0.00118542
0.022077
0.00119471
0.0220873
0.00120338
0.0220916
0.00121131
0.0220965
0.00121862
0.0221004
0.00122551
0.0221021
0.00123209
0.0221029
0.00123872
0.022101
0.00124519
0.0220998
0.00125176
0.0220966
0.00125907
0.0220889
0.00126638
0.0220854
0.00127453
0.0220761
0.00128373
0.022065
0.00129303
0.0220599
0.00130457
0.0220402
0.00131678
0.0220305
0.00132992
0.0220189
0.00134593
0.0219939
0.00136215
0.0219865
0.00138159
0.0219585
0.00140256
0.0219418
0.00142494
0.0219255
0.0014515
0.0218903
0.00147831
0.0218815
0.00151012
0.0218403
0.00154339
0.0218228
0.00157948
0.021796
0.0016199
0.0217584
0.0217488
0.0016605
0.000639203
0.0216272
0.000700189
0.021642
0.000753888
0.0217071
0.000806956
0.0217195
0.000856005
0.0217592
0.000902299
0.0217888
0.000947265
0.0218068
0.000987614
0.0218509
0.00102748
0.0218615
0.00106384
0.0218961
0.00109848
0.0219157
0.00113183
0.0219315
0.00116193
0.0219626
0.00119142
0.0219719
0.00121859
0.0219944
0.00124426
0.02201
0.0012692
0.0220185
0.0012918
0.02204
0.0013137
0.0220472
0.00133464
0.0220561
0.00135425
0.0220677
0.00137323
0.0220727
0.00139145
0.0220783
0.001409
0.0220828
0.00142606
0.0220851
0.00144269
0.0220863
0.00145926
0.0220844
0.0014755
0.0220836
0.00149166
0.0220804
0.00150835
0.0220722
0.00152481
0.022069
0.00154185
0.0220591
0.00155968
0.0220472
0.00157728
0.0220423
0.00159683
0.0220206
0.00161671
0.0220106
0.00163715
0.0219985
0.00166011
0.0219709
0.00168288
0.0219638
0.0017085
0.0219329
0.00173524
0.021915
0.00176296
0.0218978
0.00179448
0.0218588
0.00182579
0.0218502
0.0018617
0.0218044
0.00189863
0.0217859
0.00193793
0.0217566
0.00198115
0.0217152
0.0217059
0.00202403
0.000567644
0.0215577
0.000636337
0.0215733
0.000698096
0.0216454
0.000759639
0.0216579
0.000817559
0.0217013
0.000873131
0.0217332
0.000927784
0.0217521
0.000978201
0.0218005
0.00102853
0.0218112
0.00107569
0.0218489
0.00112149
0.0218699
0.0011663
0.0218866
0.00120817
0.0219207
0.00124967
0.0219304
0.00128911
0.021955
0.00132725
0.0219719
0.00136484
0.0219809
0.00140023
0.0220046
0.00143505
0.0220124
0.00146899
0.0220222
0.00150164
0.022035
0.00153368
0.0220406
0.00156494
0.022047
0.00159549
0.0220523
0.00162544
0.0220551
0.00165485
0.0220568
0.00168404
0.0220552
0.0017127
0.0220549
0.00174105
0.0220521
0.00176969
0.0220435
0.00179778
0.0220409
0.00182614
0.0220307
0.00185494
0.0220184
0.00188312
0.0220141
0.00191286
0.0219909
0.00194249
0.021981
0.00197222
0.0219688
0.00200404
0.0219391
0.00203515
0.0219327
0.00206864
0.0218994
0.00210273
0.021881
0.00213728
0.0218633
0.00217513
0.0218209
0.00221221
0.0218132
0.00225341
0.0217632
0.00229507
0.0217443
0.00233858
0.0217131
0.00238547
0.0216683
0.0216599
0.00243144
0.000425557
0.0214793
0.000503703
0.0214952
0.000575381
0.0215737
0.000647361
0.0215859
0.000716215
0.0216324
0.000783255
0.0216662
0.000849919
0.0216854
0.00091284
0.0217376
0.000976185
0.0217478
0.00103683
0.0217883
0.00109656
0.0218102
0.00115573
0.0218275
0.00121233
0.0218641
0.00126895
0.0218738
0.00132381
0.0219001
0.00137766
0.021918
0.00143122
0.0219274
0.00148279
0.021953
0.00153396
0.0219612
0.00158436
0.0219718
0.00163358
0.0219858
0.00168222
0.021992
0.00173007
0.0219992
0.00177715
0.0220052
0.00182354
0.0220087
0.00186923
0.0220112
0.00191451
0.02201
0.00195901
0.0220104
0.00200291
0.0220082
0.00204677
0.0219997
0.00208969
0.021998
0.00213246
0.0219879
0.00217522
0.0219756
0.00221684
0.0219725
0.00225951
0.0219482
0.0023015
0.021939
0.00234298
0.0219273
0.00238596
0.0218961
0.00242756
0.0218911
0.00247092
0.0218561
0.00251421
0.0218377
0.00255726
0.0218202
0.00260298
0.0217752
0.0026472
0.0217689
0.00269491
0.0217155
0.00274238
0.0216968
0.00279102
0.0216645
0.00284239
0.0216169
0.0216102
0.00289209
0.000197661
0.0213906
0.000287201
0.0214056
0.000370727
0.0214902
0.000455278
0.0215014
0.000537518
0.0215502
0.000618656
0.021585
0.000700106
0.021604
0.000778434
0.0216593
0.000857873
0.0216684
0.000935226
0.0217109
0.00101228
0.0217331
0.00108936
0.0217504
0.00116439
0.0217891
0.00123995
0.0217982
0.00131421
0.0218259
0.00138787
0.0218444
0.00146162
0.0218536
0.00153367
0.0218809
0.00160559
0.0218893
0.00167695
0.0219004
0.00174727
0.0219155
0.00181708
0.0219222
0.00188613
0.0219301
0.00195436
0.021937
0.00202179
0.0219413
0.00208833
0.0219446
0.00215423
0.0219441
0.00221903
0.0219456
0.00228284
0.0219443
0.00234618
0.0219364
0.00240806
0.0219361
0.00246923
0.0219268
0.00252978
0.0219151
0.00258847
0.0219138
0.00264753
0.0218892
0.00270511
0.0218814
0.00276137
0.021871
0.00281832
0.0218392
0.00287299
0.0218364
0.00292856
0.0218005
0.00298314
0.0217831
0.00303656
0.0217668
0.00309178
0.02172
0.00314454
0.0217162
0.00319993
0.0216601
0.00325417
0.0216426
0.00330868
0.02161
0.00336508
0.0215605
0.0215565
0.00341886
-0.000134583
0.0212905
-3.28767e-05
0.0213039
6.47253e-05
0.0213926
0.000164839
0.0214013
0.000263413
0.0214516
0.000361757
0.0214867
0.000461118
0.0215046
0.000558289
0.0215621
0.000657541
0.0215691
0.000755562
0.0216129
0.000854145
0.0216345
0.000953599
0.0216509
0.00105172
0.021691
0.00115112
0.0216988
0.00124986
0.0217271
0.00134861
0.0217456
0.00144799
0.0217543
0.00154613
0.0217828
0.00164454
0.0217909
0.00174272
0.0218022
0.00184007
0.0218181
0.00193709
0.0218251
0.00203339
0.0218338
0.00212887
0.0218415
0.00222341
0.0218468
0.00231685
0.0218512
0.00240935
0.0218516
0.00250033
0.0218546
0.00258981
0.0218549
0.00267825
0.0218479
0.00276451
0.0218498
0.00284929
0.021842
0.00293258
0.0218318
0.00301304
0.0218334
0.0030929
0.0218093
0.00317018
0.0218042
0.00324498
0.0217962
0.00331934
0.0217648
0.00339014
0.0217656
0.00346064
0.02173
0.00352888
0.0217149
0.00359466
0.021701
0.00366103
0.0216536
0.00372361
0.0216536
0.00378766
0.021596
0.00384931
0.0215809
0.00391004
0.0215493
0.00397153
0.021499
0.0214988
0.00402917
-0.000588648
0.0211767
-0.000471498
0.0211868
-0.000358309
0.0212794
-0.000241798
0.0212848
-0.000125432
0.0213352
-7.83299e-06
0.0213691
0.000112989
0.0213838
0.000232794
0.0214423
0.00035595
0.021446
0.000479105
0.0214897
0.000604195
0.0215094
0.000731395
0.0215237
0.000858417
0.0215639
0.000987872
0.0215694
0.00111766
0.0215974
0.00124833
0.0216149
0.00138045
0.0216222
0.001512
0.0216512
0.00164443
0.0216584
0.00177711
0.0216695
0.00190937
0.0216859
0.00204156
0.021693
0.00217318
0.0217022
0.00230401
0.0217107
0.00243379
0.021717
0.00256222
0.0217227
0.00268934
0.0217244
0.00281439
0.0217296
0.00293726
0.021732
0.0030583
0.0217269
0.00317616
0.021732
0.00329146
0.0217267
0.00340407
0.0217192
0.00351245
0.021725
0.00361882
0.0217029
0.00372104
0.0217019
0.00381911
0.0216982
0.0039151
0.0216688
0.00400569
0.021675
0.00409426
0.0216414
0.00417872
0.0216304
0.00425887
0.0216209
0.0043379
0.0215746
0.00441126
0.0215802
0.00448449
0.0215228
0.00455357
0.0215118
0.00462012
0.0214827
0.00468593
0.0214332
0.0214385
0.00474626
-0.00120223
0.0210502
-0.00107017
0.0210547
-0.000939645
0.0211489
-0.000803201
0.0211483
-0.000664764
0.0211968
-0.000522945
0.0212273
-0.000376496
0.0212374
-0.000228987
0.0212948
-7.58795e-05
0.0212929
7.90114e-05
0.0213349
0.00023724
0.0213512
0.000399173
0.0213618
0.000562677
0.0214004
0.00073026
0.0214018
0.000899522
0.0214281
0.00107101
0.0214435
0.00124513
0.021448
0.00141969
0.0214767
0.00159604
0.0214821
0.00177342
0.0214922
0.00195099
0.0215083
0.00212899
0.021515
0.00230675
0.0215244
0.00248387
0.0215335
0.0026599
0.021541
0.00283433
0.0215483
0.00300703
0.0215517
0.00317697
0.0215597
0.00334382
0.0215651
0.00350774
0.021563
0.00366711
0.0215726
0.00382236
0.0215714
0.00397317
0.0215684
0.00411773
0.0215804
0.00425824
0.0215624
0.00439226
0.0215679
0.00451968
0.0215708
0.00464259
0.0215459
0.00475739
0.0215602
0.0048676
0.0215312
0.00497098
0.021527
0.00506732
0.0215245
0.00515999
0.0214819
0.00524429
0.0214959
0.00532609
0.021441
0.00540129
0.0214366
0.00547171
0.0214123
0.00553937
0.0213655
0.0213785
0.00559939
-0.00201586
0.0209133
-0.00186972
0.0209086
-0.00172239
0.0210015
-0.00156579
0.0209917
-0.00140369
0.0210347
-0.00123435
0.0210579
-0.00105617
0.0210592
-0.000873392
0.021112
-0.000681651
0.0211011
-0.000485105
0.0211383
-0.000282185
0.0211483
-7.32915e-05
0.0211529
0.000137938
0.0211892
0.000354209
0.0211855
0.000573925
0.0212084
0.000797956
0.0212194
0.00102619
0.0212198
0.00125637
0.0212465
0.00148967
0.0212488
0.0017252
0.0212566
0.00196201
0.0212715
0.00220013
0.0212768
0.00243871
0.0212859
0.00267716
0.0212951
0.00291468
0.0213034
0.00315048
0.0213125
0.00338417
0.0213181
0.00361423
0.0213296
0.00384002
0.0213394
0.00406139
0.0213416
0.00427619
0.0213578
0.00448462
0.021363
0.00468602
0.021367
0.00487811
0.0213883
0.00506308
0.0213775
0.00523806
0.0213929
0.00540274
0.0214061
0.00555924
0.0213894
0.00570356
0.0214159
0.00583942
0.0213953
0.00596435
0.0214021
0.00607812
0.0214108
0.0061844
0.0213757
0.00627823
0.0214021
0.00636607
0.0213531
0.00644377
0.0213589
0.00651355
0.0213425
0.00657781
0.0213013
0.0213248
0.00663155
-0.00254561
0.0208005
-0.00242198
0.0207849
-0.00229245
0.020872
-0.00214768
0.0208469
-0.00199057
0.0208776
-0.00182016
0.0208875
-0.00163619
0.0208752
-0.00144357
0.0209194
-0.00123965
0.0208972
-0.00102908
0.0209277
-0.000811316
0.0209305
-0.000586993
0.0209286
-0.000358467
0.0209607
-0.000123988
0.020951
0.000113126
0.0209713
0.000352761
0.0209798
0.000599065
0.0209735
0.000847968
0.0209976
0.00110091
0.0209958
0.00135722
0.0210003
0.00161614
0.0210126
0.00187756
0.0210154
0.00214064
0.0210228
0.00240467
0.0210311
0.00266862
0.0210395
0.00293142
0.0210497
0.00319237
0.0210571
0.00344962
0.0210724
0.0037021
0.0210869
0.00394925
0.0210944
0.00418861
0.0211184
0.00441995
0.0211317
0.00464228
0.0211446
0.00485314
0.0211775
0.00505432
0.0211763
0.00524292
0.0212043
0.0054185
0.0212305
0.00558292
0.021225
0.00573242
0.0212664
0.00587036
0.0212574
0.00599445
0.021278
0.00610444
0.0213008
0.00620362
0.0212765
0.00628743
0.0213183
0.00636175
0.0212788
0.00642296
0.0212977
0.00647341
0.0212921
0.00651595
0.0212587
0.0212938
0.00654686
-0.00290661
0.0207106
-0.0028154
0.0206937
-0.00271458
0.0207712
-0.00258782
0.0207202
-0.00243721
0.020727
-0.00226466
0.020715
-0.00207344
0.020684
-0.00187082
0.0207168
-0.00165657
0.0206829
-0.001436
0.0207072
-0.00120927
0.0207038
-0.000977282
0.0206966
-0.000742479
0.0207259
-0.000502878
0.0207114
-0.000259411
0.0207278
-1.13201e-05
0.0207317
0.000236427
0.0207257
0.000489305
0.0207447
0.000747535
0.0207376
0.00101053
0.0207373
0.00127769
0.0207454
0.00154899
0.0207441
0.00182361
0.0207482
0.00210079