/*--------------------------------*- C++ -*----------------------------------*\
| =========                 |                                                 |
| \\      /  F ield         | OpenFOAM: The Open Source CFD Toolbox           |
|  \\    /   O peration     | Version:  2312                                  |
|   \\  /    A nd           | Website:  www.openfoam.com                      |
|    \\/     M anipulation  |                                                 |
\*---------------------------------------------------------------------------*/
FoamFile
{
    version     2.0;
    format      ascii;
    arch        "LSB;label=32;scalar=64";
    class       volScalarField;
    location    "74.749140044245706";
    object      p;
}
// * * * * * * * * * * * * * * * * * * * * * * * * * * * * * * * * * * * * * //

dimensions      [0 2 -2 0 0 0 0];

internalField   nonuniform List<scalar> 
21039
(
0.595085
0.461274
0.419091
0.39085
0.369542
0.35348
0.341066
0.331197
0.323193
0.316602
0.311109
0.306485
0.302558
0.299198
0.296303
0.29379
0.291594
0.289659
0.287937
0.286388
0.284979
0.283678
0.282458
0.281356
0.280404
0.279559
0.278784
0.278046
0.277334
0.447983
0.410112
0.396284
0.377923
0.361168
0.347897
0.337168
0.328348
0.321044
0.314943
0.309806
0.305447
0.301723
0.298522
0.295755
0.293347
0.291237
0.289375
0.287716
0.286222
0.284859
0.283596
0.282408
0.281328
0.280385
0.279543
0.278768
0.278032
0.27732
0.358512
0.356116
0.35828
0.351544
0.34311
0.335327
0.328093
0.321588
0.315886
0.310928
0.306626
0.302895
0.299656
0.296837
0.294377
0.292222
0.290325
0.288643
0.28714
0.285783
0.284541
0.283385
0.28229
0.281284
0.280395
0.279592
0.278847
0.278135
0.277444
0.320352
0.322468
0.326942
0.325867
0.323256
0.320049
0.316263
0.312366
0.308626
0.305145
0.30197
0.299113
0.296562
0.294296
0.292289
0.290511
0.288934
0.287529
0.286269
0.285128
0.28408
0.283101
0.282168
0.281299
0.280516
0.279798
0.279119
0.278459
0.277808
0.295258
0.299228
0.305119
0.306834
0.307045
0.30633
0.304812
0.302904
0.300827
0.298708
0.296643
0.294693
0.292889
0.291243
0.289758
0.288426
0.287236
0.286171
0.285216
0.284351
0.283556
0.282812
0.282098
0.28142
0.28079
0.280191
0.279607
0.27902
0.278423
0.275526
0.280784
0.288132
0.292001
0.294018
0.29484
0.294787
0.294241
0.293384
0.292341
0.291215
0.290077
0.288975
0.287938
0.286985
0.286122
0.28535
0.284664
0.284054
0.283509
0.283014
0.282552
0.282107
0.281667
0.281227
0.28078
0.280316
0.279821
0.279294
0.262647
0.267673
0.274761
0.279703
0.282933
0.28489
0.285928
0.286394
0.286463
0.286268
0.285913
0.285472
0.284997
0.284527
0.284086
0.28369
0.283347
0.28306
0.282823
0.282632
0.282475
0.282339
0.282209
0.282051
0.281842
0.281579
0.281263
0.280883
0.280443
0.255224
0.259328
0.265059
0.27
0.273711
0.276309
0.278073
0.279271
0.28005
0.280532
0.280813
0.280966
0.281046
0.281091
0.281133
0.28119
0.281275
0.281396
0.281552
0.281741
0.281955
0.282183
0.282413
0.282584
0.282648
0.282607
0.282468
0.282229
0.281895
0.250563
0.253766
0.258123
0.262603
0.266301
0.269114
0.27125
0.272903
0.27418
0.275175
0.275965
0.276615
0.277175
0.277684
0.278172
0.278661
0.279165
0.279696
0.280256
0.280844
0.281458
0.282086
0.282719
0.283267
0.283648
0.283868
0.283941
0.28387
0.283663
0.24701
0.249462
0.252777
0.256723
0.260226
0.263046
0.26534
0.267247
0.268847
0.270208
0.271389
0.272442
0.27341
0.274327
0.275222
0.276116
0.277025
0.277961
0.27893
0.279933
0.280968
0.282028
0.283105
0.284077
0.284822
0.285345
0.285667
0.285797
0.285746
0.243868
0.245717
0.248284
0.251717
0.254977
0.257735
0.260089
0.26214
0.26395
0.265571
0.26705
0.268427
0.269736
0.271009
0.272271
0.273541
0.274837
0.276169
0.277546
0.278971
0.280446
0.281967
0.283528
0.284968
0.28612
0.286988
0.287595
0.287953
0.288094
0.240832
0.242231
0.244268
0.247235
0.250239
0.252906
0.25527
0.257401
0.259352
0.261164
0.262872
0.264511
0.266108
0.267691
0.269281
0.270899
0.272559
0.274275
0.276055
0.277905
0.27983
0.28183
0.283905
0.285855
0.287463
0.28872
0.289649
0.29026
0.29058
0.237749
0.238833
0.240501
0.243066
0.245823
0.248381
0.250721
0.25289
0.254933
0.256883
0.25877
0.26062
0.262459
0.26431
0.266195
0.268131
0.270133
0.272216
0.274389
0.276661
0.279036
0.281521
0.284124
0.286614
0.288715
0.290409
0.291715
0.292637
0.293195
0.234562
0.235426
0.236829
0.239056
0.241585
0.244027
0.246321
0.248497
0.250594
0.252642
0.254663
0.256682
0.258722
0.260804
0.262948
0.265173
0.267495
0.269927
0.27248
0.27516
0.277974
0.28093
0.284048
0.287067
0.289665
0.291814
0.293526
0.294792
0.295624
0.23126
0.231969
0.233162
0.235091
0.237399
0.239719
0.241955
0.244118
0.246241
0.248351
0.250469
0.252617
0.254817
0.257092
0.259461
0.261945
0.264563
0.267326
0.270243
0.273316
0.276548
0.27994
0.283515
0.286985
0.290001
0.292551
0.294645
0.296262
0.297394
0.22813
0.228727
0.229754
0.231458
0.233586
0.235792
0.237964
0.240102
0.242231
0.244375
0.246555
0.248793
0.251111
0.253534
0.256087
0.258793
0.261671
0.264732
0.267982
0.271417
0.275022
0.278777
0.282671
0.286356
0.289486
0.292112
0.294312
0.296099
0.297456
0.225493
0.226017
0.226939
0.2285
0.230492
0.232598
0.234715
0.236833
0.238966
0.241134
0.243357
0.245661
0.24807
0.250612
0.253318
0.256213
0.259319
0.262648
0.266205
0.269978
0.273933
0.278007
0.282117
0.285771
0.28857
0.290634
0.292195
0.293488
0.294723
0.22332
0.223796
0.224645
0.226101
0.227989
0.230027
0.23212
0.234241
0.23639
0.238583
0.240848
0.243211
0.245701
0.248354
0.251202
0.254274
0.257598
0.26119
0.265057
0.269184
0.273525
0.277973
0.282354
0.285948
0.288117
0.288849
0.288367
0.287154
0.286293
0.221578
0.222103
0.22297
0.224324
0.22604
0.227964
0.230038
0.232186
0.23437
0.236602
0.238916
0.241347
0.243923
0.246692
0.249685
0.252939
0.256485
0.260351
0.264549
0.26907
0.273869
0.278828
0.283717
0.287589
0.289402
0.288619
0.28486
0.277515
0.266217
0.276637
0.275936
0.275242
0.274554
0.27387
0.273189
0.272511
0.271834
0.271158
0.270481
0.269803
0.269123
0.26844
0.267753
0.267063
0.266367
0.265666
0.264959
0.264245
0.263525
0.262797
0.262063
0.261321
0.260572
0.259815
0.259052
0.258282
0.257505
0.256722
0.255934
0.25514
0.25434
0.253537
0.25273
0.251921
0.251109
0.250296
0.249483
0.24867
0.247859
0.24705
0.246244
0.245443
0.244647
0.243857
0.243074
0.2423
0.241533
0.240775
0.276626
0.275935
0.275252
0.274575
0.273901
0.273231
0.272563
0.271896
0.271229
0.270562
0.269893
0.269222
0.268547
0.267868
0.267185
0.266495
0.2658
0.265097
0.264388
0.26367
0.262945
0.262212
0.261471
0.260721
0.259963
0.259198
0.258425
0.257644
0.256856
0.256062
0.255262
0.254456
0.253645
0.25283
0.252012
0.251192
0.250369
0.249546
0.248723
0.247901
0.247081
0.246264
0.245451
0.244643
0.243841
0.243046
0.24226
0.241482
0.240713
0.276774
0.276109
0.27545
0.274797
0.274147
0.273499
0.272853
0.272206
0.271559
0.27091
0.270258
0.269601
0.26894
0.268272
0.267598
0.266916
0.266227
0.265528
0.26482
0.264103
0.263376
0.262639
0.261892
0.261135
0.260368
0.259592
0.258806
0.258011
0.257207
0.256396
0.255577
0.254751
0.253919
0.253082
0.25224
0.251395
0.250548
0.249698
0.248848
0.247998
0.24715
0.246304
0.245461
0.244623
0.243791
0.242965
0.242147
0.241338
0.240538
0.277176
0.27655
0.275929
0.27531
0.274693
0.274076
0.273459
0.272839
0.272216
0.271589
0.270956
0.270317
0.26967
0.269014
0.268349
0.267673
0.266987
0.266289
0.265579
0.264857
0.264122
0.263374
0.262614
0.261841
0.261056
0.260258
0.259449
0.258629
0.257798
0.256956
0.256106
0.255247
0.254379
0.253506
0.252626
0.251741
0.250852
0.24996
0.249066
0.248171
0.247277
0.246384
0.245494
0.244607
0.243725
0.242849
0.24198
0.241118
0.240266
0.277842
0.277269
0.276696
0.276122
0.275546
0.274969
0.274387
0.2738
0.273206
0.272605
0.271994
0.271373
0.270741
0.270097
0.269439
0.268768
0.268082
0.26738
0.266663
0.26593
0.265181
0.264416
0.263635
0.262838
0.262025
0.261197
0.260354
0.259498
0.258627
0.257745
0.25685
0.255944
0.255028
0.254104
0.253171
0.252231
0.251286
0.250336
0.249383
0.248427
0.247471
0.246514
0.245559
0.244607
0.243658
0.242713
0.241775
0.240843
0.239921
0.278778
0.278271
0.277757
0.277238
0.276715
0.276184
0.275646
0.275098
0.274539
0.273967
0.273382
0.272782
0.272166
0.271533
0.270883
0.270213
0.269524
0.268816
0.268087
0.267338
0.266568
0.265778
0.264968
0.264138
0.263288
0.262419
0.261532
0.260628
0.259706
0.258769
0.257817
0.256851
0.255873
0.254883
0.253883
0.252873
0.251856
0.250832
0.249803
0.24877
0.247735
0.246698
0.245661
0.244626
0.243592
0.242563
0.241538
0.240519
0.239508
0.280007
0.279578
0.279136
0.278684
0.278222
0.277748
0.277261
0.276758
0.276239
0.275702
0.275146
0.274569
0.273971
0.273349
0.272704
0.272035
0.27134
0.27062
0.269875
0.269103
0.268306
0.267484
0.266636
0.265763
0.264866
0.263946
0.263003
0.262038
0.261053
0.260048
0.259024
0.257984
0.256927
0.255856
0.254773
0.253677
0.252571
0.251457
0.250335
0.249208
0.248076
0.246941
0.245805
0.244668
0.243533
0.2424
0.24127
0.240146
0.239031
0.281553
0.281217
0.280859
0.280485
0.280095
0.279687
0.279259
0.278809
0.278336
0.277838
0.277314
0.276762
0.276182
0.275571
0.274931
0.274259
0.273556
0.27282
0.272052
0.271253
0.270421
0.269557
0.268663
0.267738
0.266783
0.2658
0.264789
0.263751
0.262688
0.261601
0.260491
0.259361
0.25821
0.257042
0.255858
0.254659
0.253446
0.252223
0.25099
0.249749
0.248502
0.247249
0.245995
0.244738
0.243482
0.242226
0.240973
0.239726
0.238488
0.283434
0.283202
0.282941
0.282657
0.282351
0.282018
0.281659
0.281269
0.280848
0.280394
0.279906
0.279382
0.278821
0.278223
0.277586
0.27691
0.276195
0.27544
0.274646
0.273812
0.272939
0.272027
0.271077
0.270091
0.269068
0.26801
0.266919
0.265795
0.26464
0.263456
0.262245
0.261007
0.259746
0.258462
0.257158
0.255836
0.254497
0.253145
0.25178
0.250404
0.249021
0.24763
0.246236
0.244837
0.243438
0.24204
0.240642
0.239251
0.23787
0.285646
0.285526
0.285377
0.285199
0.28499
0.284745
0.284463
0.284143
0.283782
0.283379
0.282932
0.282441
0.281903
0.281319
0.280688
0.280009
0.279281
0.278505
0.277682
0.27681
0.275891
0.274926
0.273914
0.272858
0.271758
0.270615
0.269432
0.268209
0.266948
0.265652
0.264322
0.262959
0.261568
0.260148
0.258704
0.257237
0.255749
0.254243
0.252722
0.251187
0.249642
0.248088
0.246528
0.244963
0.243396
0.241829
0.240263
0.238704
0.237158
0.288198
0.28814
0.288137
0.288086
0.287984
0.28784
0.287651
0.287413
0.287124
0.286782
0.286386
0.285936
0.28543
0.284868
0.284248
0.283571
0.282836
0.282043
0.281193
0.280286
0.279321
0.278301
0.277224
0.276094
0.27491
0.273674
0.272389
0.271055
0.269674
0.268249
0.266782
0.265275
0.263731
0.262152
0.260541
0.258903
0.257236
0.255549
0.253841
0.252116
0.250378
0.248627
0.24687
0.245106
0.24334
0.241574
0.239808
0.238051
0.236312
0.290837
0.291052
0.291199
0.291292
0.2913
0.291272
0.291188
0.291042
0.290838
0.290573
0.290245
0.289853
0.289395
0.288871
0.28828
0.287621
0.286893
0.286097
0.285233
0.2843
0.283298
0.28223
0.281092
0.279889
0.278621
0.277288
0.275893
0.274438
0.272923
0.271352
0.269728
0.268051
0.266328
0.264559
0.26275
0.260904
0.259022
0.257113
0.255176
0.253219
0.251244
0.249254
0.247255
0.245249
0.243241
0.241233
0.239226
0.237233
0.235263
0.293641
0.294011
0.29431
0.294562
0.294758
0.294883
0.294934
0.294914
0.29483
0.294676
0.294451
0.294152
0.293779
0.293329
0.292801
0.292195
0.291507
0.290738
0.28989
0.288956
0.287941
0.286843
0.28566
0.284397
0.283051
0.281622
0.280115
0.278531
0.276867
0.275131
0.273325
0.271449
0.269511
0.267511
0.265457
0.263354
0.261203
0.259015
0.256791
0.254539
0.252265
0.249971
0.247669
0.245358
0.243046
0.240737
0.238433
0.236148
0.233896
0.296306
0.296871
0.297359
0.297788
0.298154
0.298455
0.298692
0.298859
0.298953
0.298968
0.298913
0.298795
0.298574
0.298269
0.297871
0.297379
0.29679
0.296106
0.295326
0.294441
0.293456
0.292368
0.291173
0.289874
0.28847
0.286956
0.285339
0.283618
0.281791
0.279866
0.277843
0.275724
0.273519
0.271227
0.26886
0.266424
0.263921
0.261366
0.258761
0.256119
0.253449
0.250753
0.248049
0.245338
0.242631
0.239934
0.23725
0.234598
0.231995
0.298342
0.299124
0.299839
0.300512
0.301137
0.301715
0.302237
0.302698
0.303089
0.303397
0.303618
0.303739
0.303761
0.303733
0.303568
0.303296
0.302906
0.302398
0.301773
0.301015
0.300134
0.299121
0.297969
0.296683
0.295255
0.29368
0.291965
0.290105
0.288096
0.28595
0.283664
0.281241
0.278694
0.276022
0.27324
0.270358
0.267378
0.264323
0.261198
0.258019
0.2548
0.251551
0.248293
0.245032
0.241789
0.23857
0.235384
0.232255
0.229205
0.29864
0.299597
0.300585
0.30164
0.302727
0.30382
0.304875
0.305863
0.306763
0.307549
0.308221
0.308763
0.309166
0.309429
0.309565
0.309654
0.309575
0.309353
0.308988
0.308459
0.307776
0.306929
0.305902
0.304699
0.303309
0.301717
0.299931
0.297943
0.295743
0.293345
0.290746
0.28795
0.284973
0.281814
0.278496
0.275031
0.271426
0.26771
0.263891
0.259994
0.256039
0.25204
0.248032
0.244027
0.240059
0.236148
0.232313
0.22859
0.225012
0.296074
0.297109
0.298546
0.300373
0.302383
0.304423
0.306365
0.308144
0.309732
0.31111
0.312299
0.313297
0.314128
0.314801
0.315303
0.315649
0.315856
0.316121
0.316079
0.315849
0.315449
0.314857
0.314047
0.313017
0.311746
0.310209
0.30841
0.306334
0.303965
0.301319
0.298391
0.295188
0.291731
0.288023
0.284095
0.279965
0.275645
0.271175
0.266564
0.261844
0.257037
0.252162
0.247259
0.242346
0.237472
0.232678
0.228013
0.223555
0.219368
0.28623
0.287712
0.291321
0.29577
0.300107
0.303982
0.30728
0.310041
0.312347
0.314266
0.31589
0.317256
0.318427
0.319437
0.320289
0.321007
0.321552
0.321939
0.322557
0.322685
0.32265
0.322418
0.321934
0.321188
0.320139
0.318746
0.317003
0.314883
0.312362
0.309461
0.306171
0.302506
0.298499
0.294157
0.289528
0.284641
0.279515
0.274207
0.268728
0.263121
0.257406
0.251593
0.245718
0.239778
0.233812
0.227857
0.221996
0.216433
0.211451
0.257653
0.268765
0.281368
0.291722
0.299499
0.305227
0.309468
0.31271
0.315278
0.317373
0.319145
0.320661
0.322004
0.323214
0.324314
0.325342
0.32627
0.327074
0.327756
0.328603
0.329001
0.329213
0.329158
0.328807
0.328103
0.326972
0.325387
0.323304
0.320689
0.317565
0.313931
0.309804
0.305235
0.300243
0.294896
0.28924
0.283309
0.277177
0.27087
0.264439
0.257909
0.251284
0.244581
0.237748
0.230747
0.223487
0.215883
0.208004
0.200484
0.240036
0.239279
0.238473
0.237611
0.23668
0.235675
0.234625
0.233662
0.232883
0.232319
0.232003
0.231964
0.232256
0.232919
0.234004
0.235578
0.237718
0.240524
0.244123
0.24868
0.254423
0.261663
0.270847
0.282653
0.298181
0.319031
0.346895
0.388712
0.522218
0.239959
0.239186
0.238361
0.237476
0.236513
0.235471
0.234376
0.233364
0.232535
0.231917
0.231543
0.231447
0.231668
0.232246
0.233232
0.234683
0.236671
0.23928
0.24262
0.246829
0.252087
0.258633
0.266773
0.276897
0.289633
0.30592
0.323892
0.337341
0.37493
0.239752
0.238943
0.238074
0.237134
0.236104
0.23498
0.233784
0.232659
0.23171
0.230966
0.230455
0.230208
0.230255
0.230631
0.231376
0.232533
0.234152
0.236292
0.239018
0.242405
0.246535
0.251489
0.257324
0.263959
0.271208
0.279164
0.285481
0.282889
0.285011
0.239426
0.238555
0.237614
0.236587
0.235453
0.234201
0.23285
0.23155
0.230419
0.22948
0.228758
0.228278
0.228063
0.228136
0.228524
0.22925
0.230338
0.231812
0.233688
0.235971
0.238643
0.241653
0.244893
0.248089
0.250766
0.252891
0.253513
0.248589
0.24623
0.239005
0.238052
0.237012
0.235869
0.234594
0.233172
0.231617
0.230091
0.228724
0.227538
0.226553
0.225787
0.225253
0.224966
0.224936
0.22517
0.225671
0.22643
0.22743
0.228631
0.229969
0.23134
0.232611
0.233554
0.233747
0.23305
0.230869
0.224545
0.220384
0.2385
0.237442
0.23628
0.234991
0.233543
0.231911
0.230107
0.228309
0.226665
0.225193
0.223908
0.222822
0.221942
0.221272
0.220811
0.220555
0.220487
0.220586
0.220813
0.221115
0.221413
0.221597
0.221534
0.221035
0.219712
0.21722
0.212891
0.205142
0.199745
0.23791
0.236726
0.235416
0.233952
0.232296
0.230416
0.22832
0.226208
0.22425
0.22246
0.22085
0.219426
0.218189
0.217137
0.21626
0.215543
0.214962
0.214486
0.214069
0.213649
0.213146
0.212447
0.211413
0.209858
0.20743
0.203749
0.19837
0.190924
0.185806
0.237233
0.235899
0.234415
0.232744
0.230843
0.228675
0.226244
0.223779
0.221475
0.219343
0.217392
0.215623
0.214032
0.212611
0.211345
0.210211
0.209181
0.208218
0.207271
0.206278
0.205158
0.203806
0.202092
0.19986
0.196832
0.192709
0.187375
0.181345
0.177192
0.23646
0.23495
0.23326
0.231348
0.229164
0.226665
0.223856
0.221001
0.218323
0.215832
0.213533
0.211421
0.20949
0.207725
0.206106
0.204608
0.203199
0.201837
0.200474
0.19905
0.197492
0.195713
0.19361
0.191067
0.187884
0.183833
0.179023
0.174436
0.171215
0.235566
0.23385
0.231921
0.22973
0.22722
0.224344
0.221112
0.217831
0.214757
0.211897
0.20925
0.206808
0.204559
0.202484
0.200559
0.198757
0.197041
0.195373
0.193706
0.191986
0.190154
0.188139
0.185864
0.183243
0.180128
0.17635
0.172152
0.168677
0.166229
0.234506
0.23255
0.230342
0.227826
0.224941
0.22164
0.217939
0.214201
0.210714
0.207481
0.204496
0.201745
0.199211
0.196868
0.19469
0.192646
0.1907
0.188813
0.186942
0.18504
0.183057
0.180938
0.17862
0.176034
0.173072
0.169632
0.166034
0.163375
0.161545
0.233204
0.230964
0.228428
0.225534
0.222219
0.218438
0.214224
0.210001
0.206093
0.202496
0.199195
0.196169
0.193391
0.190833
0.188461
0.186241
0.184138
0.182111
0.180122
0.178128
0.176085
0.173948
0.171667
0.169184
0.166422
0.163342
0.160305
0.158237
0.156868
0.231531
0.228952
0.226029
0.222695
0.218887
0.214572
0.209805
0.205082
0.200762
0.196827
0.193248
0.189993
0.187028
0.184314
0.181814
0.179489
0.177301
0.17521
0.173179
0.171168
0.169138
0.167053
0.164868
0.162537
0.160007
0.157289
0.154749
0.153104
0.152056
0.229253
0.226266
0.222885
0.21904
0.214678
0.209784
0.204446
0.199237
0.19454
0.190318
0.186524
0.183111
0.180031
0.177237
0.174685
0.172332
0.170134
0.168054
0.166052
0.164093
0.162142
0.160164
0.158125
0.155983
0.153704
0.151336
0.149224
0.147889
0.147063
0.225994
0.222514
0.218597
0.214175
0.209215
0.203729
0.197846
0.192211
0.187218
0.182799
0.178884
0.175408
0.172308
0.169527
0.167012
0.164714
0.162589
0.160595
0.158695
0.156853
0.155037
0.153217
0.151362
0.149435
0.147423
0.145398
0.143667
0.142573
0.141895
0.221266
0.217253
0.212794
0.20783
0.202354
0.196405
0.19014
0.184254
0.179132
0.174673
0.170783
0.167376
0.164377
0.161718
0.159339
0.157187
0.155214
0.153377
0.15164
0.149968
0.148329
0.146697
0.145045
0.143345
0.141595
0.139872
0.138445
0.13754
0.136963
0.215034
0.2105
0.205622
0.200326
0.194592
0.188452
0.182071
0.176167
0.17111
0.166774
0.163045
0.159823
0.157021
0.154563
0.152387
0.150436
0.148661
0.147019
0.145472
0.143988
0.142536
0.14109
0.139631
0.138145
0.136637
0.135172
0.133975
0.133209
0.132703
0.206606
0.201851
0.197057
0.191908
0.186301
0.180273
0.17402
0.168288
0.163443
0.159346
0.155872
0.152908
0.15036
0.14815
0.146211
0.144486
0.142928
0.141493
0.140144
0.13885
0.137579
0.136306
0.135013
0.133703
0.1324
0.131159
0.130156
0.129513
0.129067
0.194598
0.191079
0.187471
0.183045
0.177907
0.172216
0.16626
0.160831
0.156296
0.152513
0.149347
0.146679
0.144413
0.142467
0.140774
0.13928
0.137937
0.136703
0.135544
0.134428
0.133322
0.132196
0.131039
0.129893
0.128832
0.127878
0.127074
0.126476
0.126008
0.219807
0.220112
0.220796
0.222168
0.22407
0.226194
0.228387
0.230586
0.2328
0.23507
0.237441
0.23995
0.242631
0.245527
0.248675
0.252118
0.255894
0.260036
0.264562
0.269472
0.274729
0.280214
0.285668
0.290001
0.291816
0.289882
0.282615
0.267588
0.236217
0.218054
0.21848
0.219276
0.220634
0.222447
0.224491
0.226641
0.228838
0.231087
0.23342
0.235875
0.238485
0.24129
0.244331
0.247651
0.251297
0.255315
0.259746
0.264623
0.269966
0.27578
0.282012
0.288495
0.294247
0.297951
0.298865
0.296364
0.292423
0.296855
0.216276
0.216783
0.217661
0.21901
0.220751
0.222715
0.224804
0.226976
0.229237
0.231611
0.234126
0.236815
0.239717
0.242877
0.246344
0.250171
0.254418
0.259142
0.264405
0.270272
0.276842
0.284236
0.29261
0.3015
0.31001
0.318383
0.326857
0.334316
0.351512
0.214447
0.214932
0.215781
0.217113
0.218855
0.220821
0.2229
0.225063
0.227327
0.22972
0.232271
0.235014
0.237988
0.24124
0.244825
0.248807
0.253257
0.258256
0.2639
0.270318
0.277722
0.286455
0.297085
0.309752
0.323634
0.339147
0.357134
0.37364
0.395959
0.21257
0.213019
0.213816
0.215114
0.216853
0.218829
0.220911
0.223071
0.225334
0.227736
0.230308
0.233084
0.236106
0.239424
0.243099
0.247201
0.251814
0.257041
0.263013
0.269918
0.278072
0.288005
0.300612
0.316507
0.334602
0.35513
0.379851
0.403059
0.429073
0.210647
0.211077
0.21184
0.213098
0.214803
0.216756
0.218822
0.220968
0.223222
0.225619
0.228193
0.23098
0.234024
0.237376
0.2411
0.245274
0.249991
0.255369
0.261568
0.268817
0.277511
0.288256
0.302158
0.32013
0.340453
0.363483
0.390638
0.420037
0.449774
0.208672
0.209092
0.209831
0.211046
0.212697
0.214605
0.216633
0.218747
0.220973
0.223346
0.2259
0.228671
0.231703
0.235049
0.238773
0.242957
0.247699
0.253126
0.259413
0.266802
0.275761
0.286747
0.301104
0.319282
0.341373
0.365615
0.391778
0.419349
0.447213
0.206643
0.207049
0.207762
0.208929
0.21052
0.212367
0.214342
0.216408
0.218586
0.220912
0.223419
0.226143
0.229126
0.232419
0.236087
0.24021
0.244887
0.250238
0.256453
0.263726
0.272696
0.283086
0.297601
0.315702
0.336817
0.359395
0.382596
0.406084
0.429613
0.204555
0.204948
0.205632
0.206746
0.208266
0.210042
0.211948
0.213948
0.216059
0.218314
0.220747
0.223389
0.226282
0.229473
0.233024
0.23701
0.241522
0.246661
0.252628
0.259491
0.267848
0.278246
0.291762
0.308304
0.32677
0.346146
0.365695
0.385156
0.403864
0.202408
0.202789
0.203443
0.204499
0.205937
0.207627
0.20945
0.211365
0.213388
0.215549
0.217877
0.220404
0.223165
0.226204
0.229576
0.233344
0.237594
0.242386
0.247897
0.254346
0.261989
0.271434
0.283245
0.297288
0.312474
0.328049
0.343466
0.358735
0.372904
0.200201
0.200568
0.201189
0.202181
0.203532
0.205125
0.206849
0.208662
0.210577
0.212619
0.214816
0.217194
0.219783
0.222621
0.225753
0.22923
0.233119
0.2375
0.24247
0.248237
0.254902
0.262855
0.272527
0.283652
0.295287
0.306797
0.317794
0.328585
0.338343
0.197933
0.198287
0.198874
0.199799
0.201055
0.202539
0.204149
0.205844
0.20763
0.209532
0.21157
0.213767
0.216148
0.218741
0.22158
0.224707
0.228177
0.232047
0.236351
0.241209
0.246681
0.252968
0.260296
0.268322
0.276311
0.283789
0.29053
0.297012
0.30267
0.195609
0.195954
0.19651
0.197365
0.198515
0.199877
0.201356
0.202913
0.204552
0.206291
0.208146
0.210134
0.212271
0.214579
0.217085
0.219813
0.222792
0.226052
0.229585
0.233425
0.237589
0.242132
0.247056
0.251993
0.256484
0.26026
0.263267
0.266031
0.268218
0.193228
0.19356
0.194078
0.19486
0.195902
0.197135
0.198475
0.199882
0.201357
0.202915
0.204565
0.206319
0.208187
0.21018
0.212312
0.214594
0.217029
0.219612
0.222313
0.225096
0.227909
0.230693
0.233281
0.235337
0.236704
0.237318
0.237275
0.237093
0.236628
0.190795
0.191116
0.191598
0.192304
0.193233
0.194329
0.195517
0.196762
0.19806
0.199421
0.200851
0.202353
0.203931
0.205584
0.207315
0.209117
0.210974
0.212852
0.214694
0.216412
0.21789
0.218982
0.219415
0.218929
0.21766
0.21572
0.213313
0.210951
0.20866
0.188317
0.188628
0.189074
0.189703
0.190514
0.191465
0.192494
0.193566
0.194674
0.195827
0.197025
0.198262
0.199532
0.200828
0.202137
0.20344
0.204702
0.205867
0.206846
0.207518
0.207719
0.207249
0.205766
0.203123
0.199718
0.195805
0.191658
0.187789
0.184389
0.185795
0.186095
0.186503
0.187053
0.187747
0.188552
0.189417
0.190308
0.191222
0.192162
0.193118
0.19408
0.195034
0.195963
0.196844
0.197642
0.198308
0.198766
0.198906
0.19858
0.197598
0.195727
0.192594
0.188179
0.183109
0.177745
0.172382
0.16754
0.163569
0.183239
0.183529
0.183898
0.184371
0.184948
0.185603
0.186301
0.187007
0.187725
0.188447
0.189159
0.189843
0.190479
0.191041
0.191495
0.191796
0.19188
0.191656
0.191
0.189749
0.187698
0.1846
0.180084
0.174259
0.167941
0.161557
0.155374
0.149931
0.145736
0.180655
0.18094
0.181272
0.18167
0.182131
0.18263
0.183155
0.18368
0.1842
0.184703
0.185171
0.18558
0.185902
0.186104
0.186143
0.185964
0.185492
0.184625
0.183229
0.181134
0.178133
0.173978
0.16832
0.161397
0.154173
0.147101
0.140383
0.13459
0.130385
0.17805
0.178328
0.17862
0.178943
0.179295
0.17963
0.180003
0.180346
0.180671
0.18096
0.18119
0.181331
0.181351
0.181208
0.180852
0.18022
0.179229
0.17777
0.175702
0.172853
0.169019
0.163965
0.157376
0.149618
0.141767
0.134276
0.127246
0.12129
0.117229
0.175431
0.175705
0.175956
0.17621
0.176427
0.176662
0.176858
0.177021
0.177159
0.177242
0.177245
0.177133
0.176867
0.176402
0.175681
0.174636
0.173175
0.171187
0.168526
0.165023
0.160479
0.154675
0.147339
0.13896
0.130708
0.123016
0.115856
0.109902
0.106138
0.172806
0.173079
0.173292
0.17347
0.1736
0.173693
0.173724
0.173723
0.173682
0.173572
0.173361
0.173014
0.172486
0.171728
0.170679
0.169265
0.167394
0.164948
0.161784
0.157732
0.152602
0.146187
0.13826
0.129422
0.120933
0.113211
0.106075
0.100288
0.0970169
0.170184
0.170447
0.170649
0.170768
0.170792
0.170735
0.170618
0.170462
0.170255
0.169966
0.169561
0.169
0.168236
0.167218
0.165883
0.164153
0.161936
0.159113
0.155543
0.151056
0.145468
0.138579
0.130192
0.121
0.112358
0.104699
0.097692
0.0922323
0.0897127
0.167572
0.167829
0.168009
0.168067
0.167986
0.167802
0.167551
0.167254
0.166897
0.166448
0.16587
0.16512
0.164151
0.16291
0.161333
0.159346
0.156853
0.153741
0.14987
0.145076
0.139176
0.131965
0.123259
0.113794
0.105015
0.0974144
0.0905454
0.0855161
0.0840123
0.164976
0.165234
0.165394
0.165394
0.165216
0.164912
0.164534
0.16411
0.163621
0.163033
0.162305
0.161394
0.160253
0.158829
0.157062
0.154878
0.152187
0.14888
0.144825
0.139867
0.133823
0.12648
0.117636
0.107998
0.0990487
0.0913699
0.0844584
0.0798401
0.0796677
0.162403
0.162656
0.162787
0.162727
0.16246
0.162052
0.16157
0.161042
0.160447
0.159745
0.158892
0.157848
0.156569
0.155005
0.153099
0.150782
0.147971
0.144568
0.140454
0.135488
0.1295
0.122273
0.113576
0.104012
0.0949682
0.087036
0.0796157
0.0749913
0.0763882
0.159877
0.160178
0.160339
0.160245
0.159868
0.159307
0.158685
0.15805
0.157365
0.156572
0.155623
0.154479
0.153099
0.151439
0.149446
0.147059
0.144207
0.140803
0.13675
0.131933
0.12621
0.119355
0.111089
0.101871
0.0929057
0.0846922
0.0763159
0.0704847
0.0725863
0.162729
0.145023
0.120266
0.0882609
0.051911
0.0159565
-0.0167528
-0.0467137
-0.074157
-0.103153
-0.132973
-0.166973
-0.202021
-0.234852
-0.261353
-0.278914
-0.287667
-0.289937
-0.289489
0.171621
0.158655
0.135142
0.102643
0.0631363
0.0208234
-0.0209873
-0.0625484
-0.101988
-0.145183
-0.188523
-0.232393
-0.274501
-0.311377
-0.339686
-0.358259
-0.368445
-0.372943
-0.374593
0.168321
0.156704
0.134611
0.102404
0.0609869
0.014037
-0.0348164
-0.0874986
-0.140252
-0.1934
-0.246414
-0.29823
-0.345986
-0.386268
-0.416566
-0.436617
-0.448307
-0.45437
-0.45738
0.159516
0.148167
0.12803
0.0966159
0.0532534
0.00161558
-0.0548057
-0.114635
-0.176293
-0.238641
-0.300715
-0.360405
-0.41398
-0.457782
-0.489855
-0.510818
-0.523317
-0.530355
-0.53433
0.147505
0.137233
0.118882
0.0881528
0.0436529
-0.0109713
-0.0724869
-0.138729
-0.208264
-0.279502
-0.349988
-0.416267
-0.473951
-0.5196
-0.552242
-0.573517
-0.58668
-0.594675
-0.599493
0.130977
0.12145
0.104791
0.0754732
0.0312233
-0.0248469
-0.0898054
-0.161655
-0.238152
-0.316689
-0.393579
-0.464306
-0.524286
-0.570783
-0.603902
-0.626012
-0.640616
-0.650365
-0.656819
0.110356
0.100176
0.0842183
0.0562207
0.0128838
-0.0436128
-0.110654
-0.186154
-0.267141
-0.349929
-0.429781
-0.501429
-0.560486
-0.605196
-0.636702
-0.657905
-0.672395
-0.682397
-0.689117
0.0867467
0.0747697
0.0581375
0.0304368
-0.0122042
-0.0684535
-0.136029
-0.212701
-0.295077
-0.378686
-0.457993
-0.527446
-0.583327
-0.625009
-0.654448
-0.674715
-0.689152
-0.69942
-0.706484
0.0610782
0.0468297
0.0284983
-6.07314e-05
-0.0425969
-0.0982265
-0.164996
-0.240682
-0.321637
-0.40282
-0.47824
-0.542596
-0.593188
-0.630447
-0.656838
-0.675363
-0.68901
-0.698957
-0.705858
0.0342071
0.0177273
-0.00273706
-0.0328671
-0.0758107
-0.130697
-0.195811
-0.269027
-0.346554
-0.423015
-0.492397
-0.550116
-0.594628
-0.62723
-0.650629
-0.667589
-0.680691
-0.690753
-0.698087
0.00707219
-0.0113325
-0.0339186
-0.0658369
-0.109499
-0.163714
-0.226778
-0.296513
-0.368892
-0.438364
-0.499356
-0.548439
-0.585289
-0.61185
-0.630831
-0.64467
-0.655472
-0.663848
-0.669918
-0.0192365
-0.0390892
-0.0634366
-0.0968595
-0.141123
-0.194547
-0.255208
-0.320698
-0.386775
-0.448076
-0.499982
-0.540439
-0.570145
-0.591328
-0.606447
-0.617497
-0.626079
-0.632724
-0.637452
-0.0437152
-0.0644571
-0.0899963
-0.124283
-0.16861
-0.220819
-0.278691
-0.33955
-0.399079
-0.452423
-0.49612
-0.52933
-0.553399
-0.570555
-0.582911
-0.592073
-0.599274
-0.605052
-0.609269
-0.065669
-0.0867791
-0.112925
-0.147367
-0.191095
-0.241534
-0.296125
-0.351874
-0.404508
-0.449932
-0.485936
-0.512699
-0.531915
-0.545631
-0.555573
-0.562997
-0.568822
-0.573559
-0.576985
-0.0846956
-0.105728
-0.131942
-0.165879
-0.208341
-0.25641
-0.307218
-0.357539
-0.403387
-0.441635
-0.471234
-0.493059
-0.508864
-0.52038
-0.528941
-0.535481
-0.540677
-0.544981
-0.548116
-0.100765
-0.121383
-0.147224
-0.180131
-0.220801
-0.266064
-0.312856
-0.357875
-0.397618
-0.429923
-0.454631
-0.472982
-0.486609
-0.496913
-0.504901
-0.511264
-0.516521
-0.521031
-0.524428
-0.114201
-0.134194
-0.159372
-0.190927
-0.229477
-0.271628
-0.314158
-0.353839
-0.387829
-0.414929
-0.435648
-0.451347
-0.463414
-0.472907
-0.480543
-0.486809
-0.492102
-0.496663
-0.500107
-0.125447
-0.144711
-0.169061
-0.199099
-0.235378
-0.27431
-0.312613
-0.347298
-0.376287
-0.3992
-0.416947
-0.430829
-0.441944
-0.451041
-0.458592
-0.464914
-0.470311
-0.474927
-0.478405
-0.135034
-0.153558
-0.177041
-0.20556
-0.239625
-0.275515
-0.309987
-0.34039
-0.365338
-0.385038
-0.400589
-0.413152
-0.423567
-0.432342
-0.43977
-0.446053
-0.451432
-0.455998
-0.459427
-0.143527
-0.161387
-0.184112
-0.211242
-0.243188
-0.276096
-0.306872
-0.333339
-0.354798
-0.371865
-0.385655
-0.397117
-0.406847
-0.41516
-0.422231
-0.428186
-0.433229
-0.437435
-0.440547
-0.151327
-0.168713
-0.190941
-0.216932
-0.246906
-0.276936
-0.304251
-0.327271
-0.345871
-0.360868
-0.373258
-0.383767
-0.392793
-0.400526
-0.407069
-0.412514
-0.417039
-0.420732
-0.423421
-0.158745
-0.176002
-0.198174
-0.223335
-0.251388
-0.278479
-0.30241
-0.322311