/*--------------------------------*- C++ -*----------------------------------*\
| =========                 |                                                 |
| \\      /  F ield         | OpenFOAM: The Open Source CFD Toolbox           |
|  \\    /   O peration     | Version:  2312                                  |
|   \\  /    A nd           | Website:  www.openfoam.com                      |
|    \\/     M anipulation  |                                                 |
\*---------------------------------------------------------------------------*/
FoamFile
{
    version     2.0;
    format      ascii;
    arch        "LSB;label=32;scalar=64";
    class       surfaceScalarField;
    location    "24.889943480092644";
    object      phi;
}
// * * * * * * * * * * * * * * * * * * * * * * * * * * * * * * * * * * * * * //

dimensions      [0 3 -1 0 0 0 0];

oriented        oriented;

internalField   nonuniform List<scalar> 
41713
(
0.00736114
0.0568853
0.00362719
0.0679804
0.00211587
0.0657578
0.00148291
0.0648794
0.00109691
0.0646324
0.000842633
0.0645007
0.000667384
0.0644217
0.000540234
0.0643736
0.000444576
0.0643421
0.000370752
0.0643203
0.000312638
0.0643046
0.00026618
0.0642929
0.000228612
0.064284
0.000197995
0.0642771
0.000172936
0.0642715
0.000152414
0.064267
0.000135665
0.0642632
0.000122105
0.06426
0.000111275
0.0642573
0.000102791
0.0642549
9.6293e-05
0.0642529
9.14147e-05
0.0642513
8.78729e-05
0.06425
8.53797e-05
0.0548137
8.32616e-05
0.0456781
8.12921e-05
0.0380653
7.94715e-05
0.0317212
7.78197e-05
0.0264345
0.0220289
7.63066e-05
0.0099909
0.0468944
0.00842245
0.0695488
0.00571059
0.0684696
0.00411676
0.0664732
0.00311568
0.0656335
0.00242387
0.0651925
0.00192554
0.06492
0.00155527
0.0647439
0.00127275
0.0646246
0.00105217
0.0645408
0.000876618
0.0644801
0.000734701
0.0644348
0.000618581
0.0644001
0.000522723
0.0643729
0.000443141
0.0643511
0.00037692
0.0643332
0.000321892
0.0643182
0.000276418
0.0643055
0.000239238
0.0642944
0.000209359
0.0642848
0.000185969
0.0642763
0.00016836
0.0642689
0.000155812
0.0642625
0.000148206
0.0548213
0.000143469
0.0456828
0.000140236
0.0380685
0.000137723
0.0317238
0.000135542
0.0264367
0.0220307
0.000133688
0.00859034
0.0383041
0.00969764
0.0684415
0.00745887
0.0707084
0.00568958
0.0682425
0.00450035
0.0668227
0.00361397
0.0660789
0.00293036
0.0656036
0.00239791
0.0652763
0.00197795
0.0650446
0.00164192
0.0648769
0.00136939
0.0647526
0.00114574
0.0646585
0.000960439
0.0645854
0.000805793
0.0645276
0.000676144
0.0644807
0.000567285
0.064442
0.000476057
0.0644094
0.000400066
0.0643815
0.000337472
0.064357
0.000286846
0.0643354
0.00024705
0.0643161
0.000217138
0.0642988
0.000196154
0.0642835
0.000184062
0.0548334
0.000177209
0.0456897
0.000173085
0.0380726
0.000170218
0.0317266
0.000167886
0.026439
0.0220327
0.000165969
0.00676766
0.0315364
0.00945901
0.0657502
0.00810173
0.0720657
0.00642143
0.0699228
0.00522921
0.068015
0.00432206
0.0669861
0.00358881
0.0663369
0.00299013
0.065875
0.00249886
0.0655359
0.00209298
0.0652827
0.00175524
0.0650904
0.00147226
0.0649414
0.00123375
0.0648239
0.00103184
0.0647295
0.000860519
0.064652
0.000715177
0.0645874
0.000592292
0.0645323
0.000489157
0.0644846
0.000403685
0.0644425
0.00033425
0.0644049
0.000279575
0.0643708
0.0002386
0.0643398
0.000210178
0.0643119
0.000194268
0.0548493
0.000185727
0.0456982
0.000180992
0.0380774
0.000178005
0.0317296
0.000175802
0.0264412
0.0220343
0.000174169
0.00505673
0.0264797
0.00854847
0.0622585
0.00815434
0.0724598
0.00670917
0.071368
0.00555227
0.0691719
0.0046738
0.0678645
0.00395281
0.0670579
0.00334563
0.0664822
0.00283133
0.0660501
0.002394
0.0657201
0.0020207
0.0654637
0.00170095
0.0652612
0.0014263
0.0650986
0.00119002
0.0649657
0.000986749
0.0648553
0.000812275
0.0647619
0.000663297
0.0646813
0.000537243
0.0646107
0.000432114
0.0645476
0.000346356
0.0644906
0.000278746
0.0644384
0.000228255
0.0643903
0.00019365
0.0643465
0.000174873
0.054868
0.000165407
0.0457077
0.000160723
0.0380821
0.000158255
0.0317321
0.000156797
0.0264427
0.0220351
0.000155999
0.00360914
0.0228705
0.00728562
0.058582
0.00774775
0.0719977
0.00668586
0.0724299
0.00562292
0.0702348
0.00479415
0.0686933
0.00410899
0.067743
0.00351948
0.0670717
0.00300781
0.0665618
0.00256243
0.0661654
0.00217389
0.0658522
0.00183436
0.0656007
0.00153743
0.0653955
0.00127787
0.0652253
0.00105142
0.0650818
0.000854694
0.0649586
0.000684975
0.064851
0.000540148
0.0647555
0.000418573
0.0646692
0.000318991
0.0645902
0.000240426
0.064517
0.000182043
0.0644487
0.000142678
0.0643859
0.000122188
0.0548885
0.000112784
0.0457171
0.00010901
0.0380858
0.000107817
0.0317333
0.000107829
0.0264427
0.0220344
0.000108571
0.0025131
0.0203574
0.00599014
0.0551049
0.00705591
0.0709319
0.00642119
0.0730646
0.00550659
0.0711494
0.00474719
0.0694527
0.00411246
0.0683778
0.00355579
0.0676283
0.00306142
0.0670562
0.00262176
0.0666051
0.00223056
0.0662434
0.00188245
0.0659488
0.00157293
0.065705
0.00129827
0.0655
0.00105541
0.0653246
0.000841906
0.0651721
0.000655813
0.0650371
0.00049565
0.0649156
0.000360312
0.0648046
0.000249009
0.0647015
0.000161186
0.0646048
9.63643e-05
0.0645135
5.36297e-05
0.0644286
3.26166e-05
0.0549096
2.42437e-05
0.0457255
2.2229e-05
0.0380878
2.30109e-05
0.0317325
2.49203e-05
0.0264408
0.0220317
2.75754e-05
0.00174845
0.018609
0.00485768
0.0519957
0.0062736
0.069516
0.00601827
0.0733199
0.00526983
0.0718978
0.00458491
0.0701376
0.00400389
0.0689588
0.00348684
0.0681454
0.00301794
0.0675251
0.00259216
0.0670309
0.00220602
0.0666296
0.00185642
0.0662984
0.00154064
0.0660208
0.00125637
0.0657842
0.00100174
0.0655793
0.00077526
0.0653986
0.000575837
0.0652365
0.000402703
0.0650888
0.000255401
0.0649519
0.00013373
0.0648232
3.76464e-05
0.0647009
-3.29194e-05
0.0645841
-7.86335e-05
0.0644744
-9.9799e-05
0.0549307
-0.0001066
0.0457323
-0.000106132
0.0380874
-0.000102355
0.0317287
-9.72003e-05
0.0264356
0.022026
-9.15125e-05
0.00123741
0.0173716
0.00393636
0.0492968
0.00551513
0.0679372
0.00556148
0.0732736
0.00497384
0.0724855
0.00435793
0.0707535
0.00382347
0.0694932
0.00334358
0.0686253
0.00290132
0.0679674
0.00249233
0.0674399
0.00211487
0.067007
0.00176751
0.0666458
0.00144898
0.0663393
0.00115825
0.066075
0.000894495
0.065843
0.00065718
0.0656359
0.000446023
0.0654477
0.000261025
0.0652738
0.000102405
0.0651105
-2.94353e-05
0.064955
-0.000133924
0.0648054
-0.00021044
0.0646606
-0.00025901
0.0645229
-0.000279945
0.0549517
-0.00028463
0.045737
-0.000281014
0.0380838
-0.000273606
0.0317213
-0.000264616
0.0264266
0.0220164
-0.000254981
0.000902932
0.0164686
0.00320698
0.0469927
0.00482375
0.0663204
0.00509489
0.0730024
0.00465425
0.0729261
0.00410088
0.0713069
0.00360319
0.0699909
0.00315314
0.0690753
0.00273377
0.0683867
0.00234017
0.0678335
0.00197137
0.0673758
0.00162697
0.0669902
0.00130671
0.0666596
0.0010105
0.0663712
0.000738412
0.0661151
0.000490726
0.0658836
0.000267944
0.0656705
7.07448e-05
0.065471
-0.00010001
0.0652812
-0.00024317
0.0650982
-0.000357335
0.0649195
-0.000441115
0.0647444
-0.000493905
0.0645757
-0.000515587
0.0549733
-0.000518613
0.04574
-0.000511832
0.038077
-0.000500354
0.0317098
-0.000486843
0.0264131
0.0220022
-0.000472624
0.000685272
0.0157834
0.00263598
0.045042
0.00421173
0.0647447
0.00463967
0.0725745
0.00432775
0.073238
0.00383159
0.0718031
0.00336257
0.0704599
0.00293454
0.0695034
0.00253249
0.0687888
0.00215068
0.0682153
0.00178823
0.0677383
0.00144531
0.0673331
0.00112229
0.0669826
0.000819747
0.0666737
0.00053842
0.0663964
0.000279269
0.0661427
4.33816e-05
0.0659064
-0.000167974
0.0656823
-0.00035317
0.0654664
-0.000510223
0.0652552
-0.000636919
0.0650462
-0.000731036
0.0648385
-0.000791151
0.0646358
-0.000816052
0.0549982
-0.000819142
0.0457431
-0.000810218
0.0380681
-0.0007951
0.0316947
-0.000777025
0.026395
0.0219829
-0.000757816
0.000540878
0.0152425
0.00218906
0.0433938
0.00367828
0.0632555
0.00420732
0.0720455
0.00400359
0.0734418
0.00355944
0.0722472
0.00311292
0.0709065
0.00269997
0.0699163
0.00230954
0.0691792
0.00193518
0.0685896
0.00157571
0.0680977
0.00123152
0.0676773
0.000903371
0.0673108
0.000592245
0.0669849
0.000299381
0.0666893
2.61441e-05
0.066416
-0.00022592
0.0661584
-0.000454857
0.0659113
-0.000658283
0.0656699
-0.000833475
0.0654304
-0.000977413
0.0651902
-0.00108701
0.0649481
-0.00115992
0.0647087
-0.00119276
0.0550311
-0.0011996
0.0457499
-0.00119115
0.0380596
-0.00117405
0.0316776
-0.0011523
0.0263733
0.0219591
-0.00112846
0.000440526
0.0148019
0.00183583
0.0419985
0.00321609
0.0618752
0.00380359
0.071458
0.00368781
0.0735576
0.00329033
0.0726447
0.00286157
0.0713352
0.00245786
0.07032
0.00207371
0.0695633
0.00170233
0.068961
0.00134207
0.068458
0.000993244
0.0680261
0.000656754
0.0676473
0.000333846
0.0673078
2.59454e-05
0.0669972
-0.00026532
0.0667072
-0.000537884
0.066431
-0.000789163
0.0661625
-0.00101618
0.0658969
-0.00121553
0.0656298
-0.00138346
0.0653581
-0.0015161
0.0650807
-0.00161028
0.0648029
-0.00165897
0.0550798
-0.0016763
0.0457672
-0.00167361
0.0380569
-0.00165832
0.0316623
-0.00163541
0.0263504
0.0219321
-0.00160843
0.000366515
0.0144354
0.00155234
0.0408127
0.00281554
0.060612
0.0034302
0.0708433
0.00338412
0.0736036
0.00302814
0.0730007
0.00261374
0.0717496
0.00221466
0.0707191
0.00183206
0.0699459
0.00145944
0.0693336
0.00109455
0.0688229
0.000737421
0.0683833
0.000388925
0.0679958
5.02553e-05
0.0676464
-0.000277145
0.0673246
-0.00059136
0.0670214
-0.000889875
0.0667295
-0.00116969
0.0664424
-0.0014273
0.0661545
-0.0016587
0.0658612
-0.0018595
0.0655589
-0.00202528
0.0652465
-0.00215253
0.0649302
-0.00222898
0.0551562
-0.00226797
0.0458062
-0.00228062
0.0380696
-0.00227469
0.0316564
-0.00225616
0.0263318
0.021906
-0.00223001
0.000308787
0.0141266
0.00132274
0.0397987
0.00247019
0.0594646
0.00308885
0.0702246
0.00309532
0.0735972
0.00277521
0.0733208
0.00237263
0.0721522
0.00197479
0.071117
0.00158991
0.0703308
0.00121233
0.0697112
0.000839228
0.069196
0.000470224
0.0687523
0.000105888
0.0683601
-0.00025284
0.0680052
-0.000604518
0.0676763
-0.000947022
0.0673639
-0.00127764
0.0670601
-0.00159306
0.0667578
-0.00188928
0.0664507
-0.00216175
0.0661336
-0.00240555
0.0658027
-0.00261615
0.0654571
-0.00279081
0.0651048
-0.0029115
0.0552769
-0.00299026
0.045885
-0.00303643
0.0381157
-0.00305587
0.0316758
-0.0030539
0.0263299
0.0218888
-0.00303674
0.000225324
0.0139013
0.000967751
0.0390563
0.00184921
0.0585831
0.0023628
0.0697111
0.00239905
0.0735609
0.00215333
0.0735665
0.00182189
0.0724836
0.00148602
0.0714528
0.0011579
0.0706589
0.000833658
0.0700355
0.00051046
0.0695192
0.000187531
0.0690752
-0.000135105
0.0686827
-0.000456928
0.068327
-0.000776829
0.0679962
-0.00109315
0.0676803
-0.00140362
0.0673706
-0.00170533
0.0670595
-0.00199458
0.06674
-0.00226697
0.066406
-0.00251762
0.0660533
-0.00274221
0.0656817
-0.00293905
0.0653017
-0.00308835
0.0554262
-0.0032017
0.0459983
-0.00328651
0.0382005
-0.0033444
0.0317337
-0.00337572
0.0263612
0.0218976
-0.00338454
0.000167884
0.0137334
0.000719106
0.0385051
0.00139712
0.0579051
0.00181586
0.0692923
0.00186331
0.0735135
0.00167348
0.0737563
0.00140225
0.0727549
0.00112163
0.0717334
0.00084517
0.0709354
0.000570182
0.0703105
0.00029394
0.0697954
1.53495e-05
0.0693538
-0.000265931
0.068964
-0.000549774
0.0686108
-0.000835541
0.0682819
-0.00112215
0.0679669
-0.00140796
0.0676564
-0.00169067
0.0673422
-0.00196716
0.0670165
-0.00223346
0.0666723
-0.00248478
0.0663047
-0.00271639
0.0659133
-0.00292573
0.065511
-0.00309066
0.0555911
-0.00322514
0.0461328
-0.00334101
0.0383164
-0.00344322
0.0318359
-0.00352965
0.0264476
0.0219548
-0.00358678
0.000129213
0.0136042
0.000547107
0.0380872
0.00107488
0.0573773
0.00141554
0.0689516
0.00146499
0.073464
0.00131672
0.0739046
0.00109462
0.072977
0.000860794
0.0719673
0.000628611
0.0711676
0.000396259
0.0705428
0.00016122
0.0700305
-7.77761e-05
0.0695928
-0.000321305
0.0692075
-0.000569536
0.0688591
-0.000822303
0.0685347
-0.00107908
0.0682236
-0.00133887
0.0679162
-0.00160009
0.0676034
-0.0018604
0.0672768
-0.00211654
0.0669285
-0.00236422
0.0665523
-0.00259844
0.0661475
-0.00281433
0.0657269
-0.00298333
0.0557601
-0.0031174
0.0462669
-0.00323394
0.038433
-0.00334752
0.0319495
-0.00347625
0.0265763
0.0221099
-0.0036314
9.87648e-05
0.0135055
0.000423595
0.0377624
0.000842951
0.056958
0.00112218
0.0686724
0.00116777
0.0734184
0.00104844
0.0740239
0.000865038
0.0731604
0.00067037
0.0721619
0.000476105
0.0713619
0.000280584
0.0707383
8.14734e-05
0.0702296
-0.000122467
0.0697967
-0.000331917
0.069417
-0.000547292
0.0690744
-0.000768804
0.0687562
-0.000996397
0.0684512
-0.00122967
0.0681495
-0.00146776
0.0678415
-0.00170916
0.0675182
-0.00195163
0.0671709
-0.00219207
0.0667928
-0.00242665
0.0663821
-0.00265028
0.0659505
-0.00282737
0.0559372
-0.0029583
0.0463978
-0.00305037
0.038525
-0.00311388
0.032013
-0.00316664
0.0266291
-0.00334657
0.0222898
0.000120958
0.0219827
0.000163088
0.0219852
0.000196275
0.0219942
0.000227116
0.0219965
0.000252137
0.0220023
0.000272626
0.0220069
0.000290082
0.0220099
0.000301218
0.0220162
0.000310344
0.0220182
0.000314447
0.0220233
0.000315479
0.0220263
0.000313979
0.0220289
0.000308031
0.0220333
0.000300475
0.0220349
0.000289663
0.0220382
0.000276539
0.0220405
0.000262071
0.0220418
0.000244618
0.0220448
0.000226091
0.0220459
0.000206315
0.0220471
0.000184966
0.0220487
0.000162991
0.0220493
0.000140336
0.02205
0.000117161
0.0220505
9.38641e-05
0.0220507
7.06139e-05
0.0220506
4.77957e-05
0.0220502
2.54062e-05
0.0220497
3.76647e-06
0.022049
-1.64833e-05
0.0220476
-3.58407e-05
0.0220467
-5.34746e-05
0.022045
-6.90809e-05
0.022043
-8.34253e-05
0.0220417
-9.44679e-05
0.0220384
-0.000103533
0.0220364
-0.000110313
0.0220341
-0.000112912
0.02203
-0.000113724
0.0220282
-0.000109856
0.0220235
-0.000102823
0.0220203
-9.26588e-05
0.0220172
-7.66862e-05
0.0220114
-5.85459e-05
0.0220092
-3.3678e-05
0.0220025
-5.35828e-06
0.021999
2.77789e-05
0.0219942
6.72821e-05
0.0219879
0.0219853
0.000109295
0.000178122
0.0219383
0.00022026
0.0219431
0.000253682
0.0219607
0.000284998
0.0219652
0.000310742
0.0219766
0.000332197
0.0219854
0.000350852
0.0219912
0.000363416
0.0220037
0.000374179
0.0220075
0.000380121
0.0220173
0.000383178
0.0220233
0.000383875
0.0220282
0.000380288
0.0220369
0.000375236
0.02204
0.000367064
0.0220463
0.000356699
0.0220508
0.000345093
0.0220534
0.0003306
0.0220593
0.00031511
0.0220614
0.000298434
0.0220638
0.000280242
0.0220669
0.000261458
0.0220681
0.000242019
0.0220694
0.000222075
0.0220705
0.000202006
0.0220707
0.000181967
0.0220706
0.000162338
0.0220698
0.000143095
0.022069
0.000124549
0.0220675
0.000107335
0.0220648
9.09287e-05
0.0220631
7.61563e-05
0.0220598
6.33068e-05
0.0220558
5.15908e-05
0.0220534
4.30514e-05
0.0220469
3.63374e-05
0.0220431
3.1745e-05
0.0220387
3.1168e-05
0.0220305
3.21838e-05
0.0220272
3.7689e-05
0.022018
4.61454e-05
0.0220119
5.75055e-05
0.0220058
7.44472e-05
0.0219944
9.32978e-05
0.0219904
0.000118625
0.0219772
0.00014712
0.0219705
0.000180134
0.0219612
0.000219191
0.0219488
0.0219441
0.000260411
0.000210469
0.0218938
0.000252893
0.0219007
0.000286858
0.0219268
0.000318975
0.0219331
0.000345777
0.0219498
0.000368539
0.0219626
0.000388737
0.021971
0.000403071
0.0219893
0.000415818
0.0219947
0.000423946
0.0220092
0.000429378
0.0220178
0.000432626
0.0220249
0.000431756
0.0220378
0.00042957
0.0220421
0.000424401
0.0220515
0.000417164
0.0220581
0.000408792
0.0220618
0.000397635
0.0220705
0.00038556
0.0220734
0.000372368
0.022077
0.000357717
0.0220815
0.000342514
0.0220833
0.000326683
0.0220853
0.000310364
0.0220868
0.000293916
0.0220872
0.000277484
0.0220871
0.00026144
0.0220858
0.000245736
0.0220847
0.000230674
0.0220826
0.00021688
0.0220786
0.000203807
0.0220762
0.000192275
0.0220713
0.000182559
0.0220655
0.000173848
0.0220621
0.000168188
0.0220526
0.0001642
0.0220471
0.00016217
0.0220408
0.000163989
0.0220287
0.000167205
0.0220239
0.000174717
0.0220105
0.000184964
0.0220016
0.000197885
0.0219929
0.000216157
0.0219762
0.000236075
0.0219704
0.000262212
0.021951
0.00029123
0.0219415
0.00032447
0.021928
0.000363442
0.0219098
0.0219033
0.000404226
0.000219279
0.0218487
0.000262516
0.0218574
0.000297531
0.0218918
0.000330958
0.0218997
0.000359332
0.0219214
0.000383923
0.0219381
0.000406203
0.0219488
0.000422858
0.0219727
0.000438153
0.0219794
0.000449046
0.0219983
0.000457445
0.0220094
0.000463847
0.0220185
0.000466307
0.0220353
0.00046761
0.0220408
0.000466078
0.022053
0.00046261
0.0220616
0.000458123
0.0220663
0.000450956
0.0220776
0.000442957
0.0220814
0.000433914
0.022086
0.000423474
0.022092
0.000412522
0.0220943
0.00040097
0.0220968
0.000388947
0.0220988
0.000376792
0.0220993
0.000364638
0.0220992
0.000352843
0.0220976
0.000341342
0.0220962
0.000330423
0.0220935
0.000320702
0.0220883
0.000311611
0.0220853
0.00030396
0.0220789
0.000298012
0.0220715
0.000292935
0.0220672
0.000290772
0.0220548
0.000290124
0.0220478
0.000291261
0.0220396
0.000296073
0.0220239
0.00030208
0.0220179
0.000312184
0.0220004
0.000324803
0.021989
0.00033986
0.0219779
0.000360034
0.021956
0.00038159
0.0219489
0.000409107
0.0219235
0.000439219
0.0219114
0.000473254
0.0218939
0.000512718
0.0218704
0.0218624
0.000553646
0.000202463
0.0218022
0.00024724
0.0218126
0.000284035
0.021855
0.000319511
0.0218642
0.000350203
0.0218907
0.000377383
0.0219109
0.000402518
0.0219236
0.000422281
0.0219529
0.000440931
0.0219608
0.000455408
0.0219838
0.00046761
0.0219972
0.00047802
0.0220081
0.000484676
0.0220286
0.000490351
0.0220352
0.00049335
0.02205
0.000494557
0.0220603
0.000494874
0.022066
0.000492623
0.0220799
0.000489638
0.0220844
0.000485687
0.02209
0.000480404
0.0220973
0.000474657
0.0221
0.000468342
0.0221031
0.000461572
0.0221056
0.000454668
0.0221062
0.000447746
0.0221062
0.000441155
0.0221042
0.000434806
0.0221025
0.000428974
0.0220994
0.000424263
0.022093
0.000420084
0.0220895
0.000417235
0.0220818
0.000415967
0.0220727
0.000415425
0.0220677
0.00041765
0.0220525
0.000421219
0.0220442
0.000426392
0.0220344
0.000435053
0.0220152
0.000444697
0.0220083
0.000458228
0.0219868
0.000474042
0.0219732
0.000492052
0.0219598
0.000514938
0.0219331
0.000538934
0.0219249
0.000568633
0.0218938
0.000600639
0.0218794
0.000636275
0.0218583
0.000677038
0.0218296
0.0218205
0.00071892
0.000157301
0.0217535
0.00020459
0.0217654
0.000244123
0.0218154
0.000282587
0.0218257
0.000316552
0.0218568
0.000347307
0.0218801
0.000376309
0.0218946
0.000400214
0.021929
0.000423281
0.0219377
0.000442427
0.0219647
0.000459541
0.0219801
0.000475092
0.0219925
0.000487098
0.0220166
0.000498319
0.022024
0.000507043
0.0220413
0.000514135
0.0220533
0.000520482
0.0220596
0.000524388
0.022076
0.000527667
0.0220812
0.000530072
0.0220876
0.000531217
0.0220961
0.000531952
0.0220993
0.000532153
0.0221029
0.000531919
0.0221058
0.000531548
0.0221066
0.000531139
0.0221066
0.000531026
0.0221043
0.000531098
0.0221025
0.000531613
0.0220988
0.000533162
0.0220915
0.00053513
0.0220875
0.000538308
0.0220786
0.000542926
0.0220681
0.000548108
0.0220626
0.000555895
0.0220448
0.000564836
0.0220353
0.000575177
0.0220241
0.000588802
0.0220016
0.000603175
0.0219939
0.000621206
0.0219688
0.000641269
0.0219531
0.000663266
0.0219378
0.000689881
0.0219065
0.000717315
0.0218975
0.000750181
0.0218609
0.000785049
0.0218445
0.000823239
0.0218201
0.000866242
0.0217866
0.0217768
0.000910001
7.97888e-05
0.0217013
0.000130936
0.0217142
0.000174277
0.0217721
0.000217015
0.021783
0.000255566
0.0218182
0.000291186
0.0218445
0.000325348
0.0218605
0.000354717
0.0218996
0.000383561
0.0219089
0.00040877
0.0219395
0.000432223
0.0219567
0.000454373
0.0219704
0.000473215
0.0219978
0.000491501
0.0220057
0.000507492
0.0220253
0.000522038
0.0220387
0.000536006
0.0220457
0.000547677
0.0220643
0.000558848
0.02207
0.00056925
0.0220772
0.000578477
0.0220869
0.000587355
0.0220904
0.000595741
0.0220946
0.000603712
0.0220979
0.000611544
0.0220988
0.000619314
0.0220988
0.000627338
0.0220963
0.000635478
0.0220943
0.000643974
0.0220903
0.0006534
0.0220821
0.000663114
0.0220778
0.00067389
0.0220678
0.000685945
0.0220561
0.00069837
0.0220501
0.000713208
0.0220299
0.000728977
0.0220195
0.000745908
0.0220072
0.000765885
0.0219816
0.000786335
0.0219735
0.00081018
0.021945
0.000835767
0.0219275
0.000862984
0.0219106
0.000894532
0.0218749
0.000926565
0.0218654
0.000963728
0.0218238
0.00100255
0.0218057
0.00104436
0.0217783
0.00109063
0.0217403
0.0217301
0.00113726
-3.53118e-05
0.0216451
2.00863e-05
0.0216588
6.91818e-05
0.021723
0.000117921
0.0217342
0.000162674
0.0217735
0.000204726
0.0218025
0.000245766
0.0218194
0.000282336
0.0218631
0.000318696
0.0218725
0.000351722
0.0219064
0.000383311
0.0219251
0.000413903
0.0219398
0.000441461
0.0219702
0.000468733
0.0219784
0.000493948
0.0220001
0.000517941
0.0220147
0.000541557
0.022022
0.000563046
0.0220428
0.00058419
0.0220488
0.000604692
0.0220567
0.000624119
0.0220675
0.000643275
0.0220712
0.000661988
0.0220758
0.000680312
0.0220795
0.000698493
0.0220806
0.000716582
0.0220807
0.000734873
0.022078
0.000753194
0.022076
0.000771761
0.0220718
0.000791132
0.0220627
0.000810624
0.0220583
0.000830998
0.0220475
0.000852446
0.0220346
0.000874026
0.0220286
0.000897781
0.0220062
0.000922192
0.0219951
0.000947468
0.0219819
0.000975501
0.0219536
0.00100367
0.0219453
0.00103491
0.0219137
0.00106754
0.0218949
0.00110143
0.0218767
0.00113931
0.0218371
0.00117728
0.0218275
0.00122001
0.021781
0.001264
0.0217617
0.00131058
0.0217317
0.00136122
0.0216897
0.0216796
0.00141175
-0.00019244
0.0215825
-0.000130298
0.0215967
-7.53446e-05
0.0216681
-2.02536e-05
0.0216791
3.18703e-05
0.0217213
8.24104e-05
0.0217519
0.000132345
0.0217695
0.000178086
0.0218173
0.000223973
0.0218266
0.000266969
0.0218634
0.000308912
0.0218831
0.000350208
0.0218985
0.000388801
0.0219316
0.00042744
0.0219398
0.000464319
0.0219632
0.000500252
0.0219788
0.000536062
0.0219862
0.00056996
0.0220089
0.000603711
0.0220151
0.000636981
0.0220234
0.000669308
0.0220351
0.000701464
0.0220391
0.000733243
0.0220441
0.000764668
0.0220481
0.000795946
0.0220493
0.000827096
0.0220496
0.000858382
0.0220467
0.000889589
0.0220448
0.0009209
0.0220405
0.000952849
0.0220308
0.000984704
0.0220264
0.00101721
0.022015
0.00105052
0.0220013
0.00108365
0.0219954
0.00111865
0.0219712
0.00115394
0.0219598
0.00118972
0.0219461
0.00122787
0.0219154
0.00126573
0.0219074
0.00130624
0.0218732
0.0013477
0.0218535
0.00138995
0.0218345
0.00143574
0.0217913
0.00148111
0.0217821
0.00153081
0.0217313
0.00158126
0.0217113
0.00163379
0.0216792
0.00168991
0.0216336
0.0216242
0.00174535
-0.00040273
0.0215126
-0.000332606
0.0215265
-0.00026861
0.0216041
-0.000203892
0.0216144
-0.000142211
0.0216596
-8.23178e-05
0.021692
-2.24267e-05
0.0217096
3.43625e-05
0.0217605
9.23229e-05
0.0217687
0.000147875
0.0218079
0.000202718
0.0218283
0.000257425
0.0218438
0.000309888
0.0218792
0.000362836
0.0218868
0.000414407
0.0219117
0.000465397
0.0219278
0.0005166
0.021935
0.000566182
0.0219593
0.000615882
0.0219654
0.000665323
0.021974
0.000714003
0.0219865
0.000762651
0.0219904
0.000811017
0.0219957
0.00085908
0.022
0.000906999
0.0220014
0.000954742
0.0220018
0.00100254
0.0219989
0.00105011
0.0219972
0.0010976
0.021993
0.00114551
0.0219828
0.00119303
0.0219789
0.00124088
0.0219671
0.00128919
0.021953
0.00133689
0.0219477
0.00138604
0.021922
0.001435
0.0219108
0.00148392
0.0218972
0.00153472
0.0218647
0.00158462
0.0218575
0.00163663
0.0218212
0.00168898
0.0218011
0.0017415
0.021782
0.00179697
0.0217358
0.00185136
0.0217277
0.00190949
0.0216732
0.00196771
0.021653
0.00202738
0.0216195
0.00209001
0.0215709
0.0215629
0.00215125
-0.000678963
0.0214338
-0.000599119
0.0214467
-0.000524852
0.0215298
-0.000449084
0.0215387
-0.00037537
0.0215859
-0.000302358
0.021619
-0.000228625
0.0216359
-0.000157913
0.0216898
-8.58367e-05
0.0216966
-1.54834e-05
0.0217375
5.53636e-05
0.0217574
0.000126777
0.0217724
0.000196499
0.0218095
0.000267309
0.021816
0.000337298
0.0218417
0.000407231
0.0218579
0.000477859
0.0218644
0.000547277
0.0218899
0.000617196
0.0218955
0.000687177
0.021904
0.000756659
0.021917
0.000826314
0.0219208
0.000895829
0.0219262
0.000965127
0.0219307
0.00103429
0.0219322
0.00110323
0.0219329
0.00117211
0.0219301
0.00124058
0.0219288
0.00130871
0.0219248
0.00137695
0.0219146
0.00144441
0.0219115
0.00151175
0.0218998
0.00157906
0.0218857
0.00164516
0.0218816
0.00171213
0.021855
0.00177823
0.0218447
0.00184357
0.0218319
0.00191008
0.0217981
0.00197486
0.0217928
0.00204099
0.0217551
0.00210661
0.0217355
0.00217155
0.021717
0.00223863
0.0216687
0.00230373
0.0216626
0.00237176
0.0216052
0.00243901
0.0215858
0.00250686
0.0215517
0.00257685
0.0215009
0.0214953
0.00264452
-0.00103948
0.0213448
-0.000948387
0.0213556
-0.000861897
0.0214433
-0.000772844
0.0214496
-0.000684928
0.021498
-0.0005968
0.0215309
-0.000506911
0.021546
-0.000418857
0.0216018
-0.000328185
0.0216059
-0.000238353
0.0216477
-0.000147653
0.0216667
-5.55898e-05
0.0216803
3.56296e-05
0.0217182
0.000128762
0.0217229
0.000221843
0.0217486
0.000315675
0.021764
0.000410912
0.0217692
0.000505553
0.0217953
0.000601245
0.0217998
0.00069746
0.0218078
0.000793562
0.0218209
0.000890143
0.0218242
0.000986805
0.0218295
0.00108339
0.0218342
0.00117988
0.0218357
0.00127608
0.0218367
0.0013721
0.021834
0.00146744
0.0218334
0.0015621
0.0218302
0.00165644
0.0218203
0.00174944
0.0218185
0.00184171
0.0218075
0.00193322
0.0217942
0.00202269
0.0217922
0.00211219
0.0217655
0.00219984
0.0217571
0.00228569
0.021746
0.00237167
0.0217122
0.00245477
0.0217097
0.00253811
0.0216717
0.00261974
0.0216539
0.00269946
0.0216373
0.00278019
0.021588
0.00285766
0.0215851
0.00293697
0.0215259
0.00301427
0.0215085
0.00309102
0.0214749
0.00316881
0.0214232
0.021421
0.00324306
-0.00150861
0.021245
-0.00140508
0.0212521
-0.00130483
0.021343
-0.00120051
0.0213453
-0.00109595
0.0213935
-0.000989756
0.0214247
-0.000880372
0.0214366
-0.000771559
0.0214929
-0.000658746
0.0214931
-0.000545443
0.0215344
-0.000429723
0.021551
-0.00031131
0.0215619
-0.000192602
0.0215995
-7.08282e-05
0.0216011
5.17887e-05
0.021626
0.000175862
0.02164
0.000302512
0.0216425
0.000429385
0.0216684
0.000558102
0.0216711
0.000688036
0.0216778
0.000818436
0.0216905
0.000949784
0.0216929
0.00108156
0.0216977
0.0012135
0.0217022
0.00134543
0.0217038
0.00147704
0.0217051
0.0016083
0.0217028
0.00173855
0.0217032
0.00186763
0.0217011
0.00199582
0.0216921
0.00212185
0.0216924
0.00224626
0.0216831
0.00236889
0.0216716
0.00248824
0.0216728
0.0026064
0.0216474
0.00272127
0.0216422
0.00283282
0.0216345
0.002943
0.021602
0.00304857
0.0216041
0.00315274
0.0215675
0.00325348
0.0215531
0.00335053
0.0215403
0.00344694
0.0214916
0.00353829
0.0214938
0.00362988
0.0214343
0.0037178
0.0214206
0.00380356
0.0213892
0.00388887
0.0213378
0.0213408
0.00396903
-0.00212008
0.021135
-0.0020042
0.0211362
-0.00188967
0.0212285
-0.0017688
0.0212244
-0.00164553
0.0212702
-0.00151839
0.0212975
-0.00138575
0.021304
-0.00125156
0.0213588
-0.00111113
0.0213527
-0.000968242
0.0213915
-0.000821035
0.0214038
-0.000669327
0.0214102
-0.000515709
0.0214459
-0.000357419
0.0214428
-0.000196715
0.0214653
-3.30087e-05
0.0214762
0.000133601
0.0214759
0.000301616
0.0215004
0.000472811
0.0214999
0.000646237
0.0215044
0.00082103
0.0215157
0.00099753
0.0215164
0.00117506
0.0215202
0.00135319
0.0215241
0.00153155
0.0215254
0.00170963
0.021527
0.00188723
0.0215252
0.00206339
0.021527
0.00223775
0.0215268
0.0024104
0.0215194
0.00257977
0.021523
0.00274621
0.0215166
0.00290936
0.0215084
0.00306743
0.0215147
0.00322246
0.0214923
0.00337208
0.0214926
0.00351608
0.0214905
0.00365644
0.0214616
0.00378962
0.0214709
0.00391895
0.0214382
0.00404222
0.0214298
0.00415916
0.0214233
0.004273
0.0213777
0.0043791
0.0213877
0.00448313
0.0213303
0.00458105
0.0213227
0.00467458
0.0212956
0.00476562
0.0212468
0.0212571
0.00484937
-0.00291986
0.0210182
-0.00279345
0.0210098
-0.00266567
0.0211007
-0.0025282
0.0210869
-0.00238488
0.0211269
-0.00223387
0.0211465
-0.00207344
0.0211435
-0.00190786
0.0211932
-0.00173253
0.0211773
-0.00155171
0.0212107
-0.00136381
0.0212159
-0.00116897
0.0212154
-0.000970119
0.0212471
-0.000764634
0.0212373
-0.000555065
0.0212557
-0.00034087
0.021262
-0.000121305
0.0212563
0.000100651
0.0212784
0.000326599
0.0212739
0.000556519
0.0212745
0.000789191
0.021283
0.00102482
0.0212807
0.00126255
0.0212825
0.00150177
0.0212849
0.00174178
0.0212854
0.00198178
0.021287
0.00222129
0.0212857
0.00245892
0.0212894
0.00269394
0.0212917
0.00292612
0.0212872
0.00315339
0.0212958
0.0033758
0.0212942
0.00359265
0.0212916
0.00380167
0.0213057
0.00400484
0.0212892
0.00419933
0.0212981
0.00438473
0.0213051
0.00456299
0.0212834
0.00473017
0.0213037
0.00488975
0.0212786
0.00503928
0.0212803
0.00517845
0.0212842
0.00531074
0.0212454
0.00543127
0.0212672
0.00554624
0.0212153
0.00565157
0.0212173
0.00574933
0.0211979
0.00584182
0.0211543
0.0211748
0.00592408
-0.00329224
0.0209259
-0.00318891
0.0209065
-0.00307964
0.0209915
-0.00295476
0.0209621
-0.00281721
0.0209893
-0.00266591
0.0209952
-0.00250049
0.0209781
-0.00232593
0.0210186
-0.00213937
0.0209908
-0.00194548
0.0210168
-0.00174358
0.021014
-0.00153423
0.021006
-0.00132024
0.0210331
-0.00109942
0.0210165
-0.000873974
0.0210303
-0.000643389
0.0210315
-0.000407138
0.0210201
-0.000166906
0.0210382
7.84555e-05
0.0210286
0.000327904
0.021025
0.000581703
0.0210292
0.000839802
0.0210226
0.00110136
0.0210209
0.00136565
0.0210206
0.00163175
0.0210193
0.0018986
0.0210201
0.00216542
0.0210189
0.00243043
0.0210244
0.00269253
0.0210296
0.00295106
0.0210287
0.00320358
0.0210433
0.00344974
0.0210481
0.00368846
0.0210528
0.00391729
0.0210769
0.00413777
0.0210687
0.00434701
0.0210889
0.00454447
0.0211076
0.0047318
0.021096
0.00490526
0.0211303
0.00506799
0.0211159
0.00521767
0.0211306
0.00535395
0.0211479
0.00547995
0.0211194
0.00559118
0.0211559
0.00569327
0.0211132
0.00578263
0.021128
0.0058615
0.021119
0.00593258
0.0210832
0.0211152
0.00599219
-0.00351684
0.0208559
-0.00344604
0.0208357
-0.00336573
0.0209111
-0.00325893
0.0208553
-0.00312773
0.0208581
-0.00297403
0.0208415
-0.00280112
0.0208052
-0.00261645
0.020834
-0.00241966
0.020794
-0.00221616
0.0208133
-0.002006
0.0208039
-0.00178995