/*--------------------------------*- C++ -*----------------------------------*\
| =========                 |                                                 |
| \\      /  F ield         | OpenFOAM: The Open Source CFD Toolbox           |
|  \\    /   O peration     | Version:  2312                                  |
|   \\  /    A nd           | Website:  www.openfoam.com                      |
|    \\/     M anipulation  |                                                 |
\*---------------------------------------------------------------------------*/
FoamFile
{
    version     2.0;
    format      ascii;
    arch        "LSB;label=32;scalar=64";
    class       surfaceScalarField;
    location    "99.460049189952585";
    object      phi;
}
// * * * * * * * * * * * * * * * * * * * * * * * * * * * * * * * * * * * * * //

dimensions      [0 3 -1 0 0 0 0];

oriented        oriented;

internalField   nonuniform List<scalar> 
41713
(
0.00736083
0.0568856
0.00362789
0.0679794
0.00211647
0.0657579
0.00148327
0.0648796
0.00109709
0.0646326
0.000842624
0.0645009
0.000667154
0.0644219
0.000539749
0.0643738
0.000443799
0.0643424
0.000369646
0.0643206
0.000311163
0.0643049
0.000264297
0.0642933
0.000226281
0.0642845
0.000195178
0.0642775
0.000169594
0.064272
0.000148509
0.0642675
0.000131162
0.0642638
0.000116969
0.0642606
0.000105476
0.0642579
9.63037e-05
0.0642556
8.90938e-05
0.0642536
8.34866e-05
0.064252
7.92043e-05
0.0642507
7.60748e-05
0.0548143
7.3425e-05
0.0456786
7.10126e-05
0.0380657
6.8824e-05
0.0317216
6.68676e-05
0.0264348
0.0220291
6.51017e-05
0.00999256
0.046893
0.00842395
0.069548
0.0057118
0.06847
0.00411771
0.0664737
0.00311624
0.0656341
0.00242389
0.0651933
0.00192491
0.0649209
0.00155387
0.0647449
0.00127047
0.0646258
0.0010489
0.0645422
0.000872242
0.0644816
0.000729107
0.0644364
0.000611654
0.0644019
0.00051435
0.0643748
0.000433212
0.0643532
0.000365326
0.0643354
0.00030853
0.0643206
0.000261192
0.064308
0.000222061
0.0642971
0.000190155
0.0642875
0.000164678
0.0642791
0.000144933
0.0642718
0.000130219
0.0642654
0.000120758
0.0548238
0.000114478
0.0456849
0.000109972
0.0380702
0.000106411
0.0317252
0.000103369
0.0264379
0.0220317
0.000100809
0.0085927
0.0383003
0.00970103
0.0684397
0.00746184
0.0707092
0.00569187
0.0682437
0.00450193
0.066824
0.00361467
0.0660805
0.00292999
0.0656056
0.0023963
0.0652786
0.00197491
0.0650472
0.00163728
0.0648798
0.00136295
0.0647559
0.00113734
0.0646621
0.000949873
0.0645894
0.000792881
0.0645318
0.000660704
0.0644853
0.000549138
0.064447
0.000455034
0.0644147
0.000376007
0.064387
0.000310233
0.0643628
0.000256301
0.0643414
0.000213096
0.0643223
0.000179698
0.0643052
0.000155183
0.0642899
0.000140071
0.0548389
0.000130715
0.0456943
0.000124529
0.0380764
0.000119966
0.0317297
0.000116241
0.0264416
0.0220348
0.000113176
0.0067709
0.0315294
0.00946485
0.0657457
0.0081076
0.0720665
0.00642625
0.069925
0.00523297
0.0680173
0.00432466
0.0669888
0.00359004
0.0663402
0.00298975
0.0658789
0.00249663
0.0655403
0.00208867
0.0652878
0.00174859
0.065096
0.00146302
0.0649476
0.00122167
0.0648307
0.00101667
0.0647368
0.000841998
0.06466
0.000693058
0.0645959
0.000566336
0.0645414
0.000459139
0.0644942
0.000369398
0.0644526
0.000295513
0.0644153
0.000236234
0.0643816
0.000190542
0.0643509
0.000157334
0.0643232
0.000137329
0.0548589
0.000125392
0.0457062
0.000117851
0.038084
0.000112558
0.031735
0.000108462
0.0264457
0.022038
0.000105266
0.00506069
0.0264688
0.00855723
0.0622492
0.0081643
0.0724594
0.00671802
0.0713713
0.00555979
0.0691755
0.00468001
0.0678686
0.0039575
0.0670627
0.00334853
0.0664878
0.00283217
0.0660567
0.00239248
0.0657274
0.00201652
0.0654719
0.0016938
0.0652703
0.00141586
0.0651086
0.00117597
0.0649767
0.000968761
0.0648672
0.00079003
0.0647746
0.000636483
0.064695
0.000505562
0.0646251
0.000395291
0.0645628
0.000304143
0.0645065
0.000230928
0.0644548
0.000174654
0.0644072
0.000134144
0.0643637
0.000110345
0.0548827
9.66903e-05
0.0457199
8.85228e-05
0.0380921
8.31689e-05
0.0317404
7.93514e-05
0.0264495
0.0220407
7.66404e-05
0.00361383
0.0228549
0.00729765
0.0585653
0.00776296
0.0719941
0.00670042
0.0724339
0.005636
0.07024
0.00480588
0.0686987
0.00411927
0.0677493
0.00352804
0.0670791
0.00301432
0.0665704
0.00256658
0.0661752
0.00217532
0.0658632
0.00183271
0.065613
0.00153232
0.065409
0.00126892
0.0652401
0.00103823
0.0650979
0.000836869
0.064976
0.000662124
0.0648697
0.000511892
0.0647753
0.000384557
0.0646902
0.000278888
0.0646121
0.000193949
0.0645398
0.000128935
0.0644722
8.26277e-05
0.06441
5.64544e-05
0.0549089
4.21819e-05
0.0457341
3.43288e-05
0.0381
2.96995e-05
0.031745
2.67623e-05
0.0264524
0.0220424
2.50866e-05
0.00251858
0.0203364
0.00600575
0.0550782
0.0070774
0.0709224
0.00644313
0.0730681
0.00552716
0.0711559
0.00476651
0.0694594
0.00413059
0.0683852
0.00357251
0.0676372
0.0030764
0.0670665
0.00263465
0.0666169
0.00224097
0.0662569
0.00188998
0.0659639
0.00157715
0.0657219
0.00129873
0.0655186
0.00105164
0.065345
0.000833427
0.0651942
0.000642151
0.065061
0.000476334
0.0649412
0.000334894
0.0648316
0.000217073
0.06473
0.000122373
0.0646345
5.04202e-05
0.0645441
4.79616e-07
0.0644599
-2.75809e-05
0.0549369
-4.17434e-05
0.0457483
-4.85301e-05
0.0381068
-5.16369e-05
0.0317481
-5.28654e-05
0.0264537
0.0220424
-5.29546e-05
0.00175484
0.0185815
0.00487708
0.0519559
0.00630215
0.0694974
0.00604914
0.0733211
0.00529982
0.0719053
0.00461391
0.0701453
0.00403216
0.068967
0.00351427
0.068155
0.00304422
0.0675365
0.00261693
0.0670442
0.00222888
0.0666449
0.00187693
0.0663159
0.00155831
0.0660405
0.00127069
0.0658062
0.00101216
0.0656035
0.000781232
0.0654252
0.000576778
0.0652654
0.000398037
0.0651199
0.000244559
0.0649851
0.000116158
0.0648584
1.28395e-05
0.0647378
-6.54871e-05
0.0646224
-0.000119394
0.0645138
-0.00014748
0.054965
-0.000160202
0.045761
-0.000164747
0.0381113
-0.000165191
0.0317486
-0.000163549
0.026452
0.0220396
-0.00016066
0.00124482
0.0173367
0.00395966
0.0492411
0.00555126
0.0679058
0.0056025
0.0732699
0.00501504
0.0724927
0.00439864
0.0707617
0.00386412
0.0695015
0.0033842
0.068635
0.00294168
0.0679791
0.00253208
0.0674538
0.00215359
0.0670234
0.00180472
0.0666648
0.00148417
0.066361
0.00119083
0.0660995
0.000923853
0.0658705
0.000682654
0.0656664
0.000466929
0.0654812
0.000276654
0.0653102
0.000112066
0.0651497
-2.64058e-05
0.0649968
-0.000138218
0.0648496
-0.00022265
0.0647069
-0.000279664
0.0645708
-0.000308136
0.0549935
-0.000319249
0.0457721
-0.000321049
0.0381131
-0.000318171
0.0317457
-0.000312975
0.0264468
0.0220331
-0.000306542
0.000911471
0.0164252
0.00323419
0.0469184
0.00486768
0.0662723
0.00514697
0.0729906
0.00470818
0.0729315
0.00415516
0.0713147
0.00365827
0.0699984
0.00320927
0.069084
0.0027908
0.0683975
0.00239778
0.0678468
0.00202914
0.067392
0.0016844
0.0670095
0.00136325
0.0666822
0.0010655
0.0663973
0.00079117
0.0661448
0.000540479
0.065917
0.000313873
0.0657078
0.000112027
0.065512
-6.41949e-05
0.0653259
-0.000213686
0.0651463
-0.000335037
0.0649709
-0.00042682
0.0647987
-0.000488376
0.0646324
-0.000517989
0.0550231
-0.00052789
0.045782
-0.000526968
0.0381122
-0.000520439
0.0317392
-0.000511088
0.0264375
0.0220224
-0.000500351
0.000695015
0.0157302
0.00266702
0.0449464
0.00426346
0.0646758
0.00470332
0.0725508
0.00439557
0.0732393
0.00390102
0.0718092
0.0034339
0.0704655
0.00300821
0.0695097
0.0026085
0.0687972
0.00222874
0.0682266
0.00186794
0.0677528
0.00152615
0.0673513
0.00120366
0.0670047
0.000900951
0.0667
0.000618662
0.0664271
0.000357658
0.066178
0.000119009
0.0659464
-9.6042e-05
0.0657271
-0.000285973
0.0655158
-0.000448868
0.0653092
-0.000582512
0.0651046
-0.000684664
0.0649008
-0.000753822
0.0647015
-0.0007871
0.0550564
-0.000797563
0.0457925
-0.000794998
0.0381096
-0.000785306
0.0317295
-0.000771836
0.026424
0.0220071
-0.000756522
0.000551864
0.0151783
0.00222383
0.0432744
0.00373764
0.063162
0.00428272
0.0720057
0.00408609
0.0734359
0.00364527
0.0722501
0.00320201
0.0709088
0.00279293
0.0699187
0.0024065
0.0691837
0.00203593
0.0685972
0.00167987
0.0681089
0.00133857
0.0676926
0.00101266
0.0673306
0.000703018
0.0670096
0.000410736
0.0667194
0.000137136
0.0664516
-0.000116292
0.0661998
-0.000347758
0.0659585
-0.000555027
0.0657231
-0.000735432
0.0654896
-0.000885992
0.0652551
-0.00100363
0.0650185
-0.00108593
0.0647838
-0.0011277
0.0550981
-0.00114255
0.0458073
-0.0011411
0.0381082
-0.00113004
0.0317184
-0.00111346
0.0264074
0.0219876
-0.00109402
0.000452759
0.0147256
0.0018742
0.041853
0.00328279
0.0617534
0.00389065
0.0713978
0.00378542
0.0735411
0.00339346
0.072642
0.00296964
0.0713326
0.00257152
0.0703169
0.00219326
0.0695619
0.00182765
0.0689628
0.00147281
0.0684637
0.00112888
0.0680365
0.000796624
0.0676628
0.00047711
0.0673291
0.00017169
0.0670248
-0.0001181
0.0667414
-0.000390409
0.0664721
-0.000642887
0.066211
-0.000872676
0.0659529
-0.00107649
0.0656935
-0.00125067
0.0654293
-0.00139139
0.0651592
-0.00149543
0.0648879
-0.0015538
0.0551565
-0.00158
0.0458335
-0.00158519
0.0381134
-0.00157678
0.03171
-0.00155981
0.0263905
0.0219658
-0.00153794
0.000379967
0.0143456
0.00159417
0.0406387
0.00288922
0.0604584
0.0035286
0.0707584
0.00349692
0.0735728
0.00314913
0.0729898
0.00274166
0.0717401
0.00235009
0.0707084
0.00197548
0.0699365
0.00161083
0.0693274
0.0012536
0.068821
0.000903635
0.0683865
0.0005616
0.0680049
0.000228616
0.0676621
-9.40677e-05
0.0673475
-0.000404735
0.0670521
-0.000701193
0.0667686
-0.000980638
0.0664905
-0.00123976
0.066212
-0.00147474
0.0659284
-0.00168137
0.065636
-0.00185532
0.0653331
-0.00199306
0.0650256
-0.00208021
0.0552437
-0.00212923
0.0458826
-0.00215097
0.0381351
-0.00215311
0.0317121
-0.00214161
0.026379
0.0219457
-0.00212155
0.000323459
0.0140222
0.00136796
0.0395942
0.00255053
0.0592758
0.00319816
0.0701108
0.00322311
0.0735479
0.00291426
0.0732987
0.00252092
0.0721334
0.00213276
0.0710966
0.00175814
0.0703112
0.00139094
0.0696946
0.00102799
0.0691839
0.000668649
0.0687458
0.000313329
0.0683602
-3.7161e-05
0.0680126
-0.000381533
0.0676919
-0.000718174
0.0673887
-0.00104462
0.067095
-0.0013578
0.0668036
-0.00165403
0.0665082
-0.00192902
0.0662034
-0.00217811
0.065885
-0.00239696
0.065552
-0.0025829
0.0652116
-0.00271554
0.0553763
-0.00280589
0.0459729
-0.00286282
0.038192
-0.00289198
0.0317413
-0.00289862
0.0263856
0.021936
-0.00288895
0.000238629
0.0137835
0.00100839
0.0388245
0.00192177
0.0583624
0.00246295
0.0695696
0.00251803
0.0734928
0.00228442
0.0735323
0.00196276
0.0724551
0.00163686
0.0714225
0.00131929
0.0706287
0.0010058
0.0700081
0.000693239
0.0694965
0.000380598
0.0690585
6.78362e-05
0.068673
-0.000244761
0.0683252
-0.000556456
0.0680036
-0.000865818
0.0676981
-0.00117088
0.0674001
-0.00146902
0.0671018
-0.00175688
0.0667961
-0.00203038
0.0664769
-0.00228495
0.0661396
-0.00251649
0.0657835
-0.00272342
0.0654185
-0.00288388
0.0555368
-0.00300841
0.0460974
-0.00310391
0.0382875
-0.00317172
0.0318091
-0.00321196
0.0264258
0.0219527
-0.0032286
0.000179531
0.013604
0.000754568
0.0382495
0.00146069
0.0576563
0.00190456
0.0691257
0.00197003
0.0734273
0.00179223
0.0737101
0.00153063
0.0727167
0.00125966
0.0716934
0.000993358
0.070895
0.000728808
0.0702727
0.000462986
0.0697623
0.000194614
0.0693268
-7.67728e-05
0.0689444
-0.000351277
0.0685997
-0.000628547
0.0682808
-0.000907746
0.0679773
-0.00118752
0.0676799
-0.00146589
0.0673801
-0.00174006
0.0670703
-0.00200641
0.0667433
-0.00226047
0.0663937
-0.00249776
0.0660208
-0.00271585
0.0656366
-0.0028908
0.0557117
-0.00303553
0.0462422
-0.00316145
0.0384135
-0.00327326
0.0319209
-0.00336871
0.0265213
0.022018
-0.00343407
0.000139234
0.0134648
0.000577654
0.037811
0.00112983
0.0571041
0.00149286
0.0687627
0.00155892
0.0733612
0.00142207
0.0738469
0.00120908
0.0729297
0.000984243
0.0719183
0.000761518
0.0711178
0.000538929
0.0704953
0.000313702
0.0699875
8.44362e-05
0.0695561
-0.000149605
0.0691784
-0.000388809
0.0688389
-0.000633227
0.0685252
-0.000882573
0.0682266
-0.00113613
0.0679334
-0.00139262
0.0676366
-0.00165003
0.0673277
-0.00190547
0.0669987
-0.00215497
0.0666432
-0.00239376
0.0662596
-0.00261712
0.0658599
-0.00279494
0.0558895
-0.00293817
0.0463854
-0.00306373
0.038539
-0.00318607
0.0320433
-0.00332344
0.0266587
0.0221817
-0.00348707
0.000107294
0.0133575
0.000449627
0.0374687
0.000889984
0.0566638
0.00118886
0.0684638
0.00124946
0.0733006
0.00114061
0.0739558
0.00096554
0.0731047
0.000779028
0.0721048
0.000593352
0.0713034
0.00040674
0.0706819
0.000216642
0.0701776
2.16761e-05
0.0697511
-0.000178972
0.069379
-0.000385888
0.0690458
-0.000599481
0.0687388
-0.00081992
0.0684471
-0.00104707
0.0681606
-0.00128035
0.0678699
-0.00151857
0.0675659
-0.00175985
0.06724
-0.00200142
0.0668847
-0.00223966
0.0664978
-0.00246956
0.0660898
-0.00265424
0.0560742
-0.002793
0.0465241
-0.00289245
0.0386385
-0.00296244
0.0321132
-0.00302042
0.0267166
-0.00320459
0.0223658
0.00010956
0.0219829
0.000151503
0.0219854
0.000184504
0.0219944
0.000215165
0.0219967
0.00024001
0.0220025
0.000260326
0.022007
0.000277614
0.0220101
0.000288586
0.0220164
0.000297553
0.0220184
0.0003015
0.0220234
0.00030238
0.0220265
0.000300735
0.022029
0.000294644
0.0220334
0.000286951
0.022035
0.000276006
0.0220383
0.000262753
0.0220406
0.000248164
0.0220419
0.000230591
0.0220449
0.000211951
0.022046
0.000192068
0.0220472
0.000170615
0.0220488
0.000148542
0.0220494
0.000125794
0.0220501
0.00010253
0.0220506
7.91504e-05
0.0220507
5.58222e-05
0.0220507
3.29296e-05
0.0220502
1.04714e-05
0.0220498
-1.12319e-05
0.0220491
-3.154e-05
0.0220477
-5.09482e-05
0.0220468
-6.86263e-05
0.022045
-8.42704e-05
0.022043
-9.86449e-05
0.0220417
-0.000109712
0.0220384
-0.000118796
0.0220364
-0.00012559
0.0220341
-0.000128199
0.02203
-0.000129016
0.0220282
-0.000125149
0.0220235
-0.000118112
0.0220203
-0.000107937
0.0220172
-9.19488e-05
0.0220114
-7.37845e-05
0.0220092
-4.88866e-05
0.0220025
-2.05294e-05
0.021999
1.26518e-05
0.0219942
5.22042e-05
0.0219878
0.0219853
9.42728e-05
0.000144689
0.021939
0.000186286
0.0219438
0.00021917
0.0219615
0.000249961
0.0219659
0.000275187
0.0219773
0.000296136
0.0219861
0.000314297
0.0219919
0.000326375
0.0220043
0.000336667
0.0220081
0.000342147
0.0220179
0.000344755
0.0220239
0.000345018
0.0220287
0.000341007
0.0220375
0.000335547
0.0220405
0.000326979
0.0220469
0.000316232
0.0220514
0.00030426
0.0220539
0.000289412
0.0220598
0.000273583
0.0220618
0.000256585
0.0220642
0.000238081
0.0220673
0.000219005
0.0220685
0.000199288
0.0220698
0.000179079
0.0220708
0.000158763
0.0220711
0.000138493
0.022071
0.000118646
0.0220701
9.92034e-05
0.0220693
8.04745e-05
0.0220678
6.30907e-05
0.022065
4.65338e-05
0.0220633
3.16251e-05
0.0220599
1.8654e-05
0.022056
6.83483e-06
0.0220535
-1.79558e-06
0.0220471
-8.58201e-06
0.0220432
-1.32278e-05
0.0220388
-1.38425e-05
0.0220306
-1.28422e-05
0.0220272
-7.33703e-06
0.022018
1.13738e-06
0.0220118
1.25333e-05
0.0220058
2.95248e-05
0.0219944
4.84437e-05
0.0219903
7.38508e-05
0.0219771
0.000102443
0.0219704
0.000135569
0.021961
0.000174753
0.0219486
0.0219439
0.000216118
0.00015676
0.0218954
0.000198283
0.0219023
0.000231353
0.0219284
0.000262595
0.0219347
0.000288536
0.0219513
0.000310452
0.0219642
0.000329825
0.0219725
0.000343348
0.0219908
0.000355306
0.0219961
0.000362663
0.0220106
0.000367344
0.0220192
0.000369865
0.0220262
0.000368286
0.022039
0.000365415
0.0220434
0.000359583
0.0220527
0.000351706
0.0220592
0.000342722
0.0220629
0.000330971
0.0220715
0.000318329
0.0220745
0.000304597
0.022078
0.000289427
0.0220825
0.000273734
0.0220842
0.000257438
0.0220861
0.000240678
0.0220876
0.000223819
0.0220879
0.000207003
0.0220878
0.000190597
0.0220865
0.000174561
0.0220853
0.000159196
0.0220832
0.000145122
0.0220791
0.0001318
0.0220766
0.000120044
0.0220717
0.000110131
0.0220659
0.000101256
0.0220624
9.54525e-05
0.0220529
9.13533e-05
0.0220473
8.92414e-05
0.0220409
9.10008e-05
0.0220288
9.41904e-05
0.022024
0.000101699
0.0220105
0.000111973
0.0220016
0.00012495
0.0219928
0.000143298
0.021976
0.000163324
0.0219702
0.00018959
0.0219508
0.000218766
0.0219412
0.000252188
0.0219276
0.000291366
0.0219094
0.0219029
0.000332384
0.00014908
0.0218516
0.000191042
0.0218603
0.000224792
0.0218946
0.00025698
0.0219025
0.000284134
0.0219242
0.000307529
0.0219408
0.000328639
0.0219514
0.000344145
0.0219753
0.000358323
0.021982
0.000368122
0.0220008
0.000375457
0.0220119
0.000380828
0.0220208
0.000382282
0.0220376
0.000382615
0.022043
0.000380142
0.0220552
0.000375765
0.0220636
0.000370409
0.0220683
0.000362399
0.0220795
0.000353597
0.0220833
0.000343787
0.0220878
0.000332611
0.0220937
0.000320964
0.0220958
0.000308755
0.0220983
0.000296107
0.0221002
0.000283369
0.0221006
0.000270671
0.0221005
0.000258366
0.0220988
0.000246396
0.0220973
0.000235049
0.0220945
0.000224933
0.0220892
0.000215491
0.0220861
0.000207526
0.0220797
0.000201301
0.0220721
0.000195991
0.0220677
0.000193627
0.0220552
0.00019282
0.0220481
0.00019384
0.0220399
0.000198567
0.0220241
0.000204534
0.022018
0.00021463
0.0220004
0.000227279
0.0219889
0.000242408
0.0219777
0.000262684
0.0219558
0.000284384
0.0219485
0.000312075
0.0219231
0.000342398
0.0219109
0.000376679
0.0218933
0.000416419
0.0218697
0.0218617
0.000457662
0.000121425
0.0218068
0.000164556
0.0218172
0.000199692
0.0218595
0.000233548
0.0218686
0.000262646
0.0218951
0.000288264
0.0219152
0.000311871
0.0219278
0.000330133
0.021957
0.000347322
0.0219648
0.00036037
0.0219877
0.00037118
0.022001
0.000380239
0.0220118
0.000385578
0.0220322
0.000389981
0.0220386
0.000391745
0.0220534
0.000391761
0.0220636
0.000390934
0.0220691
0.000387576
0.0220829
0.000383533
0.0220873
0.000378574
0.0220927
0.000372323
0.0220999
0.000365659
0.0221025
0.000358476
0.0221055
0.000350883
0.0221078
0.000343208
0.0221083
0.000335567
0.0221081
0.000328301
0.0221061
0.000321332
0.0221042
0.00031493
0.0221009
0.000309695
0.0220945
0.000305048
0.0220907
0.000301779
0.0220829
0.000300138
0.0220737
0.000299281
0.0220686
0.000301232
0.0220533
0.000304582
0.0220448
0.000309586
0.0220349
0.000318121
0.0220156
0.000327694
0.0220084
0.000341195
0.0219869
0.00035703
0.0219731
0.00037511
0.0219596
0.000398105
0.0219328
0.000422262
0.0219244
0.00045216
0.0218932
0.000484412
0.0218787
0.000520336
0.0218574
0.000561425
0.0218286
0.0218194
0.000603681
7.20117e-05
0.0217599
0.000117175
0.021772
0.000154685
0.021822
0.000191194
0.0218321
0.000223202
0.0218631
0.000252025
0.0218863
0.000279136
0.0219007
0.000301181
0.021935
0.000322432
0.0219435
0.0003398
0.0219704
0.00035518
0.0219857
0.000369045
0.0219979
0.000379404
0.0220219
0.000389034
0.022029
0.000396212
0.0220462
0.00040181
0.022058
0.000406721
0.0220642
0.000409236
0.0220804
0.000411184
0.0220854
0.000412317
0.0220916
0.000412241
0.0221
0.000411818
0.0221029
0.000410921
0.0221064
0.000409644
0.0221091
0.000408296
0.0221097
0.000406972
0.0221094
0.000406
0.022107
0.000405279
0.022105
0.000405064
0.0221011
0.00040594
0.0220936
0.000407304
0.0220894
0.000409935
0.0220803
0.000414068
0.0220696
0.000418832
0.0220638
0.000426254
0.0220458
0.000434895
0.0220361
0.000444997
0.0220248
0.000458436
0.0220021
0.000472687
0.0219942
0.000490649
0.0219689
0.000510701
0.021953
0.000532744
0.0219376
0.000559455
0.021906
0.000587045
0.0218968
0.000620113
0.0218601
0.000655237
0.0218435
0.000693734
0.0218189
0.000737089
0.0217853
0.0217752
0.000781254
-3.8455e-06
0.0217108
4.50437e-05
0.0217231
8.65317e-05
0.0217805
0.000126932
0.0217917
0.000163217
0.0218268
0.000196612
0.0218529
0.000228566
0.0218688
0.000255732
0.0219078
0.00028241
0.0219168
0.000305489
0.0219473
0.000326856
0.0219643
0.000346971
0.0219778
0.000363824
0.022005
0.000380179
0.0220127
0.000394292
0.0220321
0.000407019
0.0220453
0.000419235
0.022052
0.000429208
0.0220704
0.000438752
0.0220758
0.000447594
0.0220828
0.000455325
0.0220923
0.00046278
0.0220955
0.000469814
0.0220994
0.000476502
0.0221024
0.000483126
0.022103
0.000489763
0.0221028
0.000496722
0.0221001
0.000503876
0.0220978
0.00051146
0.0220935
0.000520045
0.022085
0.000528997
0.0220804
0.000539083
0.0220702
0.000550518
0.0220582
0.000562403
0.0220519
0.000576766
0.0220315
0.000592134
0.0220208
0.000608736
0.0220082
0.000628448
0.0219824
0.000648707
0.0219739
0.000672422
0.0219452
0.000697948
0.0219275
0.00072517
0.0219103
0.000756779
0.0218744
0.000788942
0.0218646
0.000826288
0.0218228
0.000865358
0.0218045
0.000907465
0.0217768
0.000954091
0.0217386
0.0217282
0.00100113
-0.000106959
0.0216571
-5.45455e-05
0.0216707
-9.2723e-06
0.0217352
3.66023e-05
0.0217458
7.87777e-05
0.0217846
0.000118342
0.0218134
0.000156679
0.0218304
0.000190611
0.0218739
0.000224394
0.0218831
0.000254882
0.0219168
0.000283985
0.0219352
0.000312148
0.0219496
0.000337333
0.0219798
0.000362297
0.0219877
0.000385268
0.0220091
0.000407084
0.0220235
0.000428597
0.0220304
0.000448052
0.022051
0.00046724
0.0220566
0.000485865
0.0220641
0.000503492
0.0220746
0.000520931
0.022078
0.000538012
0.0220823
0.000554784
0.0220856
0.000571502
0.0220863
0.000588214
0.0220861
0.000605212
0.0220831
0.000622331
0.0220807
0.000639782
0.0220761
0.000658121
0.0220667
0.000676672
0.0220619
0.00069619
0.0220507
0.000716867
0.0220375
0.000737763
0.022031
0.000760914
0.0220083
0.000784805
0.0219969
0.000809644
0.0219833
0.000837314
0.0219547
0.000865201
0.021946
0.000896235
0.0219142
0.000928735
0.021895
0.000962573
0.0218765
0.00100046
0.0218365
0.00103851
0.0218266
0.00108139
0.0217799
0.00112559
0.0217603
0.00117244
0.02173
0.00122341
0.0216877
0.0216773
0.00127434
-0.000247386
0.0215979
-0.000188496
0.0216118
-0.000136326
0.0216831
-8.44795e-05
0.021694
-3.60334e-05
0.0217362
1.0716e-05
0.0217666
5.74809e-05
0.0217836
0.000100301
0.0218311
0.00014318
0.0218402
0.000183197
0.0218768
0.000222218
0.0218962
0.000260652
0.0219112
0.000296444
0.0219441
0.000332354
0.0219518
0.000366576
0.0219749
0.000399931
0.0219901
0.000433245
0.0219971
0.000464731
0.0220195
0.000496158
0.0220252
0.000527196
0.0220331
0.000557383
0.0220444
0.000587495
0.0220479
0.000617328
0.0220525
0.000646904
0.0220561
0.000676435
0.0220568
0.000705937
0.0220566
0.000735677
0.0220533
0.00076544
0.0220509
0.000795409
0.0220461
0.000826115
0.022036
0.00085683
0.0220312
0.000888291
0.0220192
0.000920661
0.0220051
0.000952948
0.0219988
0.000987197
0.0219741
0.00102184
0.0219622
0.00105705
0.0219481
0.00109473
0.0219171
0.0011322
0.0219086
0.00117242
0.0218739
0.00121366
0.0218538
0.00125577
0.0218344
0.0013015
0.0217908
0.00134689
0.0217812
0.00139668
0.0217301
0.00144729
0.0217096
0.00150005
0.0216772
0.00155646
0.0216313
0.0216215
0.00161225
-0.000434248
0.0215318
-0.000367966
0.0215456
-0.000307859
0.021623
-0.000246928
0.0216331
-0.000188794
0.021678
-0.000132318
0.0217102
-7.61311e-05
0.0217275
-2.33634e-05
0.0217783
3.08816e-05
0.0217859
8.28832e-05
0.0218248
0.00013434
0.0218447
0.000185661
0.0218599
0.00023482
0.0218949
0.000284548
0.0219021
0.000332988
0.0219265
0.00038094
0.0219421
0.000429202
0.0219489
0.000475943
0.0219727
0.000522906
0.0219782
0.000569717
0.0219863
0.000615877
0.0219983
0.000662117
0.0220017
0.000708188
0.0220064
0.000754074
0.0220102
0.000799931
0.0220109
0.000845731
0.0220108
0.000891703
0.0220074
0.000937569
0.022005
0.000983469
0.0220002
0.0010299
0.0219895
0.00107607
0.021985
0.00112268
0.0219726
0.00116986
0.021958
0.00121655
0.0219521
0.00126479
0.0219258
0.00131295
0.0219141
0.00136118
0.0218999
0.00141138
0.0218669
0.00146079
0.0218592
0.0015124
0.0218223
0.00156444
0.0218017
0.00161673
0.0217821
0.00167207
0.0217355
0.00172641
0.0217269
0.00178456
0.021672
0.00184288
0.0216513
0.00190272
0.0216174
0.00196558
0.0215684
0.0215599
0.00202712
-0.000682078
0.0214574
-0.000606642
0.0214701
-0.000536744
0.0215531
-0.000465374
0.0215617
-0.000396064
0.0216087
-0.000327428
0.0216415
-0.000257987
0.021658
-0.000191347
0.0217116
-0.000123404
0.021718
-5.71768e-05
0.0217585
9.45335e-06
0.0217781
7.6882e-05
0.0217925
0.000142727
0.0218291
0.000209759
0.021835
0.000276077
0.0218602
0.000342451
0.0218758
0.000409629
0.0218817
0.000475722
0.0219066
0.000542438
0.0219115
0.000609341
0.0219194
0.000675878
0.0219317
0.000742719
0.0219348
0.000809555
0.0219396
0.000876312
0.0219434
0.000943072
0.0219442
0.00100974
0.0219441
0.0010765
0.0219406
0.00114298
0.0219386
0.00120926
0.0219339
0.00127579
0.021923
0.00134167
0.0219191
0.00140757
0.0219067
0.00147356
0.021892
0.00153848
0.0218872
0.00160439
0.0218599
0.00166955
0.0218489
0.00173407
0.0218354
0.00179986
0.0218011
0.00186405
0.021795
0.00192968
0.0217567
0.0019949
0.0217365
0.00205953
0.0217175
0.00212641
0.0216686
0.00219138
0.0216619
0.00225937
0.021604
0.00232666
0.021584
0.00239461
0.0215494
0.00246478
0.0214982
0.021492
0.0025327
-0.00101016
0.0213735
-0.000924203
0.0213842
-0.000842854
0.0214717
-0.000758948
0.0214778
-0.000676155
0.0215259
-0.000593123
0.0215585
-0.000508315
0.0215732
-0.000425295
0.0216286
-0.000339582
0.0216323
-0.00025463
0.0216736
-0.000168641
0.0216921
-8.12602e-05
0.0217051
5.38349e-06
0.0217424
9.40538e-05
0.0217464
0.00018284
0.0217714
0.000272503
0.0217861
0.000363711
0.0217905
0.000454478
0.0218159
0.000546435
0.0218196
0.000639066
0.0218268
0.000731743
0.0218391
0.000825056
0.0218415
0.000918611
0.021846
0.00101226
0.0218498
0.00110597
0.0218505
0.00119956
0.0218505
0.00129314
0.021847
0.00138621
0.0218455
0.00147875
0.0218414
0.00157115
0.0218306
0.00166235
0.0218279
0.00175298
0.0218161
0.00184301
0.0218019
0.00193114
0.021799
0.00201944
0.0217716
0.00210603
0.0217623
0.00219095
0.0217505
0.00227614
0.0217159
0.00235856
0.0217126
0.00244133
0.0216739
0.0025225
0.0216553
0.00260186
0.0216381
0.00268234
0.0215881
0.00275964
0.0215846
0.00283886
0.0215248
0.00291616
0.0215067
0.00299298
0.0214726
0.00307091
0.0214203
0.0214176
0.00314537
-0.00144411
0.0212797
-0.00134662
0.0212867
-0.00125244
0.0213775
-0.00115422
0.0213796
-0.00105575
0.0214275
-0.000955632
0.0214584
-0.000852286
0.0214699
-0.000749442
0.0215258
-0.000642537
0.0215254
-0.000535044
0.0215661
-0.000425024
0.0215821
-0.000312184
0.0215922
-0.0001989
0.0216291
-8.24078e-05
0.0216299
3.50113e-05
0.021654
0.000154078
0.021667
0.000276078
0.0216685
0.000398424
0.0216935
0.000522787
0.0216952
0.000648548
0.021701
0.000774969
0.0217126
0.000902532
0.021714
0.00103073
0.0217178
0.00115929
0.0217212
0.00128805
0.0217217
0.00141668
0.0217219
0.00154519
0.0217185
0.00167287
0.0217178
0.00179959
0.0217147
0.0019256
0.0217046
0.00204966
0.0217038
0.00217228
0.0216935
0.00229329
0.0216809
0.0024112
0.0216811
0.00252808
0.0216547
0.00264183
0.0216486
0.0027524
0.0216399
0.00286174
0.0216065
0.00296661
0.0216077
0.00307022
0.0215703
0.00317049
0.0215551
0.00326719
0.0215414
0.00336336
0.021492
0.00345454
0.0214934
0.00354607
0.0214332
0.00363398
0.0214188
0.00371982
0.0213868
0.00380528
0.0213348
0.0213372
0.00388564
-0.00201877
0.0211769
-0.00191011
0.021178
-0.00180287
0.0212703
-0.00168933
0.021266
-0.00157342
0.0213116
-0.00145361
0.0213386
-0.00132828
0.0213445
-0.00120132
0.0213988
-0.00106802
0.0213921
-0.000932152
0.0214302
-0.000791822
0.0214417
-0.000646833
0.0214472
-0.000499742
0.021482
-0.000347757
0.0214779
-0.000193061
0.0214993
-3.51392e-05
0.0215091
0.000125584
0.0215078
0.000288215
0.0215309
0.000454214
0.0215292
0.000622712
0.0215325
0.000792846
0.0215425
0.000964951
0.0215419
0.00113835
0.0215444
0.00131262
0.0215469
0.00148739
0.0215469
0.00166213
0.0215471
0.00183665
0.021544
0.00200999
0.0215445
0.00218178
0.0215429
0.0023521
0.0215343
0.00251937
0.0215366
0.00268394
0.0215289
0.00284543
0.0215194
0.00300205
0.0215245
0.00315582
0.021501
0.00330435
0.0215001
0.00344745
0.0214968
0.00358705
0.0214669
0.00371962
0.0214751
0.00384849
0.0214415
0.00397141
0.0214321
0.00408811
0.0214247
0.0042018
0.0213783
0.00430785
0.0213874
0.00441191
0.0213292
0.00450993
0.0213208
0.00460362
0.0212931
0.00469489
0.0212436
0.0212532
0.0047789
-0.00278079
0.0210688
-0.00266322
0.0210605
-0.00254438
0.0211515
-0.00241595
0.0211376
-0.00228169
0.0211773
-0.00213974
0.0211966
-0.00198832
0.0211931
-0.00183167
0.0212422
-0.00166514
0.0212256
-0.00149297
0.0212581
-0.00131355
0.0212623
-0.00112698
0.0212607
-0.000936168
0.0212912
-0.000738473
0.0212802
-0.000536427
0.0212972
-0.000329419
0.0213021
-0.000116555
0.0212949
9.87342e-05
0.0213156
0.000318647
0.0213093
0.000542818
0.0213083
0.000770092
0.0213152
0.00100067
0.0213113
0.00123369
0.0213114
0.00146854
0.0213121
0.00170454
0.0213109
0.00194086
0.0213108
0.00217705
0.0213078
0.00241167
0.0213099
0.00264401
0.0213106
0.00287382
0.0213045
0.00309901
0.0213114
0.00331962
0.0213083
0.00353493
0.0213041
0.00374266
0.0213168
0.00394477
0.0212989
0.00413841
0.0213064
0.00432315
0.0213121
0.00450093
0.0212891
0.00466778
0.0213083
0.00482717
0.0212821
0.00497664
0.0212827
0.00511586
0.0212855
0.00524828
0.0212458
0.00536903
0.0212666
0.00548428
0.0212139
0.00558995
0.0212151
0.0056881
0.0211949
0.005781
0.0211507
0.0211705
0.00586371
-0.0031453
0.0209855
-0.00305118
0.0209663
-0.00295126
0.0210515
-0.00283583
0.0210221
-0.00270774
0.0210492
-0.00256589
0.0210548
-0.00240983
0.0210371
-0.00224454
0.0210769
-0.0020671
0.0210481
-0.00188217
0.0210731
-0.00168902
0.0210692
-0.00148819
0.0210598
-0.00128246
0.0210855
-0.00106961
0.0210673
-0.000851827
0.0210794
-0.000628582
0.0210789
-0.000399277
0.0210656
-0.000165476
0.0210818
7.35949e-05
0.0210702
0.000317408
0.0210645
0.000565946
0.0210667
0.000819189
0.021058
0.00107628
0.0210543
0.00133649
0.0210519
0.00159892
0.0210485
0.00186248
0.0210472
0.00212637
0.0210439
0.00238883
0.0210474
0.00264873
0.0210507
0.00290539
0.0210478
0.00315636
0.0210604
0.00340126
0.0210634
0.003639
0.0210664
0.00386709
0.0210887
0.00408706
0.0210789
0.00429601
0.0210975
0.00449334
0.0211147
0.00468071
0.0211018
0.00485434
0.0211347
0.00501736
0.0211191
0.00516742
0.0211326
0.00530416
0.0211487
0.00543068
0.0211193
0.00554246
0.0211548
0.00564512
0.0211112
0.00573508
0.0211252
0.00581456
0.0211154
0.00588625
0.021079
0.0211103
0.00594646
-0.00337313
0.0209245
-0.00331173
0.0209049
-0.00324103
0.0209808
-0.0031439
0.020925
-0.00302232
0.0209276
-0.00287815
0.0209106
-0.00271464
0.0208735
-0.00253922
0.0209015
-0.00235152
0.0208604
-0.00215694