/*--------------------------------*- C++ -*----------------------------------*\
| =========                 |                                                 |
| \\      /  F ield         | OpenFOAM: The Open Source CFD Toolbox           |
|  \\    /   O peration     | Version:  2312                                  |
|   \\  /    A nd           | Website:  www.openfoam.com                      |
|    \\/     M anipulation  |                                                 |
\*---------------------------------------------------------------------------*/
FoamFile
{
    version     2.0;
    format      ascii;
    arch        "LSB;label=32;scalar=64";
    class       volVectorField;
    location    "37.398085829060513";
    object      U;
}
// * * * * * * * * * * * * * * * * * * * * * * * * * * * * * * * * * * * * * //

dimensions      [0 1 -1 0 0 0 0];

internalField   nonuniform List<vector> 
21039
(
(0.913763 0.0474383 0)
(1.02607 0.066494 0)
(1.00449 0.0294928 0)
(1.00177 0.0188939 0)
(1.00121 0.0138825 0)
(1.0008 0.0104987 0)
(1.00055 0.0081684 0)
(1.0004 0.00652153 0)
(1.00031 0.00530717 0)
(1.00024 0.00438142 0)
(1.00019 0.00365881 0)
(1.00015 0.00308434 0)
(1.00012 0.002621 0)
(1.0001 0.00224323 0)
(1.00008 0.0019329 0)
(1.00007 0.00167691 0)
(1.00005 0.00146558 0)
(1.00004 0.00129163 0)
(1.00003 0.00114944 0)
(1.00003 0.00103447 0)
(1.00002 0.00094293 0)
(1.00001 0.000872797 0)
(1.00001 0.000825663 0)
(1.00001 0.000783758 0)
(1.00001 0.000751872 0)
(1.00001 0.000726617 0)
(1.00001 0.000703599 0)
(1.00001 0.000672982 0)
(1.00002 0.00061335 0)
(0.794548 0.0730603 0)
(1.07452 0.121698 0)
(1.03989 0.0708544 0)
(1.01811 0.0497021 0)
(1.0113 0.0382774 0)
(1.00765 0.0294863 0)
(1.0054 0.0231781 0)
(1.00397 0.0185909 0)
(1.00301 0.0151239 0)
(1.00234 0.0124357 0)
(1.00186 0.0103099 0)
(1.0015 0.00859964 0)
(1.00122 0.00720419 0)
(1.00101 0.00605313 0)
(1.00083 0.00509616 0)
(1.00069 0.00429675 0)
(1.00057 0.00362794 0)
(1.00047 0.00306956 0)
(1.00038 0.00260628 0)
(1.00031 0.00222619 0)
(1.00024 0.00191947 0)
(1.00019 0.00167978 0)
(1.00014 0.00151092 0)
(1.00011 0.00138389 0)
(1.00009 0.00130402 0)
(1.00009 0.00125321 0)
(1.0001 0.00121704 0)
(1.00011 0.00117642 0)
(1.00012 0.00110216 0)
(0.667301 0.0572822 0)
(1.08304 0.124836 0)
(1.08438 0.0903355 0)
(1.04631 0.0676889 0)
(1.02908 0.054163 0)
(1.02027 0.0431921 0)
(1.01472 0.0348743 0)
(1.01102 0.0284815 0)
(1.00847 0.0234404 0)
(1.00665 0.0194192 0)
(1.00532 0.0161723 0)
(1.00432 0.0135172 0)
(1.00355 0.0113225 0)
(1.00294 0.00949282 0)
(1.00245 0.00795814 0)
(1.00205 0.00666643 0)
(1.00171 0.00557879 0)
(1.00142 0.00466588 0)
(1.00117 0.00390535 0)
(1.00095 0.00328005 0)
(1.00076 0.00277599 0)
(1.00058 0.002383 0)
(1.00043 0.00210645 0)
(1.00032 0.0019124 0)
(1.00026 0.00180016 0)
(1.00023 0.00173519 0)
(1.00023 0.00169349 0)
(1.00024 0.00165033 0)
(1.00024 0.00157358 0)
(0.540971 0.0352727 0)
(1.05074 0.110881 0)
(1.11593 0.0971014 0)
(1.07614 0.0763415 0)
(1.04926 0.062171 0)
(1.0353 0.0510549 0)
(1.02645 0.0423731 0)
(1.02029 0.0353388 0)
(1.01587 0.0295482 0)
(1.01264 0.0247759 0)
(1.01022 0.0208174 0)
(1.00837 0.0175086 0)
(1.00693 0.0147251 0)
(1.00578 0.0123714 0)
(1.00485 0.0103743 0)
(1.00407 0.0086778 0)
(1.00342 0.00723876 0)
(1.00285 0.00602424 0)
(1.00236 0.00500884 0)
(1.00192 0.00417307 0)
(1.00153 0.00350124 0)
(1.00117 0.00298086 0)
(1.00085 0.00261857 0)
(1.00061 0.00237717 0)
(1.00046 0.00224669 0)
(1.00038 0.00217784 0)
(1.00035 0.00213859 0)
(1.00035 0.00209965 0)
(1.00035 0.00202451 0)
(0.444096 0.0186758 0)
(0.997638 0.0919458 0)
(1.129 0.0957884 0)
(1.10146 0.0796001 0)
(1.06826 0.0655458 0)
(1.04979 0.0548645 0)
(1.03829 0.0464782 0)
(1.03008 0.0394438 0)
(1.02399 0.033471 0)
(1.01941 0.0284106 0)
(1.01591 0.0241039 0)
(1.01317 0.0204226 0)
(1.011 0.0172666 0)
(1.00925 0.0145553 0)
(1.0078 0.0122243 0)
(1.00659 0.0102225 0)
(1.00556 0.00851013 0)
(1.00466 0.00705571 0)
(1.00386 0.0058349 0)
(1.00314 0.00482889 0)
(1.00249 0.00402275 0)
(1.00189 0.00340367 0)
(1.00135 0.00298005 0)
(1.00094 0.00271234 0)
(1.00067 0.00257985 0)
(1.00051 0.00252047 0)
(1.00044 0.0024955 0)
(1.00043 0.0024713 0)
(1.00042 0.00240471 0)
(0.378496 0.00811006 0)
(0.939481 0.0719319 0)
(1.1269 0.0884762 0)
(1.12084 0.0788232 0)
(1.08551 0.0660673 0)
(1.06306 0.0560817 0)
(1.0493 0.048222 0)
(1.03949 0.0414825 0)
(1.03207 0.0356279 0)
(1.02636 0.0305538 0)
(1.02189 0.02614 0)
(1.01833 0.0222919 0)
(1.01546 0.0189344 0)
(1.0131 0.016005 0)
(1.01113 0.0134528 0)
(1.00946 0.0112366 0)
(1.00801 0.00932357 0)
(1.00673 0.00768768 0)
(1.00559 0.00630861 0)
(1.00455 0.0051708 0)
(1.00359 0.00426221 0)
(1.0027 0.00357175 0)
(1.00189 0.00311066 0)
(1.00126 0.00283767 0)
(1.00085 0.00272048 0)
(1.0006 0.00268544 0)
(1.00048 0.00268802 0)
(1.00044 0.00269032 0)
(1.0004 0.00264082 0)
(0.33323 0.0023396 0)
(0.883049 0.05393 0)
(1.11385 0.0780549 0)
(1.13384 0.0750585 0)
(1.10088 0.0645131 0)
(1.0753 0.0554434 0)
(1.05945 0.04824 0)
(1.04832 0.0419696 0)
(1.03984 0.0364063 0)
(1.03319 0.0314787 0)
(1.0279 0.0271059 0)
(1.02362 0.0232249 0)
(1.02011 0.0197836 0)
(1.01719 0.0167374 0)
(1.0147 0.0140494 0)
(1.01256 0.0116896 0)
(1.01069 0.00963403 0)
(1.00901 0.0078639 0)
(1.00749 0.00636487 0)
(1.0061 0.00512639 0)
(1.00479 0.00414105 0)
(1.00358 0.00340123 0)
(1.00245 0.00292227 0)
(1.00157 0.00266169 0)
(1.00097 0.00257502 0)
(1.0006 0.0025779 0)
(1.00042 0.00262066 0)
(1.00033 0.00266114 0)
(1.00026 0.00263797 0)
(0.300888 -0.000189059 0)
(0.831173 0.0396561 0)
(1.09352 0.067155 0)
(1.14048 0.0696525 0)
(1.11384 0.0616443 0)
(1.08647 0.0535705 0)
(1.06878 0.047027 0)
(1.05655 0.0412874 0)
(1.0472 0.0361019 0)
(1.03979 0.0314112 0)
(1.03382 0.0271682 0)
(1.02892 0.0233377 0)
(1.02484 0.0198882 0)
(1.02139 0.0167919 0)
(1.01843 0.0140255 0)
(1.01584 0.0115705 0)
(1.01354 0.00941228 0)
(1.01145 0.00753998 0)
(1.00954 0.00594632 0)
(1.00776 0.00462701 0)
(1.00608 0.0035805 0)
(1.00449 0.00280408 0)
(1.003 0.00231844 0)
(1.00182 0.0020809 0)
(1.00101 0.00203497 0)
(1.0005 0.00208616 0)
(1.00023 0.00217999 0)
(1.00009 0.00226982 0)
(0.999964 0.00228299 0)
(0.277878 -0.000984293 0)
(0.785372 0.0291481 0)
(1.0692 0.0571363 0)
(1.14158 0.0636412 0)
(1.1241 0.0581258 0)
(1.09647 0.051036 0)
(1.0773 0.045056 0)
(1.06413 0.0397977 0)
(1.05411 0.0349889 0)
(1.0461 0.0305601 0)
(1.03957 0.0264839 0)
(1.03414 0.0227446 0)
(1.02957 0.0193269 0)
(1.02566 0.0162171 0)
(1.02225 0.0134044 0)
(1.01923 0.0108806 0)
(1.01651 0.00864029 0)
(1.01402 0.00668088 0)
(1.01171 0.00500256 0)
(1.00952 0.00360802 0)
(1.00743 0.00250255 0)
(1.00543 0.00168952 0)
(1.00354 0.00119642 0)
(1.00202 0.000982381 0)
(1.00096 0.000979653 0)
(1.00028 0.0010836 0)
(0.999882 0.0012351 0)
(0.999652 0.00138344 0)
(0.999455 0.00144385 0)
(0.261414 -0.00102934 0)
(0.746046 0.0217003 0)
(1.04343 0.0484168 0)
(1.13846 0.0575846 0)
(1.13181 0.0543377 0)
(1.10536 0.0482023 0)
(1.08509 0.042678 0)
(1.07112 0.0378021 0)
(1.06057 0.033313 0)
(1.0521 0.0291208 0)
(1.04512 0.0252047 0)
(1.03927 0.0215599 0)
(1.03428 0.0181822 0)
(1.02995 0.0150684 0)
(1.02614 0.0122175 0)
(1.02272 0.00963001 0)
(1.01961 0.00730901 0)
(1.01671 0.00525967 0)
(1.01399 0.00348972 0)
(1.01138 0.00200942 0)
(1.00886 0.00083184 0)
(1.00641 -3.37251e-05 0)
(1.00407 -0.000551345 0)
(1.00216 -0.000755728 0)
(1.0008 -0.000724343 0)
(0.999911 -0.000572884 0)
(0.999364 -0.000371328 0)
(0.999016 -0.000157501 0)
(0.99871 -2.27104e-05 0)
(0.249181 -0.000811219 0)
(0.712709 0.0165249 0)
(1.01786 0.0410212 0)
(1.13236 0.0517659 0)
(1.1373 0.0504618 0)
(1.11326 0.0452398 0)
(1.09233 0.0400922 0)
(1.07764 0.0355008 0)
(1.06665 0.0312567 0)
(1.05782 0.0272509 0)
(1.05049 0.0234614 0)
(1.04429 0.0198885 0)
(1.03895 0.0165345 0)
(1.03428 0.0134035 0)
(1.03011 0.0105014 0)
(1.02632 0.00783591 0)
(1.02283 0.00541706 0)
(1.01954 0.00325712 0)
(1.0164 0.00137109 0)
(1.01336 -0.000224151 0)
(1.01039 -0.00150836 0)
(1.00746 -0.00246218 0)
(1.00463 -0.00303993 0)
(1.00228 -0.0032682 0)
(1.00058 -0.00322732 0)
(0.999429 -0.0030423 0)
(0.998684 -0.00278842 0)
(0.998175 -0.00252945 0)
(0.997721 -0.00237331 0)
(0.239659 -0.000553499 0)
(0.684532 0.0129372 0)
(0.993395 0.0348304 0)
(1.12428 0.0463329 0)
(1.1409 0.0466024 0)
(1.12028 0.0422308 0)
(1.09914 0.0374061 0)
(1.08385 0.0330165 0)
(1.07247 0.0289426 0)
(1.06335 0.0250655 0)
(1.05574 0.0213571 0)
(1.04927 0.0178187 0)
(1.04364 0.0144563 0)
(1.03867 0.0112784 0)
(1.03418 0.00829571 0)
(1.03007 0.00552137 0)
(1.02622 0.00297096 0)
(1.02256 0.00066284 0)
(1.01902 -0.00138334 0)
(1.01554 -0.00314346 0)
(1.01209 -0.00458795 0)
(1.00866 -0.00568785 0)
(1.00529 -0.00638604 0)
(1.00245 -0.00669522 0)
(1.00035 -0.00669128 0)
(0.998874 -0.00650656 0)
(0.997866 -0.00622233 0)
(0.997129 -0.00591808 0)
(0.996472 -0.00573098 0)
(0.231977 -0.000346495 0)
(0.66069 0.0104007 0)
(0.970539 0.0296692 0)
(1.11497 0.0413482 0)
(1.14292 0.0428306 0)
(1.12648 0.0392273 0)
(1.10562 0.0346863 0)
(1.08984 0.0304313 0)
(1.07811 0.0264584 0)
(1.06876 0.0226512 0)
(1.06094 0.018974 0)
(1.05425 0.0154257 0)
(1.04839 0.0120135 0)
(1.04317 0.00874819 0)
(1.03842 0.0056436 0)
(1.03401 0.00271652 0)
(1.02984 -1.41439e-05 0)
(1.02583 -0.00252646 0)
(1.0219 -0.00479417 0)
(1.01799 -0.00678562 0)
(1.01406 -0.00846417 0)
(1.01009 -0.00979241 0)
(1.00616 -0.0107019 0)
(1.00278 -0.0111845 0)
(1.00021 -0.0112997 0)
(0.998343 -0.0111828 0)
(0.996989 -0.0109212 0)
(0.995937 -0.0106067 0)
(0.994991 -0.0104036 0)
(0.225627 -0.000208056 0)
(0.640455 0.00854178 0)
(0.949512 0.0253575 0)
(1.10503 0.0368189 0)
(1.14369 0.0391922 0)
(1.13197 0.0362661 0)
(1.11183 0.0319791 0)
(1.09572 0.0278066 0)
(1.08369 0.0238743 0)
(1.07414 0.0200816 0)
(1.06617 0.0163853 0)
(1.05931 0.01278 0)
(1.05328 0.00927183 0)
(1.04786 0.00587203 0)
(1.04289 0.00259561 0)
(1.03824 -0.000540036 0)
(1.03379 -0.003514 0)
(1.02946 -0.00629987 0)
(1.02517 -0.00886544 0)
(1.02084 -0.0111732 0)
(1.01643 -0.0131807 0)
(1.01192 -0.0148442 0)
(1.0074 -0.0160871 0)
(1.00344 -0.0168767 0)
(1.00036 -0.0172402 0)
(0.998023 -0.0173067 0)
(0.996224 -0.0171634 0)
(0.994742 -0.0169132 0)
(0.993394 -0.0167419 0)
(0.220285 -0.00012842 0)
(0.623215 0.0071302 0)
(0.930372 0.021764 0)
(1.09486 0.0327529 0)
(1.14345 0.0357313 0)
(1.13678 0.0333756 0)
(1.11778 0.0293124 0)
(1.1015 0.0251834 0)
(1.08922 0.0212422 0)
(1.07952 0.0174147 0)
(1.07143 0.0136524 0)
(1.06446 0.00994423 0)
(1.05831 0.00629354 0)
(1.05275 0.00271004 0)
(1.04761 -0.000793038 0)
(1.04276 -0.0041988 0)
(1.03809 -0.00748434 0)
(1.03348 -0.0106197 0)
(1.02885 -0.0135685 0)
(1.02413 -0.0162877 0)
(1.01926 -0.0187303 0)
(1.01422 -0.0208491 0)
(1.00912 -0.022566 0)
(1.00463 -0.0238338 0)
(1.00106 -0.0246383 0)
(0.998236 -0.0250883 0)
(0.995921 -0.0252509 0)
(0.993891 -0.0252212 0)
(0.992001 -0.0251834 0)
(0.216106 -7.66019e-05 0)
(0.609536 0.0061112 0)
(0.914366 0.0189708 0)
(1.08561 0.0293857 0)
(1.14264 0.0327285 0)
(1.14078 0.030817 0)
(1.12314 0.0269397 0)
(1.10687 0.0228291 0)
(1.09442 0.0188495 0)
(1.08462 0.0149569 0)
(1.07647 0.0110992 0)
(1.06945 0.0072589 0)
(1.06324 0.00343473 0)
(1.05761 -0.000367529 0)
(1.05239 -0.00413839 0)
(1.04743 -0.00786271 0)
(1.0426 -0.0115177 0)
(1.0378 -0.0150726 0)
(1.03291 -0.0184884 0)
(1.02787 -0.0217171 0)
(1.0226 -0.0247037 0)
(1.0171 -0.0273937 0)
(1.0115 -0.0297038 0)
(1.00656 -0.0315771 0)
(1.00262 -0.0329811 0)
(0.999421 -0.0340263 0)
(0.996626 -0.0347492 0)
(0.993965 -0.0351884 0)
(0.991333 -0.0354621 0)
(0.213038 -4.61346e-05 0)
(0.599505 0.0054147 0)
(0.902148 0.0169591 0)
(1.07809 0.026842 0)
(1.14164 0.0303875 0)
(1.14385 0.0287968 0)
(1.12754 0.025059 0)
(1.11139 0.0209524 0)
(1.09884 0.0169276 0)
(1.08899 0.0129662 0)
(1.08083 0.00901234 0)
(1.07382 0.00504145 0)
(1.06761 0.00104683 0)
(1.06198 -0.00297094 0)
(1.05675 -0.00700703 0)
(1.05176 -0.0110503 0)
(1.04687 -0.0150813 0)
(1.04196 -0.0190727 0)
(1.03692 -0.022987 0)
(1.03167 -0.0267734 0)
(1.02611 -0.0303694 0)
(1.02025 -0.0337075 0)
(1.01425 -0.0366776 0)
(1.00901 -0.0391833 0)
(1.00489 -0.0411902 0)
(1.00159 -0.0428911 0)
(0.998666 -0.0444036 0)
(0.995715 -0.0457527 0)
(0.992611 -0.0467876 0)
(0.21067 -7.78813e-07 0)
(0.591827 0.00493889 0)
(0.89252 0.0154945 0)
(1.07184 0.0249085 0)
(1.14055 0.0285638 0)
(1.14621 0.0272131 0)
(1.13117 0.0235911 0)
(1.1152 0.0194933 0)
(1.10259 0.0154341 0)
(1.09272 0.0114156 0)
(1.08458 0.00737874 0)
(1.0776 0.00329317 0)
(1.07143 -0.000852957 0)
(1.06584 -0.00506475 0)
(1.06064 -0.00934294 0)
(1.05567 -0.0136819 0)
(1.05079 -0.0180691 0)
(1.04586 -0.0224843 0)
(1.04076 -0.0268957 0)
(1.03539 -0.0312562 0)
(1.02965 -0.0355006 0)
(1.02353 -0.0395515 0)
(1.01721 -0.0432575 0)
(1.01168 -0.0464028 0)
(1.00742 -0.0488659 0)
(1.00419 -0.0509062 0)
(1.00162 -0.0528842 0)
(0.999384 -0.0551842 0)
(0.996919 -0.0572518 0)
(0.209164 -9.60776e-06 0)
(0.586552 0.00456832 0)
(0.885675 0.0144474 0)
(1.0673 0.0235333 0)
(1.13978 0.0272467 0)
(1.14807 0.0260268 0)
(1.13405 0.0224556 0)
(1.11827 0.0183552 0)
(1.10567 0.0142739 0)
(1.0958 0.0102146 0)
(1.08771 0.00611121 0)
(1.08079 0.00192884 0)
(1.07469 -0.00234757 0)
(1.06918 -0.00672819 0)
(1.06405 -0.01122 0)
(1.05916 -0.0158247 0)
(1.05434 -0.0205389 0)
(1.04946 -0.0253523 0)
(1.04441 -0.0302437 0)
(1.03904 -0.0351763 0)
(1.03327 -0.0400939 0)
(1.02709 -0.0449311 0)
(1.02066 -0.0495274 0)
(1.01503 -0.0535159 0)
(1.0107 -0.0565511 0)
(1.0075 -0.05867 0)
(1.00517 -0.0598971 0)
(1.00373 -0.0609244 0)
(1.00401 -0.0656801 0)
(1.00002 0.00061945 0)
(1.00002 0.000618441 0)
(1.00001 0.00061278 0)
(1.00001 0.000608163 1.00157e-21)
(1.00001 0.000605619 4.99699e-21)
(1.00001 0.000604975 -8.99296e-21)
(1.00001 0.000606069 4.99519e-21)
(1.00001 0.000608784 -3.98199e-21)
(1.00001 0.000612978 5.07705e-22)
(1 0.000618656 3.9813e-21)
(1 0.00062566 0)
(1 0.000633973 -4.45549e-21)
(1 0.000643481 5.04979e-22)
(0.999999 0.00065406 3.95708e-21)
(0.999997 0.00066569 0)
(0.999996 0.00067821 0)
(0.999995 0.000691579 -3.92529e-21)
(0.999994 0.000705663 3.92776e-21)
(0.999992 0.000720309 0)
(0.999991 0.000735512 -1.95014e-21)
(0.99999 0.000751093 2.07279e-21)
(0.999989 0.00076694 1.81931e-21)
(0.999988 0.000783 -2.90935e-21)
(0.999988 0.000799098 9.37928e-22)
(0.999987 0.00081514 3.00835e-23)
(0.999986 0.000831057 -6.01357e-23)
(0.999986 0.000846678 8.37172e-22)
(0.999985 0.000861961 -9.56914e-22)
(0.999985 0.000876756 0)
(0.999985 0.000890867 0)
(0.999985 0.000904352 -2.36449e-22)
(0.999984 0.000917141 -2.35569e-22)
(0.999984 0.000929114 -3.98255e-21)
(0.999985 0.000940251 3.27765e-21)
(0.999985 0.000950431 -4.18393e-21)
(0.999985 0.000959614 4.1788e-21)
(0.999986 0.000967768 -3.22589e-21)
(0.999986 0.000974777 3.22434e-21)
(0.999987 0.000980643 4.57838e-22)
(0.999988 0.000985264 4.55849e-22)
(0.999989 0.000988623 -4.53826e-22)
(0.99999 0.000990694 0)
(0.999991 0.000991381 0)
(0.999992 0.000990733 0)
(0.999994 0.000988648 0)
(0.999995 0.000985276 0)
(0.999996 0.00098057 1.76348e-21)
(0.999998 0.000973667 -1.76062e-21)
(0.999999 0.000960591 0)
(1.00011 0.0011038 0)
(1.00009 0.0010992 2.01971e-21)
(1.00008 0.00109203 -2.01378e-21)
(1.00006 0.00108895 -1.00536e-21)
(1.00005 0.00109107 -1.0057e-21)
(1.00003 0.00109781 -3.00865e-21)
(1.00002 0.00110889 5.02241e-21)
(1 0.0011243 0)
(0.99999 0.0011435 -5.00193e-22)
(0.999978 0.00116665 -9.99657e-22)
(0.999965 0.00119326 0)
(0.999954 0.00122324 4.97916e-22)
(0.999943 0.00125641 -4.46929e-21)
(0.999932 0.00129232 3.97573e-21)
(0.999922 0.00133098 0)
(0.999913 0.00137197 9.89802e-22)
(0.999905 0.00141508 0)
(0.999897 0.00146016 0)
(0.99989 0.00150672 0)
(0.999884 0.00155468 -1.9588e-21)
(0.999878 0.00160376 1.83726e-21)
(0.999873 0.00165357 -1.2224e-22)
(0.999869 0.00170397 0)
(0.999866 0.00175465 -4.54422e-22)
(0.999864 0.0018053 4.77244e-22)
(0.999862 0.00185572 9.05467e-23)
(0.999861 0.00190561 1.20283e-22)
(0.999861 0.00195471 0)
(0.999862 0.00200281 -1.90991e-21)
(0.999864 0.00204961 1.90948e-21)
(0.999866 0.00209489 -3.55639e-21)
(0.99987 0.00213842 7.80936e-21)
(0.999874 0.00217996 -3.54289e-21)
(0.999878 0.0022193 4.69688e-22)
(0.999884 0.00225617 4.67911e-22)
(0.99989 0.00229043 4.66598e-22)
(0.999897 0.00232186 -4.64151e-22)
(0.999905 0.0023502 4.15467e-21)
(0.999913 0.0023754 -3.22808e-21)
(0.999922 0.00239711 -1.37529e-21)
(0.999932 0.00241527 5.01399e-21)
(0.999943 0.00242965 -3.64046e-21)
(0.999954 0.00244005 -1.80918e-21)
(0.999966 0.00244648 3.59519e-21)
(0.999978 0.00244851 -7.16952e-21)
(0.999991 0.00244634 3.57335e-21)
(1 0.00243975 1.77235e-21)
(1.00002 0.00242798 -3.36885e-24)
(1.00003 0.00240623 0)
(1.00022 0.0015665 3.03784e-21)
(1.00018 0.00156057 -1.01428e-21)
(1.00014 0.00155769 -4.04288e-21)
(1.00009 0.00156173 2.01646e-21)
(1.00005 0.00157386 -2.01649e-21)
(1.00001 0.00159327 0)
(0.99997 0.00161965 -2.00827e-21)
(0.999932 0.00165312 -6.01601e-21)
(0.999897 0.00169261 6.01802e-21)
(0.999863 0.00173853 9.99536e-22)
(0.99983 0.00178999 0)
(0.9998 0.0018468 -5.98057e-21)
(0.999771 0.00190887 9.80243e-24)
(0.999745 0.00197521 3.97963e-21)
(0.99972 0.00204602 0)
(0.999697 0.00212053 -9.89085e-22)
(0.999677 0.00219834 -9.8939e-22)
(0.999658 0.00227946 0)
(0.999642 0.00236282 -9.85081e-22)
(0.999628 0.00244837 -1.96012e-21)
(0.999616 0.00253577 1.96072e-21)
(0.999606 0.00262426 -2.45039e-22)
(0.999599 0.00271365 -2.43847e-22)
(0.999593 0.00280352 0)
(0.99959 0.00289324 3.77854e-23)
(0.999589 0.00298254 -2.11418e-22)
(0.999591 0.00307103 0)
(0.999594 0.00315814 0)
(0.9996 0.00324355 -1.91025e-21)
(0.999608 0.0033269 1.90988e-21)
(0.999618 0.00340769 -3.79414e-21)
(0.99963 0.00348558 3.79288e-21)
(0.999645 0.0035602 0)
(0.999661 0.00363114 0)
(0.999679 0.00369803 0)
(0.999699 0.00376059 -9.31829e-22)
(0.999721 0.00381837 -1.85794e-21)
(0.999745 0.00387107 0)
(0.999771 0.00391845 -9.20327e-22)
(0.999799 0.00395999 -9.09919e-22)
(0.999829 0.0039956 2.74425e-21)
(0.99986 0.00402485 0)
(0.999894 0.00404736 3.61152e-21)
(0.999929 0.00406314 -5.40697e-21)
(0.999965 0.00407144 0)
(1 0.0040725 0)
(1.00004 0.0040657 0)
(1.00008 0.00405029 -1.76725e-21)
(1.00013 0.00402253 -1.75717e-21)
(1.0003 0.00201177 -2.02911e-21)
(1.00023 0.00201096 4.06153e-21)
(1.00015 0.00201988 4.05521e-21)
(1.00007 0.00203828 6.06554e-21)
(0.999985 0.00206764 -2.02618e-21)
(0.999907 0.00210704 -4.02932e-21)
(0.999832 0.00215614 8.05795e-21)
(0.99976 0.0022153 -3.32548e-24)
(0.999692 0.00228271 -2.00614e-21)
(0.999627 0.0023592 2.00896e-21)
(0.999566 0.00244335 0)
(0.999509 0.0025349 1.99629e-21)
(0.999456 0.00263389 -1.9863e-21)
(0.999407 0.00273866 7.96727e-21)
(0.999361 0.00284968 -7.9515e-21)
(0.99932 0.00296578 5.96095e-21)
(0.999283 0.00308632 -9.95562e-22)
(0.99925 0.00321157 9.89786e-22)
(0.999222 0.00333973 9.84129e-22)
(0.999197 0.00347081 -9.85261e-22)
(0.999177 0.0036045 0)
(0.999162 0.00373947 -1.46524e-21)
(0.99915 0.00387558 1.22343e-21)
(0.999143 0.00401231 9.74295e-22)
(0.999141 0.00414862 4.54523e-23)
(0.999143 0.0042842 9.04611e-23)
(0.999149 0.00441858 1.44543e-21)
(0.999159 0.00455081 -9.62437e-22)
(0.999174 0.0046805 1.91224e-21)
(0.999193 0.00480722 -1.91193e-21)
(0.999216 0.00493013 0)
(0.999243 0.00504884 4.73218e-21)
(0.999274 0.00516283 -3.78205e-21)
(0.99931 0.00527144 3.75405e-21)
(0.999349 0.00537426 -3.75266e-21)
(0.999392 0.00547083 0)
(0.999439 0.00556049 3.70539e-21)
(0.999489 0.00564288 -1.85498e-21)
(0.999544 0.00571763 0)
(0.999602 0.005784 3.66231e-21)
(0.999663 0.00584191 -3.65718e-21)
(0.999728 0.00589067 1.81733e-21)
(0.999797 0.00592982 1.80865e-21)
(0.999868 0.00595935 5.39961e-21)
(0.999944 0.00597819 6.05864e-24)
(1.00002 0.00598668 3.57234e-21)
(1.0001 0.00598377 1.77114e-21)
(1.00019 0.0059687 1.76085e-21)
(1.00028 0.00593925 1.75821e-21)
(1.00034 0.00239207 0)
(1.00022 0.00240526 -4.06616e-21)
(1.00009 0.00243578 -4.05811e-21)
(0.999954 0.00247825 0)
(0.999822 0.0025346 -4.05006e-21)
(0.999696 0.00260386 8.48003e-24)
(0.999574 0.00268564 8.10185e-21)
(0.999457 0.00278066 -2.02885e-21)
(0.999347 0.00288618 -8.76154e-24)
(0.999243 0.00300366 -6.03809e-21)
(0.999145 0.00313098 0)
(0.999053 0.00326786 -6.01922e-21)
(0.998968 0.00341453 2.01083e-21)
(0.998889 0.00356846 0)
(0.998817 0.00373058 -2.00012e-21)
(0.998752 0.00389918 9.51975e-24)
(0.998694 0.00407336 -1.98556e-21)
(0.998643 0.00425376 6.93824e-21)
(0.998599 0.00443765 -1.07171e-23)
(0.998562 0.00462519 -9.9645e-22)
(0.998532 0.0048161 -9.83794e-22)
(0.99851 0.00500837 1.95916e-21)
(0.998494 0.00520198 -1.95945e-21)
(0.998486 0.00539627 -2.42485e-22)
(0.998486 0.00558973 5.0215e-22)
(0.998492 0.00578201 -2.71328e-22)
(0.998506 0.00597261 9.66275e-22)
(0.998527 0.00616009 -9.64522e-22)
(0.998555 0.00634402 9.61603e-22)
(0.99859 0.00652391 1.90898e-21)
(0.998632 0.00669853 -5.71178e-21)
(0.99868 0.00686743 -9.34075e-22)
(0.998736 0.00702998 5.68136e-21)
(0.998798 0.00718518 1.88556e-21)
(0.998867 0.00733265 -3.74332e-21)
(0.998942 0.00747173 3.74107e-21)
(0.999024 0.0076015 7.56289e-24)
(0.999111 0.00772161 5.55459e-21)
(0.999205 0.0078315 -3.70201e-21)
(0.999305 0.00793024 -9.18022e-21)
(0.999411 0.0080178 3.65334e-21)
(0.999523 0.00809319 1.81884e-21)
(0.99964 0.00815593 7.22856e-21)
(0.999763 0.00820597 -3.60528e-21)
(0.999892 0.00824195 -7.38224e-24)
(1.00003 0.00826437 -7.96187e-24)
(1.00017 0.00827171 0)
(1.00031 0.00826337 -3.53099e-21)
(1.00047 0.00823938 -3.50818e-21)
(1.00028 0.00263542 0)
(1.00011 0.00267361 -6.14454e-21)
(0.999917 0.00273757 6.13671e-21)
(0.999721 0.00281592 0)
(0.999528 0.00291132 0)
(0.999339 0.00302267 -4.06485e-21)
(0.999159 0.00314958 -2.7168e-24)
(0.998986 0.0032932 -4.06633e-21)
(0.998823 0.00344975 -8.5757e-24)
(0.998668 0.0036214 0)
(0.998523 0.00380526 0)
(0.998388 0.00400101 2.01085e-21)
(0.998262 0.00420915 0)
(0.998146 0.00442612 0)
(0.998041 0.0046534 -2.00466e-21)
(0.997946 0.00488866 4.01704e-21)
(0.997862 0.00513068 2.00261e-21)
(0.997788 0.0053806 0)
(0.997725 0.00563453 1.97376e-21)
(0.997673 0.00589289 -4.96119e-21)
(0.997632 0.00615539 -1.97608e-21)
(0.997602 0.00641926 -1.96695e-21)
(0.997582 0.00668461 1.96714e-21)
(0.997574 0.00695063 1.37644e-24)
(0.997577 0.00721527 1.52951e-23)
(0.997591 0.00747817 2.42924e-22)
(0.997616 0.00773874 -4.85498e-22)
(0.997651 0.00799502 0)
(0.997698 0.00824654 -9.60273e-22)
(0.997755 0.00849274 0)
(0.997822 0.00873192 0)
(0.997901 0.00896363 -1.90646e-21)
(0.997989 0.00918707 -7.57105e-21)
(0.998087 0.00940089 2.141e-23)
(0.998196 0.00960473 1.88232e-21)
(0.998314 0.00979773 0)
(0.998441 0.0099787 -1.85895e-21)
(0.998578 0.0101473 -3.71076e-21)
(0.998725 0.0103028 3.68421e-21)
(0.99888 0.010444 7.34228e-21)
(0.999044 0.010571 -7.30572e-21)
(0.999217 0.0106825 3.4273e-24)
(0.999398 0.0107779 -3.6163e-21)
(0.999588 0.0108573 7.18794e-25)
(0.999785 0.010919 0)
(0.999992 0.0109637 -3.56213e-21)
(1.00021 0.0109892 -1.76752e-21)
(1.00043 0.0109954 1.7662e-21)
(1.00068 0.0109857 3.50909e-21)
(1.00009 0.00264849 0)
(0.999856 0.00272496 4.10616e-21)
(0.999593 0.00283614 -1.23379e-20)
(0.999322 0.00296428 0)
(0.999052 0.00311308 0)
(0.998789 0.00328125 -8.19939e-21)
(0.998536 0.00346839 8.17192e-21)
(0.998294 0.0036762 -4.09761e-21)
(0.998064 0.0038996 -8.74853e-24)
(0.997848 0.00414175 4.07452e-21)
(0.997644 0.00439874 0)
(0.997455 0.00467028 0)
(0.997279 0.00495716 4.06547e-21)
(0.997118 0.0052546 0)
(0.996971 0.00556479 0)
(0.996839 0.00588462 -4.0257e-21)
(0.996723 0.00621254 1.50942e-23)
(0.996621 0.00655024 0)
(0.996535 0.0068925 1.99071e-21)
(0.996465 0.00724005 4.98195e-21)
(0.99641 0.00759258 -1.99635e-21)
(0.996371 0.00794646 0)
(0.996348 0.00830192 -9.85483e-22)
(0.996341 0.00865799 1.23137e-21)
(0.99635 0.009012 -5.3712e-22)
(0.996374 0.00936353 -2.4514e-22)
(0.996414 0.00971193 4.83295e-22)
(0.99647 0.0100547 -9.71583e-22)
(0.996541 0.0103911 0)
(0.996627 0.0107207 -3.85075e-21)
(0.996729 0.0110413 5.74448e-21)
(0.996846 0.0113522 1.88821e-21)
(0.996977 0.0116525 -6.95324e-24)
(0.997123 0.0119406 1.8865e-21)
(0.997282 0.012216 -1.89399e-21)
(0.997456 0.0124776 -3.73873e-21)
(0.997644 0.0127241 7.45695e-21)
(0.997844 0.0129549 -3.71603e-21)
(0.998058 0.0131692 7.39632e-21)
(0.998284 0.0133656 7.59077e-24)
(0.998523 0.0135443 7.30968e-21)
(0.998773 0.0137036 -3.63284e-21)
(0.999035 0.013843 0)
(0.999309 0.0139625 1.16481e-24)
(0.999595 0.01406 7.15618e-21)
(0.999892 0.0141367 0)
(1.0002 0.0141897 0)
(1.00053 0.0142193 6.15517e-21)
(1.00087 0.0142338 8.7696e-22)
(0.999726 0.00232019 1.03678e-21)
(0.999414 0.00245031 7.28447e-21)
(0.999064 0.00262387 8.24992e-21)
(0.998702 0.00281737 -8.30522e-21)
(0.99834 0.00303599 0)
(0.997986 0.00327805 -1.13038e-23)
(0.997644 0.00354314 -4.15486e-21)
(0.997317 0.00383354 -4.14438e-21)
(0.997007 0.00414272 1.23502e-20)
(0.996714 0.00447494 -4.10634e-21)
(0.996439 0.00482514 0)
(0.996182 0.00519308 8.19519e-21)
(0.995945 0.00557983 -8.14893e-21)
(0.995728 0.00597922 2.44917e-23)
(0.99553 0.00639427 8.12797e-21)
(0.995353 0.00682092 -2.04062e-21)
(0.995197 0.00725729 -1.98943e-21)
(0.995062 0.00770562 4.03946e-21)
(0.994947 0.00815923 0)
(0.994855 0.00861918 -1.99803e-21)
(0.994784 0.00908507 2.00053e-21)
(0.994735 0.00955232 1.99026e-21)
(0.994708 0.0100213 -1.99021e-21)
(0.994703 0.0104907 2.48596e-22)
(0.99472 0.0109574 3.07119e-23)
(0.994758 0.0114206 7.35186e-22)
(0.994819 0.0118798 -2.61292e-24)
(0.994901 0.0123316 0)
(0.995004 0.0127753 0)
(0.995129 0.0132102 -1.75423e-24)
(0.995275 0.0136336 -1.91183e-21)
(0.995441 0.0140448 3.83945e-21)
(0.995628 0.0144426 -3.8142e-21)
(0.995834 0.0148248 3.78522e-21)
(0.99606 0.015191 -7.57116e-21)
(0.996305 0.01554 1.79259e-23)
(0.996569 0.0158698 3.74566e-21)
(0.99685 0.0161801 3.70915e-21)
(0.997149 0.0164698 -7.41306e-21)
(0.997465 0.0167371 -7.36102e-21)
(0.997798 0.0169825 -3.66717e-21)
(0.998146 0.0172038 -3.6452e-21)
(0.99851 0.0174006 0)
(0.998889 0.0175729 -3.59344e-21)
(0.999283 0.0177182 -5.70105e-25)
(0.999693 0.017838 7.10431e-21)
(1.00012 0.0179287 -8.82162e-21)
(1.00057 0.0179914 1.74846e-21)
(1.00104 0.0180411 0)
(0.999137 0.00152182 0)
(0.998731 0.00172268 -8.3355e-21)
(0.998277 0.00197382 0)
(0.997805 0.002249 8.31572e-21)
(0.997331 0.00255544 4.16616e-21)
(0.996866 0.00289072 -8.32814e-21)
(0.996417 0.00325425 1.24503e-20)
(0.995986 0.00364879 4.13471e-21)
(0.995576 0.00406615 -4.13106e-21)
(0.995188 0.00451183 0)
(0.994824 0.00497938 4.13162e-21)
(0.994486 0.00546862 -8.24221e-21)
(0.994172 0.0059809 4.14214e-21)
(0.993884 0.00650849 -4.09228e-21)
(0.993624 0.00705531 2.81034e-23)
(0.99339 0.00761626 4.09704e-21)
(0.993185 0.00818902 -8.16846e-21)
(0.993007 0.00877639 0)
(0.992858 0.00937011 4.05273e-21)
(0.992738 0.00997158 -4.0527e-21)
(0.992647 0.0105802 -1.00352e-21)
(0.992586 0.0111904 0)
(0.992554 0.0118025 1.00659e-21)
(0.992552 0.012415 2.49535e-22)
(0.99258 0.0130239 -5.28952e-22)
(0.992638 0.0136284 7.42381e-22)
(0.992724 0.0142275 4.8962e-22)
(0.99284 0.0148174 -9.83091e-22)
(0.992986 0.015397 0)
(0.99316 0.0159653 -1.93965e-21)
(0.993362 0.0165191 3.88119e-21)
(0.993593 0.0170573 0)
(0.99385 0.0175787 1.90941e-21)
(0.994134 0.0180803 0)
(0.994445 0.0185617 3.7803e-21)
(0.99478 0.0190215 -7.53908e-21)
(0.995141 0.0194572 3.73706e-21)
(0.995525 0.0198683 -2.00598e-23)
(0.995932 0.0202536 3.67742e-21)
(0.996361 0.0206111 -3.69346e-21)
(0.996812 0.0209411 3.6566e-21)
(0.997283 0.0212412 7.28251e-21)
(0.997774 0.021511 0)
(0.998284 0.0217505 0)
(0.998813 0.0219569 -7.1446e-21)
(0.999362 0.022132 -1.41922e-20)
(0.999932 0.0222713 1.41008e-20)
(1.00053 0.0223772 -7.88832e-21)
(1.00116 0.0224733 7.82573e-21)
(0.998275 0.000114063 0)
(0.997749 0.000392171 8.49002e-21)
(0.997179 0.000732527 8.47548e-21)
(0.996574 0.00110683 1.26963e-20)
(0.995963 0.0015215 -1.2686e-20)
(0.995362 0.00197224 -4.20749e-21)
(0.994779 0.00245767 1.2671e-20)
(0.994218 0.0029811 -4.1964e-21)
(0.993684 0.00353269 4.19888e-21)
(0.993179 0.00411931 0)
(0.992704 0.00473286 8.41528e-21)
(0.992262 0.00537327 0)
(0.991852 0.00604202 -4.14211e-21)
(0.991476 0.00672975 -4.18436e-21)
(0.991136 0.00744133 4.97292e-23)
(0.99083 0.00817044 0)
(0.990562 0.00891427 4.1358e-21)
(0.990331 0.00967611 8.25831e-21)
(0.990136 0.0104461 0)
(0.989982 0.0112258 2.04058e-21)
(0.989865 0.0120144 -2.03993e-21)
(0.989787 0.0128051 -2.02557e-21)
(0.98975 0.0135983 2.03667e-21)
(0.989752 0.0143919 -4.04008e-24)
(0.989793 0.0151812 -5.02282e-22)
(0.989875 0.015965 -2.20965e-22)
(0.989995 0.0167418 -4.97778e-22)
(0.990155 0.0175072 9.93924e-22)
(0.990354 0.0182595 0)
(0.990591 0.0189975 1.95261e-21)
(0.990866 0.0197171 -3.89086e-21)
(0.991179 0.0204169 0)
(0.991527 0.0210953 0)
(0.991912 0.0217486 3.81772e-21)
(0.99233 0.0223761 -7.61433e-21)
(0.992781 0.0229763 3.7948e-21)
(0.993265 0.0235458 3.7708e-21)
(0.99378 0.0240842 0)
(0.994324 0.02459 1.11426e-20)
(0.994897 0.0250606 -7.37964e-21)
(0.995497 0.0254967 -3.66517e-21)
(0.996122 0.0258953 1.59507e-23)
(0.996772 0.0262559 -7.24052e-21)
(0.997446 0.0265788 -7.18284e-21)
(0.998143 0.0268606 -7.13617e-21)
(0.998864 0.0271037 5.64173e-24)
(0.999611 0.0273027 -1.10747e-23)
(1.00039 0.0274611 0)
(1.00121 0.0276142 -1.38747e-20)
(0.997136 -0.00216112 0)
(0.99645 -0.00168935 2.21832e-21)
(0.995704 -0.00122333 -1.06251e-20)
(0.994929 -0.000785082 -8.4958e-21)
(0.994151 -0.000250171 8.48557e-21)
(0.99339 0.000340505 4.31448e-21)
(0.992643 0.000975136 -4.21153e-21)
(0.991921 0.00165646 0)
(0.991232 0.00237362 0)
(0.990578 0.00313431 8.54085e-21)
(0.989963 0.00392845 -8.42049e-21)
(0.989388 0.00475615 4.22594e-21)
(0.988855 0.00561894 -4.2225e-21)
(0.988366 0.00650589 4.21937e-21)
(0.987921 0.00742285 4.22636e-21)
(0.987523 0.00836214 -4.19412e-21)
(0.987173 0.00932044 -4.15197e-21)
(0.98687 0.0103013 -4.13758e-21)
(0.986617 0.0112932 4.14458e-21)
(0.986415 0.0122981 -4.14358e-21)
(0.986264 0.0133141 0)
(0.986164 0.0143338 2.06725e-21)
(0.986117 0.0153571 -2.03578e-21)
(0.986122 0.0163812 1.52533e-21)
(0.98618 0.0174005 0)
(0.986292 0.018413 1.00853e-21)
(0.986455 0.0194168 0)
(0.986671 0.0204066 -9.92406e-22)
(0.986939 0.0213799 1.74228e-23)
(0.987258 0.0223347 1.06307e-23)
(0.987627 0.0232664 3.94054e-21)
(0.988045 0.0241726 0)
(0.988511 0.0250513 0)
(0.989025 0.0258979 0)
(0.989583 0.0267111 0)