/*--------------------------------*- C++ -*----------------------------------*\
| =========                 |                                                 |
| \\      /  F ield         | OpenFOAM: The Open Source CFD Toolbox           |
|  \\    /   O peration     | Version:  2312                                  |
|   \\  /    A nd           | Website:  www.openfoam.com                      |
|    \\/     M anipulation  |                                                 |
\*---------------------------------------------------------------------------*/
FoamFile
{
    version     2.0;
    format      ascii;
    arch        "LSB;label=32;scalar=64";
    class       volScalarField;
    location    "350";
    object      div(phi);
}
// * * * * * * * * * * * * * * * * * * * * * * * * * * * * * * * * * * * * * //

dimensions      [0 0 -1 0 0 0 0];

internalField   nonuniform List<scalar> 
10720
(
-0.00200377
-0.00416396
-0.00436002
0.00497583
0.0046108
0.00372798
0.00360363
0.00291317
0.00173014
0.000591111
-0.000300462
-0.00118472
-0.00214833
-0.00265976
-0.00206456
-0.000214323
0.00124036
0.00107145
0.00113288
0.00473193
0.00881874
0.00792628
0.00260271
-0.00389036
-0.00829363
-0.00759858
-0.000729739
0.00464189
0.000869387
-0.00542982
-0.00151712
0.00591707
0.00958913
-0.0105247
-0.0261729
-0.0237743
0.0263486
-0.00329143
-0.00437129
-0.00497605
-0.00688675
0.00659855
0.00773238
0.00495935
0.00259942
0.00229564
-0.00463748
-0.00349202
-0.000779359
0.000192515
0.00157953
0.00214621
0.00268226
0.00266205
0.00178659
0.00085152
0.000589564
0.000940971
0.00120093
0.00100769
0.000528701
0.000179612
0.000285887
0.000409063
0.000674384
0.000893141
0.00103849
0.00110872
0.000942739
0.000730695
0.000343984
-0.000160906
-8.20562e-05
-0.000185006
0.000299646
-0.000124549
0.0010587
0.000550872
0.00521052
-0.00294253
-0.00208958
-0.0116912
-0.00747948
-0.0033364
-0.000845856
0.000687039
0.00181188
0.00286246
0.00320149
0.00280221
0.00231058
0.0025965
0.00384937
0.00436432
0.00277665
-0.000589122
-0.00463888
-0.00971067
-0.0132503
-0.00751005
0.00419593
0.0086709
0.00909045
0.00794986
-2.74533e-05
-0.00292993
-0.00160709
-0.000605999
0.00620176
-0.00389332
-0.00774839
-0.0187799
0.0340229
0.00463069
-0.00445367
0.00140493
-0.00342295
-0.000760348
0.000769808
-0.0105756
-0.00752294
-2.2984e-05
-0.00314992
0.000339113
0.00330619
-0.00132984
-0.0011002
-0.000441849
2.66664e-05
0.000317717
-0.000107757
-0.00117535
-0.00196443
-0.00188551
-0.00114646
-0.000425161
-0.00022383
-0.000248554
-0.000532173
-0.000944506
-0.000915118
-0.000394984
0.000326077
0.00103099
0.00132778
0.00129573
0.000776076
6.57142e-05
-0.000165191
-0.000688496
-0.000104159
-0.000529332
-0.000171617
-0.000177305
-0.00212249
-0.000515465
-0.00481277
0.00496484
0.00626574
0.00316222
0.00487027
0.00519917
0.00393563
0.00215025
0.000843571
-7.37538e-05
-0.000884738
-0.00169226
-0.00212134
-0.00136985
0.00019993
0.00130307
0.00148184
0.00147695
0.00194374
0.00282579
0.00310892
0.00093595
-0.00373071
-0.00494517
-1.1845e-05
0.00318181
0.000963908
0.00111612
2.82398e-05
-0.00339025
0.00373352
-0.00163375
-0.00172741
-0.00708188
0.00252527
0.000346908
-0.00628201
-0.00338399
-0.00285443
0.00222511
0.00742922
0.00292523
0.00231704
0.000867756
-0.000520898
-0.00224682
-0.00283892
-0.00122102
-0.000200431
0.000678777
0.00187091
0.00257365
0.00209977
0.00104451
0.000310892
0.000413944
0.000889996
0.00114197
0.00110051
0.000639125
0.000374514
0.000400615
0.000432587
0.000778019
0.00114226
0.00144759
0.00161388
0.00152699
0.00101942
0.000357343
0.000112314
-0.000401051
7.12596e-05
-0.000269929
0.000104439
0.000102389
-0.000171548
6.07968e-06
-0.00565208
-0.00481741
-0.00649594
-0.00204244
0.000320061
0.000949471
0.000858475
0.000930755
0.00156553
0.00207894
0.00191058
0.00116872
0.000670016
0.0011687
0.00231251
0.00265541
0.00212547
0.0016037
0.000764579
-0.00038142
-0.000729184
-0.000435109
-0.0013381
-0.00340682
-0.000509115
0.00304995
0.000392188
0.00178631
0.000560813
-0.00686433
0.00312518
-0.000278124
0.000176931
-0.0041721
-0.000951223
-0.0020184
-0.00776718
-0.00382436
-0.00191657
-0.00252823
-0.00574589
0.00035319
0.00456656
0.00301829
0.00156993
0.000453153
-0.00117713
-0.000642791
0.000262962
0.00113193
0.0016858
0.00152475
0.000581785
-0.000410352
-0.000837551
-0.00055192
7.12424e-05
0.000368796
0.000290098
-4.27123e-05
-0.000510944
-0.000501302
-0.000222809
0.000246847
0.000851414
0.00128009
0.00144702
0.00138825
0.000905459
0.000249829
1.96043e-05
-0.000491258
-1.88605e-05
-0.000374262
-2.378e-05
1.77846e-05
-0.000441489
-8.49161e-05
0.0025074
-0.00203952
0.000593652
0.00372215
0.00352968
0.0022432
0.00112938
0.000782326
0.00104644
0.00118329
0.000656382
-0.000235127
-0.000608409
-1.07413e-05
0.00100399
0.00106798
0.000532327
0.000340702
-9.12937e-05
-0.000764349
-0.00081878
-7.10977e-05
4.38578e-05
-0.00222764
0.000544445
0.00624286
0.00107228
-0.000539481
2.93905e-05
-0.00623811
0.00453452
-0.000553035
0.0009132
-0.0021321
-0.000695266
-0.00171043
-0.0011101
-0.000799319
-0.000547769
-0.00268842
-0.000160095
0.00339132
0.00375138
0.00111667
-0.00104103
-0.00194587
-0.00174372
-0.000767126
0.000442134
0.00136376
0.00158861
0.00108828
0.000196819
-0.000476298
-0.00053066
-3.7019e-05
0.000518014
0.000748248
0.000607651
0.00026871
-5.875e-05
-0.000135762
4.09498e-05
0.000382053
0.000889281
0.00131712
0.00147135
0.00141174
0.000945405
0.000297051
7.42817e-05
-0.000427182
3.7413e-05
-0.000300944
3.94024e-05
0.000146107
8.00166e-05
-6.25044e-05
0.000486711
0.00147044
0.00328782
0.00336086
0.00197067
0.000707837
0.000248586
0.00072941
0.00162614
0.00218152
0.0018619
0.00100112
0.000585966
0.00127922
0.00206844
0.00174042
0.000803969
0.000293606
-0.000272943
-0.000673471
-9.97697e-05
0.00118656
0.00124537
-0.00108846
0.000820366
0.00752883
0.00141804
-0.00299396
-0.000255028
-0.00550346
0.00467577
-0.000799062
0.00128349
-0.00117419
-0.00026919
-0.00286133
0.00117249
-0.000214522
-0.00331271
0.000997094
0.00445601
0.0033352
0.00130399
-0.000899109
-0.00177935
-0.00157174
-0.000553394
0.000456598
0.00124447
0.00152783
0.00116938
0.000366499
-0.000438914
-0.000844931
-0.000685111
-0.000135536
0.000324652
0.000468236
0.000300217
-2.52797e-05
-0.000248551
-0.000295429
-8.32189e-05
0.000313153
0.000794578
0.00119722
0.00134575
0.00129527
0.00086071
0.000241453
4.65245e-05
-0.000430828
2.88745e-05
-0.0003015
6.90688e-06
5.59108e-05
0.000259692
-3.62482e-06
-0.000363764
0.00500514
0.0033252
0.00213467
0.000713711
-1.58199e-05
0.000103271
0.000911553
0.00183486
0.00221089
0.00161613
0.000500851
-8.17895e-05
0.000609882
0.00152256
0.00132002
0.000509073
9.24731e-05
-0.000379898
-0.000560664
0.000344576
0.00172599
0.00156379
-0.00105618
0.000180604
0.00702251
0.000993066
-0.00349472
-0.000219015
-0.0055154
0.00388945
-0.000583341
0.00165306
-0.000939788
-5.20785e-05
-0.00388207
0.00189497
-0.000101761
-0.00209522
0.00561825
0.00483011
0.00182477
-0.000192176
-0.00117595
-0.000929972
-0.000224878
0.000615717
0.00117183
0.00134626
0.00109264
0.000483162
-0.00023289
-0.0007186
-0.0007801
-0.000425105
0.000129585
0.000488488
0.000533541
0.000322061
-4.94509e-06
-0.000197137
-0.000227467
-3.30631e-05
0.000340627
0.000789516
0.00116425
0.00129805
0.00124666
0.000831738
0.000230695
4.91828e-05
-0.000412029
3.76765e-05
-0.000273491
2.37403e-05
8.80669e-05
0.000139628
1.50308e-05
0.00190673
0.00502791
0.00182028
0.000695723
-0.000187685
-0.000314559
0.000233775
0.00119792
0.00210803
0.00240218
0.00171611
0.000542455
-2.84072e-05
0.00071701
0.00183164
0.00176639
0.000991214
0.0004526
-0.000231599
-0.000564236
0.000334372
0.00173431
0.00147877
-0.00136486
-0.000456804
0.00652777
0.000718268
-0.0037419
-4.14479e-05
-0.00541731
0.00319981
-0.000475516
0.00189843
-0.000809363
4.40888e-05
-0.00395019
0.00298402
0.00184168
0.00110265
0.00653909
0.00241009
0.000151703
-0.000836969
-0.000805114
-0.000123037
0.000538808
0.000973414
0.00109044
0.000892044
0.000437416
-0.00012465
-0.000582603
-0.000743588
-0.000560239
-0.000128924
0.000340216
0.000563119
0.00049996
0.000241605
-7.54603e-05
-0.000244464
-0.000250772
-6.06629e-05
0.000295294
0.000720705
0.00107277
0.00119711
0.00114738
0.000753123
0.000171807
2.57467e-06
-0.000442255
-8.82029e-06
-0.00030309
-2.98474e-05
1.51828e-05
-2.46775e-05
-2.25622e-05
0.00334493
0.00278641
0.00071663
0.00012189
-0.000177355
7.54971e-05
0.000770151
0.00169483
0.00248948
0.00266655
0.00188527
0.00060422
-9.58076e-05
0.000508592
0.00160714
0.00171035
0.0010775
0.000534712
-0.00024778
-0.000709246
8.67308e-05
0.00136961
0.00102799
-0.00195298
-0.00110756
0.00611031
0.00067135
-0.00372311
0.000300957
-0.00526036
0.00251713
-0.000429569
0.00196073
-0.000540079
5.24123e-06
-0.00343442
0.00364441
0.00367295
0.0111033
0.00359925
-0.0002299
-0.000927588
-0.000950938
-0.000408823
0.000218741
0.000606994
0.000706542
0.000559102
0.000224878
-0.000207434
-0.00059087
-0.000779033
-0.0006941
-0.0003713
6.38853e-05
0.000432479
0.000548617
0.000423559
0.000158448
-0.000115787
-0.000244829
-0.000217591
-2.32255e-05
0.000317874
0.000723225
0.00105374
0.00116775
0.00111706
0.000739958
0.000176932
1.68571e-05
-0.000412016
4.04602e-06
-0.000267382
-1.20591e-05
2.15074e-05
-7.91289e-05
-1.59695e-05
0.00231834
0.000239165
-9.17604e-06
-0.000156665
-6.53598e-05
0.000347773
0.00103081
0.00187592
0.00260079
0.00276652
0.00203155
0.000767744
-2.20082e-05
0.000431796
0.00147659
0.00176288
0.00128913
0.00072766
-0.000192078
-0.000852402
-0.000244103
0.0009136
0.000600677
-0.00236243
-0.00146363
0.0059187
0.000830313
-0.00356977
0.000710246
-0.00504506
0.00187747
-0.000382562
0.00189136
-0.000159191
-0.000167047
-0.00268238
0.00420354
0.00185886
0.00435038
-4.48948e-05
-0.00154402
-0.00111997
-0.000637751
-3.87217e-05
0.000330354
0.000430177
0.000317055
6.00568e-05
-0.000264069
-0.000580349
-0.000779402
-0.000777936
-0.000567374
-0.000216471
0.000155597
0.00041211
0.000443015
0.00028655
4.06347e-05
-0.000175858
-0.000256167
-0.000193037
9.55004e-06
0.000337697
0.000723728
0.00103221
0.00113225
0.00107514
0.000708597
0.000158581
2.70291e-06
-0.000413694
-1.86738e-05
-0.000266
-2.89166e-05
-7.51715e-06
-0.000166341
2.28376e-05
0.000291101
-0.0011452
-0.000395397
-0.000337215
-0.000111252
0.000291629
0.000878543
0.00164166
0.00234151
0.0025784
0.00199618
0.000849031
1.22594e-05
0.000280989
0.00119271
0.00157204
0.00127575
0.000768265
-0.000185277
-0.000954356
-0.00050373
0.000547973
0.000309522
-0.00252786
-0.00154662
0.00587815
0.00111048
-0.00334194
0.00111382
-0.00480531
0.00127309
-0.000360202
0.00174128
0.00022677
-0.000426436
-0.00189933
0.00431386
-0.00196484
0.0037083
-0.00193543
-0.00141465
-0.000624057
-6.83533e-05
0.00032511
0.00040362
0.000299516
9.28453e-05
-0.000167216
-0.000416794
-0.000609564
-0.000681302
-0.000594972
-0.000369598
-7.50368e-05
0.000192551
0.000337811
0.000303745
0.000139909
-6.86217e-05
-0.000220984
-0.000248888
-0.00015018
6.29284e-05
0.000380617
0.000748645
0.00103612
0.00112095
0.0010544
0.000695106
0.000155818
2.02033e-06
-0.000402907
-3.00713e-05
-0.000248848
-2.4582e-05
-9.91792e-06
-0.000235589
6.08195e-06
-0.00102675
-0.00113601
-0.000435404
-0.000376554
-0.000225053
4.87785e-05
0.000487257
0.00114389
0.00181976
0.00215179
0.00177286
0.000812051
-6.25992e-06
9.19505e-05
0.000849831
0.001282
0.00117003
0.000774528
-0.000124692
-0.00091697
-0.000574295
0.000413747
0.000266506
-0.00239095
-0.00137554
0.00591825
0.00141647
-0.00309931
0.00146686
-0.00455382
0.000711209
-0.000380943
0.00155606
0.000516915
-0.000706817
-0.00117192
0.00351184
-0.0030402
0.00259423
-0.00171085
-0.000489174
0.000122623
0.000491721
0.000601897
0.0004624
0.00025203
3.73449e-05
-0.000168286
-0.000329818
-0.000425146
-0.000429079
-0.000333592
-0.000159899
3.68137e-05
0.000188906
0.000235564
0.000154119
-5.39696e-06
-0.000172563
-0.000267343
-0.000248917
-0.000120325
0.000102234
0.000411765
0.000764122
0.00103422
0.00110578
0.00103028
0.000678056
0.000149931
-2.37028e-06
-0.000396172
-4.82583e-05
-0.000236923
-2.58322e-05
-1.6702e-05
-0.000280602
-4.93386e-05
-0.00107895
-0.000254735
-0.00015059
-0.000182202
-0.000203734
-0.000113344
0.000151392
0.00066592
0.00127685
0.00166696
0.00147383
0.000714843
-4.47647e-05
-9.39624e-05
0.000485223
0.000916379
0.000946752
0.000691476
-6.89881e-05
-0.000787883
-0.000482215
0.000486219
0.000426109
-0.00203257
-0.00104466
0.0059472
0.00166604
-0.00288432
0.00174219
-0.0042982
0.000206486
-0.000442202
0.00137303
0.000652574
-0.00093635
-0.000496982
0.00215197
-0.00348933
0.00123267
-0.000329261
0.000555352
0.000751749
0.000871023
0.000746667
0.000486122
0.000250777
7.53168e-05
-5.93529e-05
-0.000143619
-0.00017224
-0.000148773
-7.9619e-05
2.27102e-05
0.000120402
0.000170983
0.000140532
2.65689e-05
-0.000124584
-0.00025607
-0.000306656
-0.000253511
-0.000104262
0.000123948
0.000426664
0.00076649
0.00102397
0.00108679
0.00100508
0.000662238
0.000147891
-2.10636e-06
-0.000384223
-6.31839e-05
-0.000219325
-2.11492e-05
-1.20897e-05
-0.000268104
-7.61303e-05
-0.000305456
0.00080654
0.000294471
0.000181334
-5.87921e-06
-8.55904e-05
1.5934e-05
0.000368783
0.000872045
0.0012648
0.00120748
0.000633214
-4.56093e-05
-0.000211712
0.000180711
0.000562659
0.000680665
0.000555245
-3.41668e-05
-0.000629051
-0.000312525
0.000662318
0.000678239
-0.00158018
-0.000669896
0.00588506
0.00179814
-0.00272515
0.00192665
-0.00403995
-0.00022865
-0.000530933
0.00121388
0.000616727
-0.00105604
0.000117529
0.000770754
-0.00350238
0.000202657
0.00113128
0.00129749
0.0010926
0.00101273
0.000751428
0.000456098
0.000248964
0.00012727
5.59105e-05
2.97136e-05
4.20778e-05
7.31926e-05
0.000112073
0.000155281
0.000178746
0.000158167
7.78329e-05
-5.37667e-05
-0.000195347
-0.000300736
-0.000323388
-0.000250781
-9.29531e-05
0.000133705
0.00042747
0.000755209
0.00100282
0.0010601
0.000974702
0.00064324
0.000145476
-1.18621e-06
-0.000370866
-7.86299e-05
-0.000201191
-1.79444e-05
-2.97177e-06
-0.000236991
-6.77977e-05
0.000608139
0.00155852
0.000693407
0.000554017
0.000270633
7.94299e-05
6.0575e-05
0.000262351
0.00063919
0.000991438
0.00101785
0.0005985
9.41466e-06
-0.000241205
-2.74967e-05
0.000264675
0.000408032
0.000376213
-4.81532e-05
-0.000499509
-0.000149997
0.000834627
0.000910685
-0.0011533
-0.000349065
0.00568018
0.0017826
-0.00263523
0.00201828
-0.0037759
-0.000586144
-0.000627671
0.00108665
0.000422931
-0.00104074
0.000633156
-0.000266997
-0.00299846
-0.000439149
0.00205982
0.00157629
0.00112551
0.000931019
0.000626764
0.000357502
0.000203435
0.000132087
0.000105396
0.000115799
0.000149415
0.000181649
0.000202632
0.000213743
0.000199235
0.000145219
4.56186e-05
-8.59872e-05
-0.000213539
-0.000298976
-0.000306478
-0.000228172
-7.37714e-05
0.000142797
0.000422914
0.000736267
0.000973906
0.00102705
0.000939074
0.000620233
0.000141548
-3.74668e-07
-0.000356533
-9.45481e-05
-0.000182524
-1.66864e-05
1.23956e-05
-0.00020268
-3.92155e-05
0.0012359
0.00182746
0.000922993
0.00080881
0.000512412
0.000281008
0.000195171
0.000280983
0.000540541
0.000833907
0.000905565
0.000612005
0.000116344
-0.000184841
-0.000128426
4.90879e-05
0.000162845
0.00017299
-0.000122383
-0.000441096
-5.89664e-05
0.000923613
0.00104467
-0.000827083
-0.000137655
0.00531927
0.00162298
-0.00260546
0.00202673
-0.00350003
-0.000862835
-0.000711379
0.000989718
0.00010444
-0.000899282
0.000997988
-0.000852128
-0.0020429
-0.000682367
0.00230445
0.00143915
0.000924603
0.000691598
0.000412076
0.000206722
0.000108466
7.13373e-05
6.92319e-05
9.62225e-05
0.000135508
0.000166562
0.000183578
0.000187985
0.000168522
0.000114725
2.41901e-05
-8.90336e-05
-0.000194141
-0.000259711
-0.000257757
-0.000181703
-3.89683e-05
0.000160429
0.000421522
0.000716923
0.000942382
0.000990694
0.000899885
0.000593728
0.000136037
-8.0023e-08
-0.000342016
-0.000111346
-0.000164982
-2.01441e-05
3.04628e-05
-0.000171698
3.85517e-06
0.00144936
0.00167375
0.000952497
0.000889219
0.000643093
0.000429278
0.000323589
0.000338267
0.000507804
0.00074428
0.000841776
0.00065246
0.000253559
-6.39984e-05
-0.000130314
-7.42376e-05
-2.87884e-05
-2.91808e-05
-0.000246009
-0.000466584
-6.77323e-05
0.000893318
0.00104802
-0.000628449
-4.52747e-05
0.00482372
0.00134991
-0.00261574
0.00196971
-0.0032044
-0.00105899
-0.000761902
0.00091477
-0.000295434
-0.000665494
0.0011723
-0.00105009
-0.00085427
-0.000620815
0.00198768
0.00104248
0.000597965
0.000379207
0.000167547
3.86049e-05
-1.34426e-05
-3.09608e-05
-2.50678e-05
2.46432e-06
3.54506e-05
6.22029e-05
8.18582e-05
9.38458e-05
8.87931e-05
5.64239e-05
-6.28461e-06
-8.70417e-05
-0.000161006
-0.000203059
-0.000191479
-0.000119696
8.18866e-06
0.000186913
0.000425492
0.000699538
0.000910164
0.00095223
0.000857756
0.000563792
0.00012862
-7.95511e-07
-0.000327934
-0.000128394
-0.000148954
-2.8507e-05
4.96748e-05
-0.000146946
5.5383e-05
0.00130021
0.00125038
0.000808187
0.00079625
0.000631431
0.000468015
0.000373136
0.000356201
0.000467932
0.000661285
0.000778782
0.000679912
0.000380849
8.094e-05
-6.5151e-05
-0.00011627
-0.000155238
-0.000203003
-0.000390525
-0.000555841
-0.000164677
0.000751119
0.000932462
-0.000542153
-4.5599e-05
0.00424253
0.00101018
-0.00263663
0.00186789
-0.00288359
-0.0011786
-0.000762411
0.000851471
-0.000728699
-0.000384225
0.00114643
-0.000998425
0.000284747
-0.000404014
0.00135468
0.000561304
0.000253048
8.29784e-05
-4.48514e-05
-0.000105337
-0.000123876
-0.000131828
-0.000127548
-0.00010894
-8.9256e-05
-7.08265e-05
-4.96236e-05
-2.8256e-05
-1.43875e-05
-1.92963e-05
-4.78329e-05
-9.05363e-05
-0.000128869
-0.000143984
-0.000120154
-5.09958e-05
6.25693e-05
0.000220277
0.000435006
0.000685761
0.000879309
0.000913516
0.000814116
0.000531253
0.000119475
-2.60456e-06
-0.000314516
-0.00014505
-0.000135067
-4.15637e-05
6.77405e-05
-0.000130466
0.000107811
0.000929348
0.000719718
0.000552228
0.000577188
0.000494048
0.000389764
0.000318089
0.000295995
0.000376411
0.000541989
0.000678268
0.000658949
0.000460709
0.000207846
2.67948e-05
-0.000101274
-0.000218731
-0.000330579
-0.000523752
-0.000671203
-0.000312776
0.000535904
0.000738804
-0.000527273
-9.3354e-05
0.00363449
0.000655727
-0.00263941
0.00174095
-0.00253572
-0.00122972
-0.000703674
0.000790115
-0.00114866
-9.85037e-05
0.000940174
-0.000828629
0.00113161
-0.00014966
0.00065062
0.000122694
-3.67061e-05
-0.000145393
-0.000194641
-0.000200069
-0.00019485
-0.0001974
-0.000197412
-0.000190002
-0.000184942
-0.000177197
-0.000159031
-0.000133647
-0.00010694
-8.98665e-05
-8.86973e-05
-9.65352e-05
-0.000100757
-8.8873e-05
-5.08816e-05
1.84508e-05
0.000120497
0.000259186
0.000450604
0.000677502
0.000852485
0.000877282
0.000771627
0.000498081
0.000109654
-5.01176e-06
-0.000301678
-0.000160452
-0.000123584
-5.80931e-05
8.27611e-05
-0.000122391
0.00015449
0.000483782
0.000212822
0.000261779
0.000302154
0.000283701
0.000229511
0.000180284
0.000165054
0.000230069
0.000377402
0.000529977
0.000576957
0.000473951
0.000287245
0.000110051
-5.8011e-05
-0.000232515
-0.000405315
-0.000619954
-0.000773306
-0.000465617
0.000301931
0.000521922
-0.000533293
-0.000140289
0.00305626
0.000333212
-0.00260138
0.00160383
-0.00216651
-0.00122264
-0.000584202
0.000723547
-0.0015139
0.000158366
0.000592375
-0.000624543
0.00155684
8.87181e-05
4.38784e-05
-0.000210718
-0.000240087
-0.0002889
-0.000275151
-0.000241488
-0.000219772
-0.000217503
-0.000219778
-0.000220608
-0.000226583
-0.000228793
-0.000217299
-0.000194652
-0.000164704
-0.000136556
-0.00011624
-9.85549e-05
-7.54439e-05
-4.02498e-05
1.1519e-05
8.30442e-05
0.000176877
0.000299916
0.000470446
0.000674347
0.000830563
0.000845132
0.000732005
0.000465837
9.97934e-05
-7.94899e-06
-0.000289662
-0.000174157
-0.000115021
-7.66751e-05
9.28796e-05
-0.000121727
0.000189839
7.97125e-05
-0.000186423
2.18401e-06
3.96395e-05
6.07582e-05
4.07533e-05
5.89372e-06
-1.11941e-06
5.46001e-05
0.000186621
0.000348136
0.000444798
0.000423268
0.000309117
0.00016298
-1.08963e-05
-0.000214611
-0.000430595
-0.000666982
-0.000834994
-0.000584898
9.70163e-05
0.000331529
-0.000516406
-0.000148246
0.00254939
7.4724e-05
-0.00251022
0.00146645
-0.00178634
-0.00116978
-0.000411142
0.000649181
-0.00179147
0.000366587
0.000152952
-0.000421233
0.00156132
0.000307517
-0.0003886
-0.000421529
-0.000353495
-0.000353327
-0.00029647
-0.000239048
-0.000206885
-0.00019905
-0.000200034
-0.000204029
-0.000214981
-0.000223511
-0.000219324
-0.000203565
-0.00017845
-0.000150072
-0.000122441
-9.08582e-05
-5.02418e-05
1.58298e-06
6.43734e-05
0.000138755
0.00022712
0.000338187
0.000491085
0.000674323
0.000812849
0.000817328
0.000696364
0.000435674
9.05871e-05
-1.12087e-05
-0.000278508
-0.000185723
-0.000109515
-9.55592e-05
9.67734e-05
-0.000126613
0.000209995
-0.000221112
-0.00044507
-0.000188975
-0.000167533
-0.000130011
-0.000132594
-0.000162314
-0.000165308
-0.000118828
-3.934e-06
0.000156629
0.000284016
0.000324994
0.000278628
0.000177511
2.31374e-05
-0.0001834
-0.000419004
-0.000667258
-0.000846393
-0.000650875
-5.14546e-05
0.000197326
-0.000452181
-9.76074e-05
0.00213621
-0.000105195
-0.00236424
0.00133152
-0.00141195
-0.00108476
-0.000199153
0.000567036
-0.00196063
0.000518884
-0.000323436
-0.000227387
0.00124105
0.000520212
-0.000637545
-0.000517909
-0.000389309
-0.000355199
-0.000274486
-0.000206561
-0.000169105
-0.000155364
-0.000152014
-0.000154246
-0.00016393
-0.00017355
-0.000174622
-0.000166523
-0.000150599
-0.000129715
-0.000104619
-7.01175e-05
-2.23445e-05
3.79527e-05
0.000107026
0.000183026
0.000267556
0.000369771
0.000508575
0.000674158
0.000797277
0.000792966
0.000664676
0.000408236
8.24872e-05
-1.46228e-05
-0.000268044
-0.000194664
-0.000106722
-0.000112734
9.40211e-05
-0.000134562
0.00021333
-0.000403545
-0.000568193
-0.000303435
-0.000303707
-0.000267174
-0.000265711
-0.000297805
-0.00030225
-0.000267203
-0.000172369
-2.25362e-05
0.000117456
0.000199804
0.000208354
0.000154386
3.37947e-05
-0.000155359
-0.000388266
-0.000633939
-0.000814088
-0.000663657
-0.000137507
0.000125909
-0.00033873
9.50294e-06
0.00181894
-0.000208211
-0.00217501
0.00119774
-0.00106118
-0.000980997
3.12844e-05
0.000480626
-0.00201425
0.000615969
-0.000782013
-4.67182e-05
0.000733348
0.000730866
-0.000728059
-0.000521269
-0.000366867
-0.000313649
-0.000225611
-0.000157539
-0.00011894
-9.96737e-05
-9.01154e-05
-8.6979e-05
-9.02955e-05
-9.60917e-05
-9.88036e-05
-9.65579e-05
-9.06736e-05
-8.11095e-05
-6.49414e-05
-3.59899e-05
9.81133e-06
7.04755e-05
0.000140179
0.000215117
0.000295915
0.00039136
0.000519107
0.000670216
0.000780848
0.000769937
0.000635804
0.000383209
7.52915e-05
-1.84795e-05
-0.00025828
-0.00020074
-0.000106191
-0.000126232
8.54334e-05
-0.000142348
0.000200923
-0.000478958
-0.000582718
-0.000349619
-0.000371343
-0.00034669
-0.000349971
-0.000388781
-0.000398987
-0.000377594
-0.000305078
-0.000173699
-3.61788e-05
6.74372e-05
0.000114466
0.000101163
1.82518e-05
-0.000141689
-0.000355399
-0.000584688
-0.00075571
-0.000636742
-0.000172588
0.000104937
-0.000192421
0.000153477
0.00158381
-0.000248362
-0.00195854
0.00105956
-0.000752216
-0.000871839
0.000256564
0.000390534
-0.00195927
0.000662695
-0.00117471
0.000112357
0.0001707
0.000926822
-0.00069842
-0.000459118
-0.000306918
-0.000246995
-0.000163982
-0.000102784
-6.56248e-05
-4.18644e-05
-2.56255e-05
-1.52681e-05
-9.1956e-06
-7.5877e-06
-8.46579e-06
-9.02278e-06
-1.1543e-05
-1.37458e-05
-9.18345e-06
9.291e-06
4.67675e-05
0.000101241
0.000166181
0.000236768
0.000312796
0.000402216
0.000521042
0.000660661
0.000761377
0.000746569
0.000608994
0.000360273
6.89037e-05
-2.30282e-05
-0.000249328
-0.000204079
-0.000107406
-0.00013438
7.28233e-05
-0.000146707
0.000176191
-0.000471209
-0.000522307
-0.000343329
-0.000382399
-0.000374196
-0.000386785
-0.00043354
-0.000452109
-0.000445008
-0.000395312
-0.000287227
-0.000163233
-5.50439e-05
1.33117e-05
2.93547e-05
-2.00289e-05
-0.000147289
-0.000332908
-0.000536906
-0.000689544
-0.000590197
-0.000178107
0.000111835
-3.85557e-05
0.000306466
0.00140676
-0.00024614
-0.00173421
0.00091237
-0.00050032
-0.000767863
0.000454742
0.00030142
-0.00181408
0.000664868
-0.00146591
0.00023751
-0.000346909
0.00106749
-0.00059091
-0.00035964
-0.00022782
-0.000170213
-0.000100045
-4.97786e-05
-1.59981e-05
1.08967e-05
3.30396e-05
5.08039e-05
6.70356e-05
7.76231e-05
8.1005e-05
8.04448e-05
7.23669e-05
6.04832e-05
5.39404e-05
6.05475e-05
8.66368e-05
0.000130923
0.000187247
0.000250511
0.000320193
0.000403667
0.000514714
0.000644647
0.000738413
0.000722023
0.000583418
0.000339528
6.32505e-05
-2.83884e-05
-0.000241314
-0.00020539
-0.000109841
-0.000136252
5.85056e-05
-0.000144777
0.000144267
-0.00040767
-0.000419454
-0.00030148
-0.000351881
-0.000360243
-0.000383072
-0.000436615
-0.000463841
-0.000470433
-0.000442019
-0.000358952
-0.000255073
-0.000154715
-8.00859e-05
-4.77404e-05
-7.24305e-05
-0.000170128
-0.000325603
-0.000501106
-0.000630747
-0.00054353
-0.000176382
0.000123733
9.81357e-05
0.000441776
0.00126379
-0.000222404
-0.00151899
0.000755188
-0.000313168
-0.000677588
0.00060677
0.000213944
-0.0016052
0.000627736
-0.00163869
0.000317528
-0.000758938
0.00112607
-0.000444534
-0.000247853
-0.000145881
-9.64952e-05
-4.24791e-05
-4.22438e-06
2.52292e-05
5.36322e-05
8.00278e-05
0.000103951
0.000129113
0.000148211
0.000156777
0.000158173
0.000147496
0.000129193
0.000114211
0.000110429
0.000125166
0.000157961
0.000203717
0.000257803
0.000320101
0.000397039
0.00050091
0.000622466
0.000711068
0.000695616
0.00055868
0.000320462
5.8207e-05
-3.48246e-05
-0.000234726
-0.000205692
-0.000113251
-0.000131825
4.48586e-05
-0.000134623
0.000111122
-0.000314391
-0.000300761
-0.000239794
-0.000295048
-0.000317112
-0.00034863
-0.000406341
-0.000440966
-0.000459061
-0.000448921
-0.000389963
-0.000309032
-0.000224308
-0.000154882
-0.000118009
-0.000128558
-0.000203536
-0.000332182
-0.000480795
-0.000587924
-0.000509923
-0.00018245
0.000123782
0.000199095
0.000539884
0.00113482
-0.000192967
-0.00132423
0.000589885
-0.000189784
-0.000602828
0.00070253
0.000131239
-0.00136008
0.000558155
-0.00169319
0.00034643
-0.00103935
0.00110161
-0.000291644
-0.000141543
-7.19287e-05
-3.34235e-05
4.30258e-06
3.10868e-05
5.57216e-05
8.39347e-05
0.000112423
0.000140325
0.000171827
0.000197475
0.000210731
0.000214924
0.000204142
0.00018294
0.000163164
0.000152204
0.000157785
0.000180198
0.000215497
0.000259944
0.000314031
0.00038421
0.000480851
0.000594958
0.000679406
0.000666667
0.000534026
0.000302888
5.34445e-05
-4.2458e-05
-0.00022994
-0.000206253
-0.000117726
-0.000122182
3.3815e-05
-0.000115476
8.24681e-05
-0.000213122
-0.000185824
-0.000171602
-0.000225804
-0.000257181
-0.000294425
-0.000353009
-0.000392663
-0.000419223
-0.000423485
-0.000385811
-0.000327448
-0.000262214
-0.000205264
-0.000173108
-0.000178857
-0.000239201
-0.000346914
-0.000473146
-0.000561558
-0.000492685
-0.00020211
0.000103533
0.000255881
0.000591063
0.00100869
-0.000167237
-0.00115326
0.000422887
-0.000123489
-0.000544855
0.000738399
5.40662e-05
-0.0011082
0.000462754
-0.00164561
0.000324935
-0.00118903
0.000989325
-0.000153328
-5.15267e-05
-1.22467e-05
1.51822e-05
3.86757e-05
5.54534e-05
7.51713e-05
0.000101644
0.000130043
0.000159396
0.000194052
0.000223559
0.000240247
0.000247145
0.000237989
0.000217018
0.000196056
0.000181714
0.000181373
0.000195845
0.00022211
0.000257522
0.000303515
0.000366549
0.00045595
0.000562823
0.000644241
0.000635427
0.000509173
0.000286472
4.88643e-05
-5.14219e-05
-0.000227302
-0.00020839
-0.000123781
-0.000109367
2.65179e-05
-8.79441e-05
6.27495e-05
-0.000119293
-8.61948e-05
-0.000106193
-0.00015461
-0.000190585
-0.00023024
-0.000286277
-0.000328132
-0.000359798
-0.000374151
-0.000353997
-0.000316118
-0.00027069
-0.000230092
-0.000208289
-0.000216447
-0.00026927
-0.000362475
-0.000471605
-0.000546632
-0.000488259
-0.000233801
6.35471e-05
0.000269521
0.000595638
0.000880136
-0.000148902
-0.00100561
0.000263687
-0.00010087
-0.000498615
0.000720281
-1.42419e-05
-0.000871006
0.000350337
-0.001522
0.000259649
-0.00122697
0.000799384
-4.08959e-05
1.74706e-05
3.14778e-05
4.90798e-05
6.11265e-05
6.97572e-05
8.47046e-05
0.00010819
0.000134584
0.000163018
0.000197798
0.000228276
0.000246831
0.000256027
0.000249487
0.000231142
0.000212048
0.000197729
0.000194897
0.000204288
0.00022374
0.00025147
0.000289875
0.000345903
0.00042798
0.000527673
0.00060601
0.00060213
0.000484224
0.000271251
4.43871e-05
-6.15606e-05
-0.000227264
-0.000213356
-0.000132358
-9.6017e-05
2.30235e-05
-5.391e-05
5.44451e-05
-4.12374e-05
-7.33473e-06
-4.90953e-05
-8.8578e-05
-0.000124901
-0.000163798
-0.000214528
-0.000255674
-0.000289213
-0.000309633
-0.000302851
-0.000281916
-0.000254871
-0.000231237
-0.000222591
-0.000237464
-0.000288165
-0.000372335
-0.000469463
-0.000536136
-0.000489967
-0.000271724
9.61418e-06
0.000247393
0.000560222
0.000749772
-0.000136913
-0.000877123
0.00012167
-0.000106688
-0.000458705
0.000659666
-7.0971e-05
-0.00066483
0.000230334
-0.00135091
0.000162246
-0.001181
0.000553896
4.23768e-05
6.53268e-05
6.03478e-05
7.00125e-05
7.34557e-05
7.58022e-05
8.63287e-05
0.000105947
0.000128844
0.000154432
0.000186705
0.000215875
0.000234685
0.000245531
0.000242191
0.000228105
0.000213073
0.00020152
0.000199071
0.00020617
0.000221046
0.000242746
0.000274575
0.000323898
0.000398585
0.000491141
0.000566626
0.000567819
0.000459575
0.000257612
4.05932e-05
-7.2254e-05
-0.000229686
-0.000222067
-0.000144398
-8.52004e-05
2.2208e-05
-1.64746e-05
5.75866e-05
1.79471e-05
5.01336e-05
-2.82278e-06
-3.1845e-05
-6.53937e-05
-0.00010093
-0.000144233
-0.000182234
-0.000214746
-0.000237419
-0.000240091
-0.000232276
-0.000220685
-0.000212816
-0.00021758
-0.000241178
-0.000293128
-0.000372217
-0.000461161
-0.000523319
-0.000490966
-0.000308562
-5.0345e-05
0.00020031
0.000495215
0.000620814
-0.000129876
-0.000762946
4.49347e-06
-0.000125021
-0.000419784
0.00057172
-0.000113398
-0.000497368
0.000112519
-0.00115965
4.71672e-05
-0.00108154
0.000283782
9.81666e-05
9.46443e-05
7.68437e-05
8.06253e-05
7.80322e-05
7.57702e-05
8.23007e-05
9.75704e-05
0.000115976
0.000137315
0.000165232
0.00019121
0.000209088
0.000220835
0.000220875
0.000211909
0.00020237
0.000195379
0.000195409
0.000202448
0.000214892