/*--------------------------------*- C++ -*----------------------------------*\
| =========                 |                                                 |
| \\      /  F ield         | OpenFOAM: The Open Source CFD Toolbox           |
|  \\    /   O peration     | Version:  2312                                  |
|   \\  /    A nd           | Website:  www.openfoam.com                      |
|    \\/     M anipulation  |                                                 |
\*---------------------------------------------------------------------------*/
FoamFile
{
    version     2.0;
    format      ascii;
    arch        "LSB;label=32;scalar=64";
    class       volVectorField;
    location    "350";
    object      momentError;
}
// * * * * * * * * * * * * * * * * * * * * * * * * * * * * * * * * * * * * * //

dimensions      [0 1 -2 0 0 0 0];

internalField   nonuniform List<vector> 
10720
(
(-2.82521 10.7328 -6.4227e-16)
(-2.07928 10.581 -1.48034e-15)
(-0.689863 8.9566 -1.86379e-14)
(0.265136 8.52258 7.71859e-14)
(0.931501 7.65703 5.7739e-14)
(1.29664 6.68286 -1.42076e-13)
(1.53982 5.74537 -1.16265e-13)
(1.5924 4.74578 -9.16811e-14)
(1.50267 3.83854 1.7832e-14)
(1.33729 3.07648 5.01031e-15)
(1.10502 2.36149 -1.58295e-14)
(0.895593 1.93799 6.01319e-14)
(0.306491 0.9695 -1.99279e-13)
(-0.121559 0.416419 -3.65357e-13)
(-0.450927 0.00117368 6.77115e-14)
(-0.660016 -0.471278 -9.6885e-14)
(-1.0114 -0.781755 1.05451e-13)
(-1.63732 -0.654955 8.27145e-13)
(-1.98996 -0.689635 2.23217e-13)
(-2.4581 -1.32589 -4.59369e-13)
(-4.1247 -2.65517 -2.01071e-13)
(-8.84687 -4.68761 5.44948e-14)
(-16.1935 -4.08661 4.03601e-13)
(-17.6016 -0.228986 -2.98468e-13)
(-8.39517 1.24237 5.46096e-14)
(3.49441 0.49374 -3.23129e-14)
(6.37072 -1.28098 -4.82462e-14)
(3.50974 -0.639681 1.86459e-14)
(0.855236 -0.469846 -1.29672e-15)
(0.381394 -0.280508 1.1555e-13)
(0.284033 -0.0292919 5.3696e-14)
(0.417393 -0.0530358 -9.0301e-14)
(0.0746871 -0.00404078 -7.01369e-14)
(3.08312 -0.335303 -9.0017e-14)
(2.70549 -0.289673 -2.07141e-14)
(0.626495 -0.361743 3.43848e-15)
(-1.40716 0.249853 -4.39624e-14)
(0.148672 0.577504 2.43034e-15)
(-0.363655 0.711263 3.23186e-13)
(-3.26297 9.9389 1.17046e-14)
(-3.11412 7.87198 -2.41808e-14)
(-2.83749 5.88558 2.75132e-14)
(-2.57953 4.18509 1.1522e-13)
(-2.22708 2.68556 5.1285e-14)
(-1.49995 1.22335 -3.01724e-13)
(-0.215662 -0.134692 -1.08882e-13)
(0.0962109 -0.218434 1.22603e-13)
(-0.446514 0.476744 -7.24463e-14)
(-0.876885 0.78798 6.12604e-14)
(-1.03164 0.708243 -7.19753e-14)
(-0.898473 0.524823 -1.2942e-13)
(-0.822595 0.459494 3.22393e-14)
(-0.807459 0.438692 6.4893e-14)
(-0.771198 0.39696 -1.05005e-13)
(-0.701575 0.335249 -9.01207e-14)
(-0.635144 0.198947 -6.26756e-14)
(-0.555178 0.171748 -7.49479e-14)
(-0.418294 0.383099 -2.69398e-14)
(-0.46551 0.0363534 -1.37466e-15)
(-0.374267 0.169842 2.32681e-14)
(-0.31062 0.208374 4.56807e-14)
(-0.802157 -0.975028 -1.85989e-14)
(-0.210985 0.267214 -1.43168e-14)
(-0.2183 0.166968 1.26281e-14)
(-0.208147 0.0935794 -3.16499e-15)
(-0.225561 -0.0130333 1.2156e-15)
(-0.185359 0.00795907 1.87919e-15)
(-0.159646 -0.00604641 -1.09365e-15)
(-0.137259 -0.00577103 1.83636e-15)
(-0.116641 -0.00364968 6.25926e-15)
(-0.101798 -0.00470567 -2.72647e-15)
(-0.0865095 -0.00548681 -2.38764e-15)
(-0.0759835 -0.00589278 -8.49166e-14)
(-0.0708471 -0.00751505 -7.48962e-14)
(-0.0720536 -0.00421476 5.01066e-14)
(-0.102371 -0.0236202 -1.28413e-14)
(-0.136289 0.0869626 1.35141e-14)
(-1.01908 -0.234495 4.48361e-14)
(0.229723 7.96299 -4.95493e-15)
(1.0957 8.00198 3.9844e-15)
(1.90865 6.85397 -2.54117e-15)
(2.70029 6.5695 -5.72914e-15)
(3.22835 6.05237 7.33816e-15)
(3.56913 5.45499 5.25023e-14)
(3.87628 4.77049 6.49599e-14)
(3.97666 4.04937 2.36359e-14)
(3.9145 3.38537 -7.37124e-14)
(3.77055 2.78172 -3.21623e-14)
(3.55616 2.28293 -2.28311e-13)
(3.21925 1.71898 -4.13358e-13)
(3.17938 1.92205 -2.08371e-14)
(3.04856 1.86695 -1.75151e-14)
(2.93308 1.64552 -7.74586e-14)
(2.45116 1.53593 8.07661e-14)
(2.11581 1.31421 3.51283e-13)
(1.92591 1.08289 -6.44866e-13)
(1.26541 1.16723 -5.15891e-13)
(0.206527 1.70683 -3.37031e-13)
(-0.568741 2.56736 2.30603e-13)
(2.58709 2.71256 2.04781e-13)
(8.65778 2.07061 -3.09614e-13)
(18.6643 -0.446124 5.27643e-14)
(13.8531 -1.81562 -2.04596e-15)
(-0.730678 -1.44348 -2.07344e-14)
(1.58287 2.0347 -1.42079e-15)
(2.89064 1.2218 9.37761e-15)
(1.72023 0.0264522 -1.42901e-14)
(0.747254 -0.185032 4.48509e-14)
(0.323621 -0.0701077 2.10646e-14)
(0.0563019 -0.0204392 -3.79063e-15)
(-1.13686 0.100499 -7.05377e-14)
(4.66344 -0.738929 -1.27735e-13)
(-4.51261 0.684293 6.71894e-14)
(-10.408 0.698328 1.93921e-14)
(-0.752107 0.741482 1.02986e-14)
(0.973008 0.392511 -2.74009e-14)
(0.00632578 0.981414 1.57209e-14)
(-0.284784 7.41833 -1.82986e-14)
(-0.733263 6.15877 1.68335e-13)
(-1.08459 4.75816 -5.07787e-14)
(-1.27301 3.60294 -1.26572e-13)
(-1.29877 2.47531 7.43596e-14)
(-1.07955 1.35882 8.59673e-14)
(-0.509536 0.406567 -8.03464e-14)
(-0.336969 0.371778 1.68933e-13)
(-0.697886 0.769633 9.75425e-14)
(-0.930372 0.814986 -7.14672e-14)
(-1.06717 0.616441 6.84464e-14)
(-1.02196 0.452551 -9.60251e-14)
(-0.958519 0.387104 2.40505e-14)
(-0.929755 0.33233 8.98095e-15)
(-0.897214 0.259259 2.10373e-14)
(-0.846691 0.190687 2.25821e-14)
(-0.732033 0.173353 4.18848e-14)
(-0.59794 0.108683 -1.2105e-14)
(-0.691914 -0.145948 2.52859e-15)
(-0.500038 0.1273 -5.27962e-15)
(-0.489408 -0.0426069 1.411e-14)
(-0.58912 -0.0750914 4.04094e-14)
(0.281046 1.1678 -2.31223e-15)
(-0.389763 -0.20553 -9.17871e-15)
(-0.393926 -0.121677 -8.8007e-15)
(-0.355892 -0.147012 6.24161e-15)
(-0.205273 0.0528429 -8.97794e-18)
(-0.224749 -0.0418304 -1.41158e-16)
(-0.207812 -0.0206935 4.79659e-17)
(-0.196049 -0.0157825 -7.59962e-17)
(-0.185208 -0.0198587 -2.20774e-16)
(-0.164199 -0.0193733 -9.92387e-15)
(-0.142698 -0.0202881 1.46361e-14)
(-0.119763 -0.0215056 6.65297e-14)
(-0.105988 -0.0219308 8.19959e-15)
(-0.0902104 -0.0268183 -1.512e-14)
(-0.111046 -0.0198275 1.44303e-14)
(-0.0451858 -0.0246079 -6.59092e-14)
(-0.728257 -0.0625299 -8.69432e-15)
(-0.847428 6.54949 1.86788e-15)
(-0.343392 6.56429 4.09608e-15)
(0.263013 5.72995 8.87584e-16)
(0.802059 5.71352 -7.11058e-15)
(1.14369 5.41557 4.13292e-14)
(1.46755 4.98028 -5.09194e-14)
(1.75443 4.52584 -6.4966e-14)
(1.89472 4.02633 1.25557e-13)
(1.92855 3.5212 5.35827e-14)
(1.90088 3.0465 7.80339e-14)
(1.80064 2.58822 1.70767e-14)
(1.66369 2.15247 4.08276e-15)
(1.50041 1.73734 3.12987e-13)
(1.36076 1.35605 8.92472e-15)
(1.13934 1.08972 1.99307e-13)
(1.27565 0.672295 -4.45006e-15)
(1.24498 0.447933 -6.2586e-13)
(1.18486 0.321537 3.83163e-13)
(1.33409 0.305644 8.58103e-13)
(1.83365 0.349015 1.57927e-13)
(2.55807 0.86317 -4.71633e-14)
(2.15549 1.82545 -2.56861e-14)
(3.01641 0.444713 1.27673e-13)
(0.955746 0.100427 1.13148e-13)
(1.73987 -0.433312 -9.10487e-14)
(2.74408 0.462437 -1.39792e-14)
(-2.90122 -0.610032 -4.12977e-14)
(-1.29053 0.0318008 1.48191e-14)
(0.264766 0.3054 -2.90923e-14)
(0.438926 0.15319 -7.88124e-14)
(0.335028 0.0267263 1.64782e-14)
(0.208301 -0.0149987 1.22415e-13)
(-0.969129 0.00957775 1.99399e-14)
(2.73813 -0.545267 8.0432e-14)
(-9.06042 2.03041 3.32553e-14)
(-14.9077 1.56369 2.01656e-14)
(1.81713 -1.00027 3.14189e-14)
(0.00955471 0.699054 2.58598e-14)
(0.663032 1.72677 2.795e-14)
(-1.17277 6.15007 2.76444e-14)
(-1.34426 5.18051 -4.29575e-14)
(-1.42285 4.01065 -5.61595e-14)
(-1.41146 3.14128 -8.70956e-15)
(-1.27871 2.26161 5.91279e-15)
(-1.00447 1.40582 -1.0107e-13)
(-0.706452 0.82666 3.27939e-14)
(-0.651481 0.768694 -1.6777e-13)
(-0.860967 0.918168 -1.26291e-13)
(-1.00051 0.875178 -1.11897e-13)
(-1.06313 0.74682 1.11015e-13)
(-1.03531 0.647855 1.0855e-13)
(-0.976122 0.576387 -6.15794e-14)
(-0.922891 0.497041 -1.39973e-13)
(-0.863194 0.410014 3.87925e-14)
(-0.789065 0.321917 6.44551e-14)
(-0.713705 0.256459 -1.69279e-14)
(-0.635968 0.18616 -8.055e-14)
(-0.534514 0.123659 -2.24918e-14)
(-0.526108 0.0967104 2.32594e-15)
(-0.450421 0.102296 -1.53007e-14)
(-0.399728 0.0782096 -3.20005e-14)
(-0.590177 -0.012774 6.9557e-15)
(-0.290886 0.105812 -6.8068e-16)
(-0.26773 0.0753689 -5.20676e-16)
(-0.229964 0.154389 -1.04431e-15)
(-0.247314 -0.0544456 -2.02698e-15)
(-0.20559 0.0260736 -5.04612e-17)
(-0.190424 0.00115783 -2.13009e-16)
(-0.175711 -0.00910596 -2.59379e-15)
(-0.160978 -0.00950483 1.81764e-16)
(-0.144763 -0.0120509 1.04206e-14)
(-0.126829 -0.0123496 -1.11421e-14)
(-0.108228 -0.0118462 -1.80655e-14)
(-0.0950338 -0.0129358 2.21585e-15)
(-0.0763889 -0.0152004 7.49749e-16)
(-0.0697562 -0.0101186 -8.28324e-15)
(-0.0351977 -0.0196084 3.58764e-14)
(-1.87984 -0.358452 2.97148e-14)
(-0.363061 5.38542 1.199e-14)
(0.0657535 5.37975 5.03408e-15)
(0.555215 4.74745 -6.07218e-16)
(1.0718 4.80832 -5.16256e-15)
(1.42957 4.54275 -1.4156e-15)
(1.77344 4.17199 -1.10923e-14)
(2.08433 3.81099 8.19169e-14)
(2.25577 3.39764 1.97188e-14)
(2.3359 2.96549 -2.06375e-13)
(2.35617 2.54548 6.98311e-14)
(2.28433 2.10864 2.33003e-13)
(2.17101 1.69339 2.97554e-13)
(2.02776 1.32952 6.72667e-14)
(1.85454 1.04863 -3.43906e-13)
(1.69862 0.803726 -8.6319e-14)
(1.45367 0.647425 -8.45615e-14)
(1.17297 0.554568 -1.61057e-13)
(0.889766 0.520924 -3.4223e-13)
(0.687154 0.523902 -5.91103e-13)
(0.527214 0.671326 1.48081e-13)
(0.627993 0.857065 -1.13054e-13)
(0.756458 0.469767 -1.72782e-13)
(1.28219 0.410147 -1.85336e-15)
(0.988396 -0.674879 -2.23498e-13)
(0.554176 -0.976367 -4.10129e-14)
(-0.160158 -0.403768 3.65063e-14)
(-0.4516 -0.0984089 4.24893e-14)
(-1.1444 0.058796 -1.75269e-14)
(-0.957156 0.0834076 2.30047e-14)
(-0.592137 0.076181 4.187e-14)
(-0.238638 0.0300623 -3.7126e-14)
(-0.0429077 -0.00410764 1.60286e-14)
(-0.541382 -0.0712177 1.07074e-13)
(1.77559 -0.196895 5.98498e-14)
(-4.02948 1.92688 -1.27771e-15)
(3.08278 -0.896006 -4.95795e-14)
(21.548 -4.28328 -2.29023e-14)
(1.81797 0.634947 9.71995e-15)
(1.6248 1.22324 -3.06766e-13)
(-0.684733 5.03667 -3.44021e-15)
(-0.918385 4.3215 -4.08968e-14)
(-1.06324 3.43695 -3.74493e-14)
(-1.11487 2.78266 -3.63582e-14)
(-1.06945 2.08027 1.32391e-13)
(-0.924271 1.41266 1.982e-13)
(-0.784514 1.04161 1.39143e-14)
(-0.797655 0.973305 1.51643e-13)
(-0.943358 0.998131 -7.30593e-15)
(-1.03541 0.929906 -3.90011e-14)
(-1.06875 0.809605 -8.14323e-14)
(-1.05193 0.690452 -3.10582e-14)
(-1.00367 0.584361 -2.20234e-14)
(-0.948043 0.482264 7.16543e-14)
(-0.886941 0.379369 -3.80147e-14)
(-0.813717 0.280709 -1.18749e-13)
(-0.736388 0.197817 -1.64871e-14)
(-0.662276 0.132541 7.54256e-14)
(-0.597523 0.0929843 -2.99027e-15)
(-0.543172 0.0709434 -2.02036e-14)
(-0.494113 0.0349759 -5.30201e-14)
(-0.449246 0.0358569 2.06864e-14)
(-0.397678 -0.022819 2.64147e-14)
(-0.354533 -0.00750584 -4.97144e-15)
(-0.310831 -0.00600207 -1.29906e-15)
(-0.264329 -0.052298 1.23845e-15)
(-0.248282 0.00824891 1.21744e-15)
(-0.216905 -0.0288536 2.03206e-16)
(-0.197968 -0.0299096 7.62259e-16)
(-0.180799 -0.0321776 9.48658e-16)
(-0.16371 -0.0326594 -2.6467e-15)
(-0.146059 -0.0300937 -5.04343e-15)
(-0.127171 -0.0284964 -3.19507e-15)
(-0.108847 -0.0293999 8.55422e-15)
(-0.0964478 -0.0277112 2.07704e-14)
(-0.084119 -0.0206895 -3.2392e-14)
(-0.092932 -0.0165724 1.97018e-14)
(-0.0493325 -0.00362821 7.92279e-14)
(-3.53206 -0.80401 -1.12901e-16)
(-0.532048 4.58954 -1.03458e-14)
(-0.234267 4.58614 7.52549e-15)
(0.127338 4.10371 -1.43158e-15)
(0.532568 4.2066 -7.03306e-15)
(0.85087 4.01947 2.35823e-16)
(1.15013 3.7591 1.92734e-14)
(1.42423 3.54146 -1.33673e-14)
(1.58632 3.2543 1.55916e-14)
(1.67951 2.92938 -7.83748e-14)
(1.72637 2.5937 -2.41123e-13)
(1.70365 2.22744 -9.4024e-15)
(1.62864 1.87358 -1.12291e-13)
(1.53142 1.56052 -6.98886e-14)
(1.41483 1.2963 -1.47789e-14)
(1.28806 1.06494 -2.91644e-13)
(1.11993 0.873417 2.72136e-13)
(1.04506 0.59899 1.54089e-13)
(0.965178 0.436622 -3.41556e-13)
(0.865899 0.359141 1.15526e-13)
(0.829899 0.336927 -1.85985e-13)
(0.858499 0.426822 -1.24024e-13)
(1.085 0.452774 2.35297e-13)
(1.17451 0.227596 1.23123e-14)
(0.980811 -0.249514 2.02265e-13)
(0.295723 -0.540666 9.04204e-14)
(-0.118894 -0.216128 -1.94679e-14)
(0.0542776 0.110108 5.10351e-15)
(0.15632 0.160718 1.96037e-14)
(0.0855554 0.109169 -2.41606e-14)
(-0.00305057 0.0661786 -4.25551e-14)
(0.0193623 0.0157508 1.48628e-14)
(0.0321457 -0.0244131 -3.08806e-14)
(-0.242477 -0.136244 -3.57666e-14)
(1.10988 0.0807007 -5.60091e-14)
(-2.78159 1.26599 -8.31271e-14)
(12.1778 -3.09451 1.90126e-14)
(32.776 -5.10562 -3.49233e-14)
(3.3405 0.391559 -8.8858e-14)
(2.28071 -0.348012 1.93973e-13)
(-0.773305 4.3095 2.15182e-14)
(-0.879598 3.73765 3.99539e-14)
(-0.932033 3.01 -4.61095e-14)
(-0.969007 2.46942 -2.66715e-14)
(-0.958868 1.90444 5.8116e-14)
(-0.899695 1.35798 -1.45928e-13)
(-0.835453 1.11003 -1.01716e-13)
(-0.9083 1.08324 1.7551e-13)
(-1.01579 1.04154 1.91914e-13)
(-1.06792 0.943651 -1.5063e-15)
(-1.08106 0.825751 -5.16305e-14)
(-1.06021 0.708845 -3.77159e-14)
(-1.01129 0.59988 1.14024e-13)
(-0.95044 0.497983 -5.06659e-14)
(-0.883711 0.400191 -1.20143e-14)
(-0.808584 0.309044 8.83117e-14)
(-0.73282 0.232134 -3.96275e-14)
(-0.660978 0.17365 3.47118e-14)
(-0.598051 0.137047 2.19486e-14)
(-0.543041 0.112446 2.70671e-15)
(-0.493091 0.092244 5.56203e-14)
(-0.443997 0.0746881 -1.99717e-14)
(-0.394501 0.0574856 -3.42728e-14)
(-0.345515 0.0428791 -6.1235e-15)
(-0.301417 0.0316127 1.21692e-14)
(-0.265036 0.0189042 -6.91854e-16)
(-0.235177 0.0110562 2.75526e-15)
(-0.210963 0.00702546 -5.21669e-16)
(-0.191449 0.00249717 -4.36122e-16)
(-0.175059 0.00106506 1.07095e-15)
(-0.158419 0.00161585 1.96726e-15)
(-0.141325 0.00179091 3.17612e-15)
(-0.123525 0.00152392 -5.58207e-15)
(-0.105682 0.00398526 -2.38481e-14)
(-0.0941958 0.00342153 -7.21146e-15)
(-0.081989 -0.00248225 -1.02164e-14)
(-0.0952679 -0.00813163 -1.66966e-14)
(-0.0520569 -0.027564 -4.35171e-14)
(-3.14481 -1.16373 5.10536e-15)
(-0.397266 3.93518 1.72453e-15)
(-0.131734 3.91619 -3.68696e-16)
(0.148132 3.51778 2.11055e-15)
(0.491035 3.6124 -1.34333e-15)
(0.767555 3.47306 4.03893e-15)
(1.02803 3.28439 -6.17424e-15)
(1.27429 3.13242 -2.85075e-14)
(1.43595 2.89951 5.98004e-14)
(1.54998 2.61544 1.34855e-13)
(1.61374 2.30027 -8.57605e-14)
(1.60676 1.9682 -8.85377e-14)
(1.56322 1.64021 5.62778e-14)
(1.49898 1.35073 -1.26615e-13)
(1.41468 1.10309 -1.85374e-14)
(1.30807 0.887171 -3.91818e-14)
(1.18296 0.682964 1.95562e-14)
(1.02588 0.541958 3.92324e-14)
(0.892018 0.482609 4.05237e-13)
(0.794345 0.47502 3.26471e-13)
(0.749215 0.51599 -1.41087e-13)
(0.777682 0.571952 2.01618e-13)
(0.91513 0.562239 1.85927e-14)
(1.0609 0.256362 -5.90795e-14)
(0.921014 -0.326186 -1.15213e-13)
(0.499053 -0.527475 9.27485e-15)
(0.151946 -0.231508 2.65953e-14)
(0.102907 0.0677881 3.31171e-14)
(0.218251 0.116941 -3.02588e-14)
(0.294277 0.0816997 6.52108e-15)
(0.284892 0.0488015 5.77396e-14)
(0.281968 0.00415721 -2.4489e-14)
(0.243932 -0.0559317 -1.19565e-13)
(-0.160335 -0.174848 -5.16243e-14)
(0.902642 0.2408 -4.33602e-14)
(-2.26038 0.474725 1.85303e-14)
(7.70272 -3.26665 1.09646e-14)
(18.2022 -3.85002 3.12694e-14)
(-3.78361 1.99013 4.43725e-14)
(2.18865 -1.28001 4.97346e-14)
(-0.599251 3.66966 -9.35478e-15)
(-0.711564 3.2461 -1.37015e-14)
(-0.782799 2.69152 2.10241e-15)
(-0.893068 2.26137 3.77445e-14)
(-0.935091 1.78783 4.40555e-14)
(-0.902302 1.33286 -1.97952e-13)
(-0.888077 1.14544 -1.20419e-13)
(-0.99309 1.13347 -1.64065e-13)
(-1.06559 1.05905 3.42927e-14)
(-1.10052 0.948022 2.15479e-14)
(-1.10458 0.826987 -5.57828e-14)
(-1.08013 0.704898 4.90739e-15)
(-1.02918 0.585061 -2.38863e-14)
(-0.965575 0.471036 -4.18685e-14)
(-0.895137 0.36728 -1.33091e-13)
(-0.818587 0.275735 -1.22484e-14)
(-0.744266 0.20112 7.85088e-14)
(-0.673457 0.144554 -1.22532e-14)
(-0.6106 0.106329 1.49525e-14)
(-0.5554 0.0801583 -2.58715e-14)
(-0.503674 0.0590389 -3.8627e-14)
(-0.452453 0.0409808 -2.50986e-15)
(-0.401024 0.0246678 1.22845e-14)
(-0.350137 0.0112411 1.30568e-14)
(-0.304526 0.00226407 -1.62803e-15)
(-0.266963 -0.00440081 -3.24836e-15)
(-0.236002 -0.00906861 -5.46633e-15)
(-0.211339 -0.0122816 1.03197e-15)
(-0.191553 -0.0148535 4.20613e-16)
(-0.175076 -0.0159786 -1.08137e-15)
(-0.158308 -0.0163998 -1.88393e-15)
(-0.140153 -0.0165292 -2.96618e-15)
(-0.122323 -0.0174533 5.04972e-15)
(-0.104393 -0.0192542 2.1744e-14)
(-0.0923256 -0.0202937 6.06139e-15)
(-0.0813381 -0.0217066 2.15729e-14)
(-0.0901728 -0.017117 -1.71752e-14)
(-0.0663356 -0.0119835 -4.56498e-14)
(-1.49971 -0.647268 1.94279e-14)
(-0.323461 3.39039 6.52352e-16)
(-0.0941581 3.38329 -3.45067e-16)
(0.134276 3.06202 -1.79006e-15)
(0.398543 3.16573 3.32633e-15)
(0.613406 3.07851 6.71622e-16)
(0.823058 2.95218 -1.07392e-14)
(1.03122 2.85719 3.2437e-14)
(1.1783 2.675 -1.13153e-14)
(1.29009 2.44113 4.4412e-14)
(1.3594 2.1799 8.56374e-14)
(1.36621 1.88572 1.60092e-14)
(1.34127 1.59866 2.78313e-14)
(1.29922 1.34598 1.83887e-13)
(1.23836 1.12648 3.2146e-13)
(1.15617 0.929547 2.90254e-13)
(1.04655 0.751584 -4.89435e-15)
(0.910201 0.60743 3.58478e-13)
(0.82183 0.471008 1.3561e-14)
(0.764262 0.415235 -1.06424e-13)
(0.752755 0.412403 1.44294e-13)
(0.802197 0.429413 -2.39883e-13)
(0.911099 0.39936 9.88872e-14)
(0.977891 0.187576 1.08882e-13)
(0.815335 -0.173705 3.70995e-14)
(0.49716 -0.332294 1.06525e-13)
(0.251881 -0.147128 -4.25842e-14)
(0.17126 0.0492529 -3.53637e-14)
(0.199536 0.0744328 4.91367e-15)
(0.248545 0.0493222 2.14577e-14)
(0.266884 0.0298735 -5.32598e-14)
(0.299653 -0.00623877 -5.06067e-14)
(0.312842 -0.0652985 8.65027e-14)
(-0.139502 -0.176781 1.92765e-14)
(0.850428 0.325588 -3.17682e-14)
(-1.14111 -0.136571 6.72761e-15)
(3.29819 -2.74328 -3.6346e-14)
(3.25429 -1.73377 2.01286e-14)
(-16.6349 4.68487 7.24748e-15)
(-2.07985 -1.68766 3.41093e-13)
(-0.470718 3.23641 -6.66377e-15)
(-0.626934 2.96418 -1.07958e-14)
(-0.755811 2.47574 7.05356e-15)
(-0.835112 2.07112 7.90802e-14)
(-0.846423 1.63285 3.55783e-14)
(-0.810617 1.3165 8.81339e-15)
(-0.835069 1.19997 1.68914e-13)
(-0.930888 1.17225 -8.94347e-14)
(-0.99836 1.09576 -1.41754e-13)
(-1.03466 0.985297 4.42903e-14)
(-1.04782 0.866917 9.46595e-14)
(-1.03443 0.744463 -2.16414e-14)
(-0.995627 0.62154 6.26458e-14)
(-0.941564 0.50432 6.67003e-15)
(-0.877909 0.397518 3.21895e-14)
(-0.807886 0.305585 1.38751e-14)
(-0.740099 0.23287 -3.42458e-14)
(-0.676007 0.17853 2.88318e-14)
(-0.617344 0.137078 -2.11178e-14)
(-0.562402 0.106514 2.42628e-15)
(-0.510109 0.0814596 5.31399e-14)
(-0.458216 0.0596588 -1.78012e-14)
(-0.406259 0.0402202 -2.31195e-14)
(-0.354828 0.0243681 4.85819e-15)
(-0.308616 0.0130029 -5.37402e-16)
(-0.270261 0.00481539 6.88025e-16)
(-0.238513 -0.000665083 3.08221e-15)
(-0.213098 -0.00452939 -4.90532e-16)
(-0.192668 -0.00775889 3.225e-16)
(-0.175711 -0.0100743 -1.27578e-17)
(-0.15845 -0.0116676 -4.71757e-15)
(-0.138943 -0.0129108 5.39181e-16)
(-0.12098 -0.014153 7.72075e-15)
(-0.103544 -0.0141973 -7.92338e-16)
(-0.0910967 -0.0130755 -6.05815e-16)
(-0.0815146 -0.0135423 -4.68442e-15)
(-0.0847886 -0.00952165 1.29745e-14)
(-0.0776918 -0.0138724 3.57114e-14)
(-0.591418 -0.251389 -5.83993e-15)
(-0.264342 3.04657 3.35963e-15)
(-0.0818957 2.99024 -3.626e-15)
(0.0918388 2.7359 2.6188e-15)
(0.305859 2.85496 -7.7386e-15)
(0.487006 2.80408 4.46533e-15)
(0.666875 2.71532 3.55793e-15)
(0.856318 2.654 6.37223e-15)
(1.00107 2.50419 -8.60683e-14)
(1.1165 2.30389 -7.08256e-15)
(1.19589 2.07808 1.33209e-13)
(1.21916 1.81649 -5.4945e-14)
(1.2153 1.55844 -1.27984e-13)
(1.19817 1.32755 -2.53934e-13)
(1.16461 1.11949 -2.15631e-13)
(1.10702 0.927276 -1.4876e-13)
(1.01709 0.75084 -5.68238e-14)
(0.911185 0.595095 -2.02069e-13)
(0.80981 0.491687 -2.76812e-13)
(0.754762 0.459247 -1.33295e-13)
(0.737072 0.45761 3.28185e-13)
(0.77293 0.452448 3.03523e-13)
(0.847054 0.394111 -2.62634e-14)
(0.878298 0.188471 -4.4967e-14)
(0.755438 -0.125709 -1.45069e-13)
(0.516301 -0.268328 -8.11339e-14)
(0.312698 -0.127271 3.69775e-14)
(0.219577 0.0440484 2.75115e-14)
(0.218206 0.0756651 2.89394e-15)
(0.243899 0.0557065 -1.4294e-14)
(0.245579 0.0323633 5.43837e-14)
(0.267583 -0.00927275 1.16313e-13)
(0.294375 -0.0667246 1.6783e-15)
(-0.0866194 -0.175207 7.86588e-15)
(0.715591 0.360093 2.27058e-14)
(-0.320664 -0.474207 -8.36622e-15)
(1.60395 -2.28605 3.11772e-14)
(-2.20598 0.0937669 -1.56216e-14)
(-26.7696 7.27156 -8.57207e-14)
(-2.07077 -0.866902 4.26074e-14)
(-0.432476 2.9733 1.74575e-14)
(-0.574099 2.68147 2.1628e-14)
(-0.675413 2.17592 5.42126e-15)
(-0.702238 1.80127 1.09063e-13)
(-0.691494 1.4665 -1.79523e-13)
(-0.690065 1.27268 8.33512e-14)
(-0.742803 1.2091 1.48814e-13)
(-0.82945 1.17629 7.58635e-14)
(-0.893836 1.1059 -3.29461e-14)
(-0.933621 1.00514 -3.33117e-14)
(-0.956181 0.895513 2.26456e-14)
(-0.955319 0.780217 3.52523e-14)
(-0.929717 0.661481 -8.26607e-14)
(-0.889268 0.549518 6.24999e-14)
(-0.83977 0.447315 1.50281e-14)
(-0.78237 0.357008 -1.14848e-14)
(-0.725128 0.28334 -5.19432e-14)
(-0.669641 0.225323 -5.19559e-14)
(-0.616761 0.18003 4.25254e-14)
(-0.565394 0.143153 1.26058e-14)
(-0.515055 0.111363 4.09935e-15)
(-0.464276 0.0833776 4.07388e-14)
(-0.413171 0.0590482 1.56488e-14)
(-0.362492 0.0390974 -1.85916e-15)
(-0.31662 0.0240314 3.78011e-15)
(-0.277848 0.0130407 -2.11857e-15)
(-0.245293 0.00535698 -4.26198e-15)
(-0.2189 -0.000312807 8.04166e-16)
(-0.197473 -0.0049186 -1.82407e-16)
(-0.179621 -0.00847258 7.94948e-16)
(-0.161544 -0.0112071 4.35733e-15)
(-0.140828 -0.0129742 -4.4037e-15)
(-0.122197 -0.0147102 -1.6485e-14)
(-0.104487 -0.0153044 -1.51272e-14)
(-0.0914935 -0.0148236 -9.22426e-15)
(-0.083318 -0.0155865 7.06826e-15)
(-0.0801401 -0.0139666 -8.20671e-15)
(-0.0863088 -0.0157033 -3.70973e-14)
(-0.283468 -0.091193 -1.1866e-14)
(-0.266244 2.77296 8.1036e-16)
(-0.113839 2.7038 1.95966e-15)
(0.0312388 2.5001 -1.69379e-15)
(0.216895 2.61786 -2.23438e-15)
(0.381754 2.57401 -1.41342e-14)
(0.543398 2.4956 1.332e-14)
(0.716846 2.44712 -1.24831e-14)
(0.854391 2.31698 -1.29184e-14)
(0.964508 2.14212 -2.78359e-14)
(1.04189 1.94712 -3.60048e-14)
(1.06875 1.71858 1.51629e-14)
(1.07218 1.493 1.50536e-13)
(1.06679 1.29022 2.03994e-13)
(1.0497 1.10452 3.36104e-14)
(1.01236 0.930422 7.37379e-15)
(0.943736 0.767433 1.25133e-14)
(0.855734 0.626021 -3.76805e-14)
(0.769406 0.51908 1.16439e-13)
(0.74136 0.453804 1.04786e-13)
(0.74138 0.420491 -2.53788e-13)
(0.774377 0.390872 -2.73882e-14)
(0.818104 0.326264 5.42994e-14)
(0.815581 0.16531 -6.50233e-14)
(0.70606 -0.064943 7.51114e-14)
(0.523171 -0.176296 1.14587e-16)
(0.358958 -0.0847403 -1.22826e-14)
(0.25667 0.0402529 -3.51819e-14)
(0.237984 0.0697054 1.75173e-15)
(0.259602 0.0562721 -1.81717e-16)
(0.255107 0.0331193 3.15817e-14)
(0.265871 -0.0104664 9.81827e-15)
(0.276869 -0.0667321 -4.69619e-14)
(-0.018798 -0.166957 -1.05434e-14)
(0.581 0.348014 7.10902e-14)
(0.0289745 -0.608585 1.20792e-14)
(0.625615 -1.96373 2.37021e-15)
(-1.83081 1.13156 -1.84429e-14)
(-23.3489 7.22017 7.55227e-14)
(-0.163036 -0.343744 -8.27492e-14)
(-0.408713 2.63149 3.98066e-15)
(-0.514721 2.29021 -5.08866e-14)
(-0.567223 1.88221 1.96463e-14)
(-0.609338 1.62216 2.582e-14)
(-0.632764 1.36217 4.74214e-14)
(-0.659958 1.22949 -1.64739e-14)
(-0.733517 1.18794 -2.9661e-14)
(-0.814342 1.14242 -5.13821e-15)
(-0.872945 1.06735 -7.15563e-15)
(-0.905701 0.967017 1.04661e-14)
(-0.923545 0.862268 3.53702e-14)
(-0.921268 0.754738 6.11691e-14)
(-0.897456 0.645257 -1.7165e-15)
(-0.861883 0.542356 -1.28271e-13)
(-0.817216 0.449907 2.3957e-14)
(-0.765721 0.368531 6.94036e-14)
(-0.714709 0.300638 5.23738e-14)
(-0.663991 0.244675 2.38478e-14)
(-0.614431 0.19846 -1.84177e-14)
(-0.564938 0.15913 -4.48289e-15)
(-0.515466 0.124574 -1.87161e-14)
(-0.46503 0.0939808 -3.40958e-14)
(-0.41424 0.0675648 1.34709e-14)
(-0.364058 0.0459254 1.26672e-14)
(-0.31864 0.0293813 1.79515e-15)
(-0.279978 0.0172701 9.05658e-15)
(-0.247275 0.00865749 2.34033e-15)
(-0.220535 0.00227979 -6.91493e-16)
(-0.198741 -0.00279345 -1.35573e-16)
(-0.180576 -0.00684212 -1.2119e-15)
(-0.162213 -0.0100772 2.67235e-15)
(-0.141211 -0.0122772 2.86422e-15)
(-0.12214 -0.0142142 7.41355e-15)
(-0.104692 -0.0149077 5.10054e-15)
(-0.0915862 -0.0143923 -1.13492e-14)
(-0.0845766 -0.0155433 1.32894e-15)
(-0.0782915 -0.0130457 -5.16568e-15)
(-0.0884763 -0.0143299 8.55544e-15)
(-0.163068 -0.067537 1.26819e-14)
(-0.250064 2.42906 3.85925e-15)
(-0.101929 2.40996 -1.02239e-15)
(0.0297007 2.24632 -5.88113e-15)
(0.199894 2.35436 -1.35095e-15)
(0.351217 2.3103 1.12201e-14)
(0.495633 2.23566 -1.18451e-14)
(0.650163 2.19201 -1.20357e-15)
(0.772817 2.07634 2.35405e-14)
(0.870098 1.92432 1.42183e-14)
(0.936288 1.75634 3.01066e-14)
(0.956598 1.55903 6.51296e-14)
(0.957067 1.36568 5.50115e-14)
(0.951952 1.19147 -1.2848e-13)
(0.940379 1.03052 -2.088e-13)
(0.914646 0.878268 3.54973e-14)
(0.861529 0.732938 2.69808e-13)
(0.789149 0.604727 5.72901e-14)
(0.717653 0.502637 -1.54906e-13)
(0.681992 0.445531 -2.66003e-14)
(0.693546 0.417915 3.16836e-14)
(0.7326 0.385181 -6.42303e-14)
(0.767123 0.311754 -7.89183e-14)
(0.753583 0.1678 6.32214e-15)
(0.664124 -0.0182557 5.81127e-14)
(0.533515 -0.112993 5.25785e-14)
(0.401839 -0.0549992 -3.05524e-15)
(0.289379 0.0381207 2.9645e-14)
(0.252774 0.0644415 5.34683e-15)
(0.269737 0.0541713 4.7087e-14)
(0.264141 0.0302624 -3.67484e-14)
(0.273108 -0.0140153 -1.16767e-13)
(0.272338 -0.0705082 -3.93676e-14)
(0.0290897 -0.155226 2.30254e-14)
(0.505091 0.302003 1.91063e-14)
(0.192809 -0.634976 -1.42148e-14)
(-0.0850964 -1.70112 -1.94581e-14)
(-0.772662 1.6457 2.16288e-14)
(-11.7306 5.20348 8.13405e-14)
(1.73579 -0.363842 -2.75858e-13)
(-0.362788 2.2494 -8.84219e-15)
(-0.448411 2.01274 -8.44262e-15)
(-0.513082 1.73227 -1.27972e-14)
(-0.571652 1.52216 -2.29447e-14)
(-0.608463 1.28484 3.25808e-14)
(-0.646397 1.17682 -4.11892e-14)
(-0.733195 1.15552 -1.96374e-14)
(-0.808435 1.09884 6.37215e-14)
(-0.861207 1.01717 -3.39153e-14)
(-0.888715 0.916479 6.69311e-14)
(-0.903009 0.815845 6.59518e-14)
(-0.898886 0.715311 4.36149e-14)
(-0.875443 0.614893 2.91104e-14)
(-0.842486 0.522207 4.5764e-14)
(-0.801762 0.43936 -1.29206e-14)
(-0.754521 0.365582 3.53396e-15)
(-0.707496 0.302927 3.22942e-14)
(-0.659637 0.249653 2.38748e-14)
(-0.61181 0.203695 -2.27134e-15)
(-0.563258 0.163027 -4.73645e-14)
(-0.514292 0.126852 -9.06155e-15)
(-0.464122 0.0948424 3.60078e-16)
(-0.413579 0.0672233 -2.90605e-14)
(-0.363782 0.04469 3.03137e-15)
(-0.318848 0.0276241 -3.3493e-15)
(-0.280385 0.0153291 -7.48765e-15)
(-0.247682 0.00667517 6.63804e-16)
(-0.220785 0.000413996 6.66786e-17)
(-0.198796 -0.00437164 -2.98817e-17)
(-0.180473 -0.00819484 9.56482e-16)
(-0.161985 -0.0113382 -2.37268e-15)
(-0.140916 -0.0135199 -6.2306e-15)
(-0.121341 -0.015299 4.53535e-15)
(-0.104204 -0.0158587 1.40133e-14)
(-0.0911804 -0.0152598 7.30371e-15)
(-0.0846574 -0.0159674 -1.03408e-14)
(-0.0783962 -0.0149309 2.68755e-14)
(-0.08457 -0.0145213 3.36726e-14)
(-0.120048 -0.0477033 -1.89813e-14)
(-0.214251 2.13694 -3.0539e-15)
(-0.0869707 2.14028 8.87104e-16)
(0.0362795 2.01131 5.80234e-15)
(0.195869 2.10657 7.48377e-15)
(0.331953 2.06498 1.0728e-15)
(0.460336 1.9981 2.72648e-15)
(0.599098 1.96099 -9.54228e-15)
(0.709568 1.86082 -3.58464e-14)
(0.79614 1.7311 -3.46881e-14)
(0.853572 1.58852 -9.50614e-15)
(0.868361 1.41899 -5.00475e-14)
(0.865603 1.25388 -1.52015e-14)
(0.858574 1.10514 1.19535e-13)
(0.848025 0.96582 6.03397e-14)
(0.828396 0.832005 -4.09398e-15)
(0.786245 0.702945 -2.07978e-13)
(0.726595 0.587706 -5.61464e-14)
(0.66507 0.495679 1.9163e-13)
(0.625743 0.431105 9.12197e-14)
(0.644972 0.402571 -4.37922e-14)
(0.684857 0.367891 -3.74319e-15)
(0.714321 0.296098 4.38528e-14)
(0.695275 0.174666 1.08642e-14)
(0.62319 0.02869 -7.92588e-14)
(0.535194 -0.0521271 -1.33303e-13)
(0.434544 -0.0251647 3.92148e-14)
(0.31747 0.0365684 -7.10399e-15)
(0.266365 0.0571676 -7.85393e-15)
(0.276301 0.0489458 -2.59331e-14)
(0.267703 0.0252819 -2.39528e-14)
(0.275704 -0.017993 3.69804e-14)
(0.272524 -0.0753408 1.07197e-13)
(0.0593735 -0.144259 3.13983e-14)
(0.460728 0.24239 -7.21004e-14)
(0.289114 -0.620863 1.11873e-14)
(-0.363134 -1.4555 -1.3546e-14)
(-0.626048 1.82647 -4.93389e-15)
(-2.37102 2.79974 -4.66738e-14)
(7.52483 -1.49714 -4.98629e-14)
(-0.328365 2.01744 8.56646e-15)
(-0.409472 1.85915 2.75742e-14)
(-0.477012 1.61491 -6.17401e-14)
(-0.529372 1.41529 -6.08883e-15)
(-0.561605 1.22788 -1.22844e-13)
(-0.61202 1.14486 7.5729e-15)
(-0.695101 1.11386 3.27564e-14)
(-0.765227 1.05428 -1.30239e-13)
(-0.816621 0.973858 2.6126e-14)
(-0.844495 0.877284 -1.21756e-14)
(-0.86053 0.783338 -6.23834e-14)
(-0.860111 0.691512 -7.47142e-14)
(-0.841779 0.60018 -9.37875e-16)
(-0.81504 0.51618 5.47654e-14)
(-0.780611 0.440641 2.26631e-14)
(-0.7392 0.372086 -2.1838e-14)
(-0.696823 0.312076 -3.08038e-14)
(-0.652376 0.259266 -8.08767e-15)
(-0.606957 0.212313 1.55981e-14)
(-0.559863 0.169797 4.02641e-14)
(-0.511782 0.131674 3.98264e-14)
(-0.462471 0.0980927 3.46467e-14)
(-0.412652 0.0692556 -1.16274e-15)
(-0.363631 0.0457046 -3.07682e-14)
(-0.319335 0.027856 2.88634e-15)
(-0.281202 0.0150869 -8.17741e-15)
(-0.248553 0.00615778 -4.01356e-15)
(-0.221527 -0.00019387 -2.92963e-16)
(-0.199324 -0.00487371 3.37792e-16)
(-0.180776 -0.00857604 -1.12661e-15)
(-0.162106 -0.0116818 1.39421e-15)
(-0.140929 -0.01385 5.79036e-15)
(-0.12072 -0.0154695 -6.50388e-15)
(-0.103779 -0.015948 -4.22224e-15)
(-0.0909083 -0.0152768 8.66549e-15)
(-0.0845363 -0.015574 6.85549e-15)
(-0.0786292 -0.0153092 -2.05058e-14)
(-0.0818928 -0.0129622 -3.11215e-14)
(-0.103011 -0.0396757 2.16055e-14)
(-0.203138 1.94663 -5.29007e-16)
(-0.0980065 1.93831 6.12982e-16)
(0.0172174 1.83337 -2.57728e-16)
(0.167334 1.91786 -1.99673e-15)
(0.291364 1.88244 4.85296e-15)
(0.408442 1.82439 -7.81306e-16)
(0.537605 1.79397 2.88812e-15)
(0.641307 1.70756 2.0215e-14)
(0.72249 1.59606 -2.23219e-14)
(0.778726 1.47403 -9.01598e-14)
(0.794994 1.3262 -6.2461e-14)
(0.793048 1.18177 -7.20522e-14)
(0.787144 1.05079 -4.56168e-14)
(0.77997 0.926293 -7.57307e-14)
(0.766062 0.804783 -9.50153e-14)
(0.733574 0.686268 8.34079e-14)
(0.684579 0.577763 -2.001e-14)
(0.633136 0.487758 -1.44214e-13)
(0.591692 0.420094 -6.24523e-14)
(0.607702 0.390673 -4.75834e-14)
(0.643383 0.357714 -3.33481e-14)
(0.666371 0.289622 9.25931e-14)
(0.644571 0.184639 -1.12203e-14)
(0.586788 0.0675498 -1.76545e-14)
(0.530583 -0.00172905 6.14029e-15)
(0.455287 0.00165219 -3.37234e-14)
(0.338781 0.0358999 -4.41706e-14)