/*--------------------------------*- C++ -*----------------------------------*\
| =========                 |                                                 |
| \\      /  F ield         | OpenFOAM: The Open Source CFD Toolbox           |
|  \\    /   O peration     | Version:  2312                                  |
|   \\  /    A nd           | Website:  www.openfoam.com                      |
|    \\/     M anipulation  |                                                 |
\*---------------------------------------------------------------------------*/
FoamFile
{
    version     2.0;
    format      ascii;
    arch        "LSB;label=32;scalar=64";
    class       volScalarField;
    location    "350";
    object      nut;
}
// * * * * * * * * * * * * * * * * * * * * * * * * * * * * * * * * * * * * * //

dimensions      [0 2 -1 0 0 0 0];

internalField   nonuniform List<scalar> 
10720
(
6.48084e-05
0.00011147
0.000146161
0.000153452
0.000141283
0.000130384
0.000128624
0.00013636
0.000154534
0.000184761
0.000231781
0.000307621
0.000435557
0.000655117
0.00105214
0.00203889
0.00398469
0.00771943
0.0152195
0.026882
0.0439441
0.0721049
0.110401
0.174291
0.33226
0.497767
1.14592
2.04108
1.38902
0.487038
0.136842
0.012182
0.00284274
0.000199198
1.50244e-18
6.16944e-06
0.000637441
0.110657
0.422968
5.66438e-05
9.96222e-05
0.000116586
0.000174044
6.83853e-05
8.2071e-05
0.00012995
0.000181024
0.000188019
0.000179716
0.000179676
0.00019553
0.00022885
0.000300284
0.000413005
0.00068117
0.00104329
0.0028915
0.0033607
0.00394586
0.00531319
0.007219
0.00909325
0.0121305
0.0158677
0.0197286
0.0165152
0.00898874
0.00342711
0.000898014
0.000117972
5.54834e-06
1.16334e-06
4.77876e-07
1.74322e-07
2.84737e-08
5.03215e-10
0.00647689
0.438082
0.000394923
0.00049587
0.000335546
0.000225843
0.000154506
0.000125615
0.000122454
0.000127526
0.000135884
0.000147147
0.000162011
0.000177668
0.000208736
0.000292551
0.000480914
0.00102144
0.00246855
0.00523557
0.0105772
0.0205387
0.0364473
0.0600233
0.0991219
0.13095
0.323805
0.33177
1.01211
1.26796
1.11225
1.53678
0.936413
0.22916
0.0550502
0.00369184
5.92619e-05
1.82733e-05
0.00153018
0.0945834
0.475776
0.000100336
9.11063e-06
3.35778e-05
6.72196e-05
7.35946e-05
0.00011816
0.000142405
0.00016583
0.000188236
0.00021285
0.000241633
0.000272207
0.000216076
0.000200593
0.000228024
0.000592921
0.00258879
0.00665655
0.00192037
0.00394515
6.67615e-05
0.004148
0.0557014
6.93608e-05
0.000659345
0.000148294
0.000548523
0.000168692
0.000191417
0.0001705
9.7699e-05
4.80749e-05
2.01746e-05
7.61554e-06
2.55706e-06
7.05626e-07
1.27026e-08
0.00638197
0.423168
8.43185e-05
0.000104762
9.8452e-05
9.80884e-05
9.96742e-05
0.000102734
0.000108003
0.000114732
0.00012266
0.000131196
0.000139983
0.000148824
0.000156232
0.000162356
0.000187178
0.000154157
0.000420155
0.000999391
0.00252275
0.00643793
0.0156003
0.0370621
0.0147667
0.00844945
0.17486
0.103815
0.486258
0.646052
0.443205
0.378273
0.360913
0.247333
0.0658118
0.00851094
0.000713401
3.11369e-07
0.000577541
0.0270838
0.45259
9.76611e-05
6.22216e-05
9.80108e-05
0.000158367
0.000168487
0.000144704
0.000128974
0.000145141
0.000168299
0.00020137
0.000250936
0.000321917
0.000415815
0.000523265
0.000657387
0.00081589
0.00103204
0.00118813
0.00136354
0.00120499
0.000456199
0.00239196
0.000229133
0.000957876
0.00559471
0.00158356
0.00195411
0.00117277
0.00112157
0.00094994
0.000634082
0.000329248
0.000190584
0.000131978
0.000104073
0.000131889
9.69225e-17
0.0159658
1.49207
0.000193472
3.22054e-05
0.000165339
0.000181859
0.000191974
0.000196203
0.000202543
0.000211398
0.00022317
0.000238428
0.000257915
0.000282342
0.000313185
0.000352996
0.000403753
0.000471726
0.000562358
0.000223879
0.000351298
3.69632e-05
2.31793e-16
3.27381e-16
0.00364195
0.00122891
0.0442078
2.98766e-07
1.08602e-12
1.29926e-11
6.82389e-11
6.94528e-10
5.08618e-08
6.11907e-05
0.0206857
0.0203155
0.00549744
3.09709e-06
0.00301574
0.0019443
0.481666
0.000212794
0.00022484
0.000241008
0.000221209
0.000205636
5.2404e-05
0.000231123
0.00025269
2.15558e-06
0.000100195
0.00020365
0.000318947
0.000447486
0.000575319
0.000692777
0.00080764
0.000919822
0.00101681
0.00112768
0.00125035
0.00132309
0.00137809
0.00134005
0.00137745
0.00131145
0.00118808
0.00119435
0.00117185
0.00114351
0.00111965
0.00109785
0.00106662
0.00101615
0.000961834
0.000870603
0.00112202
2.15527e-05
0.0320799
8.37124
0.000426226
0.00042709
0.000433148
0.000442967
0.000455982
0.000475778
0.000500054
0.000530052
0.000569025
0.000611298
0.000657322
0.000712483
0.000772544
0.000836075
0.00090185
0.000967374
0.00103845
0.00112187
0.00122411
0.000200846
0.00044216
0.000200892
2.24314e-16
3.05776e-16
2.16654e-15
8.7911e-22
2.50287e-17
4.57051e-16
2.67323e-15
2.55102e-14
7.67124e-13
1.78076e-10
8.86905e-08
2.10775e-12
0.00923488
0.00886467
0.0190263
0.00234787
0.214684
0.000456623
0.000443589
0.000432462
0.000412577
0.000196002
0.00014924
0.000149317
0.000146924
0.000144474
0.000155317
0.000166648
0.000180083
0.000198332
0.000217733
0.000234673
0.000252626
0.000280802
0.000294308
0.000303195
0.000329265
0.000349124
0.000366532
0.00036492
0.000378283
0.000371245
0.000351387
0.000359244
0.000361576
0.000363713
0.000366812
0.000368667
0.000365896
0.000357191
1.43119e-05
1.32693e-05
0.000505388
9.91577e-06
0.0412362
7.67707
0.000792301
0.000785703
0.000795886
0.000806986
0.000824426
0.000845534
0.000870947
0.000903998
0.000946243
0.000999084
0.0010645
0.00114456
0.00124165
0.00135948
0.00150149
0.00167599
0.00190249
0.00219803
0.00255325
0.00254034
0.00233095
0.00104622
0.000352695
0.00023178
9.96413e-09
9.27663e-22
4.60516e-27
4.73889e-27
7.99241e-27
1.92802e-26
5.97438e-26
2.40295e-25
4.33431e-13
2.38305e-14
8.0236e-15
7.29598e-13
3.07145e-10
2.12736e-11
1.00247e-09
0.000781614
7.66019e-05
0.000197227
0.000251837
0.000524572
0.000938531
0.000999281
0.00107254
0.00104032
0.00100423
0.000966439
0.000925206
0.0008936
0.000862584
0.000817562
0.00077359
0.000789447
0.000724752
0.000617121
0.000589554
0.000572084
0.000556349
0.000534282
0.000512506
0.000493671
0.000475891
0.000459869
0.000445337
0.000432912
0.000423529
0.000413975
0.000395408
0.000369384
0.000353515
0.000244328
0.000412668
8.23602e-06
0.0318523
3.24577
0.000739242
0.000883963
0.00069539
0.000591383
0.000520608
0.00046481
0.000419933
0.000387337
0.000367522
0.000361219
0.000367933
0.000387829
0.00042032
0.000465277
0.000524594
0.000601931
0.000686957
0.000812864
0.00102692
0.00128347
0.00151001
0.00162269
0.00154692
0.00117136
4.32198e-08
2.4584e-12
1.04311e-26
6.33211e-27
7.27078e-27
1.27979e-26
3.00484e-26
8.44287e-26
2.36758e-25
5.98144e-25
1.61733e-16
5.83461e-15
7.36966e-13
3.35902e-23
1.23239e-12
0.000282563
0.00021737
0.000591842
0.00150241
0.00160045
0.00167589
0.00176918
0.00189122
0.00205128
0.00206464
0.00205004
0.00203046
0.00202335
0.00201723
0.00197979
0.00194186
0.00191478
0.00189375
0.00186731
0.00183641
0.00180082
0.0017641
0.001726
0.00168459
0.00163955
0.0015943
0.00155284
0.00151345
0.00147736
0.00144608
0.00141988
0.00139243
0.00134436
0.00123382
0.00117616
0.0012059
2.55669e-05
0.02463
1.61372
0.000153923
0.000171981
0.000171475
0.00016659
0.000172388
0.000179908
0.000184543
0.000191175
0.000197776
0.00020425
0.000212925
0.000223086
0.000234759
0.000248574
0.000264638
0.000283767
0.000303496
0.000332031
2.14034e-05
0.000204557
0.000450861
0.000729775
0.0009882
0.00109549
0.00140451
2.59144e-11
1.04504e-17
9.77089e-27
8.1126e-27
1.07954e-26
1.99544e-26
4.41048e-26
9.56961e-26
1.74682e-25
2.71531e-25
5.6331e-25
1.52366e-24
3.46346e-24
1.32659e-23
1.55889e-05
0.0012112
0.00185866
0.00171887
0.00129727
0.00114017
0.00116386
0.00118783
0.00121617
0.00125084
0.00129042
0.00133468
0.00137704
0.00143058
0.00149241
0.00153661
0.00154904
0.00154067
0.00152575
0.00150509
0.00148079
0.00145388
0.00142342
0.00138839
0.00135176
0.00131702
0.00128496
0.00125509
0.00122863
0.0012056
0.00118587
0.00117324
0.00116517
0.00114614
0.00113069
0.00126732
2.8362e-05
0.0152278
0.853412
0.000584571
0.000580622
0.000665126
0.000751823
0.000836289
0.000915202
0.000987559
0.00104701
0.0010906
0.00112258
0.00114751
0.0011657
0.00117737
0.00118366
0.00118521
0.001182
0.00116947
0.00115225
0.0011601
0.00102615
0.000860811
0.0008552
0.000926839
0.000933658
0.00144364
1.37053e-10
6.11492e-17
1.65977e-26
1.03497e-26
1.06951e-26
1.58869e-26
2.88668e-26
5.29047e-26
8.60618e-26
1.24188e-25
2.1091e-25
4.55045e-25
9.14023e-25
2.55583e-24
0.00166456
0.00181133
0.00112326
0.000486846
4.16765e-05
0.000167872
0.000171274
1.59378e-05
4.0075e-05
7.00735e-05
0.000105646
0.000146516
0.000193501
0.000246675
0.000304419
0.000342204
0.000361955
0.000373175
0.000376354
0.000371928
0.000365813
0.00035877
0.000347238
0.000334217
0.00032369
0.00031485
0.000307085
0.000300586
0.000295692
0.000292195
0.000289652
0.000289864
0.000307166
0.000340788
0.0003723
0.000623322
1.46426e-05
0.00698461
0.362318
0.00179549
0.00160825
0.00160514
0.00161655
0.00162602
0.00163321
0.00165697
0.00167681
0.0016815
0.00168867
0.00170112
0.00171171
0.00172026
0.00173165
0.0017421
0.00174683
0.00173639
0.00174778
0.00175907
0.001675
0.00153702
0.00140499
0.00131803
0.00115706
0.00145125
6.89032e-10
3.35058e-16
3.02388e-26
1.45985e-26
1.19865e-26
1.45244e-26
2.21464e-26
3.5428e-26
5.29372e-26
7.27267e-26
1.09651e-25
2.0571e-25
3.73041e-25
7.49703e-25
0.00160186
0.000646818
0.000234765
7.63701e-05
4.12787e-05
3.90855e-05
3.96974e-05
4.1464e-05
4.41615e-05
4.77269e-05
5.1634e-05
5.63591e-05
6.24496e-05
6.98082e-05
7.85547e-05
8.50111e-05
8.9199e-05
9.27733e-05
9.53622e-05
9.67307e-05
9.78604e-05
9.88859e-05
9.87953e-05
9.8142e-05
9.78104e-05
9.75881e-05
9.74194e-05
9.73736e-05
9.75498e-05
9.78771e-05
9.83143e-05
9.92505e-05
0.000103003
0.000109124
0.000120226
0.000171589
1.34668e-05
0.00190058
0.0932074
0.00112144
0.00104982
0.000944055
0.000859981
0.000792766
0.000736453
0.000708572
0.00069343
0.000666995
0.000657212
0.000668126
0.000680026
0.000695173
0.000728487
0.0007735
0.000815192
0.000861962
0.000925791
0.00102933
0.00115125
0.00123047
0.00125676
0.00127283
0.00117503
0.00141602
3.4681e-09
1.8224e-15
5.83072e-26
2.23658e-26
1.48698e-26
1.4898e-26
1.92981e-26
2.73302e-26
3.78971e-26
5.01871e-26
7.05154e-26
1.20196e-25
2.00939e-25
3.27603e-25
0.000298953
0.000119273
8.0808e-05
7.346e-05
0.000262627
0.000281021
0.000281833
0.00027936
0.000274581
0.000268141
0.000260123
0.000250803
0.00024082
0.000230601
0.00022103
0.000212458
0.000205194
0.000199595
0.000195237
0.000191158
0.00018784
0.000185327
0.000182413
0.000179451
0.000177241
0.000175211
0.000173118
0.000171033
0.000169039
0.000166947
0.000164936
0.000162842
0.000155452
0.000141053
0.000153086
0.000105747
6.34874e-05
0.0001311
0.00603058
4.27418e-05
9.68412e-05
0.000142149
0.000115656
0.000108799
0.00010336
9.93837e-05
9.83978e-05
9.58081e-05
9.52118e-05
9.82843e-05
0.00010169
0.000105821
0.000113263
0.000122951
0.000132662
0.000143829
0.000165833
6.11896e-05
0.000191968
0.000379756
0.000568444
0.000735889
0.000785309
0.00113404
1.55668e-08
8.77197e-15
1.18085e-25
3.67365e-26
2.01169e-26
1.68873e-26
1.87708e-26
2.37067e-26
3.06003e-26
3.86159e-26
5.17683e-26
8.19109e-26
1.27681e-25
1.82089e-25
7.55428e-05
0.000160246
0.000551612
0.000858082
0.000934397
0.000937675
0.000936404
0.00093441
0.000931234
0.000926671
0.000919413
0.000909901
0.000898389
0.000885568
0.000872601
0.000861098
0.000850493
0.000840356
0.000830441
0.000820301
0.000809415
0.000797575
0.000785215
0.00077292
0.000761017
0.000749414
0.000738135
0.000726955
0.000716285
0.00070573
0.000695605
0.000685529
0.000672594
0.000649843
0.00061826
0.000564558
0.00052675
0.000126101
0.00146979
0.000108201
8.30403e-05
8.44373e-05
8.9488e-05
9.70701e-05
0.000103855
0.000107466
0.000112187
0.000116533
0.000119638
0.000122985
0.000125855
0.000128358
0.0001308
0.00013285
0.000134781
4.54792e-07
1.28403e-05
2.01807e-05
2.17093e-05
6.67542e-05
0.00017074
0.000320766
0.000401978
0.00077383
6.52681e-08
3.91547e-14
2.50047e-25
6.41446e-26
2.93642e-26
2.09178e-26
2.01458e-26
2.2811e-26
2.74151e-26
3.31706e-26
4.22716e-26
6.19786e-26
9.0022e-26
1.17688e-25
0.000277512
0.000816942
0.000991458
0.000844015
0.000796229
0.000789604
0.000784032
0.000780162
0.000777737
0.000775941
0.000772688
0.000768778
0.000764193
0.000759955
0.000755985
0.000751813
0.000747206
0.000741982
0.000735879
0.000728589
0.000720132
0.000710899
0.000701179
0.000691353
0.000681762
0.000672252
0.000662862
0.000653485
0.000644542
0.000635979
0.000627784
0.000620226
0.000616123
0.000613514
0.00060787
0.000595018
0.000582131
0.000534738
5.97126e-05
0.000552754
0.000563867
0.000630273
0.000689444
0.000735514
0.000772293
0.000805042
0.000835239
0.000861354
0.000881817
0.000897008
0.000907613
0.000914144
0.000917511
0.00091815
0.000916962
0.000914069
0.000909026
0.000900142
0.000862404
0.000820486
0.00070766
0.000603992
0.000537368
0.000719595
3.52695e-07
3.59249e-19
1.78506e-21
1.18396e-25
4.58873e-26
2.80645e-26
2.36406e-26
2.41163e-26
2.69868e-26
3.13164e-26
3.79193e-26
5.13453e-26
8.14225e-26
1.0216e-25
0.000976974
0.000858764
0.000469192
0.000230181
0.000188108
0.000183659
0.000181315
0.000178546
0.000177124
0.000176944
0.000177696
0.000179051
0.000180731
0.000182569
0.000184327
0.000185859
0.000187009
0.000187705
0.00018778
0.000187234
0.000186163
0.000184635
0.000182739
0.000180802
0.000179055
0.000177398
0.000175837
0.00017435
0.000173088
0.000172113
0.000171307
0.000170404
0.000170825
0.000184921
0.000206418
0.0002328
0.00026709
0.000332462
0.000199809
0.000959508
0.000887172
0.000893818
0.000911197
0.000924209
0.00092769
0.000937764
0.000951101
0.000964142
0.000976062
0.000986858
0.000997587
0.00100898
0.00102084
0.00103342
0.00104666
0.00105881
0.00106916
0.00107632
0.00109795
0.00110337
0.00102933
0.000928324
0.000808797
0.00083339
2.00092e-06
9.59703e-17
4.11263e-19
2.30152e-25
7.63363e-26
4.04973e-26
3.00993e-26
2.77976e-26
2.89785e-26
3.21535e-26
3.71538e-26
5.92935e-26
6.92555e-25
1.20224e-23
0.000669767
0.000207999
9.27707e-05
3.36595e-05
2.81475e-05
2.82957e-05
2.82399e-05
2.75369e-05
2.70555e-05
2.68756e-05
2.66077e-05
2.64818e-05
2.66587e-05
2.69522e-05
2.74201e-05
2.80896e-05
2.88348e-05
2.9665e-05
3.05349e-05
3.13951e-05
3.22086e-05
3.29741e-05
3.36861e-05
3.43215e-05
3.48563e-05
3.53242e-05
3.5778e-05
3.62096e-05
3.6647e-05
3.71084e-05
3.75665e-05
3.79724e-05
3.86375e-05
4.24028e-05
4.79339e-05
5.4691e-05
6.45215e-05
3.99215e-05
8.26743e-05
0.00042442
0.000411562
0.000348507
0.000312481
0.000290428
0.000289085
0.000299105
0.000310989
0.000320467
0.000329498
0.000339196
0.000350598
0.000364291
0.000380414
0.00039919
0.000419926
0.000441455
0.000462188
0.000495142
0.000556808
0.000640953
0.000712326
0.000753329
0.000745552
0.000772901
8.19827e-06
1.30578e-15
4.8755e-18
4.70132e-25
1.34651e-25
6.25056e-26
4.1308e-26
3.47032e-26
3.3736e-26
3.57046e-26
4.01242e-26
4.59471e-24
7.77427e-19
3.97416e-17
2.82816e-05
3.11579e-05
2.9922e-05
4.27389e-05
4.51369e-05
4.69486e-05
4.73941e-05
4.66385e-05
4.57842e-05
4.5097e-05
4.39693e-05
4.29328e-05
4.23342e-05
4.18873e-05
4.17353e-05
4.19729e-05
4.2399e-05
4.30725e-05
4.39123e-05
4.48836e-05
4.59262e-05
4.70286e-05
4.81684e-05
4.92024e-05
5.00015e-05
5.06389e-05
5.12177e-05
5.17209e-05
5.2168e-05
5.25734e-05
5.28894e-05
5.3159e-05
5.33621e-05
5.25448e-05
4.98973e-05
4.52433e-05
3.89634e-05
4.25249e-05
4.32571e-05
5.69899e-05
5.61152e-05
5.0791e-05
4.39686e-05
4.14476e-05
4.19078e-05
4.28657e-05
4.47098e-05
4.62789e-05
4.7609e-05
4.94769e-05
5.16951e-05
5.43954e-05
5.77709e-05
6.17308e-05
6.62576e-05
7.11644e-05
7.61975e-05
8.35096e-05
9.75536e-05
1.74631e-05
0.000120737
0.000249377
0.000363773
0.000451522
2.09407e-05
1.06325e-14
3.48671e-17
1.00787e-24
2.51168e-25
1.02763e-25
6.07801e-26
4.66428e-26
4.23413e-26
4.26943e-26
1.11313e-25
2.0544e-19
4.331e-17
1.67685e-16
1.89774e-05
7.56402e-05
0.00021482
0.000304674
0.000314617
0.000318118
0.000318746
0.000318627
0.000318225
0.000317774
0.000317381
0.000316902
0.000316326
0.000315663
0.000314837
0.000313825
0.000312637
0.000311265
0.000309698
0.000307927
0.000305976
0.00030386
0.000301563
0.000299143
0.000296685
0.000294109
0.000291398
0.000288524
0.00028559
0.000282723
0.000279707
0.000276674
0.000273555
0.0002655
0.000248696
0.000222587
0.000189416
0.000158676
0.000111671
5.01981e-05
3.8584e-05
4.74201e-05
4.97237e-05
5.33454e-05
5.47712e-05
5.47791e-05
5.53934e-05
5.59082e-05
5.59855e-05
5.64577e-05
5.69121e-05
5.74123e-05
5.80787e-05
5.93083e-05
6.03961e-05
6.14534e-05
6.24451e-05
6.33393e-05
6.40572e-05
6.42258e-05
7.60264e-05
9.69617e-05
5.19526e-05
0.000133506
3.47594e-05
6.36202e-14
1.84465e-16
2.26631e-24
4.94599e-25
1.79409e-25
9.54712e-26
6.71444e-26
5.6979e-26
5.46994e-26
9.33658e-26
2.88765e-20
3.51371e-17
2.70547e-17
0.000120295
0.00041433
0.000536716
0.000526067
0.000520301
0.000518611
0.000515999
0.000513493
0.000511478
0.000509937
0.000508922
0.000508203
0.000507597
0.000507023
0.000506351
0.000505496
0.000504449
0.000503179
0.000501637
0.000499766
0.00049756
0.000495008
0.000492038
0.000488684
0.000485116
0.000481292
0.000477199
0.000472832
0.000468332
0.000463919
0.00045946
0.000454961
0.000450832
0.000445462
0.000434376
0.000415452
0.000391138
0.000353956
0.000282711
0.000277132
0.000293339
0.000337104
0.000367441
0.000389336
0.000394185
0.0004005
0.000405753
0.000410086
0.000413406
0.000415689
0.000417146
0.000417898
0.00041781
0.000421014
0.000422121
0.000422412
0.000421798
0.000420327
0.000417675
0.000392355
0.000344919
0.000297437
0.000246371
0.000189561
7.99098e-05
5.92126e-13
1.52655e-15
5.34426e-24
1.02691e-24
3.31828e-25
1.59532e-25
1.03066e-25
8.17944e-26
7.46345e-26
1.00829e-25
6.47719e-21
1.95581e-19
1.03739e-16
0.000558254
0.000530104
0.000355027
0.0002713
0.000260423
0.000257326
0.000255311
0.000253139
0.000251406
0.000250226
0.000249652
0.000249522
0.000249623
0.000249846
0.000250082
0.000250259
0.000250348
0.000250307
0.000250089
0.000249652
0.000248983
0.000248064
0.000246885
0.000245505
0.000244046
0.00024249
0.000240831
0.000239096
0.000237336
0.00023566
0.000234093
0.000232522
0.000231321
0.000233793
0.000241537
0.000252322
0.000265482
0.00027599
0.000259051
0.000573878
0.000535173
0.000546185
0.00055577
0.000560037
0.000562051
0.000563379
0.000564139
0.000565033
0.000566073
0.000566983
0.000567889
0.000568903
0.000569841
0.000570546
0.000571388
0.000572744
0.000574091
0.000575076
0.000578827
0.000577237
0.00056015
0.000519966
0.000456382
0.000368319
0.000211208
7.47246e-12
1.7209e-14
1.32141e-23
2.24605e-24
6.48931e-25
2.82744e-25
1.68045e-25
1.24678e-25
1.07903e-25
1.22507e-25
1.90099e-21
2.2317e-15
1.68848e-16
0.000439241
0.00019826
4.09826e-06
4.14456e-05
4.01766e-05
4.07775e-05
4.07336e-05
3.97259e-05
3.87344e-05
3.79573e-05
3.68429e-05
3.58439e-05
3.52455e-05
3.47737e-05
3.45906e-05
3.47832e-05
3.5196e-05
3.58657e-05
3.67445e-05
3.77906e-05
3.89443e-05
4.01894e-05
4.14921e-05
4.2692e-05
4.36417e-05
4.44463e-05
4.52103e-05
4.59331e-05
4.6616e-05
4.72723e-05
4.79112e-05
4.8505e-05
4.91421e-05
5.0528e-05
5.37014e-05
1.61817e-05
4.65002e-05
8.86225e-05
0.000128117
0.000297267
0.000283161
0.000260015
0.000247538
0.000236808
0.000228219
0.000222562
0.000218971
0.000217161
0.000216844
0.000217605
0.000219369
0.000222038
0.000225493
0.000229658
0.000234653
0.000240677
0.000247568
0.000255137
0.00026546
0.000289403
0.000325183
0.000352641
0.000374151
0.000360511
0.00031634
7.77843e-11
1.60639e-13
3.42493e-23
5.16965e-24
1.33941e-24
5.30088e-25
2.90017e-25
2.00987e-25
1.64543e-25
1.65665e-25
6.927e-22
3.02722e-17
6.08453e-17
6.14221e-05
3.44889e-05
6.21654e-07
2.92277e-06
3.24945e-06
3.65958e-06
4.07944e-06
4.16321e-06
4.07409e-06
3.95177e-06
3.77493e-06
3.60488e-06
3.49243e-06
3.40159e-06
3.3458e-06
3.33926e-06
3.36317e-06
3.4212e-06
3.51196e-06
3.62895e-06
3.76763e-06
3.92496e-06
4.10138e-06
4.27583e-06
4.41899e-06
4.53745e-06
4.64683e-06
4.74888e-06
4.84358e-06
4.93236e-06
5.01638e-06
5.09424e-06
5.14312e-06
5.05666e-06
4.1744e-06
6.21459e-06
1.21554e-05
2.04568e-05
1.00203e-05
4.10748e-05
3.97065e-05
3.89715e-05
3.56702e-05
3.45353e-05
3.37511e-05
3.23753e-05
3.17786e-05
3.14324e-05
3.1113e-05
3.12419e-05
3.15676e-05
3.20951e-05
3.29222e-05
3.39413e-05
3.5195e-05
3.67013e-05
3.84315e-05
4.03462e-05
4.27705e-05
4.86759e-05
1.32217e-05
6.7318e-05
0.000131796
0.000177716
0.000259844
6.49003e-10
1.20637e-12
9.30246e-23
1.25101e-23
2.9127e-24
1.04859e-24
5.28119e-25
3.41355e-25
2.63543e-25
2.41839e-25
2.95678e-22
8.83788e-18
1.29058e-16
8.42242e-06
1.42142e-05
3.53601e-05
1.99866e-05
2.18107e-05
2.39375e-05
2.65475e-05
2.76229e-05
2.76306e-05
2.73311e-05
2.69846e-05
2.66567e-05
2.64496e-05
2.63318e-05
2.62555e-05
2.62451e-05
2.62882e-05
2.63653e-05
2.64807e-05
2.66256e-05
2.67901e-05
2.69643e-05
2.71534e-05
2.73553e-05
2.75241e-05
2.762e-05
2.76587e-05
2.76591e-05
2.76248e-05
2.75675e-05
2.74978e-05
2.74147e-05
2.71989e-05
2.62996e-05
2.13685e-05
1.3336e-05
8.66323e-06
3.10719e-05
2.60301e-05
1.08509e-05
1.13228e-05
1.34918e-05
1.37344e-05
1.43995e-05
1.49418e-05
1.48403e-05
1.48536e-05
1.48125e-05
1.46297e-05
1.45614e-05
1.45015e-05
1.44604e-05
1.44974e-05
1.455e-05
1.46437e-05
1.47747e-05
1.49297e-05
1.50951e-05
1.5253e-05
1.52443e-05
1.5554e-05
2.26536e-05
2.99885e-05
4.28528e-05
0.000111504
3.84058e-09
6.44283e-12
2.64656e-22
3.17905e-23
6.66326e-24
2.18368e-24
1.01183e-24
6.08598e-25
4.41663e-25
3.74898e-25
1.42972e-22
8.15154e-19
2.21898e-17
4.37725e-05
0.000106953
0.000227394
0.000234497
0.000234985
0.000235379
0.000237969
0.000239015
0.000238346
0.000237316
0.000236627
0.00023629
0.000236209
0.000236272
0.000236363
0.000236448
0.000236494
0.00023646
0.000236327
0.000236067
0.000235675
0.000235164
0.000234532
0.000233779
0.000232934
0.000231964
0.000230855
0.000229633
0.00022829
0.000226861
0.000225411
0.000223938
0.000222344
0.000220733
0.000214086
0.000201623
0.000181804
0.000151382
0.000116023
8.12443e-05
8.35543e-05
9.31359e-05
9.88926e-05
0.000102609
0.000105093
0.000106307
0.000106794
0.000106954
0.000106837
0.000106567
0.000106255
0.000105906
0.000105519
0.000105072
0.000104607
0.000104194
0.000103791
0.000103389
0.00010288
0.000101343
8.77808e-05
7.39248e-05
4.91382e-05
1.8027e-05
6.82815e-05
3.45599e-08
5.84712e-11
7.88518e-22
8.47653e-23
1.60161e-23
4.77691e-24
2.03462e-24
1.13588e-24
7.72194e-25
6.0991e-25
7.65591e-23
1.42433e-19
3.72511e-18
0.000239439
0.000297724
0.000282759
0.00025896
0.00025336
0.000248386
0.000242517
0.000240781
0.000239199
0.000237867
0.000237284
0.000237272
0.000237497
0.000237808
0.000238116
0.000238349
0.00023849
0.000238514
0.000238396
0.00023811
0.000237661
0.00023707
0.000236324
0.000235422
0.000234452
0.000233429
0.000232316
0.00023113
0.000229845
0.000228472
0.000227095
0.000225734
0.000224268
0.00022364
0.000223734
0.000222378
0.000216026
0.000203679
0.000175411
0.000303297
0.000290293
0.000293905
0.000296857
0.000296989
0.000296073
0.000294664
0.000293067
0.000291723
0.000290611
0.000289721
0.000289126
0.000288741
0.000288465
0.000288195
0.00028797
0.000287907
0.000287814
0.000287482
0.000287067
0.000287144
0.000277607
0.000256751
0.000224521
0.000188917
0.000164224
5.62703e-07
1.24367e-10
4.51047e-13
2.37079e-22
4.04005e-23
1.09642e-23
4.28537e-24
2.21417e-24
1.40507e-24
1.03394e-24
4.49067e-23
3.01813e-20
7.52404e-19
0.000307568
0.000201407
8.58607e-05
6.47182e-05
5.76997e-05
5.26078e-05
6.30173e-05
6.70119e-05
6.79062e-05
6.77338e-05
6.74549e-05
6.72518e-05
6.7059e-05
6.6854e-05
6.6643e-05
6.6424e-05
6.6226e-05
6.60399e-05
6.58831e-05
6.57549e-05
6.56588e-05
6.56189e-05
6.5641e-05
6.57368e-05
6.58576e-05
6.60226e-05
6.61706e-05
6.63016e-05
6.63935e-05
6.64522e-05
6.64713e-05
6.64633e-05
6.63006e-05
6.66912e-05
7.35383e-05
8.41252e-05
9.54007e-05
0.00011281
0.000119333
0.000241391
0.000228415
0.000222097
0.000218562
0.000214958
0.000211533
0.000208954
0.000206989
0.0002056
0.000204819
0.000204458
0.000204449
0.000204743
0.000205226
0.000205824
0.00020658
0.000207567
0.000208645
0.0002097
0.000210755
0.000214425
0.000222656
0.000228117
0.000226456
0.000216293
0.000198193
4.56348e-06
3.06929e-09
1.01937e-11
6.94873e-22
1.06899e-22
2.63685e-23
9.44309e-24
4.50309e-24
2.65651e-24
1.81959e-24
2.9036e-23
7.39241e-21
2.77658e-17
8.92472e-05
2.45706e-06
1.36109e-05
1.00649e-05
9.12732e-06
8.52708e-06
1.02547e-05
1.06811e-05
1.05693e-05
1.03137e-05
9.89498e-06
9.48016e-06
9.16695e-06
8.86473e-06
8.64138e-06
8.53291e-06
8.49619e-06
8.55329e-06
8.69886e-06
8.9224e-06
9.21134e-06
9.56653e-06
9.98601e-06
1.04075e-05
1.07468e-05
1.10536e-05
1.13643e-05
1.16755e-05
1.19824e-05
1.22825e-05
1.25721e-05
1.28518e-05
1.30977e-05
1.34495e-05
1.5126e-05
1.76341e-05
2.07566e-05
9.05851e-06
3.79231e-05
3.0326e-05
4.30181e-05
3.41128e-05
2.99016e-05
2.7585e-05
2.6034e-05
2.48897e-05
2.42141e-05
2.38448e-05
2.37409e-05
2.38724e-05
2.41846e-05
2.46608e-05
2.5307e-05
2.60968e-05
2.70735e-05
2.82541e-05
2.96566e-05
3.12777e-05
3.28537e-05
3.53144e-05
4.76501e-05
6.95339e-05
9.4146e-05
0.000118063
0.000132729
1.73576e-05
3.75454e-08
1.17432e-10
2.13247e-21
2.96407e-22
6.64247e-23
2.17534e-23
9.54509e-24
5.21668e-24
3.318e-24
2.13471e-23
2.12909e-21
2.23022e-18
1.59249e-05
2.11955e-06
8.29019e-06
9.2261e-06
9.96617e-06
1.055e-05
9.99475e-06
9.67939e-06
9.51891e-06
8.74562e-06
8.03392e-06
7.5861e-06
7.29444e-06
7.03352e-06
6.84066e-06
6.7435e-06
6.70187e-06
6.73495e-06
6.83793e-06
7.00152e-06
7.21317e-06
7.47538e-06
7.78065e-06
8.07224e-06
8.28484e-06
8.46004e-06
8.63743e-06
8.81398e-06
8.98783e-06
9.15589e-06
9.31959e-06
9.48025e-06
9.6371e-06
9.79143e-06
9.52605e-06
8.44321e-06
6.5759e-06
6.64758e-06
1.04893e-05
4.30965e-06
6.19343e-06
5.24555e-06
4.40425e-06
4.10131e-06
3.91655e-06
3.66889e-06
3.54971e-06
3.4737e-06
3.41051e-06
3.41407e-06
3.44559e-06
3.50567e-06
3.6105e-06
3.74387e-06
3.91779e-06
4.13333e-06
4.39331e-06
4.69692e-06
5.00201e-06
5.44755e-06
7.4331e-06
1.09542e-05
1.58202e-05
9.24942e-06
3.46351e-05
2.83331e-05
2.48968e-07
6.62473e-11
3.69847e-13
8.6042e-22
1.75037e-22
5.23564e-23
2.10806e-23
1.06365e-23
6.26578e-24
1.88137e-23
7.59671e-22
3.5036e-19
1.17768e-05
1.29852e-05
5.50488e-05
6.12415e-05
6.50811e-05
6.73183e-05
6.36432e-05
6.30923e-05
6.37334e-05
6.00582e-05
5.75235e-05
5.68164e-05
5.66378e-05
5.66438e-05
5.66967e-05
5.67437e-05
5.67765e-05
5.67839e-05
5.67622e-05
5.67053e-05
5.66168e-05
5.64981e-05
5.63458e-05
5.61736e-05
5.60082e-05
5.58491e-05
5.56759e-05
5.5489e-05
5.52856e-05
5.50593e-05
5.48178e-05
5.45722e-05
5.43338e-05
5.41079e-05
5.16242e-05
4.48942e-05
3.43233e-05
2.40661e-05
1.12484e-05
2.45369e-05
1.54753e-05
1.6195e-05
1.53501e-05
1.53363e-05
1.5416e-05
1.50589e-05
1.49626e-05
1.48857e-05
1.4702e-05
1.46647e-05
1.46323e-05
1.46159e-05
1.46785e-05
1.47574e-05
1.48796e-05
1.50335e-05
1.52065e-05
1.53786e-05
1.55451e-05
1.5713e-05
1.54647e-05
1.41753e-05
1.20857e-05
1.13056e-05
1.43979e-05
6.55707e-06
7.77434e-07
1.58622e-09
8.6855e-12
2.61096e-21
4.82058e-22
1.31481e-22
4.84952e-23
2.25167e-23
1.22516e-23
2.05773e-23
3.50467e-22
7.45924e-20
7.62892e-05
0.000141433
0.000154489
0.000152808
0.00015367
0.000154439
0.000154498
0.000154251
0.00015534
0.000153327
0.000151608
0.000152541
0.000153084
0.000153439
0.000153675
0.000153834
0.000153952
0.000154045
0.000154119
0.000154175
0.000154216
0.000154245
0.000154252
0.000154219
0.00015415
0.00015403
0.000153824
0.000153543
0.000153192
0.000152752
0.000152248
0.000151692
0.000151124
0.000150659
0.000144726
0.000138973
0.000133682
0.000118373
9.45201e-05
0.000117892
0.000111282
0.000109092
0.000108178
0.000107257
0.000106751
0.000106698
0.000106856
0.000107224
0.000107693
0.000108172
0.000108638
0.000109049
0.000109389
0.000109666
0.000109917
0.000110172
0.000110378
0.000110466
0.000110474
0.00011055
0.00010799
9.84361e-05
8.3756e-05
6.75904e-05
5.37237e-05
3.71571e-05
4.75359e-06
3.77251e-08
1.02132e-11
8.47182e-14
1.38531e-21
3.44138e-22
1.16037e-22
4.94662e-23
2.47952e-23
2.73976e-23
2.09741e-22
2.08291e-20
0.000186873
0.000149806
0.000115553
0.000106423
0.000102584
0.000101453
0.000101076
0.000100904
0.000100861
0.000103049
0.000103855
0.000104293
0.000104588
0.000104814
0.000105003
0.000105167
0.000105304
0.000105441
0.000105561
0.000105665
0.00010575
0.000105823
0.000105866
0.000105857
0.000105799
0.000105707
0.000105567
0.00010538
0.000105161
0.000104896
0.000104609
0.000104281
0.000103936
0.000103756
0.000104646
0.000106827
0.000109752
0.000110627
0.00010239
0.000178556
0.00016321
0.000159492
0.000157258
0.000155542
0.000154363
0.000153852
0.000153652
0.000153683
0.000153867
0.000154086
0.000154316
0.000154524
0.000154683
0.000154818
0.000154987
0.000155234
0.000155488
0.000155647
0.000155759
0.000156328
0.000157109
0.000154219
0.00014651
0.000134477
0.000118308
9.42185e-05
2.92752e-05
5.64494e-07
1.48846e-09
1.17525e-11
4.14328e-21
9.36802e-22
2.88424e-22
1.1263e-22
5.18932e-23
4.24122e-23
1.60719e-22
7.50927e-21
0.000114437
4.50714e-05
1.70892e-05
1.16517e-05
8.82985e-06
8.02724e-06
7.92084e-06
7.80751e-06
7.67197e-06
7.53993e-06
7.3956e-06
7.25391e-06
7.11487e-06
6.98274e-06
6.85931e-06
6.74583e-06
6.64188e-06
6.54786e-06
6.4686e-06
6.40647e-06
6.36412e-06
6.35322e-06
6.37592e-06
6.43107e-06
6.50936e-06
6.60979e-06
6.72491e-06
6.84767e-06
6.974e-06
7.10261e-06
7.23145e-06
7.35544e-06
7.42662e-06
7.40315e-06
8.70238e-06
1.45333e-05
2.46384e-05
3.87911e-05
5.03382e-05
6.82149e-05
7.22519e-05
6.81483e-05
6.57721e-05
6.43809e-05
6.3499e-05
6.30331e-05
6.27454e-05
6.24926e-05
6.22806e-05
6.20786e-05
6.19044e-05
6.17595e-05
6.16482e-05
6.15889e-05
6.16162e-05
6.17605e-05
6.20003e-05
6.23064e-05
6.26671e-05
6.33388e-05
6.64627e-05
7.39986e-05
8.237e-05
8.92593e-05
9.25039e-05
9.05663e-05
6.18131e-05
3.54789e-06
2.75586e-08
5.2116e-12
5.85884e-14
2.6461e-21
7.43117e-22
2.65375e-22
1.12188e-22
7.31867e-23
1.55477e-22
3.46584e-21
2.3921e-05
6.51961e-06
2.72598e-06
1.89417e-06
1.48579e-06
1.37677e-06
1.35452e-06
1.28998e-06
1.21508e-06
1.16039e-06
1.08862e-06
1.01615e-06
9.55826e-07
8.97393e-07
8.49011e-07
8.15505e-07
7.90799e-07
7.78157e-07
7.77142e-07
7.87371e-07
8.07454e-07
8.39451e-07
8.83815e-07
9.32217e-07
9.73083e-07
1.01273e-06
1.0564e-06