/*--------------------------------*- C++ -*----------------------------------*\
| =========                 |                                                 |
| \\      /  F ield         | OpenFOAM: The Open Source CFD Toolbox           |
|  \\    /   O peration     | Version:  2312                                  |
|   \\  /    A nd           | Website:  www.openfoam.com                      |
|    \\/     M anipulation  |                                                 |
\*---------------------------------------------------------------------------*/
FoamFile
{
    version     2.0;
    format      ascii;
    arch        "LSB;label=32;scalar=64";
    class       volScalarField;
    location    "350";
    object      p;
}
// * * * * * * * * * * * * * * * * * * * * * * * * * * * * * * * * * * * * * //

dimensions      [0 2 -2 0 0 0 0];

internalField   nonuniform List<scalar> 
10720
(
-1.4707
-67.6255
-146.13
-224.607
-298.376
-374.221
-442.458
-500.796
-552.298
-593.593
-626.196
-651.012
-668.929
-681.166
-687.918
-688.757
-684.597
-674.497
-659.667
-639.121
-614.004
-583.309
-546.998
-502.659
-448.288
-401.204
-370.915
-320.73
-262.455
-224.434
-190.697
-149.628
-101.184
-53.3226
-22.4562
-16.1444
-14.5571
-44.1563
-121.705
63.7725
122.67
184.135
240.246
286.469
318.812
334.302
336.685
328.764
309.423
284.137
258.09
232.822
208.827
186.703
166.125
147.033
128.91
111.455
94.1068
76.7839
59.1676
41.3902
23.9137
8.64444
-3.22327
-12.797
-20.6407
-26.8486
-31.3566
-34.2378
-35.6461
-35.7718
-34.7633
-32.8589
-30.1535
-27.0424
-22.5872
-14.8083
85.3331
35.6371
-20.6985
-81.289
-144.159
-209.047
-272.619
-332.854
-389.006
-439.311
-483.312
-520.957
-552.316
-577.342
-595.99
-607.799
-613.433
-612.795
-606.693
-594.828
-577.708
-554.245
-523.191
-480.86
-429.593
-382.442
-342.184
-306.732
-272.037
-234.659
-194.038
-150.301
-101.533
-53.6913
-22.3734
-16.3647
-14.6968
-45.8547
-124.219
129.639
171.521
212.781
251.796
285.054
309.959
323.812
327.116
320.456
304.766
283.979
261.314
238.208
215.426
193.63
172.959
153.451
134.836
116.851
99.1327
81.5705
63.923
46.2623
29.0663
13.8744
1.60697
-8.52593
-16.9111
-23.5715
-28.4744
-31.7162
-33.4719
-33.9266
-33.222
-31.5865
-29.0769
-26.1837
-20.331
-12.0274
94.5364
50.0237
-0.687644
-57.2197
-116.356
-177.511
-239.19
-298.864
-354.976
-406.484
-452.111
-491.444
-524.027
-549.701
-568.82
-581.658
-588.437
-589.114
-584.023
-573.075
-556.393
-533.427
-503.671
-465.076
-419.383
-374.876
-334.938
-303.078
-270.753
-233.055
-192.165
-148.867
-101.646
-54.9813
-22.5463
-16.898
-14.5669
-47.3092
-123.914
134.297
172.477
209.959
244.808
273.977
295.878
308.908
313.091
308.6
296.399
279.007
258.771
237.267
215.516
194.263
173.864
154.426
135.832
117.878
100.263
82.8261
65.4216
48.1076
31.2519
16.0862
3.52482
-6.86189
-15.4523
-22.2821
-27.343
-30.7377
-32.632
-33.2017
-32.5871
-31.001
-28.5173
-25.3806
-19.4967
-10.2811
110.316
73.12
30.1832
-17.501
-67.9508
-121.154
-175.569
-229.51
-281.702
-331.009
-376.311
-416.892
-452.18
-481.913
-505.919
-524.378
-537.041
-543.627
-544.143
-538.5
-526.616
-508.082
-482.567
-448.913
-408.778
-367.722
-331.546
-300.318
-267.388
-230.252
-190.317
-147.892
-102.052
-56.7751
-23.6485
-18.0242
-14.4607
-48.5958
-122.775
143.331
174.732
205.88
235.403
260.487
279.882
292.244
297.153
294.565
285.305
271.128
253.838
234.803
215.009
195.18
175.736
156.878
138.618
120.838
103.343
86.0079
68.7469
51.6147
34.9733
19.8363
7.06115
-3.56574
-12.4029
-19.502
-24.8512
-28.5477
-30.7292
-31.5649
-31.1887
-29.8026
-27.4553
-24.3483
-18.4231
-7.35249
112.505
79.509
41.2442
-1.53959
-46.908
-95.2912
-145.423
-195.781
-245.406
-293.18
-337.984
-379.017
-415.571
-447.095
-473.222
-493.79
-508.377
-516.933
-519.339
-515.603
-505.636
-489.221
-466.094
-435.596
-398.832
-360.482
-325.983
-295.012
-262.653
-226.792
-188.034
-146.717
-102.251
-58.5191
-25.4993
-19.6023
-14.5116
-50.0482
-121.769
141.854
169.629
197.281
223.523
245.892
263.53
275.375
280.83
279.79
272.958
261.565
246.975
230.296
212.417
194.038
175.62
157.44
139.615
122.123
104.861
87.7455
70.7308
53.8886
37.55
22.5391
9.63713
-1.20477
-10.2728
-17.615
-23.2133
-27.1452
-29.538
-30.5547
-30.3288
-29.0527
-26.765
-23.6196
-17.696
-6.48692
112.791
83.6626
49.7135
11.7825
-28.4251
-71.607
-116.594
-162.178
-207.667
-252.055
-294.404
-333.959
-369.973
-401.813
-429.013
-451.225
-468.136
-479.558
-485.23
-484.954
-478.5
-465.612
-446.035
-419.416
-386.745
-351.776
-319.105
-288.939
-257.606
-222.995
-185.334
-145.202
-102.275
-60.2096
-27.8146
-21.3106
-14.7384
-51.8628
-122.012
138.718
163.173
187.712
211.195
231.36
247.59
258.966
264.789
264.943
260.037
250.97
238.795
224.39
208.514
191.802
174.696
157.502
140.397
123.434
106.586
89.8178
73.1266
56.6017
40.5545
25.6803
12.6891
1.66258
-7.60699
-15.167
-20.9988
-25.1656
-27.7925
-29.0314
-29.0087
-27.901
-25.7369
-22.6156
-16.7398
-7.0919
110.031
83.8238
53.1952
18.952
-17.2577
-56.3438
-97.2753
-138.998
-181.057
-222.569
-262.725
-300.857
-336.215
-368.132
-396.067
-419.549
-438.149
-451.441
-459.088
-460.835
-456.481
-445.847
-428.779
-405.161
-375.825
-343.703
-312.692
-283.388
-252.937
-219.383
-182.771
-143.829
-102.45
-61.9726
-30.4577
-23.0967
-15.4576
-53.8068
-123.191
133.395
155.365
177.538
198.869
217.287
232.383
243.315
249.35
250.428
247.042
239.891
229.8
217.462
203.498
188.454
172.727
156.619
140.346
124.016
107.667
91.3149
74.9992
58.8276
43.096
28.4009
15.3853
4.22115
-5.2231
-12.9865
-19.0463
-23.4509
-26.3079
-27.7566
-27.9147
-26.9478
-24.8745
-21.7596
-15.9428
-7.13022
106.121
82.3952
54.6122
23.5871
-9.11649
-44.5224
-81.6858
-119.689
-158.242
-196.594
-234.053
-270.062
-303.933
-335.021
-362.752
-386.6
-406.043
-420.676
-430.128
-434.058
-432.165
-424.215
-410.043
-389.627
-363.66
-334.477
-305.4
-277.229
-247.804
-215.442
-180.041
-142.386
-102.609
-63.7291
-33.2455
-25.001
-16.9106
-55.355
-123.018
127.312
147.197
167.395
186.935
203.901
218.037
228.537
234.674
236.446
234.251
228.657
220.335
209.83
197.641
184.227
169.919
155
139.693
124.138
108.419
92.5965
76.7423
60.9835
45.6034
31.1306
18.1492
6.89314
-2.69491
-10.6372
-16.9051
-21.5309
-24.6073
-26.2637
-26.6121
-25.803
-23.8459
-20.7669
-15.0587
-6.60506
101.386
79.7154
54.3194
25.9882
-3.77301
-36.0443
-69.9737
-104.733
-140.166
-175.624
-210.529
-244.434
-276.718
-306.781
-334.063
-358.008
-378.06
-393.749
-404.607
-410.198
-410.169
-404.308
-392.493
-374.779
-351.746
-325.236
-298.025
-271
-242.6
-211.433
-177.262
-140.898
-102.692
-65.42
-36.0276
-27.0685
-19.0439
-55.5496
-120.764
120.771
138.941
157.499
175.535
191.271
204.571
214.654
220.818
223.099
221.837
217.506
210.665
201.754
191.171
179.29
166.377
152.679
138.407
123.712
108.708
93.4892
78.1568
62.8532
47.8546
33.6396
20.743
9.43916
-0.262092
-8.36106
-14.822
-19.6613
-22.956
-24.8206
-25.3574
-24.7018
-22.8553
-19.8125
-14.2195
-5.86409
96.2874
76.378
53.0414
27.0433
-0.172456
-29.7051
-60.7634
-92.5985
-125.15
-157.849
-190.223
-221.915
-252.378
-281.085
-307.503
-331.071
-351.235
-367.474
-379.32
-386.31
-388.017
-384.198
-374.713
-359.631
-339.421
-315.522
-290.243
-264.5
-237.221
-207.296
-174.403
-139.365
-102.714
-67.0443
-38.7403
-29.2766
-21.5653
-54.5761
-117.773
114.128
130.839
147.994
164.739
179.414
191.966
201.647
207.781
210.43
209.897
206.588
200.978
193.435
184.279
173.808
162.232
149.753
136.556
122.789
108.579
94.0403
79.2961
64.5016
49.9262
36.0127
23.2566
11.9566
2.18006
-6.04664
-12.6785
-17.7161
-21.218
-23.2846
-24.0094
-23.5115
-21.7848
-18.7954
-13.326
-5.03883
91.0364
72.6485
51.0939
27.1147
2.10567
-25.0398
-53.5787
-82.8282
-112.782
-142.95
-172.947
-202.498
-231.124
-258.365
-283.738
-306.713
-326.736
-343.283
-355.839
-363.934
-367.061
-364.961
-357.501
-344.745
-327.072
-305.591
-282.208
-257.808
-231.697
-203.036
-171.456
-137.78
-102.678
-68.5976
-41.3595
-31.5424
-24.2152
-53.7071
-113.535
107.546
123
138.939
154.56
168.308
180.178
189.465
195.534
198.445
198.479
195.993
191.405
185.029
177.122
167.928
157.604
146.307
134.19
121.387
108.023
94.2241
80.1239
65.8842
51.7685
38.1958
25.6294
14.3808
4.56542
-3.76184
-10.5441
-15.766
-19.4676
-21.7327
-22.6442
-22.3041
-20.699
-17.7703
-12.4236
-4.18337
85.7914
68.739
48.7467
26.5387
3.46154
-21.5809
-47.8855
-74.8213
-102.427
-130.27
-158.033
-185.513
-212.296
-237.992
-262.166
-284.324
-303.943
-320.503
-333.471
-342.389
-346.709
-346.138
-340.526
-329.917
-314.596
-295.406
-273.905
-250.914
-226.028
-198.658
-168.425
-136.139
-102.58
-70.0697
-43.875
-33.7712
-26.8416
-52.8059
-107.527
101.137
115.492
130.362
144.989
157.915
169.159
178.063
184.036
187.125
187.6
185.779
182.037
176.647
169.826
161.774
152.602
142.428
131.373
119.546
107.064
94.0498
80.642
67.0011
53.3848
40.1938
27.8665
16.7193
6.90565
-1.49009
-8.39768
-13.7852
-17.6739
-20.1299
-21.2247
-21.0432
-19.5649
-16.7084
-11.4899
-3.31796
80.6465
64.7733
46.1628
25.521
4.14901
-19.0303
-43.3489
-68.2155
-93.7047
-119.431
-145.128
-170.651
-195.645
-219.784
-242.688
-263.907
-282.953
-299.324
-312.489
-321.992
-327.275
-327.997
-324
-315.305
-302.114
-285.054
-265.385
-243.84
-220.221
-194.165
-165.306
-134.434
-102.412
-71.449
-46.285
-35.8959
-29.3465
-51.4752
-100.185
94.9599
108.347
122.262
136
148.187
158.856
167.391
173.242
176.446
177.26
175.975
172.931
168.374
162.493
155.448
147.323
138.2
128.167
117.31
105.724
93.5249
80.8447
67.8402
54.7602
41.9897
29.947
18.9488
9.17777
0.745833
-6.26114
-11.7952
-15.8581
-18.4973
-19.7717
-19.7488
-18.4003
-15.6253
-10.5395
-2.4708
75.6569
60.8341
43.4575
24.2138
4.36055
-17.1564
-39.7
-62.7091
-86.288
-110.086
-133.877
-157.563
-180.844
-203.445
-225.044
-245.239
-263.575
-279.583
-292.748
-302.615
-308.652
-310.465
-307.884
-300.903
-289.649
-274.571
-256.677
-236.599
-214.284
-189.561
-162.097
-132.657
-102.163
-72.7219
-48.5851
-37.8886
-31.66
-49.7869
-92.222
89.0472
101.569
114.631
127.565
139.081
149.216
157.397
163.108
166.376
167.451
166.597
164.129
160.275
155.199
149.041
141.857
133.704
124.641
114.727
104.035
92.6655
80.7385
68.4013
55.8908
43.5772
31.8625
21.06
11.3734
2.94
-4.13801
-9.79648
-14.018
-16.8305
-18.2788
-18.4135
-17.1982
-14.5153
-9.56956
-1.64397
70.8531
56.9741
40.7074
22.722
4.22992
-15.7956
-36.7418
-58.0805
-79.9297
-101.969
-124.008
-145.984
-167.644
-188.761
-209.058
-228.182
-245.721
-261.24
-274.251
-284.304
-290.903
-293.612
-292.248
-286.778
-277.266
-264.018
-247.825
-229.215
-208.228
-184.85
-158.796
-130.801
-101.825
-73.8752
-50.7629
-39.7494
-33.7469
-47.9719
-84.1544
83.4133
95.1559
107.446
119.652
130.552
140.191
148.032
153.59
156.884
158.154
157.647
155.654
152.392
148.008
142.624
136.282
129.015
120.859
111.848
102.032
91.4925
80.3334
68.6868
56.7732
44.9488
33.602
23.0393
13.4787
5.07921
-2.04029
-7.79976
-12.1627
-15.1374
-16.7528
-17.0437
-15.9643
-13.3833
-8.58596
-0.838967
66.2529
53.2285
37.9676
21.1225
3.85792
-14.8193
-34.3217
-54.1499
-74.4299
-94.8661
-115.299
-135.691
-155.826
-175.521
-194.541
-212.578
-229.264
-244.2
-256.931
-267.017
-274.006
-277.437
-277.106
-272.958
-265.006
-253.438
-238.864
-221.708
-202.064
-180.038
-155.402
-128.86
-101.39
-74.8964
-52.8004
-41.4888
-35.5985
-46.1774
-76.3107
78.0619
89.1006
100.69
112.23
122.561
131.735
139.252
144.647
147.936
149.35
149.122
147.522
144.757
140.966
136.258
130.662
124.197
116.879
108.721
99.7529
90.0318
79.6434
68.7012
57.407
46.1014
35.1582
24.8764
15.4824
7.15306
0.0229814
-5.81214
-10.2974
-13.4212
-15.1957
-15.64
-14.6987
-12.2297
-7.5902
-0.0555944
61.8678
49.6202
35.2761
19.4706
3.31916
-14.1329
-32.326
-50.7819
-69.634
-88.6096
-107.568
-126.493
-145.203
-163.548
-181.335
-198.294
-214.097
-228.387
-240.741
-250.739
-257.966
-261.959
-262.491
-259.486
-252.918
-242.883
-229.836
-214.105
-195.804
-175.13
-151.915
-126.828
-100.848
-75.7746
-54.6792
-43.115
-37.2184
-44.4776
-68.9152
72.9914
83.3911
94.3386
105.267
115.071
123.807
131.014
136.241
139.5
141.018
141.011
139.735
137.391
134.108
129.987
125.05
119.306
112.757
105.398
97.237
88.3123
78.6875
68.455
57.7955
47.032
36.5244
26.5615
17.3732
9.1501
2.04118
-3.84295
-8.42975
-11.688
-13.6122
-14.2064
-13.4049
-11.0573
-6.58582
0.705424
57.7025
46.1646
32.6629
17.8063
2.67202
-13.6649
-30.663
-47.8696
-65.4187
-83.0577
-100.662
-118.234
-135.616
-152.692
-169.297
-185.2
-200.114
-213.715
-225.618
-235.429
-242.765
-247.178
-248.418
-246.391
-241.042
-232.398
-220.781
-206.43
-189.463
-170.136
-148.335
-124.697
-100.19
-76.5002
-56.3832
-44.6272
-38.6133
-42.9179
-62.1141
68.1974
78.0128
88.3707
98.7336
108.047
116.371
123.28
128.334
131.547
133.136
133.305
132.297
130.307
127.459
123.847
119.491
114.392
108.542
101.921
94.5228
86.3638
77.4864
67.9612
57.9451
47.7418
37.6966
28.0865
19.141
11.0596
4.00409
-1.9013
-6.56729
-9.94375
-12.0068
-12.7462
-12.0853
-9.8684
-5.5755
1.44442
53.7572
42.8723
30.1446
16.1615
1.95667
-13.3576
-29.2632
-45.3263
-61.685
-78.0993
-94.4604
-110.783
-126.933
-142.816
-158.298
-173.179
-187.21
-200.101
-211.503
-221.051
-228.386
-233.094
-234.902
-233.701
-229.417
-222.024
-211.735
-198.712
-183.057
-165.062
-144.664
-122.465
-99.4069
-77.064
-57.8991
-46.0187
-39.7927
-41.5213
-55.9801
63.6735
72.9514
82.7651
92.6032
101.457
109.393
116.015
120.896
124.047
125.68
125.988
125.203
123.512
121.037
117.867
114.021
109.496
104.276
98.3348
91.6487
84.2176
76.0634
67.2343
57.864
48.2346
38.6735
29.4458
20.777
12.8717
5.90154
0.00342218
-4.71826
-8.1952
-10.3852
-11.2636
-10.7436
-8.66581
-4.56247
2.16148
50.0305
39.7487
27.7353
14.5569
1.20724
-13.1686
-28.0703
-43.0862
-58.3528
-73.6434
-88.8599
-104.03
-119.035
-133.802
-148.223
-162.125
-175.292
-187.466
-198.334
-207.559
-214.804
-219.699
-221.95
-221.438
-218.075
-211.8
-202.738
-190.979
-176.605
-159.92
-140.906
-120.126
-98.4914
-77.4571
-59.2176
-47.2791
-40.7682
-40.2881
-50.5235
59.4112
68.1929
77.5016
86.8501
95.2726
102.841
109.187
113.895
116.975
118.632
119.05
118.448
117.01
114.855
112.068
108.669
104.653
100.001
94.6777
88.6512
81.9056
74.4444
66.2944
57.5656
48.5162
39.4556
30.6354
22.2738
14.577
7.72398
1.86181
-2.89106
-6.44944
-8.75302
-9.76349
-9.38374
-7.45265
-3.54972
2.85646
46.5179
36.7953
25.4442
13.0102
0.448353
-13.0621
-27.0404
-41.0932
-55.3558
-69.6131
-83.778
-97.8832
-111.829
-125.555
-138.977
-151.946
-164.275
-175.737
-186.049
-194.907
-201.994
-206.982
-209.566
-209.617
-207.047
-201.764
-193.825
-183.261
-170.127
-154.722
-137.064
-117.679
-97.437
-77.6718
-60.3314
-48.3977
-41.553
-39.2035
-45.7176
55.4023
63.7225
72.5601
81.4499
89.4674
96.6878
102.769
107.306
110.307
111.971
112.473
112.023
110.799
108.919
106.465
103.457
99.8911
95.7468
90.9848
85.5648
79.4592
72.6561
65.1626
57.0639
48.5949
40.046
31.6534
23.6259
16.1678
9.46214
3.6646
-1.09436
-4.71406
-7.11692
-8.25107
-8.01009
-6.2324
-2.54025
3.52973
43.214
34.0116
23.2754
11.5327
-0.299925
-13.0108
-26.1363
-39.302
-52.6382
-65.9446
-79.1402
-92.2643
-105.228
-117.986
-130.471
-142.556
-154.079
-164.841
-174.59
-183.049
-189.924
-194.927
-197.748
-198.253
-196.355
-191.947
-185.03
-175.586
-163.642
-149.48
-133.147
-115.125
-96.2386
-77.7016
-61.2349
-49.3648
-42.1615
-38.2479
-41.5209
51.6356
59.5255
67.9215
76.3805
84.0163
90.9075
96.7332
101.101
104.017
105.676
106.243
105.918
104.877
103.232
101.067
98.4022
95.2344
91.5429
87.2869
82.4212
76.9091
70.7253
63.8596
56.3749
48.4819
40.4504
32.5003
24.8296
17.6372
11.1076
5.40274
0.663026
-2.99706
-5.48387
-6.73221
-6.62756
-5.00884
-1.53715
4.18183
40.1116
31.3944
21.2319
10.1329
-1.02472
-12.9932
-25.3299
-37.6755
-50.158
-62.5859
-74.8877
-87.1048
-99.1593
-111.018
-122.627
-133.878
-144.632
-154.714
-163.9
-171.941
-178.563
-183.515
-186.491
-187.356
-186.021
-182.378
-176.384
-167.984
-157.174
-144.21
-129.16
-112.463
-94.8924
-77.5409
-61.9243
-50.1726
-42.6084
-37.4021
-37.888
48.1
55.5885
63.5694
71.6217
78.8975
85.4758
91.0559
95.2578
98.0851
99.7278
100.343
100.123
99.2368
97.7967
95.8821
93.5172
90.7006
87.4119
83.6105
79.2488
74.2837
68.6787
62.409
55.5173
48.1901
40.6761
33.1788
25.8825
18.9796
12.6528
7.06754
2.37224
-1.30661
-3.86121
-5.21321
-5.24148
-3.786
-0.543355
4.81303
37.2027
28.9395
19.3131
8.81521
-1.71419
-12.9933
-24.598
-36.1844
-47.8767
-59.4946
-70.971
-82.3504
-93.563
-104.585
-115.377
-125.844
-135.868
-145.294
-153.924
-161.535
-167.877
-172.724
-175.787
-176.927
-176.061
-173.083
-167.918
-160.481
-150.743
-138.927
-125.113
-109.696
-93.3968
-77.1871
-62.3971
-50.8151
-42.9084
-36.6499
-34.7739
44.7849
51.8962
59.4868
67.1552
74.09
80.37
85.7137
89.7526
92.4902
94.1093
94.7604
94.6258
93.8721
92.6081
90.9124
88.8109
86.3039
83.3732
79.9794
76.0739
71.6095
66.542
60.8343
54.5103
47.734
40.7326
33.6926
26.7849
20.1914
14.091
8.651
4.02485
0.348621
-2.25686
-3.7009
-3.8576
-2.56823
0.43825
5.42397
34.4782
26.6412
17.5172
7.58156
-2.36139
-12.9986
-23.9222
-34.804
-45.7648
-56.6328
-67.3459
-77.9503
-88.3844
-98.6321
-108.661
-118.393
-127.726
-136.525
-144.613
-151.791
-157.834
-162.533
-165.626
-166.97
-166.488
-164.082
-159.657
-153.103
-144.371
-133.647
-121.015
-106.829
-91.7519
-76.6387
-62.6535
-51.288
-43.0756
-35.977
-32.1362
41.679
48.4359
55.6577
62.9618
69.5731
75.5692
80.6861
84.5668
87.2131
88.8023
89.4782
89.4151
88.775
87.664
86.1593
84.289
82.0553
79.4423
76.4126
72.9187
68.9109
64.3392
59.1573
53.3735
47.1291
40.6313
34.0487
27.5381
21.27
15.4174
10.1458
5.61234
1.96045
-0.678601
-2.20255
-2.48196
-1.3601
1.40478
6.01505
31.9292
24.4932
15.8409
6.43243
-2.96227
-13.0002
-23.2891
-33.5158
-43.7975
-53.9702
-63.9773
-73.8644
-83.5771
-93.1064
-102.426
-111.471
-120.153
-128.354
-135.918
-142.667
-148.397
-152.919
-155.995
-157.482
-157.311
-155.393
-151.622
-145.872
-138.077
-128.384
-116.878
-103.868
-89.9596
-75.898
-62.6944
-51.5897
-43.123
-35.3714
-29.9342
38.7711
45.1935
52.0666
59.0245
65.3285
71.0548
75.9534
79.6805
82.2357
83.7907
84.4829
84.479
83.9365
82.9587
81.6215
79.9542
77.9619
75.6308
72.9265
69.8029
66.2097
62.0932
57.4003
52.126
46.3921
40.3843
34.2549
28.1456
22.215
16.6276
11.5457
7.12712
3.52064
0.865542
-0.725619
-1.12094
-0.166439
2.35339
6.58689
29.5471
22.4883
14.2804
5.36709
-3.51383
-12.991
-22.6874
-32.3039
-41.9539
-51.4811
-60.834
-70.0571
-79.1025
-87.9648
-96.626
-105.029
-113.099
-120.733
-127.793
-134.122
-139.533
-143.856
-146.878
-148.456
-148.532
-147.028
-143.833
-138.811
-131.881
-123.155
-112.712
-100.821
-88.0247
-74.9675
-62.5248
-51.7198
-43.0623
-34.8231
-28.1287
36.0497
42.1562
48.6991
55.3287
61.3401
66.8095
71.4983
75.0762
77.541
79.0587
79.7603
79.8056
79.3471
78.4857
77.296
75.8081
74.0295
71.9488
69.5346
66.7431
63.5249
59.8247
55.5844
50.7885
45.54
40.0054
34.3204
28.6127
23.0273
17.7192
12.8451
8.56205
5.02108
2.36745
0.722385
0.218852
1.00791
3.28108
7.13986
27.3224
20.6199
12.8304
4.38399
-4.01513
-12.9665
-22.1085
-31.1562
-40.2176
-49.145
-57.8906
-66.4988
-74.9252
-83.1697
-91.2184
-99.0229
-106.52
-113.619
-120.198
-126.118
-131.211
-135.319
-138.258
-139.885
-140.152
-138.996
-136.304
-131.936
-125.799
-117.975
-108.53
-97.6959
-85.9542
-73.8541
-62.1502
-51.6811
-42.9041
-34.3228
-26.6794
33.5041
39.3119
45.5419
51.8593
57.5923
62.8167
67.3043
70.7375
73.1131
74.5915
75.2974
75.3836
74.9981
74.2389
73.1792
71.8499
70.2605
68.4023
66.2468
63.753
60.8731
57.5524
53.7291
49.3791
44.5893
39.5081
34.2557
28.9454
23.7091
18.6907
14.0403
9.91065
6.45409
3.81932
2.13377
1.53087
2.15786
4.18522
7.67429
25.2462
18.8804
11.4863
3.48015
-4.46601
-12.924
-21.5462
-30.062
-38.5746
-46.9439
-55.1247
-63.1622
-71.0153
-78.6862
-86.1664
-93.4145
-100.376
-106.971
-113.094
-118.618
-123.396
-127.282
-130.115
-131.758
-132.171
-131.303
-129.046
-125.261
-119.848
-112.857
-104.345
-94.5041
-83.7561
-72.5667
-61.5794
-51.4778
-42.656
-33.8627
-25.5438
31.1241
36.6488
42.5818
48.6022
54.0705
59.0609
63.3558
66.6492
68.9374
70.375
71.081
71.2013
70.8795
70.2107
69.2656
68.0772
66.6558
64.9955
63.0708
60.8437
58.269
55.2924
51.8512
47.9151
43.5564
38.9067
34.0719
29.1516
24.2643
19.5425
15.1277
11.1678
7.8129
5.21336
3.50099
2.80832
3.27836
5.06281
8.19032
23.31
17.2626
10.2427
2.65223
-4.86724
-12.8608
-20.9955
-29.0131
-37.013
-44.8618
-52.5177
-60.0248
-67.3459
-74.4851
-81.4375
-88.1677
-94.629
-100.752
-106.442
-111.589
-116.059
-119.72
-122.431
-124.062
-124.58
-123.949
-122.068
-118.799
-114.04
-107.816
-100.169
-91.2566
-81.4421
-71.1154
-60.8231
-51.1161
-42.326
-33.4349
-24.679
28.8999
34.1558
39.8069
45.5451
50.7612
55.5283
59.6386
62.797
65
66.396
67.0989
67.2479
66.9815
66.393
65.5503
64.4871
63.2155
61.7311
60.0122
58.0239
55.7235
53.0586
49.9667
46.4129
42.457
38.2154
33.7807
29.2396
24.6978
20.276
16.106
12.3288
9.09121
6.54231
4.81665
4.04453
4.36425
5.91115
8.68779
21.5055
15.7599
9.09413
1.89689
-5.22032
-12.7767
-20.4531
-28.0038
-35.5241
-42.8873
-50.0541
-57.068
-63.8951
-70.5406
-77.003
-83.2519
-89.2473
-94.9279
-100.211
-104.997
-109.169
-112.605
-115.184
-116.781
-117.373
-116.934
-115.373
-112.559
-108.388
-102.864
-96.015
-87.9658
-79.0244
-69.5139
-59.8934
-50.6045
-41.9193
-33.0324
-24.0442
26.822
31.8232
37.2061
42.676
47.6517
52.2057
56.1389
59.168
61.2881
62.6425
63.3395
63.5126
63.2954
62.778
62.0267
61.0752
59.9372
58.61
57.0748
55.3002
53.2463
50.8631
48.0893
44.8871
41.3058
37.4479
33.3937
29.2187
25.0158
20.8937
16.9742
13.3905
10.2837
7.79974
6.07386
5.23324
5.4107
6.72739
9.16641
19.825
14.3654
8.03546
1.21033
-5.52721
-12.6714
-19.9165
-27.0293
-34.1005
-41.0097
-47.7207
-54.2754
-60.6431
-66.8302
-72.8377
-78.6394
-84.2007
-89.4683
-94.3685
-98.8142
-102.699
-105.915
-108.353
-109.9
-110.539
-110.254
-108.965
-106.548
-102.902
-98.0129
-91.8955
-84.6456
-76.5171
-67.7762
-58.8043
-49.9529
-41.4406
-32.6479
-23.599
24.8818
29.6411
34.7691
39.9833
44.7304
49.0809
52.8447
55.7495
57.7892
59.1024
59.7919
59.9855
59.8118
59.3578
58.6884
57.8372
56.8184
55.6318
54.2608
52.6773
50.8447
48.7155
46.2309
43.3511
40.1165
36.6173
32.9231
29.0984
25.2249
21.3993
17.7334
14.3508
11.3858
8.97977
7.26624
6.3683
6.41292
7.50887
9.62571
18.261
13.0727
7.06151
0.58883
-5.78991
-12.545
-19.3839
-26.085
-32.7351
-39.2195
-45.5053
-51.6323
-57.5728
-63.3344
-68.9192
-74.3054
-79.4627
-84.345
-88.8868
-93.0104
-96.6218
-99.6217
-101.917
-103.403
-104.066
-103.902
-102.842
-100.77
-97.5901
-93.2735
-87.8233
-81.309
-73.9356
-65.9185
-57.5713
-49.1715
-40.8941
-32.2739
-23.3051
23.071
27.6006
32.4861
37.457
41.9862
46.1427
49.7446
52.5297
54.4922
55.7647
56.4454
56.6562
56.5211
56.1246
55.5286
54.7673
53.8556
52.7945
51.5705
50.1582
48.524
46.6239
44.4012
41.8162
38.9013
35.7357
32.3798
28.8886
25.3326
21.7978
18.385
15.2084
12.3943
10.0773
8.38789
7.44406
7.36642
8.25286
10.0648
16.8065
11.8759
6.16729
0.0286696
-6.01066
-12.3985
-18.8544
-25.1683
-31.4228
-37.5097
-43.3979
-49.1261
-54.6688
-60.0347
-65.2274
-70.2276
-75.0096
-79.5331
-83.7394
-87.5604
-90.9116
-93.7037
-95.8559
-97.271
-97.9419
-97.8724
-97.0022
-95.229
-92.4592
-88.6559
-83.8105
-77.9705
-71.2954
-63.9575
-56.2107
-48.2731
-40.2826
-31.9025
-23.1274
21.3821
25.6934
30.3482
35.0874
39.409
43.3803
46.8272
49.4979
51.3858
52.6185
53.2896
53.5153
53.4148
53.0699
52.5404
51.86
51.0443
50.096
49.0034
47.7443
46.2882
44.594
42.6084
40.2919
37.6709
34.8146
31.7751
28.5988
25.3468
22.0943
18.9317
15.9634
13.3066
11.0883
9.4338
8.45552
8.26701
8.95683
10.4826
15.4553
10.7693
5.34807
-0.473832
-6.19208
-12.2327
-18.3276
-24.277
-30.1602
-35.8742
-41.3906
-46.7468
-51.9192
-56.9168
-61.7447
-66.3865
-70.8197
-75.0089
-78.9025
-82.4396
-85.5447
-88.1379
-90.1482
-91.4876
-92.1526
-92.1541
-91.4423
-89.9251
-87.5149
-84.1687
-79.869
-74.6438
-68.6127
-61.9108
-54.7395
-47.2697
-39.6103
-31.5264
-23.0327
19.8078
23.9116
28.3468
32.8653
36.9889
40.7835
44.0824
46.6437
48.4599
49.6539
50.315
50.5532
50.4841
50.1861
49.7167
49.1092
48.38
47.5328
46.5579
45.436
44.1394
42.6305
40.8591
38.7868
36.435
33.8641
31.1189
28.2387
25.2755
22.295
19.3774
16.6171
14.1217
12.0096
10.3998
9.39826
9.11094
9.61843
10.8781
14.2009
9.74756
4.59929
-0.922163
-6.33644
-12.0488
-17.8027
-23.409
-28.9434
-34.3076
-39.4761
-44.4847
-49.3116
-53.9669
-58.4559
-62.7646
-66.8736
-70.752
-74.3541
-77.6255
-80.4991
-82.903
-84.7743
-86.0349
-86.6839
-86.7379
-86.1565
-84.8577
-82.761
-79.8197
-76.0098
-71.3428
-65.9039
-59.7955
-53.1748
-46.1743
-38.8807
-31.1382
-22.9921
18.3415
22.2478
26.4738
30.7822
34.7171
38.3431
41.5004
43.9568
45.7046
46.8612
47.512
47.7615
47.7207
47.465
47.0502
46.5088
45.8576
45.1011
44.2318
43.2328
42.0791
40.7366
39.1585
37.3079
35.2019
32.8934
30.4209
27.8172
25.1268
22.4062
19.7262
17.1713
14.8394
12.8394
11.2826
10.2686
9.89507
10.2355
11.25
13.0379
8.80563
3.91665
-1.31979
-6.4462
-11.8482
-17.2803
-22.5633
-27.7694
-32.8055
-37.648
-42.3318
-46.8365
-51.1727
-55.3465
-59.346
-63.154
-66.7436
-70.0743
-73.0979
-75.7541
-77.9784
-79.715
-80.896
-81.5216
-81.6127
-81.1377
-80.0245
-78.1999
-75.6158
-72.2432
-68.0806
-63.1843
-57.629
-51.5333
-44.9999
-38.0972
-30.7312
-22.9796
16.9768
20.6951
24.7218
28.8298
32.5848
36.0497
39.072
41.4283
43.1104
44.2311
44.8715
45.131
45.116
44.8992
44.534
44.0524
43.4715
42.7967
42.0222
41.1332
40.1076
38.9144
37.5104
35.8607
33.9785
31.9105
29.6895
27.343
24.9086
22.4347
19.9832
17.6291
15.4605
13.5765
12.0801
11.0637
10.6167
10.8062
11.597
11.9606
7.93864
3.29603
-1.66981
-6.52363
-11.632
-16.7603
-21.7386
-26.6356
-31.3639
-35.9012
-40.2812
-44.4853
-48.5242
-52.4049
-56.1166
-59.6452
-62.9667
-66.045
-68.8373
-71.2902
-73.3451
-74.9528
-76.0541
-76.6505
-76.7669
-76.3783
-75.4222
-73.8325
-71.562
-68.5783
-64.8698
-60.4693
-55.4277
-49.8315
-43.7592
-37.2646
-30.2999
-22.9736
15.7074
19.2469
23.0833
27.0004
30.5839
33.8952
36.7884
39.0492
40.6685
41.7547
42.3848
42.6531
42.6619
42.4807
42.1608
41.7337
41.2163
40.615
39.9255
39.1351
38.2245
37.1651
35.9177
34.4494
32.7708
30.9225
28.9326
26.8241
24.6285
22.3872
20.1537
17.994
15.9868
14.2211
12.7909
11.7815
11.2737
11.3288
11.9177
10.9636
7.1417
2.73348
-1.97545
-6.57112
-11.4014
-16.2428
-20.9337
-25.5403
-29.9793
-34.2306
-38.3264
-42.2498
-46.012
-49.6197
-53.0642
-56.3333
-59.4058
-62.2497
-64.8268
-67.0894
-68.9851
-70.4699
-71.4928
-72.0565
-72.1884
-71.8695
-71.0462
-69.6589
-67.6626
-65.023
-61.722
-57.7731
-53.2074
-48.0851
-42.4643
-36.3874
-29.8399
-22.9566
14.5276
17.8965
21.5518
25.2867
28.7067
31.8715
34.6415
36.8108
38.3705
39.4236
40.0435
40.3198
40.3503
40.2019
39.9235
39.546
39.0863
38.5514
37.9383
37.2363
36.4283
35.489
34.3824
33.0779
31.5838
29.9354
28.157
26.2678
24.2939
22.2705
20.2435
18.2705
16.4209
14.7741
13.4148
12.4209
11.8647
11.8021
12.2108
10.0419
6.41038
2.22497
-2.2399
-6.59078
-11.158
-15.7281
-20.1482
-24.4813
-28.6486
-32.6316
-36.4617
-40.1231
-43.6271
-46.9809
-50.177
-53.2052
-56.0466
-58.6729
-61.05
-63.1351
-64.8817
-66.2501
-67.1968
-67.7255
-67.865
-67.6022
-66.8907
-65.6775
-63.9202
-61.5847
-58.6476
-55.1087
-50.9829
-46.3082
-41.1266
-35.4704
-29.3481
-22.9148
13.4316
16.6382
20.1206
23.6819
26.946
29.971
32.6235
34.7057
36.2082
37.2296
37.8396
38.1232
38.1737
38.0555
37.8153
37.483
37.0757
36.6007
36.0563
35.4337
34.7178
33.886
32.9058
31.7487
30.4213
28.9545
27.3691
25.6809
23.9118
22.0912
20.2584
18.4631
16.7661
15.2374
13.9524
12.9815
12.3887
12.2251
12.475
9.1905
5.74012
1.76674
-2.46629
-6.58514
-10.9031
-15.2167
-19.3815
-23.457
-27.3692
-31.1009
-34.6822
-38.0989
-41.3621
-44.4796
-47.4448
-50.2492
-52.8763
-55.3008
-57.492
-59.4121
-61.0191
-62.278
-63.151
-63.6434
-63.7849
-63.5669
-62.9492
-61.8856
-60.3363
-58.2685
-55.6559
-52.4881
-48.7675
-44.5143
-39.7569
-34.5186
-28.8227
-22.838
12.4142
15.466
18.7837
22.1794
25.295
28.1867
30.727
32.7261
34.1741
35.1652
35.7656
36.0557
36.1247
36.0344
35.8292
35.5383
35.1787
34.758
34.2756
33.7241
33.0907
32.3551
31.4881
30.4637
29.2867
27.9843
26.5742
25.0695
23.4885
21.8557
20.2044
18.5772
17.0266
15.6137
14.4053
13.4637
12.8457
12.5971
12.709
8.40453
5.12668
1.35502
-2.65766
-6.55632
-10.6383
-14.7094
-18.6332
-22.4663
-26.1386
-29.6346
-32.9831
-36.1712
-39.21
-42.1074
-44.8582
-47.4548
-49.883
-52.1203
-54.1393
-55.9059
-57.3826
-58.5386
-59.3413
-59.7971
-59.936
-59.7535
-59.2149
-58.2795
-56.9112
-55.0787
-52.7546
-49.9219
-46.5732
-42.7152
-38.3647
-33.5369
-28.2629
-22.7192
11.4702
14.3745
17.5351
20.7732
23.7472
26.5118
28.9452
30.8652
32.2611
33.2232
33.8142
34.11
34.1962
34.1315
33.9586
33.7057
33.3895
33.0182
32.5916
32.104
31.5444
30.895
30.1294
29.224
28.1825
27.0284
25.777
24.4393
23.0303
21.5704
20.0876
18.618
17.2067
15.9066
14.7755
13.8689
13.236
12.9178
12.9116
7.6797
4.56596
0.986355
-2.817
-6.50659
-10.365
-14.2068
-17.9031
-21.5077
-24.9546
-28.2295
-31.3602
-34.3348
-37.1643
-39.8569
-42.4082
-44.8121
-47.056
-49.1197
-50.9791
-52.6032
-53.9588
-55.0183
-55.7542
-56.1735
-56.3066
-56.1522
-55.6803
-54.855
-53.644
-52.0182
-49.9504
-47.4193
-44.411
-40.9217
-36.9587
-32.5299
-27.6687
-22.5538
10.5948
13.3587
16.3697
19.4576
22.2967
24.9403
27.2718
29.116
30.4625
31.3968
31.9786
32.2794
32.3813
32.3402
32.197
31.979
31.7025
31.3758
30.9997
30.5698
30.0764
29.5039
28.829
28.0303
27.1106
26.0899
24.9818
23.7953
22.5428
21.2412
19.9138
18.5912
17.3114
16.1198
15.0663
14.199
13.5605
13.1871
13.0817
7.01191
4.05432
0.657356
-2.94698
-6.43833
-10.0847
-13.7095
-17.191
-20.5804
-23.8154
-26.883
-29.8096
-32.5849
-35.2193
-37.7212
-40.0871
-42.3121
-44.385
-46.2881
-47.9994
-49.4915
-50.7346
-51.7041
-52.3771
-52.7607
-52.8855
-52.753
-52.3375
-51.6071
-50.533
-49.0887
-47.2482
-44.9879
-42.29
-39.1432
-35.5468
-31.5021
-27.0409
-22.3392
9.78379
12.414
15.2824
18.2272
20.9378
23.4659
25.7002
27.4725
28.7716
29.6794
30.2522
30.5576
30.6738
30.6544
30.5384
30.3522
30.1119
29.8257
29.4953
29.1171
28.6831
28.1796
27.586
26.8828
26.072
25.1712
24.1919
23.1418
22.0312
20.8738
19.689
18.5024
17.346
16.2581
15.281
14.4565
13.8207
13.4055
13.2184
6.39749
3.5884
0.365081
-3.05014
-6.35345
-9.79879
-13.2184
-16.497
-19.6835
-22.7192
-25.5922
-28.3279
-30.9168
-33.3693
-35.6939
-37.8875
-39.9465
-41.861
-43.6152
-45.1895
-46.5595
-47.6981
-48.584
-49.1975
-49.5467
-49.6618
-49.5464
-49.1785