/*--------------------------------*- C++ -*----------------------------------*\
| =========                 |                                                 |
| \\      /  F ield         | OpenFOAM: The Open Source CFD Toolbox           |
|  \\    /   O peration     | Version:  2312                                  |
|   \\  /    A nd           | Website:  www.openfoam.com                      |
|    \\/     M anipulation  |                                                 |
\*---------------------------------------------------------------------------*/
FoamFile
{
    version     2.0;
    format      ascii;
    arch        "LSB;label=32;scalar=64";
    class       surfaceScalarField;
    location    "350";
    object      phi;
}
// * * * * * * * * * * * * * * * * * * * * * * * * * * * * * * * * * * * * * //

dimensions      [0 3 -1 0 0 0 0];

oriented        oriented;

internalField   nonuniform List<scalar> 
21254
(
-0.216019
0.23613
-0.0201125
0.258559
-0.0224336
0.278215
-0.0196606
0.295961
-0.0177404
0.312817
-0.0168504
0.326559
-0.0137367
0.337623
-0.0110583
0.346712
-0.00908492
0.352892
-0.00617678
0.357111
-0.00421798
0.35955
-0.00243968
0.359865
-0.00031699
0.358069
0.00179039
0.353867
0.00419468
0.34699
0.00687013
0.33749
0.00949889
0.324997
0.0124983
0.309537
0.0154647
0.291232
0.0183096
0.271209
0.0200467
0.250812
0.0204445
0.233624
0.0172363
0.22368
0.00996072
0.228332
-0.0046798
0.246383
-0.0181173
0.266827
-0.0205103
0.278935
-0.0121155
0.279573
-0.000588864
0.274315
0.00526868
0.264708
0.00953715
0.247711
0.0169754
0.215162
0.0326408
0.149992
0.0653337
0.0485086
0.101286
-0.00219743
0.0501671
-0.0186785
0.0159425
-0.0372598
0.0192378
-0.0582477
0.0208976
0.0439501
-0.10233
-0.192677
-0.0233465
-0.168374
-0.0243094
-0.13884
-0.0295264
-0.106676
-0.0321558
-0.072959
-0.0337106
-0.0384089
-0.0345466
-0.00492301
-0.0334824
0.0259639
-0.0308944
0.0541917
-0.028234
0.0788767
-0.0246865
0.0999512
-0.021074
0.11773
-0.0177749
0.132552
-0.0148173
0.144816
-0.012256
0.155269
-0.0104455
0.164224
-0.00894815
0.172151
-0.00792473
0.17927
-0.00711667
0.185892
-0.00661782
0.192132
-0.00623336
0.198143
-0.00600613
0.20392
-0.00577366
0.209362
-0.00544091
0.213792
-0.00442797
0.216995
-0.0031997
0.219242
-0.00224131
0.220541
-0.00129011
0.2208
-0.000248893
0.219653
0.00116034
0.216978
0.00268685
0.21272
0.00426769
0.206904
0.00582104
0.199521
0.00738056
0.190579
0.00894058
0.179968
0.0106077
0.167892
0.0120821
0.156567
0.0113219
0.171291
-0.0146947
0.198364
-0.0270571
-0.196368
0.217938
-0.0416764
0.24007
-0.0445689
0.263299
-0.0428919
0.28507
-0.039528
0.306423
-0.0382142
0.326398
-0.0337164
0.344562
-0.0292238
0.361186
-0.0257079
0.375898
-0.0208846
0.388774
-0.0170885
0.399864
-0.0135217
0.409485
-0.00993056
0.418193
-0.00691134
0.42627
-0.00387402
0.433583
-0.00042995
0.439708
0.00338941
0.44434
0.00787783
0.447197
0.0126053
0.447146
0.018338
0.443552
0.023589
0.435155
0.0287641
0.421593
0.0307507
0.403424
0.0281585
0.379477
0.0193339
0.351681
0.00975587
0.327807
0.00343766
0.312859
0.0028319
0.303846
0.00839172
0.295472
0.013623
0.286322
0.0186782
0.277157
0.026233
0.269432
0.0403021
0.248598
0.0860282
0.180144
0.169369
0.0656095
0.165442
-0.025471
0.107134
-0.0503037
0.0439534
-0.0674447
0.0380793
0.028515
-0.198398
-0.174404
-0.045312
-0.150884
-0.0478281
-0.123385
-0.0570386
-0.0943567
-0.0611948
-0.0635888
-0.0644785
-0.0315096
-0.066631
0.000629609
-0.065621
0.0309941
-0.0612526
0.0582173
-0.0554599
0.0824256
-0.0488972
0.103415
-0.0420644
0.121594
-0.0359545
0.13738
-0.0306017
0.150979
-0.0258554
0.16286
-0.0223304
0.173324
-0.0194191
0.182672
-0.0172798
0.191211
-0.0156614
0.199187
-0.014595
0.206713
-0.0137606
0.213957
-0.0132524
0.22095
-0.0127691
0.227623
-0.0121209
0.23353
-0.0103414
0.238393
-0.00806624
0.242481
-0.00632622
0.245777
-0.0045758
0.248516
-0.0029731
0.251064
-0.00137207
0.253541
0.000220488
0.255903
0.00190629
0.258083
0.00363794
0.259918
0.00553385
0.261266
0.00758999
0.261979
0.00988335
0.261387
0.0126703
0.261374
0.0113307
0.248304
-0.00168549
0.229426
-0.00819547
-0.190606
0.21244
-0.0635172
0.2345
-0.0666218
0.258365
-0.0667475
0.280244
-0.0614021
0.301137
-0.0590982
0.321188
-0.0537588
0.339102
-0.0471298
0.35526
-0.0418609
0.369221
-0.0348442
0.38122
-0.029088
0.391274
-0.0235772
0.399472
-0.0181332
0.405625
-0.0130711
0.410194
-0.00844795
0.412973
-0.00320827
0.414943
0.00142455
0.416146
0.00668105
0.417324
0.0114346
0.418542
0.0171298
0.419959
0.0221884
0.421208
0.0275345
0.421005
0.0309599
0.417782
0.0313541
0.409522
0.0275533
0.397683
0.0215947
0.379221
0.0219312
0.355536
0.0265271
0.335558
0.0283831
0.319689
0.0294916
0.305925
0.0323942
0.293258
0.0389583
0.280977
0.0525554
0.273476
0.0934961
0.246116
0.196581
0.138907
0.272709
-0.000184526
0.246234
-0.0535218
0.0971161
-0.0693883
0.0538423
0.00819377
-0.276076
-0.168663
-0.0672518
-0.144713
-0.0717687
-0.116128
-0.0856185
-0.0864771
-0.090842
-0.0555714
-0.0953827
-0.0235792
-0.0986242
0.00796346
-0.0971683
0.0372984
-0.0905938
0.0640432
-0.0822076
0.0881502
-0.0730047
0.109303
-0.0632155
0.127733
-0.0543789
0.143831
-0.0466917
0.157872
-0.0398897
0.170169
-0.034624
0.181076
-0.0303245
0.190863
-0.0270656
0.199807
-0.0246009
0.208113
-0.022896
0.215937
-0.0215782
0.223466
-0.0207779
0.23072
-0.0200199
0.237595
-0.0189933
0.243768
-0.0165109
0.248961
-0.0132519
0.253288
-0.0106428
0.256804
-0.00807658
0.259561
-0.00571053
0.261641
-0.00343241
0.263074
-0.00119876
0.26401
0.000975638
0.264545
0.00310557
0.264846
0.00522548
0.265039
0.0073981
0.265349
0.00956726
0.265631
0.0123906
0.265642
0.011323
0.258374
0.00557704
0.245747
0.00443182
-0.183541
0.206275
-0.0862597
0.22915
-0.0895041
0.254349
-0.0919582
0.277395
-0.0844521
0.299808
-0.0815107
0.321373
-0.0753216
0.341235
-0.0669898
0.359247
-0.0598707
0.375605
-0.0511986
0.390084
-0.0435612
0.402802
-0.0362899
0.41375
-0.0290774
0.42298
-0.0222989
0.430557
-0.0160206
0.436844
-0.00948609
0.441438
-0.0031583
0.444367
0.00376203
0.445338
0.0104721
0.444656
0.0178157
0.442295
0.0245473
0.438551
0.0312736
0.43371
0.0357978
0.427355
0.0376982
0.419681
0.0351978
0.41127
0.0300009
0.402474
0.0307587
0.390883
0.038123
0.375617
0.0436712
0.358605
0.046512
0.340368
0.0505271
0.321487
0.0578907
0.301122
0.0729158
0.286274
0.108348
0.275501
0.207262
0.205878
0.342309
0.0732084
0.378849
-0.0255991
0.195696
-0.069199
0.0973187
-0.0115519
-0.333791
-0.161094
-0.0897023
-0.137089
-0.0957826
-0.107991
-0.114716
-0.0781754
-0.120649
-0.0471583
-0.126394
-0.0149925
-0.130786
0.0164469
-0.128607
0.0454409
-0.119591
0.0718485
-0.108617
0.0956917
-0.0968471
0.116642
-0.0841626
0.134992
-0.0727241
0.151188
-0.062882
0.165482
-0.0541822
0.178203
-0.0473465
0.189576
-0.0417007
0.199912
-0.0374038
0.209391
-0.0340796
0.218249
-0.0317527
0.226619
-0.0299463
0.234608
-0.0287668
0.242285
-0.0277005
0.249586
-0.0262978
0.256177
-0.0231042
0.261818
-0.0188905
0.266569
-0.0153857
0.270485
-0.0119773
0.27362
-0.00882754
0.276022
-0.00581601
0.277766
-0.00292918
0.278887
-0.000141263
0.279437
0.0025557
0.279458
0.00519507
0.279055
0.00780104
0.278277
0.010336
0.277222
0.0134446
0.275516
0.0130294
0.269637
0.0114424
0.259886
0.0141799
-0.179941
0.203502
-0.109816
0.227238
-0.113245
0.253809
-0.118528
0.277586
-0.108221
0.300945
-0.104862
0.323511
-0.0978822
0.344151
-0.0876273
0.362994
-0.0787117
0.380311
-0.0685126
0.395462
-0.0587079
0.408818
-0.0496437
0.420306
-0.0405667
0.430187
-0.0321819
0.43815
-0.0239835
0.444382
-0.0157138
0.448861
-0.00763298
0.451811
0.000815317
0.453344
0.00894083
0.453262
0.0178969
0.451791
0.0260137
0.448704
0.0343547
0.443965
0.0405355
0.437369
0.0442953
0.429014
0.0435325
0.419632
0.0393875
0.410718
0.039742
0.402559
0.0462948
0.393801
0.052422
0.383481
0.0568326
0.370985
0.0629232
0.355826
0.0731298
0.336082
0.0926493
0.313023
0.131426
0.297761
0.222474
0.258153
0.381899
0.161529
0.475425
0.036682
0.320508
-0.0595139
0.193487
-0.0302848
-0.363041
-0.156472
-0.113176
-0.131755
-0.1205
-0.101418
-0.145045
-0.0707618
-0.151297
-0.0390248
-0.158128
-0.00621397
-0.1636
0.0256713
-0.160497
0.0547645
-0.148689
0.0810791
-0.134934
0.10479
-0.120556
0.125587
-0.104956
0.143853
-0.0909846
0.160094
-0.0791186
0.17453
-0.0686172
0.187486
-0.0603045
0.199231
-0.0534489
0.20995
-0.0481229
0.219834
-0.043961
0.229085
-0.0409987
0.237837
-0.0386952
0.246183
-0.0371103
0.254163
-0.035681
0.261742
-0.033878
0.268638
-0.0299996
0.274589
-0.0248379
0.279635
-0.0204223
0.283817
-0.016144
0.287188
-0.0121784
0.289784
-0.0083925
0.291652
-0.00478153
0.292846
-0.0013307
0.293468
0.00193488
0.293556
0.00509819
0.293182
0.00817672
0.29241
0.0111004
0.291285
0.0145702
0.289206
0.0151133
0.283716
0.0169346
0.27477
0.0231241
-0.176982
0.201539
-0.134373
0.226559
-0.138261
0.254481
-0.146441
0.279416
-0.133148
0.303756
-0.129196
0.327627
-0.121751
0.349189
-0.109189
0.36925
-0.0987705
0.387514
-0.0867718
0.403853
-0.0750396
0.418498
-0.0642815
0.431265
-0.0533298
0.442369
-0.0432839
0.45181
-0.0334187
0.459474
-0.0233681
0.465681
-0.0138314
0.470084
-0.00358313
0.472746
0.00628111
0.473745
0.0168958
0.472862
0.0268918
0.470075
0.0371411
0.465445
0.0451757
0.458775
0.0509766
0.450172
0.0521241
0.440277
0.0492915
0.430276
0.0498314
0.420588
0.056001
0.410807
0.0621613
0.400502
0.0671332
0.389285
0.0740472
0.376825
0.0856765
0.361856
0.107602
0.341736
0.151575
0.322648
0.241534
0.297792
0.406748
0.234358
0.538773
0.104148
0.450757
-0.0349938
0.332621
-0.0564854
-0.34168
-0.152556
-0.1376
-0.127026
-0.14602
-0.0953904
-0.176672
-0.0636038
-0.18308
-0.0308675
-0.190867
0.00288028
-0.197353
0.0355208
-0.193143
0.0650219
-0.178192
0.091488
-0.161398
0.115203
-0.144267
0.135924
-0.125671
0.15407
-0.109126
0.170246
-0.0952934
0.184722
-0.083095
0.197806
-0.0733925
0.209763
-0.0654085
0.22076
-0.0591209
0.231005
-0.0542045
0.240627
-0.0506175
0.249757
-0.0478232
0.258488
-0.0458411
0.266841
-0.0440364
0.274764
-0.041804
0.282072
-0.0373079
0.28843
-0.0311928
0.293835
-0.0258182
0.298383
-0.0206765
0.302069
-0.0158457
0.304953
-0.0112566
0.307076
-0.00689079
0.308497
-0.00274696
0.309278
0.00115493
0.309467
0.00489928
0.309191
0.00845367
0.308424
0.0118597
0.307262
0.0157321
0.305154
0.0172236
0.299954
0.0221438
0.290861
0.0322166
-0.175238
0.2011
-0.160235
0.227162
-0.164311
0.256626
-0.175896
0.2828
-0.159315
0.308353
-0.154747
0.333266
-0.146664
0.355941
-0.131863
0.376805
-0.119631
0.396048
-0.106009
0.413253
-0.0922359
0.428651
-0.0796732
0.44237
-0.0670467
0.454285
-0.0551995
0.464472
-0.0436028
0.473
-0.031888
0.479703
-0.0205274
0.484719
-0.00859608
0.487975
0.00302534
0.489524
0.0153444
0.489293
0.0271183
0.487272
0.0391651
0.483377
0.0490862
0.477611
0.0567578
0.469833
0.0598913
0.460624
0.0585021
0.450976
0.059567
0.44119
0.0658004
0.430855
0.0724444
0.419677
0.0783078
0.407485
0.0861402
0.394384
0.0988539
0.380295
0.121678
0.364336
0.167572
0.346933
0.258912
0.32985
0.423829
0.28955
0.578951
0.166807
0.573566
0.00692861
0.492495
-0.13687
-0.197969
-0.149609
-0.163215
-0.122981
-0.172637
-0.0898916
-0.209756
-0.0567903
-0.216182
-0.0228308
-0.22483
0.0121502
-0.232337
0.0457853
-0.226779
0.0760004
-0.208405
0.102861
-0.188255
0.126781
-0.168181
0.14751
-0.146396
0.16559
-0.127204
0.181701
-0.111405
0.196149
-0.0975466
0.209273
-0.0865198
0.221355
-0.0774934
0.232581
-0.0703462
0.243095
-0.0647154
0.253036
-0.0605554
0.2625
-0.0572848
0.271562
-0.0549023
0.280235
-0.0527118
0.288502
-0.0500727
0.296114
-0.0449201
0.302847
-0.0379218
0.308624
-0.0315855
0.313475
-0.0255126
0.317457
-0.0198079
0.320579
-0.0143586
0.322917
-0.00921415
0.324489
-0.0043143
0.325394
0.000250539
0.32569
0.00459426
0.325435
0.00870946
0.324711
0.0125758
0.323496
0.0169473
0.321322
0.0194008
0.316729
0.0267419
0.308277
0.0406692
-0.174128
0.201317
-0.187419
0.22879
-0.191769
0.259911
-0.207012
0.287268
-0.18667
0.314081
-0.181561
0.340212
-0.172796
0.363872
-0.155522
0.385894
-0.141649
0.405918
-0.126024
0.424008
-0.110316
0.440401
-0.0960581
0.454939
-0.0815826
0.467699
-0.0679598
0.478811
-0.0547102
0.48822
-0.0412874
0.495891
-0.0281872
0.501855
-0.0145541
0.506048
-0.00116437
0.508382
0.0130084
0.508822
0.0266735
0.507389
0.0406015
0.503962
0.0525292
0.498532
0.0622032
0.491186
0.0672225
0.482327
0.0673555
0.47286
0.0691205
0.463097
0.0755733
0.452647
0.0828354
0.441128
0.0898256
0.428323
0.0988425
0.414276
0.112968
0.398976
0.136967
0.383666
0.18293
0.368611
0.273945
0.356918
0.435523
0.332706
0.603032
0.224948
0.681433
0.089786
0.627732
-0.0778174
-0.0303172
-0.147268
-0.190057
-0.119484
-0.200414
-0.0846903
-0.244549
-0.050072
-0.250804
-0.0146772
-0.260228
0.0216901
-0.268705
0.0565715
-0.261658
0.087686
-0.239515
0.115127
-0.215691
0.139393
-0.192444
0.160256
-0.167256
0.178325
-0.145274
0.19438
-0.127463
0.208772
-0.111942
0.221874
-0.099625
0.234041
-0.089661
0.245388
-0.0816911
0.256104
-0.0754279
0.26629
-0.0707381
0.276045
-0.0670378
0.285401
-0.0642589
0.294408
-0.0617214
0.303005
-0.0586716
0.310988
-0.0529041
0.318094
-0.045024
0.324243
-0.0377248
0.329455
-0.0307093
0.333765
-0.0240999
0.337177
-0.017751
0.339747
-0.0117698
0.341542
-0.00610538
0.342606
-0.000813306
0.343019
0.00416985
0.342852
0.00887613
0.342123
0.0132955
0.34087
0.0181993
0.338563
0.0217084
0.334372
0.0309319
0.326718
0.0483225
-0.173779
0.202339
-0.215968
0.231245
-0.220665
0.264051
-0.239815
0.292779
-0.215397
0.32103
-0.209813
0.34849
-0.200256
0.373336
-0.180365
0.39622
-0.164525
0.417309
-0.147102
0.436193
-0.129188
0.453253
-0.113109
0.468558
-0.096884
0.482124
-0.0815262
0.493979
-0.0665627
0.504134
-0.0514327
0.512613
-0.0366547
0.519288
-0.0212222
0.524112
-0.00598363
0.52707
0.0100485
0.5281
0.0256369
0.527231
0.041471
0.524393
0.0553817
0.519533
0.0670738
0.512724
0.0740092
0.504353
0.0757121
0.495163
0.0783958
0.48543
0.0853167
0.474938
0.0932651
0.463376
0.101393
0.450376
0.111737
0.436022
0.127377
0.419962
0.153016
0.403716
0.199228
0.389091
0.288554
0.380348
0.444266
0.368122
0.615138
0.281695
0.768001
0.158947
0.750636
-0.020684
0.149831
-0.145447
-0.218377
-0.116319
-0.229543
-0.0797533
-0.281118
-0.0435634
-0.286997
-0.00651638
-0.297277
0.0314523
-0.306673
0.0678203
-0.298023
0.100011
-0.271703
0.128204
-0.243881
0.152977
-0.217215
0.17409
-0.18837
0.19224
-0.163427
0.208281
-0.143508
0.22262
-0.126285
0.235688
-0.112694
0.247841
-0.101814
0.259278
-0.093125
0.270124
-0.0862711
0.280499
-0.0811094
0.290495
-0.0770329
0.300153
-0.0739176
0.309438
-0.0710093
0.318345
-0.0675808
0.32668
-0.0612395
0.334175
-0.0525151
0.340676
-0.0442151
0.346243
-0.0362607
0.350854
-0.0286918
0.354568
-0.0214448
0.357394
-0.0145807
0.359382
-0.00808957
0.360615
-0.00204558
0.36113
0.00364402
0.361036
0.00897034
0.360345
0.0139774
0.359074
0.01947
0.35661
0.0241728
0.352718
0.0348211
0.345624
0.0554153
-0.173828
0.203989
-0.24612
0.234428
-0.251104
0.26911
-0.274497
0.299284
-0.245571
0.328816
-0.239345
0.357723
-0.229161
0.383715
-0.206353
0.407706
-0.188507
0.429748
-0.169131
0.449474
-0.148899
0.467349
-0.130973
0.483482
-0.113013
0.497713
-0.0957569
0.510242
-0.0790889
0.521206
-0.0623873
0.530342
-0.0457784
0.537739
-0.0286094
0.543265
-0.011504
0.546957
0.00635513
0.548699
0.0238863
0.548358
0.0418096
0.546075
0.0576753
0.541728
0.071428
0.535417
0.0802902
0.527449
0.0836599
0.518441
0.0874919
0.50873
0.0950411
0.498158
0.103774
0.486426
0.113139
0.473263
0.124793
0.458751
0.141933
0.442505
0.169253
0.425547
0.216239
0.410323
0.303773
0.401937
0.452647
0.397722
0.619252
0.337041
0.828853
0.2122
0.875561
0.0673906
0.294853
-0.144127
-0.248078
-0.113541
-0.260135
-0.0750196
-0.319645
-0.0369747
-0.325045
0.00177419
-0.336026
0.0415911
-0.346488
0.0795198
-0.335949
0.112968
-0.305149
0.142085
-0.272997
0.167525
-0.242657
0.189001
-0.20985
0.207301
-0.181732
0.223388
-0.1596
0.237691
-0.140591
0.250706
-0.125711
0.262841
-0.113948
0.274288
-0.104569
0.285209
-0.0971888
0.295744
-0.0916428
0.305934
-0.0872218
0.315792
-0.0837775
0.32537
-0.0805895
0.33459
-0.0768033
0.34326
-0.0699099
0.351109
-0.0603587
0.357999
-0.0510946
0.363903
-0.0421487
0.368866
-0.0336344
0.372872
-0.0254304
0.375962
-0.0176553
0.378191
-0.0103153
0.379587
-0.00344172
0.380249
0.00297068
0.380247
0.00897145
0.379581
0.0146354
0.378266
0.020783
0.375725
0.0267141
0.371941
0.0385981
0.364724
0.0626332
-0.174448
0.206175
-0.277845
0.238187
-0.283121
0.274788
-0.3111
0.30662
-0.277405
0.337748
-0.270474
0.368109
-0.259521
0.395234
-0.233473
0.420423
-0.213687
0.443471
-0.192165
0.464104
-0.169518
0.482737
-0.149594
0.499473
-0.129743
0.514456
-0.11074
0.527774
-0.0924055
0.53928
-0.0738847
0.54913
-0.0556159
0.557182
-0.0366506
0.563417
-0.0177325
0.567678
0.00209249
0.569989
0.0215657
0.570261
0.0415318
0.568467
0.0594755
0.564649
0.0752503
0.55886
0.0860448
0.551356
0.0911412
0.542689
0.0962526
0.533049
0.1047
0.522368
0.114392
0.51054
0.124989
0.497136
0.138088
0.482397
0.156704
0.466086
0.185553
0.448901
0.233476
0.433155
0.319526
0.423612
0.462176
0.423008
0.619781
0.388479
0.863568
0.286166
0.977781
0.160289
0.420923
-0.143089
-0.279446
-0.11099
-0.292241
-0.0703903
-0.360248
-0.0304043
-0.365032
0.0103039
-0.376732
0.0520038
-0.388185
0.091721
-0.375664
0.126582
-0.34001
0.156783
-0.303198
0.182973
-0.26885
0.204947
-0.231828
0.223496
-0.200285
0.239696
-0.175802
0.253995
-0.154893
0.266967
-0.138683
0.27905
-0.12603
0.290484
-0.116
0.30145
-0.108153
0.312052
-0.102243
0.322384
-0.0975547
0.332473
-0.0938685
0.342291
-0.0904101
0.351778
-0.0862918
0.360787
-0.0789177
0.368992
-0.0685588
0.376241
-0.0583317
0.38252
-0.04841
0.387811
-0.0389051
0.392142
-0.0297398
0.395504
-0.0210013
0.397945
-0.0127532
0.399555
-0.00505107
0.400348
0.00216609
0.400443
0.00887508
0.399808
0.0152615
0.398477
0.0221127
0.395857
0.0293342
0.391941
0.0425033
0.384457
0.0701169
-0.175358
0.208869
-0.311361
0.242631
-0.316889
0.28126
-0.349732
0.31469
-0.310837
0.347417
-0.303201
0.379343
-0.291447
0.407945
-0.262072
0.434251
-0.239985
0.458347
-0.21625
0.479856
-0.191013
0.499351
-0.169078
0.516911
-0.147297
0.532476
-0.126305
0.546375
-0.106304
0.5586
-0.0861022
0.56908
-0.0660855
0.577729
-0.0452898
0.584529
-0.0245249
0.589396
-0.0027751
0.592308
0.0186431
0.593164
0.0406697
0.591945
0.0606995
0.58865
0.0785489
0.583352
0.091308
0.576278
0.0981942
0.567911
0.104719
0.558381
0.114257
0.547701
0.125009
0.535744
0.136978
0.522175
0.151548
0.507197
0.1717
0.490719
0.20202
0.473455
0.250788
0.457542
0.335457
0.44672
0.472971
0.44595
0.620503
0.43299
0.876688
0.363867
1.04675
0.254207
0.530725
-0.142358
-0.312454
-0.108535
-0.326066
-0.0657937
-0.402988
-0.0237132
-0.407109
0.0190457
-0.419487
0.0628079
-0.431944
0.104483
-0.417338
0.140865
-0.376392
0.172262
-0.334597
0.199377
-0.295967
0.221952
-0.254406
0.240848
-0.219184
0.257194
-0.192151
0.271541
-0.169241
0.284484
-0.151625
0.296525
-0.13807
0.307907
-0.127381
0.318868
-0.119112
0.329536
-0.112911
0.339964
-0.107985
0.3502
-0.104107
0.360219
-0.100432
0.369997
-0.0960714
0.379317
-0.088236
0.387871
-0.0771067
0.395482
-0.0659301
0.402109
-0.0550179
0.407758
-0.0445323
0.412383
-0.0343424
0.416041
-0.0246437
0.418735
-0.0154433
0.420533
-0.0068495
0.421498
0.00118932
0.421678
0.00869347
0.421101
0.0158299
0.419734
0.0234788
0.417045
0.0320217
0.412943
0.0465914
0.405281
0.0777763
-0.176719
0.211943
-0.346591
0.24756
-0.352508
0.288337
-0.39051
0.323605
-0.346107
0.358069
-0.337667
0.391622
-0.325001
0.421625
-0.292074
0.44924
-0.267596
0.474379
-0.241379
0.496847
-0.21347
0.517151
-0.189371
0.535418
-0.165559
0.55176
-0.142647
0.56632
-0.120866
0.579113
-0.0988912
0.590136
-0.0770993
0.599393
-0.0545375
0.606808
-0.0319331
0.612258
-0.00822577
0.615653
0.015239
0.617044
0.0392727
0.616323
0.0614269
0.613535
0.0813429
0.608774
0.0960382
0.602222
0.104729
0.594177
0.11287
0.584818
0.123649
0.574133
0.135633
0.562109
0.149042
0.548407
0.165142
0.533247
0.186866
0.516603
0.218651
0.499192
0.268245
0.483247
0.351426
0.471669
0.484512
0.468537
0.623613
0.469823
0.875505
0.432558
1.08383
0.339725
0.623629
-0.141813
-0.347363
-0.106317
-0.361559
-0.0612134
-0.448086
-0.0169361
-0.45138
0.0280704
-0.464488
0.074107
-0.477977
0.117769
-0.460998
0.155868
-0.41449
0.188585
-0.367315
0.216728
-0.32411
0.240003
-0.277683
0.25933
-0.238512
0.275931
-0.208753
0.290378
-0.183687
0.303316
-0.164562
0.315311
-0.150064
0.326645
-0.138713
0.337574
-0.130041
0.348241
-0.12358
0.35874
-0.118487
0.36909
-0.11446
0.379301
-0.110647
0.389307
-0.106079
0.398935
-0.097862
0.407817
-0.0859815
0.415778
-0.0738783
0.42276
-0.0619798
0.428729
-0.0504783
0.433691
-0.0392817
0.437641
-0.0285775
0.440598
-0.0183959
0.442624
-0.00887552
0.443744
5.65445e-05
0.444047
0.00838873
0.443511
0.0163569
0.442141
0.0248475
0.439391
0.0347717
0.435032
0.0509365
0.427275
0.0855286
-0.178302
0.215465
-0.383756
0.253041
-0.390078
0.296106
-0.433572
0.333253
-0.383253
0.36949
-0.373904
0.404787
-0.360298
0.436318
-0.323605
0.46523
-0.296506
0.491576
-0.267718
0.515018
-0.236901
0.536256
-0.2106
0.555279
-0.184577
0.572298
-0.159666
0.587493
-0.136062
0.600787
-0.112183
0.612433
-0.0887402
0.62225
-0.0643471
0.630189
-0.0398662
0.636212
-0.0142492
0.640186
0.0112573
0.642072
0.0373826
0.641881
0.0616268
0.639611
0.0836237
0.635338
0.100285
0.629227
0.110828
0.621528
0.120682
0.612375
0.132839
0.601759
0.146188
0.589709
0.16114
0.575901
0.178841
0.560578
0.202182
0.543806
0.235406
0.526246
0.285847
0.510232
0.367464
0.498413
0.496286
0.492341
0.62969
0.500541
0.867344
0.488039
1.09614
0.41141
0.70027
-0.141604
-0.384054
-0.10408
-0.399075
-0.0565912
-0.495566
-0.00993931
-0.498024
0.0373957
-0.511817
0.0857791
-0.526356
0.131712
-0.506928
0.171618
-0.454395
0.205821
-0.401517
0.235094
-0.353383
0.259174
-0.301763
0.279002
-0.258339
0.295915
-0.225665
0.310499
-0.19827
0.323464
-0.177526
0.335443
-0.162041
0.346732
-0.150001
0.357593
-0.140902
0.368243
-0.134232
0.378778
-0.129025
0.389216
-0.124901
0.399565
-0.120999
0.409797
-0.116312
0.419696
-0.107758
0.42889
-0.0951678
0.437187
-0.0821613
0.444514
-0.0692871
0.450839
-0.056779
0.456128
-0.0445473
0.460378
-0.0328105
0.463596
-0.0216094
0.465835
-0.0111147
0.467139
-0.00126087
0.467563
0.00796259
0.467091
0.0168204
0.465703
0.0262346
0.462895
0.0375793
0.458373
0.055446
0.450483
0.0934143
-0.180175
0.219436
-0.423012
0.259033
-0.429664
0.304499
-0.479032
0.343596
-0.422345
0.381753
-0.412058
0.418983
-0.397527
0.45203
-0.356651
0.482367
-0.32684
0.510044
-0.295389
0.534563
-0.261412
0.556667
-0.232694
0.57651
-0.204414
0.594134
-0.177291
0.609967
-0.151897
0.623963
-0.12618
0.636126
-0.1009
0.646484
-0.0747008
0.654927
-0.0483047
0.661367
-0.0206893
0.665828
0.00678895
0.668241
0.0349675
0.668496
0.0613849
0.666724
0.0854109
0.662953
0.104035
0.657323
0.116451
0.650041
0.128079
0.641077
0.141843
0.630554
0.156647
0.618552
0.173195
0.604683
0.192602
0.589259
0.217588
0.572374
0.252269
0.554756
0.303506
0.538559
0.383677
0.526709
0.50809
0.518188
0.638242
0.527849
0.857668
0.53135
1.09246
0.468871
0.76272
-0.141474
-0.42274
-0.102062
-0.438475
-0.0519194
-0.545698
-0.00277625
-0.547158
0.0470569
-0.561644
0.0980165
-0.577312
0.14626
-0.555169
0.188158
-0.496292
0.223909
-0.437267
0.254464
-0.383937
0.279427
-0.326724
0.29988
-0.27879
0.317172
-0.242955
0.331962
-0.213058
0.345007
-0.190569
0.356967
-0.174
0.368198
-0.161231
0.379021
-0.151726
0.389629
-0.144843
0.400153
-0.139553
0.410645
-0.135396
0.421127
-0.131485
0.431548
-0.126733
0.441692
-0.117901
0.451199
-0.104667
0.459814
-0.0907622
0.467477
-0.0769289
0.474126
-0.0634035
0.479743
-0.05014
0.484285
-0.037335
0.487784
-0.0251043
0.490274
-0.0136045
0.491748
-0.00274825
0.492317
0.00739016
0.491922
0.0172072
0.490524
0.0276322
0.487664
0.0404401
0.48293
0.0601681
0.474954
0.101388
-0.182388
0.223805
-0.464419
0.265529
-0.471372
0.313502
-0.526996
0.354658
-0.463493
0.394917
-0.452312
0.434089
-0.436697
0.468825
-0.391385
0.500701
-0.358714
0.529655
-0.324338
0.555251
-0.286999
0.578324
-0.255759
0.599016
-0.225099
0.617476
-0.195749
0.633906
-0.16833
0.648448
-0.140723
0.661144
-0.113595
0.671995
-0.08555
0.680929
-0.0572366
0.687939
-0.027701
0.692841
0.00188047
0.69567
0.032138
0.696433
0.0606367
0.695103
0.08676
0.691804
0.107319
0.686616
0.121636
0.679713
0.135098
0.671037
0.150558
0.660647
0.16697
0.648683
0.185216
0.6348
0.206379
0.619321
0.233039
0.602394
0.269171
0.584713
0.321226
0.568304
0.400091
0.556436
0.519916
0.546384
0.648345
0.554263
0.849741
0.565915
1.08068
0.514553
0.814036
-0.141527
-0.463582
-0.0999727
-0.480018
-0.0471224
-0.598539
0.00465252
-0.598926
0.0571396
-0.614126
0.110801
-0.630971
0.161558
-0.605925
0.205549
-0.540282
0.243017
-0.474735
0.274916
-0.415835
0.300893
-0.3527
0.322014
-0.29991
0.339751
-0.260691
0.354801
-0.228106
0.367961
-0.203729
0.379947
-0.185985
0.39114
-0.172423
0.401898
-0.162486
0.412455
-0.155402
0.422963
-0.150064
0.433475
-0.145911
0.444035
-0.142048
0.454622
-0.137321
0.465023
-0.128299
0.474795
-0.11443
0.483708
-0.0996604
0.491692
-0.0848906
0.49867
-0.0703565
0.504611
-0.0560569
0.509473
-0.0421789
0.51325
-0.0288768
0.51596
-0.0163146
0.517656
-0.00445732
0.518355
0.0066863
0.518046
0.0175081
0.516651
0.0290265
0.51373
0.0433627
0.508843
0.0650448
0.500817
0.109414
-0.184802
0.228442
-0.508046
0.272487
-0.515401
0.323129
-0.577627
0.366511
-0.506866
0.408918
-0.494712
0.450114
-0.477888
0.486688
-0.427955
0.520155
-0.392177
0.550473
-0.354651
0.577278
-0.313796
0.601456
-0.279928
0.622979
-0.246615
0.642176
-0.214943
0.6593
-0.185454
0.674401
-0.155826
0.687647
-0.126843
0.698983
-0.0968859
0.708416
-0.0666703
0.715823
-0.0351121
0.721207
-0.00351086
0.724462
0.0288822
0.725621
0.0594932
0.724764
0.0876374
0.721911
0.110159
0.717201
0.126345
0.710669
0.141741
0.702266
0.158994
0.692047
0.177119
0.680162
0.197159
0.666328
0.22011
0.650824
0.248505
0.633879
0.286086
0.616212
0.338931
0.599614
0.416675
0.587591
0.531907
0.576781
0.659219
0.581602
0.844857
0.5956
1.06663
0.552086
0.857505
-0.141719
-0.506646
-0.0979523
-0.523775
-0.0422308
-0.654254
0.0123777
-0.65353
0.0676494
-0.669396
0.124137
-0.687458
0.177612
-0.6594
0.223811
-0.586482
0.263129
-0.514053
0.296491
-0.449197
0.323538
-0.379746
0.34542
-0.321791
0.36369
-0.27896
0.379055
-0.243469
0.392371
-0.217044
0.404425
-0.198039
0.415603
-0.183601
0.426312
-0.173196
0.436809
-0.1659
0.447268
-0.160526
0.457793
-0.156439
0.468412
-0.15267
0.479138
-0.148046
0.489732
-0.13889
0.499754
-0.124444
0.508968
-0.108858
0.517254
-0.0931545
0.524562
-0.0776394
0.53081
-0.0622796
0.535979
-0.0473302
0.540037
-0.0329302
0.543016
-0.0192935
0.544903
-0.0063585
0.545745
0.00583895
0.545538
0.0177078
0.544144
0.0304186
0.541199
0.0463104
0.536147
0.0700881
0.528039
0.117526
-0.187521
0.23356
-0.554072
0.280036
-0.561863
0.333366
-0.630947
0.379194
-0.552684
0.423768
-0.539278
0.467214
-0.521329
0.505624
-0.466361
0.540789
-0.427338
0.572626
-0.386482
0.600714
-0.341876
0.625859
-0.305064
0.648388
-0.269136
0.668324
-0.234874
0.686131
-0.20326
0.701921
-0.171617
0.715662
-0.140585
0.727518
-0.108745
0.737393
-0.076548
0.745281
-0.0430068
0.75105
-0.0092895
0.754702
0.0252274
0.756312
0.0578971
0.755817
0.0881517
0.753396
0.112569
0.749091
0.130649
0.742939
0.147997
0.734847
0.167112
0.724832
0.187058
0.713114
0.208935
0.699341
0.233785
0.683861
0.263942
0.666924
0.302992
0.64929
0.356604
0.63257
0.433359
0.620189
0.544268
0.60919
0.670285
0.610881
0.843103
0.623609
1.05392
0.585183
0.895901
-0.142099
-0.552053
-0.0959525
-0.569915
-0.0371482
-0.713054
0.0203757
-0.711053
0.0786456
-0.727666
0.13816
-0.746973
0.194398
-0.71564
0.243036
-0.635122
0.284285
-0.555304
0.319257
-0.48417
0.347485
-0.407975
0.370212
-0.344518
0.389065
-0.297814
0.404797
-0.259202
0.41833
-0.230577
0.430457
-0.210166
0.441661
-0.194806
0.452316
-0.183851
0.462751
-0.176338
0.473159
-0.170936
0.483664
-0.166947
0.494325
-0.163331
0.50517
-0.158891
0.515954
-0.149669
0.526214
-0.134695
0.535679
-0.118307
0.544248
-0.101701
0.551847
-0.0852119
0.558418
-0.0688254
0.563879
-0.0527733
0.568233
-0.0372806
0.571448
-0.0225084
0.573565
-0.00848913
0.574587
0.00481027
0.574451
0.0178369
0.573113
0.0317538
0.57011
0.0493177
0.564972
0.0752175
0.556832
0.125673
-0.190464
0.239029
-0.602625
0.287974
-0.610799
0.344353
-0.687317
0.392495
-0.600818
0.439569
-0.586346
0.485272
-0.567026
0.525767
-0.506852
0.56265
-0.464217
0.596049
-0.419875
0.625449
-0.371268
0.651842
-0.331447
0.675279
-0.292563
0.696121
-0.255709
0.71465
-0.221786
0.731032
-0.187999
0.745346
-0.154901
0.757669
-0.121071
0.767968
-0.0868529
0.776226
-0.0512738
0.782409
-0.0154847
0.786483
0.0211468
0.788401
0.0559899
0.7883
0.0882695
0.786299
0.114557
0.782401
0.134545
0.776662
0.153831
0.768879
0.174914
0.759079
0.196777
0.7475
0.220572
0.733866
0.247328
0.718457
0.279302
0.701575
0.319844
0.684001
0.374214
0.667187
0.450115
0.654417
0.557031
0.643364
0.681396
0.642443
0.843968
0.652268
1.04418
0.616922
0.931234
-0.142577
-0.599932
-0.0939284
-0.618563
-0.0319052
-0.775078
0.0286976
-0.771658
0.0901171
-0.789089
0.152834
-0.809693
0.212093
-0.774903
0.263229
-0.686261
0.30657
-0.598648
0.343219
-0.520822
0.372733
-0.437492
0.396392
-0.36818
0.415896
-0.31732
0.432072
-0.275379
0.44586
-0.244366
0.458123
-0.222431
0.46935
-0.206034
0.479984
-0.194487
0.490361
-0.186716
0.500735
-0.181312
0.511194
-0.177406
0.521887
-0.174023
0.532816
-0.169817
0.543766
-0.160613
0.55424
-0.145157
0.563931
-0.127981
0.572786
-0.110532
0.580671
-0.0930703
0.587516
-0.0756449
0.593301
-0.0585408
0.597927
-0.0419019
0.601409
-0.0259906
0.603722
-0.0108162
0.604909
0.00361465
0.604912
0.0178278
0.60359
0.0330721
0.600586
0.0523271
0.59533
0.0804649
0.587189
0.133825
-0.193687
0.24487
-0.653801
0.296481
-0.662408
0.355907
-0.746739
0.406753
-0.651661
0.456265
-0.635853
0.504477
-0.615234
0.54698
-0.549352
0.585794
-0.503027
0.620869
-0.454947
0.651727
-0.402121
0.679275
-0.358987
0.703832
-0.317112
0.725528
-0.277398
0.744819
-0.241072
0.761809
-0.204987
0.776719
-0.169812
0.789504
-0.13386
0.800234
-0.0975897
0.808933
-0.0599855
0.81546
-0.022027
0.819855
0.0167418