/*--------------------------------*- C++ -*----------------------------------*\
| =========                 |                                                 |
| \\      /  F ield         | OpenFOAM: The Open Source CFD Toolbox           |
|  \\    /   O peration     | Version:  2312                                  |
|   \\  /    A nd           | Website:  www.openfoam.com                      |
|    \\/     M anipulation  |                                                 |
\*---------------------------------------------------------------------------*/
FoamFile
{
    version     2.0;
    format      ascii;
    arch        "LSB;label=32;scalar=64";
    class       volScalarField;
    location    "350";
    object      turbulenceProperties:nuEff;
}
// * * * * * * * * * * * * * * * * * * * * * * * * * * * * * * * * * * * * * //

dimensions      [0 2 -1 0 0 0 0];

internalField   nonuniform List<scalar> 
10720
(
7.48084e-05
0.00012147
0.000156161
0.000163452
0.000151283
0.000140384
0.000138624
0.00014636
0.000164534
0.000194761
0.000241781
0.000317621
0.000445557
0.000665117
0.00106214
0.00204889
0.00399469
0.00772943
0.0152295
0.026892
0.0439541
0.0721149
0.110411
0.174301
0.33227
0.497777
1.14593
2.04109
1.38903
0.487048
0.136852
0.012192
0.00285274
0.000209198
1e-05
1.61694e-05
0.000647441
0.110667
0.422978
6.66438e-05
0.000109622
0.000126586
0.000184044
7.83853e-05
9.2071e-05
0.00013995
0.000191024
0.000198019
0.000189716
0.000189676
0.00020553
0.00023885
0.000310284
0.000423005
0.00069117
0.00105329
0.0029015
0.0033707
0.00395586
0.00532319
0.007229
0.00910325
0.0121405
0.0158777
0.0197386
0.0165252
0.00899874
0.00343711
0.000908014
0.000127972
1.55483e-05
1.11633e-05
1.04779e-05
1.01743e-05
1.00285e-05
1.00005e-05
0.00648689
0.438092
0.000404923
0.00050587
0.000345546
0.000235843
0.000164506
0.000135615
0.000132454
0.000137526
0.000145884
0.000157147
0.000172011
0.000187668
0.000218736
0.000302551
0.000490914
0.00103144
0.00247855
0.00524557
0.0105872
0.0205487
0.0364573
0.0600333
0.0991319
0.13096
0.323815
0.33178
1.01212
1.26797
1.11226
1.53679
0.936423
0.22917
0.0550602
0.00370184
6.92619e-05
2.82733e-05
0.00154018
0.0945934
0.475786
0.000110336
1.91106e-05
4.35778e-05
7.72196e-05
8.35946e-05
0.00012816
0.000152405
0.00017583
0.000198236
0.00022285
0.000251633
0.000282207
0.000226076
0.000210593
0.000238024
0.000602921
0.00259879
0.00666655
0.00193037
0.00395515
7.67615e-05
0.004158
0.0557114
7.93608e-05
0.000669345
0.000158294
0.000558523
0.000178692
0.000201417
0.0001805
0.000107699
5.80749e-05
3.01746e-05
1.76155e-05
1.25571e-05
1.07056e-05
1.00127e-05
0.00639197
0.423178
9.43185e-05
0.000114762
0.000108452
0.000108088
0.000109674
0.000112734
0.000118003
0.000124732
0.00013266
0.000141196
0.000149983
0.000158824
0.000166232
0.000172356
0.000197178
0.000164157
0.000430155
0.00100939
0.00253275
0.00644793
0.0156103
0.0370721
0.0147767
0.00845945
0.17487
0.103825
0.486268
0.646062
0.443215
0.378283
0.360923
0.247343
0.0658218
0.00852094
0.000723401
1.03114e-05
0.000587541
0.0270938
0.4526
0.000107661
7.22216e-05
0.000108011
0.000168367
0.000178487
0.000154704
0.000138974
0.000155141
0.000178299
0.00021137
0.000260936
0.000331917
0.000425815
0.000533265
0.000667387
0.00082589
0.00104204
0.00119813
0.00137354
0.00121499
0.000466199
0.00240196
0.000239133
0.000967876
0.00560471
0.00159356
0.00196411
0.00118277
0.00113157
0.00095994
0.000644082
0.000339248
0.000200584
0.000141978
0.000114073
0.000141889
1e-05
0.0159758
1.49208
0.000203472
4.22054e-05
0.000175339
0.000191859
0.000201974
0.000206203
0.000212543
0.000221398
0.00023317
0.000248428
0.000267915
0.000292342
0.000323185
0.000362996
0.000413753
0.000481726
0.000572358
0.000233879
0.000361298
4.69632e-05
1e-05
1e-05
0.00365195
0.00123891
0.0442178
1.02988e-05
1e-05
1e-05
1.00001e-05
1.00007e-05
1.00509e-05
7.11907e-05
0.0206957
0.0203255
0.00550744
1.30971e-05
0.00302574
0.0019543
0.481676
0.000222794
0.00023484
0.000251008
0.000231209
0.000215636
6.2404e-05
0.000241123
0.00026269
1.21556e-05
0.000110195
0.00021365
0.000328947
0.000457486
0.000585319
0.000702777
0.00081764
0.000929822
0.00102681
0.00113768
0.00126035
0.00133309
0.00138809
0.00135005
0.00138745
0.00132145
0.00119808
0.00120435
0.00118185
0.00115351
0.00112965
0.00110785
0.00107662
0.00102615
0.000971834
0.000880603
0.00113202
3.15527e-05
0.0320899
8.37125
0.000436226
0.00043709
0.000443148
0.000452967
0.000465982
0.000485778
0.000510054
0.000540052
0.000579025
0.000621298
0.000667322
0.000722483
0.000782544
0.000846075
0.00091185
0.000977374
0.00104845
0.00113187
0.00123411
0.000210846
0.00045216
0.000210892
1e-05
1e-05
1e-05
1e-05
1e-05
1e-05
1e-05
1e-05
1e-05
1.00002e-05
1.00887e-05
1e-05
0.00924488
0.00887467
0.0190363
0.00235787
0.214694
0.000466623
0.000453589
0.000442462
0.000422577
0.000206002
0.00015924
0.000159317
0.000156924
0.000154474
0.000165317
0.000176648
0.000190083
0.000208332
0.000227733
0.000244673
0.000262626
0.000290802
0.000304308
0.000313195
0.000339265
0.000359124
0.000376532
0.00037492
0.000388283
0.000381245
0.000361387
0.000369244
0.000371576
0.000373713
0.000376812
0.000378667
0.000375896
0.000367191
2.43119e-05
2.32693e-05
0.000515388
1.99158e-05
0.0412462
7.67708
0.000802301
0.000795703
0.000805886
0.000816986
0.000834426
0.000855534
0.000880947
0.000913998
0.000956243
0.00100908
0.0010745
0.00115456
0.00125165
0.00136948
0.00151149
0.00168599
0.00191249
0.00220803
0.00256325
0.00255034
0.00234095
0.00105622
0.000362695
0.00024178
1.001e-05
1e-05
1e-05
1e-05
1e-05
1e-05
1e-05
1e-05
1e-05
1e-05
1e-05
1e-05
1.00003e-05
1e-05
1.0001e-05
0.000791614
8.66019e-05
0.000207227
0.000261837
0.000534572
0.000948531
0.00100928
0.00108254
0.00105032
0.00101423
0.000976439
0.000935206
0.0009036
0.000872584
0.000827562
0.00078359
0.000799447
0.000734752
0.000627121
0.000599554
0.000582084
0.000566349
0.000544282
0.000522506
0.000503671
0.000485891
0.000469869
0.000455337
0.000442912
0.000433529
0.000423975
0.000405408
0.000379384
0.000363515
0.000254328
0.000422668
1.8236e-05
0.0318623
3.24578
0.000749242
0.000893963
0.00070539
0.000601383
0.000530608
0.00047481
0.000429933
0.000397337
0.000377522
0.000371219
0.000377933
0.000397829
0.00043032
0.000475277
0.000534594
0.000611931
0.000696957
0.000822864
0.00103692
0.00129347
0.00152001
0.00163269
0.00155692
0.00118136
1.00432e-05
1e-05
1e-05
1e-05
1e-05
1e-05
1e-05
1e-05
1e-05
1e-05
1e-05
1e-05
1e-05
1e-05
1e-05
0.000292563
0.00022737
0.000601842
0.00151241
0.00161045
0.00168589
0.00177918
0.00190122
0.00206128
0.00207464
0.00206004
0.00204046
0.00203335
0.00202723
0.00198979
0.00195186
0.00192478
0.00190375
0.00187731
0.00184641
0.00181082
0.0017741
0.001736
0.00169459
0.00164955
0.0016043
0.00156284
0.00152345
0.00148736
0.00145608
0.00142988
0.00140243
0.00135436
0.00124382
0.00118616
0.0012159
3.55669e-05
0.02464
1.61373
0.000163923
0.000181981
0.000181475
0.00017659
0.000182388
0.000189908
0.000194543
0.000201175
0.000207776
0.00021425
0.000222925
0.000233086
0.000244759
0.000258574
0.000274638
0.000293767
0.000313496
0.000342031
3.14034e-05
0.000214557
0.000460861
0.000739775
0.0009982
0.00110549
0.00141451
1e-05
1e-05
1e-05
1e-05
1e-05
1e-05
1e-05
1e-05
1e-05
1e-05
1e-05
1e-05
1e-05
1e-05
2.55889e-05
0.0012212
0.00186866
0.00172887
0.00130727
0.00115017
0.00117386
0.00119783
0.00122617
0.00126084
0.00130042
0.00134468
0.00138704
0.00144058
0.00150241
0.00154661
0.00155904
0.00155067
0.00153575
0.00151509
0.00149079
0.00146388
0.00143342
0.00139839
0.00136176
0.00132702
0.00129496
0.00126509
0.00123863
0.0012156
0.00119587
0.00118324
0.00117517
0.00115614
0.00114069
0.00127732
3.8362e-05
0.0152378
0.853422
0.000594571
0.000590622
0.000675126
0.000761823
0.000846289
0.000925202
0.000997559
0.00105701
0.0011006
0.00113258
0.00115751
0.0011757
0.00118737
0.00119366
0.00119521
0.001192
0.00117947
0.00116225
0.0011701
0.00103615
0.000870811
0.0008652
0.000936839
0.000943658
0.00145364
1.00001e-05
1e-05
1e-05
1e-05
1e-05
1e-05
1e-05
1e-05
1e-05
1e-05
1e-05
1e-05
1e-05
1e-05
0.00167456
0.00182133
0.00113326
0.000496846
5.16765e-05
0.000177872
0.000181274
2.59378e-05
5.0075e-05
8.00735e-05
0.000115646
0.000156516
0.000203501
0.000256675
0.000314419
0.000352204
0.000371955
0.000383175
0.000386354
0.000381928
0.000375813
0.00036877
0.000357238
0.000344217
0.00033369
0.00032485
0.000317085
0.000310586
0.000305692
0.000302195
0.000299652
0.000299864
0.000317166
0.000350788
0.0003823
0.000633322
2.46426e-05
0.00699461
0.362328
0.00180549
0.00161825
0.00161514
0.00162655
0.00163602
0.00164321
0.00166697
0.00168681
0.0016915
0.00169867
0.00171112
0.00172171
0.00173026
0.00174165
0.0017521
0.00175683
0.00174639
0.00175778
0.00176907
0.001685
0.00154702
0.00141499
0.00132803
0.00116706
0.00146125
1.00007e-05
1e-05
1e-05
1e-05
1e-05
1e-05
1e-05
1e-05
1e-05
1e-05
1e-05
1e-05
1e-05
1e-05
0.00161186
0.000656818
0.000244765
8.63701e-05
5.12787e-05
4.90855e-05
4.96974e-05
5.1464e-05
5.41615e-05
5.77269e-05
6.1634e-05
6.63591e-05
7.24496e-05
7.98082e-05
8.85547e-05
9.50111e-05
9.9199e-05
0.000102773
0.000105362
0.000106731
0.00010786
0.000108886
0.000108795
0.000108142
0.00010781
0.000107588
0.000107419
0.000107374
0.00010755
0.000107877
0.000108314
0.000109251
0.000113003
0.000119124
0.000130226
0.000181589
2.34668e-05
0.00191058
0.0932174
0.00113144
0.00105982
0.000954055
0.000869981
0.000802766
0.000746453
0.000718572
0.00070343
0.000676995
0.000667212
0.000678126
0.000690026
0.000705173
0.000738487
0.0007835
0.000825192
0.000871962
0.000935791
0.00103933
0.00116125
0.00124047
0.00126676
0.00128283
0.00118503
0.00142602
1.00035e-05
1e-05
1e-05
1e-05
1e-05
1e-05
1e-05
1e-05
1e-05
1e-05
1e-05
1e-05
1e-05
1e-05
0.000308953
0.000129273
9.0808e-05
8.346e-05
0.000272627
0.000291021
0.000291833
0.00028936
0.000284581
0.000278141
0.000270123
0.000260803
0.00025082
0.000240601
0.00023103
0.000222458
0.000215194
0.000209595
0.000205237
0.000201158
0.00019784
0.000195327
0.000192413
0.000189451
0.000187241
0.000185211
0.000183118
0.000181033
0.000179039
0.000176947
0.000174936
0.000172842
0.000165452
0.000151053
0.000163086
0.000115747
7.34874e-05
0.0001411
0.00604058
5.27418e-05
0.000106841
0.000152149
0.000125656
0.000118799
0.00011336
0.000109384
0.000108398
0.000105808
0.000105212
0.000108284
0.00011169
0.000115821
0.000123263
0.000132951
0.000142662
0.000153829
0.000175833
7.11896e-05
0.000201968
0.000389756
0.000578444
0.000745889
0.000795309
0.00114404
1.00156e-05
1e-05
1e-05
1e-05
1e-05
1e-05
1e-05
1e-05
1e-05
1e-05
1e-05
1e-05
1e-05
1e-05
8.55428e-05
0.000170246
0.000561612
0.000868082
0.000944397
0.000947675
0.000946404
0.00094441
0.000941234
0.000936671
0.000929413
0.000919901
0.000908389
0.000895568
0.000882601
0.000871098
0.000860493
0.000850356
0.000840441
0.000830301
0.000819415
0.000807575
0.000795215
0.00078292
0.000771017
0.000759414
0.000748135
0.000736955
0.000726285
0.00071573
0.000705605
0.000695529
0.000682594
0.000659843
0.00062826
0.000574558
0.00053675
0.000136101
0.00147979
0.000118201
9.30403e-05
9.44373e-05
9.9488e-05
0.00010707
0.000113855
0.000117466
0.000122187
0.000126533
0.000129638
0.000132985
0.000135855
0.000138358
0.0001408
0.00014285
0.000144781
1.04548e-05
2.28403e-05
3.01807e-05
3.17093e-05
7.67542e-05
0.00018074
0.000330766
0.000411978
0.00078383
1.00653e-05
1e-05
1e-05
1e-05
1e-05
1e-05
1e-05
1e-05
1e-05
1e-05
1e-05
1e-05
1e-05
1e-05
0.000287512
0.000826942
0.00100146
0.000854015
0.000806229
0.000799604
0.000794032
0.000790162
0.000787737
0.000785941
0.000782688
0.000778778
0.000774193
0.000769955
0.000765985
0.000761813
0.000757206
0.000751982
0.000745879
0.000738589
0.000730132
0.000720899
0.000711179
0.000701353
0.000691762
0.000682252
0.000672862
0.000663485
0.000654542
0.000645979
0.000637784
0.000630226
0.000626123
0.000623514
0.00061787
0.000605018
0.000592131
0.000544738
6.97126e-05
0.000562754
0.000573867
0.000640273
0.000699444
0.000745514
0.000782293
0.000815042
0.000845239
0.000871354
0.000891817
0.000907008
0.000917613
0.000924144
0.000927511
0.00092815
0.000926962
0.000924069
0.000919026
0.000910142
0.000872404
0.000830486
0.00071766
0.000613992
0.000547368
0.000729595
1.03527e-05
1e-05
1e-05
1e-05
1e-05
1e-05
1e-05
1e-05
1e-05
1e-05
1e-05
1e-05
1e-05
1e-05
0.000986974
0.000868764
0.000479192
0.000240181
0.000198108
0.000193659
0.000191315
0.000188546
0.000187124
0.000186944
0.000187696
0.000189051
0.000190731
0.000192569
0.000194327
0.000195859
0.000197009
0.000197705
0.00019778
0.000197234
0.000196163
0.000194635
0.000192739
0.000190802
0.000189055
0.000187398
0.000185837
0.00018435
0.000183088
0.000182113
0.000181307
0.000180404
0.000180825
0.000194921
0.000216418
0.0002428
0.00027709
0.000342462
0.000209809
0.000969508
0.000897172
0.000903818
0.000921197
0.000934209
0.00093769
0.000947764
0.000961101
0.000974142
0.000986062
0.000996858
0.00100759
0.00101898
0.00103084
0.00104342
0.00105666
0.00106881
0.00107916
0.00108632
0.00110795
0.00111337
0.00103933
0.000938324
0.000818797
0.00084339
1.20009e-05
1e-05
1e-05
1e-05
1e-05
1e-05
1e-05
1e-05
1e-05
1e-05
1e-05
1e-05
1e-05
1e-05
0.000679767
0.000217999
0.000102771
4.36595e-05
3.81475e-05
3.82957e-05
3.82399e-05
3.75369e-05
3.70555e-05
3.68756e-05
3.66077e-05
3.64818e-05
3.66587e-05
3.69522e-05
3.74201e-05
3.80896e-05
3.88348e-05
3.9665e-05
4.05349e-05
4.13951e-05
4.22086e-05
4.29741e-05
4.36861e-05
4.43215e-05
4.48563e-05
4.53242e-05
4.5778e-05
4.62096e-05
4.6647e-05
4.71084e-05
4.75665e-05
4.79724e-05
4.86375e-05
5.24028e-05
5.79339e-05
6.4691e-05
7.45215e-05
4.99215e-05
9.26743e-05
0.00043442
0.000421562
0.000358507
0.000322481
0.000300428
0.000299085
0.000309105
0.000320989
0.000330467
0.000339498
0.000349196
0.000360598
0.000374291
0.000390414
0.00040919
0.000429926
0.000451455
0.000472188
0.000505142
0.000566808
0.000650953
0.000722326
0.000763329
0.000755552
0.000782901
1.81983e-05
1e-05
1e-05
1e-05
1e-05
1e-05
1e-05
1e-05
1e-05
1e-05
1e-05
1e-05
1e-05
1e-05
3.82816e-05
4.11579e-05
3.9922e-05
5.27389e-05
5.51369e-05
5.69486e-05
5.73941e-05
5.66385e-05
5.57842e-05
5.5097e-05
5.39693e-05
5.29328e-05
5.23342e-05
5.18873e-05
5.17353e-05
5.19729e-05
5.2399e-05
5.30725e-05
5.39123e-05
5.48836e-05
5.59262e-05
5.70286e-05
5.81684e-05
5.92024e-05
6.00015e-05
6.06389e-05
6.12177e-05
6.17209e-05
6.2168e-05
6.25734e-05
6.28894e-05
6.3159e-05
6.33621e-05
6.25448e-05
5.98973e-05
5.52433e-05
4.89634e-05
5.25249e-05
5.32571e-05
6.69899e-05
6.61152e-05
6.0791e-05
5.39686e-05
5.14476e-05
5.19078e-05
5.28657e-05
5.47098e-05
5.62789e-05
5.7609e-05
5.94769e-05
6.16951e-05
6.43954e-05
6.77709e-05
7.17308e-05
7.62576e-05
8.11644e-05
8.61975e-05
9.35096e-05
0.000107554
2.74631e-05
0.000130737
0.000259377
0.000373773
0.000461522
3.09407e-05
1e-05
1e-05
1e-05
1e-05
1e-05
1e-05
1e-05
1e-05
1e-05
1e-05
1e-05
1e-05
1e-05
2.89774e-05
8.56402e-05
0.00022482
0.000314674
0.000324617
0.000328118
0.000328746
0.000328627
0.000328225
0.000327774
0.000327381
0.000326902
0.000326326
0.000325663
0.000324837
0.000323825
0.000322637
0.000321265
0.000319698
0.000317927
0.000315976
0.00031386
0.000311563
0.000309143
0.000306685
0.000304109
0.000301398
0.000298524
0.00029559
0.000292723
0.000289707
0.000286674
0.000283555
0.0002755
0.000258696
0.000232587
0.000199416
0.000168676
0.000121671
6.01981e-05
4.8584e-05
5.74201e-05
5.97237e-05
6.33454e-05
6.47712e-05
6.47791e-05
6.53934e-05
6.59082e-05
6.59855e-05
6.64577e-05
6.69121e-05
6.74123e-05
6.80787e-05
6.93083e-05
7.03961e-05
7.14534e-05
7.24451e-05
7.33393e-05
7.40572e-05
7.42258e-05
8.60264e-05
0.000106962
6.19526e-05
0.000143506
4.47594e-05
1e-05
1e-05
1e-05
1e-05
1e-05
1e-05
1e-05
1e-05
1e-05
1e-05
1e-05
1e-05
1e-05
0.000130295
0.00042433
0.000546716
0.000536067
0.000530301
0.000528611
0.000525999
0.000523493
0.000521478
0.000519937
0.000518922
0.000518203
0.000517597
0.000517023
0.000516351
0.000515496
0.000514449
0.000513179
0.000511637
0.000509766
0.00050756
0.000505008
0.000502038
0.000498684
0.000495116
0.000491292
0.000487199
0.000482832
0.000478332
0.000473919
0.00046946
0.000464961
0.000460832
0.000455462
0.000444376
0.000425452
0.000401138
0.000363956
0.000292711
0.000287132
0.000303339
0.000347104
0.000377441
0.000399336
0.000404185
0.0004105
0.000415753
0.000420086
0.000423406
0.000425689
0.000427146
0.000427898
0.00042781
0.000431014
0.000432121
0.000432412
0.000431798
0.000430327
0.000427675
0.000402355
0.000354919
0.000307437
0.000256371
0.000199561
8.99098e-05
1e-05
1e-05
1e-05
1e-05
1e-05
1e-05
1e-05
1e-05
1e-05
1e-05
1e-05
1e-05
1e-05
0.000568254
0.000540104
0.000365027
0.0002813
0.000270423
0.000267326
0.000265311
0.000263139
0.000261406
0.000260226
0.000259652
0.000259522
0.000259623
0.000259846
0.000260082
0.000260259
0.000260348
0.000260307
0.000260089
0.000259652
0.000258983
0.000258064
0.000256885
0.000255505
0.000254046
0.00025249
0.000250831
0.000249096
0.000247336
0.00024566
0.000244093
0.000242522
0.000241321
0.000243793
0.000251537
0.000262322
0.000275482
0.00028599
0.000269051
0.000583878
0.000545173
0.000556185
0.00056577
0.000570037
0.000572051
0.000573379
0.000574139
0.000575033
0.000576073
0.000576983
0.000577889
0.000578903
0.000579841
0.000580546
0.000581388
0.000582744
0.000584091
0.000585076
0.000588827
0.000587237
0.00057015
0.000529966
0.000466382
0.000378319
0.000221208
1e-05
1e-05
1e-05
1e-05
1e-05
1e-05
1e-05
1e-05
1e-05
1e-05
1e-05
1e-05
1e-05
0.000449241
0.00020826
1.40983e-05
5.14456e-05
5.01766e-05
5.07775e-05
5.07336e-05
4.97259e-05
4.87344e-05
4.79573e-05
4.68429e-05
4.58439e-05
4.52455e-05
4.47737e-05
4.45906e-05
4.47832e-05
4.5196e-05
4.58657e-05
4.67445e-05
4.77906e-05
4.89443e-05
5.01894e-05
5.14921e-05
5.2692e-05
5.36417e-05
5.44463e-05
5.52103e-05
5.59331e-05
5.6616e-05
5.72723e-05
5.79112e-05
5.8505e-05
5.91421e-05
6.0528e-05
6.37014e-05
2.61817e-05
5.65002e-05
9.86225e-05
0.000138117
0.000307267
0.000293161
0.000270015
0.000257538
0.000246808
0.000238219
0.000232562
0.000228971
0.000227161
0.000226844
0.000227605
0.000229369
0.000232038
0.000235493
0.000239658
0.000244653
0.000250677
0.000257568
0.000265137
0.00027546
0.000299403
0.000335183
0.000362641
0.000384151
0.000370511
0.00032634
1.00001e-05
1e-05
1e-05
1e-05
1e-05
1e-05
1e-05
1e-05
1e-05
1e-05
1e-05
1e-05
1e-05
7.14221e-05
4.44889e-05
1.06217e-05
1.29228e-05
1.32495e-05
1.36596e-05
1.40794e-05
1.41632e-05
1.40741e-05
1.39518e-05
1.37749e-05
1.36049e-05
1.34924e-05
1.34016e-05
1.33458e-05
1.33393e-05
1.33632e-05
1.34212e-05
1.3512e-05
1.36289e-05
1.37676e-05
1.3925e-05
1.41014e-05
1.42758e-05
1.4419e-05
1.45374e-05
1.46468e-05
1.47489e-05
1.48436e-05
1.49324e-05
1.50164e-05
1.50942e-05
1.51431e-05
1.50567e-05
1.41744e-05
1.62146e-05
2.21554e-05
3.04568e-05
2.00203e-05
5.10748e-05
4.97065e-05
4.89715e-05
4.56702e-05
4.45353e-05
4.37511e-05
4.23753e-05
4.17786e-05
4.14324e-05
4.1113e-05
4.12419e-05
4.15676e-05
4.20951e-05
4.29222e-05
4.39413e-05
4.5195e-05
4.67013e-05
4.84315e-05
5.03462e-05
5.27705e-05
5.86759e-05
2.32217e-05
7.7318e-05
0.000141796
0.000187716
0.000269844
1.00006e-05
1e-05
1e-05
1e-05
1e-05
1e-05
1e-05
1e-05
1e-05
1e-05
1e-05
1e-05
1e-05
1.84224e-05
2.42142e-05
4.53601e-05
2.99866e-05
3.18107e-05
3.39375e-05
3.65475e-05
3.76229e-05
3.76306e-05
3.73311e-05
3.69846e-05
3.66567e-05
3.64496e-05
3.63318e-05
3.62555e-05
3.62451e-05
3.62882e-05
3.63653e-05
3.64807e-05
3.66256e-05
3.67901e-05
3.69643e-05
3.71534e-05
3.73553e-05
3.75241e-05
3.762e-05
3.76587e-05
3.76591e-05
3.76248e-05
3.75675e-05
3.74978e-05
3.74147e-05
3.71989e-05
3.62996e-05
3.13685e-05
2.3336e-05
1.86632e-05
4.10719e-05
3.60301e-05
2.08509e-05
2.13228e-05
2.34918e-05
2.37344e-05
2.43995e-05
2.49418e-05
2.48403e-05
2.48536e-05
2.48125e-05
2.46297e-05
2.45614e-05
2.45015e-05
2.44604e-05
2.44974e-05
2.455e-05
2.46437e-05
2.47747e-05
2.49297e-05
2.50951e-05
2.5253e-05
2.52443e-05
2.5554e-05
3.26536e-05
3.99885e-05
5.28528e-05
0.000121504
1.00038e-05
1e-05
1e-05
1e-05
1e-05
1e-05
1e-05
1e-05
1e-05
1e-05
1e-05
1e-05
1e-05
5.37725e-05
0.000116953
0.000237394
0.000244497
0.000244985
0.000245379
0.000247969
0.000249015
0.000248346
0.000247316
0.000246627
0.00024629
0.000246209
0.000246272
0.000246363
0.000246448
0.000246494
0.00024646
0.000246327
0.000246067
0.000245675
0.000245164
0.000244532
0.000243779
0.000242934
0.000241964
0.000240855
0.000239633
0.00023829
0.000236861
0.000235411
0.000233938
0.000232344
0.000230733
0.000224086
0.000211623
0.000191804
0.000161382
0.000126023
9.12443e-05
9.35543e-05
0.000103136
0.000108893
0.000112609
0.000115093
0.000116307
0.000116794
0.000116954
0.000116837
0.000116567
0.000116255
0.000115906
0.000115519
0.000115072
0.000114607
0.000114194
0.000113791
0.000113389
0.00011288
0.000111343
9.77808e-05
8.39248e-05
5.91382e-05
2.8027e-05
7.82815e-05
1.00346e-05
1.00001e-05
1e-05
1e-05
1e-05
1e-05
1e-05
1e-05
1e-05
1e-05
1e-05
1e-05
1e-05
0.000249439
0.000307724
0.000292759
0.00026896
0.00026336
0.000258386
0.000252517
0.000250781
0.000249199
0.000247867
0.000247284
0.000247272
0.000247497
0.000247808
0.000248116
0.000248349
0.00024849
0.000248514
0.000248396
0.00024811
0.000247661
0.00024707
0.000246324
0.000245422
0.000244452
0.000243429
0.000242316
0.00024113
0.000239845
0.000238472
0.000237095
0.000235734
0.000234268
0.00023364
0.000233734
0.000232378
0.000226026
0.000213679
0.000185411
0.000313297
0.000300293
0.000303905
0.000306857
0.000306989
0.000306073
0.000304664
0.000303067
0.000301723
0.000300611
0.000299721
0.000299126
0.000298741
0.000298465
0.000298195
0.00029797
0.000297907
0.000297814
0.000297482
0.000297067
0.000297144
0.000287607
0.000266751
0.000234521
0.000198917
0.000174224
1.05627e-05
1.00001e-05
1e-05
1e-05
1e-05
1e-05
1e-05
1e-05
1e-05
1e-05
1e-05
1e-05
1e-05
0.000317568
0.000211407
9.58607e-05
7.47182e-05
6.76997e-05
6.26078e-05
7.30173e-05
7.70119e-05
7.79062e-05
7.77338e-05
7.74549e-05
7.72518e-05
7.7059e-05
7.6854e-05
7.6643e-05
7.6424e-05
7.6226e-05
7.60399e-05
7.58831e-05
7.57549e-05
7.56588e-05
7.56189e-05
7.5641e-05
7.57368e-05
7.58576e-05
7.60226e-05
7.61706e-05
7.63016e-05
7.63935e-05
7.64522e-05
7.64713e-05
7.64633e-05
7.63006e-05
7.66912e-05
8.35383e-05
9.41252e-05
0.000105401
0.00012281
0.000129333
0.000251391
0.000238415
0.000232097
0.000228562
0.000224958
0.000221533
0.000218954
0.000216989
0.0002156
0.000214819
0.000214458
0.000214449
0.000214743
0.000215226
0.000215824
0.00021658
0.000217567
0.000218645
0.0002197
0.000220755
0.000224425
0.000232656
0.000238117
0.000236456
0.000226293
0.000208193
1.45635e-05
1.00031e-05
1e-05
1e-05
1e-05
1e-05
1e-05
1e-05
1e-05
1e-05
1e-05
1e-05
1e-05
9.92472e-05
1.24571e-05
2.36109e-05
2.00649e-05
1.91273e-05
1.85271e-05
2.02547e-05
2.06811e-05
2.05693e-05
2.03137e-05
1.9895e-05
1.94802e-05
1.91669e-05
1.88647e-05
1.86414e-05
1.85329e-05
1.84962e-05
1.85533e-05
1.86989e-05
1.89224e-05
1.92113e-05
1.95665e-05
1.9986e-05
2.04075e-05
2.07468e-05
2.10536e-05
2.13643e-05
2.16755e-05
2.19824e-05
2.22825e-05
2.25721e-05
2.28518e-05
2.30977e-05
2.34495e-05
2.5126e-05
2.76341e-05
3.07566e-05
1.90585e-05
4.79231e-05
4.0326e-05
5.30181e-05
4.41128e-05
3.99016e-05
3.7585e-05
3.6034e-05
3.48897e-05
3.42141e-05
3.38448e-05
3.37409e-05
3.38724e-05
3.41846e-05
3.46608e-05
3.5307e-05
3.60968e-05
3.70735e-05
3.82541e-05
3.96566e-05
4.12777e-05
4.28537e-05
4.53144e-05
5.76501e-05
7.95339e-05
0.000104146
0.000128063
0.000142729
2.73576e-05
1.00375e-05
1.00001e-05
1e-05
1e-05
1e-05
1e-05
1e-05
1e-05
1e-05
1e-05
1e-05
1e-05
2.59249e-05
1.21195e-05
1.82902e-05
1.92261e-05
1.99662e-05
2.055e-05
1.99948e-05
1.96794e-05
1.95189e-05
1.87456e-05
1.80339e-05
1.75861e-05
1.72944e-05
1.70335e-05
1.68407e-05
1.67435e-05
1.67019e-05
1.67349e-05
1.68379e-05
1.70015e-05
1.72132e-05
1.74754e-05
1.77807e-05
1.80722e-05
1.82848e-05
1.846e-05
1.86374e-05
1.8814e-05
1.89878e-05
1.91559e-05
1.93196e-05
1.94802e-05
1.96371e-05
1.97914e-05
1.95261e-05
1.84432e-05
1.65759e-05
1.66476e-05
2.04893e-05
1.43097e-05
1.61934e-05
1.52455e-05
1.44042e-05
1.41013e-05
1.39165e-05
1.36689e-05
1.35497e-05
1.34737e-05
1.34105e-05
1.34141e-05
1.34456e-05
1.35057e-05
1.36105e-05
1.37439e-05
1.39178e-05
1.41333e-05
1.43933e-05
1.46969e-05
1.5002e-05
1.54475e-05
1.74331e-05
2.09542e-05
2.58202e-05
1.92494e-05
4.46351e-05
3.83331e-05
1.0249e-05
1.00001e-05
1e-05
1e-05
1e-05
1e-05
1e-05
1e-05
1e-05
1e-05
1e-05
1e-05
2.17768e-05
2.29852e-05
6.50488e-05
7.12415e-05
7.50811e-05
7.73183e-05
7.36432e-05
7.30923e-05
7.37334e-05
7.00582e-05
6.75235e-05
6.68164e-05
6.66378e-05
6.66438e-05
6.66967e-05
6.67437e-05
6.67765e-05
6.67839e-05
6.67622e-05
6.67053e-05
6.66168e-05
6.64981e-05
6.63458e-05
6.61736e-05
6.60082e-05
6.58491e-05
6.56759e-05
6.5489e-05
6.52856e-05
6.50593e-05
6.48178e-05
6.45722e-05
6.43338e-05
6.41079e-05
6.16242e-05
5.48942e-05
4.43233e-05
3.40661e-05
2.12484e-05
3.45369e-05
2.54753e-05
2.6195e-05
2.53501e-05
2.53363e-05
2.5416e-05
2.50589e-05
2.49626e-05
2.48857e-05
2.4702e-05
2.46647e-05
2.46323e-05
2.46159e-05
2.46785e-05
2.47574e-05
2.48796e-05
2.50335e-05
2.52065e-05
2.53786e-05
2.55451e-05
2.5713e-05
2.54647e-05
2.41753e-05
2.20857e-05
2.13056e-05
2.43979e-05
1.65571e-05
1.07774e-05
1.00016e-05
1e-05
1e-05
1e-05
1e-05
1e-05
1e-05
1e-05
1e-05
1e-05
1e-05
8.62892e-05
0.000151433
0.000164489
0.000162808
0.00016367
0.000164439
0.000164498
0.000164251
0.00016534
0.000163327
0.000161608
0.000162541
0.000163084
0.000163439
0.000163675
0.000163834
0.000163952
0.000164045
0.000164119
0.000164175
0.000164216
0.000164245
0.000164252
0.000164219
0.00016415
0.00016403
0.000163824
0.000163543
0.000163192
0.000162752
0.000162248
0.000161692
0.000161124
0.000160659
0.000154726
0.000148973
0.000143682
0.000128373
0.00010452
0.000127892
0.000121282
0.000119092
0.000118178
0.000117257
0.000116751
0.000116698
0.000116856
0.000117224
0.000117693
0.000118172
0.000118638
0.000119049
0.000119389
0.000119666
0.000119917
0.000120172
0.000120378
0.000120466
0.000120474
0.00012055
0.00011799
0.000108436
9.3756e-05
7.75904e-05
6.37237e-05
4.71571e-05
1.47536e-05
1.00377e-05
1e-05
1e-05
1e-05
1e-05
1e-05
1e-05
1e-05
1e-05
1e-05
1e-05
0.000196873
0.000159806
0.000125553
0.000116423
0.000112584
0.000111453
0.000111076
0.000110904
0.000110861
0.000113049
0.000113855
0.000114293
0.000114588
0.000114814
0.000115003
0.000115167
0.000115304
0.000115441
0.000115561
0.000115665
0.00011575
0.000115823
0.000115866
0.000115857
0.000115799
0.000115707
0.000115567
0.00011538
0.000115161
0.000114896
0.000114609
0.000114281
0.000113936
0.000113756
0.000114646
0.000116827
0.000119752
0.000120627
0.00011239
0.000188556
0.00017321
0.000169492
0.000167258
0.000165542
0.000164363
0.000163852
0.000163652
0.000163683
0.000163867
0.000164086
0.000164316
0.000164524
0.000164683
0.000164818
0.000164987
0.000165234
0.000165488
0.000165647
0.000165759
0.000166328
0.000167109
0.000164219
0.00015651
0.000144477
0.000128308
0.000104218
3.92752e-05
1.05645e-05
1.00015e-05
1e-05
1e-05
1e-05
1e-05
1e-05
1e-05
1e-05
1e-05
1e-05
0.000124437
5.50714e-05
2.70892e-05
2.16517e-05
1.88298e-05
1.80272e-05
1.79208e-05
1.78075e-05
1.7672e-05
1.75399e-05
1.73956e-05
1.72539e-05
1.71149e-05
1.69827e-05
1.68593e-05
1.67458e-05
1.66419e-05
1.65479e-05
1.64686e-05
1.64065e-05
1.63641e-05
1.63532e-05
1.63759e-05
1.64311e-05
1.65094e-05
1.66098e-05
1.67249e-05
1.68477e-05
1.6974e-05
1.71026e-05
1.72315e-05
1.73554e-05
1.74266e-05
1.74032e-05
1.87024e-05
2.45333e-05
3.46384e-05
4.87911e-05
6.03382e-05
7.82149e-05
8.22519e-05
7.81483e-05
7.57721e-05
7.43809e-05
7.3499e-05
7.30331e-05
7.27454e-05
7.24926e-05
7.22806e-05
7.20786e-05
7.19044e-05
7.17595e-05
7.16482e-05
7.15889e-05
7.16162e-05
7.17605e-05
7.20003e-05
7.23064e-05
7.26671e-05
7.33388e-05
7.64627e-05
8.39986e-05
9.237e-05
9.92593e-05
0.000102504
0.000100566
7.18131e-05
1.35479e-05
1.00276e-05
1e-05
1e-05
1e-05
1e-05
1e-05
1e-05
1e-05
1e-05
1e-05
3.3921e-05
1.65196e-05
1.2726e-05
1.18942e-05
1.14858e-05
1.13768e-05
1.13545e-05
1.129e-05
1.12151e-05
1.11604e-05
1.10886e-05
1.10161e-05
1.09558e-05
1.08974e-05
1.0849e-05
1.08155e-05
1.07908e-05
1.07782e-05
1.07771e-05
1.07874e-05
1.08075e-05
1.08395e-05
1.08838e-05
1.09322e-05
1.09731e-05
1.10127e-05
1.10564e-05
1.11031e-05
1.11522e-05
1.12033e-05
1.12558e-05
1.1309e-05
1.13537e-05
1.13819e-05
1.16629e-05
1.2842e-05
1.4928e-05
1.80408e-05
1.19679e-05
1.99005e-05
2.06096e-05
2.06848e-05
1.9865e-05
1.97347e-05
1.9699e-05
1.94067e-05
1.92853e-05
1.91612e-05
1.89664e-05
1.8865e-05
1.87724e-05
1.86962e-05
1.86797e-05
1.86837e-05
1.87277e-05
1.88072e-05
1.89169e-05
1.90455e-05
1.91856e-05
1.93624e-05
1.9878e-05
2.11366e-05
1.09792e-05
2.51784e-05
4.0131e-05
5.48421e-05
6.04259e-05
2.14816e-05
1.02518e-05
1.00006e-05
1e-05
1e-05
1e-05
1e-05
1e-05
1e-05
1e-05
1e-05
1.25439e-05
1.87878e-05
2.02946e-05
1.02331e-05
1.03517e-05
1.0285e-05
1.02368e-05
1.01412e-05
1.00175e-05
1.97336e-05
1.92809e-05
1.88042e-05
1.84171e-05
1.80207e-05
1.76898e-05
1.74776e-05
1.73312e-05
1.72883e-05
1.73458e-05
1.74975e-05
1.77307e-05
1.80506e-05
1.84527e-05
1.88456e-05
1.91119e-05
1.93149e-05
1.95237e-05
1.97375e-05
1.99572e-05
2.01781e-05
2.04006e-05
2.06238e-05
2.08477e-05
2.10757e-05
2.12864e-05
2.11009e-05
2.03587e-05
1.8906e-05
1.74874e-05
1.69455e-05
1.3918e-05
1.42773e-05
1.42753e-05
1.43832e-05
1.44353e-05
1.4324e-05
1.42945e-05
1.42822e-05
1.42386e-05
1.42409e-05
1.42444e-05
1.42486e-05
1.42745e-05
1.43011e-05
1.43376e-05
1.43811e-05
1.44281e-05
1.4473e-05
1.4513e-05
1.4538e-05
1.45178e-05
1.40106e-05
1.33615e-05
1.48271e-05
1.60989e-05
1.88992e-05
2.23976e-05
2.38645e-05
1.10552e-05
1.00113e-05
1.00001e-05
1e-05
1e-05
1e-05
1e-05
1e-05
1e-05
1e-05
2.85009e-05
7.34851e-05
7.72997e-05
7.89435e-05
7.82936e-05
7.75588e-05
7.7172e-05
7.69006e-05
7.6708e-05
7.66062e-05
7.66014e-05
7.66334e-05
7.66847e-05
7.6753e-05
7.68166e-05
7.68797e-05
7.69421e-05
7.6997e-05
7.70439e-05
7.70791e-05
7.70985e-05
7.71009e-05
7.70905e-05
7.70719e-05
7.70373e-05
7.69726e-05
7.68793e-05
7.67664e-05
7.66423e-05
7.64998e-05
7.63485e-05
7.61828e-05
7.60033e-05
7.58355e-05
7.55556e-05
7.30006e-05
6.74621e-05
5.82579e-05
4.79775e-05
4.57478e-05
3.78589e-05
3.85169e-05
3.98539e-05
4.03926e-05
4.04729e-05