/*--------------------------------*- C++ -*----------------------------------*\
| =========                 |                                                 |
| \\      /  F ield         | OpenFOAM: The Open Source CFD Toolbox           |
|  \\    /   O peration     | Version:  2312                                  |
|   \\  /    A nd           | Website:  www.openfoam.com                      |
|    \\/     M anipulation  |                                                 |
\*---------------------------------------------------------------------------*/
FoamFile
{
    version     2.0;
    format      ascii;
    arch        "LSB;label=32;scalar=64";
    class       volVectorField;
    location    "350";
    object      U;
}
// * * * * * * * * * * * * * * * * * * * * * * * * * * * * * * * * * * * * * //

dimensions      [0 1 -1 0 0 0 0];

internalField   nonuniform List<vector> 
10720
(
(0.619803 25.6691 5.30069e-18)
(2.2234 27.9911 -4.84203e-18)
(4.26406 30.2473 0)
(6.63638 32.0508 -3.23154e-16)
(9.27853 33.4742 3.60147e-16)
(12.1261 34.4699 2.73636e-16)
(15.0288 34.9372 3.96773e-16)
(17.8916 34.906 0)
(20.6312 34.4339 0)
(23.1654 33.5575 0)
(25.4543 32.3478 1.16142e-16)
(27.4769 30.9105 0)
(29.1726 29.2267 2.25076e-15)
(30.5168 27.3172 0)
(31.4725 25.2006 0)
(32.0268 22.9085 0)
(32.1407 20.4448 -4.04922e-15)
(31.7901 17.8578 -6.26023e-15)
(30.9494 15.173 5.77038e-15)
(29.6812 12.4644 0)
(28.084 9.81476 5.17861e-15)
(26.4461 7.34756 -1.06053e-14)
(25.2141 5.18801 5.39045e-15)
(24.8517 3.58453 -1.52523e-16)
(26.8424 2.32092 0)
(28.9483 1.95139 1.21307e-15)
(31.3143 1.54408 1.16002e-17)
(32.0099 0.00459281 -2.25381e-16)
(31.4067 -1.913 -8.5117e-16)
(30.493 -2.70081 -3.18039e-15)
(29.1285 -2.82343 1.82488e-15)
(26.5987 -2.78638 4.74893e-15)
(21.7577 -2.27591 4.16879e-15)
(11.7796 -1.12556 1.35038e-14)
(0.446814 0.0179013 -8.28964e-15)
(-2.22027 0.0915102 -9.523e-17)
(-2.93312 -0.241266 1.01922e-16)
(-6.78973 0.726141 2.29763e-14)
(-8.23463 1.05315 -1.76976e-14)
(-0.619383 23.2112 -5.57858e-18)
(-1.58608 20.4637 -2.40479e-17)
(-2.20598 17.3914 8.25582e-17)
(-2.36258 13.8685 -2.24958e-16)
(-1.90303 10.25 -7.40413e-16)
(-0.821589 6.70032 1.31137e-15)
(0.732895 3.55625 7.73387e-15)
(2.49669 0.998451 3.21747e-15)
(4.53334 -1.34742 0)
(6.85119 -3.29772 0)
(9.13705 -4.65311 1.73135e-15)
(11.2009 -5.47503 6.3557e-16)
(13.0158 -5.91308 -1.0714e-15)
(14.5984 -6.08758 8.79683e-16)
(15.9718 -6.09197 1.44343e-15)
(17.1693 -5.98635 9.24253e-16)
(18.2229 -5.82038 1.15659e-15)
(19.1668 -5.61476 7.51695e-16)
(20.0337 -5.38225 0)
(20.8422 -5.13764 0)
(21.612 -4.87709 -9.33073e-16)
(22.3553 -4.58249 -3.74052e-17)
(23.0748 -4.2321 5.0912e-16)
(23.7315 -3.81876 -2.67731e-16)
(24.2578 -3.33314 2.79934e-17)
(24.6344 -2.79671 0)
(24.8807 -2.23005 -6.91055e-17)
(25.0199 -1.6699 0)
(25.0046 -1.13846 0)
(24.8051 -0.639137 -1.63809e-16)
(24.416 -0.1695 0)
(23.8401 0.268903 8.1668e-16)
(23.0793 0.671048 1.60261e-15)
(22.1361 1.02874 8.25337e-15)
(21.0011 1.34089 -3.23235e-15)
(19.6822 1.57547 1.3075e-17)
(18.1649 1.92402 0)
(17.1461 1.31276 -4.84649e-15)
(21.6215 3.71175 -1.05237e-15)
(7.07108 22.203 -1.35457e-17)
(8.82592 23.9481 6.12565e-18)
(10.9863 25.5498 0)
(13.4975 26.9079 0)
(16.2249 27.9567 -1.0527e-16)
(19.1736 28.6347 -2.6296e-16)
(22.236 28.8925 0)
(25.2835 28.746 0)
(28.2631 28.2017 5.91275e-16)
(31.0896 27.3036 0)
(33.7131 26.1097 2.25143e-15)
(36.1006 24.6569 0)
(38.2643 23.0662 8.18128e-16)
(40.2205 21.3977 -8.02605e-16)
(41.9898 19.6679 1.62993e-15)
(43.5258 17.9141 -3.25573e-15)
(44.8066 16.1543 3.4822e-15)
(45.8034 14.4032 3.16277e-15)
(46.4683 12.6511 3.08342e-15)
(46.7148 10.8957 1.87718e-16)
(46.4359 9.11516 -3.22116e-15)
(45.5632 7.28946 3.09589e-15)
(44.0351 5.38637 -1.75697e-16)
(42.1093 3.38568 0)
(39.1847 1.75799 0)
(36.1809 0.388159 0)
(34.0966 -0.329473 5.71595e-17)
(33.0382 -0.700954 -9.18442e-18)
(32.1619 -1.05635 6.19447e-16)
(31.2136 -1.57571 -1.97685e-17)
(30.1392 -2.10071 4.74456e-18)
(29.1765 -2.46521 -2.71401e-17)
(28.5101 -2.58049 2.58333e-15)
(24.603 -2.0547 -2.91783e-15)
(13.9482 -1.0816 -1.30189e-17)
(-0.779354 0.462896 -5.20209e-15)
(-4.40844 0.885914 0)
(-7.0113 1.54448 -7.66868e-15)
(-8.4026 1.09109 -9.12059e-15)
(5.61207 20.3592 1.85343e-17)
(4.36609 18.3234 -6.54572e-17)
(3.31194 15.9535 -7.42511e-16)
(2.55742 13.2824 9.27311e-16)
(2.28099 10.4019 0)
(2.5643 7.46433 -1.94504e-15)
(3.40084 4.6822 -1.52223e-15)
(4.63685 2.18823 -9.6634e-15)
(6.18972 -0.0295864 2.28851e-15)
(8.02983 -1.77266 -1.6783e-15)
(9.94937 -2.96194 2.11103e-15)
(11.7877 -3.69995 -5.96574e-16)
(13.4866 -4.11621 0)
(15.0289 -4.30217 -3.81896e-16)
(16.41 -4.33618 6.44303e-17)
(17.6436 -4.26858 -8.22935e-16)
(18.7502 -4.14014 0)
(19.755 -3.97622 0)
(20.6803 -3.79447 -7.92427e-17)
(21.5537 -3.58188 7.71615e-17)
(22.3903 -3.33796 -8.52088e-16)
(23.2009 -3.04599 -8.57747e-17)
(23.9807 -2.68955 3.56147e-17)
(24.7152 -2.21482 3.04797e-16)
(25.3496 -1.6342 -1.1381e-16)
(25.8574 -1.02239 -2.23082e-17)
(26.2638 -0.406516 0)
(26.5747 0.198654 0)
(26.8412 0.788571 0)
(27.0886 1.35805 9.70872e-18)
(27.3183 1.89512 0)
(27.5254 2.39252 0)
(27.7002 2.84605 -2.50584e-15)
(27.8313 3.25472 -2.45898e-15)
(27.8925 3.61637 2.30484e-15)
(27.8951 3.96249 -2.04258e-15)
(27.6275 4.20197 3.6635e-15)
(27.7797 5.07249 2.8044e-15)
(24.539 4.58753 2.35218e-16)
(8.44813 20.4525 -3.34026e-18)
(9.68739 21.987 -1.99441e-17)
(11.2109 23.4925 1.31391e-17)
(12.9778 24.8997 -1.81068e-17)
(14.9414 26.0895 -1.30151e-16)
(17.1016 27.039 4.78707e-16)
(19.3882 27.7075 -3.41373e-16)
(21.7297 28.0554 -4.22577e-16)
(24.0705 28.0802 1.11473e-17)
(26.3535 27.7902 -5.78235e-16)
(28.5256 27.2046 5.47676e-16)
(30.5523 26.3506 -1.44895e-15)
(32.4025 25.2539 -6.9327e-16)
(34.0647 23.9386 0)
(35.5123 22.445 -1.71056e-15)
(36.7843 20.7883 3.46699e-15)
(37.9259 18.9772 0)
(38.9479 17.0528 -6.6032e-15)
(39.8846 15.0421 -3.30755e-15)
(40.7348 12.9872 3.8489e-16)
(41.5003 10.9032 -3.76306e-16)
(42.0774 8.826 -1.71349e-16)
(42.3007 6.75886 -2.41082e-15)
(42.0186 4.85226 1.23323e-15)
(40.9971 3.1479 0)
(39.7733 1.8452 9.62676e-16)
(37.2753 0.524497 -7.49967e-17)
(34.96 -0.40679 0)
(33.2498 -1.06037 9.20696e-16)
(31.7307 -1.67089 1.4596e-15)
(30.3896 -2.17985 -2.73846e-15)
(29.0729 -2.52282 -2.85459e-15)
(27.9108 -2.50442 -3.98535e-17)
(27.6578 -2.05473 -2.37858e-15)
(22.4819 -1.45583 -1.09138e-15)
(4.93745 0.439193 2.48631e-15)
(-4.61074 0.905692 0)
(-6.59126 1.70964 -1.10742e-14)
(-8.67989 0.59295 1.73925e-14)
(7.45095 18.8481 -2.22305e-17)
(6.58849 17.1079 -7.26351e-17)
(5.89623 15.0713 3.03514e-16)
(5.36681 12.8063 0)
(5.14904 10.3884 5.35565e-16)
(5.28359 7.89873 0)
(5.79583 5.47065 3.85474e-15)
(6.63724 3.21098 1.94935e-15)
(7.79711 1.19992 1.5854e-15)
(9.21151 -0.465433 0)
(10.7353 -1.75231 -2.21328e-15)
(12.2537 -2.69905 -4.61665e-16)
(13.7084 -3.3669 2.07932e-15)
(15.0704 -3.8106 0)
(16.325 -4.0799 -9.3322e-16)
(17.4723 -4.21729 -2.79434e-16)
(18.5213 -4.25954 1.12044e-15)
(19.4878 -4.23181 5.66992e-16)
(20.3906 -4.14979 1.48685e-16)
(21.2465 -4.01741 -8.39158e-17)
(22.0686 -3.83602 7.82396e-16)
(22.866 -3.59578 0)
(23.6413 -3.27859 0)
(24.3711 -2.86883 2.79421e-17)
(25.0124 -2.38037 0)
(25.5412 -1.86279 7.14239e-17)
(25.9669 -1.34369 4.12922e-19)
(26.3046 -0.821344 3.22192e-17)
(26.5598 -0.302422 0)
(26.736 0.204262 1.28577e-16)
(26.8448 0.697173 -2.71355e-16)
(26.8997 1.17486 0)
(26.9146 1.63648 1.20569e-15)
(26.9069 2.08139 0)
(26.8836 2.51624 0)
(26.8916 2.94391 5.60863e-17)
(26.806 3.42781 -1.40725e-16)
(26.785 3.94076 -2.62877e-15)
(25.1004 4.48967 -1.73658e-16)
(10.9659 18.7106 -1.78134e-17)
(12.1219 20.0114 -1.95022e-17)
(13.5225 21.2885 1.67306e-17)
(15.1483 22.4716 8.2712e-18)
(16.9578 23.4686 0)
(18.9575 24.2617 0)
(21.0957 24.8061 -5.6633e-16)
(23.3148 25.0645 7.0625e-16)
(25.5698 25.0273 0)
(27.8074 24.6936 -9.05025e-16)
(29.9768 24.0742 -1.18211e-15)
(32.04 23.188 -1.11953e-15)
(33.9614 22.0632 1.3612e-15)
(35.7122 20.735 1.28518e-15)
(37.2759 19.2372 0)
(38.6391 17.6043 2.07164e-15)
(39.7553 15.8903 7.17729e-16)
(40.6051 14.1349 5.84076e-15)
(41.1841 12.3652 3.54869e-16)
(41.51 10.5985 -3.51263e-16)
(41.6081 8.85186 2.99062e-15)
(41.5136 7.1372 -4.93347e-16)
(41.2341 5.46515 2.71561e-15)
(40.7152 3.89334 1.1414e-15)
(40.0164 2.60392 -6.28082e-17)
(39.2384 1.577 -9.51564e-16)
(38.3408 0.758976 5.99865e-18)
(36.9852 -0.0668468 -5.75712e-18)
(35.4211 -0.885374 -1.35684e-15)
(33.6855 -1.59641 -3.46822e-17)
(31.8306 -2.13432 2.1402e-15)
(29.9624 -2.47387 -3.4335e-15)
(27.9007 -2.43794 -2.28319e-15)
(27.2263 -1.87288 -9.37379e-17)
(26.2034 -1.35016 8.00062e-16)
(13.0176 0.19029 0)
(1.15236 0.329183 3.22091e-15)
(-5.72873 1.79926 1.34871e-14)
(-8.93927 0.306831 -9.36014e-15)
(10.0076 17.3589 -3.40944e-17)
(9.15906 15.9029 1.03039e-16)
(8.43912 14.1931 4.1556e-16)
(7.85906 12.2744 0)
(7.54366 10.2165 -4.6608e-16)
(7.52155 8.07622 0)
(7.81199 5.94722 -2.7591e-15)
(8.38967 3.92488 -1.01563e-16)
(9.24421 2.08926 1.16898e-15)
(10.3275 0.512981 1.00399e-15)
(11.5451 -0.763873 3.14592e-17)
(12.8132 -1.74514 1.66681e-15)
(14.0776 -2.46595 -1.04485e-15)
(15.3023 -2.96738 3.33235e-16)
(16.4641 -3.28908 1.11106e-15)
(17.5532 -3.4703 1.20053e-15)
(18.5689 -3.54489 -1.05541e-15)
(19.5175 -3.53919 9.94222e-18)
(20.4103 -3.47201 0)
(21.2598 -3.35132 1.01753e-15)
(22.0756 -3.17914 4.61689e-17)
(22.8641 -2.94874 -6.89176e-16)
(23.6247 -2.64962 0)
(24.3409 -2.26101 2.81169e-17)
(24.9766 -1.78912 0)
(25.5079 -1.27222 -4.55792e-17)
(25.9399 -0.729772 0)
(26.2846 -0.176186 -3.07874e-17)
(26.5472 0.37849 2.02539e-18)
(26.7317 0.923626 -1.49398e-18)
(26.844 1.44833 2.49349e-16)
(26.8909 1.93959 7.93162e-18)
(26.8793 2.39251 0)
(26.8183 2.80544 -1.0216e-15)
(26.7125 3.18464 -1.59871e-17)
(26.5802 3.53401 1.84865e-15)
(26.381 3.91638 -6.55722e-15)
(26.1355 4.30888 -9.69582e-18)
(25.1674 4.46285 0)
(12.5241 17.4121 -2.39914e-17)
(13.4952 18.5634 -1.12325e-17)
(14.6774 19.7148 2.888e-17)
(16.0409 20.8078 7.22357e-18)
(17.55 21.7579 -1.86288e-17)
(19.2251 22.5614 -1.27579e-16)
(21.0232 23.1784 2.37553e-16)
(22.8998 23.5719 0)
(24.8256 23.7311 1.01613e-15)
(26.7559 23.647 4.93083e-16)
(28.6502 23.3191 0)
(30.4746 22.7566 1.07598e-15)
(32.1949 21.9759 -5.77397e-16)
(33.7824 20.9964 1.60448e-15)
(35.2166 19.8415 0)
(36.4773 18.5331 -2.73529e-15)
(37.5572 17.082 2.61932e-15)
(38.4628 15.4886 -1.67174e-16)
(39.185 13.7723 0)
(39.7055 11.968 2.86507e-15)
(40.0049 10.1107 -2.91228e-15)
(40.0646 8.2509 -1.49511e-16)
(39.87 6.43376 -2.2876e-15)
(39.3959 4.74634 -2.12978e-15)
(38.7025 3.28682 0)
(37.8894 2.10778 0)
(37.1445 1.15336 -2.18092e-16)
(36.4239 0.256496 -2.37556e-17)
(35.5785 -0.607525 1.45805e-15)
(34.527 -1.34642 -3.64109e-17)
(33.2291 -1.92252 3.68571e-17)
(31.6745 -2.29581 3.33832e-15)
(29.6024 -2.35516 0)
(27.507 -1.78902 4.31934e-15)
(27.2986 -1.12508 -9.9736e-18)
(19.7958 -0.0255117 0)
(9.85787 -0.212397 1.49358e-17)
(-3.03921 1.77927 0)
(-9.26951 0.19249 1.26043e-14)
(11.7129 16.222 3.72514e-17)
(10.9914 14.9526 -2.18815e-16)
(10.359 13.46 -4.52095e-17)
(9.82206 11.7877 9.2486e-16)
(9.49126 9.99893 -1.45207e-15)
(9.38855 8.1289 -1.86963e-15)
(9.53611 6.24312 2.09133e-15)
(9.92838 4.42802 -2.01914e-15)
(10.5611 2.76005 -8.86332e-16)
(11.3977 1.29213 -7.75076e-16)
(12.3731 0.0579269 1.48654e-15)
(13.4239 -0.935654 -1.40609e-15)
(14.5051 -1.70931 -6.03997e-16)
(15.5821 -2.29096 5.88731e-16)
(16.6297 -2.7069 -1.24634e-15)
(17.6337 -2.98705 2.30824e-16)
(18.5878 -3.15769 0)
(19.4924 -3.24064 -8.22086e-16)
(20.3528 -3.25167 2.85223e-16)
(21.1771 -3.19925 -1.07254e-15)
(21.9721 -3.08556 0)
(22.7417 -2.90661 6.0012e-16)
(23.4845 -2.65324 4.40684e-16)
(24.1858 -2.31322 -2.77185e-16)
(24.8147 -1.89277 0)
(25.3481 -1.42452 -9.13926e-17)
(25.7873 -0.934015 0)
(26.1413 -0.433628 0)
(26.4146 0.0669236 0)
(26.6107 0.557838 -9.10314e-17)
(26.7349 1.03048 0)
(26.7947 1.48361 0)
(26.7972 1.91649 9.66663e-16)
(26.7502 2.32771 9.88392e-16)
(26.6571 2.72053 0)
(26.5268 3.10086 1.65943e-15)
(26.3309 3.50176 1.10153e-16)
(26.0314 3.91496 0)
(25.2226 4.42836 2.52498e-17)
(14.0007 16.269 3.08365e-17)
(14.8807 17.2863 -2.19856e-17)
(15.9475 18.3097 0)
(17.1735 19.284 9.82833e-18)
(18.5241 20.1339 -3.99568e-17)
(20.0278 20.8612 1.19568e-16)
(21.648 21.4276 4.37212e-17)
(23.3487 21.8 -5.96663e-16)
(25.1102 21.9644 -8.61027e-17)
(26.8962 21.9081 9.80847e-16)
(28.6721 21.6251 -3.53065e-16)
(30.4087 21.1169 8.17251e-16)
(32.0732 20.3914 4.11423e-16)
(33.6369 19.4609 2.88835e-16)
(35.0755 18.3427 0)
(36.3672 17.0559 -5.88419e-16)
(37.4939 15.6223 -1.31847e-15)
(38.4249 14.088 -4.87016e-15)
(39.139 12.4922 1.43911e-15)
(39.6279 10.8591 -1.84203e-15)
(39.8843 9.21104 -2.87787e-16)
(39.9047 7.57033 0)
(39.6813 5.96146 2.04245e-15)
(39.2038 4.43835 1.30918e-16)
(38.5032 3.09243 -5.74107e-17)
(37.676 1.98416 -7.95138e-16)
(36.838 1.05616 1.78648e-16)
(36.0227 0.196254 3.67094e-16)
(35.1708 -0.606947 -1.34993e-15)
(34.2315 -1.29812 -6.71002e-17)
(33.1849 -1.85059 2.05428e-15)
(32.0032 -2.20947 2.93659e-15)
(30.5925 -2.27763 0)
(28.5446 -1.76998 7.11414e-17)
(27.735 -0.958016 -8.07981e-16)
(24.0271 -0.123844 0)
(16.9277 -0.450264 -2.1262e-15)
(1.1357 1.74668 0)
(-9.3274 -0.0123947 -1.99474e-14)
(13.2577 15.2204 -3.66154e-17)
(12.5927 14.1088 8.83884e-17)
(11.996 12.7975 -2.14448e-16)
(11.4755 11.325 0)
(11.1276 9.75069 6.12566e-16)
(10.9683 8.09781 2.99969e-15)
(11.0177 6.41231 0)
(11.2784 4.77551 -1.46508e-15)
(11.7476 3.25856 -1.38571e-15)
(12.397 1.89874 1.37585e-15)
(13.1801 0.724471 -5.46612e-17)
(14.0495 -0.250944 5.88236e-16)
(14.9702 -1.03827 3.67979e-17)
(15.9121 -1.65528 1.50854e-15)
(16.8512 -2.1186 1.32767e-15)
(17.772 -2.44999 -1.23252e-15)
(18.6649 -2.66971 1.68681e-16)
(19.5256 -2.79594 -3.11101e-16)
(20.3546 -2.84295 1.4268e-16)
(21.1555 -2.81974 7.9849e-16)
(21.9318 -2.73009 1.0129e-16)
(22.6849 -2.57237 -6.55113e-17)
(23.412 -2.34015 -3.70326e-16)
(24.0998 -2.02502 0)
(24.7218 -1.63128 9.44054e-18)
(25.256 -1.18473 1.84743e-16)
(25.7002 -0.708645 3.32857e-19)
(26.0607 -0.215047 -3.33135e-19)
(26.3415 0.286631 0)
(26.5453 0.786181 8.6178e-17)
(26.6772 1.27513 0)
(26.7438 1.74453 0)
(26.752 2.18676 -9.06672e-16)
(26.7095 2.59824 -8.83929e-16)
(26.6199 2.98306 0)
(26.4936 3.34321 -1.57565e-15)
(26.2949 3.72396 5.48356e-15)
(26.0303 4.08536 -1.62725e-17)
(25.2966 4.39241 -4.38366e-17)
(15.1972 15.3026 2.10704e-18)
(15.9862 16.2146 -2.01599e-17)
(16.9421 17.1394 2.69909e-17)
(18.0354 18.0253 -2.61578e-17)
(19.2317 18.805 3.19565e-17)
(20.5644 19.486 0)
(21.9999 20.0354 -2.47521e-16)
(23.508 20.4229 9.95372e-19)
(25.0771 20.6369 -2.89008e-16)
(26.676 20.6644 -5.90599e-16)
(28.2774 20.4968 0)
(29.8573 20.1321 -1.47733e-15)
(31.3861 19.5734 -1.29024e-15)
(32.837 18.8278 -3.16451e-15)
(34.1858 17.9076 0)
(35.4089 16.8284 -1.98305e-15)
(36.4837 15.6097 -2.09861e-15)
(37.3948 14.2647 2.29956e-15)
(38.1321 12.8036 -2.26804e-15)
(38.6806 11.2505 2.10123e-15)
(39.026 9.6353 2.59671e-16)
(39.1528 7.99846 -2.238e-15)
(39.0466 6.38353 0)
(38.6945 4.85355 -1.93344e-15)
(38.1165 3.49186 1.14358e-16)
(37.3961 2.34559 8.27619e-16)
(36.6278 1.36823 0)
(35.8317 0.474854 -2.72995e-17)
(34.9637 -0.351995 5.65444e-17)
(33.9913 -1.06916 2.10123e-15)
(32.9263 -1.64259 -1.81192e-15)
(31.7803 -2.02035 -2.75897e-15)
(30.622 -2.10515 1.84023e-15)
(29.2081 -1.69255 5.61648e-17)
(28.1542 -0.853558 7.51518e-16)
(26.3414 -0.127045 1.09475e-15)
(21.7923 -0.38624 8.23862e-16)
(5.767 1.80783 -6.99626e-17)
(-7.68956 -0.5341 7.87367e-17)
(14.5252 14.3646 1.47384e-17)
(13.9205 13.376 1.65411e-16)
(13.3662 12.2073 2.12808e-16)
(12.8703 10.8938 -4.17097e-16)
(12.5186 9.49248 -1.61339e-15)
(12.3232 8.01579 5.09021e-16)
(12.305 6.49727 1.20238e-15)
(12.4712 5.01446 2.98781e-15)
(12.8184 3.6324 1.1842e-15)
(13.3252 2.3766 -1.10384e-15)
(13.9566 1.2713 -3.05203e-17)
(14.6766 0.331252 -5.17642e-16)
(15.4581 -0.449987 0)
(16.2766 -1.08405 -2.36009e-17)
(17.1108 -1.58129 -8.17671e-16)
(17.946 -1.95731 3.49554e-16)
(18.7714 -2.22692 -3.4362e-16)
(19.5798 -2.40393 0)
(20.3686 -2.49972 4.96512e-16)
(21.1377 -2.52221 -8.38782e-16)
(21.8878 -2.47477 0)
(22.6184 -2.35661 5.68345e-16)
(23.3255 -2.16312 0)
(23.9968 -1.88879 -1.64353e-17)
(24.609 -1.53763 1.64044e-17)
(25.1413 -1.13083 -9.94179e-17)
(25.5888 -0.690279 -2.31741e-18)
(25.9553 -0.229177 3.2474e-20)
(26.244 0.242032 -9.08061e-19)
(26.4571 0.712552 6.72221e-17)
(26.599 1.17251 1.67144e-16)
(26.6759 1.61457 -3.67534e-16)
(26.6941 2.03634 -1.24076e-17)
(26.6609 2.43591 3.47502e-17)
(26.5793 2.81653 0)
(26.4589 3.18158 -2.08359e-17)
(26.2633 3.56424 -2.49455e-15)
(26.0128 3.93136 -5.85592e-18)
(25.3846 4.34023 -9.51532e-17)
(16.2448 14.4521 5.6643e-18)
(16.9668 15.274 3.126e-17)
(17.8398 16.1108 0)
(18.8347 16.9139 -2.31914e-17)
(19.9168 17.6224 -9.89811e-18)
(21.1218 18.2475 0)
(22.4194 18.7588 -8.91345e-17)
(23.7836 19.1294 7.63982e-16)
(25.2077 19.3487 -1.10214e-15)
(26.6667 19.4035 3.49377e-16)
(28.1377 19.2835 5.01119e-16)
(29.6022 18.9837 1.86222e-15)
(31.0344 18.5024 1.34911e-15)
(32.4102 17.8416 1.63522e-15)
(33.7062 17.0079 4.36434e-16)
(34.8983 16.0114 1.45652e-15)
(35.9641 14.865 2.00854e-15)
(36.8829 13.5867 1.95357e-15)
(37.6305 12.2091 -1.44019e-15)
(38.1893 10.76 -4.4286e-15)
(38.5457 9.26627 0)
(38.6897 7.75673 9.05605e-17)
(38.6129 6.26474 1.73584e-15)
(38.3098 4.83868 1.82965e-15)
(37.7981 3.54499 -1.04072e-16)
(37.1441 2.43004 -7.39451e-16)
(36.4286 1.46958 5.13913e-18)
(35.6721 0.596275 -3.60099e-16)
(34.8355 -0.211279 3.75881e-17)
(33.8818 -0.914456 -3.90976e-15)
(32.8137 -1.47408 -1.0495e-17)
(31.6465 -1.8439 -4.58948e-17)
(30.4407 -1.92752 -1.76036e-15)
(29.3385 -1.56809 5.19112e-17)
(28.4495 -0.777481 -8.51402e-16)
(27.5309 -0.0924054 -2.11529e-15)
(25.0457 -0.142383 7.77458e-16)
(10.3575 1.79621 2.88718e-15)
(-1.18845 -0.403036 -4.80308e-14)
(15.625 13.608 -6.15307e-17)
(15.0658 12.7219 -2.22738e-16)
(14.5446 11.6725 -1.55451e-16)
(14.0694 10.4912 -3.92765e-16)
(13.718 9.2327 8.93842e-16)
(13.4983 7.90159 -6.28483e-17)
(13.4328 6.52446 -2.95739e-15)
(13.5299 5.17539 -1.01041e-15)
(13.7848 3.91225 2.21373e-17)
(14.1818 2.75296 0)
(14.6932 1.71853 -9.28721e-16)
(15.2904 0.823245 8.57324e-16)
(15.9532 0.0624891 -8.17886e-16)
(16.6619 -0.571634 -4.16734e-16)
(17.3987 -1.08504 3.39781e-16)
(18.151 -1.4886 3.38535e-16)
(18.9081 -1.79225 1.18874e-15)
(19.6617 -2.00562 -2.79432e-16)
(20.4069 -2.13715 -4.60998e-16)
(21.1413 -2.19329 0)
(21.8632 -2.17695 -6.63913e-16)
(22.5699 -2.08803 -4.70075e-16)
(23.2565 -1.92325 -1.3394e-17)
(23.9111 -1.67926 -4.57642e-17)
(24.5128 -1.35976 -1.0627e-17)
(25.0418 -0.981753 1.43077e-16)
(25.4912 -0.565256 -4.95153e-19)
(25.8625 -0.123647 -2.09846e-18)
(26.1577 0.332662 -4.84853e-18)
(26.3786 0.793089 -6.18806e-17)
(26.5287 1.24794 -1.33016e-17)
(26.6136 1.68979 7.09473e-16)
(26.6391 2.11225 6.91945e-16)
(26.6122 2.51126 7.52802e-16)
(26.5359 2.88922 2.17925e-17)
(26.4176 3.24749 -1.04978e-17)
(26.2275 3.61929 2.1902e-15)
(25.969 3.96398 1.47886e-15)
(25.4604 4.31103 1.71941e-16)
(17.1495 13.7005 -1.76559e-17)
(17.8134 14.4461 -1.27926e-17)
(18.6152 15.2077 -5.13452e-17)
(19.5252 15.9404 1.29752e-16)
(20.5089 16.5877 -1.13682e-17)
(21.6028 17.1641 -7.67871e-17)
(22.7789 17.6423 3.24799e-16)
(24.0138 17.9979 0)
(25.305 18.2232 3.33898e-16)
(26.6308 18.3053 1.37603e-17)
(27.9729 18.2341 -4.25582e-16)
(29.3171 18.0039 -1.71034e-15)
(30.6411 17.6107 -7.08933e-16)
(31.9237 17.0539 0)
(33.1433 16.3364 0)
(34.2768 15.4653 0)
(35.3012 14.4514 0)
(36.1943 13.3105 -1.8833e-15)
(36.938 12.0568 1.88621e-15)
(37.514 10.7101 1.85034e-15)
(37.9059 9.29598 -1.48601e-15)
(38.0996 7.84766 1.31244e-15)
(38.0839 6.40439 -1.35473e-15)
(37.8526 5.0163 -9.92276e-17)
(37.42 3.74384 -4.43187e-17)
(36.8397 2.62879 7.43518e-16)
(36.1808 1.65668 1.56429e-16)
(35.4673 0.775516 0)
(34.6726 -0.0334888 0)
(33.7642 -0.736579 3.51455e-17)
(32.7373 -1.29495 0)
(31.6057 -1.66564 2.37571e-15)
(30.3752 -1.76153 -1.69941e-15)
(29.2877 -1.43514 -1.80552e-15)
(28.5523 -0.711244 1.69137e-15)
(28.0466 -0.0533953 1.05408e-15)
(27.2217 0.159016 -6.63877e-16)
(15.0056 1.6153 -4.64228e-15)
(2.82699 -0.598118 5.43224e-14)
(16.5759 12.9353 0)
(16.0565 12.1354 6.27307e-17)
(15.5652 11.186 2.9556e-16)
(15.1101 10.1158 -1.26435e-15)
(14.7628 8.97695 1.10449e-15)
(14.5281 7.76826 -8.36709e-16)
(14.4288 6.51213 1.52588e-17)
(14.4744 5.27925 7.78983e-16)
(14.6593 4.12126 8.12431e-16)
(14.9709 3.05091 0)
(15.3869 2.08607 3.80856e-16)
(15.8838 1.24008 -1.16113e-15)
(16.4461 0.508778 1.81541e-15)
(17.0585 -0.113813 3.25058e-16)
(17.7066 -0.6313 -6.5848e-16)
(18.38 -1.05106 -6.05153e-16)
(19.0693 -1.37949 -5.47972e-16)
(19.7661 -1.62286 0)
(20.4646 -1.7868 0)
(21.1607 -1.87589 0)
(21.8506 -1.89224 6.19904e-16)
(22.5303 -1.8357 0)
(23.194 -1.70377 -3.65091e-16)
(23.8299 -1.49443 -4.45441e-17)
(24.4192 -1.21106 -2.22756e-16)
(24.9428 -0.867607 -1.24526e-16)
(25.3923 -0.482041 0)
(25.7672 -0.0678123 2.44713e-18)
(26.0683 0.36443 5.04878e-18)
(26.2968 0.803908 -1.17558e-18)
(26.4554 1.24054 -2.61176e-16)
(26.5492 1.66594 -2.27377e-17)
(26.5836 2.07506 -6.69546e-16)
(26.5646 2.46445 6.37423e-16)
(26.4954 2.8362 0)
(26.3808 3.19138 1.7136e-17)
(26.1983 3.55889 -1.17565e-16)
(25.9307 3.89533 -1.44273e-15)
(25.503 4.27186 3.43971e-18)
(17.9451 13.0272 1.89985e-17)
(18.5607 13.7065 0)
(19.303 14.4019 1.09452e-16)
(20.1423 15.0715 -7.80512e-17)
(21.0444 15.663 -2.30162e-18)
(22.0461 16.1927 7.17361e-17)
(23.1208 16.6355 -1.40949e-16)
(24.2475 16.9702 -1.8633e-16)
(25.4263 17.1903 0)
(26.6384 17.2839 -3.64172e-16)
(27.8694 17.2416 -3.9724e-16)
(29.1082 17.0568 3.93615e-16)
(30.3362 16.7241 1.51008e-15)
(31.5353 16.2402 6.1816e-16)
(32.6862 15.6051 -1.87696e-15)
(33.767 14.8221 -1.36641e-15)
(34.7554 13.8984 1.08359e-15)
(35.6299 12.8449 8.08777e-16)
(36.3693 11.6786 -4.08884e-16)
(36.9523 10.423 4.09911e-16)
(37.3613 9.10321 1.04524e-15)
(37.5827 7.74821 1.93904e-16)
(37.6061 6.39238 -1.81695e-16)
(37.4272 5.07887 -1.20768e-15)
(37.0576 3.85881 0)
(36.5396 2.77001 -6.22594e-16)
(35.9299 1.80784 -2.91773e-16)
(35.253 0.934953 -2.63315e-16)
(34.4927 0.136107 -9.49314e-16)
(33.6237 -0.559488 3.41307e-15)
(32.6412 -1.11368 1.30975e-15)
(31.5624 -1.48376 1.43782e-17)
(30.3816 -1.59485 9.76857e-20)
(29.2708 -1.30276 0)
(28.5649 -0.646533 -8.53445e-16)
(28.1601 -0.0247468 0)
(28.5362 0.438089 0)
(19.5531 1.37453 1.97467e-15)
(7.2612 -0.721665 -1.48009e-16)
(17.4102 12.3305 -6.3195e-17)
(16.9246 11.6044 2.06006e-16)
(16.4593 10.7405 1.4263e-17)
(16.0231 9.76494 2.82562e-16)
(15.6822 8.72804 -9.88617e-16)
(15.439 7.62398 6.86595e-16)
(15.3156 6.47269 2.57674e-17)
(15.3225 5.34173 -6.46723e-16)
(15.4536 4.27695 -6.26996e-16)
(15.6984 3.28756 -6.63681e-16)
(16.0379 2.38922 -1.2973e-15)
(16.4527 1.59394 0)
(16.9304 0.897253 -6.54712e-16)
(17.4591 0.294051 -2.34296e-17)
(18.0274 -0.217772 0)
(18.6274 -0.643643 -5.32963e-16)
(19.2512 -0.98721 -2.52552e-16)
(19.8911 -1.25212 -2.34435e-16)
(20.5413 -1.44161 7.87172e-16)
(21.1966 -1.55827 6.8705e-16)
(21.8521 -1.60297 -6.77953e-17)
(22.5028 -1.57525 4.99726e-16)
(23.1419 -1.47302 8.8836e-17)
(23.758 -1.2949 -4.32086e-17)
(24.3334 -1.04399 1.98126e-16)
(24.8499 -0.731721 1.12904e-17)
(25.2979 -0.37388 0)
(25.6749 0.0164218 0)
(25.9809 0.428461 8.86587e-19)
(26.216 0.851562 -3.82605e-18)
(26.3824 1.27552 2.26028e-16)
(26.4842 1.6919 -2.21937e-17)
(26.5265 2.09465 -5.80284e-16)
(26.5146 2.47916 -6.07015e-16)
(26.4516 2.84653 -1.746e-17)
(26.3408 3.19704 1.76936e-18)
(26.1641 3.55554 -3.61567e-15)
(25.8937 3.88242 1.21793e-15)
(25.5083 4.23605 -4.88102e-18)
(18.6475 12.4199 7.41321e-18)
(19.2211 13.0411 0)
(19.9117 13.6782 -5.75147e-17)
(20.6899 14.292 0)
(21.5217 14.8338 -2.34115e-17)
(22.4436 15.3209 2.26222e-17)
(23.4304 15.7306 1.02496e-16)
(24.4628 16.044 1.75072e-16)
(25.5423 16.2559 0)
(26.6527 16.3562 -2.29516e-16)
(27.7824 16.336 4.0734e-16)
(28.9232 16.1888 -8.41828e-16)
(30.0592 15.9087 -4.76744e-16)
(31.1752 15.4913 -4.88468e-16)
(32.2544 14.9344 1.19356e-15)
(33.2766 14.2391 1.30206e-15)
(34.2208 13.4099 -1.40554e-15)
(35.0657 12.4558 -1.40206e-15)
(35.7903 11.3896 0)
(36.3746 10.2285 3.74452e-16)
(36.7996 8.99478 -7.2477e-16)
(37.0504 7.71664 1.78959e-16)
(37.1156 6.42845 4.74571e-18)
(36.9905 5.17167 2.83975e-15)
(36.6834 3.992 -1.54129e-16)
(36.2277 2.92334 9.43474e-17)
(35.6696 1.96764 2.6858e-16)
(35.0322 1.09988 2.78139e-16)
(34.3073 0.30857 8.14323e-16)
(33.475 -0.380973 -1.56066e-15)
(32.5325 -0.931704 -1.19554e-15)
(31.4995 -1.30142 -4.17973e-15)
(30.385 -1.42527 2.96344e-15)
(29.3011 -1.17 -3.47595e-17)
(28.5883 -0.578536 9.51426e-16)
(28.1022 -0.0100989 -2.73189e-17)
(29.1154 0.651824 1.34648e-17)
(23.597 1.20595 -3.89435e-17)
(12.7452 -1.03619 1.52356e-14)
(18.1466 11.7829 3.21449e-17)
(17.6907 11.12 -1.04465e-16)
(17.2491 10.3298 2.02197e-16)
(16.8308 9.43602 0)
(16.4976 8.48743 5.60944e-16)
(16.2505 7.47407 0)
(16.1104 6.41476 0)
(16.0879 5.37357 0)
(16.1773 4.39167 1.1574e-15)
(16.3693 3.47586 -5.63069e-16)
(16.6474 2.64 6.3876e-16)
(16.9948 1.89496 0)
(17.4014 1.23565 0)
(17.858 0.657068 -5.56804e-16)
(18.3554 0.157822 0)
(18.8881 -0.266211 4.94655e-16)
(19.4497 -0.617248 1.12447e-17)
(20.0338 -0.896834 0)
(20.6351 -1.10618 -5.62009e-16)
(21.2479 -1.24622 -8.13085e-16)
(21.8671 -1.3167 -5.49565e-16)
(22.4866 -1.31651 -4.57958e-16)
(23.0993 -1.24341 7.46125e-16)
(23.6941 -1.09628 0)
(24.2539 -0.877909 2.10272e-16)
(24.7614 -0.597537 1.63348e-16)
(25.2061 -0.26898 4.43932e-17)
(25.584 0.0952011 0)
(25.8937 0.484302 9.6641e-19)
(26.1348 0.887699 2.79361e-17)
(26.3086 1.29514 -1.87891e-16)
(26.4185 1.69779 -2.13607e-17)
(26.4689 2.08941 5.27208e-16)
(26.4646 2.46545 -4.88036e-16)
(26.4083 2.82635 -6.89682e-19)
(26.3022 3.1721 -1.55476e-17)
(26.1303 3.52293 3.23769e-15)
(25.8639 3.84536 -1.1407e-15)
(25.4854 4.18217 -6.06703e-16)
(19.2722 11.8677 4.25193e-18)
(19.8091 12.4377 -2.2326e-17)
(20.4546 13.0232 0)
(21.1797 13.5868 -5.33584e-17)
(21.9508 14.0836 0)
(22.8037 14.5312 0)
(23.7143 14.9092 1.96178e-17)
(24.6646 15.2006 1.53651e-16)
(25.6574 15.4012 3.66355e-16)
(26.6783 15.5023 9.78475e-16)
(27.7178 15.4961 5.67587e-16)
(28.7699 15.3765 6.69148e-16)
(29.8215 15.1372 0)
(30.8599 14.7728 1.34492e-15)
(31.8705 14.28 -4.79074e-16)
(32.8353 13.6577 0)
(33.7348 12.9081 1.16027e-15)
(34.5486 12.0375 1.33858e-15)
(35.2561 11.0559 0)
(35.8368 9.97979 1.31962e-15)
(36.2709 8.83055 -1.2903e-15)
(36.543 7.63393 0)
(36.6418 6.42114 -1.52402e-16)
(36.5622 5.22951 2.53267e-17)
(36.3102 4.09892 7.25122e-17)
(35.9117 3.05972 1.06668e-15)
(35.4036 2.11871 -3.79294e-18)
(34.8066 1.26135 -2.69467e-17)
(34.1184 0.480517 -2.10695e-17)
(33.3238 -0.20126 4.79358e-17)
(32.4209 -0.747829 1.19355e-15)
(31.4297 -1.11802 3.76495e-15)
(30.3713 -1.25366 4.86038e-17)
(29.3387 -1.03592 -1.72936e-15)
(28.6428 -0.504376 -8.78026e-16)
(28.0421 -0.00444945 -1.30252e-15)
(29.1556 0.785562 -8.42009e-16)
(26.6627 1.10483 5.0399e-17)
(18.1413 -1.44848 -1.11996e-14)
(18.8012 11.2829 -6.9618e-17)
(18.3717 10.6753 -2.48557e-16)
(17.9518 9.94954 4.85154e-16)
(17.5506 9.12753 0)
(17.2257 8.25573 8.86933e-16)
(16.9779 7.32207 0)
(16.8264 6.3442 -4.58306e-16)
(16.7815 5.38256 1.83046e-15)
(16.8385 4.47462 -1.4045e-15)
(16.9885 3.62576 0)
(17.2169 2.84809 1.02322e-15)
(17.5088 2.15142 9.78585e-16)
(17.8559 1.53022 0)
(18.2505 0.979448 -9.47564e-16)
(18.6856 0.497851 2.25816e-16)
(19.1572 0.0816659 -2.26142e-16)
(19.6608 -0.270306 2.17512e-16)
(20.1913 -0.55827 3.73821e-16)
(20.7439 -0.781952 -1.70525e-17)
(21.3137 -0.940818 4.33352e-16)
(21.8951 -1.03344 1.21796e-16)
(22.4818 -1.05796 -1.18163e-16)
(23.0668 -1.01186 -3.53749e-16)
(23.6388 -0.893876 2.86627e-16)
(24.1817 -0.706196 -1.85688e-16)
(24.6784 -0.456352 -1.66003e-16)
(25.1181 -0.156195 -4.1847e-17)
(25.4953 0.182508 -1.22976e-19)
(25.8077 0.549232 -7.88538e-19)
(26.0538 0.933581 -2.64105e-17)
(26.2342 1.32533 1.11798e-17)
(26.3517 1.71551 -2.06047e-17)
(26.4098 2.09748 -4.44577e-16)
(26.4129 2.4661 4.95713e-16)
(26.3631 2.82088 -1.41345e-17)
(26.2619 3.16124 8.46942e-16)
(26.0947 3.50342 -1.49292e-15)
(25.834 3.81891 0)
(25.457 4.13474 5.98668e-16)
(19.8307 11.3623 1.20685e-17)
(20.3351 11.887 0)
(20.9405 12.4261 0)
(21.6187 12.9447 7.85683e-17)
(22.3365 13.4009 -1.97934e-17)
(23.1287 13.8123 0)
(23.9725 14.1605 0)
(24.8505 14.43 -4.83108e-16)
(25.7666 14.6181 -2.84429e-17)
(26.7078 14.717 -3.57002e-17)
(27.6659 14.7201 -1.3098e-15)
(28.6373 14.6214 -3.53688e-16)
(29.6106 14.4153 6.74682e-16)
(30.5755 14.0959 -6.24395e-17)
(31.5195 13.6591 0)
(32.4267 13.1024 0)
(33.2795 12.4263 -3.16591e-15)
(34.0586 11.6348 -5.87598e-16)
(34.744 10.7362 6.03155e-16)
(35.3163 9.74318 -1.27827e-15)
(35.7553 8.67473 2.42249e-15)
(36.0449 7.55455 1.1434e-15)
(36.1736 6.41186 -1.10374e-15)
(36.1355 5.28126 -1.24411e-15)
(35.9344 4.1983 1.95583e-16)
(35.5898 3.19002 -1.04227e-15)
(35.1306 2.26636 -1.15533e-16)
(34.575 1.42127 2.48485e-17)
(33.925 0.651978 -2.48019e-17)
(33.1695 -0.0210157 7.6677e-17)
(32.3075 -0.562842 -3.38833e-17)
(31.359 -0.933913 -1.8495e-15)
(30.3501 -1.08118 -3.73034e-17)
(29.3669 -0.900848 9.70743e-19)
(28.7048 -0.423487 0)
(28.0516 0.00246905 1.24771e-15)
(28.9052 0.843924 8.02866e-16)
(28.5831 1.03614 0)
(22.476 -1.74868 0)
(19.3865 10.8238 0)
(18.9805 10.265 2.21089e-16)
(18.5806 9.59634 -7.1993e-16)
(18.1957 8.83774 -3.41586e-16)
(17.8797 8.03364 -8.00896e-16)
(17.6333 7.17052 0)
(17.4743 6.26518 0)
(17.4126 5.37453 -8.16448e-16)
(17.4442 4.53305 8.45163e-16)
(17.5605 3.74493 0)
(17.7485 3.02097 -4.28601e-16)
(17.9948 2.37028 -4.59121e-16)
(18.2918 1.78699 4.29373e-16)
(18.6334 1.26563 4.41698e-16)
(19.0139 0.804781 -8.13613e-16)
(19.4308 0.400947 0)
(19.8809 0.0532696 -1.78384e-16)
(20.3605 -0.237686 1.38401e-17)
(20.8658 -0.470707 7.7337e-16)
(21.3926 -0.644113 -1.37844e-16)
(21.9355 -0.755399 1.31738e-16)
(22.4884 -0.801986 -9.45213e-17)
(23.0443 -0.780917 1.31971e-16)
(23.5924 -0.690576 -5.83784e-16)
(24.1168 -0.53238 -1.91545e-16)
(24.6011 -0.312287 1.40672e-16)
(25.034 -0.0404111 -7.84457e-18)
(25.4092 0.272437 0)
(25.7229 0.616067 -5.88015e-19)
(25.9731 0.980329 -1.22767e-17)
(26.1596 1.35511 6.67957e-17)
(26.2842 1.7313 -1.81503e-16)