/*--------------------------------*- C++ -*----------------------------------*\
| =========                 |                                                 |
| \\      /  F ield         | OpenFOAM: The Open Source CFD Toolbox           |
|  \\    /   O peration     | Version:  2312                                  |
|   \\  /    A nd           | Website:  www.openfoam.com                      |
|    \\/     M anipulation  |                                                 |
\*---------------------------------------------------------------------------*/
FoamFile
{
    version     2.0;
    format      ascii;
    arch        "LSB;label=32;scalar=64";
    class       volScalarField;
    location    "38.343545983540558";
    object      p;
}
// * * * * * * * * * * * * * * * * * * * * * * * * * * * * * * * * * * * * * //

dimensions      [0 2 -2 0 0 0 0];

internalField   nonuniform List<scalar> 
21039
(
0.594563
0.460632
0.418559
0.390318
0.369017
0.352965
0.34056
0.330699
0.322701
0.316116
0.310628
0.306007
0.302083
0.298725
0.295831
0.293319
0.291123
0.289186
0.287462
0.28591
0.284497
0.283192
0.281966
0.280858
0.279899
0.279046
0.27826
0.277511
0.276785
0.447362
0.409532
0.395751
0.377383
0.360643
0.347384
0.336665
0.327853
0.320555
0.314461
0.309328
0.304972
0.301252
0.298053
0.295286
0.292879
0.290769
0.288905
0.287244
0.285747
0.28438
0.283113
0.281919
0.280832
0.279882
0.279031
0.278246
0.277497
0.276771
0.357912
0.355556
0.357745
0.351009
0.342592
0.334822
0.327596
0.321099
0.315403
0.310451
0.306154
0.302427
0.29919
0.296373
0.293915
0.29176
0.289862
0.288179
0.286674
0.285314
0.284067
0.282906
0.281805
0.280793
0.279895
0.279083
0.278327
0.277602
0.276897
0.319777
0.321905
0.326401
0.32534
0.322747
0.31955
0.315773
0.311883
0.30815
0.304674
0.301504
0.29865
0.296102
0.293838
0.291833
0.290055
0.288478
0.287072
0.28581
0.284665
0.283613
0.282628
0.281689
0.280813
0.280021
0.279293
0.278604
0.277931
0.277265
0.294685
0.29866
0.304575
0.306311
0.30654
0.305836
0.304327
0.302426
0.300355
0.298242
0.296182
0.294235
0.292434
0.290791
0.289308
0.287977
0.286786
0.285721
0.284764
0.283896
0.283097
0.282347
0.281627
0.280941
0.280302
0.279694
0.279099
0.2785
0.277888
0.274957
0.280217
0.287588
0.291479
0.293513
0.294346
0.294303
0.293765
0.292914
0.291877
0.290756
0.289622
0.288524
0.287491
0.28654
0.285679
0.284908
0.284222
0.283611
0.283063
0.282564
0.282097
0.281645
0.281197
0.280748
0.280291
0.279816
0.279312
0.278772
0.26209
0.267113
0.274219
0.279181
0.282426
0.284394
0.285441
0.285914
0.285991
0.285802
0.285453
0.285017
0.284547
0.284082
0.283645
0.283253
0.282913
0.282626
0.28239
0.282197
0.282037
0.281895
0.281757
0.281593
0.281373
0.281098
0.28077
0.280379
0.279933
0.25468
0.258779
0.264521
0.269475
0.273198
0.275805
0.277577
0.278782
0.279568
0.280057
0.280345
0.280506
0.280592
0.280644
0.280692
0.280755
0.280846
0.28097
0.281128
0.281317
0.28153
0.281753
0.281977
0.282137
0.282186
0.282131
0.281975
0.281717
0.281367
0.250028
0.253228
0.257588
0.262073
0.265777
0.268595
0.270737
0.272397
0.273681
0.274683
0.275482
0.276141
0.276711
0.277229
0.277727
0.278225
0.278738
0.279276
0.279841
0.280433
0.281047
0.281673
0.282299
0.282834
0.2832
0.283402
0.283455
0.28336
0.283129
0.246478
0.248929
0.252241
0.256183
0.259684
0.262505
0.264802
0.266715
0.268322
0.269691
0.270883
0.271948
0.272928
0.273859
0.274767
0.275675
0.276598
0.277545
0.278524
0.279534
0.280574
0.281636
0.28271
0.28367
0.284399
0.284902
0.2852
0.285299
0.285214
0.24333
0.245179
0.24774
0.251162
0.25441
0.257164
0.259518
0.261572
0.263389
0.26502
0.266511
0.267903
0.269229
0.27052
0.271801
0.273091
0.274406
0.275757
0.27715
0.27859
0.280075
0.281602
0.283165
0.2846
0.28574
0.286591
0.287175
0.287502
0.287589
0.240274
0.241676
0.243706
0.246654
0.249639
0.252296
0.254655
0.256788
0.258745
0.260568
0.262292
0.263948
0.265567
0.267174
0.268791
0.270436
0.272123
0.273866
0.275672
0.277545
0.279489
0.281503
0.283586
0.285539
0.28714
0.288386
0.289301
0.289895
0.290185
0.237157
0.238246
0.239906
0.242447
0.245179
0.24772
0.250051
0.25222
0.254269
0.256232
0.258137
0.26001
0.261876
0.263759
0.265678
0.26765
0.269691
0.271812
0.274023
0.276328
0.278732
0.281239
0.28386
0.286358
0.288456
0.290141
0.291431
0.292331
0.292858
0.233919
0.23479
0.236185
0.238386
0.240883
0.243303
0.245585
0.247759
0.249863
0.251924
0.253967
0.256014
0.258088
0.26021
0.262398
0.264671
0.267045
0.26953
0.272134
0.274861
0.277716
0.280705
0.283847
0.286878
0.289475
0.291613
0.293304
0.294542
0.295338
0.230548
0.231266
0.232452
0.234354
0.236626
0.238919
0.24114
0.243299
0.245429
0.247555
0.249697
0.251879
0.254121
0.256445
0.258871
0.261419
0.264105
0.266937
0.269922
0.27306
0.276348
0.279787
0.283395
0.286878
0.289891
0.292424
0.294492
0.296074
0.297163
0.227343
0.227949
0.22897
0.230648
0.232738
0.234913
0.237068
0.239201
0.241336
0.243498
0.245706
0.247983
0.250352
0.252835
0.255459
0.258244
0.261207
0.264357
0.267697
0.271218
0.274901
0.278719
0.282656
0.286354
0.289469
0.292064
0.294222
0.295959
0.297261
0.224637
0.22517
0.22609
0.227626
0.22958
0.231653
0.23375
0.235862
0.238002
0.240189
0.242445
0.244793
0.247259
0.249872
0.252661
0.25565
0.258859
0.262299
0.26597
0.269854
0.273913
0.278072
0.282237
0.285903
0.288668
0.290669
0.29215
0.293356
0.29451
0.222405
0.222892
0.223741
0.225174
0.227025
0.229029
0.231101
0.233215
0.235371
0.237586
0.239885
0.242298
0.244853
0.247585
0.250527
0.253709
0.257154
0.260878
0.264885
0.269153
0.273627
0.278189
0.282648
0.286254
0.288365
0.288983
0.288351
0.286964
0.285939
0.220614
0.221151
0.222021
0.223355
0.225036
0.226926
0.228977
0.231118
0.233311
0.235566
0.237918
0.240401
0.243051
0.245907
0.249006
0.252382
0.256069
0.26009
0.264455
0.269149
0.274117
0.279227
0.284226
0.288128
0.289871
0.288919
0.284899
0.277195
0.265458
0.276073
0.275358
0.274648
0.273945
0.273246
0.27255
0.271856
0.271164
0.270473
0.269781
0.269087
0.268392
0.267694
0.266992
0.266286
0.265575
0.264859
0.264136
0.263407
0.262672
0.261929
0.261179
0.260422
0.259658
0.258886
0.258108
0.257323
0.256531
0.255733
0.254929
0.25412
0.253306
0.252488
0.251666
0.250841
0.250014
0.249187
0.248359
0.247531
0.246705
0.245882
0.245062
0.244246
0.243435
0.242631
0.241834
0.241045
0.240264
0.239492
0.276062
0.275356
0.274657
0.273965
0.273276
0.27259
0.271907
0.271225
0.270543
0.26986
0.269176
0.26849
0.2678
0.267106
0.266407
0.265702
0.264991
0.264273
0.263549
0.262816
0.262076
0.261327
0.260571
0.259806
0.259033
0.258253
0.257464
0.256669
0.255866
0.255057
0.254242
0.253421
0.252596
0.251766
0.250933
0.250098
0.24926
0.248422
0.247584
0.246747
0.245913
0.245081
0.244254
0.243431
0.242615
0.241806
0.241005
0.240213
0.239429
0.276212
0.275531
0.274857
0.274188
0.273523
0.27286
0.272198
0.271536
0.270873
0.270208
0.269541
0.268869
0.268192
0.267509
0.26682
0.266123
0.265418
0.264704
0.263981
0.263248
0.262506
0.261754
0.260992
0.260219
0.259437
0.258646
0.257845
0.257035
0.256216
0.255389
0.254555
0.253715
0.252868
0.252016
0.25116
0.2503
0.249437
0.248573
0.247709
0.246844
0.245981
0.245121
0.244264
0.243411
0.242564
0.241724
0.240892
0.240068
0.239254
0.276617
0.275976
0.275338
0.274704
0.274071
0.273438
0.272805
0.27217
0.271532
0.270889
0.270241
0.269586
0.268923
0.268252
0.267571
0.26688
0.266178
0.265464
0.264739
0.264001
0.26325
0.262487
0.261712
0.260924
0.260123
0.259311
0.258486
0.257651
0.256804
0.255948
0.255082
0.254208
0.253326
0.252438
0.251543
0.250643
0.249739
0.248833
0.247925
0.247015
0.246107
0.245199
0.244295
0.243393
0.242497
0.241607
0.240723
0.239848
0.238981
0.27729
0.276699
0.276109
0.275518
0.274927
0.274333
0.273735
0.273132
0.272523
0.271905
0.271279
0.270642
0.269994
0.269334
0.26866
0.267973
0.267271
0.266554
0.265821
0.265073
0.264308
0.263527
0.26273
0.261918
0.26109
0.260246
0.259388
0.258516
0.257631
0.256733
0.255823
0.254902
0.253972
0.253032
0.252085
0.25113
0.25017
0.249206
0.248238
0.247268
0.246297
0.245327
0.244357
0.24339
0.242427
0.241469
0.240516
0.239571
0.238633
0.278232
0.277703
0.277172
0.276636
0.276096
0.275549
0.274995
0.27443
0.273855
0.273267
0.272666
0.27205
0.271418
0.270769
0.270102
0.269416
0.268711
0.267987
0.267242
0.266477
0.265691
0.264885
0.264059
0.263213
0.262348
0.261464
0.260561
0.259641
0.258705
0.257752
0.256785
0.255804
0.254811
0.253806
0.252791
0.251767
0.250735
0.249697
0.248654
0.247607
0.246557
0.245506
0.244455
0.243406
0.242359
0.241315
0.240276
0.239243
0.238219
0.279491
0.279005
0.278548
0.27808
0.277602
0.277112
0.276608
0.276089
0.275553
0.275
0.274427
0.273834
0.273219
0.272581
0.271919
0.271233
0.270522
0.269786
0.269024
0.268237
0.267423
0.266585
0.265721
0.264832
0.263919
0.262983
0.262025
0.261045
0.260044
0.259024
0.257986
0.25693
0.255859
0.254774
0.253675
0.252566
0.251445
0.250317
0.249181
0.248039
0.246894
0.245745
0.244595
0.243445
0.242296
0.241149
0.240006
0.238869
0.23774
0.281022
0.280683
0.280298
0.279892
0.279481
0.279052
0.278606
0.278137
0.277647
0.277131
0.27659
0.276021
0.275424
0.274797
0.274139
0.273451
0.27273
0.271978
0.271194
0.270378
0.269529
0.26865
0.267739
0.266798
0.265828
0.264829
0.263802
0.262749
0.261671
0.260569
0.259445
0.2583
0.257135
0.255953
0.254754
0.253541
0.252315
0.251077
0.249831
0.248576
0.247316
0.24605
0.244782
0.243512
0.242243
0.240974
0.239708
0.238448
0.237197
0.282885
0.282645
0.282383
0.282101
0.281776
0.281385
0.281005
0.280593
0.280152
0.279681
0.279175
0.278634
0.278055
0.27744
0.276786
0.276092
0.27536
0.274588
0.273777
0.272926
0.272037
0.271109
0.270143
0.26914
0.268102
0.267029
0.265922
0.264784
0.263614
0.262416
0.26119
0.259938
0.258663
0.257366
0.256048
0.254713
0.253361
0.251995
0.250617
0.249229
0.247832
0.246429
0.245022
0.243611
0.2422
0.240788
0.239379
0.237975
0.236582
0.285097
0.28497
0.284804
0.284613
0.284397
0.28415
0.28387
0.283451
0.283079
0.282659
0.282193
0.281683
0.281127
0.280525
0.279876
0.279179
0.278434
0.277641
0.2768
0.275911
0.274976
0.273994
0.272967
0.271895
0.27078
0.269622
0.268424
0.267187
0.265912
0.264602
0.263259
0.261883
0.260478
0.259046
0.257589
0.256109
0.254609
0.253091
0.251557
0.250011
0.248454
0.246887
0.245316
0.243739
0.242161
0.240582
0.239004
0.237433
0.235876
0.287623
0.287631
0.287585
0.287499
0.287372
0.287204
0.286999
0.286749
0.286446
0.286074
0.285647
0.285174
0.284646
0.284063
0.283423
0.282727
0.281973
0.281162
0.280295
0.27937
0.278389
0.277353
0.276261
0.275116
0.273918
0.272668
0.271369
0.270022
0.268628
0.267191
0.265711
0.264192
0.262636
0.261045
0.259424
0.257774
0.256096
0.254398
0.252678
0.250942
0.249193
0.247432
0.245664
0.243889
0.242112
0.240335
0.238558
0.236791
0.235041
0.290395
0.290557
0.290654
0.290699
0.290692
0.290631
0.290516
0.290344
0.290118
0.289834
0.289486
0.289069
0.288587
0.288043
0.287432
0.286753
0.286007
0.285193
0.284313
0.283363
0.282346
0.281263
0.280111
0.278895
0.277614
0.276267
0.274861
0.273394
0.271867
0.270286
0.268651
0.266965
0.265232
0.263452
0.261633
0.259777
0.257886
0.255967
0.25402
0.252053
0.250069
0.248068
0.24606
0.244044
0.242026
0.240008
0.237991
0.235988
0.234009
0.293271
0.293606
0.293865
0.294065
0.294202
0.294276
0.294285
0.294229
0.294107
0.293917
0.293659
0.29333
0.292927
0.292453
0.291914
0.291292
0.290588
0.289804
0.288941
0.287992
0.286963
0.285853
0.284658
0.283382
0.282026
0.280587
0.27907
0.277476
0.275804
0.27406
0.272245
0.270361
0.268416
0.266408
0.264346
0.262235
0.260076
0.257879
0.255647
0.253387
0.251104
0.248802
0.24649
0.24417
0.241849
0.239531
0.237218
0.234923
0.232664
0.295983
0.296511
0.296957
0.297342
0.297661
0.297916
0.298102
0.29822
0.298267
0.29824
0.29814
0.29796
0.297698
0.297352
0.296918
0.296415
0.295822
0.295133
0.294343
0.293446
0.292449
0.29135
0.290145
0.288837
0.287425
0.285904
0.284281
0.282554
0.280721
0.278791
0.276763
0.274639
0.27243
0.270133
0.267761
0.265319
0.26281
0.260249
0.257638
0.254989
0.252311
0.249608
0.246895
0.244175
0.241459
0.238753
0.23606
0.233398
0.230788
0.298067
0.298802
0.299468
0.300092
0.300666
0.301193
0.301664
0.302071
0.30241
0.302668
0.302843
0.302924
0.302912
0.302801
0.302577
0.302238
0.30178
0.301453
0.300786
0.3
0.2991
0.298075
0.296913
0.29562
0.294188
0.292609
0.290892
0.289031
0.287022
0.284875
0.282588
0.280165
0.277618
0.274944
0.27216
0.269276
0.266293
0.263233
0.260103
0.256918
0.253693
0.250436
0.24717
0.243901
0.240648
0.23742
0.234223
0.231084
0.228027
0.298388
0.299284
0.30021
0.301205
0.302233
0.30327
0.30427
0.305206
0.306053
0.306788
0.307411
0.307905
0.308278
0.308531
0.308656
0.308659
0.308512
0.308229
0.307876
0.307344
0.306657
0.305811
0.304786
0.303588
0.302202
0.300616
0.298838
0.296857
0.294664
0.292274
0.289682
0.286892
0.283919
0.280764
0.277448
0.273984
0.270378
0.266659
0.262836
0.258934
0.254973
0.250966
0.246949
0.242935
0.238956
0.235035
0.231188
0.227453
0.223865
0.295787
0.296739
0.298101
0.299862
0.301816
0.303805
0.305699
0.307431
0.308971
0.310302
0.311444
0.312395
0.313183
0.31382
0.314308
0.314668
0.314878
0.314934
0.31484
0.314636
0.314249
0.313665
0.312865
0.311849
0.310593
0.309073
0.307292
0.305234
0.302882
0.300253
0.297341
0.294151
0.290705
0.287005
0.283083
0.278957
0.274637
0.270164
0.265547
0.26082
0.256006
0.251121
0.246208
0.241285
0.236402
0.231598
0.226921
0.22245
0.218251
0.285727
0.287092
0.290648
0.295077
0.299402
0.30326
0.306533
0.30926
0.311524
0.313396
0.314969
0.316286
0.317407
0.318368
0.319181
0.319879
0.320449
0.3209
0.321206
0.321325
0.321361
0.32114
0.320676
0.319956
0.318936
0.317573
0.315862
0.313775
0.311286
0.308414
0.305152
0.301511
0.297523
0.293196
0.288577
0.283695
0.27857
0.273257
0.267769
0.262149
0.256419
0.250591
0.2447
0.238746
0.23277
0.226809
0.220947
0.21538
0.210387
0.256502
0.267637
0.280391
0.290873
0.298727
0.304486
0.308723
0.311935
0.314457
0.316493
0.318202
0.319653
0.320932
0.322082
0.323124
0.324102
0.324997
0.325832
0.326585
0.327166
0.327583
0.327882
0.327845
0.327519
0.326844
0.325751
0.32421
0.322172
0.319601
0.316519
0.312921
0.308826
0.304282
0.299309
0.293972
0.288319
0.282383
0.27624
0.269915
0.26346
0.256902
0.250247
0.243514
0.236655
0.22964
0.222386
0.214818
0.20701
0.199567
0.23874
0.237968
0.23715
0.236276
0.235333
0.234317
0.233254
0.232278
0.231487
0.230911
0.230584
0.230528
0.230811
0.231463
0.232538
0.234103
0.236234
0.239032
0.242624
0.247177
0.252915
0.260153
0.269336
0.281143
0.296675
0.317535
0.345418
0.387154
0.520815
0.238662
0.237875
0.237038
0.23614
0.235166
0.234111
0.233003
0.231978
0.231136
0.230506
0.230119
0.230012
0.230221
0.230788
0.231763
0.233205
0.235184
0.237785
0.241118
0.245322
0.250576
0.257119
0.265258
0.275382
0.28812
0.30441
0.322409
0.335845
0.373425
0.238454
0.237631
0.236749
0.235797
0.234755
0.233617
0.232409
0.23127
0.230308
0.229551
0.229028
0.228769
0.228804
0.229169
0.229903
0.23105
0.23266
0.234791
0.23751
0.240891
0.245016
0.249967
0.2558
0.262437
0.269687
0.277646
0.283987
0.281416
0.283527
0.238127
0.237242
0.236288
0.235249
0.234102
0.232837
0.231472
0.230159
0.229014
0.228062
0.227329
0.226837
0.226609
0.22667
0.227046
0.227762
0.228841
0.230306
0.232174
0.234449
0.237116
0.240122
0.24336
0.246557
0.249237
0.251366
0.252007
0.247109
0.244759
0.237705
0.236737
0.235685
0.234529
0.233242
0.231806
0.230237
0.228697
0.227317
0.226119
0.225122
0.224342
0.223796
0.223497
0.223455
0.223679
0.224169
0.224919
0.22591
0.227104
0.228435
0.229801
0.231069
0.232011
0.232207
0.231515
0.229348
0.223043
0.218886
0.237197
0.236125
0.234951
0.233649
0.232188
0.230543
0.228725
0.226914
0.225256
0.223771
0.222474
0.221375
0.220483
0.219801
0.219329
0.219061
0.218983
0.219072
0.21929
0.219583
0.219873
0.220051
0.219984
0.219483
0.21816
0.215673
0.211354
0.203616
0.198216
0.236606
0.235408
0.234085
0.232609
0.23094
0.229047
0.226937
0.224812
0.22284
0.221038
0.219416
0.21798
0.216731
0.215667
0.214778
0.21405
0.213459
0.212973
0.212545
0.212117
0.211605
0.210899
0.209858
0.2083
0.205869
0.202189
0.196816
0.189377
0.184254
0.23593
0.234582
0.233085
0.231402
0.229489
0.227308
0.224863
0.222385
0.220068
0.217924
0.215961
0.214181
0.212579
0.211147
0.20987
0.208725
0.207685
0.206711
0.205754
0.204751
0.203622
0.202261
0.200539
0.198299
0.195266
0.19114
0.185804
0.179775
0.175616
0.235161
0.233637
0.231934
0.230011
0.227815
0.225303
0.222481
0.219613
0.216923
0.214421
0.212111
0.209989
0.208048
0.206273
0.204644
0.203136
0.201717
0.200345
0.198971
0.197537
0.195968
0.194178
0.192065
0.189512
0.186318
0.182256
0.177435
0.172842
0.169617
0.234274
0.232544
0.230603
0.2284
0.225879
0.222992
0.219747
0.216455
0.21337
0.210499
0.207843
0.205393
0.203135
0.201051
0.199118
0.197306
0.195581
0.193903
0.192225
0.190494
0.18865
0.186622
0.184333
0.181698
0.178565
0.174767
0.170548
0.167062
0.164613
0.233226
0.231256
0.229036
0.226509
0.223613
0.220301
0.216589
0.21284
0.209343
0.206103
0.20311
0.200353
0.197812
0.195463
0.193278
0.191226
0.189271
0.187375
0.185493
0.183579
0.181582
0.179447
0.177111
0.174505
0.171519
0.168049
0.164421
0.161747
0.159919
0.23194
0.229686
0.227139
0.224234
0.220909
0.217117
0.212893
0.208661
0.204746
0.201143
0.197838
0.194807
0.192026
0.189463
0.187086
0.18486
0.182749
0.180714
0.178713
0.176706
0.174647
0.172491
0.170187
0.167677
0.164883
0.161765
0.158691
0.156606
0.15524
0.230289
0.227695
0.22476
0.221415
0.217597
0.213272
0.208496
0.203767
0.199443
0.195504
0.191924
0.18867
0.185704
0.182989
0.180487
0.178157
0.175962
0.173863
0.17182
0.169793
0.167745
0.165637
0.163426
0.161061
0.15849
0.155726
0.153144
0.151482
0.15044
0.228036
0.225034
0.22164
0.217783
0.213411
0.208507
0.203161
0.197948
0.193251
0.189031
0.18524
0.181831
0.178755
0.175964
0.173413
0.171057
0.168855
0.166766
0.164751
0.162775
0.160802
0.158799
0.156727
0.154545
0.152218
0.149795
0.147639
0.146288
0.14547
0.224804
0.221307
0.217375
0.21294
0.207968
0.202473
0.196584
0.190949
0.185961
0.18155
0.177646
0.17418
0.171089
0.168315
0.165804
0.163507
0.161378
0.159375
0.157461
0.1556
0.15376
0.151909
0.150016
0.148044
0.145975
0.143891
0.142113
0.141004
0.140335
0.220103
0.21607
0.211592
0.206611
0.20112
0.19516
0.188892
0.183012
0.177903
0.173461
0.169589
0.1662
0.163216
0.160569
0.158197
0.156047
0.154071
0.152225
0.150473
0.148779
0.147112
0.145445
0.14375
0.141999
0.140187
0.138401
0.136926
0.13601
0.135443
0.213898
0.209339
0.204433
0.199112
0.193356
0.187202
0.180822
0.174931
0.169896
0.165587
0.161885
0.158688
0.155907
0.153466
0.1513
0.149352
0.147574
0.145923
0.14436
0.142852
0.141369
0.139885
0.138379
0.136836
0.135262
0.133731
0.132487
0.131713
0.13122
0.205511
0.200713
0.19587
0.190679
0.18504
0.178997
0.172751
0.167044
0.162233
0.158175
0.154737
0.151806
0.149285
0.147095
0.145169
0.143449
0.141888
0.140442
0.139076
0.137755
0.136451
0.135136
0.133793
0.132422
0.13105
0.129742
0.128695
0.128046
0.127614
0.193633
0.189984
0.186267
0.181769
0.17659
0.170889
0.164951
0.159563
0.155076
0.151343
0.148224
0.145598
0.143364
0.141443
0.139766
0.138278
0.136932
0.135687
0.134509
0.133365
0.132224
0.131054
0.129845
0.128634
0.127501
0.126479
0.125635
0.125033
0.12458
0.218798
0.219117
0.219804
0.221159
0.223029
0.225119
0.22729
0.229483
0.231705
0.233999
0.23641
0.238976
0.241734
0.244725
0.247989
0.251569
0.255502
0.259821
0.264542
0.269656
0.275119
0.280795
0.286397
0.290782
0.29252
0.290364
0.282713
0.267152
0.235066
0.217
0.21744
0.218242
0.219585
0.221369
0.223381
0.225509
0.2277
0.229958
0.232317
0.234815
0.237487
0.240374
0.243518
0.246964
0.250761
0.254955
0.259587
0.264688
0.270271
0.276335
0.282812
0.289505
0.295369
0.299061
0.299827
0.297036
0.292574
0.296855
0.215173
0.215695
0.216581
0.217918
0.219632
0.221565
0.223633
0.225799
0.228069
0.23047
0.23303
0.235784
0.238773
0.242044
0.245647
0.24964
0.254081
0.25903
0.264548
0.2707
0.277577
0.285291
0.293981
0.303114
0.31179
0.32024
0.328778
0.336001
0.35305
0.213295
0.213795
0.214653
0.215974
0.217691
0.219628
0.221686
0.223841
0.226114
0.228534
0.231131
0.233941
0.237005
0.240373
0.244104
0.248264
0.252927
0.258176
0.264109
0.270857
0.278632
0.287776
0.298856
0.311918
0.326193
0.342032
0.36041
0.377165
0.399363
0.211367
0.211831
0.212637
0.213926
0.215642
0.217589
0.21965
0.221801
0.224073
0.2265
0.229117
0.231961
0.235075
0.238514
0.242341
0.246632
0.251475
0.256976
0.26327
0.270551
0.279138
0.289578
0.302783
0.319204
0.337874
0.358993
0.384188
0.408203
0.43496
0.209391
0.209837
0.210609
0.211859
0.213542
0.215468
0.217511
0.219647
0.221907
0.224328
0.226945
0.229799
0.232935
0.23641
0.240292
0.244663
0.249624
0.255298
0.261848
0.269517
0.278696
0.29005
0.304691
0.323321
0.344175
0.368062
0.396045
0.426324
0.456835
0.207364
0.207799
0.208547
0.209755
0.211386
0.213265
0.215269
0.217372
0.219601
0.221994
0.224589
0.227423
0.230546
0.234013
0.237898
0.242285
0.247282
0.253022
0.259684
0.267538
0.276998
0.288734
0.303909
0.322804
0.345699
0.370835
0.397856
0.426224
0.454878
0.20528
0.205703
0.206425
0.207585
0.209155
0.210975
0.212924
0.214975
0.217153
0.219495
0.222037
0.224819
0.227887
0.231299
0.235125
0.239454
0.244391
0.250073
0.256672
0.264471
0.273859
0.285306
0.30045
0.319579
0.341598
0.365118
0.38919
0.413477
0.437781
0.203139
0.203548
0.204241
0.205348
0.206848
0.208595
0.210474
0.212454
0.21456
0.216825
0.219286
0.221979
0.224949
0.228252
0.231955
0.236142
0.240915
0.246401
0.252746
0.260241
0.269055
0.280279
0.294668
0.312375
0.331836
0.352195
0.372651
0.392933
0.412388
0.20094
0.201336
0.201998
0.203046
0.204465
0.206125
0.207917
0.209809
0.21182
0.213983
0.216331
0.218898
0.221726
0.224864
0.228376
0.232337
0.236837
0.241993
0.247879
0.254813
0.263126
0.273377
0.286156
0.301378
0.317641
0.334247
0.350613
0.366737
0.381659
0.19868
0.199062
0.19969
0.200675
0.202005
0.203567
0.205258
0.207043
0.208938
0.210973
0.213178
0.215583
0.218223
0.221144
0.2244
0.228054
0.232178
0.236858
0.24223
0.248453
0.255821
0.264626
0.275302
0.287615
0.30039
0.312987
0.324982
0.336676
0.347227
0.196363
0.196731
0.197323
0.19824
0.199474
0.200927
0.202501
0.20416
0.205919
0.207803
0.209835
0.212043
0.214456
0.217109
0.220048
0.223321
0.226987
0.231123
0.235817
0.241144
0.247276
0.25441
0.262766
0.272003
0.281186
0.289805
0.2976
0.305041
0.311552
0.193991
0.194349
0.194909
0.195755
0.196884
0.198211
0.19965
0.201167
0.202769
0.204476
0.20631
0.208289
0.210435
0.212776
0.215344
0.218179
0.221318
0.224807
0.228686
0.232977
0.23775
0.243103
0.249052
0.255211
0.260934
0.2659
0.27002
0.273811
0.276924
0.191566
0.19191
0.192431
0.193202
0.194222
0.19542
0.196715
0.198075
0.199503
0.201016
0.202627
0.204349
0.206196
0.208186
0.210342
0.212685
0.215233
0.217996
0.220976
0.224152
0.227513
0.23105
0.234626
0.23788
0.240489
0.24233
0.243458
0.244377
0.244924
0.189094
0.189425
0.189907
0.190601
0.191507
0.192567
0.193709
0.194899
0.196139
0.197439
0.198809
0.200253
0.201777
0.20339
0.205098
0.206909
0.208818
0.210809
0.212848
0.214875
0.216813
0.218569
0.219906
0.220553
0.220499
0.219796
0.218605
0.217409
0.216216
0.186581
0.186901
0.187346
0.187961
0.188749
0.189664
0.190642
0.191652
0.192692
0.193767
0.194882
0.196032
0.197214
0.198426
0.199662
0.200911
0.202152
0.203343
0.204422
0.205293
0.205832
0.205891
0.205179
0.203546
0.201277
0.198567
0.195646
0.192982
0.190745
0.184033
0.184339
0.184743
0.185278
0.185949
0.186718
0.187529
0.188354
0.189185
0.190032
0.190882
0.191726
0.192554
0.193351
0.1941
0.194773
0.195333
0.195716
0.195836
0.195571
0.194766
0.193242
0.190684
0.187086
0.182999
0.178737
0.174553
0.170903
0.168116
0.181457
0.181751
0.182115
0.182571
0.183124
0.183745
0.184387
0.185019
0.185645
0.186257
0.186838
0.187373
0.187842
0.188221
0.18848
0.188577
0.188458
0.188043
0.187226
0.185866
0.183791
0.180805
0.176593
0.171303
0.165719
0.160244
0.15511
0.150765
0.147695
0.178863
0.179149
0.179475
0.179854
0.180289
0.180762
0.181228
0.181672
0.182091
0.182467
0.18278
0.183008
0.183122
0.183087
0.182862
0.182394
0.181611
0.180421
0.1787
0.176297
0.173027
0.168691
0.162985
0.15621
0.149356
0.142883
0.136972
0.132067
0.128819
0.176259
0.176534
0.176819
0.177122
0.177444
0.177772
0.178072
0.178335
0.178548
0.178693
0.178746
0.178675
0.178443
0.178008
0.177316
0.176304
0.174888
0.172959
0.170383
0.166995
0.162607
0.157016
0.149939
0.141822
0.13384
0.126495
0.119891
0.114478
0.111066
0.173654
0.173921
0.174165
0.174396
0.174609
0.174794
0.174939
0.175025
0.175041
0.174967
0.174772
0.174416
0.173857
0.173044
0.171914
0.170393
0.168385
0.16577
0.1624
0.158102
0.152676
0.145919
0.137562
0.128192
0.119157
0.110996
0.103721
0.097802
0.0942135
0.171057
0.171317
0.171523
0.171686
0.171794
0.171853
0.171842
0.171759
0.171592
0.171314
0.170886
0.170266
0.169405
0.168243
0.166713
0.164728
0.162183
0.158947
0.154859
0.149733
0.143359
0.135517
0.125949
0.115359
0.105279
0.096297
0.0883288
0.0818891
0.0781389
0.168478
0.168736
0.168905
0.169014
0.169025
0.16895
0.168792
0.168555
0.168219
0.167753
0.167115
0.166256
0.165122
0.163649
0.161762
0.159367
0.15635
0.15257
0.147854
0.141999
0.134777
0.125942
0.115219
0.1034
0.0922069
0.0823226
0.073581
0.0665944
0.062761
0.165924
0.16617
0.16632
0.166368
0.166283
0.166088
0.165803
0.165428
0.164944
0.164313
0.163488
0.162419
0.161048
0.159306
0.157113
0.15437
0.150956
0.146721
0.141481
0.135018
0.127076
0.117368
0.105572
0.0925144
0.080095
0.0691422
0.0594541
0.0518331
0.0480249
0.163405
0.163647
0.163779
0.163769
0.163593
0.163288
0.162887
0.162393
0.161782
0.16101
0.160028
0.158783
0.157213
0.155249
0.152808
0.149787
0.146062
0.141475
0.135835
0.128909
0.120414
0.110011
0.0973002
0.0830626
0.069307
0.0570367
0.0460718
0.0375804
0.0339668
0.160926
0.16116
0.161264
0.161195
0.160938
0.160541
0.160048
0.159463
0.158754
0.157871
0.156763
0.155376
0.153651
0.151517
0.148891
0.145669
0.141725
0.1369
0.130999
0.12378
0.114941
0.104093
0.0907531
0.0755812
0.0605572
0.0467735
0.0340313
0.0240252
0.0206461
0.158514
0.158793
0.158926
0.158824
0.158464
0.15793
0.157314
0.156637
0.15585
0.154886
0.153687
0.152199
0.150365
0.148117
0.145372
0.14203
0.137965
0.133023
0.12701
0.119687
0.110749
0.099769
0.0861693
0.0704551
0.0544651
0.0392475
0.0244139
0.0115885
0.00724411
0.16298
0.147059
0.124916
0.0967553
0.0657882
0.0356825
0.00929086
-0.0151993
-0.0374389
-0.062144
-0.0874191
-0.117833
-0.149402
-0.179142
-0.203219
-0.219159
-0.227009
-0.228873
-0.228267
0.170581
0.158742
0.137432
0.108292
0.0738401
0.0371582
0.00201643
-0.0339645
-0.0673933
-0.105031
-0.143457
-0.182887
-0.220986
-0.254552
-0.280405
-0.297375
-0.306637
-0.310653
-0.312069
0.166234
0.155535
0.135463
0.106261
0.069611
0.0280233
-0.0138713
-0.0602382
-0.10659
-0.153865
-0.201541
-0.248486
-0.292001
-0.328886
-0.356713
-0.375152
-0.38588
-0.391409
-0.394135
0.156535
0.146084
0.127692
0.0991754
0.0601755
0.0139288
-0.0362941
-0.0895339
-0.144567
-0.200697
-0.256923
-0.311308
-0.36034
-0.400565
-0.430084
-0.4494
-0.460903
-0.467367
-0.471018
0.144127
0.134446
0.117344
0.0890164
0.0483247
-0.00125711
-0.0569259
-0.116667
-0.17943
-0.244039
-0.308201
-0.368771
-0.421641
-0.463577
-0.493612
-0.513206
-0.525317
-0.532676
-0.537122
0.127475
0.118157
0.102227
0.0746709
0.0335762
-0.0180223
-0.0774201
-0.142921
-0.212591
-0.284245
-0.354522
-0.419305
-0.474343
-0.517077
-0.547559
-0.567929
-0.58138
-0.590391
-0.596383
0.106872
0.0966469
0.0810118
0.0542166
0.0133935
-0.0392445
-0.101183
-0.170633
-0.244946
-0.320882
-0.39413
-0.459889
-0.514122
-0.555201
-0.584152
-0.603626
-0.616911
-0.626112
-0.632316
0.0833804
0.0712521
0.0546888
0.0277709
-0.0129231
-0.0659195
-0.128982
-0.2001
-0.276204
-0.353279
-0.426287
-0.490178
-0.541565
-0.579882
-0.606923
-0.625514
-0.638722
-0.648145
-0.654646
0.0578981
0.0434765
0.0250865
-0.00297358
-0.0440244
-0.0969655
-0.159847
-0.230598
-0.305872
-0.381085
-0.450781
-0.510157
-0.556784
-0.591086
-0.615341
-0.632324
-0.644794
-0.653912
-0.660252
0.0312621
0.014607
-0.0059755
-0.035785
-0.0775931
-0.130279
-0.1921
-0.261039
-0.333578
-0.404791
-0.469206
-0.522693
-0.563898
-0.594049
-0.615656
-0.631288
-0.643331
-0.652617
-0.6594
0.0044147
-0.014189
-0.036939
-0.0686586
-0.111443
-0.163855
-0.224148
-0.290238
-0.358365
-0.423426
-0.480355
-0.526087
-0.560391
-0.585091
-0.60271
-0.615526
-0.625502
-0.633268
-0.638904
-0.021537
-0.0416556
-0.0662461
-0.0996029
-0.143219
-0.19518
-0.253532
-0.315966
-0.378519
-0.436261
-0.485011
-0.522964
-0.55082
-0.570672
-0.58482
-0.595144
-0.603148
-0.609373
-0.613811
-0.0455499
-0.0666819
-0.0926094
-0.127033
-0.17099
-0.222088
-0.278093
-0.336447
-0.393129
-0.443691
-0.485022
-0.516428
-0.539201
-0.555438
-0.567126
-0.575791
-0.582603
-0.588094
-0.592109
-0.0668582
-0.0885478
-0.115308
-0.150192
-0.193921
-0.243658
-0.296842
-0.350627
-0.401056
-0.444404
-0.478717
-0.504232
-0.522561
-0.535641
-0.545112
-0.552179
-0.557728
-0.562257
-0.565538
-0.0849595
-0.106831
-0.133975
-0.168777
-0.211731
-0.259601
-0.309514
-0.358422
-0.402667
-0.439443
-0.467875
-0.488838
-0.504005
-0.51503
-0.523199
-0.529424
-0.534363
-0.53846
-0.541442
-0.0996968
-0.12148
-0.148658
-0.182984
-0.224778
-0.27046
-0.316934
-0.361101
-0.399785
-0.431107
-0.455022
-0.472751
-0.485867
-0.495729
-0.503329
-0.509354
-0.514317
-0.518575
-0.52178
-0.111241
-0.132789
-0.159794
-0.193457
-0.233917
-0.277237
-0.320117
-0.359538
-0.392987
-0.41951
-0.439701
-0.454908
-0.466498
-0.475526
-0.48272
-0.488582
-0.493511
-0.497757
-0.500958
-0.119879
-0.14113
-0.167863
-0.200836
-0.239986
-0.280998
-0.320423
-0.355475
-0.384396
-0.407043
-0.424425
-0.437867
-0.448489
-0.45707
-0.464118
-0.469976
-0.474955
-0.479214
-0.482417
-0.126001
-0.14695
-0.173405
-0.205817
-0.24391
-0.282992
-0.319495
-0.350923
-0.376225
-0.395886
-0.411161
-0.423298
-0.433201
-0.441437
-0.448346
-0.454162
-0.459131
-0.463358
-0.466535
-0.130057
-0.150731
-0.176992
-0.209075
-0.246431
-0.283919
-0.317853
-0.346115
-0.368349
-0.385546
-0.399089
-0.410101
-0.419291
-0.427054
-0.433611
-0.439119
-0.443786
-0.447687
-0.450579
-0.132399
-0.152838
-0.179043
-0.211095
-0.248107
-0.284464
-0.316377
-0.342127
-0.361956
-0.377214
-0.389342
-0.399355
-0.407818
-0.415013
-0.421085
-0.426143
-0.430358
-0.433809
-0.436328
-0.133364
-0.153625
-0.17996
-0.21226