/*--------------------------------*- C++ -*----------------------------------*\
| =========                 |                                                 |
| \\      /  F ield         | OpenFOAM: The Open Source CFD Toolbox           |
|  \\    /   O peration     | Version:  2312                                  |
|   \\  /    A nd           | Website:  www.openfoam.com                      |
|    \\/     M anipulation  |                                                 |
\*---------------------------------------------------------------------------*/
FoamFile
{
    version     2.0;
    format      ascii;
    arch        "LSB;label=32;scalar=64";
    class       volVectorField;
    location    "71.480339032314632";
    object      U;
}
// * * * * * * * * * * * * * * * * * * * * * * * * * * * * * * * * * * * * * //

dimensions      [0 1 -1 0 0 0 0];

internalField   nonuniform List<vector> 
21039
(
(0.913796 0.0474883 0)
(1.02605 0.0665156 0)
(1.00449 0.0294684 0)
(1.00177 0.0189054 0)
(1.00121 0.0138963 0)
(1.0008 0.0105152 0)
(1.00055 0.0081894 0)
(1.0004 0.00654725 0)
(1.0003 0.00533763 0)
(1.00023 0.00441668 0)
(1.00018 0.00369892 0)
(1.00015 0.00312935 0)
(1.00012 0.00267097 0)
(1.0001 0.00229821 0)
(1.00008 0.00199296 0)
(1.00006 0.00174208 0)
(1.00005 0.0015359 0)
(1.00004 0.00136709 0)
(1.00003 0.00123001 0)
(1.00002 0.00112008 0)
(1.00002 0.00103344 0)
(1.00001 0.000968054 0)
(1.00001 0.00092565 0)
(1.00001 0.00088749 0)
(1.00001 0.000858433 0)
(1.00001 0.000835315 0)
(1.00001 0.000813836 0)
(1.00001 0.000783844 0)
(1.00002 0.000723333 0)
(0.794636 0.0731024 0)
(1.07448 0.121694 0)
(1.03987 0.070798 0)
(1.01811 0.0497027 0)
(1.01129 0.0382775 0)
(1.00764 0.0294896 0)
(1.00539 0.0231878 0)
(1.00396 0.0186062 0)
(1.003 0.0151443 0)
(1.00233 0.0124611 0)
(1.00185 0.01034 0)
(1.00149 0.00863415 0)
(1.00121 0.00724296 0)
(1.00099 0.00609599 0)
(1.00082 0.00514298 0)
(1.00068 0.0043474 0)
(1.00056 0.00368229 0)
(1.00046 0.00312746 0)
(1.00037 0.00266757 0)
(1.0003 0.00229067 0)
(1.00023 0.00198686 0)
(1.00017 0.00174978 0)
(1.00013 0.00158359 0)
(1.0001 0.00145804 0)
(1.00009 0.00137906 0)
(1.00009 0.00132868 0)
(1.00009 0.00129271 0)
(1.0001 0.00125157 0)
(1.00011 0.00117492 0)
(0.667398 0.0572892 0)
(1.08301 0.124793 0)
(1.08434 0.090247 0)
(1.04629 0.0676482 0)
(1.02907 0.0541158 0)
(1.02026 0.0431432 0)
(1.0147 0.0348262 0)
(1.011 0.0284317 0)
(1.00845 0.0233877 0)
(1.00663 0.0193626 0)
(1.0053 0.0161108 0)
(1.0043 0.0134499 0)
(1.00353 0.0112486 0)
(1.00293 0.0094116 0)
(1.00244 0.00786889 0)
(1.00204 0.00656855 0)
(1.0017 0.00547174 0)
(1.00141 0.00454917 0)
(1.00116 0.00377855 0)
(1.00094 0.00314276 0)
(1.00075 0.00262785 0)
(1.00057 0.00222361 0)
(1.00042 0.00193606 0)
(1.00032 0.00173099 0)
(1.00026 0.0016094 0)
(1.00023 0.00153647 0)
(1.00023 0.00148821 0)
(1.00024 0.00143916 0)
(1.00025 0.00135544 0)
(0.541099 0.035266 0)
(1.05078 0.110811 0)
(1.1159 0.09697 0)
(1.07612 0.0762338 0)
(1.04925 0.0620524 0)
(1.03529 0.0509247 0)
(1.02645 0.0422302 0)
(1.02028 0.0351793 0)
(1.01587 0.0293701 0)
(1.01264 0.024577 0)
(1.01022 0.0205957 0)
(1.00838 0.0172621 0)
(1.00694 0.014452 0)
(1.00579 0.0120701 0)
(1.00486 0.0100432 0)
(1.00409 0.00831555 0)
(1.00343 0.00684419 0)
(1.00287 0.00559631 0)
(1.00238 0.00454671 0)
(1.00194 0.00367605 0)
(1.00154 0.00296887 0)
(1.00119 0.00241271 0)
(1.00087 0.00201514 0)
(1.00064 0.00174069 0)
(1.00049 0.00158278 0)
(1.00041 0.00149117 0)
(1.00038 0.00143342 0)
(1.00039 0.00137918 0)
(1.00039 0.00128931 0)
(0.444291 0.0186682 0)
(0.997789 0.0918591 0)
(1.12901 0.0956085 0)
(1.10144 0.0794114 0)
(1.06826 0.0653394 0)
(1.04981 0.0546334 0)
(1.03831 0.0462154 0)
(1.03011 0.0391437 0)
(1.02404 0.0331304 0)
(1.01946 0.0280257 0)
(1.01596 0.0236713 0)
(1.01323 0.019939 0)
(1.01107 0.016729 0)
(1.00932 0.0139607 0)
(1.00788 0.0115701 0)
(1.00667 0.00950648 0)
(1.00564 0.0077301 0)
(1.00474 0.00620994 0)
(1.00394 0.00492197 0)
(1.00323 0.00384775 0)
(1.00258 0.00297277 0)
(1.00198 0.00228437 0)
(1.00144 0.001792 0)
(1.00103 0.00146093 0)
(1.00077 0.00127617 0)
(1.00061 0.00117352 0)
(1.00054 0.00111347 0)
(1.00053 0.00106136 0)
(1.00052 0.000970586 0)
(0.378761 0.00810367 0)
(0.939789 0.0718362 0)
(1.12701 0.0882549 0)
(1.12085 0.0785546 0)
(1.08555 0.0657671 0)
(1.06314 0.0557408 0)
(1.04939 0.0478275 0)
(1.0396 0.0410262 0)
(1.03219 0.0351047 0)
(1.02649 0.0299583 0)
(1.02203 0.0254671 0)
(1.01849 0.0215367 0)
(1.01563 0.0180922 0)
(1.01328 0.0150717 0)
(1.01132 0.0124244 0)
(1.00965 0.0101096 0)
(1.00821 0.00809477 0)
(1.00694 0.0063544 0)
(1.0058 0.00486871 0)
(1.00476 0.00362272 0)
(1.00381 0.00260514 0)
(1.00292 0.00180494 0)
(1.00211 0.00123456 0)
(1.00148 0.000861563 0)
(1.00107 0.000662031 0)
(1.00082 0.000558124 0)
(1.00069 0.000503807 0)
(1.00065 0.00046317 0)
(1.00061 0.000384028 0)
(0.333559 0.00233415 0)
(0.883538 0.0538362 0)
(1.11411 0.077811 0)
(1.13394 0.0747262 0)
(1.10099 0.0641263 0)
(1.07545 0.054997 0)
(1.05964 0.0477169 0)
(1.04854 0.0413583 0)
(1.04008 0.0356995 0)
(1.03345 0.0306692 0)
(1.02818 0.0261867 0)
(1.02393 0.0221894 0)
(1.02044 0.0186257 0)
(1.01752 0.0154512 0)
(1.01506 0.0126294 0)
(1.01293 0.0101309 0)
(1.01107 0.00793226 0)
(1.0094 0.00601526 0)
(1.00789 0.00436633 0)
(1.0065 0.0029758 0)
(1.0052 0.00183748 0)
(1.00398 0.000944527 0)
(1.00286 0.000307786 0)
(1.00197 -9.36759e-05 0)
(1.00137 -0.000293811 0)
(1.001 -0.000389599 0)
(1.00081 -0.000429685 0)
(1.00073 -0.00045797 0)
(1.00065 -0.00052918 0)
(0.301275 -0.000193869 0)
(0.83185 0.0395746 0)
(1.09397 0.0669136 0)
(1.1407 0.0692856 0)
(1.11404 0.0611922 0)
(1.08674 0.0530366 0)
(1.06911 0.0463934 0)
(1.05692 0.0405392 0)
(1.04761 0.0352294 0)
(1.04023 0.0304054 0)
(1.03429 0.0260204 0)
(1.02942 0.0220397 0)
(1.02537 0.0184321 0)
(1.02195 0.0151701 0)
(1.01901 0.012231 0)
(1.01644 0.00959684 0)
(1.01416 0.00725355 0)
(1.01209 0.00519119 0)
(1.01019 0.00340336 0)
(1.00842 0.00188681 0)
(1.00674 0.00064135 0)
(1.00515 -0.000334381 0)
(1.00366 -0.00102347 0)
(1.00248 -0.00144513 0)
(1.00166 -0.00164183 0)
(1.00115 -0.00171854 0)
(1.00087 -0.00173031 0)
(1.00072 -0.00173034 0)
(1.00059 -0.0017938 0)
(0.278316 -0.000988898 0)
(0.786221 0.0290873 0)
(1.06986 0.056924 0)
(1.14198 0.0632767 0)
(1.12445 0.0576429 0)
(1.09689 0.0504457 0)
(1.0778 0.0443434 0)
(1.06469 0.0389461 0)
(1.05473 0.0339862 0)
(1.04676 0.0293957 0)
(1.04027 0.0251476 0)
(1.03489 0.0212265 0)
(1.03036 0.0176175 0)
(1.02649 0.0143072 0)
(1.02311 0.0112852 0)
(1.02013 0.00854403 0)
(1.01743 0.00607887 0)
(1.01497 0.00388812 0)
(1.01267 0.00197305 0)
(1.01049 0.00033744 0)
(1.00841 -0.00101284 0)
(1.00641 -0.00207211 0)
(1.00452 -0.00281193 0)
(1.003 -0.00325274 0)
(1.00192 -0.00344413 0)
(1.00124 -0.00349662 0)
(1.00084 -0.00347384 0)
(1.0006 -0.0034354 0)
(1.00039 -0.00347455 0)
(0.261889 -0.00103361 0)
(0.74703 0.0216668 0)
(1.04431 0.0482586 0)
(1.13907 0.0572633 0)
(1.13234 0.0538678 0)
(1.10597 0.0475978 0)
(1.0858 0.0419297 0)
(1.07191 0.0368935 0)
(1.06143 0.0322306 0)
(1.05302 0.0278526 0)
(1.0461 0.0237393 0)
(1.0403 0.0198861 0)
(1.03537 0.0162887 0)
(1.0311 0.0129445 0)
(1.02734 0.00985252 0)
(1.02396 0.0070142 0)
(1.02088 0.00443313 0)
(1.01802 0.00211556 0)
(1.01532 6.99898e-05 0)
(1.01273 -0.00169343 0)
(1.01023 -0.00316015 0)
(1.00778 -0.00431604 0)
(1.00544 -0.0051223 0)
(1.00352 -0.00559414 0)
(1.00215 -0.00578588 0)
(1.00125 -0.00581661 0)
(1.00069 -0.00575798 0)
(1.00033 -0.00567714 0)
(1.00001 -0.0056856 0)
(0.249675 -0.000814121 0)
(0.713775 0.0165241 0)
(1.01893 0.0409382 0)
(1.13321 0.0515275 0)
(1.13805 0.0500536 0)
(1.11409 0.0446712 0)
(1.09327 0.0393604 0)
(1.07869 0.0345921 0)
(1.06778 0.0301571 0)
(1.05903 0.0259478 0)
(1.05178 0.0219423 0)
(1.04566 0.018141 0)
(1.04039 0.014546 0)
(1.03578 0.0111615 0)
(1.03168 0.0079936 0)
(1.02795 0.0050506 0)
(1.02451 0.00234309 0)
(1.02127 -0.000116413 0)
(1.01817 -0.00231328 0)
(1.01516 -0.00422908 0)
(1.01221 -0.00584016 0)
(1.00929 -0.00712362 0)
(1.00645 -0.00803 0)
(1.00409 -0.00856328 0)
(1.00237 -0.00877782 0)
(1.0012 -0.00880215 0)
(1.00043 -0.00871565 0)
(0.999901 -0.00859528 0)
(0.999421 -0.00857277 0)
(0.240149 -0.000553575 0)
(0.685617 0.0129734 0)
(0.99461 0.0348383 0)
(1.12537 0.0462123 0)
(1.1419 0.0463049 0)
(1.12135 0.0417529 0)
(1.10034 0.0367493 0)
(1.08517 0.0321718 0)
(1.07389 0.0278972 0)
(1.06487 0.0238064 0)
(1.05737 0.0198715 0)
(1.05098 0.0160931 0)
(1.04545 0.0124769 0)
(1.04056 0.00903095 0)
(1.03616 0.00576618 0)
(1.03212 0.00269583 0)
(1.02835 -0.000164813 0)
(1.02475 -0.0027985 0)
(1.02126 -0.00518347 0)
(1.01783 -0.00729303 0)
(1.01441 -0.00909575 0)
(1.01099 -0.0105596 0)
(1.00762 -0.0116235 0)
(1.00476 -0.0122744 0)
(1.00263 -0.0125583 0)
(1.00114 -0.0126115 0)
(1.0001 -0.0125211 0)
(0.999327 -0.0123758 0)
(0.99863 -0.012329 0)
(0.232436 -0.000342264 0)
(0.661723 0.0104767 0)
(0.971825 0.0297777 0)
(1.11627 0.041373 0)
(1.1442 0.0426886 0)
(1.12783 0.0388951 0)
(1.10709 0.0341656 0)
(1.09145 0.0297185 0)
(1.07984 0.0255433 0)
(1.0706 0.0215217 0)
(1.06291 0.0176166 0)
(1.05632 0.0138264 0)
(1.05058 0.0101571 0)
(1.04547 0.00661888 0)
(1.04082 0.00322518 0)
(1.03651 -8.15318e-06 0)
(1.03244 -0.00306319 0)
(1.02851 -0.00591747 0)
(1.02466 -0.00854262 0)
(1.02081 -0.0109053 0)
(1.01692 -0.0129674 0)
(1.01297 -0.0146889 0)
(1.00904 -0.0159974 0)
(1.00564 -0.0168565 0)
(1.00305 -0.0172911 0)
(1.00116 -0.01744 0)
(0.999769 -0.0173967 0)
(0.998674 -0.0172628 0)
(0.997678 -0.0172134 0)
(0.226025 -0.000198524 0)
(0.641364 0.00865928 0)
(0.950784 0.0255708 0)
(1.10649 0.037008 0)
(1.14523 0.0392435 0)
(1.13359 0.0361313 0)
(1.11358 0.0316548 0)
(1.09761 0.0272941 0)
(1.08572 0.0231672 0)
(1.07631 0.019169 0)
(1.06847 0.0152539 0)
(1.06175 0.0114149 0)
(1.05585 0.00765661 0)
(1.05057 0.00398903 0)
(1.04573 0.000425748 0)
(1.0412 -0.00301742 0)
(1.03688 -0.00631982 0)
(1.03266 -0.00945437 0)
(1.02846 -0.0123878 0)
(1.02422 -0.0150814 0)
(1.01987 -0.0174917 0)
(1.01539 -0.0195728 0)
(1.01088 -0.0212443 0)
(1.00692 -0.0224432 0)
(1.00382 -0.0231572 0)
(1.00145 -0.0235172 0)
(0.999615 -0.0236168 0)
(0.998083 -0.023569 0)
(0.996676 -0.0235673 0)
(0.220589 -0.000112288 0)
(0.623926 0.00729038 0)
(0.93153 0.0220822 0)
(1.0964 0.0331168 0)
(1.1452 0.0360044 0)
(1.13867 0.0334834 0)
(1.11979 0.0292419 0)
(1.10365 0.0249382 0)
(1.09152 0.0208202 0)
(1.08198 0.0168068 0)
(1.07404 0.0128456 0)
(1.06723 0.00892278 0)
(1.06124 0.00503955 0)
(1.05584 0.00120365 0)
(1.05087 -0.00257408 0)
(1.04618 -0.00627825 0)
(1.04166 -0.00988617 0)
(1.0372 -0.013368 0)
(1.0327 -0.0166869 0)
(1.02808 -0.0197996 0)
(1.0233 -0.0226582 0)
(1.01832 -0.0252138 0)
(1.01326 -0.0273856 0)
(1.00877 -0.0290946 0)
(1.00519 -0.0302822 0)
(1.00235 -0.0310568 0)
(0.999992 -0.0314907 0)
(0.997908 -0.0316885 0)
(0.995952 -0.031839 0)
(0.216293 -5.41767e-05 0)
(0.610003 0.00631018 0)
(0.915334 0.0193827 0)
(1.08714 0.0299132 0)
(1.14454 0.033222 0)
(1.14288 0.0311795 0)
(1.12538 0.0271459 0)
(1.10925 0.0228826 0)
(1.09695 0.0187515 0)
(1.08731 0.0147003 0)
(1.07934 0.0106712 0)
(1.07251 0.00664292 0)
(1.06649 0.00261109 0)
(1.06105 -0.00142118 0)
(1.05602 -0.00544716 0)
(1.05126 -0.00945357 0)
(1.04662 -0.0134184 0)
(1.04199 -0.017312 0)
(1.03727 -0.0210954 0)
(1.03237 -0.0247205 0)
(1.02722 -0.028132 0)
(1.0218 -0.0312742 0)
(1.01626 -0.0340611 0)
(1.01137 -0.0364044 0)
(1.00744 -0.0382235 0)
(1.00423 -0.0396263 0)
(1.0014 -0.0406526 0)
(0.998683 -0.0413485 0)
(0.995978 -0.0418329 0)
(0.213105 -1.95147e-05 0)
(0.599725 0.00564363 0)
(0.902892 0.0174443 0)
(1.07953 0.0275042 0)
(1.14361 0.0310728 0)
(1.14609 0.0293912 0)
(1.12994 0.0255251 0)
(1.11392 0.0212919 0)
(1.10153 0.0171437 0)
(1.09185 0.0130536 0)
(1.08389 0.00895822 0)
(1.07708 0.00482836 0)
(1.07109 0.000653345 0)
(1.06568 -0.00356955 0)
(1.06067 -0.00783866 0)
(1.0559 -0.0121453 0)
(1.05124 -0.0164719 0)
(1.04654 -0.0207924 0)
(1.04171 -0.02507 0)
(1.03663 -0.0292542 0)
(1.03122 -0.033282 0)
(1.02548 -0.0370848 0)
(1.01958 -0.0405499 0)
(1.01441 -0.0435487 0)
(1.01034 -0.0459973 0)
(1.00705 -0.0480856 0)
(1.0041 -0.0499353 0)
(1.0011 -0.0515787 0)
(0.997937 -0.0528517 0)
(0.210622 2.84526e-05 0)
(0.591813 0.00519014 0)
(0.893033 0.0160358 0)
(1.07316 0.0256785 0)
(1.14253 0.0294102 0)
(1.14855 0.0280106 0)
(1.13367 0.0242909 0)
(1.11783 0.0200938 0)
(1.10538 0.0159398 0)
(1.09569 0.0118224 0)
(1.08776 0.00767398 0)
(1.081 0.0034584 0)
(1.07507 -0.000840827 0)
(1.06973 -0.00523263 0)
(1.06478 -0.00972151 0)
(1.06007 -0.0143052 0)
(1.05544 -0.0189736 0)
(1.05076 -0.0237084 0)
(1.04589 -0.0284789 0)
(1.04073 -0.0332384 0)
(1.03518 -0.0379211 0)
(1.02922 -0.0424485 0)
(1.02302 -0.046665 0)
(1.0176 -0.0503205 0)
(1.01341 -0.0532433 0)
(1.01023 -0.0556917 0)
(1.00767 -0.0580347 0)
(1.00542 -0.0606609 0)
(1.0029 -0.0630034 0)
(0.209012 2.06505e-05 0)
(0.586328 0.00483573 0)
(0.885972 0.0150312 0)
(1.06849 0.0243893 0)
(1.14174 0.0282274 0)
(1.15045 0.0269992 0)
(1.13662 0.0233607 0)
(1.12097 0.0191876 0)
(1.10853 0.0150389 0)
(1.09885 0.0109092 0)
(1.09098 0.00672263 0)
(1.0843 0.00243747 0)
(1.07846 -0.00196659 0)
(1.07321 -0.00650389 0)
(1.06837 -0.0111859 0)
(1.06376 -0.0160186 0)
(1.05923 -0.0210016 0)
(1.05464 -0.0261272 0)
(1.04984 -0.0313757 0)
(1.04473 -0.036711 0)
(1.03918 -0.0420765 0)
(1.03318 -0.0474052 0)
(1.02692 -0.0525318 0)
(1.02143 -0.0570521 0)
(1.0172 -0.0605675 0)
(1.01408 -0.0631117 0)
(1.01179 -0.0647081 0)
(1.01033 -0.0660717 0)
(1.01062 -0.0711062 0)
(1.00002 0.00073086 0)
(1.00002 0.000731032 0)
(1.00001 0.000726205 0)
(1.00001 0.000722322 1.02246e-21)
(1.00001 0.000720474 5.09947e-21)
(1.00001 0.000720482 -9.17604e-21)
(1.00001 0.000722184 5.09614e-21)
(1.00001 0.000725462 -4.06052e-21)
(1.00001 0.000730167 5.18694e-22)
(1 0.000736313 4.05879e-21)
(1 0.000743735 0)
(1 0.00075242 -4.53872e-21)
(1 0.00076225 5.15409e-22)
(0.999999 0.000773101 4.02988e-21)
(0.999997 0.000784955 0)
(0.999996 0.000797647 0)
(0.999995 0.000811139 -3.99318e-21)
(0.999994 0.000825295 3.9957e-21)
(0.999993 0.000839957 0)
(0.999991 0.000855127 -1.98223e-21)
(0.99999 0.000870621 2.10688e-21)
(0.999989 0.000886328 1.84821e-21)
(0.999989 0.000902194 -2.9553e-21)
(0.999988 0.000918044 9.52571e-22)
(0.999987 0.000933784 3.0536e-23)
(0.999987 0.000949347 -6.10355e-23)
(0.999986 0.00096456 8.49272e-22)
(0.999986 0.000979365 -9.70762e-22)
(0.999985 0.000993664 0)
(0.999985 0.00100722 0)
(0.999985 0.00102007 -2.39652e-22)
(0.999985 0.00103219 -2.38693e-22)
(0.999985 0.00104345 -4.03378e-21)
(0.999985 0.00105382 3.31987e-21)
(0.999985 0.0010632 -4.23544e-21)
(0.999986 0.00107154 4.23012e-21)
(0.999986 0.0010788 -3.2637e-21)
(0.999987 0.00108486 3.26227e-21)
(0.999988 0.00108973 4.63013e-22)
(0.999989 0.0010933 4.60876e-22)
(0.99999 0.00109557 -4.58706e-22)
(0.999991 0.00109651 0)
(0.999992 0.00109603 0)
(0.999993 0.00109419 0)
(0.999995 0.00109087 0)
(0.999996 0.00108627 0)
(0.999998 0.00108027 1.77933e-21)
(0.999999 0.00107201 -1.77639e-21)
(1 0.00105735 0)
(1.00011 0.00117746 0)
(1.00009 0.00117378 2.06292e-21)
(1.00008 0.00116708 -2.05606e-21)
(1.00006 0.00116439 -1.02615e-21)
(1.00004 0.00116687 -1.02644e-21)
(1.00003 0.00117392 -3.06945e-21)
(1.00002 0.00118527 5.12404e-21)
(1 0.00120088 0)
(0.99999 0.00122024 -5.09996e-22)
(0.999977 0.00124349 -1.019e-21)
(0.999965 0.00127015 0)
(0.999954 0.00130013 5.07277e-22)
(0.999943 0.00133325 -4.55157e-21)
(0.999933 0.00136904 4.04886e-21)
(0.999923 0.00140753 0)
(0.999914 0.00144829 1.00732e-21)
(0.999906 0.00149112 0)
(0.999898 0.00153586 0)
(0.999891 0.001582 0)
(0.999885 0.0016295 -1.991e-21)
(0.99988 0.00167804 1.86748e-21)
(0.999875 0.00172726 -1.24191e-22)
(0.999871 0.00177701 0)
(0.999868 0.00182697 -4.61371e-22)
(0.999866 0.00187682 4.84548e-22)
(0.999865 0.00192639 9.1892e-23)
(0.999864 0.00197537 1.22039e-22)
(0.999865 0.00202348 0)
(0.999866 0.00207054 -1.93642e-21)
(0.999868 0.00211624 1.93598e-21)
(0.99987 0.00216037 -3.60369e-21)
(0.999874 0.00220271 7.9122e-21)
(0.999878 0.002243 -3.58907e-21)
(0.999883 0.00228106 4.75616e-22)
(0.999888 0.0023166 4.73685e-22)
(0.999895 0.00234946 4.72162e-22)
(0.999902 0.00237946 -4.6962e-22)
(0.99991 0.00240634 4.20189e-21)
(0.999918 0.00243006 -3.26483e-21)
(0.999928 0.00245033 -1.39029e-21)
(0.999938 0.00246702 5.06691e-21)
(0.999948 0.00247989 -3.67877e-21)
(0.99996 0.0024887 -1.82737e-21)
(0.999972 0.00249354 3.63012e-21)
(0.999984 0.00249398 -7.23822e-21)
(0.999998 0.00249021 3.60712e-21)
(1.00001 0.00248204 1.78816e-21)
(1.00003 0.00246863 -3.74262e-24)
(1.00004 0.0024449 0)
(1.00022 0.00134575 3.10408e-21)
(1.00018 0.00133835 -1.03646e-21)
(1.00014 0.00133349 -4.12943e-21)
(1.0001 0.00133556 2.0589e-21)
(1.00006 0.00134577 -2.05855e-21)
(1.00002 0.00136328 0)
(0.999976 0.00138782 -2.049e-21)
(0.999939 0.00141946 -6.13608e-21)
(0.999903 0.00145715 6.13759e-21)
(0.999869 0.00150132 1.01902e-21)
(0.999837 0.00155104 0)
(0.999806 0.00160618 -6.0934e-21)
(0.999778 0.00166659 1.10964e-23)
(0.999751 0.0017313 4.05341e-21)
(0.999727 0.00180053 0)
(0.999704 0.00187347 -1.00673e-21)
(0.999684 0.00194978 -1.00674e-21)
(0.999665 0.00202941 0)
(0.999649 0.00211128 -1.00178e-21)
(0.999635 0.00219543 -1.99256e-21)
(0.999623 0.00228143 1.99317e-21)
(0.999613 0.00236853 -2.48964e-22)
(0.999605 0.0024566 -2.47697e-22)
(0.9996 0.00254515 0)
(0.999597 0.00263357 3.83575e-23)
(0.999596 0.00272164 -2.14581e-22)
(0.999598 0.0028089 0)
(0.999601 0.00289481 0)
(0.999607 0.00297908 -1.9369e-21)
(0.999615 0.00306131 1.93653e-21)
(0.999625 0.00314102 -3.84489e-21)
(0.999637 0.0032179 3.84361e-21)
(0.999651 0.00329154 0)
(0.999667 0.00336158 0)
(0.999686 0.00342762 0)
(0.999706 0.00348938 -9.43145e-22)
(0.999728 0.00354648 -1.87973e-21)
(0.999752 0.00359852 0)
(0.999778 0.00364535 -9.30733e-22)
(0.999806 0.00368641 -9.19511e-22)
(0.999835 0.00372162 2.77406e-21)
(0.999867 0.00375058 0)
(0.9999 0.00377285 3.64797e-21)
(0.999934 0.00378849 -5.46071e-21)
(0.999971 0.00379674 0)
(1.00001 0.00379783 0)
(1.00005 0.00379119 0)
(1.00009 0.00377596 -1.78293e-21)
(1.00014 0.00374794 -1.77201e-21)
(1.00034 0.00126802 -2.07394e-21)
(1.00027 0.00126119 4.15073e-21)
(1.00018 0.00126343 4.14339e-21)
(1.0001 0.00127533 6.19501e-21)
(1.00002 0.00129846 -2.0696e-21)
(0.99994 0.0013318 -4.11284e-21)
(0.999864 0.00137509 8.2239e-21)
(0.999792 0.00142863 -3.94238e-24)
(0.999723 0.00149061 -2.04633e-21)
(0.999657 0.00156192 2.0487e-21)
(0.999595 0.00164106 0)
(0.999537 0.00172788 2.03462e-21)
(0.999483 0.00182232 -2.02332e-21)
(0.999432 0.00192274 8.11574e-21)
(0.999386 0.00202968 -8.09737e-21)
(0.999344 0.00214187 6.06911e-21)
(0.999305 0.00225879 -1.01317e-21)
(0.999271 0.00238061 1.00705e-21)
(0.999242 0.00250549 1.00106e-21)
(0.999216 0.00263362 -1.00185e-21)
(0.999195 0.00276453 0)
(0.999178 0.00289692 -1.4888e-21)
(0.999166 0.00303074 1.24344e-21)
(0.999158 0.00316534 9.89736e-22)
(0.999154 0.00329975 4.61469e-23)
(0.999154 0.00343371 9.18296e-23)
(0.999159 0.00356665 1.46667e-21)
(0.999169 0.00369765 -9.76551e-22)
(0.999182 0.00382642 1.93916e-21)
(0.9992 0.0039524 -1.93884e-21)
(0.999222 0.00407482 0)
(0.999248 0.00419331 4.79469e-21)
(0.999277 0.00430729 -3.83197e-21)
(0.999311 0.00441619 3.80141e-21)
(0.999349 0.00451954 -3.80001e-21)
(0.999391 0.00461688 0)
(0.999436 0.00470764 3.74932e-21)
(0.999486 0.00479134 -1.87727e-21)
(0.999539 0.0048677 0)
(0.999595 0.00493596 3.70187e-21)
(0.999655 0.00499599 -3.69707e-21)
(0.999719 0.00504722 1.83616e-21)
(0.999786 0.00508907 1.82729e-21)
(0.999857 0.00512159 5.45296e-21)
(0.999931 0.00514367 6.12179e-24)
(1.00001 0.00515567 3.60638e-21)
(1.00009 0.00515659 1.78707e-21)
(1.00017 0.00514549 1.77572e-21)
(1.00027 0.00511945 1.77349e-21)
(1.00044 0.000942166 0)
(1.00032 0.000942595 -4.15671e-21)
(1.00019 0.000958889 -4.14742e-21)
(1.00005 0.000987735 0)
(0.999917 0.00103132 -4.13666e-21)
(0.999787 0.00108831 9.80397e-24)
(0.999662 0.0011584 8.27244e-21)
(0.999542 0.00124218 -2.07146e-21)
(0.999429 0.00133695 -1.01131e-23)
(0.999321 0.00144422 -6.1601e-21)
(0.999219 0.00156175 0)
(0.999124 0.00168943 -6.13616e-21)
(0.999035 0.00182735 2.05009e-21)
(0.998953 0.001973 0)
(0.998877 0.00212741 -2.03735e-21)
(0.998808 0.00228872 9.58452e-24)
(0.998746 0.00245622 -2.02071e-21)
(0.998691 0.0026304 7.06125e-21)
(0.998643 0.00280847 -1.21118e-23)
(0.998603 0.00299087 -1.01438e-21)
(0.998569 0.00317705 -1.00071e-21)
(0.998543 0.00336509 1.99122e-21)
(0.998523 0.00355508 -1.99152e-21)
(0.998512 0.00374618 -2.46288e-22)
(0.998507 0.00393696 5.10055e-22)
(0.998509 0.00412719 -2.75433e-22)
(0.998519 0.00431616 9.80656e-22)
(0.998536 0.00450253 -9.7884e-22)
(0.99856 0.00468599 9.75334e-22)
(0.998591 0.00486584 1.93559e-21)
(0.998629 0.00504097 -5.79024e-21)
(0.998673 0.00521099 -9.45628e-22)
(0.998725 0.00537511 5.7566e-21)
(0.998783 0.00553253 1.90961e-21)
(0.998847 0.00568272 -3.78992e-21)
(0.998918 0.00582501 3.78763e-21)
(0.998996 0.00595868 8.12884e-24)
(0.999079 0.00608314 5.61944e-21)
(0.999169 0.00619798 -3.74479e-21)
(0.999265 0.00630223 -9.28262e-21)
(0.999367 0.00639579 3.69239e-21)
(0.999475 0.00647782 1.83722e-21)
(0.999588 0.00654766 7.30178e-21)
(0.999707 0.0066054 -3.64293e-21)
(0.999832 0.00664957 -8.4214e-24)
(0.999963 0.00668067 -9.15483e-24)
(1.0001 0.00669731 0)
(1.00024 0.00669858 -3.56292e-21)
(1.0004 0.00668351 -3.53782e-21)
(1.00049 0.000355536 0)
(1.00032 0.000369266 -6.28476e-21)
(1.00012 0.000407911 6.27567e-21)
(0.999923 0.000462718 0)
(0.999723 0.000536493 0)
(0.999528 0.0006272 -4.15242e-21)
(0.99934 0.000734544 -2.78584e-24)
(0.99916 0.000859495 -4.15225e-21)
(0.998989 0.000998244 -8.20349e-24)
(0.998827 0.00115308 0)
(0.998674 0.00132087 0)
(0.99853 0.00150158 2.05087e-21)
(0.998397 0.00169546 0)
(0.998273 0.00189901 0)
(0.998159 0.00211384 -2.04201e-21)
(0.998056 0.00233738 4.09248e-21)
(0.997963 0.00256875 2.03925e-21)
(0.997881 0.0028088 0)
(0.997809 0.00305362 2.00823e-21)
(0.997749 0.00330397 -5.04808e-21)
(0.997699 0.00355923 -2.00982e-21)
(0.99766 0.00381673 -1.99962e-21)
(0.997632 0.00407674 1.99982e-21)
(0.997615 0.00433821 1.35276e-24)
(0.997609 0.0045992 1.55354e-23)
(0.997614 0.00485949 2.46592e-22)
(0.99763 0.00511823 -4.92951e-22)
(0.997657 0.00537361 0)
(0.997695 0.00562529 -9.74366e-22)
(0.997743 0.00587243 0)
(0.997801 0.00611353 0)
(0.99787 0.00634815 -1.93215e-21)
(0.99795 0.00657532 -7.67128e-21)
(0.998039 0.00679394 2.22699e-23)
(0.998139 0.00700344 1.90715e-21)
(0.998248 0.00720295 0)
(0.998367 0.00739154 -1.88172e-21)
(0.998495 0.00756853 -3.75387e-21)
(0.998632 0.00773338 3.72718e-21)
(0.998779 0.0078849 7.42444e-21)
(0.998935 0.00802301 -7.38533e-21)
(0.999099 0.00814664 2.11369e-24)
(0.999272 0.00825501 -3.65428e-21)
(0.999453 0.00834829 -6.58659e-25)
(0.999643 0.00842461 0)
(0.999842 0.00848473 -3.59652e-21)
(1.00005 0.00852669 -1.78353e-21)
(1.00027 0.00854985 1.7822e-21)
(1.00051 0.00855629 3.54006e-21)
(1.00047 -0.000505552 0)
(1.00022 -0.000453253 4.20173e-21)
(0.999946 -0.000418758 -1.26238e-20)
(0.999673 -0.000328002 0)
(0.999393 -0.000210265 0)
(0.999118 -7.24345e-05 -8.38078e-21)
(0.998852 8.59488e-05 8.35113e-21)
(0.998597 0.000266218 -4.18605e-21)
(0.998354 0.000463347 -8.34181e-24)
(0.998123 0.000680692 4.16045e-21)
(0.997906 0.000914063 0)
(0.997702 0.00116349 0)
(0.997512 0.00142945 4.14656e-21)
(0.997336 0.00170724 0)
(0.997174 0.00199921 0)
(0.997027 0.00230195 -4.10213e-21)
(0.996895 0.00261434 1.51505e-23)
(0.996779 0.00293771 0)
(0.996677 0.00326683 2.02669e-21)
(0.996591 0.00360285 5.06958e-21)
(0.996521 0.00394504 -2.03113e-21)
(0.996466 0.0042899 0)
(0.996427 0.0046379 -1.00176e-21)
(0.996404 0.00498772 1.25157e-21)
(0.996396 0.00533686 -5.45809e-22)
(0.996405 0.0056851 -2.48953e-22)
(0.996428 0.00603143 4.9064e-22)
(0.996468 0.00637349 -9.86362e-22)
(0.996523 0.00671089 0)
(0.996593 0.00704264 -3.90553e-21)
(0.996679 0.00736678 5.82502e-21)
(0.996779 0.00768282 1.91325e-21)
(0.996894 0.00798957 -7.72541e-24)
(0.997024 0.00828559 1.91033e-21)
(0.997168 0.00857025 -1.9185e-21)
(0.997325 0.0088425 -3.78481e-21)
(0.997497 0.00910111 7.54769e-21)
(0.997682 0.00934531 -3.7594e-21)
(0.99788 0.00957444 7.48142e-21)
(0.998091 0.00978703 6.06267e-24)
(0.998314 0.00998311 7.38946e-21)
(0.99855 0.0101613 -3.67222e-21)
(0.998797 0.0103207 0)
(0.999057 0.0104616 -5.31781e-25)
(0.999328 0.0105817 7.22402e-21)
(0.999612 0.010682 0)
(0.999909 0.01076 0)
(1.00022 0.0108154 6.20801e-21)
(1.00056 0.0108551 8.84617e-22)
(1.00034 -0.00179436 1.06062e-21)
(0.999995 -0.00169052 7.45512e-21)
(0.999623 -0.0015223 8.44275e-21)
(0.999243 -0.00136801 -8.49975e-21)
(0.998862 -0.00123435 0)
(0.998491 -0.00104185 -1.10805e-23)
(0.99814 -0.000817279 -4.24732e-21)
(0.997793 -0.000565702 -4.23522e-21)
(0.997462 -0.000293379 1.26182e-20)
(0.997147 4.46838e-06 -4.19472e-21)
(0.996849 0.000322052 0)
(0.99657 0.000659459 8.36389e-21)
(0.99631 0.00101741 -8.31545e-21)
(0.996069 0.0013898 2.55546e-23)
(0.995847 0.00177982 8.28771e-21)
(0.995646 0.00218307 -2.08064e-21)
(0.995465 0.00259813 -2.02686e-21)
(0.995305 0.00302686 4.11538e-21)
(0.995166 0.00346254 0)
(0.995049 0.00390675 -2.03403e-21)
(0.994952 0.0043586 2.03568e-21)
(0.994878 0.00481365 2.0242e-21)
(0.994825 0.00527257 -2.02416e-21)
(0.994794 0.00573372 2.52671e-22)
(0.994785 0.00619399 3.12134e-23)
(0.994797 0.00665307 7.46791e-22)
(0.994832 0.00710975 -2.66472e-24)
(0.994888 0.00756112 0)
(0.994965 0.00800663 0)
(0.995064 0.00844508 -1.11693e-24)
(0.995183 0.00887404 -1.93791e-21)
(0.995324 0.00929288 3.89313e-21)
(0.995484 0.00970016 -3.86553e-21)
(0.995665 0.010094 3.83435e-21)
(0.995865 0.0104738 -7.66785e-21)
(0.996085 0.0108381 1.77778e-23)
(0.996323 0.0111855 3.79181e-21)
(0.996579 0.011515 3.75246e-21)
(0.996854 0.0118259 -7.49939e-21)
(0.997145 0.0121163 -7.44488e-21)
(0.997454 0.0123864 -3.70744e-21)
(0.997779 0.0126344 -3.68426e-21)
(0.998119 0.0128595 0)
(0.998476 0.0130619 -3.63011e-21)
(0.998848 0.0132389 -4.75608e-24)
(0.999236 0.013392 7.16835e-21)
(0.999642 0.0135177 -8.89878e-21)
(1.00007 0.0136165 1.75971e-21)
(1.00053 0.0137018 0)
(1.00005 -0.00346861 0)
(0.999606 -0.00331636 -8.52301e-21)
(0.999118 -0.00310396 0)
(0.998605 -0.00287502 8.50518e-21)
(0.998099 -0.00261545 4.26169e-21)
(0.997604 -0.00229079 -8.52065e-21)
(0.997127 -0.00198543 1.2735e-20)
(0.996668 -0.00168443 4.22747e-21)
(0.996232 -0.00132031 -4.22234e-21)
(0.995818 -0.000919911 0)
(0.995423 -0.000495803 4.21928e-21)
(0.995051 -4.70568e-05 -8.41648e-21)
(0.994704 0.000427237 4.22772e-21)
(0.994382 0.000919288 -4.17557e-21)
(0.994086 0.00143321 2.92379e-23)
(0.993817 0.00196345 4.17807e-21)
(0.993575 0.0025082 -8.32546e-21)
(0.993361 0.00306983 0)
(0.993175 0.00364004 4.12691e-21)
(0.993018 0.00422082 -4.12691e-21)
(0.99289 0.00481101 -1.02145e-21)
(0.99279 0.00540522 0)
(0.99272 0.00600419 1.02357e-21)
(0.99268 0.00660592 2.53564e-22)
(0.992669 0.00720663 -5.37659e-22)
(0.992687 0.0078058 7.5407e-22)
(0.992735 0.00840196 4.96975e-22)
(0.992812 0.00899157 -9.98224e-22)
(0.992919 0.00957379 0)
(0.993054 0.0101472 -1.96741e-21)
(0.993217 0.0107087 3.93592e-21)
(0.993409 0.0112575 0)
(0.993628 0.0117918 1.93551e-21)
(0.993874 0.0123094 0)
(0.994146 0.0128091 3.82939e-21)
(0.994444 0.0132897 -7.6323e-21)
(0.994767 0.0137489 3.78145e-21)
(0.995114 0.0141859 -2.15402e-23)
(0.995485 0.0145996 3.71904e-21)
(0.995878 0.0149879 -3.73482e-21)
(0.996294 0.0153511 3.69681e-21)
(0.99673 0.0156868 7.35544e-21)
(0.997187 0.0159942 0)
(0.997664 0.0162737 0)
(0.998161 0.0165221 -7.21411e-21)
(0.998678 0.0167413 -1.43209e-20)
(0.999218 0.0169268 1.42242e-20)
(0.999786 0.0170803 -7.95741e-21)
(1.00039 0.017224 7.88696e-21)
(0.999545 -0.00565192 0)
(0.998975 -0.00542799 8.67425e-21)
(0.998349 -0.00513967 8.66113e-21)
(0.997698 -0.00482277 1.29746e-20)
(0.997045 -0.00446498 -1.29676e-20)
(0.9964 -0.00406475 -4.30014e-21)
(0.995766 -0.00363655 1.29557e-20)
(0.995164 -0.0031641 -4.28992e-21)
(0.99459 -0.00266042 4.29417e-21)
(0.994043 -0.00214691 0)
(0.993526 -0.00160556 8.59892e-21)
(0.993046 -0.00102024 0)
(0.99259 -0.00040119 -4.22911e-21)
(0.992167 0.000240345 -4.27044e-21)
(0.991777 0.000909655 5.03481e-23)
(0.991423 0.00159949 0)
(0.991104 0.00230744 4.21696e-21)
(0.990822 0.00303632 8.41591e-21)
(0.990576 0.0037762 0)
(0.990369 0.00452939 2.07742e-21)
(0.9902 0.00529432 -2.07678e-21)
(0.990069 0.0060646 -2.06055e-21)
(0.989977 0.00684092 2.07153e-21)
(0.989925 0.00762075 -4.10715e-24)
(0.989912 0.00839964 -5.1056e-22)
(0.989939 0.0091766 -2.24509e-22)
(0.990004 0.00994976 -5.05609e-22)
(0.990109 0.010715 1.00873e-21)
(0.990254 0.0114708 0)
(0.990436 0.0122154 1.98035e-21)
(0.990656 0.0129452 -3.94625e-21)
(0.990914 0.0136588 0)
(0.991209 0.0143541 0)
(0.991539 0.015028 3.86627e-21)
(0.991904 0.0156792 -7.70975e-21)
(0.992303 0.0163062 3.84347e-21)
(0.992735 0.0169061 3.81598e-21)
(0.993198 0.0174778 0)
(0.993692 0.0180201 1.12625e-20)
(0.994215 0.0185302 -7.45884e-21)
(0.994765 0.0190088 -3.69955e-21)
(0.995343 0.0194528 1.04185e-23)
(0.995946 0.0198615 -7.30755e-21)
(0.996574 0.0202354 -7.24682e-21)
(0.997227 0.0205706 -7.1973e-21)
(0.997904 0.0208697 1.16915e-23)
(0.998611 0.0211271 -1.72263e-23)
(0.999351 0.0213457 0)
(1.00014 0.0215598 -1.39812e-20)
(0.998802 -0.008499 0)
(0.998068 -0.00818364 2.26811e-21)
(0.997268 -0.00779205 -1.08389e-20)
(0.99644 -0.00736483 -8.66737e-21)
(0.995606 -0.00688923 8.65893e-21)
(0.994782 -0.00637035 4.40663e-21)
(0.993978 -0.00580703 -4.29845e-21)
(0.9932 -0.00519163 0)
(0.992452 -0.00454285 0)
(0.991738 -0.00385153 8.72554e-21)
(0.991065 -0.00310079 -8.60357e-21)
(0.990433 -0.0023413 4.3164e-21)
(0.989839 -0.00156932 -4.31307e-21)
(0.989288 -0.000742522 4.30817e-21)
(0.98878 0.000122429 4.31241e-21)
(0.988316 0.00101286 -4.27885e-21)
(0.987898 0.00192617 -4.23352e-21)
(0.987528 0.00286569 -4.21715e-21)
(0.987206 0.0038199 4.22124e-21)
(0.986934 0.0047913 -4.2203e-21)
(0.986711 0.00577766 0)
(0.98654 0.00677165 2.10296e-21)
(0.98642 0.00777362 -2.07043e-21)
(0.986353 0.00878032 1.551e-21)
(0.986337 0.00978654 0)
(0.986375 0.0107905 1.02445e-21)
(0.986464 0.0117897 0)
(0.986606 0.0127794 -1.00752e-21)
(0.9868 0.0137571 1.74628e-23)