/*--------------------------------*- C++ -*----------------------------------*\
| =========                 |                                                 |
| \\      /  F ield         | OpenFOAM: The Open Source CFD Toolbox           |
|  \\    /   O peration     | Version:  2312                                  |
|   \\  /    A nd           | Website:  www.openfoam.com                      |
|    \\/     M anipulation  |                                                 |
\*---------------------------------------------------------------------------*/
FoamFile
{
    version     2.0;
    format      ascii;
    arch        "LSB;label=32;scalar=64";
    class       volVectorField;
    location    "16.057637944867874";
    object      U;
}
// * * * * * * * * * * * * * * * * * * * * * * * * * * * * * * * * * * * * * //

dimensions      [0 1 -1 0 0 0 0];

internalField   nonuniform List<vector> 
21039
(
(0.913778 0.0474215 0)
(1.02606 0.0664571 0)
(1.00449 0.0294572 0)
(1.00177 0.0188625 0)
(1.00121 0.0138506 0)
(1.0008 0.0104681 0)
(1.00055 0.00814055 0)
(1.0004 0.00649759 0)
(1.0003 0.00528816 0)
(1.00023 0.00436843 0)
(1.00018 0.00365296 0)
(1.00015 0.00308678 0)
(1.00012 0.00263291 0)
(1.00009 0.00226578 0)
(1.00008 0.0019673 0)
(1.00006 0.00172434 0)
(1.00005 0.0015272 0)
(1.00004 0.00136855 0)
(1.00003 0.00124268 0)
(1.00002 0.00114498 0)
(1.00001 0.00107152 0)
(1.00001 0.00102017 0)
(1 0.000992391 0)
(1 0.000968556 0)
(1 0.000951965 0)
(1 0.000939447 0)
(1.00001 0.000926869 0)
(1.00001 0.00090455 0)
(1.00001 0.000851448 0)
(0.794652 0.0730175 0)
(1.07452 0.12158 0)
(1.03988 0.0707188 0)
(1.01812 0.0495833 0)
(1.0113 0.038154 0)
(1.00765 0.0293618 0)
(1.00539 0.0230573 0)
(1.00396 0.0184764 0)
(1.003 0.0150184 0)
(1.00233 0.0123421 0)
(1.00184 0.0102312 0)
(1.00147 0.00853885 0)
(1.00119 0.00716452 0)
(1.00097 0.0060378 0)
(1.0008 0.00510847 0)
(1.00065 0.00433997 0)
(1.00053 0.00370531 0)
(1.00043 0.00318419 0)
(1.00034 0.00276116 0)
(1.00026 0.00242406 0)
(1.00019 0.00216278 0)
(1.00013 0.00197068 0)
(1.00008 0.0018513 0)
(1.00005 0.00177103 0)
(1.00004 0.00173113 0)
(1.00004 0.0017138 0)
(1.00004 0.00170538 0)
(1.00005 0.00168733 0)
(1.00006 0.0016312 0)
(0.667572 0.0572269 0)
(1.08313 0.124636 0)
(1.08436 0.0900642 0)
(1.04631 0.0674432 0)
(1.02909 0.0539084 0)
(1.02027 0.0429292 0)
(1.0147 0.0346099 0)
(1.011 0.0282188 0)
(1.00844 0.0231832 0)
(1.00661 0.0191719 0)
(1.00527 0.0159392 0)
(1.00426 0.0133031 0)
(1.00348 0.0111321 0)
(1.00287 0.0093313 0)
(1.00237 0.00783054 0)
(1.00196 0.00657794 0)
(1.00161 0.00553457 0)
(1.00131 0.00467098 0)
(1.00105 0.00396466 0)
(1.00082 0.00339814 0)
(1.00062 0.00295707 0)
(1.00044 0.00263078 0)
(1.00028 0.0024243 0)
(1.00017 0.00229718 0)
(1.00011 0.00224258 0)
(1.00009 0.00222612 0)
(1.00008 0.00222489 0)
(1.00009 0.00221509 0)
(1.0001 0.00216548 0)
(0.541472 0.0352103 0)
(1.05104 0.110604 0)
(1.11596 0.0966725 0)
(1.07614 0.0759234 0)
(1.04928 0.0617431 0)
(1.03531 0.0506093 0)
(1.02645 0.0419142 0)
(1.02027 0.0348697 0)
(1.01583 0.0290739 0)
(1.01258 0.0243015 0)
(1.01015 0.0203485 0)
(1.00828 0.0170509 0)
(1.00683 0.0142849 0)
(1.00566 0.0119552 0)
(1.00471 0.00998892 0)
(1.00392 0.00833003 0)
(1.00324 0.00693563 0)
(1.00266 0.00577267 0)
(1.00215 0.00481561 0)
(1.0017 0.00404466 0)
(1.00129 0.00344372 0)
(1.00092 0.00299968 0)
(1.00059 0.00271876 0)
(1.00035 0.00255615 0)
(1.0002 0.00249425 0)
(1.00011 0.00248352 0)
(1.00008 0.00249313 0)
(1.00009 0.00249492 0)
(1.00009 0.00245305 0)
(0.444865 0.0186109 0)
(0.998281 0.0916033 0)
(1.12915 0.0951926 0)
(1.10147 0.0789673 0)
(1.06829 0.0649002 0)
(1.04983 0.0541909 0)
(1.03831 0.0457732 0)
(1.03008 0.0387096 0)
(1.02397 0.032713 0)
(1.01937 0.0276345 0)
(1.01584 0.0233157 0)
(1.01308 0.019629 0)
(1.01088 0.0164748 0)
(1.00909 0.0137731 0)
(1.00762 0.0114599 0)
(1.00638 0.00948446 0)
(1.00531 0.00780709 0)
(1.00438 0.00639651 0)
(1.00356 0.00522827 0)
(1.00281 0.00428334 0)
(1.00214 0.00354642 0)
(1.00152 0.003004 0)
(1.00096 0.00266402 0)
(1.00054 0.002479 0)
(1.00026 0.00241962 0)
(1.00011 0.00242286 0)
(1.00004 0.00245109 0)
(1.00002 0.00247178 0)
(1.00001 0.00244202 0)
(0.379562 0.00804342 0)
(0.940608 0.0715332 0)
(1.12731 0.0877129 0)
(1.1209 0.0779442 0)
(1.08558 0.0651605 0)
(1.06316 0.0551344 0)
(1.04938 0.0472201 0)
(1.03954 0.0404252 0)
(1.0321 0.0345204 0)
(1.02635 0.0294017 0)
(1.02184 0.0249494 0)
(1.01825 0.0210701 0)
(1.01534 0.0176893 0)
(1.01294 0.0147456 0)
(1.01093 0.0121885 0)
(1.00921 0.00997744 0)
(1.00772 0.00808 0)
(1.0064 0.00647042 0)
(1.00521 0.0051285 0)
(1.00413 0.00403857 0)
(1.00314 0.00318834 0)
(1.00222 0.00256596 0)
(1.00138 0.00218222 0)
(1.00073 0.00198832 0)
(1.0003 0.00194273 0)
(1.00005 0.00196988 0)
(0.999925 0.00202611 0)
(0.999883 0.00207471 0)
(0.999849 0.00206389 0)
(0.334622 0.00226913 0)
(0.88479 0.0534812 0)
(1.11467 0.0771307 0)
(1.13405 0.0739158 0)
(1.10101 0.0633075 0)
(1.07548 0.0541804 0)
(1.05963 0.0468954 0)
(1.04848 0.0405369 0)
(1.03995 0.0348896 0)
(1.03326 0.0298829 0)
(1.02793 0.025437 0)
(1.0236 0.0214904 0)
(1.02004 0.0179921 0)
(1.01706 0.0148985 0)
(1.01452 0.0121738 0)
(1.01232 0.00978889 0)
(1.01038 0.00772046 0)
(1.00865 0.00595025 0)
(1.00707 0.00446427 0)
(1.00562 0.0032521 0)
(1.00426 0.00230635 0)
(1.003 0.00161865 0)
(1.00183 0.00120358 0)
(1.00091 0.00101236 0)
(1.00029 0.000990704 0)
(0.999917 0.00105065 0)
(0.999722 0.00114342 0)
(0.999634 0.00122962 0)
(0.999561 0.00124798 0)
(0.302636 -0.000264373 0)
(0.833646 0.0391606 0)
(1.09491 0.0660824 0)
(1.14093 0.0682426 0)
(1.11408 0.0601131 0)
(1.08677 0.0519568 0)
(1.06911 0.0453016 0)
(1.05685 0.039436 0)
(1.04746 0.0341257 0)
(1.04001 0.0293143 0)
(1.03397 0.0249562 0)
(1.02902 0.0210181 0)
(1.02487 0.01747 0)
(1.02135 0.0142855 0)
(1.01832 0.0114429 0)
(1.01565 0.0089247 0)
(1.01326 0.00671743 0)
(1.0111 0.0048112 0)
(1.00911 0.00319941 0)
(1.00725 0.00187841 0)
(1.0055 0.000846621 0)
(1.00384 0.000100019 0)
(1.00229 -0.00034102 0)
(1.00106 -0.000523679 0)
(1.00022 -0.000515609 0)
(0.999694 -0.000416923 0)
(0.999406 -0.000283805 0)
(0.999255 -0.000155634 0)
(0.999123 -7.12618e-05 0)
(0.280015 -0.00106462 0)
(0.788679 0.0286077 0)
(1.07132 0.0559309 0)
(1.14241 0.0619727 0)
(1.12452 0.0562558 0)
(1.09694 0.049046 0)
(1.07782 0.0429202 0)
(1.06464 0.0374938 0)
(1.05458 0.0325139 0)
(1.04652 0.0279167 0)
(1.03992 0.0236772 0)
(1.03442 0.0197818 0)
(1.02977 0.0162173 0)
(1.02577 0.012972 0)
(1.02227 0.0100369 0)
(1.01915 0.0074055 0)
(1.01633 0.00507385 0)
(1.01373 0.00304087 0)
(1.01131 0.00130791 0)
(1.00902 -0.000122378 0)
(1.00683 -0.0012447 0)
(1.00474 -0.00205488 0)
(1.00277 -0.0025255 0)
(1.00118 -0.00270209 0)
(1.00007 -0.0026629 0)
(0.999363 -0.00251834 0)
(0.998953 -0.002331 0)
(0.998715 -0.00215492 0)
(0.998505 -0.00206781 0)
(0.263975 -0.00111518 0)
(0.750269 0.0211156 0)
(1.04645 0.0470955 0)
(1.13983 0.0556759 0)
(1.1325 0.0521296 0)
(1.10606 0.0458217 0)
(1.08588 0.0401119 0)
(1.07191 0.0350224 0)
(1.06132 0.0303114 0)
(1.05279 0.0258981 0)
(1.04574 0.0217652 0)
(1.0398 0.0179108 0)
(1.03472 0.014333 0)
(1.03029 0.0110312 0)
(1.02636 0.0080066 0)
(1.02282 0.00526214 0)
(1.01957 0.00280297 0)
(1.01655 0.000635786 0)
(1.01368 -0.00123148 0)
(1.01094 -0.00278776 0)
(1.00829 -0.00401818 0)
(1.00572 -0.00491014 0)
(1.00327 -0.00542756 0)
(1.00127 -0.00561164 0)
(0.999846 -0.0055493 0)
(0.998914 -0.00536207 0)
(0.998341 -0.00511895 0)
(0.997974 -0.00488226 0)
(0.997651 -0.00475723 0)
(0.252202 -0.000903046 0)
(0.717915 0.0158969 0)
(1.0219 0.0396006 0)
(1.13444 0.0496415 0)
(1.13838 0.0479283 0)
(1.11425 0.0424659 0)
(1.09344 0.0370864 0)
(1.07879 0.0322327 0)
(1.06776 0.0277125 0)
(1.05887 0.0234291 0)
(1.05146 0.0193656 0)
(1.04516 0.0155255 0)
(1.03971 0.0119142 0)
(1.03491 0.00853865 0)
(1.0306 0.00540784 0)
(1.02667 0.00253254 0)
(1.02301 -7.57801e-05 0)
(1.01957 -0.00240393 0)
(1.01626 -0.0044349 0)
(1.01305 -0.00614843 0)
(1.00991 -0.00752098 0)
(1.00681 -0.0085306 0)
(1.00383 -0.0091306 0)
(1.00135 -0.00935354 0)
(0.999565 -0.00929067 0)
(0.998353 -0.00907528 0)
(0.997565 -0.00878419 0)
(0.997019 -0.00848875 0)
(0.996534 -0.00831656 0)
(0.243174 -0.000651321 0)
(0.690775 0.0122679 0)
(0.998595 0.0333254 0)
(1.12723 0.0440201 0)
(1.14251 0.0437656 0)
(1.12165 0.0390724 0)
(1.10064 0.0339614 0)
(1.08542 0.0292579 0)
(1.07402 0.0248515 0)
(1.06483 0.0206376 0)
(1.05714 0.016595 0)
(1.05056 0.0127291 0)
(1.04481 0.00904911 0)
(1.03968 0.0055673 0)
(1.03504 0.00229815 0)
(1.03074 -0.000743447 0)
(1.0267 -0.00354039 0)
(1.02284 -0.00607124 0)
(1.0191 -0.0083107 0)
(1.01541 -0.0102304 0)
(1.01174 -0.0117982 0)
(1.00808 -0.0129824 0)
(1.00452 -0.0137244 0)
(1.00151 -0.0140423 0)
(0.999283 -0.014024 0)
(0.997724 -0.0138134 0)
(0.996651 -0.0134959 0)
(0.995857 -0.0131546 0)
(0.995146 -0.0129396 0)
(0.236021 -0.000450088 0)
(0.668016 0.00969304 0)
(0.976993 0.0280922 0)
(1.11895 0.0388743 0)
(1.14521 0.0397185 0)
(1.12835 0.0357025 0)
(1.10759 0.0308131 0)
(1.09192 0.0261896 0)
(1.08019 0.0218262 0)
(1.07077 0.0176215 0)
(1.06286 0.013548 0)
(1.05605 0.00960959 0)
(1.05005 0.00581745 0)
(1.04465 0.0021866 0)
(1.03971 -0.00126683 0)
(1.0351 -0.00452408 0)
(1.0307 -0.00756141 0)
(1.02645 -0.0103507 0)
(1.02226 -0.0128598 0)
(1.01809 -0.0150526 0)
(1.01388 -0.0168892 0)
(1.00963 -0.0183285 0)
(1.00543 -0.0193004 0)
(1.00183 -0.0198022 0)
(0.999102 -0.0199064 0)
(0.99712 -0.0197631 0)
(0.995675 -0.0194656 0)
(0.994542 -0.01911 0)
(0.99352 -0.0188694 0)
(0.230229 -0.000317147 0)
(0.648903 0.00779908 0)
(0.957302 0.0237179 0)
(1.11017 0.0342087 0)
(1.14681 0.0358356 0)
(1.13444 0.0324004 0)
(1.11437 0.0276961 0)
(1.09839 0.0230975 0)
(1.08638 0.018716 0)
(1.07678 0.0144639 0)
(1.0687 0.010308 0)
(1.06171 0.00624852 0)
(1.05552 0.00229593 0)
(1.04991 -0.0015355 0)
(1.04472 -0.00522831 0)
(1.03983 -0.00875962 0)
(1.03512 -0.0121009 0)
(1.0305 -0.015219 0)
(1.02589 -0.0180755 0)
(1.02122 -0.0206272 0)
(1.01646 -0.0228271 0)
(1.0116 -0.0246266 0)
(1.00673 -0.0259469 0)
(1.0025 -0.0267611 0)
(0.999207 -0.0271111 0)
(0.996716 -0.0271438 0)
(0.994791 -0.0269542 0)
(0.993197 -0.0266515 0)
(0.991744 -0.0264283 0)
(0.225475 -0.000242652 0)
(0.632823 0.00635513 0)
(0.939565 0.0200679 0)
(1.1013 0.0300271 0)
(1.14754 0.0321612 0)
(1.13997 0.0291993 0)
(1.12097 0.0246452 0)
(1.10484 0.0200301 0)
(1.09261 0.0155801 0)
(1.08286 0.011231 0)
(1.07467 0.00694481 0)
(1.06756 0.00271632 0)
(1.06123 -0.00144718 0)
(1.05546 -0.00553302 0)
(1.05008 -0.00952295 0)
(1.04496 -0.0133917 0)
(1.03996 -0.0171078 0)
(1.035 -0.0206341 0)
(1.02999 -0.0239267 0)
(1.02486 -0.0269352 0)
(1.01955 -0.0296056 0)
(1.01407 -0.0318844 0)
(1.00854 -0.0336907 0)
(1.00369 -0.034984 0)
(0.999844 -0.035767 0)
(0.996812 -0.0361691 0)
(0.994322 -0.0362677 0)
(0.992137 -0.0361652 0)
(0.990106 -0.0360526 0)
(0.221859 -0.000193661 0)
(0.62024 0.00531052 0)
(0.9249 0.0172278 0)
(1.09333 0.0265698 0)
(1.14775 0.0289891 0)
(1.14476 0.0263854 0)
(1.12703 0.0219476 0)
(1.11091 0.0172943 0)
(1.09853 0.0127512 0)
(1.08869 0.00827975 0)
(1.08045 0.00383798 0)
(1.07328 -0.00058573 0)
(1.06689 -0.00498901 0)
(1.06103 -0.00936181 0)
(1.05554 -0.0136869 0)
(1.05026 -0.0179398 0)
(1.04507 -0.0220889 0)
(1.03985 -0.0260949 0)
(1.03451 -0.0299093 0)
(1.02897 -0.0334739 0)
(1.02317 -0.0367249 0)
(1.01712 -0.0395993 0)
(1.01099 -0.0420093 0)
(1.00561 -0.0439066 0)
(1.00133 -0.045279 0)
(0.997851 -0.0462599 0)
(0.994818 -0.0468969 0)
(0.991943 -0.0472373 0)
(0.989117 -0.0474078 0)
(0.21928 -0.000163387 0)
(0.611149 0.00459776 0)
(0.913833 0.0151824 0)
(1.08694 0.0239631 0)
(1.14768 0.0265266 0)
(1.14855 0.0241746 0)
(1.13207 0.0198181 0)
(1.11608 0.0151216 0)
(1.10362 0.0104881 0)
(1.09374 0.00589993 0)
(1.08549 0.00131052 0)
(1.07833 -0.00329856 0)
(1.07193 -0.00793007 0)
(1.06606 -0.0125779 0)
(1.06054 -0.0172281 0)
(1.05519 -0.02186 0)
(1.04989 -0.026445 0)
(1.04452 -0.0309453 0)
(1.03896 -0.0353113 0)
(1.03313 -0.03948 0)
(1.02695 -0.0433772 0)
(1.02045 -0.0469243 0)
(1.01382 -0.0500051 0)
(1.00805 -0.0525332 0)
(1.00352 -0.0544999 0)
(0.999873 -0.0561247 0)
(0.996636 -0.0575379 0)
(0.993402 -0.0587716 0)
(0.990055 -0.0596669 0)
(0.217325 -0.000115587 0)
(0.604264 0.00411299 0)
(0.905182 0.0136943 0)
(1.08167 0.0219864 0)
(1.14743 0.0246169 0)
(1.15159 0.0224508 0)
(1.13628 0.0181627 0)
(1.12046 0.0134363 0)
(1.10796 0.0087313 0)
(1.09808 0.00404631 0)
(1.08985 -0.000669231 0)
(1.08273 -0.00543975 0)
(1.07636 -0.0102727 0)
(1.07052 -0.0151664 0)
(1.06501 -0.0201122 0)
(1.05966 -0.0250952 0)
(1.05433 -0.0300926 0)
(1.04888 -0.0350717 0)
(1.0432 -0.039987 0)
(1.03718 -0.0447761 0)
(1.03074 -0.0493593 0)
(1.02388 -0.0536451 0)
(1.01684 -0.0574724 0)
(1.01069 -0.0606342 0)
(1.00594 -0.0630424 0)
(1.00231 -0.0649948 0)
(0.999376 -0.066871 0)
(0.996804 -0.0690381 0)
(0.993955 -0.0709513 0)
(0.216173 -0.000119658 0)
(0.599662 0.00374004 0)
(0.899157 0.0126325 0)
(1.07796 0.0205807 0)
(1.14737 0.0232346 0)
(1.15403 0.0211557 0)
(1.13968 0.0168813 0)
(1.12404 0.0121219 0)
(1.11156 0.00736453 0)
(1.1017 0.00260496 0)
(1.09353 -0.00221396 0)
(1.08647 -0.00712074 0)
(1.08018 -0.0121267 0)
(1.07441 -0.0172348 0)
(1.06896 -0.0224427 0)
(1.06366 -0.0277425 0)
(1.05837 -0.0331195 0)
(1.05294 -0.0385493 0)
(1.04724 -0.0439951 0)
(1.04116 -0.0494026 0)
(1.03462 -0.0546982 0)
(1.02761 -0.0597992 0)
(1.02038 -0.0645337 0)
(1.01405 -0.068541 0)
(1.00918 -0.0715185 0)
(1.00553 -0.0735548 0)
(1.00278 -0.0747136 0)
(1.00088 -0.0757676 0)
(1.00083 -0.080446 0)
(1.00001 0.00086396 0)
(1.00001 0.000869129 0)
(1.00001 0.00086941 0)
(1.00001 0.000870606 1.01356e-21)
(1.00001 0.000873795 5.05328e-21)
(1.00001 0.000878796 -9.09163e-21)
(1 0.000885437 5.04859e-21)
(1 0.000893612 -4.02073e-21)
(1 0.000903156 5.14608e-22)
(1 0.000914086 4.01796e-21)
(0.999999 0.00092623 0)
(0.999998 0.000939564 -4.4894e-21)
(0.999996 0.000953981 5.10948e-22)
(0.999995 0.000969341 3.98478e-21)
(0.999994 0.000985625 0)
(0.999993 0.00100267 0)
(0.999991 0.00102042 -3.9433e-21)
(0.99999 0.00103875 3.94578e-21)
(0.999989 0.0010575 0)
(0.999988 0.00107665 -1.95531e-21)
(0.999987 0.00109603 2.07824e-21)
(0.999987 0.00111552 1.82163e-21)
(0.999986 0.00113507 -2.91245e-21)
(0.999985 0.0011545 9.38504e-22)
(0.999984 0.00117371 3.00591e-23)
(0.999984 0.00119263 -6.00773e-23)
(0.999983 0.0012111 8.35221e-22)
(0.999983 0.00122903 -9.54739e-22)
(0.999983 0.00124635 0)
(0.999983 0.00126292 0)
(0.999983 0.00127858 -2.35362e-22)
(0.999983 0.00129329 -2.34302e-22)
(0.999983 0.00130704 -3.95643e-21)
(0.999983 0.00131976 3.25625e-21)
(0.999984 0.00133132 -4.14989e-21)
(0.999984 0.00134171 4.14443e-21)
(0.999985 0.00135087 -3.19403e-21)
(0.999986 0.00135871 3.19288e-21)
(0.999987 0.00136521 4.52779e-22)
(0.999988 0.00137028 4.5043e-22)
(0.999989 0.00137392 -4.48048e-22)
(0.99999 0.00137607 0)
(0.999991 0.00137665 0)
(0.999993 0.00137571 0)
(0.999995 0.00137316 0)
(0.999996 0.00136917 0)
(0.999998 0.0013635 1.73089e-21)
(0.999999 0.00135548 -1.72789e-21)
(1 0.00134113 0)
(1.00006 0.00164961 0)
(1.00004 0.00166156 2.04599e-21)
(1.00003 0.00167064 -2.03825e-21)
(1.00001 0.00168361 -1.01722e-21)
(0.999998 0.00170164 -1.01715e-21)
(0.999984 0.0017241 -3.0408e-21)
(0.99997 0.00175071 5.07654e-21)
(0.999958 0.00178142 0)
(0.999945 0.00181569 -5.04895e-22)
(0.999934 0.00185365 -1.00877e-21)
(0.999922 0.00189481 0)
(0.999912 0.00193905 5.01783e-22)
(0.999902 0.0019862 -4.50057e-21)
(0.999893 0.00203576 4.00344e-21)
(0.999884 0.00208775 0)
(0.999876 0.00214174 9.95374e-22)
(0.999869 0.00219747 0)
(0.999862 0.00225484 0)
(0.999856 0.0023133 0)
(0.999851 0.00237276 -1.96384e-21)
(0.999847 0.00243296 1.84203e-21)
(0.999844 0.00249348 -1.22467e-22)
(0.999841 0.00255416 0)
(0.999839 0.00261471 -4.54322e-22)
(0.999838 0.00267478 4.77149e-22)
(0.999838 0.00273417 9.04354e-23)
(0.999839 0.0027926 1.20035e-22)
(0.999841 0.00284976 0)
(0.999843 0.00290545 -1.90245e-21)
(0.999846 0.0029594 1.90202e-21)
(0.99985 0.00301135 -3.5369e-21)
(0.999855 0.00306106 7.76365e-21)
(0.999861 0.00310833 -3.52085e-21)
(0.999867 0.00315292 4.66182e-22)
(0.999874 0.00319456 4.64041e-22)
(0.999882 0.00323313 4.62406e-22)
(0.999891 0.00326836 -4.59564e-22)
(0.9999 0.00330003 4.10877e-21)
(0.99991 0.00332807 -3.19243e-21)
(0.999921 0.00335213 -1.35827e-21)
(0.999932 0.00337218 4.94602e-21)
(0.999945 0.003388 -3.59068e-21)
(0.999957 0.00339935 -1.78208e-21)
(0.999971 0.00340625 3.53678e-21)
(0.999985 0.0034083 -7.04993e-21)
(1 0.00340571 3.5122e-21)
(1.00001 0.00339823 1.73894e-21)
(1.00003 0.0033851 -4.18291e-24)
(1.00005 0.00336152 0)
(1.00008 0.00218324 3.07965e-21)
(1.00004 0.00220287 -1.02791e-21)
(0.999997 0.00222516 -4.09551e-21)
(0.999956 0.00225412 2.04086e-21)
(0.999915 0.002291 -2.04095e-21)
(0.999876 0.00233496 0)
(0.999839 0.00238564 -2.02966e-21)
(0.999804 0.00244318 -6.07769e-21)
(0.99977 0.00250641 6.07861e-21)
(0.999738 0.00257578 1.00861e-21)
(0.999709 0.00265034 0)
(0.999681 0.00272987 -6.02862e-21)
(0.999655 0.00281429 1.21862e-23)
(0.999631 0.00290254 4.00848e-21)
(0.99961 0.00299483 0)
(0.99959 0.00309036 -9.94594e-22)
(0.999573 0.00318869 -9.94664e-22)
(0.999558 0.00328984 0)
(0.999545 0.00339268 -9.89029e-22)
(0.999534 0.00349717 -1.96556e-21)
(0.999526 0.00360297 1.96614e-21)
(0.99952 0.00370924 -2.45592e-22)
(0.999516 0.00381582 -2.44144e-22)
(0.999514 0.00392227 0)
(0.999515 0.00402793 3.77574e-23)
(0.999518 0.00413252 -2.11197e-22)
(0.999524 0.00423566 0)
(0.999531 0.00433674 0)
(0.999541 0.00443544 -1.90292e-21)
(0.999553 0.00453141 1.90254e-21)
(0.999568 0.00462411 -3.77357e-21)
(0.999584 0.00471322 3.77229e-21)
(0.999603 0.00479838 0)
(0.999623 0.00487914 0)
(0.999646 0.00495516 0)
(0.99967 0.00502614 -9.23307e-22)
(0.999697 0.00509163 -1.83954e-21)
(0.999725 0.00515132 0)
(0.999755 0.00520501 -9.09593e-22)
(0.999788 0.00525212 -8.9695e-22)
(0.999822 0.00529263 2.70912e-21)
(0.999858 0.00532605 0)
(0.999895 0.00535205 3.55543e-21)
(0.999934 0.00537063 -5.32198e-21)
(0.999975 0.00538103 0)
(1.00002 0.00538353 0)
(1.00006 0.00537748 0)
(1.00011 0.00536213 -1.73283e-21)
(1.00016 0.00533372 -1.72109e-21)
(1.00004 0.00247102 -2.05758e-21)
(0.99997 0.0025035 4.11973e-21)
(0.99989 0.00254513 4.1113e-21)
(0.99981 0.00259594 6.14384e-21)
(0.999732 0.00265762 -2.05309e-21)
(0.999656 0.00272916 -4.07673e-21)
(0.999585 0.00281019 8.1506e-21)
(0.999516 0.00290108 -4.19396e-24)
(0.999452 0.00299988 -2.0265e-21)
(0.999391 0.00310751 2.02957e-21)
(0.999334 0.00322241 0)
(0.999281 0.00334434 2.01317e-21)
(0.999233 0.00347332 -2.00055e-21)
(0.999188 0.00360756 8.02717e-21)
(0.999148 0.00374762 -8.00632e-21)
(0.999112 0.00389222 6.00015e-21)
(0.99908 0.00404071 -1.00201e-21)
(0.999053 0.00419336 9.94984e-22)
(0.99903 0.00434825 9.88105e-22)
(0.999012 0.00450546 -9.89067e-22)
(0.998998 0.00466461 0)
(0.998989 0.00482433 -1.46779e-21)
(0.998984 0.0049845 1.22618e-21)
(0.998984 0.00514455 9.7532e-22)
(0.998988 0.0053034 4.54415e-23)
(0.998997 0.00546075 9.03551e-23)
(0.99901 0.00561613 1.44285e-21)
(0.999028 0.00576851 -9.60515e-22)
(0.99905 0.00591755 1.9054e-21)
(0.999076 0.00606278 -1.90507e-21)
(0.999107 0.00620335 0)
(0.999142 0.00633888 4.70413e-21)
(0.99918 0.00646884 -3.75919e-21)
(0.999223 0.00659255 3.72505e-21)
(0.99927 0.00670961 -3.72365e-21)
(0.999321 0.00681954 0)
(0.999376 0.0069217 3.66699e-21)
(0.999434 0.00701571 -1.83657e-21)
(0.999496 0.00710121 0)
(0.999562 0.00717745 3.61487e-21)
(0.999631 0.00724437 -3.60976e-21)
(0.999704 0.00730127 1.79128e-21)
(0.99978 0.00734771 1.7812e-21)
(0.99986 0.00738367 5.31247e-21)
(0.999943 0.00740808 7.29615e-24)
(1.00003 0.00742132 3.50991e-21)
(1.00012 0.00742232 1.73695e-21)
(1.00021 0.00741026 1.72477e-21)
(1.00031 0.00738278 1.72204e-21)
(0.999934 0.00246395 0)
(0.999818 0.00251698 -4.12517e-21)
(0.999689 0.00258631 -4.11514e-21)
(0.999559 0.00266728 0)
(0.999431 0.00276227 -4.10372e-21)
(0.999307 0.00287008 1.06217e-23)
(0.999189 0.00299031 8.20589e-21)
(0.999076 0.00312368 -2.05535e-21)
(0.998971 0.00326728 -1.10702e-23)
(0.998871 0.00342269 -6.10364e-21)
(0.998778 0.00358759 0)
(0.998692 0.00376175 -6.07678e-21)
(0.998613 0.00394536 2.03082e-21)
(0.99854 0.00413572 0)
(0.998475 0.0043339 -2.01642e-21)
(0.998417 0.00453799 1.10718e-23)
(0.998367 0.00474713 -1.99754e-21)
(0.998323 0.00496196 6.97806e-21)
(0.998287 0.00517953 -1.35146e-23)
(0.998259 0.00540018 -1.00309e-21)
(0.998238 0.00562348 -9.87647e-22)
(0.998225 0.00584737 1.96394e-21)
(0.998219 0.00607189 -1.96421e-21)
(0.99822 0.00629628 -2.42537e-22)
(0.998229 0.00651898 5.02587e-22)
(0.998246 0.00673971 -2.71007e-22)
(0.99827 0.00695788 9.65137e-22)
(0.998301 0.007172 -9.63084e-22)
(0.99834 0.00738173 9.59205e-22)
(0.998385 0.00758647 1.9014e-21)
(0.998438 0.00778499 -5.68583e-21)
(0.998498 0.00797689 -9.25803e-22)
(0.998564 0.00816146 5.64847e-21)
(0.998638 0.00833775 1.8726e-21)
(0.998718 0.00850535 -3.71216e-21)
(0.998804 0.00866355 3.70988e-21)
(0.998897 0.00881152 9.17953e-24)
(0.998996 0.00894883 5.49585e-21)
(0.999102 0.00907495 -3.66288e-21)
(0.999213 0.00918896 -9.06784e-21)
(0.99933 0.00929079 3.6045e-21)
(0.999454 0.00937953 1.79266e-21)
(0.999582 0.00945463 7.11658e-21)
(0.999717 0.0095161 -3.54919e-21)
(0.999857 0.00956254 -9.22301e-24)
(1 0.00959448 -9.96749e-24)
(1.00015 0.00961045 0)
(1.00031 0.00960967 -3.46094e-21)
(1.00048 0.00959173 -3.43405e-21)
(0.999728 0.00209573 0)
(0.999558 0.00217922 -6.2468e-21)
(0.999369 0.00228627 6.23681e-21)
(0.999175 0.00240753 0)
(0.998984 0.00254648 0)
(0.998798 0.00270156 -4.12182e-21)
(0.998621 0.00287236 -3.27362e-24)
(0.998452 0.00305999 -4.12187e-21)
(0.998293 0.00326038 -9.99181e-24)
(0.998143 0.00347597 0)
(0.998004 0.00370349 0)
(0.997874 0.00394279 2.0316e-21)
(0.997755 0.00419426 0)
(0.997647 0.00445411 0)
(0.997549 0.00472405 -2.02186e-21)
(0.997463 0.00500142 4.05291e-21)
(0.997387 0.00528514 2.01849e-21)
(0.997323 0.0055763 0)
(0.99727 0.0058707 1.98321e-21)
(0.997228 0.00616906 -4.98909e-21)
(0.997197 0.00647088 -1.98502e-21)
(0.997178 0.00677328 -1.97349e-21)
(0.997171 0.00707651 1.97365e-21)
(0.997175 0.00737961 1.54652e-24)
(0.99719 0.00768044 1.53206e-23)
(0.997216 0.00797879 2.42909e-22)
(0.997254 0.0082739 -4.85527e-22)
(0.997303 0.00856378 0)
(0.997363 0.00884807 -9.5807e-22)
(0.997433 0.00912606 0)
(0.997515 0.00939605 0)
(0.997607 0.00965768 -1.89783e-21)
(0.99771 0.00991001 -7.52672e-21)
(0.997822 0.0101518 2.52432e-23)
(0.997945 0.0103826 1.86972e-21)
(0.998078 0.0106015 0)
(0.99822 0.0108074 -1.84141e-21)
(0.998372 0.0109999 -3.67267e-21)
(0.998533 0.0111783 3.64256e-21)
(0.998703 0.0113415 7.25233e-21)
(0.998883 0.0114894 -7.20908e-21)
(0.99907 0.0116208 3.04237e-24)
(0.999266 0.0117352 -3.56158e-21)
(0.999471 0.0118326 1.06363e-26)
(0.999684 0.0119112 0)
(0.999905 0.0119718 -3.49784e-21)
(1.00014 0.0120124 -1.73274e-21)
(1.00038 0.0120324 1.73143e-21)
(1.00063 0.0120345 3.43542e-21)
(0.999392 0.00129801 0)
(0.999157 0.00142297 4.17721e-21)
(0.998893 0.00157945 -1.25571e-20)
(0.998621 0.00175327 0)
(0.998351 0.00194915 0)
(0.998088 0.00216486 -8.33162e-21)
(0.997836 0.0024001 8.29575e-21)
(0.997596 0.00265656 -4.16102e-21)
(0.997369 0.00292873 -1.00872e-23)
(0.997156 0.00322011 4.13087e-21)
(0.996957 0.00352623 0)
(0.996773 0.00384706 0)
(0.996603 0.00418322 4.11527e-21)
(0.996449 0.00452961 0)
(0.99631 0.00488877 0)
(0.996187 0.00525712 -4.0641e-21)
(0.996079 0.00563331 1.74141e-23)
(0.995988 0.00601898 0)
(0.995912 0.00640847 2.00419e-21)
(0.995853 0.00680297 5.01396e-21)
(0.99581 0.00720185 -2.00935e-21)
(0.995784 0.00760131 0)
(0.995774 0.00800188 -9.89038e-22)
(0.99578 0.00840229 1.23557e-21)
(0.995802 0.00879981 -5.3858e-22)
(0.995841 0.00919424 -2.45593e-22)
(0.995896 0.00958466 4.8296e-22)
(0.995967 0.00996848 -9.7169e-22)
(0.996054 0.0103454 0)
(0.996156 0.0107144 -3.84209e-21)
(0.996274 0.0110734 5.72577e-21)
(0.996407 0.011422 1.87661e-21)
(0.996555 0.011759 -8.66097e-24)
(0.996718 0.0120829 1.8737e-21)
(0.996895 0.0123931 -1.88288e-21)
(0.997085 0.0126885 -3.70717e-21)
(0.99729 0.0129679 7.39021e-21)
(0.997509 0.0132306 -3.67922e-21)
(0.99774 0.0134758 7.31708e-21)
(0.997984 0.0137023 7.46124e-24)
(0.99824 0.0139099 7.21434e-21)
(0.998509 0.0140972 -3.5819e-21)
(0.998789 0.0142636 0)
(0.999081 0.0144093 2.26651e-25)
(0.999384 0.0145319 7.0316e-21)
(0.9997 0.0146326 0)
(1.00003 0.0147089 0)
(1.00037 0.0147604 6.02794e-21)
(1.00074 0.0147942 8.58579e-22)
(0.998875 2.06942e-05 1.05767e-21)
(0.998555 0.000180338 7.43773e-21)
(0.9982 0.000389085 8.40398e-21)
(0.997843 0.000628912 -8.47006e-21)
(0.997478 0.00089805 0)
(0.997121 0.00119164 -1.34264e-23)
(0.996777 0.00150932 -4.23275e-21)
(0.996448 0.00185298 -4.21867e-21)
(0.996137 0.0022155 1.25514e-20)
(0.995845 0.00260191 -4.17069e-21)
(0.995572 0.00300642 0)
(0.995319 0.00342917 8.312e-21)
(0.995085 0.00387102 -8.25616e-21)
(0.994873 0.00432532 2.93809e-23)
(0.994682 0.0047956 8.22436e-21)
(0.994512 0.00527717 -2.066e-21)
(0.994364 0.00576842 -2.0044e-21)
(0.994237 0.00627155 4.07956e-21)
(0.994133 0.00677926 0)
(0.994052 0.00729327 -2.01277e-21)
(0.993993 0.00781277 2.01476e-21)
(0.993956 0.00833294 2.00176e-21)
(0.993942 0.00885457 -2.00167e-21)
(0.993951 0.00937602 2.49829e-22)
(0.993982 0.00989391 3.08075e-23)
(0.994036 0.010408 7.36783e-22)
(0.994112 0.0109172 -3.02275e-24)
(0.99421 0.0114182 0)
(0.99433 0.0119107 0)
(0.994472 0.0123934 -1.37452e-24)
(0.994635 0.0128637 -1.90474e-21)
(0.994819 0.0133212 3.82893e-21)
(0.995024 0.0137644 -3.79803e-21)
(0.995249 0.0141912 3.76327e-21)
(0.995493 0.0146013 -7.52577e-21)
(0.995757 0.014993 2.02223e-23)
(0.99604 0.015365 3.71596e-21)
(0.996341 0.0157164 3.67183e-21)
(0.99666 0.0160464 -7.33828e-21)
(0.996996 0.0163532 -7.27684e-21)
(0.997348 0.016637 -3.62208e-21)
(0.997717 0.016896 -3.59643e-21)
(0.998101 0.0171294 0)
(0.9985 0.0173376 -3.53586e-21)
(0.998915 0.0175178 -3.49239e-24)
(0.999346 0.0176716 6.97143e-21)
(0.999793 0.0177955 -8.64575e-21)
(1.00026 0.0178901 1.70872e-21)
(1.00076 0.0179684 0)
(0.998158 -0.00194843 0)
(0.997728 -0.00167062 -8.50812e-21)
(0.997255 -0.00131867 0)
(0.996772 -0.000993071 8.48494e-21)
(0.996287 -0.000677686 4.25141e-21)
(0.995815 -0.000294268 -8.49588e-21)
(0.995372 0.000124913 1.26871e-20)
(0.994937 0.000575985 4.20909e-21)
(0.994522 0.00105099 -4.20272e-21)
(0.994131 0.00155603 0)
(0.993765 0.00208333 4.19964e-21)
(0.993426 0.00263307 -8.37299e-21)
(0.993113 0.0032064 4.20949e-21)
(0.992827 0.00379504 -4.14886e-21)
(0.992569 0.00440359 3.36515e-23)
(0.99234 0.00502609 4.15189e-21)
(0.99214 0.00566059 -8.26846e-21)
(0.99197 0.00630987 0)
(0.991829 0.00696485 4.09347e-21)
(0.991718 0.00762784 -4.09333e-21)
(0.991637 0.00829767 -1.01165e-21)
(0.991587 0.00896848 0)
(0.991567 0.00964124 1.01413e-21)
(0.991578 0.0103139 2.50901e-22)
(0.991619 0.0109823 -5.31813e-22)
(0.991691 0.0116461 7.452e-22)
(0.991793 0.0123039 4.90331e-22)
(0.991925 0.0129518 -9.85471e-22)
(0.992086 0.0135891 0)
(0.992277 0.0142144 -1.93832e-21)
(0.992497 0.0148245 3.87809e-21)
(0.992745 0.0154186 0)
(0.993021 0.015995 1.90247e-21)
(0.993324 0.0165511 0)
(0.993653 0.0170864 3.75841e-21)
(0.994008 0.0175991 -7.48809e-21)
(0.994389 0.0180873 3.70538e-21)
(0.994793 0.0185501 -2.41246e-23)
(0.99522 0.0189863 3.63548e-21)
(0.99567 0.019394 -3.65345e-21)
(0.996142 0.0197734 3.61078e-21)
(0.996634 0.0201223 7.18097e-21)
(0.997147 0.02044 0)
(0.997679 0.0207267 0)
(0.99823 0.0209795 -7.02174e-21)
(0.998801 0.0212001 -1.3927e-20)
(0.999394 0.0213844 1.382e-20)
(1.00001 0.0215337 -7.72376e-21)
(1.00067 0.0216695 7.6479e-21)
(0.997194 -0.00460696 0)
(0.996636 -0.00424934 8.69055e-21)
(0.996021 -0.00382396 8.67691e-21)
(0.995379 -0.00337962 1.29926e-20)
(0.994746 -0.00289971 -1.2985e-20)
(0.994127 -0.00232998 -4.30099e-21)
(0.993533 -0.00178248 1.2963e-20)
(0.992962 -0.00125472 -4.28487e-21)
(0.99242 -0.000649827 4.28729e-21)
(0.991916 5.29673e-07 0)
(0.991437 0.00067828 8.5863e-21)
(0.990989 0.00138487 0)
(0.990575 0.00212093 -4.21154e-21)
(0.990196 0.00287631 -4.25921e-21)
(0.989855 0.00365666 5.82554e-23)
(0.98955 0.00445445 0)
(0.989283 0.00526736 4.19727e-21)
(0.989055 0.00609868 8.37437e-21)
(0.988866 0.00693749 0)
(0.988717 0.00778663 2.06314e-21)
(0.988607 0.00864446 -2.06242e-21)
(0.988538 0.00950398 -2.04397e-21)
(0.98851 0.0103663 2.05648e-21)
(0.988522 0.0112286 -4.66863e-24)
(0.988574 0.0120863 -5.05805e-22)
(0.988668 0.0129384 -2.22582e-22)
(0.988802 0.0137832 -5.00212e-22)
(0.988975 0.014616 9.97675e-22)
(0.989189 0.0154358 0)
(0.989441 0.0162407 1.95351e-21)
(0.989732 0.0170267 -3.89079e-21)
(0.990061 0.0177928 0)
(0.990426 0.0185369 0)
(0.990828 0.0192556 3.80145e-21)
(0.991264 0.019948 -7.57713e-21)
(0.991734 0.0206124 3.77569e-21)
(0.992238 0.021246 3.74539e-21)
(0.992772 0.0218478 0)
(0.993336 0.0224164 1.10301e-20)
(0.993929 0.0229494 -7.29745e-21)
(0.994549 0.0234473 -3.61623e-21)
(0.995196 0.0239072 1.31677e-23)
(0.995868 0.0243284 -7.12984e-21)
(0.996564 0.0247115 -7.06319e-21)
(0.997283 0.0250527 -7.00744e-21)
(0.998028 0.0253545 1.10642e-23)
(0.998799 0.0256117 -1.71153e-23)
(0.999603 0.0258269 0)
(1.00045 0.0260325 -1.35546e-20)
(0.995919 -0.00811454 0)
(0.995198 -0.00764712 2.29449e-21)
(0.994413 -0.00710782 -1.08588e-20)
(0.993601 -0.0065339 -8.68078e-21)
(0.992789 -0.00591214 8.6716e-21)
(0.99199 -0.00523773 4.42829e-21)
(0.991204 -0.0045288 -4.29746e-21)
(0.990461 -0.00378055 0)
(0.989755 -0.00295543 0)
(0.989089 -0.00212346 8.74644e-21)
(0.988462 -0.00130116 -8.596e-21)
(0.987877 -0.000409912 4.31353e-21)
(0.987337 0.000525799 -4.30987e-21)
(0.98684 0.00148712 4.304e-21)
(0.986389 0.00247996 4.30874e-21)
(0.985987 0.00349527 -4.2698e-21)
(0.985633 0.00453027 -4.21726e-21)
(0.98533 0.00558857 -4.19874e-21)
(0.985077 0.00665734 4.20341e-21)
(0.984876 0.00773984 -4.20226e-21)
(0.984728 0.00883369 0)
(0.984632 0.00993077 2.09294e-21)
(0.98459 0.011032 -2.05583e-21)
(0.984602 0.0121339 1.53982e-21)
(0.984667 0.0132308 0)
(0.984787 0.0143213 1.01572e-21)
(0.98496 0.015403 0)
(0.985186 0.0164703 -9.96597e-22)
(0.985465 0.0175214 1.96737e-23)
(0.985796 0.0185538 1.30331e-23)
(0.986177 0.0195628 3.94661e-21)
(0.986609 0.0205465 0)