/*--------------------------------*- C++ -*----------------------------------*\
| =========                 |                                                 |
| \\      /  F ield         | OpenFOAM: The Open Source CFD Toolbox           |
|  \\    /   O peration     | Version:  2312                                  |
|   \\  /    A nd           | Website:  www.openfoam.com                      |
|    \\/     M anipulation  |                                                 |
\*---------------------------------------------------------------------------*/
FoamFile
{
    version     2.0;
    format      ascii;
    arch        "LSB;label=32;scalar=64";
    class       volScalarField;
    location    "250";
    object      div(phi);
}
// * * * * * * * * * * * * * * * * * * * * * * * * * * * * * * * * * * * * * //

dimensions      [0 0 -1 0 0 0 0];

internalField   nonuniform List<scalar> 
10720
(
-0.000654253
-0.00983109
-0.00383704
-0.00209982
-0.00199556
-0.00246622
-0.00277781
-0.00282594
-0.00271661
-0.0025493
-0.00242072
-0.0023983
-0.00239098
-0.00223216
-0.00181848
-0.00106605
-0.000117527
0.000759162
0.00127354
0.00135732
0.00102603
0.000716064
0.000912078
0.0012528
0.000848712
0.00148027
0.00434199
0.00641343
0.00208425
-0.0105015
-0.00417946
0.0271002
-0.00287804
-0.0507324
0.0375545
0.0908485
0.0101895
-0.0450068
0.0152059
-0.0123013
-0.00558985
-0.00377258
-0.00451797
-0.00664972
-0.0100388
-0.0160378
-0.026734
-0.0240987
-0.0127494
-0.0095319
-0.0081727
-0.00731344
-0.00625697
-0.00499931
-0.00393339
-0.00330278
-0.00297286
-0.00268112
-0.00222139
-0.00180025
-0.00141434
-0.0013127
-0.00109047
-0.00114911
-0.00138701
-0.00185328
-0.00257336
-0.00342818
-0.0036312
-0.0021101
0.00126138
0.00321009
-0.000317688
-0.00182282
0.0023789
0.00165468
0.0045285
-0.00144642
-0.00382097
-0.013995
-0.00689749
-0.00863874
-0.00838259
-0.00772871
-0.00691081
-0.0059507
-0.0051368
-0.00460074
-0.00437651
-0.00428996
-0.00404309
-0.00337324
-0.00218155
-0.000749001
0.00055405
0.0013595
0.00142943
0.00083878
-0.000488412
-0.00283282
-0.00463684
-0.00305305
0.0036579
0.00986416
0.00516383
-0.00537718
-0.00163695
0.0119109
-0.00335695
-0.0246028
0.00811244
0.0302676
0.00805881
-0.0598748
0.020589
-0.00959084
-0.0256812
-0.0142453
-0.00877294
-0.0111894
-0.012965
-0.0146644
-0.0200978
-0.0288193
-0.0309433
-0.0216284
-0.0160577
-0.0135004
-0.0113067
-0.00915073
-0.00720941
-0.00575039
-0.00484217
-0.0043241
-0.00389084
-0.00345031
-0.00296401
-0.00252413
-0.00187871
-0.00160551
-0.00203299
-0.00255525
-0.00341549
-0.00484376
-0.00579217
-0.0049754
-0.00141403
0.00210797
0.00128202
0.00122164
0.0030412
-0.00157598
0.002269
7.56511e-05
-0.00334658
0.00112903
-0.00586716
-0.00840296
-0.00344301
-0.00458488
-0.00480996
-0.00484626
-0.00474997
-0.00445243
-0.00415536
-0.00397496
-0.00386329
-0.0037383
-0.00345071
-0.00280799
-0.00181216
-0.000621708
0.000469155
0.00109368
0.00111426
0.000760822
0.00034104
-0.000303283
-0.000269798
-0.000453796
0.00211571
0.00657373
0.00477209
-0.00114885
-3.63484e-05
0.00144421
-0.00409379
-0.0112469
0.00565252
-0.00216393
-0.00523938
-0.0357488
-0.00414362
-0.0119804
-0.039062
-0.0107386
-0.00537597
-0.00697621
-0.009415
-0.0117232
-0.013882
-0.0157544
-0.0147856
-0.011601
-0.0100242
-0.00945264
-0.00860751
-0.00732675
-0.00597129
-0.00494173
-0.00429289
-0.00395841
-0.00351088
-0.00308965
-0.00270825
-0.00204251
-0.00196762
-0.00172096
-0.00186716
-0.00253145
-0.00340898
-0.00468732
-0.00549627
-0.00475303
-0.00165778
0.00150311
0.00115089
0.00144852
0.00225157
-0.00160683
0.00223623
0.00128797
-0.000900733
0.000110331
-0.00492509
-0.00892627
-0.00545967
-0.00593155
-0.00548278
-0.00502691
-0.00454913
-0.00394168
-0.00345878
-0.00319058
-0.0030845
-0.00304238
-0.00281648
-0.00220267
-0.00116964
-7.85157e-06
0.000977852
0.00155991
0.00157428
0.00116918
0.000552678
-0.000485536
-0.000787275
0.00046633
0.0035538
0.00847123
0.00714286
-0.00126018
0.000306764
-0.00275291
-0.00755409
-0.00298984
0.00542627
-0.00676131
0.000539581
-0.0238053
0.00386784
0.0218028
-0.00840951
-0.00951462
-0.00644395
-0.00664512
-0.00755045
-0.00878785
-0.0103785
-0.0117177
-0.011325
-0.00982576
-0.00887538
-0.00816025
-0.00719785
-0.00605526
-0.00502422
-0.00433557
-0.00392595
-0.00369541
-0.00333127
-0.00290634
-0.00250139
-0.00181856
-0.00158273
-0.00149983
-0.00154443
-0.00210114
-0.00304556
-0.00440333
-0.005311
-0.00463135
-0.00156986
0.00153293
0.00099508
0.00116707
0.00217744
-0.00176107
0.00184501
0.00114634
-0.000155615
0.000441983
-0.00357136
-0.00767987
-0.00450083
-0.0050942
-0.004809
-0.00455653
-0.00431335
-0.00393111
-0.00366641
-0.00356838
-0.00358578
-0.00358433
-0.00332909
-0.00268107
-0.0016592
-0.000503534
0.000485127
0.00108792
0.0011314
0.000804848
0.00022151
-0.000837658
-0.00186236
-0.000953914
0.00391869
0.0119324
0.00993634
-0.00609793
-0.00185131
0.00710591
-0.00902591
-0.00456972
0.00575457
-0.00761494
0.00268303
-0.00802585
0.00696521
0.00766838
0.0201084
-0.00900758
-0.00584317
-0.00602126
-0.00680996
-0.00758619
-0.00858365
-0.00915216
-0.00849778
-0.00746227
-0.00669094
-0.00598081
-0.00516155
-0.00435726
-0.00375772
-0.00341594
-0.00325769
-0.0031302
-0.00283956
-0.00249902
-0.00206924
-0.00163211
-0.0013539
-0.00130319
-0.00142046
-0.00189691
-0.00272287
-0.00395284
-0.00480817
-0.00418624
-0.00122515
0.0017926
0.00118648
0.00127463
0.00229915
-0.00155757
0.00205555
0.00188103
-0.00068828
0.000312451
-0.00395572
-0.00715233
-0.00462744
-0.00505509
-0.00468723
-0.00438637
-0.00412797
-0.00377816
-0.00355442
-0.0034876
-0.00351836
-0.00351673
-0.00325681
-0.00258577
-0.00159832
-0.000488898
0.00044921
0.00100139
0.00102134
0.000694281
0.000125201
-0.000847221
-0.0015338
-0.000695108
0.00470201
0.0148694
0.0112688
-0.0112034
-0.00344986
0.0115889
-0.0090035
-0.00632506
0.00608116
-0.00738662
0.00291881
-0.00621173
0.00411588
-0.00138332
0.0348631
-0.00811278
-0.00529335
-0.00533793
-0.00601803
-0.00654843
-0.00710599
-0.00713085
-0.00637226
-0.00556947
-0.00498523
-0.00447179
-0.00395123
-0.0035125
-0.00325642
-0.00313523
-0.00310273
-0.00300985
-0.00275791
-0.00248857
-0.00206382
-0.00173737
-0.00147673
-0.00139459
-0.00151099
-0.00196025
-0.00274598
-0.00392961
-0.00475461
-0.00413758
-0.00124002
0.00173626
0.00108867
0.00113743
0.00225661
-0.00150261
0.00191538
0.0016529
4.49717e-05
6.24138e-05
-0.00360382
-0.00622973
-0.00405508
-0.00428775
-0.00386423
-0.00356497
-0.0033518
-0.00308977
-0.00295723
-0.00297632
-0.00307324
-0.0031241
-0.00292102
-0.00232081
-0.00140353
-0.000383094
0.00046569
0.000941354
0.000931133
0.000633731
0.000151801
-0.000695655
-0.00119863
-0.000430292
0.004717
0.0146445
0.0112316
-0.0108714
-0.00353256
0.0106308
-0.00901546
-0.0047047
0.00612416
-0.00727792
0.00311
-0.00587471
0.00254749
-0.00254321
0.035418
-0.00701326
-0.00452036
-0.00446717
-0.00509429
-0.00556845
-0.00589462
-0.0057033
-0.00515306
-0.00466778
-0.00427826
-0.00395681
-0.00363113
-0.00335656
-0.00319557
-0.00308169
-0.00300095
-0.00285863
-0.00259955
-0.00236072
-0.00198413
-0.00172304
-0.00151404
-0.00143872
-0.0015557
-0.00197684
-0.00270646
-0.00382232
-0.00460464
-0.00398486
-0.00114666
0.00178263
0.00111358
0.00110865
0.00227643
-0.00137989
0.00179799
0.0014928
0.000713863
9.05668e-05
-0.00326847
-0.00549308
-0.00345999
-0.00358545
-0.00317306
-0.0028994
-0.00272885
-0.00251429
-0.0024251
-0.00247964
-0.00259484
-0.00265692
-0.00247401
-0.00192012
-0.00105899
-0.00012542
0.000635649
0.00103549
0.000974373
0.000665824
0.000223717
-0.000565163
-0.000981725
-0.000210943
0.0047308
0.0143794
0.0111146
-0.010474
-0.00361177
0.00985819
-0.00901214
-0.00368884
0.00607542
-0.00702345
0.00321813
-0.00557274
0.00112782
-0.0031467
0.0228745
-0.00610087
-0.00384955
-0.00368024
-0.00425779
-0.00469925
-0.00490496
-0.00476585
-0.00450274
-0.00426534
-0.00403218
-0.00383477
-0.00359949
-0.00336393
-0.00318158
-0.00300479
-0.00284416
-0.00265322
-0.00240153
-0.00219457
-0.00189193
-0.00168337
-0.00153439
-0.00147846
-0.00159844
-0.00200768
-0.00270485
-0.00377312
-0.0045271
-0.00390888
-0.00113306
0.00174201
0.00105309
0.000990964
0.00221223
-0.00129637
0.00165082
0.00126274
0.00104091
0.000211034
-0.00304261
-0.00491625
-0.00300226
-0.00310445
-0.00274361
-0.00250789
-0.00236536
-0.00216733
-0.00208335
-0.00213389
-0.00223483
-0.00228114
-0.00209661
-0.00157134
-0.000768131
9.48669e-05
0.000773546
0.00109358
0.000982102
0.00066647
0.000271479
-0.000435722
-0.000786936
2.92123e-05
0.00477984
0.0141376
0.0110367
-0.00991366
-0.00356183
0.00898887
-0.00896085
-0.0028525
0.00587781
-0.00643392
0.00323809
-0.00505211
0.000349064
-0.00169576
0.0133248
-0.00539349
-0.00331947
-0.00308537
-0.00358869
-0.00396083
-0.00411045
-0.00403144
-0.00395807
-0.00389077
-0.0037698
-0.00364969
-0.00346326
-0.00323996
-0.00302794
-0.00280182
-0.00258861
-0.00237417
-0.00214331
-0.00196635
-0.00173539
-0.00157063
-0.00147782
-0.00145347
-0.00158547
-0.00199752
-0.0026805
-0.00371491
-0.00444916
-0.00383211
-0.00111134
0.00171889
0.00102273
0.000899786
0.00216072
-0.00119742
0.00148138
0.000954483
0.000992724
0.000374418
-0.0028526
-0.00437051
-0.00265447
-0.00278633
-0.00250031
-0.00230988
-0.00219783
-0.00201556
-0.0019359
-0.00197692
-0.0020542
-0.00207344
-0.00187246
-0.00135578
-0.000589727
0.000224269
0.000837884
0.00108228
0.000912502
0.000557773
0.000165261
-0.000479807
-0.000786408
0.00011052
0.00471607
0.0137947
0.0108994
-0.00932592
-0.00345311
0.0081153
-0.00885193
-0.00200383
0.00560852
-0.00559608
0.00333202
-0.00433563
3.70526e-05
1.84087e-05
0.00765552
-0.00477307
-0.00290965
-0.00266374
-0.00307841
-0.00335102
-0.00341976
-0.00335367
-0.0033771
-0.00339525
-0.00333803
-0.003267
-0.00311735
-0.00291432
-0.00270198
-0.00246807
-0.00224413
-0.00203501
-0.00183549
-0.00168519
-0.00151342
-0.00138685
-0.00134215
-0.00135634
-0.00150844
-0.00193524
-0.0026204
-0.00363427
-0.0043575
-0.00374433
-0.00107459
0.00171113
0.00101187
0.000825159
0.00214658
-0.00102572
0.00138711
0.000704924
0.000946255
0.000800438
-0.00265416
-0.0038171
-0.00235289
-0.00252041
-0.00231124
-0.0021704
-0.00209487
-0.00194322
-0.00187869
-0.00191921
-0.00197842
-0.00197039
-0.00174636
-0.00122528
-0.000478177
0.000302759
0.000875677
0.00107052
0.000862463
0.000471153
6.0776e-05
-0.000545928
-0.000835476
0.000125275
0.00458368
0.0133402
0.0106832
-0.0087231
-0.00333302
0.00724361
-0.00871463
-0.00125586
0.00530078
-0.00467743
0.00354059
-0.00349146
-7.31539e-05
0.00071
0.00256641
-0.00414137
-0.0026131
-0.00236393
-0.00270258
-0.00286681
-0.00283434
-0.00276503
-0.0028221
-0.00286258
-0.00283086
-0.00278587
-0.00267042
-0.00250105
-0.00231683
-0.00210933
-0.00190859
-0.00172447
-0.00155688
-0.00142861
-0.00129622
-0.00119549
-0.00118256
-0.00122923
-0.00139952
-0.00184068
-0.00253453
-0.00353319
-0.00425101
-0.00364653
-0.0010325
0.00169854
0.000995446
0.000731345
0.00210837
-0.000859762
0.0012759
0.000408292
0.000814792
0.00136362
-0.00236764
-0.00325403
-0.0020417
-0.0022337
-0.00208917
-0.00199188
-0.00195247
-0.00184133
-0.00180461
-0.00185814
-0.00191317
-0.00188896
-0.00165228
-0.00113502
-0.00040929
0.000339298
0.000878806
0.00103718
0.000796212
0.000372884
-5.85729e-05
-0.000638931
-0.000919652
9.1222e-05
0.00440486
0.0128019
0.0104027
-0.00808489
-0.00320028
0.00638062
-0.00854059
-0.000678034
0.00496971
-0.0038079
0.00377972
-0.00263948
-0.000158704
0.000479048
-0.00214048
-0.00352568
-0.00237538
-0.00213738
-0.00241797
-0.00248747
-0.00238889
-0.00231091
-0.0023584
-0.00238863
-0.00236114
-0.00232802
-0.00224096
-0.00211134
-0.00197106
-0.00181112
-0.00165203
-0.00150279
-0.0013634
-0.00124842
-0.00113453
-0.00104291
-0.00104037
-0.00110391
-0.00128157
-0.00172759
-0.0024258
-0.00340734
-0.00411813
-0.00352526
-0.00097108
0.00169797
0.000996457
0.000648897
0.00207636
-0.000660506
0.00120293
0.000136103
0.000576316
0.00116495
-0.00201788
-0.00273126
-0.00173251
-0.00192916
-0.00182685
-0.00176107
-0.00175097
-0.00167635
-0.00166921
-0.00174088
-0.00180125
-0.00177289
-0.00153436
-0.00103201
-0.000338244
0.000373037
0.000880302
0.00101203
0.000747332
0.000301816
-0.00014615
-0.000709136
-0.000986935
5.11654e-05
0.00421103
0.0122
0.0100658
-0.00740652
-0.00305654
0.00552418
-0.00832696
-0.000290537
0.00461856
-0.00305662
0.00396979
-0.00189801
-0.000284331
7.26305e-05
-0.00578177
-0.00300463
-0.00214336
-0.00193254
-0.00217554
-0.00218807
-0.00204802
-0.00195705
-0.00198687
-0.00200034
-0.00196741
-0.00193915
-0.00187538
-0.0017844
-0.0016917
-0.00158529
-0.00147653
-0.00136656
-0.0012527
-0.00114662
-0.00103781
-0.000943341
-0.00093556
-0.00100175
-0.00117582
-0.0016157
-0.00231087
-0.00326967
-0.00396979
-0.00338918
-0.000899122
0.00170373
0.00100683
0.000569926
0.00203528
-0.000448721
0.00115558
-8.50936e-05
0.000199128
-3.21709e-05
-0.00170439
-0.00229877
-0.00147119
-0.00165474
-0.00157259
-0.00152152
-0.00152492
-0.00147578
-0.00149041
-0.00157622
-0.00164313
-0.00161566
-0.00138454
-0.000906116
-0.000252672
0.000415202
0.000888749
0.00100097
0.000725723
0.000269918
-0.000188377
-0.000739199
-0.00101427
2.97756e-05
0.00402285
0.0115615
0.00968972
-0.00668416
-0.00290055
0.00467947
-0.0080748
-9.24172e-05
0.00424472
-0.00245934
0.00407497
-0.00133298
-0.000400579
-0.000284328
-0.0080904
-0.00258277
-0.00190609
-0.00172885
-0.001946
-0.00192652
-0.00176942
-0.00167539
-0.0016928
-0.00169302
-0.00165483
-0.00162874
-0.00158238
-0.00152213
-0.00147092
-0.00141369
-0.00135271
-0.00128197
-0.00119292
-0.00109607
-0.000988461
-0.000887363
-0.00086773
-0.000927707
-0.00109118
-0.00151583
-0.00219991
-0.00312991
-0.00381323
-0.00324482
-0.000820986
0.00171293
0.00102365
0.000491692
0.0019833
-0.000228546
0.00114074
-0.000190088
-0.000172703
-0.00118315
-0.00146646
-0.00196823
-0.00126982
-0.00142888
-0.00135165
-0.00130171
-0.0013051
-0.00126873
-0.00129475
-0.00138688
-0.00145785
-0.00143226
-0.00121219
-0.000763935
-0.000157128
0.000461122
0.000898025
0.000996276
0.000725035
0.000275227
-0.000180217
-0.000716784
-0.000987105
4.43988e-05
0.00385289
0.0109069
0.00928752
-0.00592376
-0.00273089
0.00386172
-0.00778458
-6.49659e-05
0.00384828
-0.00202896
0.00407934
-0.000957224
-0.000470735
-0.000424051
-0.00868561
-0.00223309
-0.00168224
-0.00153442
-0.0017292
-0.00169554
-0.00153976
-0.0014518
-0.00146537
-0.00145961
-0.00141905
-0.00139434
-0.00135848
-0.00131862
-0.00129655
-0.00127648
-0.00125481
-0.00121768
-0.00115199
-0.00106706
-0.000963426
-0.000858863
-0.000828108
-0.000879617
-0.00102956
-0.00143322
-0.00209906
-0.00299427
-0.00365478
-0.00309669
-0.000739755
0.00172381
0.00104405
0.000410635
0.00191466
-1.13988e-05
0.00114916
-0.000155169
-0.000469191
-0.00189097
-0.00128178
-0.00171237
-0.0011067
-0.00124004
-0.00116142
-0.00110578
-0.00110124
-0.00106905
-0.00109859
-0.00119076
-0.00126137
-0.00123653
-0.00102862
-0.000613576
-5.81662e-05
0.000505341
0.000902055
0.000988653
0.000730654
0.000301003
-0.000135929
-0.000649035
-0.00090834
9.77789e-05
0.00370465
0.010249
0.00886705
-0.00513226
-0.00254551
0.00308504
-0.00745853
-0.000180877
0.00343364
-0.00175672
0.00397268
-0.000741078
-0.000529216
-0.000345318
-0.00790551
-0.00194235
-0.00149265
-0.00135908
-0.00153317
-0.00149162
-0.00134854
-0.00127679
-0.00129299
-0.00128872
-0.00124995
-0.00122728
-0.00119686
-0.00116679
-0.00116004
-0.0011624
-0.00116605
-0.00115451
-0.00110866
-0.0010381
-0.000943529
-0.000842187
-0.000806031
-0.000851475
-0.000989044
-0.00136899
-0.00201163
-0.00286676
-0.00349783
-0.002948
-0.000658713
0.0017331
0.0010661
0.000325501
0.00182591
0.000193248
0.00117322
1.6529e-05
-0.00066752
-0.00217854
-0.00113145
-0.00150279
-0.000968784
-0.00108035
-0.000999066
-0.000935594
-0.000921212
-0.000888412
-0.000916132
-0.00100358
-0.00106975
-0.00104323
-0.000847349
-0.000465527
3.72236e-05
0.000542609
0.000895356
0.000968353
0.000728123
0.000328397
-7.63145e-05
-0.000552578
-0.000790613
0.000183993
0.0035764
0.00959298
0.00843499
-0.00432735
-0.00234458
0.00236489
-0.0070981
-0.000403763
0.00300757
-0.00161914
0.00375257
-0.000636791
-0.000627791
-0.000174667
-0.00646403
-0.00170741
-0.00133062
-0.00120318
-0.0013529
-0.00130724
-0.00118677
-0.00113643
-0.00115957
-0.00116113
-0.00112824
-0.00110881
-0.00108097
-0.00105356
-0.00105128
-0.00106223
-0.0010786
-0.0010824
-0.00105256
-0.00099714
-0.000916978
-0.000826213
-0.000792243
-0.000837095
-0.000966314
-0.0013232
-0.0019392
-0.00275054
-0.00334645
-0.00280319
-0.000582589
0.00173708
0.0010884
0.000235414
0.00171375
0.000372284
0.00120212
0.000303321
-0.000757562
-0.00210393
-0.00100541
-0.00132703
-0.000855042
-0.000949287
-0.000866184
-0.00079622
-0.00077322
-0.000738365
-0.000761678
-0.000841099
-0.000899443
-0.00086841
-0.000681428
-0.000330324
0.000122029
0.000569038
0.000875733
0.000931771
0.000709313
0.000344243
-1.99081e-05
-0.000447147
-0.000653156
0.000288584
0.00345899
0.00894422
0.00799416
-0.00352408
-0.00212765
0.00171574
-0.00670413
-0.000690075
0.00258118
-0.00158169
0.00343209
-0.00059433
-0.000790071
-4.28283e-05
-0.00498702
-0.00151665
-0.00118461
-0.00105901
-0.00118393
-0.00114174
-0.0010457
-0.00101397
-0.00104561
-0.00105513
-0.00103031
-0.00101537
-0.000988978
-0.000960317
-0.000955693
-0.000965751
-0.000984475
-0.000994679
-0.000975894
-0.000934971
-0.000872599
-0.000799082
-0.000775073
-0.000825988
-0.000952795
-0.00128984
-0.00187877
-0.00264513
-0.00320237
-0.00266472
-0.000514277
0.00173371
0.00111073
0.000145873
0.00157773
0.000513943
0.00122472
0.000673284
-0.000741843
-0.00174808
-0.000902257
-0.00118008
-0.000764377
-0.000845287
-0.000761782
-0.000688633
-0.000659412
-0.000622878
-0.00064134
-0.000711167
-0.000759116
-0.000721329
-0.000540372
-0.000215856
0.000190186
0.000581479
0.000841946
0.000878405
0.000671336
0.000342062
2.31935e-05
-0.000346784
-0.000512363
0.000396463
0.0033416
0.00830196
0.00754632
-0.00273992
-0.00189598
0.00115271
-0.00627784
-0.000998105
0.0021672
-0.00160725
0.00304086
-0.000576018
-0.000996357
-2.11221e-06
-0.00382188
-0.00135097
-0.00104775
-0.00092629
-0.00103038
-0.000991876
-0.000916085
-0.000900124
-0.000938503
-0.000955771
-0.000939129
-0.000928844
-0.000903848
-0.000873113
-0.000862843
-0.000866688
-0.000880558
-0.000889936
-0.000876818
-0.000848201
-0.000804402
-0.000752021
-0.000744219
-0.000807621
-0.000938768
-0.00126069
-0.00182448
-0.00254706
-0.00306429
-0.0025333
-0.000454872
0.00172221
0.00113364
6.36222e-05
0.00142014
0.000608029
0.00122935
0.00108438
-0.000633539
-0.00119955
-0.000814508
-0.00105353
-0.00068957
-0.000758748
-0.000677798
-0.00060404
-0.000571697
-0.000534609
-0.000548628
-0.000608915
-0.000646318
-0.000600806
-0.000424039
-0.000122512
0.000242009
0.000581792
0.00079755
0.000812706
0.000617279
0.000321506
4.86786e-05
-0.000259662
-0.000379037
0.000496185
0.00321498
0.00766681
0.00709215
-0.00199308
-0.00165032
0.000682238
-0.00582166
-0.00128922
0.00177811
-0.00166139
0.00261937
-0.000556057
-0.00120387
-3.03267e-05
-0.00306211
-0.0011986
-0.000921645
-0.00080575
-0.000891568
-0.0008567
-0.000797139
-0.000792937
-0.000836124
-0.000859202
-0.000849694
-0.000843754
-0.000820693
-0.000788183
-0.000772017
-0.000767007
-0.000771771
-0.000774828
-0.000762011
-0.00074163
-0.000714712
-0.000684202
-0.000695631
-0.000775658
-0.000916537
-0.00122883
-0.00177022
-0.00245222
-0.00293056
-0.00240802
-0.000404351
0.00170304
0.00115807
-1.0125e-05
0.0012456
0.000648364
0.00120528
0.00149083
-0.000454584
-0.000547246
-0.000734342
-0.000940344
-0.000621157
-0.000681483
-0.000604426
-0.000532603
-0.000498779
-0.000462575
-0.000473227
-0.000525129
-0.000552766
-0.000500292
-0.000327062
-4.58807e-05
0.000281608
0.000574623
0.000748423
0.000741687
0.000554083
0.000287281
5.6911e-05
-0.000189945
-0.000260658
0.000579809
0.00307383
0.0070389
0.00663113
-0.00130094
-0.00139638
0.000308138
-0.00534055
-0.00153358
0.00142531
-0.00171453
0.00220843
-0.000519164
-0.00136856
-7.48449e-05
-0.00263308
-0.00105862
-0.000809552
-0.000699027
-0.000769083
-0.000738047
-0.000690874
-0.000694925
-0.000740491
-0.000767354
-0.000763607
-0.000761741
-0.000741532
-0.00070865
-0.000687518
-0.000673572
-0.000666963
-0.000660062
-0.000642873
-0.00062577
-0.000611478
-0.000600306
-0.000631002
-0.000728818
-0.000882625
-0.0011892
-0.00171114
-0.00235617
-0.00279789
-0.00228722
-0.000361486
0.00167695
0.00118538
-6.98922e-05
0.00106133
0.000632896
0.00114439
0.00184726
-0.000233123
0.000124557
-0.00065865
-0.000836777
-0.000556466
-0.000609399
-0.000537564
-0.000468516
-0.000434552
-0.000399829
-0.00040798
-0.000452525
-0.000471882
-0.0004138
-0.000244463
1.81746e-05
0.000312772
0.00056402
0.000699744
0.000672068
0.000488865
0.000245665
5.1683e-05
-0.000137678
-0.000160488
0.000643066
0.00291544
0.00642133
0.00616309
-0.00067581
-0.00113881
2.61582e-05
-0.00484174
-0.00171093
0.00111604
-0.00174577
0.00184074
-0.000456599
-0.001456
-8.76346e-05
-0.00237749
-0.000933562
-0.000711564
-0.000606687
-0.000663899
-0.000635917
-0.000598217
-0.00060756
-0.000653699
-0.000682956
-0.000684054
-0.000686105
-0.000669345
-0.000638033
-0.0006139
-0.000592341
-0.000574455
-0.000555742
-0.000530719
-0.000512565
-0.000505624
-0.000509324
-0.000556151
-0.00067025
-0.000837449
-0.00114062
-0.00164481
-0.0022564
-0.00266455
-0.0021696
-0.000325945
0.00164426
0.00121652
-0.000109254
0.000876072
0.000564351
0.00104239
0.00211522
1.13198e-06
0.000742427
-0.000588504
-0.000741486
-0.000496098
-0.0005429
-0.000476118
-0.00041037
-0.000376625
-0.000343704
-0.000349825
-0.000388074
-0.000400454
-0.000338285
-0.000173454
7.21496e-05
0.000337611
0.000552586
0.000655019
0.0006087
0.000428063
0.000203174
3.85555e-05
-9.99543e-05
-7.85839e-05
0.000684271
0.0027396
0.005817
0.00569159
-0.000131253
-0.000886805
-0.000171016
-0.00433499
-0.00181205
0.000854934
-0.00174152
0.00153658
-0.000365209
-0.00144466
-3.84287e-05
-0.00215731
-0.000823178
-0.000625506
-0.000527067
-0.000573897
-0.000548764
-0.000518109
-0.000530921
-0.000576303
-0.000606628
-0.000611657
-0.000617597
-0.000605283
-0.0005772
-0.000552465
-0.000525421
-0.000497695
-0.000467495
-0.000433195
-0.00041054
-0.000406169
-0.000419554
-0.00047798
-0.000604651
-0.000783499
-0.00108365
-0.00157063
-0.00215169
-0.00252968
-0.00205438
-0.000297667
0.00160484
0.00125153
-0.00012227
0.000700017
0.000449939
0.000900056
0.00226661
0.000219912
0.0012497
-0.000524424
-0.000655404
-0.00044127
-0.000482181
-0.000420418
-0.000357967
-0.000324677
-0.00029337
-0.000297808
-0.000330447
-0.000337147
-0.000272357
-0.00011282
0.000116774
0.000356534
0.000540568
0.000615208
0.000553807
0.000375221
0.000164712
2.26769e-05
-7.25956e-05
-1.3303e-05
0.000704485
0.002549
0.00523104
0.00521831
0.000325717
-0.000645618
-0.00029556
-0.00383213
-0.00183652
0.000638689
-0.00169855
0.00130262
-0.000248432
-0.00132859
8.40236e-05
-0.00189168
-0.000724579
-0.000548704
-0.000457951
-0.000495947
-0.000473442
-0.000448506
-0.000463112
-0.000507015
-0.000537535
-0.000545805
-0.000555367
-0.000547919
-0.000524421
-0.000501124
-0.00047125
-0.000436179
-0.000396142
-0.000352862
-0.000324101
-0.000318696
-0.000336812
-0.000401913
-0.000536355
-0.00072331
-0.0010193
-0.00148899
-0.00204069
-0.00239197
-0.00194136
-0.000275794
0.00155811
0.0012902
-0.00010587
0.000543442
0.000302244
0.000722871
0.00228739
0.000398675
0.00160843
-0.000466334
-0.000577798
-0.000391714
-0.000427023
-0.000369669
-0.00031064
-0.000277822
-0.000248146
-0.000250859
-0.000278425
-0.000280509
-0.000214559
-6.12023e-05
0.000153165
0.000370261
0.000528215
0.000580712
0.000508466
0.000332769
0.000134274
9.4625e-06
-5.08339e-05
3.87623e-05
0.000707612
0.00234838
0.00466753
0.00474621
0.000691471
-0.000422863
-0.000362585
-0.00334234
-0.00179333
0.000464685
-0.00161959
0.0011341
-0.000115903
-0.00111694
0.000270162
-0.0015391
-0.000635784
-0.000479919
-0.000397148
-0.000427594
-0.000407729
-0.000387725
-0.000403152
-0.000444653
-0.00047485
-0.000485645
-0.000498439
-0.000496062
-0.00047803
-0.000457755
-0.000427375
-0.000387694
-0.000340552
-0.000289888
-0.000254917
-0.000246337
-0.000265379
-0.000332439
-0.000469393
-0.000660376
-0.000950031
-0.00140043
-0.00192496
-0.00225218
-0.00182977
-0.000261276
0.00150435
0.00132953
-5.6476e-05
0.000415646
0.000137403
0.000520454
0.00217789
0.000519542
0.00180188
-0.00041317
-0.000507808
-0.000346147
-0.00037606
-0.000322928
-0.000267307
-0.000235042
-0.000206758
-0.000207839
-0.000230714
-0.000229123
-0.000163171
-1.67941e-05
0.00018286
0.000379857
0.000516198
0.000551888
0.000472803
0.000301922
0.000114459
2.80886e-06
-3.05711e-05
8.15517e-05
0.000697964
0.00214356
0.00413395
0.00428159
0.000966339
-0.00022617
-0.000386794
-0.00287963
-0.00169548
0.000323964
-0.00151484
0.00101681
1.71672e-05
-0.000833757
0.000494792
-0.0010931
-0.000555065
-0.000418519
-0.000343022
-0.0003667
-0.000350106
-0.00033455
-0.000349974
-0.000389014
-0.000418413
-0.000431148
-0.000446718
-0.000449187
-0.000436927
-0.000420744
-0.000391717
-0.000350053
-0.000298578
-0.00024287
-0.0002028
-0.000190108
-0.000207334
-0.000272535
-0.000407497
-0.000597688
-0.000878355
-0.00130743
-0.00180453
-0.00211121
-0.0017209
-0.000253382
0.0014411
0.00136688
2.18644e-05
0.000323591
-2.68877e-05
0.00030625
0.00195279
0.000572336
0.00183307
-0.000364395
-0.000444166
-0.000303821
-0.000328734
-0.000279789
-0.000227607
-0.000196011
-0.000168999
-0.000168352
-0.000186846
-0.00018227
-0.000117366
2.13633e-05
0.000206859
0.000385922
0.000504617
0.00052793
0.000446268
0.00028213
0.000105698
4.34303e-06
-8.85764e-06
0.000118617
0.000680409
0.0019413
0.00363377
0.00383006
0.00115475
-5.90408e-05
-0.000381741
-0.0024512
-0.0015597
0.00020972
-0.00139494
0.000932633
0.000133106
-0.000513709
0.000724082
-0.000581638
-0.000482718
-0.000363496
-0.00029475
-0.000313659
-0.000300376
-0.000288325
-0.000303389
-0.000339783
-0.000368073
-0.000382269
-0.000400177
-0.000407133
-0.000400464
-0.00038886
-0.000362487
-0.00032092
-0.000267836
-0.000209595
-0.000166087
-0.000149618
-0.0001636
-0.000224274
-0.000353092
-0.000538446
-0.000806983
-0.00121276
-0.00168129
-0.00196925
-0.00161459
-0.000252723
0.00136742
0.00139723
0.000126449
0.000271307
-0.000172683
9.5599e-05
0.0016373
0.000555813
0.00172185
-0.000319815
-0.000386482
-0.000264858
-0.000285383
-0.000240579
-0.000191875
-0.000161078
-0.000135172
-0.000132767
-0.000147177
-0.000140173
-7.70782e-05
5.34803e-05
0.00022527
0.000388458
0.000492729
0.000507829
0.000426905
0.000271859
0.000106954
1.43404e-05
1.58208e-05
0.000152155
0.000658643
0.00174659
0.00317417
0.00339619
0.00126668
7.59931e-05
-0.000359757
-0.00206616
-0.00140223
0.000112397
-0.00127335
0.000861048
0.000214347
-0.000196792
0.000920557
-5.52187e-05
-0.000418193
-0.000314585
-0.000252725
-0.000268087
-0.00025748
-0.000248232
-0.000262824
-0.000296595
-0.00032362
-0.000338843
-0.000358566
-0.000369435
-0.000367933
-0.000360767
-0.000337766
-0.000297932
-0.000245435
-0.000187088
-0.000142116
-0.00012284
-0.000133163
-0.00018771
-0.000307626
-0.000484292
-0.000738123
-0.00111813
-0.00155818
-0.00182919
-0.00151213
-0.000260124
0.00128117
0.00141558
0.000250312
0.00025911
-0.000282787
-9.61922e-05
0.00126648
0.000476694
0.0015
-0.000279378
-0.000334127
-0.000229447
-0.000246112
-0.000205428
-0.000160255
-0.00013035
-0.000105428
-0.000101267
-0.000111866
-0.000102959
-4.24094e-05
7.96182e-05
0.000238228
0.000386994
0.00047979
0.000489837
0.000412528
0.000268694
0.000116162
3.15693e-05
4.34785e-05
0.000183341
0.000635309
0.00156491
0.00275666
0.00298897
0.00131194
0.000179116
-0.000329134
-0.00172677
-0.00123834
2.64414e-05
-0.00116015
0.000784649
0.000248337
7.81358e-05
0.0010517
0.000424234
-0.000360502
-0.000270951
-0.000216052
-0.000228643
-0.000220403
-0.00021356
-0.000227551
-0.000258805
-0.000284459
-0.000300312
-0.000321383
-0.000335285
-0.000338254
-0.000335204
-0.000315685
-0.000278595
-0.000228367
-0.000171864
-0.000127367
-0.000106586
-0.000113679
-0.000161588
-0.000270844
-0.000436299
-0.000673402
-0.00102587
-0.00143566
-0.00169154
-0.00141443
-0.000274749
0.00118148
0.00141678
0.000385336
0.000284581
-0.000347176
-0.000254329
0.000876647
0.000349148
0.00120614
-0.000242643
-0.000286985
-0.000197559
-0.000210922
-0.000174206
-0.000132536
-0.000103641
-7.95602e-05
-7.37045e-05
-8.08541e-05
-7.05638e-05
-1.30869e-05
0.000100132
0.000245873
0.000381722
0.000465046
0.000472573
0.000401147
0.000270102
0.000130754
5.39252e-05
7.3034e-05
0.000212158
0.000611586
0.00139793
0.00238333
0.00261082
0.00130433
0.000252979
-0.000295311
-0.00143426
-0.0010786
-5.17329e-05
-0.00106186
0.000691079
0.000228876
0.000280466
0.00109424
0.000798606
-0.000308806
-0.000231993
-0.000183888
-0.000194381
-0.00018825
-0.000183432
-0.000196847
-0.000225678
-0.000249899
-0.00026602
-0.000287795
-0.000304103
-0.000310507
-0.000310935
-0.000294758
-0.000260918
-0.000214001
-0.000160819
-0.000118361
-9.74426e-05
-0.00010205
-0.000143528
-0.00024151
-0.000394043
-0.000612951
-0.000936878
-0.0013163
-0.00155772
-0.0013213
-0.000296762
0.00106849
0.00139681
0.000521601
0.000341864
-0.000361097
-0.000367847
0.000504702
0.0001917
0.000879783
-0.000209328
-0.000244602
-0.000168934
-0.000179473
-0.000146557
-0.000108238
-8.03724e-05
-5.7044e-05
-4.9594e-05
-5.36077e-05
-4.24275e-05
1.14811e-05
0.000115651
0.000248975
0.000372895
0.000448611
0.000455422
0.000391299
0.000273903
0.000148285
7.9103e-05
0.000102872
0.000238043
0.000588579
0.00124801
0.00205562
0.00226771
0.0012575
0.000302253
-0.000261208
-0.00118633
-0.000930391
-0.000123532
-0.00098082
0.000575154
0.000158975
0.000392351
0.0010404
0.00102757
-0.000262406
-0.000197168
-0.000155542
-0.000164491
-0.000160275
-0.000157233
-0.000170062
-0.000196612
-0.000219345
-0.000235393
-0.000257431
-0.000275272
-0.000284271
-0.000287342
-0.000274148
-0.000243635
-0.000200671
-0.000151636
-0.000112292
-9.23536e-05
-9.54089e-05
-0.000131128
-0.000217872
-0.000356593
-0.00055676
-0.000851632
-0.00120018
-0.00142829
-0.00123322
-0.000324076
0.000942437
0.00135215
0.000646395
0.000421116
-0.00032486
-0.000429755
0.000180332
2.51854e-05
0.000556297
-0.000179037
-0.000206635
-0.000143278