/*--------------------------------*- C++ -*----------------------------------*\
| =========                 |                                                 |
| \\      /  F ield         | OpenFOAM: The Open Source CFD Toolbox           |
|  \\    /   O peration     | Version:  2312                                  |
|   \\  /    A nd           | Website:  www.openfoam.com                      |
|    \\/     M anipulation  |                                                 |
\*---------------------------------------------------------------------------*/
FoamFile
{
    version     2.0;
    format      ascii;
    arch        "LSB;label=32;scalar=64";
    class       volScalarField;
    location    "250";
    object      k;
}
// * * * * * * * * * * * * * * * * * * * * * * * * * * * * * * * * * * * * * //

dimensions      [0 2 -2 0 0 0 0];

internalField   nonuniform List<scalar> 
10720
(
0.018168
0.0212706
0.0265883
0.0322707
0.0392519
0.0475031
0.0574169
0.0695855
0.0854415
0.107229
0.138776
0.187968
0.267853
0.409659
0.680668
1.27271
2.50396
5.32708
10.4834
17.4466
27.5828
46.066
86.3135
166.28
288.185
402.854
809.579
1323.31
921.019
388.715
119.562
15.032
3.13406
0.288698
1e-15
1e-15
0.00236949
0.169138
12.4306
0.0272331
0.0314525
0.025486
0.016691
0.0110074
0.0186927
0.0212949
0.0222668
0.0241816
0.0271356
0.0323392
0.0411292
0.0549872
0.0799188
0.116714
0.200247
0.287403
0.686014
1.0114
1.29249
1.72913
2.56814
3.64111
5.13007
6.93346
8.86383
8.20425
5.07197
2.11436
0.574755
0.0707358
0.00326205
0.000567149
0.000174602
1e-15
0.570423
36.7546
71.1966
200.355
0.00725526
0.00810807
0.00765168
0.00764491
0.00742608
0.00709033
0.00676638
0.00643587
0.00618035
0.00598282
0.00587601
0.0057609
0.0065143
0.00966718
0.0181627
0.0411173
0.102238
0.272696
0.714483
1.69054
3.49641
6.49613
11.2328
20.0316
60.1086
97.8043
280.791
567.034
472.711
283.631
133.461
48.1992
12.573
1.28471
0.0248356
1e-15
0.0180138
1.22392
10.45
0.00039049
0.00441702
0.00288667
0.00793203
0.0111823
0.0113535
0.00760784
0.0070114
0.00724093
0.00734028
0.0073461
0.0072564
0.0069936
0.00665119
0.0058218
0.0357012
0.0515724
0.125735
0.191427
0.028685
0.342847
0.029713
0.14752
1.08273
0.139519
0.33036
0.0140566
0.035236
0.0346018
0.0264017
0.0154115
0.00700128
0.00254603
0.000777835
1.52321e-05
0.0451058
2.76724
4.96626
57.0547
0.00143298
0.00159316
9.40825e-05
5.38266e-05
0.000186084
0.000351445
0.000520283
0.000688492
0.000854773
0.00103172
0.00121913
0.00142678
0.00167235
0.00138393
0.00278806
0.00887799
0.0194956
0.050404
0.132999
0.322386
0.682166
1.29458
2.29328
0.194269
9.93669
21.0867
96.0629
217.518
200.504
148.392
88.06
42.9872
15.4169
2.87763
0.236837
1e-15
0.039211
1.26593
5.86383
0.000436607
0.00918212
0.0130906
0.011559
0.0070498
0.0028478
0.000872079
0.00107543
0.00140116
0.00175391
0.00217086
0.00267318
0.00312978
0.00353763
0.00411043
0.00458356
0.0037851
0.00393678
0.00159983
0.00570382
0.000215868
0.00620071
0.0301979
0.000286899
0.0296814
0.0709851
0.00346553
0.00819383
0.00816931
0.00643468
0.00399692
0.00207065
0.00100528
0.000509902
0.000535528
1e-15
0.663362
1.61325
28.9978
0.00663281
0.00727111
0.00770083
0.00805147
0.00836144
0.00864525
0.00888491
0.00908293
0.00924974
0.00939012
0.0095095
0.00961336
0.0102265
0.0102381
0.00964846
0.00962112
0.00855345
0.00540443
0.00230254
0.000777692
1e-15
1e-15
1e-15
0.0548083
0.315598
0.000786901
0.000251936
0.000793157
0.00132708
0.00326542
0.0203339
0.430202
2.89393
2.61369
0.794738
0.101636
0.086308
8.95956
4.4183
0.0129006
0.0126143
0.00645652
0.00135765
0.00110655
0.000712815
0.000534417
0.000573297
0.000630315
0.000691698
0.00076005
0.000846596
0.000933255
0.00101717
0.00113193
0.00126087
0.00113323
0.00117128
0.000334899
0.000875859
0.00116836
0.00160486
0.00160434
0.00145955
0.00175002
0.00188006
0.00201422
0.00210397
0.002151
0.00223125
0.00222233
0.00209063
0.00187151
0.00147103
0.00238748
0.000621767
1e-15
0.311598
20.6924
0.0134118
0.0118135
0.0113782
0.011078
0.0108046
0.0105872
0.0104363
0.0103298
0.0102673
0.0102536
0.0102818
0.0103513
0.0104584
0.0106327
0.0108406
0.0110953
0.0113175
0.0116397
0.0108055
0.00429594
0.00159884
0.000644082
1e-15
1e-15
0.0653564
0.000165781
5.39352e-05
0.000172349
0.000292377
0.000728673
0.00459137
0.0982117
0.000377369
2.09303e-05
0.516986
0.37556
0.234873
12.1622
3.65561
0.00837182
0.00193849
0.00110098
0.00077453
0.000563153
0.00272031
0.00316292
0.00317877
0.00318735
0.00316847
0.00312559
0.00308603
0.00304807
0.00300863
0.00296077
0.0030652
0.00290778
0.00264258
0.00264989
0.0026624
0.00265143
0.00258936
0.00250791
0.00243746
0.00237693
0.00232115
0.00226592
0.00221163
0.00216143
0.00211463
0.00204771
0.00198443
0.00195231
0.00198987
0.00173095
0.00255332
4.84872e-05
0.254582
16.0953
0.00355335
0.00403609
0.00350088
0.00329755
0.00311998
0.0029534
0.00283602
0.0027552
0.00271754
0.00273209
0.00279627
0.00290898
0.00307113
0.0032874
0.00356525
0.0039291
0.00437704
0.00500457
0.00593614
0.00691818
0.00719392
0.00344523
0.000854546
0.000345616
1e-15
1e-15
1e-15
1e-15
1e-15
1e-15
1e-15
1e-15
8.65423e-05
4.86437e-06
7.73901e-07
6.88364e-06
2.77694e-05
0.00154486
0.878929
0.00139679
0.000677955
0.00057562
0.00441243
0.007195
0.0083743
0.00838108
0.00842645
0.00851124
0.00857903
0.0086165
0.0086599
0.00870849
0.0087515
0.00879246
0.00881982
0.00887697
0.00890123
0.00888533
0.00884032
0.00877099
0.00867592
0.00856222
0.00843575
0.00829816
0.00814983
0.00799105
0.00782267
0.00764548
0.00745968
0.00726167
0.00698774
0.0069035
0.0062212
0.00545303
0.00569482
0.000113504
0.205324
12.3601
0.000540933
0.000613508
0.00061309
0.000622472
0.000645084
0.000679914
0.000708173
0.000742631
0.000779535
0.000818824
0.000866581
0.000920548
0.000981611
0.00105285
0.00113418
0.00123445
0.00135275
0.00154235
0.00175164
0.000871271
0.00210604
0.00311769
0.00344779
0.00179938
0.00100022
1.16463e-06
1e-15
1e-15
1e-15
1e-15
1e-15
1e-15
1e-15
1e-15
1.7993e-07
1.61417e-06
1e-15
0.00036776
7.18999e-15
0.00109351
0.00349053
0.00695923
0.00791661
0.00680404
0.00606687
0.00616446
0.00624597
0.00640953
0.00660395
0.0067989
0.00702656
0.00728564
0.0075523
0.00785303
0.00817483
0.00840609
0.00853986
0.00860059
0.00860494
0.00856625
0.00849455
0.00839641
0.00827832
0.00814499
0.00799955
0.00784455
0.00768165
0.00751203
0.00733666
0.00716432
0.00699962
0.0068116
0.00656008
0.00622392
0.00650308
0.000136005
0.153567
8.80377
0.00129412
0.00129867
0.00147352
0.00179323
0.00200901
0.00229571
0.00256857
0.00279652
0.00298732
0.00314668
0.00327941
0.00338819
0.00347604
0.00354747
0.00360021
0.0036599
0.00371713
0.00398558
0.0036474
0.002987
0.00299819
0.00331734
0.00386626
0.00404337
0.00466709
5.91173e-06
2.86325e-07
1e-15
1e-15
1e-15
1e-15
1e-15
1e-15
1e-15
1e-15
1e-15
1e-15
1.49241e-15
2.82402e-14
0.0055664
0.00772072
0.0064889
0.00323002
0.00146493
0.00100228
0.00109319
0.00114409
0.00123291
0.00137466
0.00154853
0.00174154
0.00196414
0.00222255
0.00250353
0.0027714
0.0029353
0.00302034
0.00305141
0.00304464
0.00300924
0.00295371
0.0028856
0.00281408
0.00274455
0.00267677
0.00261266
0.00255325
0.00249921
0.00244953
0.00240575
0.00240485
0.00248017
0.00263194
0.00273602
0.0038202
8.38065e-05
0.0970076
5.29801
0.00668014
0.0063911
0.00629423
0.00621655
0.00625098
0.00635691
0.0064529
0.00649121
0.00652592
0.0065657
0.00661095
0.00666102
0.00670977
0.00677709
0.00681796
0.00691321
0.00710189
0.0071787
0.00703146
0.00667893
0.00621971
0.00580159
0.00558311
0.00515224
0.00651872
1.86584e-05
9.38938e-07
1e-15
1e-15
1e-15
1e-15
1e-15
1e-15
1e-15
1e-15
1e-15
1e-15
1e-15
7.47942e-15
0.00733865
0.00433597
0.000715448
0.000511731
0.000203183
0.00015129
0.000163839
0.000169274
0.00017863
0.000198706
0.000224382
0.000253831
0.000290065
0.000333562
0.000383455
0.000434922
0.000472863
0.000500042
0.000519603
0.000533226
0.000541744
0.000546106
0.000547473
0.000546801
0.0005448
0.000541855
0.000538687
0.000535568
0.000532726
0.000530023
0.000527846
0.000534513
0.000557899
0.000598639
0.000648469
0.000794854
1.82876e-05
0.0496716
2.5849
0.00552697
0.00494292
0.00463088
0.00441485
0.0041672
0.00390519
0.00370761
0.00356238
0.00346984
0.00342647
0.00342543
0.00346421
0.00351236
0.00364563
0.0038765
0.00404527
0.00422298
0.00452979
0.00497337
0.00540278
0.00565746
0.005709
0.00573777
0.00535579
0.00647246
4.08252e-05
2.1331e-06
1e-15
1e-15
1e-15
1e-15
1e-15
1e-15
1e-15
1e-15
1e-15
1e-15
1e-15
1e-15
0.00230529
0.000825965
0.000202553
0.000360582
3.04269e-05
7.39863e-05
5.21673e-05
3.76406e-05
1.10573e-05
0.000460296
0.00045357
0.000449654
0.000449038
0.000448833
0.000456814
0.000464795
0.000472704
0.000480948
0.000489639
0.000498422
0.000506994
0.000515189
0.000522837
0.000529125
0.000533102
0.000535438
0.000536506
0.000536259
0.000534641
0.000531612
0.000527184
0.000520915
0.000501231
0.000468481
0.000415394
0.000565951
0.00010493
0.0184251
0.913825
0.000972902
0.00107847
0.000626074
0.00034259
0.00013549
0.000545288
0.000502977
0.000489542
0.000483362
0.000482399
0.000490615
0.000505419
0.000522773
0.000555239
0.000616666
0.000132264
0.000327696
0.000573773
0.000932916
0.00152856
0.00230955
0.0030508
0.00367374
0.00384226
0.00529169
7.72593e-05
4.18919e-06
1e-15
1e-15
1e-15
1e-15
1e-15
1e-15
1e-15
1e-15
1e-15
1e-15
1e-15
1e-15
0.000401355
0.000338699
0.000809424
0.00265017
0.00327533
0.00327304
0.00325207
0.00323689
0.00322115
0.00320498
0.00318851
0.00317133
0.00315011
0.00312116
0.00313233
0.00312474
0.00310684
0.00308286
0.00305554
0.00302601
0.00299469
0.00296157
0.00292638
0.00288873
0.00284861
0.00280594
0.00276048
0.0027121
0.00266059
0.00260593
0.0025481
0.00248502
0.00236217
0.00218296
0.00191534
0.00174652
0.000474792
0.00419735
0.197944
0.000234631
0.000274582
0.000258711
0.000243263
0.000253708
0.000272096
0.000296486
0.00031982
0.000339606
0.000354658
0.000369759
0.000383282
0.000396241
0.000409582
0.000421922
0.000454651
0.000498157
0.00055057
0.000624614
0.000754263
0.000113765
0.000670407
0.00136851
0.00177594
0.00341485
0.000124984
7.02788e-06
1e-15
1e-15
1e-15
1e-15
1e-15
1e-15
1e-15
1e-15
1e-15
1e-15
1e-15
1e-15
0.000623571
0.00200864
0.00389147
0.00404819
0.00395307
0.00394045
0.00392975
0.00393234
0.0039429
0.00395941
0.00397247
0.00398298
0.00398407
0.00397823
0.00396642
0.00395012
0.00392995
0.00390594
0.00387805
0.00384613
0.00381006
0.00376976
0.00372513
0.00367656
0.00362477
0.0035701
0.00351256
0.00345211
0.00338871
0.00332209
0.00325256
0.00318671
0.00311204
0.00300692
0.00285827
0.00263357
0.0023783
0.000100449
0.00192279
0.000935123
0.00110667
0.00129489
0.00151543
0.00176777
0.00200066
0.0021903
0.00234347
0.00246638
0.00256244
0.00263797
0.00269639
0.00274404
0.00278265
0.00280953
0.00282628
0.00283615
0.00283732
0.00283995
0.00285953
0.00252576
0.00207039
0.00203677
0.00190309
0.00286282
0.000259092
1.50992e-05
1e-15
1e-15
1e-15
1e-15
1e-15
1e-15
1e-15
1e-15
1e-15
1e-15
1e-15
1e-15
0.00304464
0.0040114
0.00308284
0.00181214
0.00143957
0.00144071
0.00145333
0.00146893
0.00149226
0.00152352
0.00154704
0.00156781
0.00158703
0.00160428
0.00161871
0.00162986
0.00163721
0.00164041
0.00163917
0.00163345
0.00162328
0.00160905
0.00159133
0.00157152
0.00155081
0.00152923
0.00150698
0.00148423
0.00146113
0.0014376
0.00141365
0.0013935
0.00140422
0.00144879
0.0015154
0.00156825
0.00186489
0.000169916
0.000449041
0.0035959
0.003434
0.00341663
0.00347328
0.00358056
0.00365202
0.00370944
0.00375136
0.00378659
0.00381955
0.00385257
0.00388299
0.0039307
0.00398435
0.00402729
0.00406523
0.00410254
0.0041205
0.00418658
0.0042526
0.00407677
0.003711
0.00339245
0.00295383
0.0032362
0.000634167
4.98977e-10
2.8204e-11
1e-15
1e-15
1e-15
1e-15
1e-15
1e-15
1e-15
1e-15
1e-15
1e-15
1e-15
0.00364754
0.00195346
0.000417675
0.000302129
0.000208481
0.000214852
0.000219035
0.000219227
0.000220448
0.000223686
0.000223952
0.000224412
0.000226776
0.000229679
0.000233802
0.000239301
0.000245345
0.000251958
0.000258826
0.000265635
0.000272029
0.000278011
0.000283409
0.000287893
0.000291095
0.000293422
0.000295268
0.00029664
0.000297553
0.000297972
0.000297902
0.000298249
0.00030494
0.00031994
3.03458e-05
0.000196274
0.000535518
0.000556972
1.36869e-05
0.00269457
0.00242965
0.0022533
0.00209875
0.00196932
0.00186599
0.00179474
0.001741
0.00170692
0.0016943
0.00170113
0.00171579
0.00177417
0.00186221
0.00193256
0.00200047
0.00207253
0.00219169
0.00235193
0.00254053
0.00280955
0.00304592
0.00310876
0.00294671
0.00315122
0.00122194
5.18736e-09
3.03917e-10
1e-15
1e-15
1e-15
1e-15
1e-15
1e-15
1e-15
1e-15
1e-15
1e-15
1e-15
0.00102809
0.000378128
9.05289e-05
0.000102208
0.000108923
0.000111922
0.000112835
0.000111133
0.000109202
0.000107677
0.000105032
0.000102539
0.000101086
9.99657e-05
9.96143e-05
0.000100116
0.000101161
0.00010274
0.000104766
0.000107106
0.000109622
0.000112289
0.00011501
0.000117469
0.000119273
0.000120651
0.000121772
0.000122623
0.000123184
0.000123436
0.000123367
0.000122831
0.000120067
0.000110052
0.00010108
0.000117964
0.000174914
0.000182118
1.05202e-05
0.000393923
0.000391072
0.000135131
0.000300967
0.000272707
0.000262977
0.000250623
0.00024419
0.000240581
0.000238883
0.000241944
0.000246527
0.000258063
0.000275335
0.000290905
0.000307128
0.000329478
4.89566e-05
0.000134675
0.000267451
0.000554328
0.000945066
0.0013875
0.00171805
0.00210959
0.00149824
2.08348e-08
1.26453e-09
1e-15
1e-15
1e-15
1e-15
1e-15
1e-15
1e-15
1e-15
1e-15
1e-15
1e-15
0.000179307
0.00012576
0.00022041
0.000717132
0.000747944
0.000747209
0.00074701
0.000746022
0.000744024
0.000741843
0.000738837
0.000734916
0.000730774
0.000726523
0.000722113
0.000717719
0.000713381
0.000709017
0.000704644
0.000700213
0.000695642
0.000690841
0.000685724
0.000680203
0.000674092
0.000667246
0.000659642
0.000651281
0.000642134
0.000632183
0.000621411
0.000609089
0.000586698
0.000530401
0.000448932
0.00034768
0.000225242
0.000250218
2.6581e-05
8.43727e-05
9.88644e-05
8.89678e-05
8.22703e-05
9.62718e-05
0.000109947
0.000111412
0.000113117
0.000116392
0.000118967
0.000122102
0.000124875
0.000127313
0.000129885
0.000132231
0.000134498
0.0001367
0.000146629
0.000162829
0.000186788
0.000225855
0.000283013
0.000353512
0.000242545
0.000662372
0.00103367
4.79091e-08
3.01015e-09
1e-15
1e-15
1e-15
1e-15
1e-15
1e-15
1e-15
1e-15
1e-15
1e-15
1e-15
0.000270963
0.000789594
0.001783
0.00202359
0.00202236
0.00200679
0.00199569
0.00198961
0.00198576
0.00198317
0.00198082
0.00197784
0.00197452
0.0019707
0.00196606
0.00196072
0.00195456
0.00194734
0.001939
0.00192936
0.00191823
0.0019054
0.00189074
0.00187413
0.00185546
0.00183473
0.00181214
0.0017878
0.00176169
0.00173375
0.00170378
0.00167184
0.00163745
0.00157056
0.00147
0.00133063
0.00112545
0.000893207
0.000641535
0.000253159
0.000354616
0.000492747
0.000603095
0.000696236
0.00078253
0.000803271
0.000814483
0.000836683
0.000858366
0.000876553
0.000890523
0.000900281
0.000906308
0.00090913
0.000909225
0.000907244
0.000904071
0.000900187
0.00089231
0.000812101
0.000725493
0.000543582
0.000426084
0.000458679
0.000824324
1.32204e-07
8.59313e-09
1e-15
1e-15
1e-15
1e-15
1e-15
1e-15
1e-15
1e-15
1e-15
1e-15
1e-15
0.00137425
0.00212267
0.00187809
0.00152617
0.00150098
0.00148549
0.00147251
0.00146559
0.00146253
0.00146143
0.0014621
0.00146352
0.0014648
0.0014658
0.00146622
0.0014658
0.00146434
0.0014617
0.0014577
0.00145218
0.00144499
0.00143602
0.00142513
0.00141242
0.00139823
0.00138283
0.00136628
0.00134859
0.00132979
0.00130985
0.00128871
0.00126634
0.00124926
0.00124513
0.00124103
0.00122535
0.00117434
0.00105027
0.000861476
0.00180183
0.0017665
0.0018502
0.00193707
0.00200242
0.00206973
0.0020688
0.00205738
0.0020835
0.00210052
0.00211133
0.00211812
0.00212215
0.00212411
0.00212441
0.0021232
0.00212034
0.00211563
0.00210932
0.00209743
0.0020542
0.00188321
0.00170081
0.00148512
0.00115123
0.00118897
5.60547e-07
3.7668e-08
1e-15
1e-15
1e-15
1e-15
1e-15
1e-15
1e-15
1e-15
1e-15
1e-15
1e-15
0.00218625
0.00139968
0.000582454
0.000255337
0.000241004
0.00024143
0.000237994
0.000233832
0.000231159
0.000229854
0.000229378
0.000229533
0.000230167
0.000231197
0.000232488
0.00023397
0.000235551
0.000237167
0.00023872
0.00024015
0.000241389
0.000242391
0.000243177
0.000243831
0.000244397
0.000244805
0.00024498
0.000244897
0.000244544
0.000243858
0.000242926
0.000240935
0.000240796
0.000276031
0.000345206
0.000442923
0.000568215
0.000680507
0.000692275
0.00178899
0.00160987
0.00152227
0.00147308
0.00142941
0.00138582
0.00137329
0.00135479
0.00133806
0.00132495
0.00131575
0.00131082
0.00131017
0.00131347
0.00132054
0.00133109
0.00134508
0.00136225
0.0013821
0.00141434
0.0014817
0.00154512
0.00156267
0.0015468
0.00142601
0.00143508
1.98273e-06
1.37645e-07
1e-15
1e-15
1e-15
1e-15
1e-15
1e-15
1e-15
1e-15
1e-15
1e-15
1e-15
0.000825434
3.79834e-05
9.07192e-05
3.80165e-05
3.6583e-05
3.76146e-05
3.73054e-05
3.6031e-05
3.49494e-05
3.41952e-05
3.31785e-05
3.2298e-05
3.1815e-05
3.14832e-05
3.14445e-05
3.17807e-05
3.23455e-05
3.31746e-05
3.42218e-05
3.54509e-05
3.68022e-05
3.82588e-05
3.97962e-05
4.12674e-05
4.25159e-05
4.36301e-05
4.46979e-05
4.57061e-05
4.66447e-05
4.74904e-05
4.82536e-05
4.87669e-05
4.96156e-05
5.78435e-05
7.35013e-05
9.57758e-05
9.79249e-07
0.000191709
0.000370276
0.000401999
0.000413586
0.000290668
0.000214924
0.00016211
0.000120455
8.99079e-05
6.97377e-05
5.56e-05
4.61474e-05
4.11547e-05
4.03081e-05
4.32852e-05
4.98698e-05
5.99784e-05
7.35454e-05
9.08879e-05
0.000112304
0.000136912
0.000165591
0.000239451
0.00039281
0.00057776
0.000786446
0.000911764
0.00117703
5.32129e-06
3.81349e-07
1e-15
1e-15
1e-15
1e-15
1e-15
1e-15
1e-15
1e-15
1e-15
1e-15
1e-15
0.000156853
1.56746e-05
8.21029e-05
0.000101406
0.00010583
0.00010962
0.000110944
0.000108997
0.000106424
0.000103989
0.000100224
9.64907e-05
9.38207e-05
9.14176e-05
8.98068e-05
8.92799e-05
8.93638e-05
9.01936e-05
9.1685e-05
9.36621e-05
9.60051e-05
9.86355e-05
0.000101512
0.000104102
0.000105886
0.000107206
0.000108389
0.00010941
0.000110252
0.00011089
0.000111305
0.000111509
0.000111563
0.000108708
0.000100623
8.59816e-05
6.60374e-05
8.98751e-05
8.73391e-05
5.46704e-05
5.70726e-05
4.28755e-05
3.04687e-05
2.32455e-05
1.75092e-05
1.2914e-05
1.22682e-05
1.2081e-05
1.20333e-05
1.24193e-05
1.31738e-05
1.43028e-05
1.58449e-05
1.77499e-05
2.01043e-05
2.30318e-05
2.66585e-05
3.0914e-05
3.5832e-05
4.72555e-05
6.83307e-05
9.68222e-05
1.33058e-05
0.000175347
0.00058103
9.88028e-06
7.30534e-07
1e-15
1e-15
1e-15
1e-15
1e-15
1e-15
1e-15
1e-15
1e-15
1e-15
1e-15
7.22902e-05
7.84946e-05
0.000553919
0.000682539
0.000699277
0.000706121
0.000711216
0.000712515
0.0007111
0.000708428
0.000705466
0.000702287
0.00069902
0.000695823
0.000692571
0.000689211
0.000685732
0.000682043
0.000678089
0.000673806
0.000669132
0.00066398
0.000658281
0.000652062
0.000645392
0.000638256
0.000630651
0.000622579
0.000614025
0.000604982
0.000595404
0.000585378
0.000575268
0.000551078
0.000501885
0.000422273
0.000318575
0.000213014
0.000178087
0.00015449
0.000100925
0.000113616
0.000112952
0.000116867
0.000120574
4.18249e-07
1.64726e-05
2.97092e-05
3.97666e-05
4.76271e-05
5.38216e-05
5.8607e-05
6.1986e-05
6.3913e-05
6.47583e-05
6.49509e-05
6.48565e-05
6.47248e-05
6.37445e-05
5.69724e-05
2.71546e-05
0.000113565
9.68626e-05
0.000123861
0.000200731
1.60137e-05
1.25832e-06
1e-15
1e-15
1e-15
1e-15
1e-15
1e-15
1e-15
1e-15
1e-15
1e-15
1e-15
0.000473981
0.000979646
0.00115484
0.00112424
0.00111784
0.00110821
0.00110219
0.00109778
0.0010935
0.00108929
0.00108553
0.00108205
0.0010787
0.00107549
0.0010723
0.00106899
0.00106551
0.00106174
0.00105759
0.00105293
0.00104764
0.00104156
0.00103448
0.0010263
0.00101712
0.00100701
0.000995984
0.000984038
0.000971194
0.00095745
0.000942747
0.00092731
0.0009129
0.000894225
0.00085906
0.000801093
0.000709898
0.000560522
0.000410287
0.000738275
0.000734168
0.000773035
0.000801403
0.000820681
0.000835799
0.000846714
0.000854514
0.00086052
0.000864776
0.000867309
0.000870864
0.000873404
0.000872395
0.000868878
0.000864514
0.000859804
0.000854887
0.000849778
0.00084452
0.000840059
0.000794306
0.000706132
0.000595566
0.00048243
0.000448036
8.03361e-05
2.18484e-07
1.62844e-08
1e-15
1e-15
1e-15
1e-15
1e-15
1e-15
1e-15
1e-15
1e-15
1e-15
0.00122651
0.00105159
0.000678889
0.000556754
0.000534878
0.000520882
0.000511434
0.000506907
0.000504637
0.000503404
0.000502679
0.000502208
0.00050175
0.000501255
0.000500696
0.000500009
0.000499181
0.000498166
0.000496912
0.000495354
0.000493475
0.000491214
0.000488472
0.000485217
0.000481584
0.000477551
0.000473122
0.000468366
0.00046319
0.000457514
0.000451434
0.000444942
0.000439171
0.000443924
0.000463768
0.000491549
0.000513375
0.00050674
0.000442198
0.00119893
0.00110765
0.00109257
0.001082
0.0010682
0.00105469
0.00104363
0.00103376
0.00102549
0.00101877
0.00101156
0.00100989
0.00100976
0.001004
0.000997529
0.000992982
0.000989474
0.000986436
0.000983484
0.00098103
0.00098596
0.00098475
0.000952237
0.000902897
0.000811635
0.000708115
0.000305896
3.88786e-06
2.98815e-07
1e-15
1e-15
1e-15
1e-15
1e-15
1e-15
1e-15
1e-15
1e-15
1e-15
0.00081016
0.000326025
0.000139327
8.51864e-05
8.32809e-05
8.31006e-05
8.19051e-05
7.95222e-05
7.73244e-05
7.5488e-05
7.26768e-05
6.98728e-05
6.78111e-05
6.58578e-05
6.44793e-05
6.39244e-05
6.3864e-05
6.44439e-05
6.55885e-05
6.72012e-05
6.91814e-05
7.14988e-05
7.40907e-05
7.64717e-05
7.8167e-05
7.94793e-05
8.07208e-05
8.18793e-05
8.29282e-05
8.3819e-05
8.456e-05
8.51542e-05
8.58015e-05
8.84545e-05
9.6582e-05
4.85079e-05
0.000134295
0.000235743
0.000290317
0.00051199
0.000504153
0.000449897
0.000414616
0.000386094
0.000361831
0.000343252
0.000328611
0.000317132
0.000308493
0.000299879
0.000297433
0.000299689
0.000294769
0.000291147
0.000293501
0.000296756
0.000300794
0.000305766
0.000315541
0.000326897
0.000361712
0.000425755
0.000495689
0.000537808
0.000563867
0.00045203
1.89145e-05
1.49795e-06
1e-15
1e-15
1e-15
1e-15
1e-15
1e-15
1e-15
1e-15
1e-15
1e-15
4.45188e-05
5.03851e-05
1.07826e-06
8.83553e-06
9.43275e-06
1.00778e-05
1.03267e-05
9.6558e-06
8.76985e-06
8.00833e-06
7.28869e-06
6.68525e-06
6.25736e-06
5.90279e-06
5.63785e-06
5.48436e-06
5.39696e-06
5.38656e-06
5.44103e-06
5.55642e-06
5.7154e-06
5.91873e-06
6.16666e-06
6.41622e-06
6.60132e-06
6.73738e-06
6.86058e-06
6.97468e-06
7.08055e-06
7.17596e-06
7.26115e-06
7.33436e-06
7.3448e-06
6.80805e-06
4.39699e-06
1.05697e-05
2.79965e-05
5.38633e-05
9.24638e-05
7.15666e-05
7.13855e-05
6.80331e-05
6.00729e-05
5.64646e-05
5.35302e-05
4.97567e-05
4.73688e-05
4.54337e-05
4.35974e-05
4.22094e-05
4.17306e-05
4.19874e-05
4.14867e-05
4.1228e-05
4.19577e-05
4.29097e-05
4.40651e-05
4.54171e-05
4.75416e-05
4.99271e-05
5.5898e-05
6.95272e-05
3.18368e-05
0.000130093
0.000222457
0.000333083
5.03731e-05
4.11284e-06
1e-15
1e-15
1e-15
1e-15
1e-15
1e-15
1e-15
1e-15
1e-15
1e-15
9.38849e-06
4.44659e-05
7.09937e-06
5.81356e-05
6.10257e-05
6.36539e-05
6.50292e-05
6.21768e-05
5.79361e-05
5.41876e-05
5.13315e-05
4.91416e-05
4.75797e-05
4.64292e-05
4.55124e-05
4.483e-05
4.4313e-05
4.39211e-05
4.36228e-05
4.34218e-05
4.3264e-05
4.31434e-05
4.30937e-05
4.31068e-05
4.30834e-05
4.29228e-05
4.2674e-05
4.23706e-05
4.20239e-05
4.16356e-05
4.12164e-05
4.0758e-05
3.99851e-05
3.63361e-05
2.30223e-05
3.27671e-06
5.66097e-05
4.3256e-05
7.23705e-06
2.92994e-05
2.39971e-05
2.63461e-05
2.61681e-05
2.74536e-05
2.88586e-05
2.90871e-05
2.95812e-05
2.994e-05
2.99157e-05
3.00812e-05
3.01891e-05
3.02639e-05
3.04589e-05
3.06427e-05
3.08725e-05
3.11111e-05
3.13444e-05
3.156e-05
3.17402e-05
3.17415e-05
2.99978e-05
2.54824e-05
2.45443e-05
3.51227e-05
5.18934e-05
8.5359e-05
5.99252e-05
3.10263e-08
2.47978e-09
1e-15
1e-15
1e-15
1e-15
1e-15
1e-15
1e-15
1e-15
1e-15
2.35146e-05
0.000316796
0.000491778
0.000519019
0.000519217
0.000517831
0.00051685
0.000510978
0.000503151
0.000496468
0.000491595
0.000487948
0.00048508
0.000482664
0.000480457
0.000478384
0.000476345
0.000474227
0.00047199
0.000469586
0.000466973
0.00046408
0.000460873
0.00045734
0.000453456
0.000449196
0.000444597
0.000439679
0.000434421
0.000428805
0.000422789
0.000416375
0.000409556
0.0004018
0.000380527
0.000344021
0.000287657
0.000214847
0.000156007
0.000192257
0.00017081
0.000175578
0.000182277
0.000189593
0.000197153
0.000203131
0.000208051
0.000212212
0.000215421
0.000217941
0.00021989
0.000221283
0.000222201
0.000222684
0.000222744
0.000222405
0.000221687
0.000220634
0.00021926
0.000216859
0.000203124
0.000171348
0.000131247
9.71627e-05
5.50658e-05
5.57693e-05
8.86012e-05
6.98978e-06
6.82413e-07
1e-15
1e-15
1e-15
1e-15
1e-15
1e-15
1e-15
1e-15
1e-15
0.000561518
0.000636791
0.000561374
0.000537582
0.000533697
0.000528672
0.000527123
0.000524323
0.000519705
0.00051576
0.000513045
0.000511062
0.000509315
0.00050763
0.000505997
0.000503521
0.000500718
0.000497734
0.000494642
0.000491438
0.000488098
0.000484554
0.000480704
0.000476457
0.000471883
0.000467052
0.000461991
0.000456653
0.000451014
0.000445048
0.000438713
0.000432046
0.000424959
0.000420349
0.000416007
0.000404893
0.000378809
0.000330057
0.000262319
0.000641881
0.000580878
0.000566798
0.000563576
0.000560975
0.000559221
0.000557806
0.000556471
0.0005555
0.000554481
0.00055335
0.000552144
0.000550682
0.000548977
0.000547022
0.00054477
0.000542218
0.00053935
0.000536144
0.000532564
0.000528759
0.000519773
0.000493992
0.000453262
0.000399775
0.000334914
0.000273793
0.000235677
5.40481e-05
6.43374e-07
5.19499e-08
1e-15
1e-15
1e-15
1e-15
1e-15
1e-15
1e-15
1e-15
0.000619338
0.000347302
0.000146553
0.000107819
0.000105339
0.000103011
0.000102955
0.00010491
0.000105662
0.000105953
0.000106177
0.000106225
0.000105976
0.000105572
0.000105218
0.000106012
0.000108351
0.00011102
0.000113602
0.000116002
0.000118175
0.000120137
0.000121869
0.000123247
0.000124172
0.000124731
0.000124977
0.0001249
0.000124533
0.00012388
0.000122961
0.000121739
0.000119995
0.000122362
0.000135923
0.000154274
0.000184101
0.000212269
0.000205737
0.000497046
0.000470446
0.000446536
0.000430459
0.000416414
0.000403692
0.000394186
0.000386682
0.000380791
0.000376275
0.000372515
0.000369284
0.000366461
0.000363894
0.000361544
0.000359385
0.000357387
0.000355553
0.000353885
0.00035233
0.000351863
0.000357793
0.000369814
0.000377363
0.000372708
0.000361471
0.000332541
0.000297403
0.0001534
7.58826e-06
6.31052e-07
1e-15
1e-15
1e-15
1e-15
1e-15
1e-15
1e-15
1e-15
0.000202982
7.15767e-05
2.2926e-05
1.6865e-05
1.67433e-05
1.67561e-05
1.67829e-05
1.67068e-05
1.63755e-05
1.59965e-05
1.53449e-05
1.46255e-05
1.40146e-05
1.33833e-05
1.28746e-05
1.2697e-05
1.28085e-05
1.3123e-05
1.35946e-05
1.42114e-05
1.4947e-05
1.58191e-05
1.6818e-05
1.77698e-05
1.8463e-05
1.90093e-05
1.95317e-05
2.00177e-05
2.04669e-05
2.08709e-05
2.12294e-05
2.15304e-05
2.17281e-05
2.26738e-05
2.57624e-05
2.98979e-05
3.89026e-05
4.52953e-05
9.26481e-05
8.67978e-05
0.000102152
8.12527e-05
6.84799e-05
5.92909e-05
5.14166e-05
4.52205e-05
4.06654e-05
3.71555e-05
3.44954e-05
3.24236e-05
3.07728e-05
2.94967e-05
2.85603e-05
2.79368e-05
2.764e-05
2.76829e-05
2.80776e-05
2.8847e-05
2.98466e-05
3.07093e-05
3.6798e-05
6.34786e-05
0.000100607
0.000140044
0.000180833
0.000210361
0.000222632
0.000195563
3.17879e-05
3.01319e-06
1e-15
1e-15
1e-15
1e-15
1e-15
1e-15
1e-15
1e-15
3.80839e-05
1.04685e-05
1.89054e-05
1.94085e-05
1.9275e-05
1.96126e-05
1.95464e-05
1.89389e-05
1.82942e-05
1.76939e-05
1.68119e-05
1.58948e-05
1.51466e-05
1.43929e-05
1.37677e-05
1.3075e-05
1.26247e-05
1.24015e-05
1.23746e-05
1.25115e-05
1.27768e-05
1.31697e-05
1.36732e-05
1.41425e-05
1.44167e-05
1.45941e-05
1.47781e-05
1.49601e-05
1.51366e-05
1.53012e-05
1.54522e-05
1.55874e-05
1.57089e-05
1.57819e-05
1.48299e-05
1.22963e-05
8.53022e-06
1.40004e-05
2.20278e-05
1.24104e-05
1.47744e-05
1.25393e-05
1.01032e-05
8.81509e-06
7.72023e-06
6.63267e-06
5.91373e-06
5.35186e-06
4.87865e-06
4.54705e-06
4.28072e-06
4.07519e-06
3.94363e-06
3.86146e-06
3.83675e-06
3.86749e-06
3.95482e-06
4.09995e-06
4.28152e-06
4.44175e-06
5.35077e-06
9.25791e-06
1.46554e-05
2.06892e-05
1.52365e-06
4.72469e-05
8.91522e-05
0.00013183
6.31147e-05
1.78909e-06
1.50451e-07
1e-15
1e-15
1e-15
1e-15
1e-15
1e-15
1e-15
3.18034e-05
7.45161e-05
0.000122035
0.00012536
0.000122562
0.000121897
0.000121289
0.000120424
0.000119685
0.000119014
0.000118438
0.00011792
0.000117442
0.000116966
0.000116512
0.000113638
0.000111708
0.000110248
0.00010904
0.000107957
0.000106924
0.000105876
0.00010477
0.000103624
0.000102497
0.000101379
0.000100235
9.90531e-05
9.78239e-05
9.654e-05
9.51987e-05
9.37992e-05
9.23595e-05
9.0684e-05
8.33004e-05
6.75286e-05
4.58213e-05
2.58912e-05
1.67972e-05
5.15448e-05
2.93585e-05
3.00636e-05
2.88117e-05
2.9356e-05
3.0021e-05
2.95823e-05
2.95009e-05
2.9336e-05
2.88449e-05
2.85753e-05
2.82608e-05
2.79433e-05
2.77759e-05
2.76273e-05
2.755e-05
2.75175e-05
2.7511e-05
2.75089e-05
2.74939e-05
2.74273e-05
2.72919e-05
2.58327e-05
2.31574e-05
1.97923e-05
1.65289e-05
2.10746e-05
4.94478e-06
4.43375e-05
6.16767e-05
9.83665e-06
1.11983e-06
1e-15
1e-15
1e-15
1e-15
1e-15
1e-15
1e-15
0.00016979
0.000313263
0.000311725
0.000311593
0.000310658
0.000308219
0.000305477
0.000302688
0.000300042
0.00029756
0.000295362
0.000293417
0.000291649
0.000290042
0.000288558
0.000287188
0.000285856
0.000284521
0.000283182
0.000281798
0.000280325
0.000278716
0.000276907
0.000274891
0.000272718
0.00027038
0.000267843
0.000265112
0.000262187
0.000259057
0.000255707
0.000252134
0.000248387
0.000245016
0.000232298
0.000217552
0.000200947
0.000168069
0.000129205
0.000234135
0.000205228
0.000196943
0.000197616
0.000199902
0.000202525
0.000204519
0.000205906
0.000206965
0.000207563
0.00020768
0.000207424
0.000206868
0.000206102
0.000205186
0.000204136
0.000202964
0.000201676
0.000200266
0.000198739
0.000197128
0.000195672
0.000185293
0.00016703
0.000142382
0.000115211
9.29538e-05
6.96931e-05
5.61524e-05
7.03354e-05
3.51436e-05
1.65173e-06
1.71998e-07
1e-15
1e-15
1e-15
1e-15
1e-15
1e-15
0.000364843
0.000262221
0.000205839
0.000194512
0.000193042
0.000190847
0.000188587
0.00018657
0.00018475
0.000183086
0.000181633
0.000180435
0.000179386
0.000178478
0.000177656
0.000176914
0.000176207
0.000175525
0.000174832
0.000174111
0.000173326
0.000172456
0.000171448
0.000170263
0.000168933
0.000167493