/*--------------------------------*- C++ -*----------------------------------*\
| =========                 |                                                 |
| \\      /  F ield         | OpenFOAM: The Open Source CFD Toolbox           |
|  \\    /   O peration     | Version:  2312                                  |
|   \\  /    A nd           | Website:  www.openfoam.com                      |
|    \\/     M anipulation  |                                                 |
\*---------------------------------------------------------------------------*/
FoamFile
{
    version     2.0;
    format      ascii;
    arch        "LSB;label=32;scalar=64";
    class       volScalarField;
    location    "250";
    object      nut;
}
// * * * * * * * * * * * * * * * * * * * * * * * * * * * * * * * * * * * * * //

dimensions      [0 2 -1 0 0 0 0];

internalField   nonuniform List<scalar> 
10720
(
6.85922e-05
0.000109768
0.000144319
0.000150831
0.000137252
0.000124252
0.000119463
0.000123191
0.00013632
0.000159797
0.00019749
0.00025904
0.000361266
0.000545347
0.00089974
0.00167958
0.0033188
0.00713781
0.0143028
0.0244257
0.0399196
0.0691736
0.133988
0.264821
0.464772
0.65458
1.32062
2.19991
1.53006
0.546993
0.162599
0.0175926
0.00352313
0.000368357
1.50244e-18
1.93947e-18
7.27451e-06
0.00107307
0.156949
7.62259e-05
9.50938e-05
8.73761e-05
0.000157484
5.1643e-05
0.000108064
0.000157595
0.000195325
0.000206203
0.000196027
0.000192419
0.000204155
0.000232869
0.000296395
0.00039559
0.000635501
0.000989377
0.00288
0.00317744
0.00371008
0.00494388
0.00703715
0.00886411
0.0118379
0.0155525
0.0195567
0.0162611
0.0088617
0.0033716
0.00087388
0.000107827
5.22561e-06
9.91422e-07
3.42051e-07
2.2239e-18
0.00144724
0.0868822
0.171697
0.488479
0.000372966
0.000366349
0.000324845
0.00020928
0.000127062
8.21467e-05
6.40057e-05
5.81994e-05
5.8382e-05
6.16214e-05
6.72637e-05
7.34481e-05
9.2715e-05
0.000152962
0.000315809
0.000755479
0.00183674
0.00438273
0.00963466
0.0187454
0.0323594
0.0527437
0.0876159
0.168995
0.496943
0.578602
1.39012
1.49137
1.28017
1.75294
1.06974
0.26574
0.067106
0.00682693
0.000109587
4.48695e-18
0.000108907
0.0137064
0.13076
5.09599e-05
3.0982e-05
2.10535e-05
8.44847e-05
9.3283e-05
0.000105093
7.96382e-05
8.31777e-05
9.72681e-05
0.000113612
0.000132243
0.000151935
0.000170271
0.000188529
0.000191906
0.00136333
0.00226233
0.00626018
0.0107073
0.000423172
0.0049172
0.00208922
0.010744
0.00355312
0.000584492
0.00152851
8.03472e-05
0.000224033
0.000216296
0.000183856
0.000104155
4.6861e-05
1.71933e-05
5.451e-06
1.12601e-07
0.000358569
0.0241442
0.0487896
0.506865
6.81619e-05
8.22114e-05
2.34177e-05
1.36103e-05
4.74351e-05
8.62696e-05
9.22555e-05
9.94434e-05
0.000107422
0.000115606
0.000123813
0.000131926
0.000138937
0.000143733
0.000151856
0.000197858
0.000338433
0.000850869
0.00227226
0.00570225
0.0129955
0.0284279
0.0656643
0.0105279
0.370427
0.668945
1.03186
0.896132
0.561287
0.457463
0.425523
0.286581
0.076382
0.0107487
0.000804006
3.82612e-18
0.00022169
0.012794
0.0693409
9.47583e-05
0.000106557
0.000147094
0.000142653
0.000111367
9.36747e-05
9.46877e-05
0.000103705
0.000117467
0.000139205
0.000172252
0.000219495
0.000284148
0.000371491
0.00048964
0.000642222
0.000790008
0.000801484
0.000317084
0.0010978
4.02368e-05
0.00111598
0.00483299
4.75423e-05
0.00503634
0.0117635
0.000609636
0.00126574
0.00111915
0.000885356
0.00054042
0.000224164
9.3562e-05
4.30019e-05
4.3074e-05
8.2032e-17
0.0642947
0.205514
2.37197
0.00020404
0.000205428
0.000205715
0.000208582
0.00021238
0.000218628
0.000227043
0.000238095
0.000252159
0.000269977
0.000292317
0.000319905
0.00035891
0.000402379
0.000451138
0.000524044
0.000609583
0.000693744
0.000519427
0.000171223
2.31793e-16
3.27381e-16
4.4184e-15
0.00255827
0.0186293
3.38128e-10
4.88948e-12
2.3745e-11
1.00602e-10
9.27954e-10
6.36748e-08
7.15929e-05
0.0211832
0.0219346
0.00598493
0.000874668
0.000987111
0.0873443
0.0603529
0.0002502
0.00022896
0.000197735
0.000191207
0.000199183
0.00018276
0.000136595
0.000145957
0.00015972
0.000174292
0.00019021
0.000210127
0.000229356
0.000247081
0.000271313
0.000297691
0.00026305
0.000266756
7.46568e-05
0.00019069
0.000248979
0.000335316
0.000328808
0.000293253
0.000344085
0.000360836
0.000377224
0.000384258
0.000382879
0.000387823
0.000379603
0.00035186
0.000310276
0.000240402
0.000384641
9.93314e-05
1.69652e-16
0.072462
4.95998
0.000444726
0.000436161
0.000438841
0.000446047
0.000456564
0.000474188
0.000496776
0.00052536
0.000560863
0.000603022
0.000651977
0.000707421
0.000768316
0.000833341
0.000900968
0.000969132
0.00104395
0.00113514
0.00124397
0.000930369
0.000337918
0.000135227
2.24314e-16
3.05776e-16
0.00404519
1.45739e-10
1.12685e-16
8.353e-16
3.94103e-15
3.40839e-14
9.60375e-13
2.08266e-10
2.11315e-08
1.97377e-12
0.0101945
0.00762406
0.00387484
0.0885005
0.053127
0.00042687
0.000415427
0.000279359
0.000198244
0.000143978
0.000474634
0.000511345
0.000557227
0.000616703
0.000695458
0.000764403
0.000746619
0.000728787
0.000710139
0.000689075
0.000702454
0.000655156
0.000584317
0.000573881
0.000566077
0.000555237
0.00053512
0.000512102
0.000492338
0.000475391
0.000459572
0.000444668
0.00043134
0.000420559
0.000411296
0.000399023
0.000388634
0.000385511
0.000398162
0.000352062
0.000530895
1.04162e-05
0.0570052
5.67312
0.000763241
0.000763688
0.000775423
0.000787894
0.000795178
0.000748416
0.000715287
0.000691463
0.00067822
0.000677525
0.000688412
0.000710214
0.00074269
0.000786386
0.000842301
0.000915044
0.00100299
0.00112651
0.00130986
0.00149235
0.00151244
0.000704243
0.000171075
6.98416e-05
2.30907e-16
9.27663e-22
4.60516e-27
4.73889e-27
7.99241e-27
1.92802e-26
5.97438e-26
2.40295e-25
1.0327e-13
2.23257e-14
8.55194e-15
6.04238e-13
3.8491e-11
7.3182e-09
2.89099e-05
0.000364197
0.000172656
0.000147642
0.000848374
0.000891821
0.000944827
0.00100608
0.00108443
0.00118695
0.00132058
0.00149139
0.00170498
0.00196843
0.00206232
0.00204311
0.00201828
0.00199736
0.00196576
0.00192431
0.00188531
0.00184712
0.00180738
0.00176625
0.00172474
0.00168117
0.00163578
0.00159271
0.0015516
0.00151388
0.00148172
0.00145197
0.0014101
0.00140731
0.00128289
0.00113625
0.00119784
2.39065e-05
0.0421515
4.29527
0.000141912
0.000159926
0.000158482
0.00015992
0.000164882
0.000173266
0.000179887
0.000187893
0.000196251
0.000204862
0.000215189
0.000226596
0.000239222
0.000253679
0.000269752
0.000289268
0.000311722
0.000348889
0.000388064
0.000188414
0.000443199
0.000638475
0.000689951
0.000352963
0.000195757
1.62266e-12
1.04311e-26
6.33211e-27
7.27078e-27
1.27979e-26
3.00484e-26
8.44287e-26
2.36758e-25
5.98144e-25
1.72383e-16
4.8321e-15
1.4072e-23
1.23531e-11
1.18128e-21
0.000281924
0.00089227
0.00148005
0.00153576
0.00158967
0.00154885
0.00156766
0.00157891
0.00160787
0.00164199
0.00167382
0.00171142
0.00175416
0.00179569
0.00184179
0.00188846
0.00190954
0.00190404
0.00188615
0.00186272
0.00183487
0.00180311
0.00176774
0.00172899
0.0016861
0.00164204
0.00160141
0.00156277
0.00152759
0.00149735
0.00147305
0.00145526
0.00143573
0.00140648
0.00135875
0.00144764
3.06921e-05
0.0343341
2.24952
0.000340608
0.000339174
0.000383495
0.000464577
0.000519498
0.00059284
0.00066164
0.00071772
0.0007628
0.000798275
0.000825541
0.000845444
0.000858841
0.000866712
0.000868335
0.000869746
0.000868595
0.000913913
0.000818599
0.00065371
0.000637878
0.000688915
0.000784987
0.000803276
0.000910957
1.72126e-11
6.94131e-18
9.77089e-27
8.1126e-27
1.07954e-26
1.99544e-26
4.41048e-26
9.56961e-26
1.74682e-25
2.71531e-25
5.6331e-25
1.52366e-24
5.1689e-24
3.74633e-22
0.00143853
0.00200909
0.0016848
0.000837042
0.000379936
0.00025971
0.000282299
0.000293759
0.000314308
0.000347604
0.000388022
0.000432046
0.000481977
0.000538855
0.00059894
0.000653246
0.000680496
0.00068769
0.000685265
0.000676417
0.000662749
0.000645667
0.00062642
0.000606002
0.000585967
0.000567568
0.000551493
0.000537649
0.000526626
0.000518227
0.000512653
0.000517918
0.000541286
0.000584266
0.000619036
0.000883584
1.97741e-05
0.0232319
1.30199
0.00175888
0.00168186
0.00165377
0.00163058
0.00164013
0.00166667
0.00168798
0.00169174
0.00169212
0.00169177
0.00169123
0.00169038
0.00168742
0.00168656
0.00167589
0.00167499
0.00169243
0.00167876
0.00160886
0.00148978
0.00135528
0.00123614
0.00116282
0.00104982
0.00130349
1.21373e-10
5.41536e-17
1.65977e-26
1.03497e-26
1.06951e-26
1.58869e-26
2.88668e-26
5.29047e-26
8.60618e-26
1.24188e-25
2.1091e-25
4.55045e-25
9.14023e-25
1.91161e-23
0.0019273
0.00114499
0.000187836
0.000134824
5.36469e-05
3.99189e-05
4.3094e-05
4.42985e-05
4.64563e-05
5.13038e-05
5.74477e-05
6.43722e-05
7.27861e-05
8.27183e-05
9.38514e-05
0.000104901
0.000112225
0.000116934
0.000120139
0.000122197
0.000123255
0.000123469
0.000122956
0.000121839
0.000120471
0.000119123
0.000117996
0.000117136
0.00011668
0.000116587
0.000116946
0.000119627
0.00012644
0.000137872
0.000152092
0.000190463
4.4742e-06
0.0124737
0.647055
0.00147269
0.00131974
0.00123488
0.00117855
0.00111358
0.00104321
0.00098861
0.000946913
0.000918457
0.000902391
0.000896801
0.000900734
0.000905895
0.000931064
0.000978232
0.00100648
0.00103361
0.00108797
0.00116862
0.00124252
0.00127558
0.00126062
0.00123972
0.00113204
0.00134094
6.1588e-10
2.99486e-16
3.02388e-26
1.45985e-26
1.19865e-26
1.45244e-26
2.21464e-26
3.5428e-26
5.29372e-26
7.27267e-26
1.09651e-25
2.0571e-25
3.73041e-25
7.49703e-25
0.00061775
0.000220663
5.41828e-05
9.69717e-05
8.19851e-06
1.99307e-05
1.40237e-05
1.00804e-05
2.94596e-06
0.000121833
0.000119088
0.000116959
0.000115573
0.000114167
0.000114689
0.000115029
0.000115315
0.000116032
0.000117108
0.000118375
0.000119705
0.000120975
0.000121946
0.000122489
0.000122647
0.000122608
0.000122537
0.000122408
0.000122285
0.00012213
0.00012197
0.000121672
0.000118446
0.000112362
0.00010133
0.00014084
2.66344e-05
0.00481571
0.23617
0.000264971
0.000293777
0.00017071
9.36556e-05
3.70968e-05
0.000149366
0.000137648
0.000133712
0.000131659
0.000130902
0.000132473
0.000135614
0.00013918
0.000146383
0.000160621
3.3962e-05
8.27713e-05
0.000142229
0.000226802
0.000365385
0.00054249
0.000703209
0.000830203
0.000849866
0.00114601
2.78941e-09
1.46576e-15
5.83072e-26
2.23658e-26
1.48698e-26
1.4898e-26
1.92981e-26
2.73302e-26
3.78971e-26
5.01871e-26
7.05154e-26
1.20196e-25
2.00939e-25
3.27603e-25
0.000109445
9.21373e-05
0.000222087
0.000730943
0.000905429
0.000905477
0.000898835
0.000892047
0.000883538
0.000873452
0.000861956
0.000849279
0.000834759
0.000817467
0.000810051
0.000797854
0.000785378
0.00077314
0.000761335
0.000749823
0.000738352
0.000726149
0.000712926
0.000699471
0.000686495
0.000674056
0.000662309
0.00065094
0.000640242
0.000629871
0.000620104
0.000610044
0.000585955
0.000548701
0.000488766
0.000453736
0.000125565
0.0011422
0.0530157
6.53745e-05
7.64399e-05
7.22643e-05
6.81597e-05
7.12356e-05
7.64793e-05
8.33207e-05
8.97842e-05
9.51386e-05
9.90065e-05
0.000102696
0.000105743
0.000108425
0.000110942
0.000112876
0.000119906
0.000129311
0.000140687
0.000157314
0.000187328
2.78405e-05
0.000161582
0.000324254
0.00041255
0.000776823
1.11403e-08
6.27763e-15
1.18085e-25
3.67365e-26
2.01169e-26
1.68873e-26
1.87708e-26
2.37067e-26
3.06003e-26
3.86159e-26
5.17683e-26
8.19109e-26
1.27681e-25
1.82089e-25
0.000173306
0.000562204
0.0010982
0.00114666
0.00112229
0.00111967
0.00111539
0.00111247
0.00110973
0.00110685
0.00110144
0.00109419
0.00108341
0.00107021
0.00105603
0.00104298
0.00103062
0.00101854
0.00100632
0.000993512
0.000979602
0.000964274
0.000948031
0.00093184
0.000916299
0.000901339
0.000886961
0.000872881
0.000859602
0.000846616
0.000834411
0.000824166
0.000812465
0.000794335
0.000765319
0.000716526
0.000657429
2.85177e-05
0.000534936
0.0002656
0.000313974
0.000368792
0.000432963
0.000506242
0.000573728
0.000628325
0.000671748
0.000705338
0.000729803
0.000746964
0.000758007
0.000764888
0.00076797
0.000766454
0.000761566
0.000755709
0.000747935
0.000740138
0.00073698
0.000644113
0.000522018
0.000506457
0.000465053
0.000685868
5.88471e-08
3.53029e-14
2.50047e-25
6.41446e-26
2.93642e-26
2.09178e-26
2.01458e-26
2.2811e-26
2.74151e-26
3.31706e-26
4.22716e-26
6.19786e-26
9.0022e-26
1.17688e-25
0.000866025
0.00115493
0.000889288
0.000523658
0.00041699
0.000417545
0.000420417
0.000423255
0.000427631
0.000433676
0.00043711
0.000439539
0.000441335
0.000442988
0.000444358
0.000445179
0.000445245
0.000444404
0.000442479
0.000439299
0.000434892
0.000429585
0.000423675
0.000417647
0.000411894
0.000406291
0.000400883
0.00039565
0.00039087
0.000386498
0.000382512
0.000379949
0.000386199
0.000402744
0.000426431
0.000447736
0.000540144
5.04425e-05
0.000130177
0.00103872
0.000991391
0.0009901
0.0010102
0.00104434
0.00106727
0.00108511
0.00109693
0.00110483
0.00111013
0.00111384
0.00111567
0.00112163
0.00112887
0.00113267
0.00113534
0.00113815
0.00113477
0.00114356
0.00115247
0.00109588
0.000988023
0.000891964
0.000764037
0.000821009
3.78966e-07
3.13452e-18
1.5571e-20
1.18396e-25
4.58873e-26
2.80645e-26
2.36406e-26
2.41163e-26
2.69868e-26
3.13164e-26
3.79193e-26
5.13453e-26
8.14225e-26
1.0216e-25
0.00106192
0.000573756
0.000122379
8.86606e-05
6.13554e-05
6.33175e-05
6.44936e-05
6.43807e-05
6.44961e-05
6.51417e-05
6.4918e-05
6.47729e-05
6.51988e-05
6.57986e-05
6.67626e-05
6.81256e-05
6.96472e-05
7.1335e-05
7.30736e-05
7.47811e-05
7.64004e-05
7.7935e-05
7.93359e-05
8.05336e-05
8.14493e-05
8.21777e-05
8.28332e-05
8.34102e-05
8.39643e-05
8.45086e-05
8.49931e-05
8.57179e-05
8.8357e-05
9.36264e-05
8.98052e-06
5.88617e-05
0.000162757
0.000173147
4.14948e-06
0.000794917
0.000718859
0.000669859
0.000626621
0.000589734
0.000560038
0.000539338
0.000523058
0.000511916
0.000506651
0.000506825
0.000509252
0.000524752
0.000548852
0.000567208
0.000584679
0.000603412
0.000635306
0.000678082
0.000728466
0.000800827
0.000861171
0.0008689
0.000810918
0.000850943
1.9827e-06
9.00123e-17
3.85732e-19
2.30152e-25
7.63363e-26
4.04973e-26
3.00993e-26
2.77976e-26
2.89785e-26
3.21535e-26
3.71538e-26
5.92935e-26
6.92555e-25
1.20224e-23
0.00030627
0.000113063
2.70433e-05
3.06705e-05
3.28042e-05
3.37778e-05
3.40608e-05
3.35155e-05
3.28815e-05
3.23579e-05
3.14936e-05
3.06782e-05
3.01818e-05
2.97911e-05
2.96339e-05
2.97287e-05
2.9983e-05
3.03965e-05
3.09429e-05
3.15801e-05
3.22705e-05
3.30111e-05
3.37756e-05
3.44828e-05
3.50291e-05
3.54755e-05
3.58721e-05
3.62112e-05
3.65064e-05
3.67657e-05
3.69593e-05
3.70677e-05
3.65236e-05
3.37974e-05
3.13753e-05
3.70798e-05
5.56956e-05
5.92159e-05
3.34189e-06
0.000119529
0.000119287
4.1423e-05
9.26352e-05
8.41501e-05
8.13016e-05
7.75238e-05
7.54455e-05
7.41826e-05
7.3502e-05
7.4293e-05
7.55805e-05
7.90342e-05
8.42302e-05
8.88332e-05
9.36022e-05
0.000100231
1.4856e-05
4.07225e-05
8.05782e-05
0.000166413
0.000282201
0.000410743
0.000502098
0.000606343
6.79425e-06
1.02853e-15
3.84032e-18
4.70132e-25
1.34651e-25
6.25056e-26
4.1308e-26
3.47032e-26
3.3736e-26
3.57046e-26
4.01242e-26
4.59471e-24
7.77427e-19
3.97416e-17
5.48334e-05
3.85241e-05
6.76392e-05
0.000221328
0.000231575
0.000231596
0.000231483
0.000231035
0.000230249
0.000229379
0.000228245
0.000226843
0.000225399
0.00022394
0.000222432
0.000220912
0.00021939
0.000217841
0.000216269
0.000214666
0.000213038
0.000211392
0.000209716
0.000208038
0.000206363
0.000204594
0.000202718
0.000200707
0.000198646
0.000196602
0.000194397
0.000191955
0.000186388
0.000170096
0.000145486
0.000114065
7.48569e-05
8.48236e-05
8.83954e-06
2.63145e-05
3.09298e-05
2.79409e-05
2.59282e-05
3.04036e-05
3.47528e-05
3.52053e-05
3.57038e-05
3.6702e-05
3.75009e-05
3.84946e-05
3.93917e-05
4.01964e-05
4.10295e-05
4.17528e-05
4.24392e-05
4.31146e-05
4.61997e-05
5.12045e-05
5.86213e-05
7.07696e-05
8.84445e-05
0.000109899
7.47273e-05
0.000201493
1.33491e-05
6.94537e-15
2.2776e-17
1.00787e-24
2.51168e-25
1.02763e-25
6.07801e-26
4.66428e-26
4.23413e-26
4.26943e-26
1.11313e-25
2.0544e-19
4.331e-17
1.67685e-16
8.48781e-05
0.000248032
0.000561695
0.000639929
0.000640599
0.000635875
0.000632312
0.000630423
0.00062931
0.000628551
0.000627833
0.000626929
0.000625946
0.000624804
0.000623359
0.000621622
0.000619577
0.000617169
0.000614382
0.000611165
0.000607536
0.00060351
0.000599058
0.000594278
0.000589295
0.000583985
0.000578393
0.000572495
0.000566507
0.000560665
0.000554486
0.000548224
0.000541314
0.000524042
0.00049554
0.000453944
0.000388912
0.000314551
0.000222617
8.04402e-05
0.000112785
0.000157344
0.000193316
0.000223667
0.000251652
0.000258437
0.000262161
0.000269607
0.000277082
0.000283515
0.000288614
0.000292339
0.000294683
0.000295691
0.000295749
0.000295264
0.000294297
0.000292871
0.00029015
0.000264078
0.000235734
0.000176147
0.000137295
0.000146511
2.99394e-05
5.82205e-14
1.68809e-16
2.26631e-24
4.94599e-25
1.79409e-25
9.54712e-26
6.71444e-26
5.6979e-26
5.46994e-26
9.33658e-26
2.88765e-20
3.51371e-17
2.70547e-17
0.000437973
0.000680672
0.000603997
0.000491963
0.000484471
0.000479882
0.000476129
0.000474439
0.00047401
0.000474117
0.000474719
0.000475533
0.000476282
0.00047692
0.00047733
0.000477423
0.000477169
0.000476545
0.000475493
0.000473961
0.000471936
0.000469434
0.000466407
0.000462957
0.00045932
0.000455508
0.000451523
0.000447357
0.00044314
0.000439069
0.000434997
0.000430863
0.00042862
0.000431184
0.000434121
0.000433638
0.000420862
0.000383179
0.00031087
0.000579978
0.000569109
0.000599025
0.000629973
0.000653072
0.00067647
0.000677617
0.000675559
0.000686228
0.000694093
0.000699742
0.000703818
0.000706759
0.000708549
0.000709144
0.000709204
0.000709205
0.000708538
0.000706885
0.00070343
0.000689965
0.000632998
0.000571184
0.00049718
0.000383277
0.000110757
7.77294e-13
2.00393e-15
5.34426e-24
1.02691e-24
3.31828e-25
1.59532e-25
1.03066e-25
8.17944e-26
7.46345e-26
1.00829e-25
6.47719e-21
1.95581e-19
1.03739e-16
0.000707101
0.00045681
0.00019052
8.36893e-05
7.91284e-05
7.9413e-05
7.84419e-05
7.72379e-05
7.65121e-05
7.6213e-05
7.6169e-05
7.63243e-05
7.66317e-05
7.70646e-05
7.7578e-05
7.81514e-05
7.87592e-05
7.93853e-05
7.99978e-05
8.0576e-05
8.11015e-05
8.15673e-05
8.1979e-05
8.2376e-05
8.27953e-05
8.32024e-05
8.35704e-05
8.38946e-05
8.41868e-05
8.44662e-05
8.47668e-05
8.47751e-05
8.54726e-05
9.89158e-05
0.000124973
0.000162206
0.000210721
0.000256689
0.000259112
0.000582869
0.000525513
0.000499759
0.000486086
0.000473416
0.000460614
0.000458192
0.000453823
0.00045005
0.000447335
0.000445634
0.000445134
0.000445951
0.000447885
0.000450799
0.000454975
0.000460742
0.000467675
0.000475301
0.000487292
0.000511922
0.000534917
0.000541295
0.00053512
0.000491806
0.000273005
8.98731e-12
2.06977e-14
1.32141e-23
2.24605e-24
6.48931e-25
2.82744e-25
1.68045e-25
1.24678e-25
1.07903e-25
1.22507e-25
1.90099e-21
2.2317e-15
1.68848e-16
0.000271213
1.26026e-05
3.01367e-05
1.26559e-05
1.22075e-05
1.25843e-05
1.2515e-05
1.21212e-05
1.17883e-05
1.15609e-05
1.12408e-05
1.0964e-05
1.082e-05
1.07259e-05
1.07303e-05
1.08622e-05
1.10726e-05
1.13749e-05
1.17537e-05
1.2197e-05
1.26854e-05
1.32149e-05
1.37776e-05
1.43248e-05
1.48059e-05
1.52503e-05
1.56883e-05
1.61171e-05
1.65354e-05
1.69435e-05
1.7349e-05
1.76844e-05
1.81579e-05
2.1378e-05
2.74506e-05
3.61889e-05
3.74756e-07
7.4589e-05
0.000143394
0.00013282
0.000137039
9.68854e-05
7.20388e-05
5.45812e-05
4.07439e-05
3.05543e-05
2.3805e-05
1.90574e-05
1.58746e-05
1.41988e-05
1.39423e-05
1.50089e-05
1.73302e-05
2.08792e-05
2.56532e-05
3.17958e-05
3.94109e-05
4.81719e-05
5.84228e-05
8.47977e-05
0.000139539
0.000205605
0.000279941
0.000324149
0.000335923
8.19478e-11
1.69238e-13
3.42493e-23
5.16965e-24
1.33941e-24
5.30088e-25
2.90017e-25
2.00987e-25
1.64543e-25
1.65665e-25
6.927e-22
3.02722e-17
6.08453e-17
5.24292e-05
5.28526e-06
2.76974e-05
3.42895e-05
3.58825e-05
3.72707e-05
3.7828e-05
3.72734e-05
3.64984e-05
3.57598e-05
3.45542e-05
3.33505e-05
3.25062e-05
3.17479e-05
3.12589e-05
3.11429e-05
3.12387e-05
3.15962e-05
3.21873e-05
3.29518e-05
3.38513e-05
3.48641e-05
3.59785e-05
3.70104e-05
3.77836e-05
3.84152e-05
3.9019e-05
3.95897e-05
4.01241e-05
4.06291e-05
4.11088e-05
4.15512e-05
4.19709e-05
4.13145e-05
3.86563e-05
3.34254e-05
2.6008e-05
3.5977e-05
3.49025e-05
1.83524e-05
1.92164e-05
1.45214e-05
1.03808e-05
7.95995e-06
6.02558e-06
4.46503e-06
4.25908e-06
4.20937e-06
4.20612e-06
4.35299e-06
4.62968e-06
5.04071e-06
5.59985e-06
6.28887e-06
7.14304e-06
8.21345e-06
9.5436e-06
1.11039e-05
1.29148e-05
1.71078e-05
2.48358e-05
3.52889e-05
4.85672e-06
6.40183e-05
0.00019813
5.37722e-10
9.99518e-13
9.30246e-23
1.25101e-23
2.9127e-24
1.04859e-24
5.28119e-25
3.41355e-25
2.63543e-25
2.41839e-25
2.95678e-22
8.83788e-18
1.29058e-16
2.45868e-05
2.68931e-05
0.000189833
0.00023448
0.000240847
0.00024379
0.000246171
0.000247309
0.000247534
0.00024732
0.000247006
0.000246614
0.000246182
0.000245761
0.000245298
0.000244769
0.000244177
0.000243494
0.000242698
0.000241767
0.000240703
0.000239515
0.000238197
0.00023678
0.000235339
0.000233838
0.000232248
0.000230584
0.000228844
0.000227081
0.000225342
0.000223608
0.000221959
0.000214876
0.000197879
0.000168514
0.000128825
8.75355e-05
7.32539e-05
5.27091e-05
3.45177e-05
3.90859e-05
3.91013e-05
4.06705e-05
4.216e-05
1.46854e-07
5.804e-06
1.0501e-05
1.40975e-05
1.6932e-05
1.91919e-05
2.09695e-05
2.22566e-05
2.30246e-05
2.34123e-05
2.3584e-05
2.36548e-05
2.36984e-05
2.34331e-05
2.10483e-05
1.00789e-05
4.23002e-05
3.61654e-05
4.63086e-05
7.3676e-05
3.20657e-09
5.54516e-12
2.64656e-22
3.17905e-23
6.66326e-24
2.18368e-24
1.01183e-24
6.08598e-25
4.41663e-25
3.74898e-25
1.42972e-22
8.15154e-19
2.21898e-17
0.000163843
0.000340871
0.00040202
0.000392247
0.000390817
0.000388157
0.000386875
0.000386331
0.000385942
0.000385627
0.000385522
0.000385547
0.000385622
0.000385743
0.000385839
0.000385851
0.000385769
0.000385553
0.00038516
0.00038455
0.000383722
0.000382692
0.000381431
0.000379935
0.000378311
0.00037654
0.00037457
0.000372411
0.000370066
0.000367587
0.000365059
0.000362577
0.000360696
0.00035718
0.000347067
0.00032764
0.000294262
0.00023606
0.000173344
0.000255702
0.000254715
0.000269816
0.000281544
0.000289815
0.000296422
0.000301387
0.000305115
0.000308193
0.000310681
0.000312598
0.000315005
0.0003172
0.000318163
0.000318151
0.00031788
0.000317683
0.000317419
0.00031689
0.000316337
0.000316387
0.000300719
0.00026844
0.000227099
0.000184354
0.000170604
6.16248e-08
3.23932e-12
1.28405e-14
8.47653e-23
1.60161e-23
4.77691e-24
2.03462e-24
1.13588e-24
7.72194e-25
6.0991e-25
7.65591e-23
1.42433e-19
3.72511e-18
0.000430153
0.000371282
0.000239858
0.000197061
0.000189595
0.000184888
0.000181886
0.000180746
0.000180484
0.000180636
0.000181006
0.00018149
0.000181985
0.000182463
0.000182905
0.000183282
0.000183594
0.000183825
0.000183954
0.000183959
0.000183855
0.000183661
0.000183366
0.000182972
0.000182561
0.000182103
0.000181568
0.000180988
0.000180316
0.000179536
0.000178738
0.000177941
0.000177547
0.000181487
0.000191822
0.000205848
0.000217911
0.000218474
0.000191584
0.00042083
0.000389291
0.000386434
0.000385244
0.00038223
0.000378896
0.000376219
0.000373845
0.000372091
0.000370983
0.00036977
0.000370708
0.000372368
0.000371985
0.000371258
0.000371287
0.000371917
0.000372738
0.000373382
0.000374268
0.000378369
0.000380079
0.000369237
0.000351349
0.000316686
0.000276506
9.33963e-07
2.02644e-10
7.34938e-13
2.37079e-22
4.04005e-23
1.09642e-23
4.28537e-24
2.21417e-24
1.40507e-24
1.03394e-24
4.49067e-23
3.01813e-20
7.52404e-19
0.000287852
0.000116681
4.98967e-05
3.05459e-05
2.9893e-05
2.98653e-05
2.94958e-05
2.872e-05
2.8021e-05
2.74567e-05
2.65379e-05
2.56163e-05
2.49596e-05
2.43356e-05
2.39165e-05
2.37979e-05
2.38611e-05
2.41635e-05
2.46793e-05
2.5375e-05
2.62177e-05
2.72039e-05
2.83172e-05
2.93767e-05
3.02034e-05
3.09101e-05
3.16119e-05
3.2306e-05
3.29807e-05
3.3618e-05
3.4231e-05
3.48272e-05
3.54868e-05
3.70061e-05
4.08887e-05
2.07941e-05
5.83527e-05
0.000104005
0.000128864
0.000181901
0.000179348
0.000161124
0.000149484
0.000139881
0.000131612
0.000125312
0.000120401
0.000116651
0.000113955
0.000111269
0.000110884
0.000112282
0.000110993
0.000110161
0.000111608
0.000113474
0.000115667
0.000118182
0.000122605
0.000127819
0.000142319
0.00016838
0.00019682
0.000214202
0.000225036
5.63577e-06
3.62199e-09
1.20293e-11
6.94873e-22
1.06899e-22
2.63685e-23
9.44309e-24
4.50309e-24
2.65651e-24
1.81959e-24
2.9036e-23
7.39241e-21
2.77658e-17
1.60126e-05
1.82633e-05
3.91005e-07
3.20651e-06
3.42617e-06
3.66572e-06
3.76544e-06
3.53268e-06
3.22115e-06
2.95397e-06
2.70051e-06
2.48803e-06
2.33898e-06
2.21576e-06
2.12485e-06
2.07504e-06
2.04976e-06
2.05357e-06
2.08223e-06
2.13459e-06
2.20454e-06
2.29313e-06
2.40122e-06
2.51255e-06
2.60152e-06
2.67377e-06
2.743e-06
2.81087e-06
2.87766e-06
2.94242e-06
3.00605e-06
3.06837e-06
3.10812e-06
2.91506e-06
1.90556e-06
4.6386e-06
1.24534e-05
2.43185e-05
4.20338e-05
2.57257e-05
2.57026e-05
2.46681e-05
2.19294e-05
2.07153e-05
1.97234e-05
1.84096e-05
1.76007e-05
1.69592e-05
1.63532e-05
1.5912e-05
1.58122e-05
1.59927e-05
1.58839e-05
1.58647e-05
1.62306e-05
1.66964e-05
1.72489e-05
1.78768e-05
1.88197e-05
1.98964e-05
2.24268e-05
2.8053e-05
1.29024e-05
5.29028e-05
9.06839e-05
1.64831e-05
3.70144e-08
1.12856e-10
2.13247e-21
2.96407e-22
6.64247e-23
2.17534e-23
9.54509e-24
5.21668e-24
3.318e-24
2.13471e-23
2.12909e-21
2.23022e-18
3.41849e-06
1.63183e-05
2.60569e-06
2.1349e-05
2.24321e-05
2.3442e-05
2.40213e-05
2.30594e-05
2.15847e-05
2.02869e-05
1.93147e-05
1.8583e-05
1.80786e-05
1.77217e-05
1.74464e-05
1.72554e-05
1.71249e-05
1.70416e-05
1.69949e-05
1.69875e-05
1.70009e-05
1.70366e-05
1.71111e-05
1.72219e-05
1.73301e-05
1.73939e-05
1.7429e-05
1.74495e-05
1.74595e-05
1.74583e-05
1.74542e-05
1.74454e-05
1.73152e-05
1.5926e-05
1.02155e-05
1.47252e-06
2.57857e-05
1.99923e-05
3.36978e-06
1.066e-05
8.74912e-06
9.67571e-06
9.67739e-06
1.02072e-05
1.07818e-05
1.09194e-05
1.11592e-05
1.13531e-05
1.14051e-05
1.15304e-05
1.16342e-05
1.17258e-05
1.18638e-05
1.19976e-05
1.21544e-05
1.2324e-05
1.24958e-05
1.26572e-05
1.28073e-05
1.28981e-05
1.22778e-05
1.0494e-05
1.0157e-05
1.45896e-05
2.16137e-05
1.36028e-05
1.76072e-07
3.04209e-12
1.69834e-14
8.6042e-22
1.75037e-22
5.23564e-23
2.10806e-23
1.06365e-23
6.26578e-24
1.88137e-23
7.59671e-22
3.5036e-19
8.67165e-06
0.000117725
0.000182751
0.000192979
0.000193307
0.000193262
0.00019361
0.000192301
0.000190341
0.000188849
0.000188045
0.000187672
0.000187538
0.000187514
0.000187508
0.000187507
0.000187497
0.000187455
0.000187379
0.000187264
0.000187117
0.000186943
0.000186757
0.000186546
0.000186292
0.000185971
0.000185564
0.000185088
0.000184538
0.000183885
0.00018315
0.00018234
0.000181491
0.000180271
0.000172884
0.000158323
0.000134194
0.000101683
7.44243e-05
7.08502e-05
6.31019e-05
6.53542e-05
6.8348e-05
7.15115e-05
7.47724e-05
7.74562e-05
7.97611e-05
8.18127e-05
8.35268e-05
8.49861e-05
8.62293e-05
8.72551e-05
8.80918e-05
8.87596e-05
8.92979e-05
8.97435e-05
9.00613e-05
9.02124e-05
9.02347e-05
8.99019e-05
8.48514e-05
7.20524e-05
5.54843e-05
4.12465e-05
2.34447e-05
1.76946e-05
1.07019e-06
2.55822e-09
1.56869e-11
2.61096e-21
4.82058e-22
1.31481e-22
4.84952e-23
2.25167e-23
1.22516e-23
2.05773e-23
3.50467e-22
7.45924e-20
0.000209854
0.000239769
0.000211405
0.000202609
0.000201508
0.000200217
0.000200492
0.000200477
0.00019986
0.000199544
0.000199704
0.000200102
0.000200521
0.000200891
0.000201208
0.000201134
0.000200903
0.000200595
0.000200261
0.000199914
0.000199569
0.000199234
0.000198893
0.000198497
0.000198057
0.000197587
0.000197066
0.00019649
0.00019586
0.000195142
0.000194358
0.000193522
0.000192645
0.00019298
0.00019345
0.000190765
0.000180942
0.000159944
0.000128216
0.000239763
0.000217559
0.000213968
0.000214446
0.000214856
0.00021549
0.00021621
0.000216934
0.000217828
0.000218727
0.000219579
0.000220387
0.000221069
0.000221625
0.000222083
0.000222519
0.000223
0.000223419
0.000223628
0.000223665
0.00022375
0.000221695
0.000212181
0.000195812
0.000173494
0.000145819
0.000111704
1.14344e-05
7.69364e-08
5.17933e-11
4.29622e-13
1.38531e-21
3.44138e-22
1.16037e-22
4.94662e-23
2.47952e-23
2.73976e-23
2.09741e-22
2.08291e-20
0.0002347
0.000132614
5.59917e-05
4.12454e-05
4.03898e-05
3.96375e-05
3.98072e-05
4.07969e-05
4.13464e-05
4.17287e-05
4.20874e-05
4.23666e-05
4.25121e-05
4.2579e-05
4.26498e-05
4.31762e-05
4.43337e-05
4.56374e-05
4.69224e-05
4.81538e-05
4.93175e-05
5.04299e-05
5.14899e-05
5.24425e-05
5.32389e-05
5.3909e-05
5.4468e-05
5.49131e-05
5.52628e-05
5.55116e-05
5.56784e-05
5.57425e-05
5.56114e-05
5.74434e-05
6.46483e-05
7.43634e-05
8.99853e-05
0.000105274
0.000102994
0.000188285
0.00017871
0.000171056
0.000166328
0.000162057
0.000158139
0.000155377
0.00015333
0.000151905
0.000151026
0.000150443
0.000150061
0.00014982
0.000149656
0.00014958
0.000149646
0.000149891
0.000150257
0.000150654
0.000151078
0.000152048
0.000155874
0.000162295
0.000166629
0.000165388
0.000160982
0.000146579
4.77355e-05
8.79536e-07
2.22768e-09
1.72122e-11
4.14328e-21
9.36802e-22
2.88424e-22
1.1263e-22
5.18932e-23
4.24122e-23
1.60719e-22
7.50927e-21
7.80375e-05
2.77433e-05
8.89621e-06
6.55581e-06
6.52623e-06
6.55678e-06
6.60148e-06
6.61198e-06
6.52362e-06
6.41588e-06
6.19598e-06
5.9433e-06
5.72915e-06
5.50171e-06
5.32023e-06
5.27284e-06
5.34491e-06
5.50275e-06
5.72889e-06
6.01984e-06
6.36622e-06
6.77805e-06
7.25383e-06
7.71978e-06
8.08275e-06
8.38938e-06
8.69239e-06
8.9872e-06
9.27507e-06
9.55149e-06
9.81845e-06
1.00702e-05
1.02867e-05
1.08756e-05
1.25222e-05
1.47319e-05
1.94419e-05
2.29739e-05
4.7472e-05
3.33579e-05
3.93742e-05
3.16021e-05
2.68851e-05
2.3457e-05
2.04825e-05
1.81308e-05
1.64043e-05
1.50807e-05
1.40895e-05
1.33291e-05
1.27336e-05
1.2285e-05
1.19708e-05
1.17842e-05
1.17384e-05
1.18458e-05
1.21108e-05
1.25394e-05
1.30723e-05
1.35566e-05
1.63798e-05
2.84701e-05
4.54143e-05
6.35509e-05
8.23874e-05
9.59402e-05
7.3825e-05
4.56679e-06
3.53498e-08
2.81676e-10
1.28731e-20
2.6461e-21
7.43117e-22
2.65375e-22
1.12188e-22
7.31867e-23
1.55477e-22
3.46584e-21
1.48639e-05
4.12271e-06
7.45734e-06
7.672e-06
7.6418e-06
7.80773e-06
7.82384e-06
7.62948e-06
7.42036e-06
7.22725e-06
6.91469e-06
6.58056e-06
6.30941e-06
6.03005e-06
5.79934e-06
5.53595e-06
5.37225e-06
5.30388e-06
5.31952e-06
5.40692e-06
5.55245e-06
5.7578e-06
6.01785e-06
6.26968e-06
6.44065e-06
6.5729e-06
6.71182e-06