/*--------------------------------*- C++ -*----------------------------------*\
| =========                 |                                                 |
| \\      /  F ield         | OpenFOAM: The Open Source CFD Toolbox           |
|  \\    /   O peration     | Version:  2312                                  |
|   \\  /    A nd           | Website:  www.openfoam.com                      |
|    \\/     M anipulation  |                                                 |
\*---------------------------------------------------------------------------*/
FoamFile
{
    version     2.0;
    format      ascii;
    arch        "LSB;label=32;scalar=64";
    class       volScalarField;
    location    "250";
    object      p;
}
// * * * * * * * * * * * * * * * * * * * * * * * * * * * * * * * * * * * * * //

dimensions      [0 2 -2 0 0 0 0];

internalField   nonuniform List<scalar> 
10720
(
-8.35971
-75.8539
-155.672
-235.398
-310.323
-387.243
-456.477
-515.706
-567.989
-610.006
-643.306
-668.823
-687.44
-700.367
-707.786
-709.215
-705.52
-695.731
-681.081
-660.65
-635.487
-604.159
-565.573
-518.283
-465.266
-423.268
-395.109
-345.197
-288.034
-252.558
-223.376
-186.42
-141.927
-90.524
-65.2689
-86.3778
-120.277
-126.023
-48.5463
58.2577
118.568
181.543
239.244
287.164
321.188
338.018
341.327
334.482
316.6
292.699
267.764
243.413
220.245
198.847
178.859
160.225
142.475
125.34
108.269
91.1853
73.7674
56.1653
38.8581
23.7442
12.0332
2.65779
-4.88416
-10.6556
-14.5475
-16.6436
-17.1568
-16.2116
-13.9575
-10.5978
-5.90516
1.83643
14.1925
36.7478
80.1802
29.1809
-28.4539
-90.2961
-154.407
-220.518
-285.249
-346.553
-403.687
-454.908
-499.775
-538.246
-570.393
-596.174
-615.517
-627.93
-633.986
-633.567
-627.474
-615.386
-597.579
-572.287
-537.649
-492.59
-443.911
-401.592
-364.252
-330.617
-298.221
-263.686
-227.033
-187.023
-142.203
-91.092
-65.5905
-86.6194
-120.633
-127.395
-50.1216
125.758
168.901
211.45
251.785
286.399
312.628
327.591
331.835
326.241
311.818
292.249
270.639
248.457
226.516
205.467
185.418
166.41
148.205
130.569
113.154
95.8481
78.4168
60.9389
43.914
28.8846
16.7766
6.85237
-1.22558
-7.4433
-11.7215
-14.169
-15.0244
-14.4063
-12.4462
-9.35442
-4.47165
3.35968
16.4466
37.9974
90.2383
44.4763
-7.48785
-65.2506
-125.633
-188.033
-250.906
-311.711
-368.897
-421.419
-468.008
-508.258
-541.723
-568.229
-588.091
-601.544
-608.769
-609.672
-604.595
-593.472
-576.353
-552.273
-520.256
-479.42
-434.637
-393.898
-357.524
-327.539
-297.123
-262.207
-225.084
-185.33
-141.906
-92.949
-67.1384
-86.9457
-120.599
-128.458
-52.5071
131.201
170.571
209.264
245.339
275.728
298.779
312.79
317.888
314.419
303.351
287.079
267.879
247.311
226.405
205.904
186.145
167.236
149.079
131.491
114.192
97.0244
79.8457
62.7293
46.0497
31.0484
18.6526
8.47651
0.203328
-6.17717
-10.6076
-13.2045
-14.1981
-13.6947
-11.8269
-8.72245
-3.8839
3.99523
17.1456
38.9114
106.696
68.3207
24.1794
-24.7114
-76.387
-130.83
-186.457
-241.575
-294.904
-345.295
-391.624
-433.172
-469.367
-499.933
-524.681
-543.732
-556.82
-563.604
-564.092
-558.23
-545.939
-526.6
-499.537
-464.531
-425.431
-388.157
-354.909
-325.056
-293.898
-259.499
-223.179
-184.18
-141.925
-95.3605
-69.6251
-87.5384
-120.155
-128.903
-54.2743
140.841
173.354
205.622
236.28
262.48
282.918
296.208
302.019
300.414
292.205
279.076
262.779
244.658
225.695
206.611
187.819
169.509
151.707
134.315
117.151
100.098
83.0757
66.1514
49.6987
34.7388
22.1412
11.7313
3.21627
-3.4312
-8.15046
-11.0462
-12.3258
-12.0895
-10.4548
-7.52941
-2.80397
4.87824
17.9286
40.3046
109.39
75.2789
35.8599
-8.08021
-54.6284
-104.221
-155.556
-207.102
-257.89
-306.784
-352.652
-394.691
-432.191
-464.593
-491.503
-512.709
-527.742
-536.523
-538.926
-535.013
-524.724
-507.679
-483.396
-451.829
-415.91
-380.845
-349.15
-319.695
-289.167
-255.984
-220.743
-182.766
-141.771
-97.5339
-72.257
-88.1668
-118.855
-127.571
-53.163
139.814
168.635
197.34
224.647
248.053
266.658
279.393
285.743
285.659
279.821
269.418
255.778
239.986
222.923
205.284
187.52
169.903
152.555
135.468
118.554
101.734
84.9708
68.3493
52.2113
37.3849
24.6642
14.0473
5.30817
-1.57728
-6.54248
-9.66682
-11.1549
-11.0996
-9.61203
-6.77705
-2.10131
5.50027
18.505
40.393
110.03
79.8286
44.7675
5.72001
-35.6314
-79.998
-126.176
-172.947
-219.607
-265.128
-308.56
-349.142
-386.123
-418.858
-446.85
-469.699
-487.035
-498.66
-504.317
-503.868
-497.138
-483.777
-463.396
-436.085
-404.179
-371.98
-341.908
-313.387
-283.963
-252.023
-217.84
-180.969
-141.429
-99.4963
-74.908
-88.5928
-116.744
-123.722
-49.3043
136.981
162.43
187.98
212.481
233.627
250.768
263.015
269.732
270.821
266.869
258.748
247.484
233.939
218.86
202.875
186.42
169.795
153.181
136.64
120.154
103.696
87.2694
70.9776
55.1419
40.4614
27.6597
16.8663
7.93257
0.834347
-4.36069
-7.71672
-9.43814
-9.60812
-8.32357
-5.64324
-1.07656
6.37915
19.1698
39.3162
107.561
80.3199
48.6227
13.3011
-24.0176
-64.2584
-106.357
-149.248
-192.466
-235.102
-276.339
-315.502
-351.832
-384.653
-413.387
-437.511
-456.551
-470.065
-477.735
-479.369
-474.837
-463.916
-446.346
-422.315
-393.667
-363.862
-335.234
-307.649
-279.158
-248.255
-215.065
-179.298
-141.217
-101.465
-77.5925
-88.8157
-113.957
-118.127
-44.6927
131.899
154.818
177.962
200.267
219.613
235.584
247.38
254.308
256.304
253.844
247.604
238.391
226.884
213.694
199.361
184.278
168.742
152.97
137.076
121.103
105.075
89.0365
73.1101
57.6015
43.1106
30.2941
19.3725
10.2728
2.97797
-2.44146
-6.03221
-7.98258
-8.36466
-7.26019
-4.70863
-0.229456
7.0802
19.6476
38.1249
103.87
79.149
50.3336
18.2568
-15.5308
-52.068
-90.3774
-129.53
-169.225
-208.69
-247.222
-284.257
-319.101
-351.094
-379.623
-404.113
-424
-438.851
-448.331
-452.179
-450.178
-442.081
-427.642
-407.045
-381.744
-354.548
-327.665
-301.267
-273.854
-244.126
-212.083
-177.528
-140.956
-103.33
-80.1815
-88.8847
-110.661
-111.71
-40.2272
125.996
146.796
167.927
188.404
206.259
221.245
232.608
239.639
242.316
241.025
236.314
228.839
219.138
207.702
194.982
181.309
166.961
152.162
137.054
121.723
106.235
90.6698
75.168
60.0227
45.7656
32.994
21.9908
12.7567
5.2898
-0.335072
-4.14485
-6.3152
-6.91041
-5.99866
-3.59906
0.760511
7.89735
20.1689
37.3415
99.3126
76.6837
50.2827
20.9206
-9.90229
-43.281
-78.3319
-114.216
-150.768
-187.318
-223.278
-258.193
-291.438
-322.393
-350.464
-375.043
-395.533
-411.448
-422.359
-427.924
-427.878
-422.012
-410.129
-392.415
-370.029
-345.236
-320.033
-294.806
-268.463
-239.911
-209.031
-175.703
-140.611
-105.004
-82.5711
-88.8122
-107.086
-105.069
-36.0834
119.601
138.651
158.107
177.049
193.643
207.778
218.726
225.786
228.962
228.585
225.113
219.093
210.96
201.108
189.904
177.615
164.486
150.725
136.483
121.876
107.001
91.969
76.9341
62.1825
48.1949
35.5194
24.4793
15.1416
7.5248
1.70943
-2.31274
-4.70145
-5.51009
-4.78957
-2.54065
1.69767
8.657
20.6104
36.8493
94.3517
73.5155
49.1946
22.1834
-6.07329
-36.6904
-68.8459
-101.781
-135.427
-169.195
-202.603
-235.288
-266.694
-296.279
-323.471
-347.664
-368.262
-384.737
-396.657
-403.664
-405.427
-401.719
-392.328
-377.392
-357.828
-335.44
-312.005
-288.065
-262.877
-235.544
-205.871
-173.809
-140.188
-106.479
-84.7304
-88.6017
-103.391
-98.4562
-32.2222
113.07
130.628
148.654
166.279
181.789
195.167
205.717
212.746
216.282
216.617
214.146
209.334
202.547
194.1
184.291
173.328
161.412
148.727
135.417
121.61
107.425
92.9906
78.4759
64.1592
50.4848
37.9614
26.9362
17.5332
9.79579
3.81181
-0.407823
-3.00469
-4.02212
-3.49509
-1.40648
2.69297
9.45546
21.0561
36.5168
89.2083
69.9194
47.4
22.4262
-3.60154
-31.8072
-61.4181
-91.7419
-122.764
-153.976
-184.985
-215.506
-245.054
-273.153
-299.282
-322.866
-343.316
-360.105
-372.759
-380.917
-384.175
-382.293
-375.06
-362.57
-345.544
-325.417
-303.733
-281.122
-257.124
-231.028
-202.594
-171.831
-139.675
-107.755
-86.6468
-88.2664
-99.6687
-92.0111
-28.6797
106.569
122.844
139.631
156.11
170.675
183.371
193.531
200.491
204.279
205.169
203.502
199.692
194.05
186.834
178.287
168.565
157.824
146.217
133.873
120.917
107.477
93.6957
79.7462
65.9004
52.5787
40.2567
29.2944
19.8628
12.0324
5.90022
1.4963
-1.30187
-2.52529
-2.19221
-0.268076
3.68261
10.239
21.4649
36.2645
84.0456
66.113
45.1763
21.9936
-2.0796
-28.1579
-55.509
-83.4927
-112.142
-141.004
-169.755
-198.183
-225.865
-252.396
-277.306
-300.058
-320.098
-336.906
-349.998
-359.021
-363.539
-363.275
-357.999
-347.75
-333.08
-315.122
-295.196
-273.965
-251.201
-226.367
-199.204
-169.766
-139.06
-108.825
-88.312
-87.8225
-95.9753
-85.8736
-25.607
100.221
115.374
131.074
146.539
160.27
172.34
182.121
188.982
192.939
194.256
193.238
190.254
185.581
179.434
172.014
163.433
153.808
143.258
131.89
119.818
107.169
94.0872
80.7462
67.4109
54.4825
42.4116
31.5624
22.1432
14.252
7.99678
3.42648
0.43903
-0.98389
-0.844193
0.909415
4.69722
11.0342
21.851
36.0252
78.9631
62.2278
42.6934
21.0967
-1.24863
-25.4393
-50.779
-76.667
-103.173
-129.894
-156.555
-183.003
-208.873
-233.823
-257.44
-279.236
-298.694
-315.319
-328.632
-338.282
-343.824
-344.93
-341.359
-333.098
-320.564
-304.642
-286.44
-266.616
-245.116
-221.562
-195.694
-167.601
-138.329
-109.684
-89.723
-87.2805
-92.3482
-80.148
-23.0874
94.0862
108.254
122.985
137.546
150.529
162.025
171.439
178.174
182.237
183.881
183.384
181.082
177.225
172.002
165.575
158.03
149.448
139.915
129.513
118.338
106.507
94.1596
81.464
68.6755
56.179
44.4048
33.7164
24.3503
16.4308
10.0781
5.35975
2.19495
0.578883
0.526319
2.10478
5.71811
11.8245
22.2017
35.7373
74.0239
58.3552
40.0738
19.8938
-0.91118
-23.4162
-46.9562
-70.9608
-95.5306
-120.299
-145.03
-169.617
-193.75
-217.138
-239.427
-260.181
-278.921
-295.189
-308.524
-318.577
-324.925
-327.188
-325.105
-318.616
-308.022
-294.009
-277.49
-259.086
-238.875
-216.615
-192.06
-165.325
-137.468
-110.322
-90.8777
-86.6419
-88.8166
-74.8663
-21.0438
88.2074
101.495
115.361
129.106
141.41
152.374
161.434
168.025
172.143
174.036
173.957
172.216
169.046
164.615
159.061
152.446
144.823
136.253
126.79
116.508
105.508
93.92
81.9
69.691
57.6626
46.2283
35.7475
26.4763
18.5629
12.1407
7.29547
3.96803
2.16751
1.92533
3.32426
6.75078
12.6131
22.5204
35.3803
69.266
54.5565
37.4024
18.4972
-0.926981
-21.9187
-43.8379
-66.147
-88.9618
-111.946
-134.902
-157.757
-180.244
-202.124
-223.087
-242.751
-260.685
-276.468
-289.672
-299.946
-306.902
-310.114
-309.305
-304.372
-295.524
-283.281
-268.384
-251.398
-232.488
-211.529
-188.298
-162.928
-136.465
-110.733
-91.7737
-85.9038
-85.408
-70.0078
-19.3266
82.605
95.1011
108.183
121.189
132.871
143.337
152.057
158.488
162.625
164.701
164.957
163.678
161.087
157.334
152.542
146.757
140.009
132.337
123.771
114.363
104.194
93.3784
82.0565
70.454
58.9256
47.871
37.6416
28.5067
20.6346
14.1719
9.22218
5.74805
3.77277
3.34453
4.56026
7.78868
13.3934
22.8049
34.9576
64.7124
50.8726
34.7395
16.9891
-1.18986
-20.8132
-41.2667
-62.0416
-83.2626
-104.62
-125.945
-147.193
-168.133
-188.565
-208.23
-226.789
-243.86
-259.064
-272.007
-282.348
-289.731
-293.709
-293.977
-290.401
-283.112
-272.503
-259.157
-243.571
-225.966
-206.309
-184.406
-160.401
-135.308
-110.912
-92.4104
-85.0648
-82.1465
-65.5398
-17.8432
77.2865
89.0658
101.434
113.762
124.87
134.87
143.263
149.525
153.648
155.859
156.382
155.484
153.378
150.205
146.076
141.024
135.068
128.224
120.505
111.94
102.591
92.5491
81.9384
70.9641
59.965
49.3256
39.3886
30.4301
22.635
16.1621
11.1321
7.52915
5.3905
4.7813
5.81092
8.83042
14.1634
23.0573
34.4778
60.3765
47.3285
32.1257
15.428
-1.62175
-20.0016
-39.1255
-58.5058
-78.2756
-98.1488
-117.978
-137.735
-157.227
-176.286
-194.695
-212.157
-228.338
-242.898
-255.481
-265.762
-273.416
-277.989
-279.154
-276.747
-270.842
-261.725
-249.849
-235.632
-219.322
-200.959
-180.381
-157.735
-133.986
-110.855
-92.7892
-84.1279
-79.0454
-61.4437
-16.5824
72.2516
83.3778
95.0893
106.794
117.371
126.93
135.009
141.097
145.182
147.488
148.221
147.636
145.938
143.261
139.707
135.302
130.056
123.971
117.042
109.28
100.727
91.4516
81.5565
71.2252
60.7781
50.5853
40.9783
32.2348
24.5523
18.1002
13.0153
9.30274
7.01351
6.22974
7.07121
9.87193
14.9195
23.2786
33.9496
56.2623
43.9392
29.5913
13.8547
-2.16258
-19.4102
-37.32
-55.4301
-73.8749
-92.3893
-110.842
-129.225
-147.367
-165.134
-182.339
-198.728
-214.01
-227.883
-240.03
-250.149
-257.936
-262.956
-264.854
-263.444
-258.755
-250.994
-240.496
-227.604
-212.572
-195.489
-176.224
-154.923
-132.49
-110.557
-92.9135
-83.099
-76.1074
-57.7127
-15.566
67.4951
78.0218
89.1283
100.257
110.337
119.482
127.256
133.166
137.196
139.563
140.464
140.136
138.781
136.527
133.47
129.634
125.022
119.625
113.427
106.423
98.6329
90.1075
80.9247
71.2441
61.3665
51.6466
42.4028
33.9105
26.3753
19.9755
14.8621
11.0606
8.63498
7.68442
8.3368
10.91
15.6587
23.4707
33.3826
52.3687
40.7137
27.152
12.3016
-2.77142
-18.9796
-35.7788
-52.7254
-69.9591
-87.2276
-104.416
-121.529
-138.417
-154.97
-171.032
-186.383
-200.772
-213.936
-225.594
-235.471
-243.277
-248.611
-251.093
-250.522
-246.894
-240.352
-231.138
-219.518
-205.733
-189.906
-171.936
-151.961
-130.812
-110.017
-92.7882
-81.985
-73.3292
-54.3431
-14.809
63.0089
72.9826
83.5293
94.1217
103.737
112.49
119.971
125.7
129.662
132.064
133.094
132.979
131.912
130.02
127.393
124.056
120.006
115.231
109.704
103.406
96.342
88.5409
80.0584
71.03
61.7343
52.5083
43.6564
35.4484
28.0938
21.7773
16.6623
12.7936
10.2473
9.13893
9.60257
11.9406
16.3782
23.6349
32.7856
48.6927
37.6561
24.8214
10.789
-3.41359
-18.6668
-34.4442
-50.3245
-66.446
-82.5705
-98.5937
-114.534
-130.257
-145.673
-160.655
-175.013
-188.53
-200.979
-212.112
-221.681
-229.414
-234.945
-237.881
-238.005
-235.294
-229.842
-221.813
-211.4
-198.823
-184.223
-167.522
-148.844
-128.946
-109.236
-92.421
-80.7919
-70.7073
-51.3287
-14.3052
58.7831
68.2448
78.2714
88.3634
97.5418
105.922
113.121
118.67
122.552
124.97
126.1
126.158
125.335
123.751
121.497
118.596
115.044
110.827
105.911
100.267
93.8861
86.7785
78.9782
70.5964
61.8877
53.1708
44.7349
36.8406
29.6981
23.4954
18.4061
14.4927
11.8425
10.5866
10.8632
12.9599
17.0757
23.7733
32.167
45.2286
34.7665
22.6076
9.33403
-4.06487
-18.4356
-33.2718
-48.1703
-63.2683
-78.3397
-93.2915
-108.147
-122.791
-137.148
-151.113
-164.525
-177.197
-188.934
-199.52
-208.735
-216.32
-221.949
-225.222
-225.915
-223.988
-219.502
-212.555
-203.28
-191.863
-178.451
-162.985
-145.573
-126.89
-108.216
-91.8209
-79.5249
-68.2393
-48.658
-14.0336
54.8082
63.793
73.3339
82.9567
91.7237
99.7509
106.677
112.048
115.843
118.259
119.465
119.666
119.047
117.728
115.796
113.275
110.165
106.446
102.083
97.041
91.2972
84.8474
77.7055
69.9577
61.8352
53.6373
45.6363
38.0813
31.1797
25.12
20.0833
16.1484
13.4122
12.0201
12.1128
13.964
17.7487
23.8875
31.535
41.9701
32.0437
20.5141
7.94721
-4.70592
-18.2597
-32.225
-46.2175
-60.3698
-74.4708
-88.4338
-102.289
-115.932
-129.303
-142.316
-154.83
-166.691
-177.73
-187.759
-196.584
-203.964
-209.607
-213.117
-214.264
-213.001
-209.363
-203.399
-195.186
-184.874
-172.605
-158.334
-142.148
-124.643
-106.963
-90.9989
-78.1897
-65.9242
-46.3156
-13.9684
51.0724
59.6121
68.6974
77.879
86.2576
93.9496
100.613
105.807
109.509
111.911
113.174
113.491
113.044
111.952
110.299
108.112
105.39
102.115
98.252
93.7589
88.6056
82.7743
76.2612
69.13
61.5879
53.9134
46.3608
39.1663
32.5312
26.642
21.6843
17.7511
14.9477
13.432
13.3455
14.9487
18.3954
23.9797
30.8974
38.9097
29.4839
18.5432
6.63614
-5.32482
-18.1182
-31.2762
-44.4297
-57.7089
-70.9118
-83.9616
-96.891
-109.607
-122.06
-134.182
-145.853
-156.939
-167.299
-176.771
-185.184
-192.314
-197.901
-201.562
-203.065
-202.357
-199.456
-194.376
-187.146
-177.878
-166.7
-153.577
-138.575
-122.208
-105.484
-89.9678
-76.7922
-63.7604
-44.283
-14.086
47.5644
55.6882
64.3452
73.1102
81.1218
88.4943
94.9048
99.9239
103.529
105.907
107.209
107.622
107.322
106.424
105.013
103.117
100.737
97.858
94.4428
90.4488
85.8393
80.5854
74.6685
68.1317
61.1585
54.0061
46.9107
40.0928
33.7464
28.0531
23.1998
19.2913
16.4402
14.8143
14.5549
15.9097
19.0139
24.0517
30.2612
36.0395
27.0828
16.694
5.40472
-5.91019
-17.9957
-30.4029
-42.778
-55.2473
-67.6206
-79.8252
-91.8978
-103.753
-115.354
-126.644
-137.522
-147.874
-157.579
-166.5
-174.487
-181.335
-186.81
-190.549
-192.322
-192.07
-189.806
-185.515
-179.186
-170.896
-160.753
-148.727
-134.861
-119.591
-103.789
-88.742
-75.3396
-61.7446
-42.5377
-14.3651
44.2738
52.0065
60.2603
68.632
76.2954
83.3624
89.5283
94.3761
97.8828
100.229
101.558
102.048
101.871
101.141
99.9396
98.2983
96.2206
93.6923
90.6786
87.1362
83.0243
78.306
72.9503
66.9817
60.5613
53.9247
47.2894
40.8605
34.8211
29.346
24.621
20.7599
17.8804
16.1588
15.7345
16.8428
19.6026
24.1058
29.6329
33.3505
24.8352
14.965
4.25496
-6.45538
-17.8802
-29.587
-41.2378
-52.9557
-64.559
-75.9805
-87.2586
-98.3174
-109.127
-119.642
-129.775
-139.433
-148.512
-156.894
-164.449
-170.994
-176.31
-180.068
-182.036
-182.156
-180.436
-176.841
-171.333
-163.951
-154.782
-143.796
-131.015
-116.799
-101.891
-87.3375
-73.8388
-59.8722
-41.0551
-14.7875
41.1894
48.5542
56.4271
64.4258
71.7582
78.5333
84.4638
89.1445
92.5512
94.8586
96.2036
96.7563
96.6845
96.0989
95.0802
93.662
91.8502
89.6328
86.9776
83.8423
80.1837
75.9591
71.1279
65.699
59.8112
53.6799
47.5034
41.4703
35.7523
30.5153
25.9401
22.148
19.2597
17.4575
16.8776
17.7437
20.1601
24.1439
29.0181
30.8346
22.7353
13.3531
3.18744
-6.95633
-17.7627
-28.8153
-39.791
-50.8094
-61.697
-72.3923
-82.9335
-93.2526
-103.328
-113.12
-122.558
-131.562
-140.043
-147.903
-155.028
-161.254
-166.379
-170.106
-172.207
-172.623
-171.362
-168.378
-163.608
-157.063
-148.804
-138.8
-127.049
-113.844
-99.8051
-85.7697
-72.2979
-58.1359
-39.809
-15.3346
38.3006
45.3178
52.8303
60.4745
67.4919
73.9886
79.6917
84.2097
87.516
89.7803
91.1327
91.7359
91.7531
91.2922
90.4329
89.21
87.6323
85.6905
83.3552
80.5858
77.3385
73.5665
69.2224
64.3017
58.9241
53.2835
47.5599
41.9252
36.5388
31.5558
27.1503
23.4473
20.5697
18.7023
17.9775
18.6081
20.6852
24.168
28.422
28.4836
20.7762
11.855
2.20174
-7.40985
-17.6361
-28.0765
-38.4217
-48.7879
-59.0091
-69.0296
-78.8869
-88.5202
-97.9123
-107.034
-115.821
-124.21
-132.125
-139.482
-146.183
-152.08
-156.99
-160.646
-162.826
-163.474
-162.598
-160.146
-156.036
-150.254
-142.839
-133.755
-122.978
-110.738
-97.5444
-84.0567
-70.7235
-56.5279
-38.774
-15.9866
35.5966
42.285
49.4559
56.7637
63.4805
69.7112
75.195
79.5541
82.7606
84.9783
86.3312
86.9747
87.0672
86.7144
85.9944
84.9432
83.5721
81.8744
79.8238
77.3822
74.5063
71.1478
67.2538
62.8097
57.9162
52.7482
47.4674
42.2298
37.181
32.4646
28.2456
24.6506
21.8021
19.8851
19.0281
19.4318
21.1767
24.1798
27.8487
26.2885
18.9521
10.4658
1.29666
-7.8148
-17.4959
-27.3619
-37.118
-46.8747
-56.4752
-65.8675
-75.0897
-84.0852
-92.8435
-101.34
-109.521
-117.332
-124.713
-131.588
-137.874
-143.441
-148.118
-151.672
-153.887
-154.711
-154.153
-152.158
-148.635
-143.544
-136.906
-128.678
-118.818
-107.498
-95.1265
-82.2132
-69.1221
-55.0386
-37.9231
-16.7237
33.0671
39.4444
46.2913
53.2783
59.7085
65.6847
70.9573
75.1618
78.2693
80.438
81.786
82.4614
82.6183
82.3591
81.7609
80.8606
79.6716
78.19
76.3926
74.2442
71.7029
68.7205
65.2406
61.2399
56.8033
52.0871
47.2359
42.3895
37.6803
33.2397
29.2217
25.751
22.9492
20.9987
20.0229
20.2108
21.6337
24.1811
27.3017
24.241
17.2559
9.18128
0.469578
-8.1707
-17.3392
-26.6655
-35.8692
-45.056
-54.0773
-62.8836
-71.5149
-79.9184
-88.0867
-96.0016
-103.618
-110.89
-117.765
-124.181
-130.065
-135.302
-139.737
-143.163
-145.379
-146.332
-146.033
-144.43
-141.422
-136.954
-131.026
-123.589
-114.587
-104.14
-92.5689
-80.2554
-67.4982
-53.6547
-37.2313
-17.5247
30.7026
36.7846
43.3233
50.0047
56.1615
61.8938
66.9632
71.0175
74.0275
76.1456
77.4842
78.1845
78.3962
78.2188
77.727
76.9596
75.9314
74.6411
73.0688
71.1822
68.9419
66.3
63.1988
59.6089
55.6007
51.3134
46.8756
42.4115
38.0403
33.8808
30.0747
26.7433
24.0046
22.0359
20.956
20.9411
22.0552
24.1728
26.7835
22.3333
15.681
7.9967
-0.282397
-8.47794
-17.1629
-25.982
-34.667
-43.3201
-51.7996
-60.06
-68.1404
-75.9931
-83.6135
-90.9878
-98.0779
-104.845
-111.246
-117.226
-122.722
-127.635
-131.821
-135.102
-137.288
-138.33
-138.242
-136.97
-134.412
-130.5
-125.217
-118.508
-110.304
-100.683
-89.8886
-78.1981
-65.8554
-52.3645
-36.673
-18.3689
28.4937
34.295
40.5406
46.9307
52.8261
58.3247
63.1987
67.1072
70.0215
72.0879
73.4137
74.1334
74.3913
74.2854
73.8875
73.2372
72.3513
71.2302
69.8576
68.2045
66.2339
63.8994
61.1435
57.9322
54.3235
50.4408
46.3977
42.3035
38.2653
34.3889
30.803
27.6228
24.9623
22.9905
21.8216
21.6192
22.4404
24.156
26.2956
20.5573
14.2211
6.90695
-0.962115
-8.73758
-16.9665
-25.3077
-33.5056
-41.6582
-49.631
-57.3813
-64.9481
-72.2879
-79.3983
-86.2699
-92.8699
-99.1665
-105.121
-110.688
-115.814
-120.409
-124.345
-127.467
-129.6
-130.699
-130.776
-129.783
-127.617
-124.199
-119.499
-113.454
-105.989
-97.1466
-87.1052
-76.0548
-64.1962
-51.1536
-36.2248
-19.2377
26.4315
31.9659
37.932
44.0442
49.6897
54.9643
59.6498
63.4179
66.2385
68.2529
69.5629
70.297
70.5948
70.551
70.2358
69.6891
68.929
67.9579
66.7627
65.3175
63.5882
61.5305
59.0882
56.224
52.9859
49.4824
45.8132
42.0745
38.3608
34.7661
31.4054
28.3866
25.8175
23.8573
22.615
22.2415
22.7884
24.1309
25.8387
18.9057
12.8697
5.90729
-1.57296
-8.95116
-16.7492
-24.64
-32.3799
-40.0629
-47.5608
-54.8344
-61.9218
-68.7837
-75.4193
-81.8232
-87.9669
-93.8236
-99.3605
-104.538
-109.31
-113.598
-117.286
-120.24
-122.302
-123.429
-123.635
-122.874
-121.046
-118.064
-113.887
-108.449
-101.665
-93.5529
-84.2373
-73.8391
-62.5223
-50.0073
-35.8637
-20.1136
24.5073
29.788
35.4876
41.3338
46.7405
51.8003
56.3046
59.9368
62.6658
64.6284
65.9207
66.6656
66.9973
67.0078
66.7655
66.3106
65.6617
64.8238
63.786
62.5257
61.0118
59.2027
57.0442
54.4975
51.601
48.4509
45.1338
41.7335
38.3334
35.0159
31.8828
29.0327
26.5665
24.6317
23.3318
22.8052
23.0985
24.0976
25.4125
17.3712
11.6208
4.99286
-2.11831
-9.12029
-16.5108
-23.9765
-31.285
-38.5267
-45.5792
-52.4072
-59.0471
-65.4633
-71.6574
-77.6256
-83.3445
-88.7908
-93.9371
-98.7487
-103.184
-107.176
-110.62
-113.401
-115.377
-116.51
-116.813
-116.243
-114.705
-112.108
-108.399
-103.51
-97.3529
-89.9236
-81.3046
-71.5643
-60.8337
-48.911
-35.5677
-20.98
22.7132
27.752
33.1973
38.7895
43.9675
48.8213
53.1515
56.6519
59.2922
61.2032
62.4762
63.2283
63.589
63.6476
63.4698
63.096
62.5461
61.8259
60.9279
59.8321
58.5104
56.9241
55.0215
52.7635
50.1811
47.3581
44.3705
41.2902
38.1904
35.143
32.2366
29.5602
27.2065
25.3103
23.9687
23.3075
23.3699
24.0555
25.0159
15.9469
10.4686
4.15889
-2.60158
-9.24689
-16.2521
-23.316
-30.2181
-37.0443
-43.6793
-50.0896
-56.3112
-62.3116
-68.0942
-73.6574
-78.9808
-84.0449
-88.8262
-93.2934
-97.4111
-101.119
-104.326
-106.932
-108.81
-109.93
-110.303
-109.89
-108.599
-106.339
-103.048
-98.6559
-93.0737
-86.2806
-78.3274
-69.2434
-59.132
-47.8497
-35.3157
-21.8221
21.0416
25.8499
31.0522
36.4015
41.3605
46.0167
50.179
53.5526
56.1064
57.9661
59.2188
59.9755
60.361
60.4616
60.3413
60.0397
59.5773
58.9621
58.188
57.2382
56.0876
54.7005
53.0282
51.0321
48.7369
46.2157
43.5342
40.7544
37.9399
35.153
32.4698
29.9696
27.7362
25.8904
24.5226
23.7464
23.6016
24.0041
24.6469
14.6267
9.40736
3.40075
-3.02632
-9.3334
-15.9734
-22.6578
-29.1766
-35.6122
-41.8547
-47.8736
-53.7043
-59.3167
-64.7155
-69.9011
-74.8563
-79.5643
-84.0045
-88.1494
-91.9673
-95.4052
-98.3825
-100.813
-102.588
-103.679
-104.099
-103.812
-102.731
-100.764
-97.8465
-93.9035
-88.8472
-82.6456
-75.3255
-66.8893
-57.4173
-46.8102
-35.0877
-22.6249
19.4853
24.0735
29.0437
34.1606
38.9097
43.3763
47.3771
50.6282
53.0979
54.9071
56.1387
56.8975
57.3044
57.4424
57.3729
57.1353
56.751
56.2288
55.5647
54.7447
53.7462
52.537
51.0715
49.312
47.2783
45.034
42.6355
40.1358
37.5902
35.0521
32.5867
30.2629
28.1553
26.3705
24.9918
24.12
23.7929
23.9422
24.3031
13.404
8.43179
2.71391
-3.39595
-9.38196
-15.676
-22.0012
-28.1582
-34.226
-40.0997
-45.7518
-51.2164
-56.4662
-61.5073
-66.3415
-70.9538
-75.3299
-79.4518
-83.2951
-86.8312
-90.0133
-92.7707
-95.0291
-96.6948
-97.7445
-98.1926
-98.0054
-97.101
-95.3907
-92.804
-89.2668
-84.6916
-79.0389
-72.3181
-64.5153
-55.6909
-45.7796
-34.864
-23.374
18.0375
22.4156
27.1639
32.0583
36.6063
40.8907
44.7361
47.8686
50.257
52.0166
53.2264
53.9855
54.4104
54.581
54.5569
54.3765
54.0618
53.6222
53.0558
52.3509
51.4876
50.4368
49.1565
47.6106
45.814
43.8226
41.6844
39.4443
37.1501
34.8479
32.5923
30.4428
28.4646
26.7501
25.3747
24.4271
23.9427
23.8687
23.9817
12.2733
7.53672
2.09402
-3.71396
-9.39502
-15.3609
-21.3463
-27.1618
-32.8828
-38.4098
-43.7175
-48.8394
-53.7503
-58.4576
-62.9641
-67.2573
-71.3243
-75.1497
-78.7112
-81.9833
-84.9241
-87.4715
-89.5619
-91.1163
-92.1158
-92.5754
-92.465
-91.7086
-90.2206
-87.9288
-84.758
-80.6228
-75.4789
-69.3235
-62.1336
-53.955
-44.7463
-34.6267
-24.0545
16.6918
20.8692
25.4052
30.0865
34.4417
38.5509
42.2467
45.2649
47.5742
49.285
50.4725
51.2304
51.6705
51.8701
51.8861
51.7568
51.5038
51.1378
50.6582
50.0554
49.3123
48.4026
47.2877
45.9337
44.3517
42.5901
40.69
38.6893
36.6287
34.5479
32.4927
30.5134
28.6663
27.0298
25.6711
24.6667
24.0503
23.7823
23.6794
11.2289
6.71723
1.53691
-3.98351
-9.37493
-15.0295
-20.6932
-26.1859
-31.5798
-36.7808
-41.7654
-46.5662
-51.1604
-55.5559
-59.7571
-63.7525
-67.5319
-71.0811
-74.3797
-77.4046
-80.119
-82.4677
-84.3961
-85.8387
-86.7807
-87.239
-87.1861
-86.5524
-85.2567
-83.2266
-80.3868
-76.6544
-71.9819
-66.358
-59.7567
-52.2123
-43.7012
-34.3589
-24.6522
15.4418
19.4276
23.7602
28.2374
32.4077
36.3488
39.9004
42.8083
45.0407
46.7039
47.8684
48.6235
49.0765
49.3015
49.3533
49.2695
49.0716
48.7709
48.3684
47.8562
47.2199
46.4355
45.4682
44.2862
42.8977
41.3444
39.6612
37.8798
36.0349
34.1604
32.2949
30.48
28.7636
27.2111
25.8811
24.8385
24.1147
23.6813
23.3928
10.2654
5.96841
1.03855
-4.20793
-9.32417
-14.683
-20.042
-25.2297
-30.3152
-35.2093
-39.8905
-44.3904
-48.6881
-52.7928
-56.7089
-60.4272
-63.9387
-67.2305
-70.2844
-73.0787
-75.5808
-77.7422
-79.516
-80.848
-81.7281
-82.1745
-82.1629
-81.6302
-80.5002
-78.7019
-76.1609
-72.7977
-68.5617
-63.4363
-57.3958
-50.4661
-42.6372
-34.0467
-25.1545
14.2819
18.0844
22.2224
26.5039
30.4968
34.2764
37.6891
40.4904
42.6484
44.2646
45.406
46.157
46.6205
46.8677
46.9513
46.9079
46.7592
46.5167
46.1826
45.7509
45.209
44.536
43.7004
42.6723
41.4576
40.0923
38.6058
37.0243
35.3774
33.6941
32.0063
30.3487
28.7609
27.2966
26.006
24.9425
24.1349
23.564
23.1185
9.37785
5.28589
0.594919
-4.39047
-9.24493
-14.3232
-19.3932
-24.2925
-29.087
-33.6922
-38.0882
-42.306
-46.3266
-50.1593
-53.8097
-57.2696
-60.5317
-63.584
-66.4099
-68.9897
-71.2935
-73.2794
-74.9066
-76.131
-76.9467
-77.3729
-77.3894
-76.9389
-75.9513
-74.358
-72.0869
-69.0612
-65.2296
-60.5709
-55.061
-48.7209
-41.5499
-33.6793
-25.5507
13.2066
16.8337
20.7854
24.8793
28.702
32.3262
35.6052
38.3034
40.3892
41.9593
43.0774
43.8231
44.2949
44.5616
44.6733
44.6659
44.5609
44.3701
44.0967
43.7364
43.2783
42.7041
41.9855
41.0947
40.0359
38.8397
37.531
36.1311
34.665
33.1574
31.6349
30.1262
28.6636
27.2901
26.0477
24.9792
24.1104
23.4285
22.8529
8.56135
4.66522
0.202336
-4.53424
-9.13979
-13.9514
-18.7475
-23.3742
-27.8939
-32.227
-36.3552
-40.3085
-44.0694
-47.6481
-51.0503
-54.2695
-57.2991
-60.1287
-62.7427
-65.1228
-67.2424
-69.0642
-70.5536
-71.6744
-72.4248
-72.8255
-72.8593
-72.475
-71.6092
-70.1967
-68.1687
-65.452
-61.9944
-57.7715
-52.7616
-46.9815
-40.4374
-33.2498
-25.8337
12.2106
15.6699
19.4433
23.3572
27.0164
30.4911
33.6412
36.2399
38.2556
39.7806
40.8751
41.6145
42.0928
42.3762
42.5128
42.5372
42.471
42.3262
42.1067
41.8094
41.4256
40.939
40.3242
39.556
38.6365
37.5919
36.4431
35.2074
33.9057
32.5589
31.1893
29.8202
28.4778
27.1961
26.009
24.9498
24.0405
23.2729
22.5926
7.81128
4.10232
-0.142852
-4.64223
-9.01088
-13.5693
-18.1055
-22.4742
-26.7347
-30.8114
-34.6879
-38.3929
-41.9109
-45.252
-48.4228
-51.4175
-54.2307
-56.8529
-59.27
-61.4648
-63.4132
-65.0824
-66.4429
-67.4653
-68.1514
-68.5226
-68.5654
-68.2342
-67.4721
-66.2189
-64.4095
-61.975
-58.8631
-55.0464
-50.5053
-45.2532
-39.3008
-32.755
-26.0012
11.2889
14.5878
18.1901
21.9316
25.4336
28.7646
31.7905
34.293
36.2405
37.7213
38.7921
39.524
40.0072
40.3048
40.4632
40.5159
40.4841
40.3799
40.2081
39.9667
39.6484
39.2393
38.7166
38.0573
37.2622
36.3533
35.348
34.2603
33.1073
31.9069
30.6776
29.4386
28.2106
27.02
25.8935
24.856
23.925
23.0952
22.3339
7.12341
3.59317
-0.444023
-4.71738
-8.86044
-13.1782
-17.4683
-21.5927
-25.6081
-29.4432
-33.083
-36.5552
-39.8457
-42.9649
-45.9196
-48.7051
-51.3169
-53.7464
-55.9803
-58.0033
-59.793
-61.3209
-62.5613
-63.4912
-64.1148
-64.4545
-64.5002
-64.2115
-63.5378
-62.4244
-60.8113
-58.6338
-55.8404
-52.4016
-48.2985
-43.5412
-38.1428
-32.1961
-26.0548
10.4367
13.5822
17.0207
20.5966
23.9478
27.1404
30.0465
32.4558
34.3372
35.7746
36.8215
37.545
38.0313
38.3411
38.5184
38.596
38.5946
38.5265
38.3968
38.2048
37.9445
37.6038
37.1627
36.6
35.9155
35.1276
34.2507
33.2958
32.2771
31.2094
30.1084
28.9895
27.8694
26.7679
25.7056
24.7
23.764
22.8935
22.0732
6.49356
3.13411
-0.704575
-4.76236
-8.69089
-12.7799
-16.8362
-20.7295
-24.5135
-28.121
-31.5381
-34.7918
-37.8693
-40.7809
-43.5339
-46.1244
-48.5488
-50.799
-52.8632
-54.7268
-56.3698
-57.767
-58.8963
-59.7399
-60.3039
-60.6116
-60.6556
-60.4009
-59.8028
-58.8122
-57.3745
-55.4305
-52.9298
-49.8413
-46.146
-41.8504
-36.9677
-31.577
-26.0002
9.64985
12.6484
15.93
19.3471
22.5532
25.6126
28.403
30.7223
32.5392
33.9339
34.9569
35.6711
36.1592
36.4789
36.6726
36.7721
36.7975
36.761
36.6685
36.5201
36.3108
36.0306
35.6616
35.1846
34.5982
33.918
33.1556
32.3197
31.4217
30.474
29.4895
28.4812
27.462
26.4467
25.4503
24.4847
23.558
22.6661
21.8069
5.9178
2.72158
-0.927616
-4.77984
-8.50423
-12.3757
-16.2104
-19.8847
-23.4501
-26.8429
-30.0506
-33.0992
-35.9772
-38.6949
-41.2598
-43.6685
-45.9184
-48.0022
-49.9087
-51.6249
-53.1325
-54.4091
-55.436
-56.1994
-56.7073
-56.9836
-57.0233
-56.7959
-56.2625
-55.3795
-54.0987
-52.3657
-50.133
-47.3682
-44.0513
-40.185
-35.7806
-30.9037
-25.8461
8.9239
11.7818
14.9131
18.1778