/*--------------------------------*- C++ -*----------------------------------*\
| =========                 |                                                 |
| \\      /  F ield         | OpenFOAM: The Open Source CFD Toolbox           |
|  \\    /   O peration     | Version:  2312                                  |
|   \\  /    A nd           | Website:  www.openfoam.com                      |
|    \\/     M anipulation  |                                                 |
\*---------------------------------------------------------------------------*/
FoamFile
{
    version     2.0;
    format      ascii;
    arch        "LSB;label=32;scalar=64";
    class       surfaceScalarField;
    location    "250";
    object      phi;
}
// * * * * * * * * * * * * * * * * * * * * * * * * * * * * * * * * * * * * * //

dimensions      [0 3 -1 0 0 0 0];

oriented        oriented;

internalField   nonuniform List<scalar> 
21254
(
-0.218207
0.238183
-0.0199761
0.260488
-0.0223149
0.279998
-0.0195131
0.29758
-0.0175846
0.314272
-0.0166945
0.327844
-0.013576
0.338741
-0.0109007
0.347673
-0.00893711
0.353706
-0.00603779
0.357793
-0.0040919
0.360117
-0.00232863
0.360333
-0.000222043
0.358476
0.00185144
0.354277
0.00419239
0.347487
0.00678435
0.338181
0.00930243
0.32603
0.0121505
0.311137
0.0148959
0.293742
0.0174011
0.275193
0.0185561
0.257445
0.0177528
0.245275
0.0121746
0.24353
0.00175145
0.25482
-0.0112814
0.2723
-0.0174729
0.285991
-0.0136783
0.289978
-0.00394475
0.285868
0.00417727
0.279271
0.00662171
0.270027
0.00910893
0.254692
0.0152768
0.226773
0.0283377
0.169188
0.0575362
0.0744759
0.0937625
0.00944679
0.0658024
-0.0381225
0.049627
-0.10078
0.0629115
-0.103499
0.00148585
0.0421706
-0.145212
-0.194991
-0.0232273
-0.17083
-0.0241658
-0.141433
-0.0294011
-0.109401
-0.0320374
-0.0758306
-0.0335782
-0.041445
-0.0343993
-0.00801722
-0.0334517
0.022913
-0.0309736
0.0512661
-0.0283959
0.0761227
-0.0248812
0.0973503
-0.0212478
0.115261
-0.0179297
0.130205
-0.0149626
0.142583
-0.0123956
0.153139
-0.0105708
0.162183
-0.00905757
0.170184
-0.00801318
0.177367
-0.00719437
0.184039
-0.00668365
0.190316
-0.00628846
0.196378
-0.00607175
0.202173
-0.00580324
0.207636
-0.0054715
0.212074
-0.00444576
0.21526
-0.00319434
0.217475
-0.00222735
0.218716
-0.00125883
0.218875
-0.000186004
0.21757
0.00126595
0.214705
0.00281891
0.210234
0.00444158
0.20411
0.00614389
0.196271
0.00789249
0.186754
0.00951168
0.175997
0.0107197
0.172369
0.00368059
0.178094
-0.0056834
0.18608
-0.00786386
0.181042
0.00499463
-0.198706
0.220203
-0.041477
0.242249
-0.0443771
0.265379
-0.0426511
0.287048
-0.0392656
0.308288
-0.0379463
0.328137
-0.0334379
0.346172
-0.0289477
0.362667
-0.025443
0.37725
-0.0206306
0.39
-0.0168516
0.400966
-0.0133058
0.410472
-0.00973883
0.41906
-0.00674728
0.42699
-0.00374856
0.434136
-0.000369005
0.440092
0.00334375
0.444575
0.00766944
0.447342
0.0121353
0.447359
0.017391
0.444165
0.0217546
0.436499
0.0254153
0.423367
0.0252888
0.403111
0.0219746
0.375572
0.0162342
0.348468
0.00966189
0.329816
0.00506585
0.318152
0.00777126
0.309065
0.0132044
0.299991
0.0156761
0.290807
0.0184533
0.281923
0.0241115
0.274535
0.0353231
0.261467
0.07075
0.196745
0.159083
0.0449922
0.217731
-0.0705146
0.163701
-0.0887902
0.0817288
-0.0749509
-0.012631
0.0437698
-0.264749
-0.17681
-0.0451379
-0.153363
-0.0476226
-0.125935
-0.0568435
-0.0969752
-0.0610149
-0.066268
-0.0643072
-0.0342175
-0.0664825
-0.00215459
-0.0655653
0.0281894
-0.061376
0.0554821
-0.0557324
0.0797834
-0.0492175
0.100882
-0.0423786
0.119168
-0.0362437
0.135051
-0.0308707
0.148744
-0.0261105
0.160715
-0.0225612
0.171262
-0.0196216
0.180681
-0.0174487
0.189279
-0.015809
0.197304
-0.014725
0.204872
-0.0138717
0.212125
-0.0133397
0.219126
-0.0128161
0.225807
-0.0121633
0.231719
-0.0103729
0.236602
-0.00809918
0.24068
-0.00633605
0.243923
-0.00455088
0.246583
-0.00290992
0.249063
-0.00127446
0.2515
0.000363391
0.253831
0.00214192
0.25592
0.00407474
0.257619
0.0062159
0.258652
0.00853751
0.259071
0.0102673
0.253955
0.00885008
0.240697
0.00757632
0.225465
0.00727291
0.21253
0.0179643
-0.192964
0.214746
-0.0632668
0.23673
-0.0663717
0.260509
-0.0664355
0.282303
-0.0610666
0.3031
-0.0587515
0.32305
-0.0533974
0.340861
-0.0467673
0.356915
-0.0415068
0.370772
-0.0344973
0.382671
-0.0287598
0.392628
-0.0232731
0.400739
-0.0178605
0.406818
-0.0128372
0.411326
-0.0082659
0.414049
-0.00309874
0.415951
0.00143938
0.417048
0.00657521
0.418036
0.0111516
0.418891
0.0165424
0.419616
0.021034
0.419701
0.0253317
0.41785
0.0271387
0.412845
0.0269772
0.403401
0.0256745
0.388779
0.0243026
0.369595
0.0243143
0.350892
0.0265264
0.335735
0.0283476
0.322266
0.0291448
0.309813
0.0309264
0.298088
0.035772
0.285872
0.0473451
0.280221
0.076508
0.258137
0.181122
0.148667
0.32708
0.00289532
0.30857
-0.0534965
0.138006
-0.0443753
-0.0221185
0.0457894
-0.356226
-0.171079
-0.0670358
-0.14718
-0.0715292
-0.118646
-0.0853881
-0.089036
-0.0906403
-0.0581565
-0.0952074
-0.0261724
-0.0984933
0.00538015
-0.0971503
0.0347279
-0.090756
0.0614851
-0.0825164
0.0856374
-0.0733944
0.106858
-0.0636244
0.125368
-0.054777
0.141548
-0.047073
0.155671
-0.040253
0.168049
-0.0349564
0.179031
-0.0306199
0.188885
-0.0273194
0.197882
-0.0248222
0.206232
-0.0230904
0.214092
-0.0217464
0.221654
-0.020915
0.228943
-0.0201178
0.235832
-0.0190649
0.24201
-0.0165652
0.247182
-0.0132935
0.251462
-0.0106494
0.25491
-0.0080486
0.257566
-0.0056301
0.259529
-0.00329895
0.260863
-0.00099402
0.261721
0.00130776
0.262141
0.00367408
0.262301
0.0060829
0.26234
0.0085451
0.262037
0.010534
0.260713
0.0102293
0.257133
0.0111922
0.245926
0.0184526
0.232131
0.0317632
-0.185954
0.208649
-0.0859699
0.231466
-0.0892024
0.256599
-0.0915789
0.279576
-0.0840545
0.301912
-0.0810982
0.323392
-0.0748877
0.343168
-0.0665537
0.361091
-0.0594384
0.377356
-0.0507712
0.391741
-0.0431536
0.404367
-0.0359082
0.415227
-0.0287299
0.424375
-0.0219945
0.431874
-0.0157735
0.438087
-0.00931572
0.442617
-0.00309109
0.445503
0.00369361
0.446454
0.010209
0.44576
0.017245
0.443331
0.0234702
0.439309
0.029357
0.433731
0.0327138
0.426638
0.0340637
0.418838
0.0334785
0.410632
0.0325424
0.400265
0.0347697
0.386592
0.0402813
0.371168
0.0437557
0.355392
0.0449246
0.339241
0.0470364
0.322523
0.0523633
0.304763
0.0650512
0.290787
0.0905931
0.283098
0.188662
0.240582
0.369609
0.139574
0.408942
0.0382679
0.239425
0.0137391
0.0031143
0.0523938
-0.395179
-0.163549
-0.0894542
-0.139572
-0.0955166
-0.110509
-0.114463
-0.0807215
-0.120443
-0.0497137
-0.126233
-0.0175373
-0.130693
0.0139264
-0.128642
0.042945
-0.119803
0.0693727
-0.10897
0.0932468
-0.0972931
0.114245
-0.0846462
0.132657
-0.0732108
0.148921
-0.0633569
0.163286
-0.0546361
0.176077
-0.0477639
0.187517
-0.0420762
0.197913
-0.0377318
0.207442
-0.0343673
0.21634
-0.0320041
0.224742
-0.0301628
0.232757
-0.0289416
0.240457
-0.027829
0.247771
-0.026391
0.254363
-0.0231704
0.259984
-0.0189338
0.264697
-0.0153939
0.268543
-0.0119445
0.271577
-0.00872946
0.273859
-0.00564361
0.275493
-0.00265167
0.276515
0.000311185
0.276908
0.00329871
0.276708
0.0063063
0.276019
0.00928164
0.274656
0.0118547
0.272307
0.0126265
0.268983
0.014549
0.259808
0.0276232
0.247129
0.0444571
-0.182405
0.205932
-0.109504
0.229625
-0.11291
0.256142
-0.118106
0.279861
-0.107784
0.303159
-0.104408
0.325659
-0.0973983
0.346232
-0.0871376
0.365003
-0.0782202
0.382246
-0.0680242
0.397319
-0.0582374
0.4106
-0.0492002
0.422017
-0.0401601
0.431835
-0.0318247
0.43974
-0.0236883
0.445917
-0.0154998
0.45035
-0.00752717
0.453261
0.000785287
0.454752
0.00872393
0.45461
0.0173939
0.453038
0.0250476
0.449725
0.0326714
0.444498
0.0379344
0.437273
0.0412728
0.428722
0.0420206
0.420106
0.0411982
0.412033
0.0429749
0.404033
0.0484014
0.39482
0.052888
0.384094
0.0556235
0.371794
0.0594501
0.356987
0.0670116
0.339112
0.0828377
0.317829
0.111998
0.303095
0.203218
0.291237
0.381535
0.245855
0.454098
0.154705
0.330792
0.104178
0.0539027
0.0712297
-0.361478
-0.158966
-0.112909
-0.13427
-0.120223
-0.103959
-0.144787
-0.0733162
-0.151101
-0.0415743
-0.157994
-0.00874778
-0.163542
0.0231684
-0.160584
0.0522969
-0.148956
0.0786378
-0.135333
0.102376
-0.121052
0.123211
-0.105501
0.141525
-0.0915413
0.15782
-0.0796677
0.172315
-0.0691453
0.185331
-0.060794
0.197135
-0.0538943
0.207907
-0.0485189
0.217836
-0.0443115
0.227123
-0.0413051
0.235906
-0.0389584
0.244277
-0.0373236
0.252278
-0.0358407
0.259868
-0.0339917
0.266763
-0.0300778
0.272695
-0.0248851
0.277698
-0.0204265
0.281801
-0.0160949
0.285058
-0.0120495
0.287521
-0.00816687
0.289267
-0.00441651
0.290354
-0.000745542
0.290813
0.00286305
0.290673
0.00647312
0.289987
0.0100204
0.288606
0.0131956
0.286138
0.0151525
0.28214
0.0186043
0.273443
0.0362974
0.261676
0.056235
-0.179509
0.204042
-0.134045
0.229024
-0.137908
0.2569
-0.145993
0.28179
-0.132686
0.306081
-0.128711
0.3299
-0.12123
0.351406
-0.108656
0.371408
-0.0982332
0.389607
-0.0862347
0.405879
-0.0745212
0.420457
-0.0637913
0.433161
-0.0528775
0.444208
-0.0428843
0.453592
-0.033084
0.4612
-0.0231148
0.467355
-0.0136849
0.471714
-0.00357165
0.474336
0.00610835
0.475289
0.0164477
0.474328
0.0260131
0.471364
0.0356362
0.466369
0.0429229
0.459221
0.048407
0.450477
0.0507571
0.441157
0.0505684
0.431955
0.052352
0.422962
0.0575394
0.41352
0.0621722
0.403445
0.0656449
0.392629
0.0704626
0.380182
0.0792912
0.365807
0.0970827
0.34732
0.130622
0.328986
0.221371
0.321686
0.388914
0.305831
0.469769
0.252071
0.384686
0.196989
0.108935
0.12626
-0.289372
-0.15511
-0.137324
-0.129598
-0.145746
-0.097972
-0.176426
-0.0661846
-0.182904
-0.0334381
-0.190759
0.00033475
-0.197337
0.0330169
-0.193289
0.062551
-0.178511
0.0890455
-0.161847
0.112788
-0.144812
0.133541
-0.12627
0.151727
-0.109741
0.167949
-0.0959033
0.182474
-0.083684
0.195609
-0.073943
0.207615
-0.0659153
0.218659
-0.059578
0.228944
-0.0546118
0.238599
-0.0509748
0.247757
-0.0481298
0.256511
-0.0460903
0.264883
-0.0442248
0.272816
-0.0419367
0.28012
-0.0373963
0.286456
-0.0312421
0.291813
-0.0258151
0.296276
-0.0206075
0.299841
-0.0156813
0.302583
-0.0109719
0.304579
-0.00643246
0.305886
-0.00202057
0.30649
0.00228004
0.306433
0.00655528
0.305818
0.0106903
0.304395
0.0145788
0.301895
0.0177087
0.297607
0.0229459
0.28892
0.044986
0.27678
0.0683776
-0.177831
0.203679
-0.159902
0.229704
-0.163948
0.259131
-0.175432
0.285271
-0.158839
0.310788
-0.154239
0.335659
-0.146112
0.35829
-0.131297
0.379104
-0.119058
0.398293
-0.105435
0.415442
-0.091681
0.430785
-0.0791464
0.444454
-0.0665596
0.456323
-0.0547665
0.466464
-0.0432364
0.474946
-0.0316039
0.481608
-0.0203489
0.486593
-0.00855317
0.489817
0.00288951
0.491317
0.0149542
0.490993
0.0263421
0.488779
0.0378518
0.484532
0.0471632
0.478343
0.054585
0.470457
0.0586387
0.461762
0.0593164
0.452833
0.0614635
0.443686
0.0668398
0.433744
0.0719525
0.423047
0.0762835
0.411668
0.0820327
0.399022
0.0917593
0.385477
0.110526
0.370473
0.145771
0.355354
0.2363
0.348652
0.395705
0.34235
0.475885
0.316592
0.410532
0.269286
0.156145
0.194699
-0.213308
-0.152227
-0.162945
-0.125608
-0.172376
-0.092521
-0.209527
-0.0594136
-0.216027
-0.0254398
-0.224751
0.00956937
-0.232367
0.0432427
-0.226984
0.0734919
-0.20878
0.100383
-0.188756
0.124333
-0.168779
0.145093
-0.147046
0.163209
-0.127872
0.17936
-0.112069
0.193851
-0.0981893
0.207018
-0.0871246
0.219143
-0.0780562
0.230408
-0.0708589
0.240957
-0.0651761
0.250929
-0.0609612
0.260418
-0.0576336
0.269501
-0.0551866
0.278192
-0.0529283
0.286466
-0.0502239
0.294072
-0.0450183
0.300779
-0.0379711
0.306502
-0.0315716
0.311262
-0.0254188
0.315114
-0.0196013
0.318084
-0.0140064
0.320284
-0.00865273
0.321734
-0.00343524
0.322452
0.00158566
0.322486
0.00654715
0.32187
0.011365
0.320454
0.0159552
0.317872
0.0203473
0.313522
0.0273464
0.305185
0.0533501
0.292713
0.0808526
-0.176795
0.203973
-0.187088
0.231414
-0.191405
0.262509
-0.206538
0.28984
-0.186182
0.316625
-0.181035
0.342722
-0.17222
0.366346
-0.154931
0.388329
-0.14105
0.408306
-0.125422
0.426348
-0.109734
0.442695
-0.0955043
0.457191
-0.0810678
0.469912
-0.0674999
0.480984
-0.0543181
0.490352
-0.040978
0.497984
-0.0279817
0.503915
-0.0144797
0.508075
-0.00126353
0.510364
0.0126726
0.510723
0.025988
0.509128
0.039449
0.505412
0.0508735
0.499639
0.0603484
0.492211
0.0660644
0.4838
0.0677851
0.475006
0.0704478
0.465855
0.0761518
0.455742
0.0818986
0.444674
0.0872892
0.432757
0.0941372
0.419359
0.104969
0.405052
0.12475
0.39042
0.160556
0.378474
0.248053
0.374457
0.399819
0.371013
0.479144
0.356583
0.425003
0.315562
0.197039
0.236037
-0.132776
-0.14996
-0.189796
-0.122181
-0.200167
-0.0873867
-0.244334
-0.0527598
-0.250669
-0.0173481
-0.260181
0.0190498
-0.268785
0.0539701
-0.261925
0.0851206
-0.23995
0.112593
-0.216247
0.13689
-0.193094
0.157785
-0.167958
0.175887
-0.14599
0.191977
-0.128175
0.206406
-0.112634
0.219546
-0.10028
0.23175
-0.090275
0.243131
-0.0822556
0.253878
-0.0759384
0.264092
-0.0711898
0.27387
-0.0674265
0.283247
-0.0645768
0.292269
-0.0619643
0.300871
-0.0588405
0.308846
-0.0530105
0.315922
-0.0450712
0.322012
-0.0376966
0.327125
-0.0305863
0.331299
-0.0238449
0.334549
-0.017324
0.336972
-0.011097
0.338636
-0.00506357
0.3395
0.000746251
0.339633
0.00643834
0.339075
0.0119832
0.337615
0.0173762
0.334952
0.0230649
0.330484
0.0318599
0.32235
0.0615252
0.309335
0.0938764
-0.176534
0.205079
-0.215643
0.23396
-0.220304
0.266746
-0.239337
0.295456
-0.214903
0.323688
-0.209278
0.351121
-0.199664
0.375939
-0.179759
0.398789
-0.163909
0.419841
-0.146483
0.438686
-0.128589
0.455708
-0.112537
0.470979
-0.0963503
0.484516
-0.0810476
0.49634
-0.0661516
0.506462
-0.051104
0.514909
-0.0364282
0.521556
-0.0211219
0.526352
-0.00605104
0.529271
0.00976154
0.530229
0.025036
0.529218
0.040463
0.526135
0.0539517
0.521
0.065475
0.514143
0.0729215
0.506177
0.075812
0.49763
0.0791941
0.488517
0.0854342
0.47836
0.091889
0.467222
0.0983615
0.455098
0.106443
0.441367
0.118502
0.426543
0.139505
0.411194
0.176061
0.399759
0.2593
0.39796
0.401722
0.396602
0.480324
0.385742
0.435877
0.348251
0.234459
0.266742
-0.0506473
-0.148223
-0.218124
-0.119096
-0.229304
-0.0825249
-0.280918
-0.046323
-0.286886
-0.00925656
-0.297265
0.028744
-0.306805
0.0651529
-0.298353
0.0973795
-0.272196
0.125605
-0.244492
0.150409
-0.217917
0.171552
-0.189119
0.189734
-0.164188
0.205807
-0.144265
0.220178
-0.127021
0.233277
-0.113395
0.245461
-0.102474
0.256926
-0.0937355
0.2678
-0.0868269
0.278199
-0.0816028
0.288217
-0.0774583
0.297892
-0.0742661
0.30719
-0.0712765
0.3161
-0.0677655
0.324424
-0.0613523
0.331885
-0.0525577
0.338321
-0.0441696
0.343783
-0.0361044
0.348247
-0.0283835
0.35179
-0.020936
0.354459
-0.0137883
0.356308
-0.00687535
0.357327
-0.000247461
0.357544
0.00624468
0.357032
0.0125567
0.355575
0.018796
0.352862
0.0258293
0.348253
0.0365053
0.34031
0.0695091
0.326343
0.107861
-0.17668
0.206825
-0.245799
0.237248
-0.250743
0.271915
-0.274016
0.302074
-0.245075
0.33159
-0.238805
0.360477
-0.228562
0.386448
-0.20574
0.410414
-0.187885
0.432426
-0.168506
0.452121
-0.148293
0.469966
-0.130393
0.486074
-0.11247
0.500283
-0.0952678
0.512789
-0.0786663
0.523728
-0.062047
0.532839
-0.0455374
0.540214
-0.0284901
0.545716
-0.0115439
0.549374
0.00611103
0.551055
0.02336
0.550595
0.0409246
0.548114
0.056428
0.543553
0.0700262
0.537231
0.0792453
0.529637
0.0834708
0.521238
0.0877986
0.512158
0.0946923
0.501939
0.101942
0.490639
0.109594
0.478364
0.118891
0.464445
0.132215
0.44944
0.154458
0.433702
0.191957
0.421596
0.271234
0.42003
0.403401
0.419987
0.480206
0.410419
0.445445
0.374608
0.270271
0.296285
0.0280518
-0.146992
-0.247829
-0.116402
-0.259906
-0.0778689
-0.319464
-0.0398092
-0.32496
-0.00104186
-0.336049
0.0388092
-0.346675
0.0767762
-0.336339
0.110261
-0.305699
0.139409
-0.273659
0.164882
-0.243408
0.186388
-0.210643
0.204716
-0.182534
0.220832
-0.160396
0.235161
-0.141366
0.248203
-0.126451
0.260363
-0.114649
0.271833
-0.10522
0.282776
-0.0977833
0.293333
-0.0921722
0.30354
-0.087679
0.313415
-0.084153
0.323002
-0.0808772
0.332222
-0.0770008
0.340877
-0.0700263
0.348687
-0.0603937
0.355507
-0.0510281
0.361299
-0.0419547
0.366106
-0.033267
0.369931
-0.0248329
0.372855
-0.0167344
0.374937
-0.00891815
0.376106
-0.00139053
0.37645
0.00592339
0.376003
0.0130682
0.374531
0.0202339
0.371752
0.0286595
0.367058
0.0412275
0.359293
0.0773163
0.3437
0.123492
-0.177395
0.209112
-0.277527
0.241112
-0.282761
0.277703
-0.310618
0.309526
-0.27691
0.340643
-0.269934
0.37099
-0.258921
0.398099
-0.232861
0.423271
-0.213067
0.446297
-0.191542
0.466906
-0.168914
0.485516
-0.149015
0.502234
-0.1292
0.517204
-0.110249
0.530509
-0.0919804
0.541999
-0.0735397
0.551832
-0.0553684
0.559869
-0.0365199
0.566088
-0.0177532
0.570325
0.00188204
0.572589
0.0211005
0.572766
0.0407481
0.570815
0.058373
0.566836
0.073995
0.561067
0.0850153
0.553915
0.0906903
0.545827
0.0960985
0.536823
0.103881
0.526514
0.112086
0.515134
0.120904
0.502645
0.131544
0.488513
0.146131
0.473401
0.169535
0.457636
0.207879
0.444947
0.283771
0.442366
0.406109
0.442202
0.480233
0.432923
0.454721
0.3982
0.305028
0.325884
0.1005
-0.14604
-0.279201
-0.113936
-0.292022
-0.0733251
-0.360087
-0.0333244
-0.364976
0.00740506
-0.376795
0.0491376
-0.388425
0.0888905
-0.37611
0.123787
-0.340614
0.154021
-0.303911
0.180243
-0.269648
0.202246
-0.232664
0.220822
-0.201126
0.237046
-0.176636
0.251369
-0.155703
0.264361
-0.139457
0.276465
-0.126765
0.287917
-0.116684
0.298902
-0.10878
0.30952
-0.102803
0.319868
-0.0980384
0.329969
-0.094266
0.339794
-0.0907143
0.349277
-0.0864988
0.358266
-0.0790341
0.366429
-0.0685826
0.373601
-0.0582401
0.37976
-0.0481735
0.384887
-0.0384728
0.389026
-0.0290462
0.392211
-0.0199431
0.394497
-0.0111626
0.395865
-0.00273223
0.39632
0.0054905
0.395944
0.0135118
0.394467
0.0216802
0.39166
0.0315157
0.386855
0.0460504
0.379238
0.0849712
0.362568
0.140232
-0.1784
0.211909
-0.311048
0.245663
-0.316532
0.284286
-0.349253
0.31771
-0.310347
0.35043
-0.302665
0.382348
-0.290851
0.410942
-0.261466
0.437236
-0.239372
0.461318
-0.215635
0.48281
-0.190419
0.502289
-0.168507
0.519838
-0.146762
0.535397
-0.12582
0.549291
-0.105883
0.561508
-0.0857602
0.571981
-0.0658387
0.580625
-0.0451556
0.587417
-0.0245353
0.592271
-0.0029638
0.595154
0.018222
0.59594
0.0399614
0.594603
0.0597019
0.591195
0.0773905
0.585949
0.0902628
0.579212
0.0974957
0.571398
0.104128
0.562507
0.112964
0.552217
0.122214
0.540722
0.132329
0.528091
0.144329
0.513753
0.160245
0.498467
0.184802
0.482726
0.223776
0.469744
0.296622
0.465989
0.410007
0.464602
0.48151
0.454683
0.464633
0.420819
0.338916
0.352926
0.168276
-0.145403
-0.312215
-0.111575
-0.325862
-0.0688244
-0.40285
-0.0267296
-0.407086
0.0160504
-0.419591
0.0598445
-0.432236
0.101556
-0.417838
0.137972
-0.377047
0.169402
-0.335358
0.196548
-0.29681
0.219152
-0.255283
0.238073
-0.220062
0.254441
-0.193018
0.268807
-0.170083
0.281767
-0.15243
0.293823
-0.138833
0.30522
-0.128093
0.316195
-0.119766
0.326876
-0.113495
0.337316
-0.108489
0.34756
-0.104522
0.357583
-0.100748
0.367353
-0.0962834
0.37665
-0.0883484
0.385156
-0.0771149
0.392684
-0.0658087
0.399183
-0.0547337
0.404657
-0.0440287
0.40908
-0.0335452
0.412552
-0.0234383
0.415081
-0.0136478
0.416625
-0.00424797
0.41723
0.004906
0.416912
0.0139
0.415459
0.0231092
0.412612
0.0344115
0.407694
0.0509745
0.400175
0.0925187
0.383846
0.156625
-0.179864
0.21509
-0.346285
0.2507
-0.352159
0.291475
-0.390039
0.326742
-0.345627
0.361205
-0.33714
0.394755
-0.324414
0.424756
-0.291479
0.452367
-0.266995
0.477497
-0.240777
0.499955
-0.21289
0.520249
-0.188814
0.538511
-0.165037
0.554854
-0.142174
0.569417
-0.120455
0.582213
-0.0985583
0.593237
-0.0768595
0.602497
-0.0544075
0.609915
-0.0319422
0.615364
-0.00840481
0.618745
0.0148441
0.620093
0.0386123
0.619291
0.0604942
0.616434
0.0802334
0.611754
0.0949435
0.605533
0.103786
0.598021
0.111859
0.589303
0.121878
0.579027
0.132332
0.567476
0.143809
0.554727
0.157218
0.540236
0.174504
0.524801
0.200228
0.508988
0.239742
0.495786
0.309712
0.491009
0.414942
0.488054
0.484382
0.47692
0.475754
0.443401
0.372439
0.377741
0.233601
-0.144959
-0.347136
-0.109462
-0.361371
-0.0643492
-0.447977
-0.0200588
-0.451392
0.0249704
-0.464637
0.0710399
-0.478322
0.114736
-0.461551
0.152869
-0.415196
0.185618
-0.368123
0.213792
-0.324999
0.237094
-0.2786
0.256443
-0.239425
0.273063
-0.209652
0.287526
-0.184558
0.300477
-0.165393
0.312484
-0.150852
0.323828
-0.139448
0.334766
-0.130715
0.345443
-0.124182
0.35595
-0.119008
0.366305
-0.114887
0.376516
-0.11097
0.38651
-0.106292
0.39611
-0.0979657
0.404939
-0.0859695
0.412811
-0.0737218
0.419656
-0.0616419
0.425441
-0.0498967
0.430191
-0.0383724
0.433945
-0.027215
0.436728
-0.0163837
0.438485
-0.00597554
0.439224
0.00418568
0.439003
0.0141944
0.43756
0.0245345
0.434712
0.0373092
0.429698
0.0559845
0.422168
0.100059
0.406862
0.171929
-0.181556
0.218724
-0.383464
0.256295
-0.389745
0.299362
-0.433118
0.336512
-0.382788
0.372751
-0.37339
0.40805
-0.359725
0.439586
-0.323026
0.468501
-0.295921
0.494846
-0.267133
0.518284
-0.23634
0.53952
-0.210063
0.558543
-0.184074
0.57557
-0.159213
0.590775
-0.135669
0.60408
-0.111865
0.615739
-0.0885148
0.62557
-0.0642291
0.633523
-0.0398837
0.639558
-0.0144309
0.643535
0.0108705
0.645401
0.0367438
0.645163
0.0607215
0.642862
0.0825184
0.638699
0.0991072
0.632918
0.109638
0.625735
0.119262
0.617226
0.130589
0.607038
0.142368
0.595471
0.155305
0.582625
0.170191
0.567992
0.1889
0.552442
0.215775
0.536542
0.255792
0.523101
0.323057
0.517357
0.420859
0.51292
0.488757
0.500349
0.488305
0.466671
0.406101
0.401846
0.297932
-0.144863
-0.383845
-0.107336
-0.398911
-0.0598366
-0.495489
-0.0131705
-0.498074
0.0341865
-0.512011
0.0826023
-0.526754
0.12857
-0.507534
0.168507
-0.455149
0.202741
-0.402372
0.232042
-0.354315
0.256147
-0.302719
0.275995
-0.259285
0.292924
-0.226594
0.307521
-0.199166
0.320495
-0.178379
0.332481
-0.16285
0.343776
-0.150754
0.354643
-0.141593
0.365299
-0.134849
0.375838
-0.129558
0.386277
-0.125337
0.396622
-0.121326
0.406838
-0.116521
0.416704
-0.107849
0.425838
-0.0951303
0.434039
-0.081964
0.441222
-0.068889
0.447352
-0.0561116
0.452418
-0.0435171
0.456462
-0.0312804
0.459496
-0.0193681
0.461454
-0.00790098
0.462355
0.00330146
0.46223
0.0143949
0.460824
0.025931
0.457964
0.0402214
0.452885
0.0610532
0.445431
0.107504
0.431179
0.18611
-0.183543
0.22281
-0.422742
0.262403
-0.429353
0.307876
-0.478602
0.346978
-0.421902
0.385141
-0.411565
0.42238
-0.396975
0.455437
-0.356094
0.485783
-0.326279
0.513467
-0.294829
0.537991
-0.260876
0.560098
-0.232183
0.579947
-0.203937
0.597585
-0.176862
0.613436
-0.151529
0.627454
-0.125884
0.63964
-0.100696
0.650025
-0.0746032
0.658494
-0.0483408
0.664959
-0.0208866
0.669442
0.0063915
0.671859
0.034324
0.672097
0.0604723
0.670329
0.0842705
0.666693
0.102744
0.661395
0.115008
0.654618
0.126261
0.646299
0.139113
0.636225
0.1523
0.624715
0.166743
0.611811
0.183205
0.597093
0.203376
0.58143
0.231436
0.5655
0.271865
0.551761
0.336714
0.544967
0.427835
0.539186
0.494491
0.525348
0.502117
0.491129
0.440296
0.426795
0.361706
-0.144849
-0.422555
-0.105433
-0.43834
-0.0552763
-0.54566
-0.00611922
-0.547247
0.0437363
-0.561883
0.094728
-0.577762
0.143003
-0.555824
0.184931
-0.497093
0.22071
-0.438165
0.25129
-0.384909
0.276275
-0.327716
0.296745
-0.279768
0.314051
-0.243911
0.328849
-0.213977
0.3419
-0.191442
0.353864
-0.174825
0.365097
-0.161999
0.375921
-0.152429
0.38653
-0.14547
0.397054
-0.140093
0.407542
-0.135835
0.418015
-0.131811
0.428415
-0.126934
0.438521
-0.117973
0.447963
-0.104598
0.456475
-0.0905179
0.463985
-0.0764635
0.470429
-0.0626424
0.475812
-0.0489794
0.480137
-0.0356263
0.483442
-0.0226211
0.485638
-0.0100619
0.486687
0.00226798
0.486684
0.0144743
0.485333
0.0272817
0.482474
0.0431367
0.477365
0.0661535
0.469956
0.114886
0.456763
0.199182
-0.185874
0.227299
-0.464177
0.269019
-0.471088
0.317002
-0.526596
0.358166
-0.463078
0.398436
-0.451846
0.437622
-0.436172
0.472373
-0.390856
0.504265
-0.358181
0.533233
-0.323808
0.558839
-0.286494
0.581923
-0.25528
0.602628
-0.224655
0.621109
-0.195353
0.637566
-0.167992
0.652139
-0.140458
0.664869
-0.113421
0.675759
-0.0854817
0.684733
-0.0573021
0.691786
-0.0279286
0.696728
0.00145392
0.699584
0.0314651
0.70036
0.0596854
0.699065
0.08555
0.695923
0.105887
0.691073
0.119933
0.684666
0.132889
0.676635
0.147352
0.666715
0.16209
0.655251
0.178137
0.642328
0.196221
0.627565
0.217892
0.611852
0.247143
0.595843
0.288009
0.581804
0.350677
0.573927
0.435899
0.566872
0.501508
0.551888
0.517072
0.517117
0.475044
0.45346
0.424825
-0.145019
-0.463426
-0.103458
-0.479914
-0.0505928
-0.598539
0.00119803
-0.599054
0.0537079
-0.614409
0.107397
-0.631468
0.158183
-0.606626
0.202201
-0.541126
0.239693
-0.475673
0.271615
-0.416844
0.29761
-0.353724
0.318744
-0.300915
0.336491
-0.261669
0.351546
-0.229043
0.364709
-0.204615
0.376695
-0.186822
0.387884
-0.173201
0.39864
-0.163197
0.409194
-0.156035
0.419697
-0.150608
0.4302
-0.14635
0.440746
-0.142369
0.451307
-0.137509
0.461664
-0.128348
0.471364
-0.114325
0.480166
-0.0993629
0.487987
-0.0843506
0.49475
-0.0694931
0.500446
-0.0547561
0.50508
-0.04028
0.508654
-0.0261387
0.511059
-0.0124286
0.512306
0.00103302
0.512414
0.0144442
0.511133
0.028572
0.508292
0.0460369
0.503175
0.0712721
0.495878
0.122142
0.483724
0.21119
-0.188407
0.232053
-0.507834
0.276099
-0.515148
0.326755
-0.577263
0.370147
-0.506482
0.412569
-0.494279
0.453783
-0.477397
0.490378
-0.42746
0.523867
-0.39168
0.554206
-0.354157
0.581028
-0.313328
0.605225
-0.279488
0.626768
-0.24621
0.645992
-0.214587
0.66315
-0.185156
0.678292
-0.155599
0.691584
-0.126706
0.70297
-0.096856
0.712458
-0.0667762
0.719924
-0.0353831
0.725368
-0.00398505
0.728675
0.0281572
0.729875
0.0584754
0.729082
0.0863277
0.726409
0.108564
0.722042
0.124377
0.716002
0.139151
0.708246
0.155319
0.698515
0.171703
0.687136
0.189446
0.67425
0.209183
0.659469
0.232425
0.643717
0.262879
0.627665
0.304186
0.613331
0.364937
0.60435
0.445067
0.595947
0.509876
0.579947
0.533034
0.544816
0.510164
0.482219
0.486957
-0.145328
-0.50652
-0.101553
-0.523701
-0.0458151
-0.654291
0.00881031
-0.653696
0.0641022
-0.669718
0.120613
-0.687995
0.174114
-0.660142
0.220335
-0.587363
0.259674
-0.515027
0.293055
-0.450238
0.320115
-0.380797
0.342007
-0.322818
0.360284
-0.279957
0.37565
-0.244421
0.388965
-0.217941
0.401015
-0.198884
0.412187
-0.184384
0.422888
-0.17391
0.433376
-0.166535
0.443825
-0.161069
0.454337
-0.156874
0.464937
-0.152981
0.47563
-0.148217
0.486174
-0.138911
0.496118
-0.124297
0.505212
-0.108501
0.513327
-0.0925324
0.520409
-0.0766649
0.5264
-0.0608286
0.531331
-0.0452296
0.535177
-0.0299243
0.537839
-0.0150496
0.539259
-0.000377008
0.53949
0.0142901
0.538299
0.0297809
0.535484
0.0489171
0.530423
0.076351
0.523233
0.129282
0.512042
0.222232
-0.191247
0.237293
-0.553891
0.283774
-0.561643
0.337119
-0.630619
0.382962
-0.552337
0.427553
-0.53888
0.471023
-0.520877
0.509458
-0.465905
0.544651
-0.426882
0.576516
-0.386031
0.60463
-0.341452
0.629799
-0.304669
0.652356
-0.268778
0.672325
-0.234564
0.690174
-0.203009
0.706014
-0.171437
0.719812
-0.140496
0.731733
-0.108764
0.741676
-0.0767054
0.749639
-0.0433342
0.755488
-0.00982746
0.759214
0.0244306
0.760891
0.0567891
0.760488
0.0867176
0.758268
0.11079
0.754314
0.12841
0.748652
0.145032
0.741209
0.162975
0.731702
0.181109
0.720495
0.200587
0.707651
0.222085
0.69289
0.246937
0.677113
0.278628
0.66101
0.320404
0.646391
0.37948
0.636268
0.455372
0.626542
0.519567
0.609516
0.55001
0.574211
0.545466
0.513179
0.547611
-0.145826
-0.551957
-0.0996698
-0.569871
-0.0408484
-0.713127
0.0166912
-0.711252
0.0749798
-0.728023
0.134514
-0.747545
0.190772
-0.716416
0.239429
-0.636036
0.280693
-0.556306
0.315679
-0.485238
0.343917
-0.409048
0.366649
-0.345563
0.385505
-0.298824
0.401236
-0.260163
0.414763
-0.23148
0.426882
-0.211014
0.438076
-0.19559
0.448718
-0.184565
0.45914
-0.17697
0.469532
-0.171474
0.480019
-0.167373
0.490654
-0.163629
0.501462
-0.15904
0.512188
-0.149657
0.522363
-0.1345
0.5317
-0.117883
0.540088
-0.100989
0.54745
-0.0841178
0.553753
-0.0672141
0.558966
-0.0504596
0.563099
-0.0339941
0.565987
-0.0178931
0.567618
-0.00200241
0.568012
0.0139712
0.566889
0.0309311
0.56416
0.0517161
0.559149
0.0814044
0.552149
0.136231
0.541895
0.232355
-0.194312
0.242884
-0.602474
0.291837
-0.610611
0.348235
-0.687028
0.396394
-0.600507
0.44349
-0.585987
0.48922
-0.566617
0.529747
-0.506442
0.566664
-0.463807
0.600097
-0.419473
0.62953
-0.370895
0.655956
-0.331105
0.679427
-0.292259
0.700311
-0.255456
0.71889
-0.221591
0.735331
-0.187876
0.749714
-0.154869
0.762113
-0.12115
0.772497
-0.0870736
0.780845
-0.0516707
0.787126
-0.0161014
0.791297
0.02026
0.793307
0.0547718
0.793323
0.0866904
0.791542
0.11258
0.788002
0.13203
0.782755
0.150498
0.775621
0.170323
0.766347
0.190299
0.755281
0.21159
0.742551
0.234857
0.727852
0.261388
0.71208
0.294358
0.695931
0.336654
0.68099
0.394339
0.669824
0.466708
0.658716
0.53064
0.64065
0.568009
0.605391
0.580724
0.546295
0.6064
-0.146422
-0.599863
-0.0977622
-0.618544
-0.0357225
-0.77518
0.0248938
-0.771884
0.0863295
-0.789474
0.149062
-0.810293
0.208336
-0.775706
0.259485
-0.6872
0.302836
-0.599672
0.339492
-0.521909
0.369011
-0.438581
0.392672
-0.369236
0.412174
-0.318338
0.428344
-0.276344
0.442123
-0.24527
0.454374
-0.223276
0.465586
-0.206814
0.476204
-0.195194
0.486562
-0.18734
0.496916
-0.18184
0.507351
-0.17782
0.518012
-0.174304
0.528897
-0.169941
0.539783
-0.160563
0.550163
-0.144909
0.559718
-0.127485
0.568381
-0.109723
0.576019
-0.0918479
0.582585
-0.0738636
0.588112
-0.0560024
0.592507
-0.0383227
0.595654
-0.0209914
0.597467
-0.00381274
0.598013
0.0134967
0.59703
0.0319477
0.594356
0.0544641
0.589475
0.086357
0.582641
0.143019
0.573296
0.241605
-0.197657
0.248848
-0.653676
0.30047
-0.662248
0.359917
-0.746486
0.410785
-0.651386
0.460321
-0.635534
0.508566
-0.614871
0.551106
-0.54899
0.589959
-0.502668
0.625076
-0.454599
0.655976
-0.401804
0.683564
-0.358703
0.708164
-0.316869
0.72991
-0.277207
0.749259
-0.240942
0.766317
-0.204931
0.781307
-0.169849
0.794181
-0.13401
0.805009
-0.0978863
0.813816
-0.0604659
0.820459
-0.0227377
0.824972
0.0157482
0.827369
0.052368
0.827758
0.0862933
0.826361
0.113989
0.823232
0.135242
0.81833