/*--------------------------------*- C++ -*----------------------------------*\
| =========                 |                                                 |
| \\      /  F ield         | OpenFOAM: The Open Source CFD Toolbox           |
|  \\    /   O peration     | Version:  2312                                  |
|   \\  /    A nd           | Website:  www.openfoam.com                      |
|    \\/     M anipulation  |                                                 |
\*---------------------------------------------------------------------------*/
FoamFile
{
    version     2.0;
    format      ascii;
    arch        "LSB;label=32;scalar=64";
    class       volScalarField;
    location    "250";
    object      turbulenceProperties:nuEff;
}
// * * * * * * * * * * * * * * * * * * * * * * * * * * * * * * * * * * * * * //

dimensions      [0 2 -1 0 0 0 0];

internalField   nonuniform List<scalar> 
10720
(
7.85922e-05
0.000119768
0.000154319
0.000160831
0.000147252
0.000134252
0.000129463
0.000133191
0.00014632
0.000169797
0.00020749
0.00026904
0.000371266
0.000555347
0.00090974
0.00168958
0.0033288
0.00714781
0.0143128
0.0244357
0.0399296
0.0691836
0.133998
0.264831
0.464782
0.65459
1.32063
2.19992
1.53007
0.547003
0.162609
0.0176026
0.00353313
0.000378357
1e-05
1e-05
1.72745e-05
0.00108307
0.156959
8.62259e-05
0.000105094
9.73761e-05
0.000167484
6.1643e-05
0.000118064
0.000167595
0.000205325
0.000216203
0.000206027
0.000202419
0.000214155
0.000242869
0.000306395
0.00040559
0.000645501
0.000999377
0.00289
0.00318744
0.00372008
0.00495388
0.00704715
0.00887411
0.0118479
0.0155625
0.0195667
0.0162711
0.0088717
0.0033816
0.00088388
0.000117827
1.52256e-05
1.09914e-05
1.03421e-05
1e-05
0.00145724
0.0868922
0.171707
0.488489
0.000382966
0.000376349
0.000334845
0.00021928
0.000137062
9.21467e-05
7.40057e-05
6.81994e-05
6.8382e-05
7.16214e-05
7.72637e-05
8.34481e-05
0.000102715
0.000162962
0.000325809
0.000765479
0.00184674
0.00439273
0.00964466
0.0187554
0.0323694
0.0527537
0.0876259
0.169005
0.496953
0.578612
1.39013
1.49138
1.28018
1.75295
1.06975
0.26575
0.067116
0.00683693
0.000119587
1e-05
0.000118907
0.0137164
0.13077
6.09599e-05
4.0982e-05
3.10535e-05
9.44847e-05
0.000103283
0.000115093
8.96382e-05
9.31777e-05
0.000107268
0.000123612
0.000142243
0.000161935
0.000180271
0.000198529
0.000201906
0.00137333
0.00227233
0.00627018
0.0107173
0.000433172
0.0049272
0.00209922
0.010754
0.00356312
0.000594492
0.00153851
9.03472e-05
0.000234033
0.000226296
0.000193856
0.000114155
5.6861e-05
2.71933e-05
1.5451e-05
1.01126e-05
0.000368569
0.0241542
0.0487996
0.506875
7.81619e-05
9.22114e-05
3.34177e-05
2.36103e-05
5.74351e-05
9.62696e-05
0.000102256
0.000109443
0.000117422
0.000125606
0.000133813
0.000141926
0.000148937
0.000153733
0.000161856
0.000207858
0.000348433
0.000860869
0.00228226
0.00571225
0.0130055
0.0284379
0.0656743
0.0105379
0.370437
0.668955
1.03187
0.896142
0.561297
0.457473
0.425533
0.286591
0.076392
0.0107587
0.000814006
1e-05
0.00023169
0.012804
0.0693509
0.000104758
0.000116557
0.000157094
0.000152653
0.000121367
0.000103675
0.000104688
0.000113705
0.000127467
0.000149205
0.000182252
0.000229495
0.000294148
0.000381491
0.00049964
0.000652222
0.000800008
0.000811484
0.000327084
0.0011078
5.02368e-05
0.00112598
0.00484299
5.75423e-05
0.00504634
0.0117735
0.000619636
0.00127574
0.00112915
0.000895356
0.00055042
0.000234164
0.000103562
5.30019e-05
5.3074e-05
1e-05
0.0643047
0.205524
2.37198
0.00021404
0.000215428
0.000215715
0.000218582
0.00022238
0.000228628
0.000237043
0.000248095
0.000262159
0.000279977
0.000302317
0.000329905
0.00036891
0.000412379
0.000461138
0.000534044
0.000619583
0.000703744
0.000529427
0.000181223
1e-05
1e-05
1e-05
0.00256827
0.0186393
1.00003e-05
1e-05
1e-05
1.00001e-05
1.00009e-05
1.00637e-05
8.15929e-05
0.0211932
0.0219446
0.00599493
0.000884668
0.000997111
0.0873543
0.0603629
0.0002602
0.00023896
0.000207735
0.000201207
0.000209183
0.00019276
0.000146595
0.000155957
0.00016972
0.000184292
0.00020021
0.000220127
0.000239356
0.000257081
0.000281313
0.000307691
0.00027305
0.000276756
8.46568e-05
0.00020069
0.000258979
0.000345316
0.000338808
0.000303253
0.000354085
0.000370836
0.000387224
0.000394258
0.000392879
0.000397823
0.000389603
0.00036186
0.000320276
0.000250402
0.000394641
0.000109331
1e-05
0.072472
4.95999
0.000454726
0.000446161
0.000448841
0.000456047
0.000466564
0.000484188
0.000506776
0.00053536
0.000570863
0.000613022
0.000661977
0.000717421
0.000778316
0.000843341
0.000910968
0.000979132
0.00105395
0.00114514
0.00125397
0.000940369
0.000347918
0.000145227
1e-05
1e-05
0.00405519
1.00001e-05
1e-05
1e-05
1e-05
1e-05
1e-05
1.00002e-05
1.00211e-05
1e-05
0.0102045
0.00763406
0.00388484
0.0885105
0.053137
0.00043687
0.000425427
0.000289359
0.000208244
0.000153978
0.000484634
0.000521345
0.000567227
0.000626703
0.000705458
0.000774403
0.000756619
0.000738787
0.000720139
0.000699075
0.000712454
0.000665156
0.000594317
0.000583881
0.000576077
0.000565237
0.00054512
0.000522102
0.000502338
0.000485391
0.000469572
0.000454668
0.00044134
0.000430559
0.000421296
0.000409023
0.000398634
0.000395511
0.000408162
0.000362062
0.000540895
2.04162e-05
0.0570152
5.67313
0.000773241
0.000773688
0.000785423
0.000797894
0.000805178
0.000758416
0.000725287
0.000701463
0.00068822
0.000687525
0.000698412
0.000720214
0.00075269
0.000796386
0.000852301
0.000925044
0.00101299
0.00113651
0.00131986
0.00150235
0.00152244
0.000714243
0.000181075
7.98416e-05
1e-05
1e-05
1e-05
1e-05
1e-05
1e-05
1e-05
1e-05
1e-05
1e-05
1e-05
1e-05
1e-05
1.00073e-05
3.89099e-05
0.000374197
0.000182656
0.000157642
0.000858374
0.000901821
0.000954827
0.00101608
0.00109443
0.00119695
0.00133058
0.00150139
0.00171498
0.00197843
0.00207232
0.00205311
0.00202828
0.00200736
0.00197576
0.00193431
0.00189531
0.00185712
0.00181738
0.00177625
0.00173474
0.00169117
0.00164578
0.00160271
0.0015616
0.00152388
0.00149172
0.00146197
0.0014201
0.00141731
0.00129289
0.00114625
0.00120784
3.39065e-05
0.0421615
4.29528
0.000151912
0.000169926
0.000168482
0.00016992
0.000174882
0.000183266
0.000189887
0.000197893
0.000206251
0.000214862
0.000225189
0.000236596
0.000249222
0.000263679
0.000279752
0.000299268
0.000321722
0.000358889
0.000398064
0.000198414
0.000453199
0.000648475
0.000699951
0.000362963
0.000205757
1e-05
1e-05
1e-05
1e-05
1e-05
1e-05
1e-05
1e-05
1e-05
1e-05
1e-05
1e-05
1e-05
1e-05
0.000291924
0.00090227
0.00149005
0.00154576
0.00159967
0.00155885
0.00157766
0.00158891
0.00161787
0.00165199
0.00168382
0.00172142
0.00176416
0.00180569
0.00185179
0.00189846
0.00191954
0.00191404
0.00189615
0.00187272
0.00184487
0.00181311
0.00177774
0.00173899
0.0016961
0.00165204
0.00161141
0.00157277
0.00153759
0.00150735
0.00148305
0.00146526
0.00144573
0.00141648
0.00136875
0.00145764
4.06921e-05
0.0343441
2.24953
0.000350608
0.000349174
0.000393495
0.000474577
0.000529498
0.00060284
0.00067164
0.00072772
0.0007728
0.000808275
0.000835541
0.000855444
0.000868841
0.000876712
0.000878335
0.000879746
0.000878595
0.000923913
0.000828599
0.00066371
0.000647878
0.000698915
0.000794987
0.000813276
0.000920957
1e-05
1e-05
1e-05
1e-05
1e-05
1e-05
1e-05
1e-05
1e-05
1e-05
1e-05
1e-05
1e-05
1e-05
0.00144853
0.00201909
0.0016948
0.000847042
0.000389936
0.00026971
0.000292299
0.000303759
0.000324308
0.000357604
0.000398022
0.000442046
0.000491977
0.000548855
0.00060894
0.000663246
0.000690496
0.00069769
0.000695265
0.000686417
0.000672749
0.000655667
0.00063642
0.000616002
0.000595967
0.000577568
0.000561493
0.000547649
0.000536626
0.000528227
0.000522653
0.000527918
0.000551286
0.000594266
0.000629036
0.000893584
2.97741e-05
0.0232419
1.302
0.00176888
0.00169186
0.00166377
0.00164058
0.00165013
0.00167667
0.00169798
0.00170174
0.00170212
0.00170177
0.00170123
0.00170038
0.00169742
0.00169656
0.00168589
0.00168499
0.00170243
0.00168876
0.00161886
0.00149978
0.00136528
0.00124614
0.00117282
0.00105982
0.00131349
1.00001e-05
1e-05
1e-05
1e-05
1e-05
1e-05
1e-05
1e-05
1e-05
1e-05
1e-05
1e-05
1e-05
1e-05
0.0019373
0.00115499
0.000197836
0.000144824
6.36469e-05
4.99189e-05
5.3094e-05
5.42985e-05
5.64563e-05
6.13038e-05
6.74477e-05
7.43722e-05
8.27861e-05
9.27183e-05
0.000103851
0.000114901
0.000122225
0.000126934
0.000130139
0.000132197
0.000133255
0.000133469
0.000132956
0.000131839
0.000130471
0.000129123
0.000127996
0.000127136
0.00012668
0.000126587
0.000126946
0.000129627
0.00013644
0.000147872
0.000162092
0.000200463
1.44742e-05
0.0124837
0.647065
0.00148269
0.00132974
0.00124488
0.00118855
0.00112358
0.00105321
0.00099861
0.000956913
0.000928457
0.000912391
0.000906801
0.000910734
0.000915895
0.000941064
0.000988232
0.00101648
0.00104361
0.00109797
0.00117862
0.00125252
0.00128558
0.00127062
0.00124972
0.00114204
0.00135094
1.00006e-05
1e-05
1e-05
1e-05
1e-05
1e-05
1e-05
1e-05
1e-05
1e-05
1e-05
1e-05
1e-05
1e-05
0.00062775
0.000230663
6.41828e-05
0.000106972
1.81985e-05
2.99307e-05
2.40237e-05
2.00804e-05
1.2946e-05
0.000131833
0.000129088
0.000126959
0.000125573
0.000124167
0.000124689
0.000125029
0.000125315
0.000126032
0.000127108
0.000128375
0.000129705
0.000130975
0.000131946
0.000132489
0.000132647
0.000132608
0.000132537
0.000132408
0.000132285
0.00013213
0.00013197
0.000131672
0.000128446
0.000122362
0.00011133
0.00015084
3.66344e-05
0.00482571
0.23618
0.000274971
0.000303777
0.00018071
0.000103656
4.70968e-05
0.000159366
0.000147648
0.000143712
0.000141659
0.000140902
0.000142473
0.000145614
0.00014918
0.000156383
0.000170621
4.3962e-05
9.27713e-05
0.000152229
0.000236802
0.000375385
0.00055249
0.000713209
0.000840203
0.000859866
0.00115601
1.00028e-05
1e-05
1e-05
1e-05
1e-05
1e-05
1e-05
1e-05
1e-05
1e-05
1e-05
1e-05
1e-05
1e-05
0.000119445
0.000102137
0.000232087
0.000740943
0.000915429
0.000915477
0.000908835
0.000902047
0.000893538
0.000883452
0.000871956
0.000859279
0.000844759
0.000827467
0.000820051
0.000807854
0.000795378
0.00078314
0.000771335
0.000759823
0.000748352
0.000736149
0.000722926
0.000709471
0.000696495
0.000684056
0.000672309
0.00066094
0.000650242
0.000639871
0.000630104
0.000620044
0.000595955
0.000558701
0.000498766
0.000463736
0.000135565
0.0011522
0.0530257
7.53745e-05
8.64399e-05
8.22643e-05
7.81597e-05
8.12356e-05
8.64793e-05
9.33207e-05
9.97842e-05
0.000105139
0.000109007
0.000112696
0.000115743
0.000118425
0.000120942
0.000122876
0.000129906
0.000139311
0.000150687
0.000167314
0.000197328
3.78405e-05
0.000171582
0.000334254
0.00042255
0.000786823
1.00111e-05
1e-05
1e-05
1e-05
1e-05
1e-05
1e-05
1e-05
1e-05
1e-05
1e-05
1e-05
1e-05
1e-05
0.000183306
0.000572204
0.0011082
0.00115666
0.00113229
0.00112967
0.00112539
0.00112247
0.00111973
0.00111685
0.00111144
0.00110419
0.00109341
0.00108021
0.00106603
0.00105298
0.00104062
0.00102854
0.00101632
0.00100351
0.000989602
0.000974274
0.000958031
0.00094184
0.000926299
0.000911339
0.000896961
0.000882881
0.000869602
0.000856616
0.000844411
0.000834166
0.000822465
0.000804335
0.000775319
0.000726526
0.000667429
3.85177e-05
0.000544936
0.0002756
0.000323974
0.000378792
0.000442963
0.000516242
0.000583728
0.000638325
0.000681748
0.000715338
0.000739803
0.000756964
0.000768007
0.000774888
0.00077797
0.000776454
0.000771566
0.000765709
0.000757935
0.000750138
0.00074698
0.000654113
0.000532018
0.000516457
0.000475053
0.000695868
1.00588e-05
1e-05
1e-05
1e-05
1e-05
1e-05
1e-05
1e-05
1e-05
1e-05
1e-05
1e-05
1e-05
1e-05
0.000876025
0.00116493
0.000899288
0.000533658
0.00042699
0.000427545
0.000430417
0.000433255
0.000437631
0.000443676
0.00044711
0.000449539
0.000451335
0.000452988
0.000454358
0.000455179
0.000455245
0.000454404
0.000452479
0.000449299
0.000444892
0.000439585
0.000433675
0.000427647
0.000421894
0.000416291
0.000410883
0.00040565
0.00040087
0.000396498
0.000392512
0.000389949
0.000396199
0.000412744
0.000436431
0.000457736
0.000550144
6.04425e-05
0.000140177
0.00104872
0.00100139
0.0010001
0.0010202
0.00105434
0.00107727
0.00109511
0.00110693
0.00111483
0.00112013
0.00112384
0.00112567
0.00113163
0.00113887
0.00114267
0.00114534
0.00114815
0.00114477
0.00115356
0.00116247
0.00110588
0.000998023
0.000901964
0.000774037
0.000831009
1.0379e-05
1e-05
1e-05
1e-05
1e-05
1e-05
1e-05
1e-05
1e-05
1e-05
1e-05
1e-05
1e-05
1e-05
0.00107192
0.000583756
0.000132379
9.86606e-05
7.13554e-05
7.33175e-05
7.44936e-05
7.43807e-05
7.44961e-05
7.51417e-05
7.4918e-05
7.47729e-05
7.51988e-05
7.57986e-05
7.67626e-05
7.81256e-05
7.96472e-05
8.1335e-05
8.30736e-05
8.47811e-05
8.64004e-05
8.7935e-05
8.93359e-05
9.05336e-05
9.14493e-05
9.21777e-05
9.28332e-05
9.34102e-05
9.39643e-05
9.45086e-05
9.49931e-05
9.57179e-05
9.8357e-05
0.000103626
1.89805e-05
6.88617e-05
0.000172757
0.000183147
1.41495e-05
0.000804917
0.000728859
0.000679859
0.000636621
0.000599734
0.000570038
0.000549338
0.000533058
0.000521916
0.000516651
0.000516825
0.000519252
0.000534752
0.000558852
0.000577208
0.000594679
0.000613412
0.000645306
0.000688082
0.000738466
0.000810827
0.000871171
0.0008789
0.000820918
0.000860943
1.19827e-05
1e-05
1e-05
1e-05
1e-05
1e-05
1e-05
1e-05
1e-05
1e-05
1e-05
1e-05
1e-05
1e-05
0.00031627
0.000123063
3.70433e-05
4.06705e-05
4.28042e-05
4.37778e-05
4.40608e-05
4.35155e-05
4.28815e-05
4.23579e-05
4.14936e-05
4.06782e-05
4.01818e-05
3.97911e-05
3.96339e-05
3.97287e-05
3.9983e-05
4.03965e-05
4.09429e-05
4.15801e-05
4.22705e-05
4.30111e-05
4.37756e-05
4.44828e-05
4.50291e-05
4.54755e-05
4.58721e-05
4.62112e-05
4.65064e-05
4.67657e-05
4.69593e-05
4.70677e-05
4.65236e-05
4.37974e-05
4.13753e-05
4.70798e-05
6.56956e-05
6.92159e-05
1.33419e-05
0.000129529
0.000129287
5.1423e-05
0.000102635
9.41501e-05
9.13016e-05
8.75238e-05
8.54455e-05
8.41826e-05
8.3502e-05
8.4293e-05
8.55805e-05
8.90342e-05
9.42302e-05
9.88332e-05
0.000103602
0.000110231
2.4856e-05
5.07225e-05
9.05782e-05
0.000176413
0.000292201
0.000420743
0.000512098
0.000616343
1.67943e-05
1e-05
1e-05
1e-05
1e-05
1e-05
1e-05
1e-05
1e-05
1e-05
1e-05
1e-05
1e-05
1e-05
6.48334e-05
4.85241e-05
7.76392e-05
0.000231328
0.000241575
0.000241596
0.000241483
0.000241035
0.000240249
0.000239379
0.000238245
0.000236843
0.000235399
0.00023394
0.000232432
0.000230912
0.00022939
0.000227841
0.000226269
0.000224666
0.000223038
0.000221392
0.000219716
0.000218038
0.000216363
0.000214594
0.000212718
0.000210707
0.000208646
0.000206602
0.000204397
0.000201955
0.000196388
0.000180096
0.000155486
0.000124065
8.48569e-05
9.48236e-05
1.88395e-05
3.63145e-05
4.09298e-05
3.79409e-05
3.59282e-05
4.04036e-05
4.47528e-05
4.52053e-05
4.57038e-05
4.6702e-05
4.75009e-05
4.84946e-05
4.93917e-05
5.01964e-05
5.10295e-05
5.17528e-05
5.24392e-05
5.31146e-05
5.61997e-05
6.12045e-05
6.86213e-05
8.07696e-05
9.84445e-05
0.000119899
8.47273e-05
0.000211493
2.33491e-05
1e-05
1e-05
1e-05
1e-05
1e-05
1e-05
1e-05
1e-05
1e-05
1e-05
1e-05
1e-05
1e-05
9.48781e-05
0.000258032
0.000571695
0.000649929
0.000650599
0.000645875
0.000642312
0.000640423
0.00063931
0.000638551
0.000637833
0.000636929
0.000635946
0.000634804
0.000633359
0.000631622
0.000629577
0.000627169
0.000624382
0.000621165
0.000617536
0.00061351
0.000609058
0.000604278
0.000599295
0.000593985
0.000588393
0.000582495
0.000576507
0.000570665
0.000564486
0.000558224
0.000551314
0.000534042
0.00050554
0.000463944
0.000398912
0.000324551
0.000232617
9.04402e-05
0.000122785
0.000167344
0.000203316
0.000233667
0.000261652
0.000268437
0.000272161
0.000279607
0.000287082
0.000293515
0.000298614
0.000302339
0.000304683
0.000305691
0.000305749
0.000305264
0.000304297
0.000302871
0.00030015
0.000274078
0.000245734
0.000186147
0.000147295
0.000156511
3.99394e-05
1e-05
1e-05
1e-05
1e-05
1e-05
1e-05
1e-05
1e-05
1e-05
1e-05
1e-05
1e-05
1e-05
0.000447973
0.000690672
0.000613997
0.000501963
0.000494471
0.000489882
0.000486129
0.000484439
0.00048401
0.000484117
0.000484719
0.000485533
0.000486282
0.00048692
0.00048733
0.000487423
0.000487169
0.000486545
0.000485493
0.000483961
0.000481936
0.000479434
0.000476407
0.000472957
0.00046932
0.000465508
0.000461523
0.000457357
0.00045314
0.000449069
0.000444997
0.000440863
0.00043862
0.000441184
0.000444121
0.000443638
0.000430862
0.000393179
0.00032087
0.000589978
0.000579109
0.000609025
0.000639973
0.000663072
0.00068647
0.000687617
0.000685559
0.000696228
0.000704093
0.000709742
0.000713818
0.000716759
0.000718549
0.000719144
0.000719204
0.000719205
0.000718538
0.000716885
0.00071343
0.000699965
0.000642998
0.000581184
0.00050718
0.000393277
0.000120757
1e-05
1e-05
1e-05
1e-05
1e-05
1e-05
1e-05
1e-05
1e-05
1e-05
1e-05
1e-05
1e-05
0.000717101
0.00046681
0.00020052
9.36893e-05
8.91284e-05
8.9413e-05
8.84419e-05
8.72379e-05
8.65121e-05
8.6213e-05
8.6169e-05
8.63243e-05
8.66317e-05
8.70646e-05
8.7578e-05
8.81514e-05
8.87592e-05
8.93853e-05
8.99978e-05
9.0576e-05
9.11015e-05
9.15673e-05
9.1979e-05
9.2376e-05
9.27953e-05
9.32024e-05
9.35704e-05
9.38946e-05
9.41868e-05
9.44662e-05
9.47668e-05
9.47751e-05
9.54726e-05
0.000108916
0.000134973
0.000172206
0.000220721
0.000266689
0.000269112
0.000592869
0.000535513
0.000509759
0.000496086
0.000483416
0.000470614
0.000468192
0.000463823
0.00046005
0.000457335
0.000455634
0.000455134
0.000455951
0.000457885
0.000460799
0.000464975
0.000470742
0.000477675
0.000485301
0.000497292
0.000521922
0.000544917
0.000551295
0.00054512
0.000501806
0.000283005
1e-05
1e-05
1e-05
1e-05
1e-05
1e-05
1e-05
1e-05
1e-05
1e-05
1e-05
1e-05
1e-05
0.000281213
2.26026e-05
4.01367e-05
2.26559e-05
2.22075e-05
2.25843e-05
2.2515e-05
2.21212e-05
2.17883e-05
2.15609e-05
2.12408e-05
2.0964e-05
2.082e-05
2.07259e-05
2.07303e-05
2.08622e-05
2.10726e-05
2.13749e-05
2.17537e-05
2.2197e-05
2.26854e-05
2.32149e-05
2.37776e-05
2.43248e-05
2.48059e-05
2.52503e-05
2.56883e-05
2.61171e-05
2.65354e-05
2.69435e-05
2.7349e-05
2.76844e-05
2.81579e-05
3.1378e-05
3.74506e-05
4.61889e-05
1.03748e-05
8.4589e-05
0.000153394
0.00014282
0.000147039
0.000106885
8.20388e-05
6.45812e-05
5.07439e-05
4.05543e-05
3.3805e-05
2.90574e-05
2.58746e-05
2.41988e-05
2.39423e-05
2.50089e-05
2.73302e-05
3.08792e-05
3.56532e-05
4.17958e-05
4.94109e-05
5.81719e-05
6.84228e-05
9.47977e-05
0.000149539
0.000215605
0.000289941
0.000334149
0.000345923
1.00001e-05
1e-05
1e-05
1e-05
1e-05
1e-05
1e-05
1e-05
1e-05
1e-05
1e-05
1e-05
1e-05
6.24292e-05
1.52853e-05
3.76974e-05
4.42895e-05
4.58825e-05
4.72707e-05
4.7828e-05
4.72734e-05
4.64984e-05
4.57598e-05
4.45542e-05
4.33505e-05
4.25062e-05
4.17479e-05
4.12589e-05
4.11429e-05
4.12387e-05
4.15962e-05
4.21873e-05
4.29518e-05
4.38513e-05
4.48641e-05
4.59785e-05
4.70104e-05
4.77836e-05
4.84152e-05
4.9019e-05
4.95897e-05
5.01241e-05
5.06291e-05
5.11088e-05
5.15512e-05
5.19709e-05
5.13145e-05
4.86563e-05
4.34254e-05
3.6008e-05
4.5977e-05
4.49025e-05
2.83524e-05
2.92164e-05
2.45214e-05
2.03808e-05
1.796e-05
1.60256e-05
1.4465e-05
1.42591e-05
1.42094e-05
1.42061e-05
1.4353e-05
1.46297e-05
1.50407e-05
1.55999e-05
1.62889e-05
1.7143e-05
1.82135e-05
1.95436e-05
2.11039e-05
2.29148e-05
2.71078e-05
3.48358e-05
4.52889e-05
1.48567e-05
7.40183e-05
0.00020813
1.00005e-05
1e-05
1e-05
1e-05
1e-05
1e-05
1e-05
1e-05
1e-05
1e-05
1e-05
1e-05
1e-05
3.45868e-05
3.68931e-05
0.000199833
0.00024448
0.000250847
0.00025379
0.000256171
0.000257309
0.000257534
0.00025732
0.000257006
0.000256614
0.000256182
0.000255761
0.000255298
0.000254769
0.000254177
0.000253494
0.000252698
0.000251767
0.000250703
0.000249515
0.000248197
0.00024678
0.000245339
0.000243838
0.000242248
0.000240584
0.000238844
0.000237081
0.000235342
0.000233608
0.000231959
0.000224876
0.000207879
0.000178514
0.000138825
9.75355e-05
8.32539e-05
6.27091e-05
4.45177e-05
4.90859e-05
4.91013e-05
5.06705e-05
5.216e-05
1.01469e-05
1.5804e-05
2.0501e-05
2.40975e-05
2.6932e-05
2.91919e-05
3.09695e-05
3.22566e-05
3.30246e-05
3.34123e-05
3.3584e-05
3.36548e-05
3.36984e-05
3.34331e-05
3.10483e-05
2.00789e-05
5.23002e-05
4.61654e-05
5.63086e-05
8.3676e-05
1.00032e-05
1e-05
1e-05
1e-05
1e-05
1e-05
1e-05
1e-05
1e-05
1e-05
1e-05
1e-05
1e-05
0.000173843
0.000350871
0.00041202
0.000402247
0.000400817
0.000398157
0.000396875
0.000396331
0.000395942
0.000395627
0.000395522
0.000395547
0.000395622
0.000395743
0.000395839
0.000395851
0.000395769
0.000395553
0.00039516
0.00039455
0.000393722
0.000392692
0.000391431
0.000389935
0.000388311
0.00038654
0.00038457
0.000382411
0.000380066
0.000377587
0.000375059
0.000372577
0.000370696
0.00036718
0.000357067
0.00033764
0.000304262
0.00024606
0.000183344
0.000265702
0.000264715
0.000279816
0.000291544
0.000299815
0.000306422
0.000311387
0.000315115
0.000318193
0.000320681
0.000322598
0.000325005
0.0003272
0.000328163
0.000328151
0.00032788
0.000327683
0.000327419
0.00032689
0.000326337
0.000326387
0.000310719
0.00027844
0.000237099
0.000194354
0.000180604
1.00616e-05
1e-05
1e-05
1e-05
1e-05
1e-05
1e-05
1e-05
1e-05
1e-05
1e-05
1e-05
1e-05
0.000440153
0.000381282
0.000249858
0.000207061
0.000199595
0.000194888
0.000191886
0.000190746
0.000190484
0.000190636
0.000191006
0.00019149
0.000191985
0.000192463
0.000192905
0.000193282
0.000193594
0.000193825
0.000193954
0.000193959
0.000193855
0.000193661
0.000193366
0.000192972
0.000192561
0.000192103
0.000191568
0.000190988
0.000190316
0.000189536
0.000188738
0.000187941
0.000187547
0.000191487
0.000201822
0.000215848
0.000227911
0.000228474
0.000201584
0.00043083
0.000399291
0.000396434
0.000395244
0.00039223
0.000388896
0.000386219
0.000383845
0.000382091
0.000380983
0.00037977
0.000380708
0.000382368
0.000381985
0.000381258
0.000381287
0.000381917
0.000382738
0.000383382
0.000384268
0.000388369
0.000390079
0.000379237
0.000361349
0.000326686
0.000286506
1.0934e-05
1.00002e-05
1e-05
1e-05
1e-05
1e-05
1e-05
1e-05
1e-05
1e-05
1e-05
1e-05
1e-05
0.000297852
0.000126681
5.98967e-05
4.05459e-05
3.9893e-05
3.98653e-05
3.94958e-05
3.872e-05
3.8021e-05
3.74567e-05
3.65379e-05
3.56163e-05
3.49596e-05
3.43356e-05
3.39165e-05
3.37979e-05
3.38611e-05
3.41635e-05
3.46793e-05
3.5375e-05
3.62177e-05
3.72039e-05
3.83172e-05
3.93767e-05
4.02034e-05
4.09101e-05
4.16119e-05
4.2306e-05
4.29807e-05
4.3618e-05
4.4231e-05
4.48272e-05
4.54868e-05
4.70061e-05
5.08887e-05
3.07941e-05
6.83527e-05
0.000114005
0.000138864
0.000191901
0.000189348
0.000171124
0.000159484
0.000149881
0.000141612
0.000135312
0.000130401
0.000126651
0.000123955
0.000121269
0.000120884
0.000122282
0.000120993
0.000120161
0.000121608
0.000123474
0.000125667
0.000128182
0.000132605
0.000137819
0.000152319
0.00017838
0.00020682
0.000224202
0.000235036
1.56358e-05
1.00036e-05
1e-05
1e-05
1e-05
1e-05
1e-05
1e-05
1e-05
1e-05
1e-05
1e-05
1e-05
2.60126e-05
2.82633e-05
1.0391e-05
1.32065e-05
1.34262e-05
1.36657e-05
1.37654e-05
1.35327e-05
1.32211e-05
1.2954e-05
1.27005e-05
1.2488e-05
1.2339e-05
1.22158e-05
1.21249e-05
1.2075e-05
1.20498e-05
1.20536e-05
1.20822e-05
1.21346e-05
1.22045e-05
1.22931e-05
1.24012e-05
1.25126e-05
1.26015e-05
1.26738e-05
1.2743e-05
1.28109e-05
1.28777e-05
1.29424e-05
1.3006e-05
1.30684e-05
1.31081e-05
1.29151e-05
1.19056e-05
1.46386e-05
2.24534e-05
3.43185e-05
5.20338e-05
3.57257e-05
3.57026e-05
3.46681e-05
3.19294e-05
3.07153e-05
2.97234e-05
2.84096e-05
2.76007e-05
2.69592e-05
2.63532e-05
2.5912e-05
2.58122e-05
2.59927e-05
2.58839e-05
2.58647e-05
2.62306e-05
2.66964e-05
2.72489e-05
2.78768e-05
2.88197e-05
2.98964e-05
3.24268e-05
3.8053e-05
2.29024e-05
6.29028e-05
0.000100684
2.64831e-05
1.0037e-05
1.00001e-05
1e-05
1e-05
1e-05
1e-05
1e-05
1e-05
1e-05
1e-05
1e-05
1e-05
1.34185e-05
2.63183e-05
1.26057e-05
3.1349e-05
3.24321e-05
3.3442e-05
3.40213e-05
3.30594e-05
3.15847e-05
3.02869e-05
2.93147e-05
2.8583e-05
2.80786e-05
2.77217e-05
2.74464e-05
2.72554e-05
2.71249e-05
2.70416e-05
2.69949e-05
2.69875e-05
2.70009e-05
2.70366e-05
2.71111e-05
2.72219e-05
2.73301e-05
2.73939e-05
2.7429e-05
2.74495e-05
2.74595e-05
2.74583e-05
2.74542e-05
2.74454e-05
2.73152e-05
2.5926e-05
2.02155e-05
1.14725e-05
3.57857e-05
2.99923e-05
1.33698e-05
2.066e-05
1.87491e-05
1.96757e-05
1.96774e-05
2.02072e-05
2.07818e-05
2.09194e-05
2.11592e-05
2.13531e-05
2.14051e-05
2.15304e-05
2.16342e-05
2.17258e-05
2.18638e-05
2.19976e-05
2.21544e-05
2.2324e-05
2.24958e-05
2.26572e-05
2.28073e-05
2.28981e-05
2.22778e-05
2.0494e-05
2.0157e-05
2.45896e-05
3.16137e-05
2.36028e-05
1.01761e-05
1e-05
1e-05
1e-05
1e-05
1e-05
1e-05
1e-05
1e-05
1e-05
1e-05
1e-05
1.86717e-05
0.000127725
0.000192751
0.000202979
0.000203307
0.000203262
0.00020361
0.000202301
0.000200341
0.000198849
0.000198045
0.000197672
0.000197538
0.000197514
0.000197508
0.000197507
0.000197497
0.000197455
0.000197379
0.000197264
0.000197117
0.000196943
0.000196757
0.000196546
0.000196292
0.000195971
0.000195564
0.000195088
0.000194538
0.000193885
0.00019315
0.00019234
0.000191491
0.000190271
0.000182884
0.000168323
0.000144194
0.000111683
8.44243e-05
8.08502e-05
7.31019e-05
7.53542e-05
7.8348e-05
8.15115e-05
8.47724e-05
8.74562e-05
8.97611e-05
9.18127e-05
9.35268e-05
9.49861e-05
9.62293e-05
9.72551e-05
9.80918e-05
9.87596e-05
9.92979e-05
9.97435e-05
0.000100061
0.000100212
0.000100235
9.99019e-05
9.48514e-05
8.20524e-05
6.54843e-05
5.12465e-05
3.34447e-05
2.76946e-05
1.10702e-05
1.00026e-05
1e-05
1e-05
1e-05
1e-05
1e-05
1e-05
1e-05
1e-05
1e-05
1e-05
0.000219854
0.000249769
0.000221405
0.000212609
0.000211508
0.000210217
0.000210492
0.000210477
0.00020986
0.000209544
0.000209704
0.000210102
0.000210521
0.000210891
0.000211208
0.000211134
0.000210903
0.000210595
0.000210261
0.000209914
0.000209569
0.000209234
0.000208893
0.000208497
0.000208057
0.000207587
0.000207066
0.00020649
0.00020586
0.000205142
0.000204358
0.000203522
0.000202645
0.00020298
0.00020345
0.000200765
0.000190942
0.000169944
0.000138216
0.000249763
0.000227559
0.000223968
0.000224446
0.000224856
0.00022549
0.00022621
0.000226934
0.000227828
0.000228727
0.000229579
0.000230387
0.000231069
0.000231625
0.000232083
0.000232519
0.000233
0.000233419
0.000233628
0.000233665
0.00023375
0.000231695
0.000222181
0.000205812
0.000183494
0.000155819
0.000121704
2.14344e-05
1.00769e-05
1.00001e-05
1e-05
1e-05
1e-05
1e-05
1e-05
1e-05
1e-05
1e-05
1e-05
0.0002447
0.000142614
6.59917e-05
5.12454e-05
5.03898e-05
4.96375e-05
4.98072e-05
5.07969e-05
5.13464e-05
5.17287e-05
5.20874e-05
5.23666e-05
5.25121e-05
5.2579e-05
5.26498e-05
5.31762e-05
5.43337e-05
5.56374e-05
5.69224e-05
5.81538e-05
5.93175e-05
6.04299e-05
6.14899e-05
6.24425e-05
6.32389e-05
6.3909e-05
6.4468e-05
6.49131e-05
6.52628e-05
6.55116e-05
6.56784e-05
6.57425e-05
6.56114e-05
6.74434e-05
7.46483e-05
8.43634e-05
9.99853e-05
0.000115274
0.000112994
0.000198285
0.00018871
0.000181056
0.000176328
0.000172057
0.000168139
0.000165377
0.00016333
0.000161905
0.000161026
0.000160443
0.000160061
0.00015982
0.000159656
0.00015958
0.000159646
0.000159891
0.000160257
0.000160654
0.000161078
0.000162048
0.000165874
0.000172295
0.000176629
0.000175388
0.000170982
0.000156579
5.77355e-05
1.08795e-05
1.00022e-05
1e-05
1e-05
1e-05
1e-05
1e-05
1e-05
1e-05
1e-05
1e-05
8.80375e-05
3.77433e-05
1.88962e-05
1.65558e-05
1.65262e-05
1.65568e-05
1.66015e-05
1.6612e-05
1.65236e-05
1.64159e-05
1.6196e-05
1.59433e-05
1.57291e-05
1.55017e-05
1.53202e-05
1.52728e-05
1.53449e-05
1.55028e-05
1.57289e-05
1.60198e-05
1.63662e-05
1.67781e-05
1.72538e-05
1.77198e-05
1.80827e-05
1.83894e-05
1.86924e-05
1.89872e-05
1.92751e-05
1.95515e-05
1.98185e-05
2.00702e-05
2.02867e-05
2.08756e-05
2.25222e-05
2.47319e-05
2.94419e-05
3.29739e-05
5.7472e-05
4.33579e-05
4.93742e-05
4.16021e-05
3.68851e-05
3.3457e-05
3.04825e-05
2.81308e-05
2.64043e-05
2.50807e-05
2.40895e-05
2.33291e-05
2.27336e-05
2.2285e-05
2.19708e-05
2.17842e-05
2.17384e-05
2.18458e-05
2.21108e-05
2.25394e-05
2.30723e-05
2.35566e-05
2.63798e-05
3.84701e-05
5.54143e-05
7.35509e-05
9.23874e-05
0.00010594
8.3825e-05
1.45668e-05
1.00353e-05
1.00003e-05
1e-05
1e-05
1e-05
1e-05
1e-05
1e-05
1e-05
1e-05
2.48639e-05
1.41227e-05
1.74573e-05
1.7672e-05
1.76418e-05
1.78077e-05
1.78238e-05
1.76295e-05
1.74204e-05
1.72273e-05
1.69147e-05
1.65806e-05
1.63094e-05
1.603e-05
1.57993e-05
1.55359e-05
1.53722e-05
1.53039e-05
1.53195e-05
1.54069e-05
1.55524e-05
1.57578e-05
1.60179e-05
1.62697e-05
1.64407e-05
1.65729e-05
1.67118e-05
1.68544e-05
1.70006e-05
1.71469e-05
1.72944e-05
1.74421e-05
1.7592e-05
1.77288e-05
1.73611e-05
1.61887e-05
1.43553e-05
1.72565e-05
2.1543e-05
1.48415e-05
1.57818e-05
1.49548e-05
1.40324e-05
1.35468e-05
1.31286e-05
1.27057e-05
1.24276e-05
1.22108e-05
1.20284e-05
1.19034e-05
1.18045e-05
1.17298e-05
1.16854e-05
1.16615e-05
1.16627e-05
1.16892e-05
1.17418e-05
1.18204e-05
1.19161e-05
1.20039e-05
1.24344e-05
1.42447e-05
1.67645e-05
1.96028e-05
1.07102e-05
3.20992e-05
4.88112e-05
2.1628e-05
1.02748e-05
1.00006e-05
1e-05
1e-05
1e-05
1e-05
1e-05
1e-05
1e-05
1e-05
2.2612e-05
3.98422e-05
5.89614e-05
6.04089e-05
5.94328e-05
5.93714e-05
5.94018e-05
5.93758e-05
5.9421e-05
5.94997e-05
5.96131e-05
5.97315e-05
5.98448e-05
5.9939e-05
6.00245e-05
5.90519e-05
5.84715e-05
5.80867e-05
5.781e-05
5.75904e-05
5.74001e-05
5.72197e-05
5.70371e-05
5.68604e-05
5.6709e-05
5.65753e-05
5.64386e-05
5.62974e-05
5.61549e-05
5.60038e-05
5.58517e-05
5.5696e-05
5.55481e-05
5.53225e-05
5.22034e-05
4.46968e-05
3.38872e-05
2.37044e-05
1.89951e-05
3.04275e-05
2.16746e-05
2.20788e-05
2.16983e-05
2.20188e-05
2.23817e-05
2.22844e-05
2.23296e-05
2.23402e-05
2.22157e-05
2.21877e-05
2.2143e-05
2.20958e-05
2.21108e-05
2.21325e-05
2.21891e-05
2.22739e-05
2.23766e-05
2.24811e-05
2.25773e-05
2.26504e-05
2.26969e-05
2.21126e-05
2.0933e-05
1.93987e-05
1.78853e-05
2.00945e-05
1.23411e-05
2.08657e-05
1.10695e-05
1.0012e-05
1.00002e-05
1e-05
1e-05
1e-05
1e-05
1e-05
1e-05
1e-05
7.84845e-05
0.000137677
0.000137265
0.000137484
0.000137477
0.000137012
0.000136607
0.00013631
0.000136122
0.000136016
0.000136014
0.000136066
0.000136134
0.000136217
0.000136304
0.000136404
0.000136499
0.00013658
0.000136659
0.000136725
0.000136772
0.000136802
0.000136809
0.000136795
0.000136763
0.0001367
0.000136577
0.000136404
0.000136199
0.000135947
0.000135663
0.000135338
0.000135
0.000134965
0.000130118
0.000124098
0.000116938
0.000100821
8.06764e-05
0.000104357
9.30117e-05
9.05291e-05
9.16868e-05
9.33369e-05
9.50686e-05
9.6515e-05
9.76836e-05
9.87274e-05