/*--------------------------------*- C++ -*----------------------------------*\
| =========                 |                                                 |
| \\      /  F ield         | OpenFOAM: The Open Source CFD Toolbox           |
|  \\    /   O peration     | Version:  2312                                  |
|   \\  /    A nd           | Website:  www.openfoam.com                      |
|    \\/     M anipulation  |                                                 |
\*---------------------------------------------------------------------------*/
FoamFile
{
    version     2.0;
    format      ascii;
    arch        "LSB;label=32;scalar=64";
    class       volVectorField;
    location    "250";
    object      U;
}
// * * * * * * * * * * * * * * * * * * * * * * * * * * * * * * * * * * * * * //

dimensions      [0 1 -1 0 0 0 0];

internalField   nonuniform List<vector> 
10720
(
(0.551884 25.8876 6.46928e-18)
(2.17309 28.2 -5.91473e-18)
(4.22828 30.4471 0)
(6.6136 32.2385 -3.36391e-16)
(9.26732 33.6477 3.7549e-16)
(12.1247 34.628 2.84399e-16)
(15.0351 35.0792 4.08641e-16)
(17.9037 35.0316 0)
(20.6469 34.5433 0)
(23.1832 33.6516 0)
(25.4735 32.4284 1.1661e-16)
(27.4976 30.9789 0)
(29.1957 29.2832 2.31217e-15)
(30.5468 27.3662 0)
(31.5162 25.2468 0)
(32.0919 22.9583 0)
(32.2372 20.5066 -4.17182e-15)
(31.9375 17.9365 -6.4374e-15)
(31.1775 15.2698 5.92742e-15)
(30.0286 12.5864 0)
(28.6255 9.97755 5.28101e-15)
(27.34 7.6116 -1.064e-14)
(26.86 5.69581 5.17702e-15)
(27.6755 4.15383 -1.32169e-16)
(29.9526 2.7419 0)
(31.6552 2.13036 1.07834e-15)
(32.9401 1.55393 1.0794e-17)
(32.8257 0.0094806 -2.2483e-16)
(31.9743 -1.92801 -8.67409e-16)
(31.0336 -2.73952 -3.30841e-15)
(29.77 -2.89484 1.98776e-15)
(27.58 -2.94549 5.61192e-15)
(23.3989 -2.55386 5.48782e-15)
(14.729 -1.50985 2.0184e-14)
(3.55382 -0.213964 -1.59345e-14)
(-4.07559 0.647965 -1.89418e-16)
(-10.5454 1.58247 1.93702e-16)
(-13.4285 1.90598 9.44519e-14)
(-5.52456 0.798946 -1.39704e-14)
(-0.705859 23.4364 -5.06185e-18)
(-1.69285 20.693 -2.30571e-17)
(-2.33363 17.621 8.05885e-17)
(-2.51231 14.0935 -2.20275e-16)
(-2.07407 10.4629 -7.26881e-16)
(-1.00914 6.89419 1.28551e-15)
(0.537163 3.73515 7.40776e-15)
(2.31226 1.16638 3.26681e-15)
(4.34475 -1.17086 0)
(6.64376 -3.11317 0)
(8.9148 -4.47352 1.81984e-15)
(10.9716 -5.3083 6.72595e-16)
(12.7841 -5.76084 -1.13544e-15)
(14.365 -5.94916 9.38882e-16)
(15.7375 -5.96699 1.5558e-15)
(16.9358 -5.87464 1.0049e-15)
(17.9923 -5.71967 1.2723e-15)
(18.939 -5.52624 8.40834e-16)
(19.8091 -5.30306 0)
(20.6209 -5.06576 0)
(21.3939 -4.81231 -1.11885e-15)
(22.1453 -4.51339 -4.78616e-17)
(22.8667 -4.1736 6.94605e-16)
(23.5268 -3.76596 -4.38816e-16)
(24.0546 -3.28941 2.76206e-17)
(24.4305 -2.76491 0)
(24.6763 -2.20517 1.44485e-17)
(24.8137 -1.65177 0)
(24.7908 -1.12584 0)
(24.5755 -0.631767 -7.25924e-17)
(24.1639 -0.167394 0)
(23.559 0.26524 3.9688e-16)
(22.7561 0.661652 7.12706e-16)
(21.7522 1.00609 3.32003e-15)
(20.5444 1.33536 -1.01855e-15)
(19.2779 1.42827 3.51315e-18)
(19.781 1.98314 0)
(20.4675 2.27378 1.99812e-15)
(21.2503 3.71791 2.19849e-15)
(7.0396 22.4291 -1.29384e-17)
(8.81254 24.1675 5.22977e-18)
(10.9891 25.7624 0)
(13.5155 27.1104 0)
(16.2574 28.1472 -1.10123e-16)
(19.2193 28.8116 -2.73118e-16)
(22.2924 29.0543 0)
(25.3483 28.8915 0)
(28.3336 28.3307 6.12884e-16)
(31.1631 27.4167 0)
(33.7875 26.2078 2.32255e-15)
(36.1745 24.7416 0)
(38.3371 23.1395 8.4408e-16)
(40.2899 21.4579 -8.28357e-16)
(42.0531 19.7125 1.68388e-15)
(43.5823 17.9392 -3.36679e-15)
(44.8574 16.1548 3.59789e-15)
(45.849 14.3738 3.27829e-15)
(46.5163 12.5828 3.20116e-15)
(46.788 10.7703 1.95284e-16)
(46.58 8.90329 -3.36424e-15)
(45.8014 6.95744 3.22705e-15)
(44.2989 4.92541 -1.80933e-16)
(41.8775 3.05638 0)
(38.5675 1.70171 0)
(36.1106 0.644338 0)
(34.625 -0.0726878 4.96558e-17)
(33.6375 -0.599162 -8.96082e-18)
(32.6633 -1.05754 6.18815e-16)
(31.6696 -1.62144 -2.00942e-17)
(30.6287 -2.17446 5.02257e-18)
(29.7271 -2.58317 -3.46327e-17)
(29.0185 -2.79565 3.54789e-15)
(27.0449 -2.45371 -4.76059e-15)
(15.1897 -0.862306 -4.19194e-17)
(-7.08585 1.81595 -2.05913e-14)
(-11.1814 2.76545 0)
(-8.87743 2.00549 -4.98135e-14)
(-2.10313 -0.531368 -8.2959e-15)
(5.56161 20.5891 1.76361e-17)
(4.29606 18.555 -6.40913e-17)
(3.22062 16.184 -7.33057e-16)
(2.44298 13.5068 9.14928e-16)
(2.1429 10.615 0)
(2.40559 7.65976 -1.92847e-15)
(3.2283 4.86376 -1.4995e-15)
(4.46427 2.36921 -9.79319e-15)
(6.01382 0.154449 2.37718e-15)
(7.83723 -1.59352 -1.75141e-15)
(9.74065 -2.79843 2.20106e-15)
(11.5689 -3.55593 -6.23405e-16)
(13.2623 -3.99003 0)
(14.8011 -4.19147 -4.0736e-16)
(16.1803 -4.2398 6.20496e-17)
(17.4146 -4.18557 -8.95133e-16)
(18.5228 -4.06988 0)
(19.531 -3.91487 0)
(20.4601 -3.74131 -9.00612e-17)
(21.3364 -3.5368 8.7421e-17)
(22.177 -3.30027 -1.00728e-15)
(22.9845 -3.02561 -1.02759e-16)
(23.7692 -2.67131 4.54012e-17)
(24.5061 -2.20424 4.57995e-16)
(25.1448 -1.62659 -2.69004e-16)
(25.6593 -1.01226 -1.67483e-16)
(26.0667 -0.401487 0)
(26.3756 0.199305 0)
(26.6408 0.783273 0)
(26.8872 1.34674 9.58919e-18)
(27.114 1.87739 0)
(27.3142 2.36784 0)
(27.4759 2.81217 -1.08219e-15)
(27.5921 3.21441 -9.6109e-16)
(27.5949 3.55086 7.20383e-16)
(27.5882 4.02552 -3.08525e-16)
(26.3393 4.18917 -4.5392e-16)
(24.6525 4.26671 -1.63232e-15)
(23.0064 4.11558 -8.16806e-16)
(8.40466 20.6703 -3.14625e-18)
(9.65928 22.2009 -1.57202e-17)
(11.1978 23.7025 1.00119e-17)
(12.9793 25.1025 -2.16473e-17)
(14.9577 26.2841 -1.38528e-16)
(17.1322 27.2239 5.04674e-16)
(19.4317 27.8809 -3.5874e-16)
(21.7842 28.2161 -4.41427e-16)
(24.1342 28.2276 1.1271e-17)
(26.4245 27.9242 -5.99064e-16)
(28.6023 27.3257 5.69458e-16)
(30.6337 26.4596 -1.49628e-15)
(32.4883 25.352 -7.18109e-16)
(34.1546 24.027 0)
(35.6071 22.524 -1.76453e-15)
(36.883 20.8574 3.57831e-15)
(38.0241 19.036 0)
(39.0378 17.099 -6.83583e-15)
(39.9512 15.0702 -3.4294e-15)
(40.7505 12.9896 4.01007e-16)
(41.4172 10.8702 -3.94613e-16)
(41.8473 8.74666 -1.78795e-16)
(41.8873 6.68123 -2.49365e-15)
(41.4574 4.76803 1.14189e-15)
(40.319 3.10149 0)
(38.606 1.67558 7.31776e-16)
(36.4889 0.454541 -6.20209e-17)
(34.8122 -0.392208 0)
(33.4257 -1.04801 9.24272e-16)
(32.07 -1.69154 1.50965e-15)
(30.8254 -2.23955 -2.97613e-15)
(29.6444 -2.63695 -3.38625e-15)
(28.2941 -2.75052 -6.32896e-17)
(28.7584 -2.35716 -3.97911e-15)
(23.9468 -1.20378 -2.73508e-15)
(5.28007 0.775603 1.01168e-14)
(-7.57688 2.03968 0)
(-5.31019 0.870105 -6.22908e-14)
(2.33178 -2.89192 1.64057e-14)
(7.39201 19.0672 -2.1645e-17)
(6.51421 17.3272 -7.19853e-17)
(5.80552 15.2885 2.98975e-16)
(5.25916 13.0174 0)
(5.02452 10.5904 5.3324e-16)
(5.14394 8.08777 0)
(5.6456 5.64864 3.90421e-15)
(6.48267 3.38553 2.01253e-15)
(7.63544 1.37275 1.63528e-15)
(9.03666 -0.299133 0)
(10.5474 -1.59785 -2.30185e-15)
(12.0565 -2.55835 -4.84044e-16)
(13.5052 -3.23952 2.1845e-15)
(14.8633 -3.69592 0)
(16.1153 -3.97783 -9.96236e-16)
(17.2616 -4.12744 -2.99811e-16)
(18.3113 -4.18115 1.22145e-15)
(19.2793 -4.16296 6.27985e-16)
(20.1841 -4.08962 1.68459e-16)
(21.0423 -3.96503 -9.32767e-17)
(21.8671 -3.79082 9.25401e-16)
(22.6693 -3.55735 0)
(23.4472 -3.24749 0)
(24.1802 -2.84323 2.74545e-17)
(24.8225 -2.36401 0)
(25.3506 -1.85781 3.6131e-16)
(25.776 -1.34356 -4.02901e-18)
(26.1112 -0.826478 -3.87867e-18)
(26.3623 -0.311193 0)
(26.5318 0.190751 5.19193e-17)
(26.6319 0.679978 -1.11986e-16)
(26.676 1.15446 0)
(26.6774 1.61356 5.08228e-16)
(26.6543 2.05387 0)
(26.6099 2.49587 0)
(26.5136 2.91592 5.92521e-17)
(26.2433 3.35862 -9.83483e-17)
(25.6623 3.84854 1.51548e-15)
(23.779 4.11965 6.72583e-16)
(10.9239 18.9243 -1.72934e-17)
(12.0944 20.2226 -1.82569e-17)
(13.5095 21.4978 1.39817e-17)
(15.15 22.6757 5.50478e-18)
(16.9742 23.6662 0)
(18.9886 24.4515 0)
(21.1402 24.9861 -5.99064e-16)
(23.3711 25.2336 7.40633e-16)
(25.6365 25.1848 0)
(27.8827 24.8387 -9.43441e-16)
(30.0592 24.2068 -1.22414e-15)
(32.1284 23.3082 -1.16226e-15)
(34.0551 22.1713 1.40719e-15)
(35.8112 20.8305 1.33197e-15)
(37.3798 19.3196 0)
(38.7474 17.673 2.14612e-15)
(39.8683 15.9431 7.43199e-16)
(40.723 14.1682 6.0488e-15)
(41.306 12.3725 3.67825e-16)
(41.6326 10.5705 -3.6471e-16)
(41.7171 8.77639 3.1166e-15)
(41.5764 7.0151 -5.13697e-16)
(41.2001 5.33001 2.8196e-15)
(40.6413 3.85736 1.1324e-15)
(39.9424 2.6806 -6.37832e-17)
(39.1499 1.68629 -8.57663e-16)
(37.9586 0.777999 5.66938e-18)
(36.4966 -0.0928136 -5.85455e-18)
(35.0101 -0.921468 -1.45041e-15)
(33.4512 -1.63709 -3.90121e-17)
(31.8197 -2.20004 2.46686e-15)
(30.2104 -2.585 -4.23755e-15)
(28.3411 -2.69531 -3.26008e-15)
(27.7301 -2.127 -1.28528e-16)
(27.2558 -1.20672 2.18158e-15)
(18.7153 -0.424778 0)
(6.70093 0.0936331 1.49879e-14)
(-1.05885 0.627484 3.63626e-14)
(6.82882 -4.67684 -8.51803e-15)
(9.95147 17.5727 -3.39399e-17)
(9.08862 16.1153 1.01103e-16)
(8.35362 14.4024 4.12143e-16)
(7.75831 12.4771 0)
(7.42826 10.4112 -4.64741e-16)
(7.39308 8.26043 0)
(7.67485 6.12194 -2.79622e-15)
(8.2475 4.09419 -1.04674e-16)
(9.09428 2.25467 1.20259e-15)
(10.1665 0.672154 1.04015e-15)
(11.3729 -0.614316 3.23473e-17)
(12.6318 -1.60733 1.7343e-15)
(13.8893 -2.34069 -1.10107e-15)
(15.1089 -2.85481 3.50881e-16)
(16.2672 -3.18912 1.18382e-15)
(17.3541 -3.38251 1.29231e-15)
(18.3692 -3.46843 -1.14737e-15)
(19.3183 -3.47287 9.20398e-18)
(20.2122 -3.41462 0)
(21.0632 -3.30218 1.15891e-15)
(21.881 -3.13804 5.49125e-17)
(22.6719 -2.91489 -8.34875e-16)
(23.4351 -2.62266 0)
(24.1538 -2.24114 2.7643e-17)
(24.7908 -1.7737 0)
(25.3228 -1.26004 -1.7894e-16)
(25.7546 -0.722857 0)
(26.0971 -0.174081 3.64471e-18)
(26.3556 0.375413 3.85576e-19)
(26.5334 0.915474 -3.88533e-19)
(26.6361 1.43389 1.03108e-16)
(26.67 1.91754 3.14801e-18)
(26.6407 2.36128 0)
(26.5558 2.76386 -3.36213e-16)
(26.4163 3.13427 -4.78355e-18)
(26.2082 3.50008 2.29068e-16)
(25.8657 3.84059 1.29584e-15)
(25.5015 4.03113 3.93645e-18)
(24.0282 4.09491 0)
(12.4855 17.6203 -2.33429e-17)
(13.47 18.7699 -9.98812e-18)
(14.6664 19.9205 2.39741e-17)
(16.0447 21.0092 2.91136e-17)
(17.5689 21.954 -2.41866e-17)
(19.2589 22.751 -1.40347e-16)
(21.0709 23.3597 2.52384e-16)
(22.9603 23.7439 0)
(24.8977 23.8926 1.0662e-15)
(26.8382 23.7971 5.12408e-16)
(28.7417 23.4572 0)
(30.5745 22.8824 1.11654e-15)
(32.3025 22.0895 -5.98842e-16)
(33.8973 21.0978 1.66813e-15)
(35.3384 19.9306 0)
(36.6056 18.6094 -2.8304e-15)
(37.691 17.1446 2.71547e-15)
(38.5991 15.5359 -1.69156e-16)
(39.3192 13.802 0)
(39.8318 11.977 2.97642e-15)
(40.1155 10.0954 -3.02941e-15)
(40.1428 8.21155 -1.56056e-16)
(39.8917 6.39056 -2.39495e-15)
(39.3731 4.74181 -2.21365e-15)
(38.6851 3.34976 0)
(37.9646 2.19088 0)
(37.265 1.20585 -2.32213e-16)
(36.5122 0.272515 -2.58903e-17)
(35.6229 -0.619399 1.60994e-15)
(34.5617 -1.38566 -4.20842e-17)
(33.3026 -1.9984 4.28303e-17)
(31.8428 -2.42266 4.22795e-15)
(29.9806 -2.60757 0)
(28.0775 -2.04854 7.38436e-15)
(27.7269 -1.14803 -1.97536e-17)
(25.4244 -0.978618 0)
(18.6499 -1.2567 -1.29027e-16)
(8.43922 -1.08196 0)
(11.2823 -5.42011 7.70677e-15)
(11.6611 16.4296 3.64676e-17)
(10.9263 15.1584 -2.16853e-16)
(10.2801 13.6627 -4.59226e-17)
(9.72976 11.9839 9.23092e-16)
(9.38615 10.1878 -1.45112e-15)
(9.27133 8.30884 -1.87389e-15)
(9.41025 6.41465 2.11959e-15)
(9.79666 4.59339 -2.07356e-15)
(10.4212 2.92041 -9.14374e-16)
(11.2477 1.44592 -8.03247e-16)
(12.2128 0.20288 1.54274e-15)
(13.2546 -0.801213 -1.46582e-15)
(14.3285 -1.58619 -6.35654e-16)
(15.3998 -2.17934 6.19486e-16)
(16.4431 -2.60676 -1.3283e-15)
(17.4441 -2.89818 2.46018e-16)
(18.3967 -3.07955 0)
(19.3008 -3.17234 -9.05552e-16)
(20.1616 -3.19236 3.1813e-16)
(20.9867 -3.1483 -1.21974e-15)
(21.7831 -3.04258 0)
(22.5546 -2.87121 7.27467e-16)
(23.2995 -2.62495 5.57904e-16)
(24.0025 -2.29151 -3.94278e-16)
(24.6326 -1.87727 0)
(25.1666 -1.41512 -2.16108e-16)
(25.605 -0.930388 0)
(25.9562 -0.435569 0)
(26.225 0.0596364 0)
(26.414 0.544727 -2.27442e-17)
(26.5281 1.01154 0)
(26.5748 1.45966 0)
(26.5597 1.88729 3.3856e-16)
(26.489 2.29268 3.24644e-16)
(26.3593 2.6813 0)
(26.1599 3.0645 1.03185e-16)
(25.8145 3.42093 9.64443e-17)
(25.3522 3.73615 0)
(24.1494 4.04394 -1.93497e-16)
(13.9644 16.4728 2.97122e-17)
(14.8571 17.4893 -2.1161e-17)
(15.9378 18.5126 0)
(17.1782 19.4836 1.00326e-17)
(18.5433 20.3294 -5.50626e-17)
(20.0614 21.0516 1.31542e-16)
(21.695 21.6114 4.47367e-17)
(23.4083 21.976 -6.37267e-16)
(25.1816 22.1314 -8.73234e-17)
(26.9783 22.0652 1.02984e-15)
(28.764 21.7716 -3.69832e-16)
(30.5097 21.2523 8.53676e-16)
(32.1826 20.5155 4.29871e-16)
(33.7544 19.5736 3.06767e-16)
(35.2006 18.4434 0)
(36.4991 17.1436 -6.10747e-16)
(37.6312 15.6955 -1.36502e-15)
(38.5661 14.1432 -5.05361e-15)
(39.2812 12.5244 1.4952e-15)
(39.7668 10.8628 -1.91213e-15)
(40.0133 9.18211 -2.99525e-16)
(40.0109 7.51007 0)
(39.7484 5.89035 2.13069e-15)
(39.2346 4.40136 1.36334e-16)
(38.5399 3.11667 -6.00092e-17)
(37.7683 2.02946 -8.34511e-16)
(36.9934 1.0768 1.9036e-16)
(36.2183 0.186507 3.96818e-16)
(35.3954 -0.642548 -1.4845e-15)
(34.487 -1.36287 -7.72717e-17)
(33.4668 -1.95298 2.43385e-15)
(32.3234 -2.36847 3.71915e-15)
(30.9387 -2.54932 0)
(29.2258 -2.05492 9.3113e-17)
(28.1366 -1.16787 -2.17789e-15)
(27.6181 -1.14779 0)
(24.8391 -1.85638 -1.39691e-14)
(17.8761 -2.71813 0)
(16.0442 -5.94118 -8.1074e-15)
(13.2087 15.4233 -3.59251e-17)
(12.5318 14.3097 8.75154e-17)
(11.9229 12.9951 -2.13357e-16)
(11.3903 11.5159 0)
(11.0307 9.93475 6.12445e-16)
(10.86 8.27375 3.03695e-15)
(10.901 6.58081 0)
(11.155 4.93779 -1.50437e-15)
(11.6158 3.41519 -1.42648e-15)
(12.2557 2.0487 1.41944e-15)
(13.0292 0.866278 -5.53206e-17)
(13.89 -0.118491 6.11769e-16)
(14.8032 -0.915959 3.49613e-17)
(15.7391 -1.5435 1.58979e-15)
(16.6734 -2.0175 1.41336e-15)
(17.5906 -2.35957 -1.31996e-15)
(18.4811 -2.58964 1.83755e-16)
(19.3404 -2.72564 -3.40944e-16)
(20.169 -2.7817 1.57444e-16)
(20.97 -2.767 9.02137e-16)
(21.7471 -2.68546 1.15941e-16)
(22.5016 -2.53547 -8.02077e-17)
(23.2303 -2.31059 -4.72113e-16)
(23.9193 -2.0024 0)
(24.5421 -1.61516 1.67328e-17)
(25.0765 -1.17476 4.11145e-16)
(25.5196 -0.704534 -1.52943e-18)
(25.8772 -0.216612 1.53141e-18)
(26.1534 0.279646 0)
(26.35 0.773613 2.15e-17)
(26.4718 1.25689 0)
(26.5252 1.71943 0)
(26.5156 2.1532 -3.17344e-16)
(26.4493 2.55471 -2.43734e-16)
(26.3231 2.92909 0)
(26.1278 3.2893 -9.7351e-17)
(25.7909 3.62945 -1.54866e-15)
(25.3305 3.835 9.5354e-18)
(24.2294 3.99362 2.46963e-16)
(15.1649 15.5021 1.78464e-18)
(15.9662 16.4138 -1.94619e-17)
(16.9358 17.3388 2.30641e-17)
(18.0436 18.2219 -2.2357e-17)
(19.2541 18.9981 4.15184e-17)
(20.601 19.6749 0)
(22.05 20.2183 -2.70421e-16)
(23.5711 20.5985 6.99957e-19)
(25.1525 20.8041 -3.04076e-16)
(26.7628 20.8221 -6.21046e-16)
(28.3749 20.6442 0)
(29.965 20.2687 -1.54584e-15)
(31.5034 19.6986 -1.34565e-15)
(32.9636 18.9413 -3.29891e-15)
(34.3211 18.0088 0)
(35.5521 16.9162 -2.06507e-15)
(36.6335 15.6827 -2.18285e-15)
(37.5488 14.3209 2.38791e-15)
(38.2863 12.8406 -2.3557e-15)
(38.8296 11.2657 2.18685e-15)
(39.1627 9.62701 2.70495e-16)
(39.2671 7.96942 -2.33702e-15)
(39.1271 6.34874 0)
(38.7461 4.84349 -2.02049e-15)
(38.1758 3.52495 1.19013e-16)
(37.5019 2.39125 8.69624e-16)
(36.7831 1.38849 0)
(36.0238 0.463687 -2.93531e-17)
(35.1973 -0.390487 6.25548e-17)
(34.2845 -1.13824 2.38285e-15)
(33.2797 -1.75212 -2.14367e-15)
(32.2082 -2.18885 -3.4824e-15)
(31.026 -2.38818 2.61143e-15)
(29.8523 -1.99176 6.27881e-17)
(28.8675 -1.2149 2.06446e-15)
(28.4396 -1.21833 4.50099e-15)
(27.4125 -2.05521 6.18526e-15)
(23.8641 -3.64026 -1.28258e-16)
(19.7091 -6.12079 5.49629e-17)
(14.4811 14.5628 1.44281e-17)
(13.8653 13.5721 1.64483e-16)
(13.2995 12.4002 2.1349e-16)
(12.7916 11.0803 -4.16228e-16)
(12.428 9.67287 -1.6183e-15)
(12.2216 8.18856 5.15832e-16)
(12.1951 6.66298 1.23127e-15)
(12.3536 5.17412 3.06537e-15)
(12.6921 3.78604 1.21936e-15)
(13.1897 2.52342 -1.13939e-15)
(13.8122 1.41023 -3.29164e-17)
(14.5238 0.461351 -5.4007e-16)
(15.298 -0.329438 0)
(16.1104 -0.973498 -2.43216e-17)
(16.9395 -1.48091 -8.68356e-16)
(17.7707 -1.86709 3.76092e-16)
(18.5931 -2.14664 -3.69712e-16)
(19.3995 -2.33316 0)
(20.1871 -2.43791 5.50651e-16)
(20.9558 -2.4689 -9.48255e-16)
(21.7063 -2.42965 0)
(22.4379 -2.31943 6.7582e-16)
(23.1461 -2.13357 0)
(23.8182 -1.86652 -2.31816e-17)
(24.4308 -1.52224 2.31408e-17)
(24.963 -1.12195 -2.05455e-16)
(25.4091 -0.687629 -4.0102e-18)
(25.7725 -0.232503 -1.72076e-18)
(26.0563 0.233057 2.26174e-20)
(26.262 0.697745 5.23052e-18)
(26.3936 1.15131 3.826e-17)
(26.457 1.58708 -1.03494e-16)
(26.4574 2.00172 -3.76105e-18)
(26.4004 2.39309 3.37634e-17)
(26.2816 2.76484 0)
(26.0943 3.12541 2.91673e-18)
(25.7634 3.46065 7.53839e-16)
(25.3425 3.6873 -1.16206e-17)
(24.2884 3.93255 3.92973e-16)
(16.2161 14.6474 5.51649e-18)
(16.9499 15.4694 2.99343e-17)
(17.8366 16.3068 0)
(18.8456 17.1077 -2.40042e-17)
(19.9416 17.8133 -2.31548e-18)
(21.1604 18.4348 0)
(22.4713 18.9408 -9.93094e-17)
(23.8482 19.3049 8.22092e-16)
(25.2847 19.5166 -1.17681e-15)
(26.7552 19.5626 3.73879e-16)
(28.2371 19.4332 5.29283e-16)
(29.7119 19.1233 1.95603e-15)
(31.1541 18.6316 1.41499e-15)
(32.5394 17.96 1.70659e-15)
(33.8444 17.1148 4.55256e-16)
(35.0446 16.1057 1.51541e-15)
(36.117 14.9453 2.08855e-15)
(37.0398 13.6506 2.03375e-15)
(37.7883 12.2531 -1.50035e-15)
(38.3437 10.7807 -4.61046e-15)
(38.6913 9.26206 0)
(38.8185 7.73075 9.15411e-17)
(38.7161 6.23055 1.81667e-15)
(38.3905 4.82189 1.91115e-15)
(37.884 3.56275 -1.08631e-16)
(37.2682 2.4608 -7.79779e-16)
(36.5953 1.48023 5.52027e-18)
(35.8704 0.577473 -3.90407e-16)
(35.07 -0.257956 4.11252e-17)
(34.1734 -0.993199 -4.43795e-15)
(33.1718 -1.59645 -9.62638e-18)
(32.096 -2.02483 -5.60817e-17)
(30.9207 -2.22289 -2.49207e-15)
(29.9293 -1.88813 5.48993e-17)
(29.3586 -1.23357 -2.11331e-15)
(29.0072 -1.27252 -8.61912e-15)
(28.4551 -2.11837 5.41487e-15)
(26.5065 -3.94848 7.57987e-15)
(21.7809 -6.03817 -7.0865e-15)
(15.5855 13.8021 -6.0832e-17)
(15.0156 12.9141 -2.21507e-16)
(14.4829 11.8617 -1.55559e-16)
(13.9958 10.6745 -3.93966e-16)
(13.6326 9.41051 8.96558e-16)
(13.4023 8.07213 -6.28034e-17)
(13.3283 6.68816 -3.02998e-15)
(13.4169 5.33306 -1.0399e-15)
(13.663 4.06362 2.0429e-17)
(14.0508 2.89739 0)
(14.5535 1.85519 -9.63155e-16)
(15.1427 0.951373 8.94622e-16)
(15.7982 0.181502 -8.58108e-16)
(16.5007 -0.462134 -4.38036e-16)
(17.2324 -0.98522 3.62836e-16)
(17.9804 -1.39847 3.6135e-16)
(18.7341 -1.71164 1.2855e-15)
(19.4853 -1.93422 -3.03751e-16)
(20.2289 -2.0746 -5.11322e-16)
(20.9625 -2.13926 0)
(21.6843 -2.13125 -7.63938e-16)
(22.3916 -2.05043 -5.57942e-16)
(23.0789 -1.89349 -1.32383e-17)
(23.7339 -1.65699 -5.82108e-17)
(24.3356 -1.34457 -1.69853e-17)
(24.8643 -0.973272 2.51634e-16)
(25.312 -0.563156 -3.77773e-18)
(25.6799 -0.127652 2.78186e-17)
(25.9701 0.322878 2.91109e-18)
(26.1835 0.777291 -5.10693e-18)
(26.3232 1.22564 -1.3168e-17)
(26.3945 1.66029 1.839e-16)
(26.4023 2.07381 1.68832e-16)
(26.3515 2.46207 1.84291e-16)
(26.2376 2.8272 2.72102e-18)
(26.055 3.17487 -6.4456e-19)
(25.7305 3.49574 -8.8974e-16)
(25.3356 3.68445 -1.92359e-15)
(24.3367 3.87225 -6.87492e-16)
(17.1247 13.8921 -1.70827e-17)
(17.8003 14.6378 -1.20721e-17)
(18.6155 15.4003 -4.53177e-17)
(19.5395 16.1311 1.03706e-16)
(20.5367 16.7759 2.62728e-18)
(21.6442 17.3491 -9.30739e-17)
(22.8335 17.8223 3.62201e-16)
(24.0813 18.1719 0)
(25.3849 18.39 3.57033e-16)
(26.7224 18.4638 1.44023e-17)
(28.0758 18.3836 -4.51307e-16)
(29.4307 18.1437 -1.79837e-15)
(30.7652 17.7403 -7.4137e-16)
(32.0579 17.1727 0)
(33.2871 16.4437 0)
(34.4291 15.5599 0)
(35.4605 14.5316 0)
(36.3581 13.3741 -1.95853e-15)
(37.1027 12.1015 1.9627e-15)
(37.6756 10.7342 1.92585e-15)
(38.0598 9.29906 -1.55079e-15)
(38.2398 7.83301 1.36934e-15)
(38.2046 6.38243 -1.41567e-15)
(37.9569 5.00562 -1.03794e-16)
(37.5295 3.75711 -4.66857e-17)
(36.9813 2.65041 7.84503e-16)
(36.3606 1.65969 1.6737e-16)
(35.6777 0.75022 0)
(34.9175 -0.0868994 0)
(34.0612 -0.823194 3.71203e-17)
(33.0964 -1.42764 0)
(32.0473 -1.85804 3.00146e-15)
(30.8906 -2.06429 -2.39096e-15)
(29.8793 -1.78518 -3.01593e-15)
(29.4812 -1.22536 4.10691e-15)
(29.3436 -1.30424 4.18493e-15)
(28.9437 -2.13386 -5.15932e-15)
(27.5405 -3.94512 -1.32372e-14)
(22.9322 -5.81742 8.26767e-15)
(16.5403 13.1261 0)
(16.0104 12.3244 6.22194e-17)
(15.5077 11.3721 2.9562e-16)
(15.0411 10.2959 -1.26798e-15)
(14.6826 9.15207 1.1106e-15)
(14.4376 7.93674 -8.49361e-16)
(14.3297 6.67414 1.36825e-17)
(14.3662 5.4353 7.99223e-16)
(14.5418 4.27092 8.3707e-16)
(14.8443 3.1936 0)
(15.2516 2.22112 3.96812e-16)
(15.7406 1.36687 -1.21116e-15)
(16.2957 0.626815 1.9074e-15)
(16.9018 -0.00487245 3.45025e-16)
(17.5445 -0.53162 -7.00172e-16)
(18.2135 -0.960675 -6.48647e-16)
(18.8991 -1.29832 -5.92859e-16)
(19.593 -1.55071 0)
(20.2895 -1.72344 0)
(20.9843 -1.82112 0)
(21.6737 -1.84592 7.136e-16)
(22.3536 -1.79765 0)
(23.0176 -1.67374 -4.46127e-16)
(23.6535 -1.47213 -5.61723e-17)
(24.2424 -1.19612 -3.17321e-16)
(24.7653 -0.859668 -2.20757e-16)
(25.213 -0.480807 0)
(25.5842 -0.0730493 -2.26696e-17)
(25.8801 0.352999 -3.1043e-18)
(26.1009 0.786027 4.91927e-19)
(26.2492 1.21552 -3.11093e-17)
(26.3294 1.63321 -2.24397e-17)
(26.3459 2.03331 -1.64049e-16)
(26.303 2.41196 1.07126e-16)
(26.196 2.77036 0)
(26.0194 3.11101 -4.01728e-18)
(25.705 3.42524 -7.49743e-17)
(25.328 3.60687 1.89013e-15)
(24.3667 3.81025 -6.76756e-18)
(17.9235 13.2158 1.86391e-17)
(18.5505 13.8952 0)
(19.306 14.5916 9.93894e-17)
(20.159 15.2596 -6.6815e-17)
(21.0745 15.8489 -9.04905e-18)
(22.0896 16.3756 8.69342e-17)
(23.1776 16.8137 -1.58156e-16)
(24.3171 17.1428 -2.0491e-16)
(25.5083 17.3562 0)
(26.7323 17.442 -3.87878e-16)
(27.9746 17.3912 -4.22276e-16)
(29.2244 17.1972 4.1861e-16)
(30.463 16.855 1.59329e-15)
(31.6725 16.3608 6.48805e-16)
(32.8334 15.7147 -1.97005e-15)
(33.9229 14.9195 -1.43138e-15)
(34.9184 13.982 1.13361e-15)
(35.7974 12.9128 8.43283e-16)
(36.538 11.7285 -4.26569e-16)
(37.119 10.453 4.27365e-16)
(37.5222 9.11302 1.0892e-15)
(37.7336 7.7409 2.02607e-16)
(37.7431 6.37676 -1.90465e-16)
(37.5528 5.0696 -1.2682e-15)
(37.1883 3.86605 0)
(36.6973 2.78253 -6.59517e-16)
(36.1217 1.80335 -3.12496e-16)
(35.475 0.903281 -2.86357e-16)
(34.7495 0.0758447 -1.05253e-15)
(33.9307 -0.654376 3.89041e-15)
(33.0071 -1.25658 1.55879e-15)
(32.0007 -1.68867 1.67864e-17)
(30.8986 -1.90463 7.26569e-18)
(29.8855 -1.68488 0)
(29.4512 -1.20636 -2.03302e-15)
(29.4229 -1.31162 0)
(29.1419 -2.11582 0)
(27.9188 -3.81848 5.89861e-15)
(23.6538 -5.5324 -1.09009e-16)
(17.3779 12.5182 -6.21916e-17)
(16.882 11.7901 2.04642e-16)
(16.4059 10.9232 1.41297e-17)
(15.9585 9.94208 2.82868e-16)
(15.6066 8.90042 -9.99514e-16)
(15.3533 7.79036 7.01444e-16)
(15.221 6.63301 2.87777e-17)
(15.2183 5.49613 -6.63937e-16)
(15.34 4.42491 -6.46669e-16)
(15.5756 3.42859 -6.86213e-16)
(15.9064 2.52273 -1.35104e-15)
(16.3133 1.71944 0)
(16.7838 1.01433 -6.87747e-16)
(17.3062 0.402426 -2.39001e-17)
(17.869 -0.118255 0)
(18.4643 -0.553035 -5.72079e-16)
(19.0841 -0.905469 -2.72335e-16)
(19.7209 -1.17915 -2.54988e-16)
(20.3686 -1.37729 8.71908e-16)
(21.0223 -1.50249 7.72698e-16)
(21.677 -1.55564 -7.86943e-17)
(22.3274 -1.53628 5.85771e-16)
(22.9664 -1.44219 1.11111e-16)
(23.5821 -1.27196 -5.40596e-17)
(24.1567 -1.02866 2.81467e-16)
(24.6722 -0.723672 1.6889e-17)
(25.118 -0.372834 0)
(25.4912 0.0106689 0)
(25.7918 0.416173 -6.72838e-19)
(26.0192 0.832493 1.03246e-18)
(26.1751 1.24892 5.15628e-18)
(26.2633 1.65715 -2.18954e-17)
(26.2878 2.04995 -8.5206e-17)
(26.2521 2.42224 -1.02427e-16)
(26.1516 2.77379 4.20691e-19)
(25.9807 3.10439 4.07365e-18)
(25.6768 3.40651 1.8005e-15)
(25.3167 3.56946 -1.89413e-15)
(24.3887 3.74473 1.08997e-17)
(18.6286 12.6054 7.23189e-18)
(19.2135 13.2269 0)
(19.9173 13.8652 -5.31728e-17)
(20.7091 14.4773 0)
(21.5541 15.0171 -3.63812e-17)
(22.4894 15.5014 3.51618e-17)
(23.4894 15.9067 1.17763e-16)
(24.5347 16.2147 1.92576e-16)
(25.6267 16.4202 0)
(26.7491 16.513 -2.49112e-16)
(27.8902 16.4846 4.31655e-16)
(29.0421 16.3286 -8.91571e-16)
(30.189 16.0392 -5.02919e-16)
(31.3158 15.6118 -5.15558e-16)
(32.4051 15.0441 1.25305e-15)
(33.4364 14.3368 1.36415e-15)
(34.3881 13.494 -1.4697e-15)
(35.2377 12.5243 -1.46622e-15)
(35.9641 11.4407 0)
(36.5471 10.2609 3.90966e-16)
(36.968 9.00861 -7.57444e-16)
(37.2116 7.71486 1.86984e-16)
(37.2672 6.41812 4.62625e-18)
(37.1346 5.16375 2.98271e-15)
(36.8329 3.9941 -1.62483e-16)
(36.4001 2.92732 9.86987e-17)
(35.8723 1.9555 2.88123e-16)
(35.2642 1.06158 3.02832e-16)
(34.5741 0.241265 9.02687e-16)
(33.7913 -0.484267 -1.78194e-15)
(32.906 -1.08473 -1.42208e-15)
(31.9411 -1.51904 -5.28469e-15)
(30.8964 -1.74479 4.1423e-15)
(29.927 -1.58229 -5.19854e-17)
(29.4279 -1.18357 2.08973e-15)
(29.3675 -1.30371 -9.43224e-17)
(29.134 -2.06943 6.42056e-17)
(28.004 -3.64142 -5.11475e-17)
(24.1618 -5.2055 4.62395e-15)
(18.1173 11.9673 3.13663e-17)
(17.6515 11.3023 -1.04115e-16)
(17.1995 10.5093 2.0218e-16)
(16.7702 9.61058 0)
(16.4261 8.65732 5.68458e-16)
(16.1689 7.63829 0)
(16.0192 6.57333 0)
(15.9868 5.52622 0)
(16.0667 4.53785 1.19477e-15)
(16.2494 3.61513 -5.85374e-16)
(16.5189 2.77185 6.62144e-16)
(16.8585 2.01898 0)
(17.258 1.35153 0)
(17.7082 0.764575 -5.89021e-16)
(18.2001 0.256842 0)
(18.7278 -0.175739 5.30768e-16)
(19.2853 -0.535327 1.17193e-17)
(19.866 -0.823435 0)
(20.4645 -1.04127 -6.21019e-16)
(21.0754 -1.1898 -9.12558e-16)
(21.6933 -1.26874 -6.29208e-16)
(22.3122 -1.27697 -5.3865e-16)
(22.9244 -1.21214 9.07409e-16)
(23.5184 -1.0731 0)
(24.0771 -0.862588 2.87721e-16)
(24.5832 -0.589811 2.52802e-16)
(25.0255 -0.268607 8.74728e-17)
(25.3993 0.0883791 0)
(25.7034 0.470504 -4.8036e-18)
(25.9367 0.866649 -2.05205e-17)
(26.1 1.26598 1.77535e-17)
(26.1964 1.65973 -2.10113e-17)
(26.229 2.04073 7.78975e-17)
(26.2012 2.40367 -3.37801e-17)
(26.1076 2.74728 -2.10923e-18)
(25.9434 3.06897 1.16054e-18)
(25.6507 3.36122 -1.83397e-15)
(25.3043 3.51681 1.7737e-15)
(24.423 3.66215 4.76892e-15)
(19.2561 12.0498 3.96469e-18)
(19.8042 12.6204 -2.16194e-17)
(20.4628 13.2069 0)
(21.2014 13.769 -4.40322e-17)
(21.9856 14.2638 0)
(22.8518 14.7087 0)
(23.7757 15.0825 2.03316e-17)
(24.7388 15.3686 1.70027e-16)
(25.7441 15.5631 4.01075e-16)
(26.7769 15.657 1.0559e-15)
(27.8278 15.6429 6.09204e-16)
(28.8912 15.5148 7.14092e-16)
(29.9537 15.2666 0)
(31.0029 14.8926 1.42261e-15)
(32.0239 14.3894 -5.05743e-16)
(32.9978 13.7555 0)
(33.9049 12.9928 1.21875e-15)
(34.7236 12.1072 1.39987e-15)
(35.4333 11.1092 0)
(36.0137 10.0155 1.38135e-15)
(36.4454 8.84878 -1.35153e-15)
(36.7131 7.63717 0)
(36.806 6.41506 -1.60247e-16)
(36.7224 5.2224 2.90824e-17)
(36.4762 4.09645 7.63956e-17)
(36.0974 3.05589 1.13396e-15)
(35.6162 2.09907 -3.88776e-18)
(35.0474 1.21624 -2.96149e-17)
(34.3937 0.405901 -2.43144e-17)
(33.6475 -0.313162 5.40648e-17)
(32.8003 -0.91108 1.42381e-15)
(31.8751 -1.34801 4.76162e-15)
(30.8803 -1.58498 5.75433e-17)
(29.9622 -1.47558 -2.77867e-15)
(29.4337 -1.15562 -1.92475e-15)
(29.2929 -1.28672 -3.78782e-15)
(29.0174 -2.0037 -4.04832e-15)
(27.9445 -3.43772 1.14527e-16)
(24.4861 -4.83431 -3.86294e-15)
(18.7748 11.464 -6.86774e-17)
(18.3356 10.8544 -2.47627e-16)
(17.9055 10.1263 4.8501e-16)
(17.4933 9.2998 0)
(17.1575 8.42349 9.00125e-16)
(16.8996 7.48437 0)
(16.7381 6.50103 -4.71466e-16)
(16.683 5.53346 1.88687e-15)
(16.7303 4.61902 -1.45264e-15)
(16.871 3.76326 0)
(17.0908 2.97825 1.06664e-15)
(17.375 2.27392 1.02697e-15)
(17.715 1.6448 0)
(18.1032 1.08594 -1.00543e-15)
(18.5327 0.596151 2.41769e-16)
(18.9993 0.171715 -2.42138e-16)
(19.4985 -0.188536 2.34524e-16)
(20.0254 -0.4848 4.09101e-16)
(20.5751 -0.716813 -1.65039e-17)
(21.1426 -0.884065 4.88303e-16)
(21.7224 -0.985118 1.41265e-16)
(22.3082 -1.01807 -1.36626e-16)
(22.8923 -0.980318 -4.29121e-16)
(23.4632 -0.870554 3.62362e-16)
(24.0046 -0.690927 -2.53648e-16)
(24.4997 -0.448921 -2.55082e-16)
(24.9367 -0.156393 -8.24432e-17)
(25.3096 0.174794 -7.85835e-19)
(25.6162 0.534173 5.33109e-18)
(25.8544 0.91088 1.93982e-17)
(26.0244 1.29405 1.09874e-17)
(26.1284 1.67475 -2.0208e-17)
(26.1689 2.04531 -5.15203e-18)
(26.1485 2.39957 3.46687e-17)
(26.0621 2.73503 1.88022e-18)
(25.9047 3.04683 -2.28041e-16)
(25.6244 3.32735 9.04063e-16)
(25.2876 3.47255 0)
(24.4771 3.57856 -5.17079e-15)
(19.8173 11.5413 1.17722e-17)
(20.3328 12.0665 0)
(20.9514 12.6067 0)
(21.643 13.1237 6.04235e-17)
(22.3736 13.5779 -2.05305e-17)
(23.1792 13.9867 0)
(24.0361 14.3307 0)
(24.9269 14.5952 -5.4113e-16)
(25.8554 14.7773 -2.91886e-17)
(26.8085 14.8693 -3.65139e-17)
(27.7781 14.8647 -1.40748e-15)
(28.7606 14.7578 -3.75901e-16)
(29.7449 14.543 7.19162e-16)
(30.7207 14.2143 -6.35105e-17)
(31.6752 13.7673 0)
(32.5917 13.1993 0)
(33.4522 12.5105 -3.32979e-15)
(34.2365 11.7044 -6.15828e-16)
(34.9244 10.7899 6.31872e-16)
(35.4971 9.78023 -1.3375e-15)
(35.9352 8.69539 2.53881e-15)
(36.2229 7.56096 1.20143e-15)
(36.3488 6.40844 -1.16231e-15)
(36.3095 5.27413 -1.3109e-15)
(36.1145 4.19146 2.06914e-16)
(35.7871 3.17888 -1.11019e-15)
(35.3521 2.23933 -1.2429e-16)
(34.8235 1.36928 2.73564e-17)
(34.2073 0.569972 -2.7356e-17)
(33.4989 -0.141548 8.92682e-17)
(32.6909 -0.736325 -3.57104e-17)
(31.8061 -1.17609 -2.33851e-15)
(30.8576 -1.42545 -6.09827e-17)
(29.9827 -1.36524 2.89697e-17)
(29.4445 -1.11991 0)
(29.2351 -1.26096 3.60896e-15)
(28.8787 -1.92733 3.84707e-15)
(27.8292 -3.21949 0)
(24.6836 -4.43155 0)
(19.3628 11.0018 0)
(18.9473 10.4413 2.20285e-16)
(18.5374 9.77046 -7.2025e-16)
(18.1414 9.00783 -3.43712e-16)
(17.8145 8.19937 -8.12736e-16)
(17.5578 7.33093 0)
(17.3884 6.42024 0)
(17.3163 5.52364 -8.41657e-16)
(17.338 4.67566 8.74761e-16)
(17.4451 3.88067 0)
(17.6245 3.14947 -4.49063e-16)
(17.863 2.49127 -4.82399e-16)
(18.153 1.90026 4.54629e-16)
(18.4882 1.37106 4.69505e-16)
(18.863 0.902268 -8.70357e-16)
(19.2748 0.490434 0)
(19.7205 0.134704 -1.94448e-16)
(20.1962 -0.164361 1.32542e-17)
(20.6984 -0.405569 8.56281e-16)
(21.2227 -0.58727 -1.55824e-16)
(21.7638 -0.70695 1.49459e-16)
(22.3155 -0.761982 -1.12028e-16)
(22.8702 -0.749333 1.58108e-16)
(23.4167 -0.667339 -7.3449e-16)
(23.9393 -0.517388 -2.54647e-16)
(24.4217 -0.30538 2.10043e-16)
(24.8518 -0.0414264 -1.25589e-17)
(25.2224 0.263555 0)
(25.5302 0.599425 -5.70854e-18)
(25.7725 0.955589 2.807e-17)
(25.9485 1.32123 -2.21846e-17)
(26.0597 1.68724 1.41531e-17)
(26.108 2.04564 -2.47118e-17)
(26.0953 2.38989 5.26175e-17)
(26.0163 2.71639 -8.40685e-19)