/*--------------------------------*- C++ -*----------------------------------*\
| =========                 |                                                 |
| \\      /  F ield         | OpenFOAM: The Open Source CFD Toolbox           |
|  \\    /   O peration     | Version:  2312                                  |
|   \\  /    A nd           | Website:  www.openfoam.com                      |
|    \\/     M anipulation  |                                                 |
\*---------------------------------------------------------------------------*/
FoamFile
{
    version     2.0;
    format      ascii;
    arch        "LSB;label=32;scalar=64";
    class       surfaceScalarField;
    location    "42.827631173972449";
    object      phi;
}
// * * * * * * * * * * * * * * * * * * * * * * * * * * * * * * * * * * * * * //

dimensions      [0 3 -1 0 0 0 0];

oriented        oriented;

internalField   nonuniform List<scalar> 
41713
(
0.00736113
0.0568853
0.00362726
0.0679803
0.00211547
0.0657582
0.00148209
0.0648798
0.00109562
0.0646329
0.000840815
0.0645012
0.000664989
0.0644223
0.000537217
0.0643742
0.000440885
0.0643428
0.000366337
0.064321
0.000307446
0.0643053
0.000260159
0.0642937
0.00022171
0.0642849
0.000190161
0.064278
0.00016412
0.0642725
0.000142569
0.064268
0.000124747
0.0642643
0.000110074
0.0642611
9.80988e-05
0.0642584
8.84448e-05
0.0642561
8.07601e-05
0.0642541
7.46901e-05
0.0642525
6.9961e-05
0.0642512
6.64688e-05
0.0548147
6.35342e-05
0.0456789
6.08982e-05
0.0380659
5.8533e-05
0.0317218
5.64374e-05
0.026435
0.0220293
5.45625e-05
0.00999227
0.046893
0.00842322
0.0695494
0.00571023
0.0684712
0.00411539
0.0664747
0.00311316
0.0656351
0.00242001
0.0651944
0.00192021
0.0649221
0.00154834
0.0647461
0.00126407
0.064627
0.00104162
0.0645434
0.000864042
0.0644829
0.000719968
0.0644378
0.000601551
0.0644033
0.000503257
0.0643763
0.000421106
0.0643546
0.000352187
0.0643369
0.00029434
0.0643221
0.000245941
0.0643095
0.000205744
0.0642986
0.000172774
0.0642891
0.000146244
0.0642807
0.00012547
0.0642733
0.000109758
0.0642669
9.9483e-05
0.0548249
9.256e-05
0.0456858
8.75468e-05
0.038071
8.35861e-05
0.0317258
8.02309e-05
0.0264383
0.0220321
7.74225e-05
0.00859277
0.0383003
0.0097007
0.0684414
0.00746054
0.0707114
0.00568955
0.0682456
0.00449865
0.066826
0.00361042
0.0660826
0.00292475
0.0656077
0.00239005
0.0652808
0.00196764
0.0650494
0.00162895
0.0648821
0.00135356
0.0647583
0.00112685
0.0646645
0.000938265
0.0645919
0.000780127
0.0645344
0.000646778
0.064488
0.000534018
0.0644497
0.000438701
0.0644174
0.000358447
0.0643898
0.000291442
0.0643656
0.000236281
0.0643442
0.000191861
0.0643251
0.000157273
0.0643079
0.000131608
0.0642925
0.00011556
0.054841
0.000105464
0.0456959
9.86953e-05
0.0380777
9.36755e-05
0.0317308
8.9592e-05
0.0264424
0.0220354
8.62458e-05
0.00677115
0.0315291
0.00946544
0.0657471
0.00810745
0.0720694
0.00642502
0.0699281
0.00523082
0.0680203
0.00432164
0.0669918
0.00358614
0.0663432
0.00298499
0.0658819
0.002491
0.0655434
0.00208217
0.065291
0.00174122
0.0650992
0.00145477
0.064951
0.00121252
0.0648341
0.00100661
0.0647403
0.000831004
0.0646636
0.000681116
0.0645996
0.00055343
0.0645451
0.000445258
0.0644979
0.000354536
0.0644563
0.000279673
0.0644191
0.000219428
0.0643853
0.000172795
0.0643545
0.000138681
0.0643267
0.000117942
0.0548617
0.000105431
0.0457084
9.74466e-05
0.0380857
9.18072e-05
0.0317364
8.74386e-05
0.0264468
0.0220388
8.40331e-05
0.00506115
0.026468
0.008559
0.0622493
0.00816605
0.0724623
0.00671889
0.0713752
0.00555991
0.0691792
0.00467958
0.0678721
0.00395659
0.0670662
0.00334719
0.0664913
0.00283043
0.0660602
0.00239038
0.065731
0.00201408
0.0654755
0.00169103
0.065274
0.00141278
0.0651124
0.00117257
0.0649805
0.000965042
0.0648711
0.000785989
0.0647786
0.000632114
0.064699
0.000500859
0.0646292
0.000390248
0.0645669
0.000298758
0.0645106
0.000225207
0.0644589
0.000168623
0.0644111
0.000127846
0.0643674
0.000103796
0.0548858
8.99678e-05
0.0457223
8.17002e-05
0.038094
7.6294e-05
0.0317418
7.24286e-05
0.0264506
0.0220416
6.96548e-05
0.00361449
0.0228535
0.00730061
0.0585632
0.00776694
0.071996
0.00670409
0.0724381
0.00563927
0.0702441
0.00480909
0.0687023
0.00412263
0.0677527
0.00353164
0.0670823
0.00301826
0.0665736
0.00257093
0.0661783
0.00218016
0.0658663
0.00183808
0.0656161
0.00153827
0.0654122
0.00127546
0.0652433
0.0010454
0.0651012
0.000844674
0.0649793
0.000670572
0.0648731
0.000520985
0.0647788
0.000394288
0.0646936
0.000289248
0.0646156
0.000204926
0.0645432
0.000140536
0.0644755
9.50167e-05
0.064413
6.9217e-05
0.0549116
5.53476e-05
0.0457361
4.79068e-05
0.0381014
4.3734e-05
0.031746
4.13464e-05
0.026453
0.0220429
4.00833e-05
0.00251935
0.0203341
0.00600959
0.0550729
0.00708348
0.0709221
0.00644984
0.0730717
0.00553405
0.0711598
0.00477397
0.0694624
0.00413898
0.0683877
0.00358202
0.0676393
0.0030872
0.0670684
0.00264685
0.0666187
0.00225471
0.0662585
0.00190534
0.0659655
0.0015942
0.0657233
0.00131754
0.06552
0.00107227
0.0653464
0.000855914
0.0651957
0.000666512
0.0650625
0.000502579
0.0649427
0.000363017
0.0648332
0.000247048
0.0647316
0.000154127
0.0646361
8.37539e-05
0.0645458
3.53191e-05
0.0644614
9.3072e-06
0.0549376
-3.22832e-06
0.0457487
-8.76487e-06
0.038107
-1.09523e-05
0.0317482
-1.15731e-05
0.0264536
0.0220422
-1.095e-05
0.00175562
0.0185785
0.00488134
0.0519472
0.00630978
0.0694936
0.00605857
0.0733229
0.0053103
0.0719081
0.00462573
0.070147
0.0040458
0.0689676
0.00353004
0.068155
0.00306235
0.0675361
0.0026376
0.0670434
0.00225227
0.0666438
0.00190317
0.0663146
0.00158753
0.066039
0.00130299
0.0658045
0.00104763
0.0656018
0.000819932
0.0654234
0.00061875
0.0652637
0.000443304
0.0651182
0.000293125
0.0649834
0.000168022
0.0648567
6.80275e-05
0.0647361
-6.74432e-06
0.0646206
-5.74339e-05
0.0645121
-8.31001e-05
0.0549633
-9.37771e-05
0.0457593
-9.65474e-05
0.0381097
-9.54684e-05
0.0317471
-9.25392e-05
0.0264507
0.0220384
-8.87193e-05
0.00124554
0.017333
0.00396377
0.049229
0.00555956
0.0678979
0.00561389
0.0732686
0.00502856
0.0724934
0.00441441
0.0707611
0.00388265
0.0694993
0.00340594
0.0686318
0.00296691
0.0679751
0.00256104
0.0674493
0.0021865
0.0670183
0.00184179
0.0666593
0.00152555
0.0663552
0.00123667
0.0660934
0.000974271
0.0658642
0.000737741
0.0656599
0.000526749
0.0654747
0.000341237
0.0653037
0.000181416
0.0651432
4.7712e-05
0.0649904
-5.93107e-05
0.0648431
-0.000139125
0.0647004
-0.000191512
0.0645645
-0.000216159
0.0549879
-0.000224153
0.0457673
-0.000223391
0.038109
-0.000218397
0.0317421
-0.000211452
0.0264438
0.0220305
-0.000203592
0.000912024
0.0164209
0.00323759
0.0469034
0.00487561
0.0662598
0.00515914
0.0729851
0.00472372
0.0729289
0.00417397
0.0713109
0.00368084
0.0699925
0.00323608
0.0690765
0.00282222
0.068389
0.00243411
0.0678374
0.00207064
0.0673818
0.00173131
0.0669986
0.00141577
0.0666707
0.00112383
0.0663854
0.000855454
0.0661326
0.000610839
0.0659045
0.000390391
0.0656951
0.000194766
0.0654993
2.4825e-05
0.0653131
-0.000118362
0.0651336
-0.000233488
0.0649583
-0.000319183
0.0647861
-0.000374749
0.06462
-0.00039941
0.0550126
-0.000405265
0.0457732
-0.000401034
0.0381047
-0.0003918
0.0317329
-0.000380249
0.0264322
0.022018
-0.00036773
0.000695308
0.0157256
0.00266922
0.0449295
0.00426994
0.0646591
0.00471488
0.0725401
0.00441175
0.073232
0.00392157
0.071801
0.00345918
0.0704549
0.00303872
0.069497
0.00264465
0.0687831
0.00227086
0.0682112
0.00191634
0.0677363
0.0015811
0.0673338
0.00126542
0.0669864
0.000969737
0.0666811
0.000694663
0.0664076
0.000441022
0.0661582
0.000209876
0.0659263
2.44177e-06
0.0657067
-0.000179797
0.0654954
-0.000335007
0.0652888
-0.000461055
0.0650843
-0.000555762
0.0648808
-0.000617644
0.0646819
-0.000644874
0.0550398
-0.000650406
0.0457787
-0.000643813
0.0380981
-0.000630839
0.0317199
-0.000614707
0.0264161
0.0220006
-0.000597244
0.000551791
0.0151738
0.0022244
0.0432569
0.00374168
0.0631418
0.00429221
0.0719896
0.00410127
0.0734229
0.00366592
0.0722364
0.00322832
0.0708925
0.00282533
0.0699
0.00244542
0.069163
0.00208172
0.0685749
0.00173287
0.0680852
0.00139909
0.0676676
0.00108099
0.0673045
0.000779407
0.0669826
0.000495408
0.0666916
0.000230308
0.0664233
-1.4437e-05
0.066171
-0.000237055
0.0659293
-0.000435414
0.0656937
-0.000606927
0.0654603
-0.000748699
0.0652261
-0.000857711
0.0649898
-0.000931586
0.0647558
-0.000966348
0.0550746
-0.000975481
0.0457879
-0.000969369
0.038092
-0.000954512
0.031705
-0.000934855
0.0263964
0.0219786
-0.000912921
0.000452222
0.0147216
0.00187284
0.0418363
0.00328357
0.0617311
0.00389667
0.0713765
0.00379788
0.0735217
0.00341236
0.0726219
0.00299502
0.0713098
0.0026037
0.0702913
0.00223262
0.069534
0.00187457
0.0689329
0.00152764
0.0684321
0.00119196
0.0680033
0.00086826
0.0676282
0.000557598
0.0672933
0.000261328
0.0669879
-1.90501e-05
0.0667037
-0.000281694
0.0664336
-0.000524367
0.066172
-0.000744268
0.0659136
-0.000938215
0.0656542
-0.00110262
0.0653905
-0.00123374
0.065121
-0.0013284
0.0648504
-0.00137896
0.0551251
-0.00139879
0.0458077
-0.00139881
0.038092
-0.00138621
0.0316924
-0.00136584
0.0263761
0.021954
-0.00134124
0.000378893
0.0143427
0.00159069
0.0406245
0.00288612
0.0604357
0.00352994
0.0707327
0.00350498
0.0735467
0.00316435
0.0729625
0.00276399
0.0717102
0.00237972
0.0706756
0.00201272
0.069901
0.00165604
0.0692896
0.00130715
0.068781
0.00096588
0.0683446
0.000632893
0.0679612
0.000309277
0.0676169
-3.64504e-06
0.0673008
-0.000304213
0.0670042
-0.00059034
0.0667198
-0.000859264
0.0664409
-0.00110777
0.0661622
-0.00133214
0.0658786
-0.00152823
0.0655866
-0.00169182
0.0652846
-0.00181943
0.0649781
-0.00189813
0.0552038
-0.00194029
0.0458499
-0.00195647
0.0381082
-0.00195412
0.0316901
-0.00193902
0.026361
0.0219311
-0.00191605
0.000321771
0.014021
0.00136224
0.039584
0.00254316
0.0592548
0.00319387
0.070082
0.00322524
0.0735153
0.00292387
0.0732639
0.00253802
0.072096
0.00215738
0.0710562
0.00179052
0.0702679
0.0014314
0.0696487
0.0010769
0.0691355
0.000726408
0.0686951
0.000380347
0.0683073
3.95691e-05
0.0679577
-0.000294769
0.0676352
-0.000620996
0.0673305
-0.000936697
0.0670355
-0.00123891
0.0667432
-0.00152403
0.0664473
-0.00178788
0.0661425
-0.00202589
0.0658246
-0.00223383
0.0654925
-0.00240906
0.0651533
-0.00253277
0.0553275
-0.00261584
0.0459329
-0.0026669
0.0381593
-0.00269133
0.0317145
-0.0026942
0.0263638
0.0219184
-0.00268152
0.00023669
0.0137843
0.00100182
0.0388189
0.00191212
0.0583445
0.00245446
0.0695396
0.00251428
0.0734555
0.00228687
0.0734913
0.00197157
0.0724113
0.00165197
0.0713758
0.0013408
0.0705791
0.00103397
0.0699556
0.000728398
0.0694411
0.000423099
0.0690004
0.000118068
0.0686123
-0.000186388
0.0682622
-0.000489517
0.0679383
-0.000789958
0.0676309
-0.00108579
0.0673313
-0.00137445
0.0670318
-0.00165268
0.0667255
-0.00191647
0.0664063
-0.00216136
0.0660695
-0.00238334
0.0657145
-0.0025809
0.0653508
-0.0027335
0.0554801
-0.00285161
0.046051
-0.00294191
0.0382496
-0.00300557
0.0317782
-0.00304251
0.0264008
0.0219324
-0.00305652
0.000177577
0.0136067
0.000747928
0.0382485
0.00145024
0.0576421
0.00189388
0.069096
0.00196254
0.0733868
0.00178959
0.0736643
0.00153313
0.0726678
0.00126722
0.0716417
0.00100602
0.0708403
0.000746767
0.0702148
0.00048652
0.0697013
0.000224055
0.0692628
-4.1049e-05
0.0688774
-0.000308868
0.06853
-0.00057907
0.0682085
-0.000850838
0.0679027
-0.00112286
0.0676033
-0.0013932
0.0673022
-0.00165917
0.0669915
-0.00191721
0.0666643
-0.00216297
0.0663152
-0.00239206
0.0659436
-0.00260209
0.0655609
-0.00277028
0.0556483
-0.00290945
0.0461902
-0.00303081
0.038371
-0.00313893
0.0318863
-0.00323141
0.0264932
0.0219954
-0.00329447
0.000137388
0.0134693
0.000571361
0.0378146
0.00111951
0.057094
0.00148139
0.0687341
0.00154942
0.0733188
0.00141623
0.0737974
0.00120729
0.0728767
0.000986442
0.0718626
0.00076771
0.071059
0.000549263
0.0704333
0.000328426
0.0699222
0.000103861
0.0694874
-0.000125129
0.0691064
-0.000358914
0.0687638
-0.000597531
0.0684471
-0.000840715
0.0681458
-0.00108778
0.0678504
-0.0013375
0.0675519
-0.00158793
0.0672419
-0.00183627
0.0669126
-0.00207865
0.0665576
-0.00231041
0.0661753
-0.00252689
0.0657773
-0.00269895
0.0558204
-0.00283742
0.0463287
-0.00295901
0.0384925
-0.00307807
0.0320054
-0.00321281
0.026628
0.0221567
-0.00337408
0.000105615
0.0133637
0.000443897
0.0374763
0.000880301
0.0566576
0.00117752
0.0684369
0.00123916
0.0732572
0.00113301
0.0739036
0.000961083
0.0730486
0.000777678
0.072046
0.000595094
0.0712416
0.000411693
0.0706167
0.000225029
0.0701088
3.37847e-05
0.0696786
-0.000162819
0.069303
-0.000365344
0.0689663
-0.000574178
0.0686559
-0.000789502
0.0683612
-0.0010112
0.0680721
-0.00123874
0.0677794
-0.00147101
0.0674742
-0.00170619
0.0671478
-0.00194161
0.066793
-0.00217377
0.0664075
-0.00239772
0.0660013
-0.0025774
0.0560001
-0.00271199
0.0464633
-0.00280792
0.0385885
-0.00287496
0.0320724
-0.0029307
0.0266837
-0.00311309
0.0223391
9.89421e-05
0.021983
0.000140812
0.0219855
0.000173743
0.0219944
0.000204338
0.0219968
0.00022912
0.0220026
0.000249378
0.0220071
0.000266611
0.0220101
0.000277531
0.0220164
0.00028645
0.0220184
0.000290353
0.0220235
0.000291192
0.0220265
0.00028951
0.022029
0.000283386
0.0220335
0.000275664
0.0220351
0.000264692
0.0220383
0.000251418
0.0220406
0.00023681
0.022042
0.000219223
0.0220449
0.000200572
0.022046
0.000180682
0.0220472
0.000159225
0.0220488
0.000137153
0.0220494
0.00011441
0.0220501
9.1154e-05
0.0220506
6.77867e-05
0.0220507
4.44744e-05
0.0220507
2.1601e-05
0.0220502
-8.34043e-07
0.0220498
-2.251e-05
0.022049
-4.27868e-05
0.0220476
-6.21583e-05
0.0220467
-7.97951e-05
0.022045
-9.53932e-05
0.022043
-0.000109717
0.0220417
-0.000120731
0.0220384
-0.000129758
0.0220364
-0.000136491
0.0220341
-0.000139038
0.0220299
-0.000139787
0.0220281
-0.00013585
0.0220234
-0.000128739
0.0220202
-0.000118488
0.0220171
-0.00010242
0.0220113
-8.41711e-05
0.0220091
-5.91852e-05
0.0220024
-3.07357e-05
0.0219989
2.54175e-06
0.0219941
4.2194e-05
0.0219877
0.0219852
8.43667e-05
0.000121122
0.0219393
0.000162546
0.0219441
0.000195265
0.0219617
0.000225899
0.0219661
0.000250977
0.0219775
0.000271785
0.0219863
0.000289815
0.0219921
0.000301769
0.0220045
0.000311946
0.0220083
0.00031732
0.0220181
0.000319831
0.022024
0.000320006
0.0220289
0.000315914
0.0220376
0.000310385
0.0220406
0.000301755
0.022047
0.000290956
0.0220514
0.000278942
0.022054
0.000264061
0.0220598
0.000248208
0.0220619
0.000231197
0.0220643
0.000212689
0.0220673
0.000193618
0.0220685
0.000173917
0.0220698
0.000153734
0.0220708
0.000133452
0.022071
0.000113228
0.0220709
9.34356e-05
0.02207
7.40574e-05
0.0220692
5.54029e-05
0.0220677
3.81017e-05
0.0220649
2.16368e-05
0.0220632
6.82795e-06
0.0220598
-6.03554e-06
0.0220558
-1.77368e-05
0.0220534
-2.62401e-05
0.0220469
-3.28883e-05
0.022043
-3.73851e-05
0.0220386
-3.78419e-05
0.0220304
-3.6673e-05
0.0220269
-3.09905e-05
0.0220177
-2.23285e-05
0.0220116
-1.07356e-05
0.0220055
6.45839e-06
0.0219941
2.55883e-05
0.02199
5.1212e-05
0.0219767
8.00274e-05
0.0219701
0.000113383
0.0219607
0.000152803
0.0219483
0.0219436
0.000194411
0.000129595
0.0218959
0.000170895
0.0219028
0.000203753
0.0219288
0.000234794
0.0219351
0.000260544
0.0219517
0.000282279
0.0219646
0.000301483
0.0219729
0.000314846
0.0219911
0.000326656
0.0219964
0.000333876
0.0220109
0.000338433
0.0220194
0.000340841
0.0220265
0.000339159
0.0220393
0.0003362
0.0220436
0.000330291
0.0220529
0.00032235
0.0220594
0.000313315
0.022063
0.000301525
0.0220716
0.000288858
0.0220745
0.000275114
0.022078
0.000259946
0.0220825
0.000244267
0.0220842
0.000228
0.0220861
0.000211282
0.0220875
0.000194478
0.0220878
0.000177732
0.0220876
0.000161408
0.0220863
0.00014547
0.0220851
0.000130215
0.0220829
0.000116263
0.0220789
0.000103077
0.0220764
9.14705e-05
0.0220714
8.1719e-05
0.0220656
7.30184e-05
0.0220621
6.74008e-05
0.0220525
6.34991e-05
0.0220469
6.15963e-05
0.0220405
6.35754e-05
0.0220284
6.69963e-05
0.0220235
7.47463e-05
0.02201
8.52712e-05
0.0220011
9.85094e-05
0.0219923
0.000117129
0.0219755
0.000137438
0.0219697
0.000163994
0.0219502
0.000193469
0.0219406
0.0002272
0.021927
0.000266694
0.0219088
0.0219022
0.000308038
0.000127616
0.0218523
0.000169359
0.021861
0.000202901
0.0218953
0.000234891
0.0219031
0.000261858
0.0219248
0.000285076
0.0219413
0.000306019
0.0219519
0.000321369
0.0219758
0.000335403
0.0219824
0.000345069
0.0220012
0.000352283
0.0220122
0.000357545
0.0220212
0.000358903
0.0220379
0.000359152
0.0220433
0.00035661
0.0220554
0.000352177
0.0220638
0.000346777
0.0220684
0.00033874
0.0220797
0.000329923
0.0220833
0.000320114
0.0220878
0.000308953
0.0220936
0.000297337
0.0220958
0.000285172
0.0220982
0.000272586
0.0221001
0.000259923
0.0221005
0.000247315
0.0221002
0.000235116
0.0220985
0.000223267
0.022097
0.000212055
0.0220942
0.000202089
0.0220889
0.000192811
0.0220857
0.000185024
0.0220792
0.00017899
0.0220716
0.000173885
0.0220672
0.000171739
0.0220546
0.000171161
0.0220475
0.000172421
0.0220392
0.000177401
0.0220234
0.00018363
0.0220173
0.000194
0.0219996
0.000206933
0.0219881
0.000222355
0.0219769
0.000242934
0.0219549
0.000264944
0.0219477
0.000292956
0.0219222
0.000323607
0.02191
0.000358224
0.0218924
0.000398309
0.0218687
0.0218606
0.000439905
0.000114263
0.0218077
0.000157224
0.0218181
0.000192224
0.0218603
0.00022594
0.0218694
0.000254906
0.0218958
0.000280398
0.0219158
0.000303885
0.0219285
0.000322037
0.0219576
0.000339123
0.0219653
0.000352077
0.0219882
0.000362804
0.0220015
0.000371789
0.0220122
0.000377067
0.0220326
0.000381417
0.022039
0.000383144
0.0220537
0.000383132
0.0220638
0.000382289
0.0220693
0.000378933
0.022083
0.000374901
0.0220874
0.000369966
0.0220927
0.000363756
0.0220999
0.000357146
0.0221024
0.00035003
0.0221053
0.00034252
0.0221076
0.000334941
0.022108
0.00032741
0.0221078
0.00032027
0.0221057
0.000313438
0.0221038
0.000307189
0.0221004
0.000302121
0.0220939
0.000297651
0.0220901
0.000294574
0.0220823
0.000293138
0.022073
0.000292493
0.0220678
0.000294673
0.0220525
0.000298259
0.0220439
0.000303508
0.022034
0.000312301
0.0220146
0.000322137
0.0220074
0.000335913
0.0219858
0.000352028
0.021972
0.000370394
0.0219585
0.000393686
0.0219316
0.000418142
0.0219232
0.000448348
0.021892
0.000480911
0.0218774
0.000517152
0.0218561
0.000558565
0.0218273
0.0218181
0.000601149
8.66226e-05
0.0217612
0.000131767
0.0217729
0.000169195
0.0218229
0.000205625
0.0218329
0.000237595
0.0218638
0.000266384
0.0218871
0.000293459
0.0219014
0.000315479
0.0219356
0.000336703
0.0219441
0.000354054
0.0219709
0.000369422
0.0219861
0.000383278
0.0219984
0.000393642
0.0220223
0.000403278
0.0220293
0.000410474
0.0220465
0.000416099
0.0220582
0.00042104
0.0220643
0.000423604
0.0220804
0.000425607
0.0220854
0.000426802
0.0220915
0.000426806
0.0220999
0.000426469
0.0221027
0.000425668
0.0221061
0.000424503
0.0221088
0.000423274
0.0221093
0.000422079
0.022109
0.000421252
0.0221065
0.000420682
0.0221044
0.000420628
0.0221005
0.00042168
0.0220929
0.000423224
0.0220886
0.000426047
0.0220794
0.000430381
0.0220687
0.000435349
0.0220629
0.000442989
0.0220448
0.00045185
0.0220351
0.000462178
0.0220237
0.000475853
0.0220009
0.000490339
0.021993
0.000508543
0.0219676
0.00052884
0.0219517
0.000551129
0.0219362
0.000578092
0.0219046
0.00060593
0.0218954
0.000639252
0.0218587
0.000674628
0.021842
0.000713376
0.0218174
0.000756987
0.0217837
0.0217736
0.000801406
3.90987e-05
0.0217111
8.78063e-05
0.0217242
0.000128993
0.0217817
0.00016945
0.0217925
0.000205719
0.0218276
0.000239117
0.0218537
0.000271115
0.0218694
0.00029836
0.0219084
0.00032511
0.0219174
0.000348272
0.0219477
0.000369725
0.0219647
0.000389923
0.0219782
0.000406872
0.0220053
0.000423317
0.0220129
0.000437529
0.0220323
0.00045036
0.0220454
0.000462675
0.022052
0.000472766
0.0220704
0.000482425
0.0220757
0.000491385
0.0220826
0.000499248
0.022092
0.000506834
0.0220952
0.000514005
0.022099
0.00052084
0.0221019
0.000527612
0.0221025
0.000534401
0.0221022
0.000541526
0.0220994
0.000548844
0.022097
0.000556595
0.0220927
0.000565358
0.0220841
0.000574483
0.0220795
0.000584749
0.0220692
0.000596371
0.0220571
0.000608434
0.0220508
0.000622987
0.0220303
0.000638542
0.0220195
0.000655326
0.0220069
0.000675229
0.021981
0.000695666
0.0219725
0.000719566
0.0219437
0.00074527
0.021926
0.000772662
0.0219088
0.000804446
0.0218729
0.000836768
0.021863
0.000874276
0.0218211
0.000913497
0.0218028
0.000955749
0.0217751
0.00100252
0.0217369
0.0217265
0.0010497
-3.50387e-05
0.0216575
1.83986e-05
0.0216708
6.49458e-05
0.0217351
0.000110899
0.0217465
0.00015302
0.0217855
0.000192607
0.0218141
0.000231125
0.0218309
0.000265231
0.0218742
0.000299197
0.0218834
0.000329904
0.021917
0.000359223
0.0219354
0.000387592
0.0219498
0.000412995
0.0219799
0.000438161
0.0219877
0.000461339
0.0220091
0.000483361
0.0220233
0.000505066
0.0220303
0.00052473
0.0220507
0.000544116
0.0220563
0.000562933
0.0220638
0.000580762
0.0220742
0.000598393
0.0220775
0.000615663
0.0220817
0.000632632
0.022085
0.000649536
0.0220856
0.000666431
0.0220853
0.000683619
0.0220822
0.000700916
0.0220797
0.000718541
0.0220751
0.000737058
0.0220656
0.000755773
0.0220607
0.000775454
0.0220495
0.000796291
0.0220362
0.00081733
0.0220298
0.000840631
0.022007
0.000864656
0.0219955
0.000889617
0.0219819
0.000917412
0.0219532
0.0009454
0.0219445
0.000976535
0.0219126
0.00100912
0.0218934
0.00104302
0.0218749
0.00108098
0.0218349
0.00111906
0.021825
0.00116198
0.0217782
0.0012062
0.0217586
0.00125305
0.0217283
0.00130401
0.0216859
0.0216756
0.00135491
-0.000143857
0.0215977
-8.48543e-05
0.0216118
-3.25812e-05
0.0216829
2.05433e-05
0.0216934
7.05038e-05
0.0217355
0.000118231
0.0217663
0.000165203
0.0217839
0.000208176
0.0218313
0.000251407
0.0218402
0.000291761
0.0218767
0.000331119
0.021896
0.0003699
0.021911
0.000406058
0.0219437
0.000442313
0.0219515
0.000476883
0.0219745
0.000510575
0.0219896
0.000544204
0.0219967
0.000576017
0.0220189
0.00060775
0.0220246
0.000639078
0.0220324
0.00066956
0.0220437
0.000699944
0.0220471
0.000730037
0.0220516
0.000759872
0.0220551
0.000789641
0.0220558
0.000819367
0.0220556
0.000849329
0.0220522
0.000879291
0.0220498
0.000909443
0.0220449
0.00094033
0.0220347
0.000971198
0.0220299
0.0010028
0.0220179
0.0010353
0.0220037
0.00106769
0.0219974
0.00110204
0.0219726
0.00113675
0.0219608
0.00117201
0.0219466
0.00120974
0.0219155
0.00124721
0.0219071
0.00128742
0.0218724
0.00132863
0.0218522
0.00137069
0.0218328
0.00141635
0.0217892
0.00146163
0.0217797
0.00151129
0.0217286
0.00156175
0.0217081
0.00161434
0.0216757
0.00167056
0.0216297
0.02162
0.00172613
-0.000300732
0.0215307
-0.000233526
0.0215446
-0.000172625
0.021622
-0.000111452
0.0216322
-5.31499e-05
0.0216772
4.16378e-06
0.021709
6.19474e-05
0.0217261
0.000116246
0.021777
0.00017109
0.0217853
0.000223612
0.0218241
0.000275636
0.021844
0.000327551
0.0218591
0.00037728
0.021894
0.00042754
0.0219012
0.000476506
0.0219256
0.000524965
0.0219412
0.000573699
0.0219479
0.000620916
0.0219717
0.00066832
0.0219772
0.000715546
0.0219852
0.000762114
0.0219971
0.000808726
0.0220005
0.000855147
0.0220052
0.00090137
0.0220089
0.000947531
0.0220097
0.000993607
0.0220095
0.00103984
0.022006
0.00108594
0.0220037
0.00113204
0.0219988
0.00117866
0.0219881
0.00122497
0.0219836
0.00127171
0.0219712
0.00131899
0.0219565
0.00136572
0.0219506
0.00141401
0.0219243
0.00146218
0.0219126
0.00151037
0.0218984
0.00156052
0.0218654
0.00160983
0.0218578
0.00166132
0.0218209
0.0017132
0.0218003
0.00176529
0.0217808
0.00182041
0.0217341
0.00187446
0.0217256
0.00193232
0.0216707
0.0019903
0.0216501
0.00204976
0.0216162
0.00211223
0.0215673
0.0215589
0.00217333
-0.000521637
0.0214551
-0.000445113
0.021468
-0.000374095
0.021551
-0.000301584
0.0215597
-0.000231251
0.0216069
-0.000161996
0.0216398
-9.2278e-05
0.0216564
-2.51654e-05
0.0217099
4.41951e-05
0.021716
0.000111859
0.0217565
0.000179596
0.0217763
0.000247897
0.0217908
0.000314616
0.0218273
0.000382463
0.0218334
0.000449553
0.0218585
0.000516648
0.0218741
0.000584496
0.0218801
0.000651246
0.0219049
0.000718566
0.0219099
0.000786033
0.0219178
0.000853113
0.02193
0.000920448
0.0219332
0.000987741
0.0219379
0.00105493
0.0219417
0.00112207
0.0219425
0.00118909
0.0219425
0.00125617
0.0219389
0.00132292
0.0219369
0.00138942
0.0219323
0.00145615
0.0219213
0.00152217
0.0219175
0.00158818
0.0219052
0.00165424
0.0218904
0.00171917
0.0218857
0.00178507
0.0218584
0.00185016
0.0218475
0.00191456
0.0218341
0.00198021
0.0217997
0.00204418
0.0217938
0.00210957
0.0217555
0.0021745
0.0217354
0.00223877
0.0217165
0.00230527
0.0216676
0.00236978
0.0216611
0.00243729
0.0216032
0.00250404
0.0215834
0.00257141
0.0215489
0.00264096
0.0214977
0.0214916
0.00270821
-0.000827542
0.0213697
-0.000740159
0.0213807
-0.00065743
0.0214682
-0.000572227
0.0214745
-0.000488128
0.0215228
-0.000403749
0.0215554
-0.000317641
0.0215703
-0.000233488
0.0216257
-0.000147103
0.0216296
-6.1453e-05
0.0216708
2.55016e-05
0.0216893
0.000113928
0.0217024
0.000201646
0.0217396
0.000291426
0.0217436
0.000381279
0.0217686
0.00047192
0.0217834
0.000564011
0.021788
0.000655608
0.0218133
0.000748337
0.0218171
0.000841688
0.0218244
0.000935055
0.0218367
0.001029
0.0218393
0.00112313
0.0218438
0.00121732
0.0218475
0.00131151
0.0218483
0.00140553
0.0218485
0.00149949
0.021845
0.00159288
0.0218436
0.00168568
0.0218395
0.0017783
0.0218287
0.00186965
0.0218262
0.00196038
0.0218144
0.00205046
0.0218003
0.00213856
0.0217976
0.00222681
0.0217702
0.00231326
0.0217611
0.00239799
0.0217493
0.00248294
0.0217148
0.00256503
0.0217117
0.00264744
0.0216731
0.00272818
0.0216547
0.00280704
0.0216376
0.00288698
0.0215877
0.00296365
0.0215844
0.0030422
0.0215246
0.00311876
0.0215068
0.00319478
0.0214728
0.00327187
0.0214206
0.0214181
0.00334543
-0.00124557
0.0212741
-0.00114635
0.0212814
-0.00105049
0.0213724
-0.000950684
0.0213747
-0.00085071
0.0214228
-0.000749165
0.0214539
-0.000644452
0.0214656
-0.000540226
0.0215215
-0.000431964
0.0215213
-0.000323198
0.0215621
-0.000212074
0.0215782
-9.81915e-05
0.0215885
1.60263e-05
0.0216254
0.000133314
0.0216263
0.000251883
0.02165
0.000372385
0.0216629
0.000495362
0.021665
0.000618754
0.0216899
0.000744088
0.0216918
0.000870745
0.0216977
0.000998015
0.0217094
0.00112635
0.0217109
0.00125526
0.0217149
0.00138448
0.0217183
0.00151383
0.021719
0.00164298
0.0217193
0.00177195
0.021716
0.00190001
0.0217155
0.00202704
0.0217125
0.00215331
0.0217025
0.00227755
0.021702
0.00240027
0.0216917
0.00252132
0.0216793
0.00263918
0.0216797
0.00275596
0.0216534
0.00286953
0.0216475
0.00297984
0.021639
0.00308887
0.0216057
0.00319333
0.0216072
0.00329647
0.02157
0.0033962
0.0215549
0.00349226
0.0215415
0.00358775
0.0214922
0.00367815
0.021494
0.00376883
0.021434
0.00385583
0.0214198
0.00394067
0.021388
0.00402509
0.0213362
0.0213388
0.00410434
-0.00181117
0.0211692
-0.00170051
0.0211708
-0.00159134
0.0212632
-0.00147597
0.0212594
-0.0013583
0.0213051
-0.00123684
0.0213324
-0.00110993
0.0213387
-0.000981456
0.021393
-0.000846743
0.0213866
-0.000709481
0.0214248
-0.000567803
0.0214365
-0.000421516
0.0214422
-0.000273096
0.0214769
-0.000119849
0.021473
3.54806e-05
0.0214947
0.000193654
0.0215048
0.00035612
0.0215025
0.00052019
0.0215258
0.000687425
0.0215246
0.000857079
0.0215281
0.00102829
0.0215382
0.00120137
0.0215378
0.00137566
0.0215406
0.00155074
0.0215432
0.00172623
0.0215435
0.00190161
0.0215439
0.00207669
0.0215409
0.0022505
0.0215417
0.00242267
0.0215403
0.0025933
0.0215318
0.00276078
0.0215345
0.00292548
0.021527
0.00308703
0.0215177
0.0032436
0.0215232
0.00339725
0.0214997
0.00354558
0.0214992
0.00368838
0.0214962
0.00382761
0.0214665
0.00395971
0.0214751
0.00408803
0.0214416
0.00421032
0.0214327
0.0043263
0.0214256
0.0044392
0.0213793
0.00454434
0.0213889
0.00464743
0.0213309
0.00474439
0.0213229
0.00483693
0.0212955
0.00492698
0.0212462
0.0212561
0.0050097
-0.00257104
0.0210587
-0.00245125
0.021051
-0.00233027
0.0211422
-0.00219979
0.0211289
-0.00206357
0.0211689
-0.00191975
0.0211886
-0.00176655
0.0211855
-0.00160818
0.0212346
-0.00144002
0.0212184
-0.00126629
0.0212511
-0.00108538
0.0212556
-0.000897385
0.0212542
-0.000705204
0.0212848
-0.000506136
0.021274
-0.00030242
0.021291
-9.37417e-05
0.0212961
0.000119119
0.0212897
0.000335223
0.0213097
0.000556661
0.0213031
0.000782088
0.0213027
0.00101058
0.0213097
0.00124227
0.0213061
0.00147632
0.0213065
0.00171211
0.0213074
0.00194895
0.0213067
0.00218603
0.0213068
0.00242287
0.0213041
0.00265806
0.0213065
0.00289086
0.0213075
0.00312105
0.0213016
0.00334651
0.021309
0.0035673
0.0213062
0.0037827
0.0213023
0.00399041
0.0213155
0.00419243
0.0212977
0.00438586
0.0213057
0.00457031
0.0213118
0.00474771
0.0212891
0.00491408
0.0213088
0.00507291
0.0212828
0.00522172
0.0212838
0.00536017
0.0212871
0.00549175
0.0212477
0.00561154
0.0212691
0.00572576
0.0212166
0.00583028
0.0212184
0.0059272
0.0211985
0.00601878
0.0211546
0.0211748
0.00610007
-0.00297106
0.0209733
-0.0028749
0.0209548
-0.00277303
0.0210403
-0.00265576
0.0210116
-0.00252594
0.0210391
-0.00238243
0.0210451
-0.00222482
0.0210278
-0.00205803
0.0210679
-0.00187917
0.0210396
-0.00169288
0.0210648
-0.00149841
0.0210611
-0.00129631
0.0210521
-0.00108936
0.0210778
-0.000875389
0.02106
-0.000656589
0.0210722
-0.000432229
0.0210717
-0.000201248
0.0210587
3.33933e-05
0.0210751
0.00027255
0.021064
0.000517893
0.0210573
0.000767642
0.0210599
0.00102197
0.0210518
0.00128005
0.0210484
0.00154117
0.0210463
0.00180441
0.0210434
0.0020687
0.0210426
0.00233324
0.0210395
0.00259627
0.0210435
0.00285663
0.0210472
0.00311367
0.0210446
0.00336493
0.0210577
0.00361004
0.0210611
0.00384789
0.0210645
0.00407602
0.0210873
0.00429594
0.0210778
0.00450475
0.0210969
0.00470187
0.0211147
0.00488895
0.021102
0.00506221
0.0211355
0.00522477
0.0211202
0.00537431
0.0211343
0.00551043
0.021151
0.00563625
0.0211219
0.00574725
0.0211581
0.00584905
0.0211148
0.00593804
0.0211294
0.00601646
0.0211201
0.006087
0.021084
0.0211158
0.00614598
-0.00323174
0.0209105
-0.00316857
0.0208917
-0.00309616
0.0209679
-0.00299748
0.0209129
-0.00287448
0.0209161
-0.002729
0.0208996
-0.00256427
0.0208631
-0.00238769
0.0208913
-0.00219888
0.0208508
-0.00200321
0.0208691
-0.0018007
0.0208586
-0.00159208
0.0208435