/*--------------------------------*- C++ -*----------------------------------*\
| =========                 |                                                 |
| \\      /  F ield         | OpenFOAM: The Open Source CFD Toolbox           |
|  \\    /   O peration     | Version:  2312                                  |
|   \\  /    A nd           | Website:  www.openfoam.com                      |
|    \\/     M anipulation  |                                                 |
\*---------------------------------------------------------------------------*/
FoamFile
{
    version     2.0;
    format      ascii;
    arch        "LSB;label=32;scalar=64";
    class       volVectorField;
    location    "99.325572889027342";
    object      U;
}
// * * * * * * * * * * * * * * * * * * * * * * * * * * * * * * * * * * * * * //

dimensions      [0 1 -1 0 0 0 0];

internalField   nonuniform List<vector> 
21039
(
(0.913797 0.0474878 0)
(1.02605 0.0665129 0)
(1.00449 0.0294629 0)
(1.00177 0.0188979 0)
(1.00121 0.0138865 0)
(1.0008 0.0105031 0)
(1.00055 0.00817465 0)
(1.0004 0.00652979 0)
(1.0003 0.00531732 0)
(1.00024 0.00439339 0)
(1.00019 0.00367252 0)
(1.00015 0.0030997 0)
(1.00012 0.00263795 0)
(1.0001 0.00226169 0)
(1.00008 0.0019528 0)
(1.00006 0.00169819 0)
(1.00005 0.00148816 0)
(1.00004 0.00131543 0)
(1.00003 0.00117436 0)
(1.00002 0.0010604 0)
(1.00002 0.000969723 0)
(1.00001 0.000900317 0)
(1.00001 0.000853928 0)
(1.00001 0.000812212 0)
(1.00001 0.000780255 0)
(1.00001 0.000754783 0)
(1.00001 0.00073145 0)
(1.00001 0.000700089 0)
(1.00002 0.000638539 0)
(0.794639 0.0730995 0)
(1.07448 0.121688 0)
(1.03988 0.070787 0)
(1.01812 0.0496844 0)
(1.01129 0.0382535 0)
(1.00765 0.0294594 0)
(1.00539 0.0231509 0)
(1.00397 0.0185622 0)
(1.00301 0.015093 0)
(1.00234 0.012402 0)
(1.00186 0.0102728 0)
(1.0015 0.00855867 0)
(1.00122 0.00715879 0)
(1.001 0.00600281 0)
(1.00083 0.00504047 0)
(1.00069 0.00423529 0)
(1.00057 0.00356031 0)
(1.00047 0.00299541 0)
(1.00038 0.00252528 0)
(1.00031 0.00213804 0)
(1.00024 0.00182387 0)
(1.00019 0.00157647 0)
(1.00014 0.00140003 0)
(1.00011 0.00126534 0)
(1.0001 0.00117889 0)
(1.0001 0.00112246 0)
(1.0001 0.00108168 0)
(1.00011 0.00103689 0)
(1.00012 0.00095742 0)
(0.667406 0.0572867 0)
(1.08303 0.124787 0)
(1.08436 0.0902352 0)
(1.04631 0.0676254 0)
(1.02909 0.0540853 0)
(1.02028 0.0431039 0)
(1.01472 0.0347772 0)
(1.01102 0.0283729 0)
(1.00847 0.0233185 0)
(1.00666 0.0192827 0)
(1.00533 0.0160197 0)
(1.00433 0.0133472 0)
(1.00356 0.0111338 0)
(1.00295 0.00928425 0)
(1.00247 0.00772856 0)
(1.00206 0.00641483 0)
(1.00173 0.00530427 0)
(1.00144 0.00436762 0)
(1.00119 0.00358268 0)
(1.00097 0.00293239 0)
(1.00078 0.00240294 0)
(1.0006 0.0019842 0)
(1.00045 0.00168226 0)
(1.00034 0.00146431 0)
(1.00028 0.00133222 0)
(1.00026 0.0012508 0)
(1.00025 0.00119576 0)
(1.00026 0.00114153 0)
(1.00027 0.00105379 0)
(0.541112 0.035265 0)
(1.0508 0.110809 0)
(1.11593 0.0969627 0)
(1.07615 0.0762141 0)
(1.04928 0.0620234 0)
(1.03532 0.0508858 0)
(1.02648 0.0421806 0)
(1.02032 0.0351187 0)
(1.01591 0.0292981 0)
(1.01268 0.0244932 0)
(1.01026 0.0204996 0)
(1.00842 0.0171532 0)
(1.00698 0.0143298 0)
(1.00584 0.011934 0)
(1.00491 0.00989287 0)
(1.00414 0.00815037 0)
(1.00348 0.00666373 0)
(1.00292 0.00540016 0)
(1.00243 0.00433453 0)
(1.00199 0.0034476 0)
(1.0016 0.00272404 0)
(1.00124 0.00215152 0)
(1.00092 0.00173765 0)
(1.00069 0.00144859 0)
(1.00054 0.00127877 0)
(1.00046 0.00117752 0)
(1.00043 0.00111208 0)
(1.00043 0.00105196 0)
(1.00043 0.000957726 0)
(0.444304 0.0186679 0)
(0.997818 0.0918616 0)
(1.12905 0.0956106 0)
(1.10149 0.0794022 0)
(1.06831 0.0653202 0)
(1.04986 0.0546043 0)
(1.03837 0.0461763 0)
(1.03016 0.0390944 0)
(1.02409 0.0330706 0)
(1.01952 0.0279551 0)
(1.01602 0.0235894 0)
(1.0133 0.0198453 0)
(1.01113 0.016623 0)
(1.00939 0.013842 0)
(1.00795 0.0114381 0)
(1.00674 0.00936066 0)
(1.00571 0.00756991 0)
(1.00482 0.0060349 0)
(1.00402 0.00473165 0)
(1.00331 0.0036418 0)
(1.00266 0.00275096 0)
(1.00206 0.00204665 0)
(1.00152 0.00153837 0)
(1.00111 0.00119291 0)
(1.00084 0.000996351 0)
(1.00068 0.00088419 0)
(1.00061 0.000816528 0)
(1.00059 0.000758803 0)
(1.00058 0.000664453 0)
(0.378771 0.00810337 0)
(0.93981 0.071844 0)
(1.12705 0.0882696 0)
(1.12091 0.0785621 0)
(1.08561 0.065765 0)
(1.0632 0.05573 0)
(1.04945 0.0478089 0)
(1.03966 0.041 0)
(1.03226 0.0350708 0)
(1.02656 0.0299165 0)
(1.02211 0.0254171 0)
(1.01857 0.0214781 0)
(1.01571 0.0180248 0)
(1.01337 0.0149948 0)
(1.01141 0.0123376 0)
(1.00974 0.0100122 0)
(1.0083 0.00798624 0)
(1.00703 0.0062342 0)
(1.0059 0.0047363 0)
(1.00486 0.00347764 0)
(1.00391 0.00244696 0)
(1.00302 0.00163351 0)
(1.00221 0.00104931 0)
(1.00158 0.000663967 0)
(1.00116 0.00045446 0)
(1.0009 0.000342149 0)
(1.00078 0.000280978 0)
(1.00073 0.000235653 0)
(1.00069 0.000157151 0)
(0.333564 0.00233371 0)
(0.883541 0.0538483 0)
(1.11415 0.077839 0)
(1.13401 0.0747542 0)
(1.10106 0.064147 0)
(1.07553 0.0550113 0)
(1.05971 0.0477269 0)
(1.04862 0.0413649 0)
(1.04016 0.0357029 0)
(1.03353 0.0306694 0)
(1.02827 0.0261836 0)
(1.02401 0.022183 0)
(1.02053 0.0186156 0)
(1.01762 0.015437 0)
(1.01516 0.0126106 0)
(1.01304 0.0101069 0)
(1.01117 0.00790247 0)
(1.00951 0.00597903 0)
(1.008 0.00432301 0)
(1.00661 0.00292478 0)
(1.00532 0.0017781 0)
(1.0041 0.000876319 0)
(1.00297 0.000229876 0)
(1.00208 -0.000180951 0)
(1.00148 -0.000387335 0)
(1.00111 -0.000488581 0)
(1.00091 -0.000533153 0)
(1.00082 -0.000564208 0)
(1.00074 -0.00063699 0)
(0.301272 -0.000194321 0)
(0.831823 0.0395897 0)
(1.094 0.0669532 0)
(1.14077 0.0693344 0)
(1.11412 0.0612389 0)
(1.08682 0.0530805 0)
(1.06918 0.0464376 0)
(1.05699 0.0405854 0)
(1.04769 0.0352782 0)
(1.04032 0.0304573 0)
(1.03437 0.0260756 0)
(1.02951 0.0220981 0)
(1.02546 0.0184936 0)
(1.02205 0.0152345 0)
(1.01911 0.0122978 0)
(1.01655 0.00966548 0)
(1.01427 0.00732336 0)
(1.0122 0.00526142 0)
(1.01031 0.00347315 0)
(1.00854 0.00195531 0)
(1.00686 0.000707826 0)
(1.00527 -0.000271782 0)
(1.00378 -0.000962553 0)
(1.0026 -0.00138828 0)
(1.00178 -0.00158936 0)
(1.00126 -0.00166788 0)
(1.00098 -0.00168223 0)
(1.00083 -0.00168317 0)
(1.00069 -0.00174626 0)
(0.278304 -0.000989047 0)
(0.786158 0.0291039 0)
(1.06986 0.0569719 0)
(1.14204 0.0633438 0)
(1.12453 0.0577155 0)
(1.09697 0.0505208 0)
(1.07787 0.0444243 0)
(1.06476 0.0390352 0)
(1.05479 0.0340849 0)
(1.04684 0.0295048 0)
(1.04035 0.0252676 0)
(1.03497 0.0213575 0)
(1.03045 0.0177596 0)
(1.02657 0.0144602 0)
(1.02321 0.0114488 0)
(1.02022 0.00871762 0)
(1.01754 0.00626174 0)
(1.01508 0.0040794 0)
(1.01278 0.00217174 0)
(1.01061 0.000542075 0)
(1.00854 -0.000802497 0)
(1.00654 -0.00185789 0)
(1.00465 -0.00259426 0)
(1.00312 -0.00303285 0)
(1.00204 -0.00322328 0)
(1.00135 -0.00327443 0)
(1.00095 -0.00325151 0)
(1.0007 -0.00321259 0)
(1.00049 -0.00324999 0)
(0.261866 -0.00103315 0)
(0.746928 0.0216835 0)
(1.04427 0.0483103 0)
(1.13911 0.0573438 0)
(1.13241 0.0539632 0)
(1.10603 0.0477027 0)
(1.08586 0.0420465 0)
(1.07196 0.0370257 0)
(1.06148 0.03238 0)
(1.05307 0.0280203 0)
(1.04615 0.023926 0)
(1.04036 0.0200922 0)
(1.03543 0.0165146 0)
(1.03117 0.0131899 0)
(1.02741 0.0101173 0)
(1.02404 0.00729775 0)
(1.02097 0.00473463 0)
(1.01812 0.00243391 0)
(1.01542 0.000404318 0)
(1.01284 -0.00134448 0)
(1.01034 -0.00279778 0)
(1.0079 -0.00394198 0)
(1.00556 -0.0047386 0)
(1.00364 -0.00520239 0)
(1.00226 -0.00538829 0)
(1.00136 -0.00541456 0)
(1.00079 -0.00535275 0)
(1.00043 -0.00526963 0)
(1.0001 -0.00527531 0)
(0.24964 -0.000812918 0)
(0.713635 0.0165396 0)
(1.01883 0.0409889 0)
(1.13321 0.0516148 0)
(1.1381 0.0501659 0)
(1.11413 0.0448016 0)
(1.0933 0.0395099 0)
(1.07871 0.0347642 0)
(1.0678 0.0303542 0)
(1.05905 0.0261713 0)
(1.0518 0.0221932 0)
(1.04568 0.0184199 0)
(1.04042 0.0148533 0)
(1.03582 0.0114973 0)
(1.03172 0.00835756 0)
(1.028 0.00544215 0)
(1.02456 0.00276126 0)
(1.02133 0.000327642 0)
(1.01824 -0.00184455 0)
(1.01524 -0.00373741 0)
(1.01229 -0.00532737 0)
(1.00938 -0.00659196 0)
(1.00655 -0.0074821 0)
(1.00419 -0.00800203 0)
(1.00247 -0.00820661 0)
(1.00129 -0.00822345 0)
(1.00053 -0.00813129 0)
(0.999989 -0.00800676 0)
(0.999507 -0.00798031 0)
(0.240103 -0.000551675 0)
(0.685442 0.0129867 0)
(0.994461 0.0348837 0)
(1.12532 0.046299 0)
(1.14191 0.0464264 0)
(1.12136 0.0419019 0)
(1.10034 0.0369252 0)
(1.08515 0.0323777 0)
(1.07387 0.0281358 0)
(1.06485 0.0240794 0)
(1.05734 0.02018 0)
(1.05096 0.016438 0)
(1.04543 0.0128585 0)
(1.04055 0.00944954 0)
(1.03615 0.00622145 0)
(1.03212 0.00318711 0)
(1.02836 0.00036204 0)
(1.02477 -0.00223715 0)
(1.02129 -0.00458951 0)
(1.01787 -0.00666837 0)
(1.01446 -0.00844286 0)
(1.01105 -0.00988151 0)
(1.00769 -0.0109235 0)
(1.00484 -0.0115566 0)
(1.00271 -0.0118272 0)
(1.00121 -0.0118705 0)
(1.00017 -0.0117728 0)
(0.999399 -0.0116222 0)
(0.998702 -0.011571 0)
(0.23238 -0.000339828 0)
(0.66152 0.0104868 0)
(0.971624 0.0298142 0)
(1.11616 0.0414521 0)
(1.14415 0.0428106 0)
(1.12779 0.0390542 0)
(1.10704 0.0343597 0)
(1.09138 0.0299499 0)
(1.07977 0.0258146 0)
(1.07052 0.0218346 0)
(1.06282 0.0179727 0)
(1.05624 0.0142264 0)
(1.0505 0.0106017 0)
(1.04539 0.00710824 0)
(1.04075 0.00375907 0)
(1.03645 0.000570007 0)
(1.03239 -0.00244139 0)
(1.02848 -0.00525372 0)
(1.02464 -0.00783892 0)
(1.0208 -0.0101641 0)
(1.01693 -0.0121919 0)
(1.013 -0.0138829 0)
(1.00908 -0.0151651 0)
(1.00569 -0.0160032 0)
(1.00311 -0.0164225 0)
(1.00121 -0.0165603 0)
(0.999823 -0.0165091 0)
(0.998729 -0.0163698 0)
(0.997735 -0.0163166 0)
(0.22596 -0.000195706 0)
(0.641141 0.00866554 0)
(0.950536 0.0255955 0)
(1.10631 0.0370732 0)
(1.14512 0.0393571 0)
(1.1335 0.0362907 0)
(1.11347 0.0318574 0)
(1.09748 0.0275408 0)
(1.08558 0.0234602 0)
(1.07616 0.0195102 0)
(1.06832 0.0156448 0)
(1.06159 0.0118564 0)
(1.0557 0.00814951 0)
(1.05042 0.00453382 0)
(1.04559 0.0010224 0)
(1.04108 -0.00236948 0)
(1.03677 -0.00562153 0)
(1.03256 -0.00870736 0)
(1.02838 -0.0115943 0)
(1.02416 -0.0142447 0)
(1.01983 -0.0166158 0)
(1.01537 -0.0186624 0)
(1.01088 -0.0203046 0)
(1.00693 -0.0214807 0)
(1.00384 -0.0221789 0)
(1.00148 -0.0225281 0)
(0.99965 -0.0226205 0)
(0.998122 -0.0225685 0)
(0.99672 -0.0225648 0)
(0.220518 -0.000109288 0)
(0.623693 0.00729233 0)
(0.931246 0.0220936 0)
(1.09616 0.0331632 0)
(1.14502 0.0361013 0)
(1.1385 0.0336331 0)
(1.11961 0.029442 0)
(1.10346 0.0251885 0)
(1.09131 0.0211222 0)
(1.08175 0.0171624 0)
(1.07381 0.0132562 0)
(1.067 0.00938954 0)
(1.06101 0.00556313 0)
(1.05562 0.00178621 0)
(1.05065 -0.00193357 0)
(1.04598 -0.00558154 0)
(1.04147 -0.00913282 0)
(1.03702 -0.01256 0)
(1.03255 -0.015827 0)
(1.02796 -0.0188918 0)
(1.0232 -0.0217073 0)
(1.01825 -0.0242254 0)
(1.01322 -0.0263663 0)
(1.00876 -0.0280522 0)
(1.0052 -0.0292249 0)
(1.00236 -0.0299902 0)
(1.00001 -0.0304191 0)
(0.997937 -0.0306152 0)
(0.995991 -0.0307668 0)
(0.216218 -5.10855e-05 0)
(0.609771 0.00630798 0)
(0.915027 0.019381 0)
(1.08684 0.029939 0)
(1.14429 0.0332972 0)
(1.14265 0.0313116 0)
(1.12513 0.0273338 0)
(1.10898 0.0231253 0)
(1.09666 0.0190499 0)
(1.08701 0.015056 0)
(1.07904 0.0110858 0)
(1.0722 0.00711776 0)
(1.06618 0.00314736 0)
(1.06075 -0.000822346 0)
(1.05573 -0.00478566 0)
(1.05097 -0.00872994 0)
(1.04635 -0.0126335 0)
(1.04174 -0.0164676 0)
(1.03705 -0.0201948 0)
(1.03218 -0.023768 0)
(1.02706 -0.0271332 0)
(1.02169 -0.0302358 0)
(1.01619 -0.032991 0)
(1.01133 -0.0353115 0)
(1.00742 -0.0371172 0)
(1.00423 -0.0385132 0)
(1.00142 -0.0395376 0)
(0.998714 -0.0402355 0)
(0.996023 -0.040725 0)
(0.213029 -1.62533e-05 0)
(0.599499 0.0056381 0)
(0.902575 0.0174316 0)
(1.0792 0.0275109 0)
(1.1433 0.0311256 0)
(1.14579 0.0295026 0)
(1.12963 0.0256956 0)
(1.11359 0.02152 0)
(1.10118 0.0174299 0)
(1.09149 0.0133993 0)
(1.08352 0.00936507 0)
(1.0767 0.00529792 0)
(1.07071 0.00118719 0)
(1.0653 -0.00297012 0)
(1.0603 -0.00717296 0)
(1.05555 -0.0114134 0)
(1.0509 -0.0156747 0)
(1.04623 -0.0199319 0)
(1.04142 -0.0241495 0)
(1.03638 -0.0282784 0)
(1.03102 -0.032257 0)
(1.02533 -0.0360183 0)
(1.01948 -0.039451 0)
(1.01435 -0.0424275 0)
(1.01031 -0.0448638 0)
(1.00705 -0.046947 0)
(1.00412 -0.048797 0)
(1.00115 -0.0504452 0)
(0.997998 -0.0517282 0)
(0.210546 3.1898e-05 0)
(0.591598 0.00518205 0)
(0.892715 0.0160141 0)
(1.0728 0.0256686 0)
(1.14217 0.029442 0)
(1.14819 0.0281005 0)
(1.13331 0.0244416 0)
(1.11744 0.0203037 0)
(1.10498 0.016209 0)
(1.09527 0.0121522 0)
(1.08733 0.00806615 0)
(1.08056 0.0039148 0)
(1.07463 -0.000318317 0)
(1.06929 -0.0046423 0)
(1.06435 -0.0090622 0)
(1.05965 -0.0135766 0)
(1.05504 -0.0181763 0)
(1.05038 -0.0228441 0)
(1.04556 -0.0275511 0)
(1.04044 -0.0322519 0)
(1.03494 -0.0368827 0)
(1.02903 -0.0413666 0)
(1.02289 -0.04555 0)
(1.01751 -0.0491836 0)
(1.01337 -0.0520949 0)
(1.01022 -0.0545388 0)
(1.00769 -0.0568824 0)
(1.00548 -0.0595164 0)
(1.00299 -0.0618723 0)
(0.208938 2.42979e-05 0)
(0.586125 0.00482568 0)
(0.885658 0.0150024 0)
(1.06811 0.0243653 0)
(1.14134 0.0282403 0)
(1.15004 0.0270688 0)
(1.13621 0.0234916 0)
(1.12054 0.0193785 0)
(1.10807 0.0152896 0)
(1.09838 0.0112207 0)
(1.0905 0.00709711 0)
(1.08381 0.00287713 0)
(1.07796 -0.00145954 0)
(1.07272 -0.00592735 0)
(1.06788 -0.0105382 0)
(1.06328 -0.0152988 0)
(1.05877 -0.02021 0)
(1.05421 -0.0252651 0)
(1.04946 -0.0304464 0)
(1.04439 -0.0357195 0)
(1.03889 -0.0410301 0)
(1.03296 -0.046313 0)
(1.02676 -0.0514051 0)
(1.02133 -0.0559032 0)
(1.01715 -0.0594063 0)
(1.01407 -0.0619437 0)
(1.01182 -0.063536 0)
(1.01041 -0.0648944 0)
(1.01074 -0.0699454 0)
(1.00002 0.000645022 0)
(1.00002 0.000644235 0)
(1.00001 0.000638537 0)
(1.00001 0.000633831 1.01315e-21)
(1.00001 0.000631192 5.05404e-21)
(1.00001 0.000630441 -9.09507e-21)
(1.00001 0.000631419 5.0516e-21)
(1.00001 0.000634005 -4.02616e-21)
(1.00001 0.000638055 5.13739e-22)
(1 0.00064358 4.02504e-21)
(1 0.000650417 0)
(1 0.000658556 -4.50301e-21)
(1 0.000667875 5.10767e-22)
(0.999999 0.000678255 3.99884e-21)
(0.999998 0.000689677 0)
(0.999996 0.000701974 0)
(0.999995 0.000715114 -3.96499e-21)
(0.999994 0.000728955 3.96749e-21)
(0.999993 0.000743344 0)
(0.999992 0.000758284 -1.96922e-21)
(0.999991 0.000773588 2.09306e-21)
(0.99999 0.000789145 1.83672e-21)
(0.999989 0.000804905 -2.93708e-21)
(0.999988 0.000820689 9.46802e-22)
(0.999987 0.000836403 3.03617e-23)
(0.999987 0.000851984 -6.06898e-23)
(0.999986 0.000867254 8.44731e-22)
(0.999986 0.00088218 -9.65559e-22)
(0.999985 0.000896588 0)
(0.999985 0.000910301 0)
(0.999985 0.000923406 -2.38499e-22)
(0.999985 0.000935815 -2.37587e-22)
(0.999985 0.000947408 -4.01612e-21)
(0.999985 0.000958175 3.3053e-21)
(0.999985 0.000967988 -4.21839e-21)
(0.999985 0.000976793 4.21317e-21)
(0.999986 0.000984559 -3.2518e-21)
(0.999987 0.000991159 3.25028e-21)
(0.999987 0.0009966 4.61447e-22)
(0.999988 0.00100078 4.594e-22)
(0.999989 0.00100368 -4.57319e-22)
(0.99999 0.0010053 0)
(0.999992 0.00100552 0)
(0.999993 0.0010044 0)
(0.999994 0.00100187 0)
(0.999996 0.000998058 0)
(0.999997 0.000992955 1.77604e-21)
(0.999999 0.000985627 -1.77315e-21)
(1 0.000971908 0)
(1.00011 0.000957338 0)
(1.0001 0.000951232 2.04359e-21)
(1.00008 0.000942264 -2.03727e-21)
(1.00007 0.000937393 -1.01694e-21)
(1.00005 0.000937778 -1.01728e-21)
(1.00004 0.000942802 -3.04275e-21)
(1.00002 0.000952223 5.07938e-21)
(1.00001 0.000965985 0)
(0.999996 0.00098359 -5.05741e-22)
(0.999983 0.00100518 -1.01062e-21)
(0.99997 0.00103027 0)
(0.999959 0.00105879 5.03276e-22)
(0.999947 0.00109053 -4.51667e-21)
(0.999937 0.00112506 4.01785e-21)
(0.999927 0.0011624 0)
(0.999918 0.00120209 9.99999e-22)
(0.999909 0.00124398 0)
(0.999901 0.00128788 0)
(0.999894 0.0013333 0)
(0.999887 0.00138019 -1.97804e-21)
(0.999881 0.00142823 1.85531e-21)
(0.999876 0.00147706 -1.23414e-22)
(0.999872 0.00152654 0)
(0.999869 0.00157634 -4.58688e-22)
(0.999866 0.00162615 4.81726e-22)
(0.999864 0.0016758 9.13813e-23)
(0.999864 0.00172496 1.21382e-22)
(0.999863 0.00177339 0)
(0.999864 0.00182086 -1.92684e-21)
(0.999866 0.00186709 1.92641e-21)
(0.999868 0.00191187 -3.58718e-21)
(0.999871 0.00195496 7.87661e-21)
(0.999875 0.00199611 -3.57323e-21)
(0.999879 0.00203511 4.73631e-22)
(0.999884 0.00207166 4.71762e-22)
(0.99989 0.0021057 4.70324e-22)
(0.999897 0.002137 -4.67837e-22)
(0.999905 0.0021653 4.18706e-21)
(0.999913 0.00219055 -3.25327e-21)
(0.999922 0.0022124 -1.38579e-21)
(0.999932 0.00223082 5.05193e-21)
(0.999942 0.00224606 -3.6683e-21)
(0.999953 0.00225691 -1.8228e-21)
(0.999965 0.00226336 3.62188e-21)
(0.999977 0.00226592 -7.22244e-21)
(0.99999 0.00226437 3.59957e-21)
(1 0.0022585 1.78505e-21)
(1.00002 0.00224746 -3.51405e-24)
(1.00003 0.00222616 0)
(1.00025 0.00104045 3.07455e-21)
(1.00021 0.00102943 -1.0266e-21)
(1.00016 0.00102118 -4.09108e-21)
(1.00012 0.00102001 2.04023e-21)
(1.00008 0.00102709 -2.04004e-21)
(1.00003 0.00104159 0)
(0.999994 0.00106324 -2.03131e-21)
(0.999955 0.00109212 -6.08409e-21)
(0.999919 0.00112719 6.08591e-21)
(0.999884 0.00116887 1.01068e-21)
(0.999851 0.00121624 0)
(0.99982 0.00126918 -6.04557e-21)
(0.99979 0.00132754 1.03617e-23)
(0.999763 0.00139036 4.0224e-21)
(0.999737 0.00145784 0)
(0.999713 0.0015292 -9.99454e-22)
(0.999692 0.0016041 -9.99602e-22)
(0.999672 0.00168246 0)
(0.999655 0.00176325 -9.95024e-22)
(0.99964 0.00184647 -1.97965e-21)
(0.999627 0.00193173 1.98025e-21)
(0.999616 0.00201825 -2.47414e-22)
(0.999608 0.00210592 -2.462e-22)
(0.999601 0.00219424 0)
(0.999597 0.00228261 3.81418e-23)
(0.999595 0.0023708 -2.13396e-22)
(0.999595 0.00245836 0)
(0.999598 0.00254473 0)
(0.999603 0.00262966 -1.92743e-21)
(0.99961 0.0027127 1.92706e-21)
(0.999619 0.0027934 -3.82749e-21)
(0.99963 0.00287145 3.82621e-21)
(0.999643 0.00294641 0)
(0.999658 0.00301796 0)
(0.999675 0.00308567 0)
(0.999694 0.00314925 -9.3963e-22)
(0.999715 0.00320833 -1.87317e-21)
(0.999738 0.00326252 0)
(0.999763 0.00331164 -9.27768e-22)
(0.99979 0.00335514 -9.17056e-22)
(0.999819 0.00339292 2.76599e-21)
(0.999849 0.00342463 0)
(0.999881 0.00344978 3.63925e-21)
(0.999915 0.00346837 -5.44813e-21)
(0.999951 0.00347973 0)
(0.999988 0.00348404 0)
(1.00003 0.00348075 0)
(1.00007 0.003469 -1.78011e-21)
(1.00011 0.00344457 -1.76969e-21)
(1.00038 0.00093234 -2.05416e-21)
(1.0003 0.000920944 4.11127e-21)
(1.00022 0.000918919 4.10453e-21)
(1.00014 0.000926778 6.13838e-21)
(1.00005 0.000946024 -2.05055e-21)
(0.999973 0.000975636 -4.07666e-21)
(0.999896 0.00101535 8.15219e-21)
(0.999822 0.00106546 -3.61691e-24)
(0.999751 0.00112419 -2.02918e-21)
(0.999684 0.00119242 2.03172e-21)
(0.999621 0.00126864 0)
(0.999561 0.00135273 2.01854e-21)
(0.999505 0.00144462 -2.008e-21)
(0.999453 0.00154268 8.05406e-21)
(0.999404 0.00164745 -8.0372e-21)
(0.99936 0.00175766 6.02465e-21)
(0.99932 0.00187282 -1.00594e-21)
(0.999284 0.00199306 1.00006e-21)
(0.999253 0.00211658 9.94318e-22)
(0.999225 0.00224356 -9.95265e-22)
(0.999202 0.00237352 0)
(0.999184 0.00250519 -1.47973e-21)
(0.999169 0.00263851 1.23568e-21)
(0.999159 0.00277282 9.83855e-22)
(0.999153 0.00290716 4.58882e-23)
(0.999152 0.00304128 9.13275e-23)
(0.999155 0.00317459 1.45898e-21)
(0.999163 0.00330618 -9.71461e-22)
(0.999174 0.00343575 1.92976e-21)
(0.99919 0.00356276 -1.92945e-21)
(0.99921 0.00368641 0)
(0.999234 0.00380635 4.77407e-21)
(0.999262 0.00392199 -3.81554e-21)
(0.999294 0.00403275 3.78654e-21)
(0.99933 0.00413817 -3.78513e-21)
(0.99937 0.00423776 0)
(0.999413 0.00433098 3.7366e-21)
(0.999461 0.00441732 -1.87071e-21)
(0.999512 0.0044965 0)
(0.999567 0.00456775 3.6917e-21)
(0.999625 0.00463096 -3.68673e-21)
(0.999688 0.00468551 1.83165e-21)
(0.999753 0.00473085 1.82295e-21)
(0.999822 0.00476702 5.4414e-21)
(0.999895 0.00479291 6.03164e-24)
(0.99997 0.00480884 3.59962e-21)
(1.00005 0.00481384 1.78437e-21)
(1.00013 0.00480697 1.77364e-21)
(1.00022 0.00478535 1.77119e-21)
(1.0005 0.000632104 0)
(1.00038 0.000627017 -4.11714e-21)
(1.00024 0.00063839 -4.10853e-21)
(1.0001 0.000662734 0)
(0.999968 0.000701988 -4.09919e-21)
(0.999836 0.000754816 9.08065e-24)
(0.999709 0.000820924 8.19888e-21)
(0.999587 0.000900884 -2.05304e-21)
(0.999471 0.000992028 -9.36383e-24)
(0.999361 0.00109584 -6.10846e-21)
(0.999257 0.00121012 0)
(0.999159 0.00133474 -6.0873e-21)
(0.999068 0.00146979 2.03362e-21)
(0.998983 0.0016128 0)
(0.998905 0.00176476 -2.02203e-21)
(0.998833 0.00192384 9.42207e-24)
(0.998768 0.00208934 -2.00662e-21)
(0.998711 0.00226174 7.01211e-21)
(0.99866 0.00243827 -1.13035e-23)
(0.998616 0.00261937 -1.00713e-21)
(0.99858 0.00280447 -9.94117e-22)
(0.998551 0.00299169 1.979e-21)
(0.998529 0.0031811 -1.9793e-21)
(0.998514 0.00337185 -2.44891e-22)
(0.998506 0.00356255 5.07121e-22)
(0.998506 0.00375293 -2.73965e-22)
(0.998513 0.00394231 9.75522e-22)
(0.998527 0.00412933 -9.73756e-22)
(0.998548 0.00431368 9.70572e-22)
(0.998576 0.00449467 1.92665e-21)
(0.998611 0.00467118 -5.76423e-21)
(0.998653 0.00484281 -9.42246e-22)
(0.998702 0.00500878 5.73248e-21)
(0.998757 0.00516827 1.90216e-21)
(0.998819 0.00532076 -3.77606e-21)
(0.998887 0.00546556 3.77378e-21)
(0.998962 0.00560195 7.76408e-24)
(0.999043 0.00572933 5.60169e-21)
(0.99913 0.00584729 -3.73315e-21)
(0.999224 0.00595486 -9.25653e-21)
(0.999323 0.00605191 3.68307e-21)
(0.999429 0.00613761 1.8332e-21)
(0.99954 0.0062113 7.28625e-21)
(0.999657 0.00627303 -3.63465e-21)
(0.999779 0.00632137 -7.81162e-24)
(0.999908 0.00635678 -8.45656e-24)
(1.00004 0.00637786 0)
(1.00019 0.00638376 -3.5581e-21)
(1.00034 0.00637361 -3.53434e-21)
(1.00056 0.000125766 0)
(1.00039 0.000131033 -6.2232e-21)
(1.0002 0.000164114 6.21484e-21)
(0.999991 0.000214255 0)
(0.999789 0.000283594 0)
(0.999591 0.000370087 -4.11482e-21)
(0.999401 0.0004734 -2.70402e-24)
(0.999218 0.000594453 -4.11545e-21)
(0.999044 0.000729496 -8.22344e-24)
(0.998879 0.000880781 0)
(0.998723 0.00104523 0)
(0.998576 0.00122277 2.0343e-21)
(0.998439 0.00141368 0)
(0.998312 0.00161448 0)
(0.998195 0.00182675 -2.02684e-21)
(0.998088 0.00204798 4.06171e-21)
(0.997992 0.00227724 2.02448e-21)
(0.997906 0.00251542 0)
(0.997831 0.00275862 1.99491e-21)
(0.997767 0.00300759 -5.01412e-21)
(0.997713 0.0032617 -1.99684e-21)
(0.997671 0.00351833 -1.98728e-21)
(0.997639 0.0037777 1.98749e-21)
(0.997618 0.0040388 1.34775e-24)
(0.997609 0.00429968 1.54473e-23)
(0.99761 0.00456011 2.45291e-22)
(0.997622 0.00481926 -4.90296e-22)
(0.997645 0.00507531 0)
(0.997679 0.0053279 -9.69576e-22)
(0.997723 0.00557621 0)
(0.997778 0.00581873 0)
(0.997844 0.00605502 -1.92395e-21)
(0.997919 0.00628409 -7.64033e-21)
(0.998005 0.00650485 2.16109e-23)
(0.998101 0.00671672 1.89962e-21)
(0.998207 0.00691883 0)
(0.998323 0.00711021 -1.87544e-21)
(0.998447 0.00729022 -3.7426e-21)
(0.998582 0.00745827 3.7162e-21)
(0.998725 0.00761318 7.40462e-21)
(0.998878 0.00775488 -7.36709e-21)
(0.999039 0.00788225 2.76573e-24)
(0.999209 0.00799455 -3.64637e-21)
(0.999388 0.00809189 5.82426e-26)
(0.999575 0.00817245 0)
(0.999771 0.00823692 -3.59082e-21)
(0.999977 0.00828337 -1.7814e-21)
(1.00019 0.0083112 1.78006e-21)
(1.00043 0.00832275 3.53646e-21)
(1.00055 -0.000616494 0)
(1.00031 -0.000569516 4.16006e-21)
(1.00003 -0.000538457 -1.24992e-20)
(0.999755 -0.000451892 0)
(0.999472 -0.000339163 0)
(0.999193 -0.000205795 -8.3025e-21)
(0.998924 -5.15635e-05 8.27451e-21)
(0.998666 0.000124855 -4.14809e-21)
(0.998419 0.000318455 -8.38309e-24)
(0.998185 0.000532391 4.12415e-21)
(0.997964 0.000762532 0)
(0.997757 0.00100888 0)
(0.997563 0.00127194 4.1128e-21)
(0.997383 0.00154704 0)
(0.997217 0.00183649 0)
(0.997066 0.00213695 -4.07129e-21)
(0.99693 0.00244726 1.49165e-23)
(0.996809 0.00276876 0)
(0.996703 0.00309629 2.01268e-21)
(0.996613 0.00343092 5.03566e-21)
(0.996538 0.00377197 -2.01765e-21)
(0.996479 0.00411595 0)
(0.996435 0.0044633 -9.95735e-22)
(0.996408 0.00481274 1.24411e-21)
(0.996395 0.00516176 -5.42641e-22)
(0.996399 0.00551012 -2.47588e-22)
(0.996419 0.00585684 4.88131e-22)
(0.996454 0.00619954 -9.81241e-22)
(0.996504 0.00653783 0)
(0.99657 0.00687072 -3.8876e-21)
(0.996651 0.00719625 5.79926e-21)
(0.996747 0.00751391 1.90586e-21)
(0.996858 0.00782253 -7.25994e-24)
(0.996983 0.00812063 1.90354e-21)
(0.997123 0.0084076 -1.91128e-21)
(0.997277 0.00868238 -3.77235e-21)
(0.997444 0.0089437 7.52364e-21)
(0.997625 0.00919083 -3.74851e-21)
(0.99782 0.00942306 7.46075e-21)
(0.998027 0.00963894 6.79124e-24)
(0.998247 0.00983847 7.37225e-21)
(0.998479 0.0100202 -3.66403e-21)
(0.998723 0.0101834 0)
(0.99898 0.0103282 3.63213e-25)
(0.999248 0.0104523 7.21417e-21)
(0.999528 0.0105567 0)
(0.999823 0.010639 0)
(1.00013 0.0106988 6.20352e-21)
(1.00047 0.0107435 8.83917e-22)
(1.00044 -0.00174744 1.0497e-21)
(1.00009 -0.00164375 7.37788e-21)
(0.999715 -0.0014769 8.35889e-21)
(0.999332 -0.00133421 -8.4145e-21)
(0.998949 -0.00120899 0)
(0.998581 -0.00101727 -1.09869e-23)
(0.998219 -0.000795554 -4.20726e-21)
(0.997869 -0.000547207 -4.1959e-21)
(0.997534 -0.000277636 1.25038e-20)
(0.997215 1.71884e-05 -4.15723e-21)
(0.996914 0.000331858 0)
(0.996631 0.000666484 8.29325e-21)
(0.996367 0.00102178 -8.24657e-21)
(0.996121 0.0013917 2.46799e-23)
(0.995895 0.00177938 8.22255e-21)
(0.99569 0.00218051 -2.06421e-21)
(0.995504 0.00259361 -2.01241e-21)
(0.995339 0.00302059 4.08513e-21)
(0.995196 0.00345478 0)
(0.995073 0.00389767 -2.02018e-21)
(0.994972 0.00434844 2.02221e-21)
(0.994892 0.00480268 2.01147e-21)
(0.994834 0.00526097 -2.01143e-21)
(0.994798 0.00572177 2.51165e-22)
(0.994784 0.00618194 3.10335e-23)
(0.994792 0.00664112 7.4271e-22)
(0.994821 0.00709819 -2.60873e-24)
(0.994872 0.00755017 0)
(0.994944 0.00799651 0)
(0.995038 0.00843605 -1.41913e-24)
(0.995152 0.00886632 -1.93e-21)
(0.995288 0.00928667 3.87636e-21)
(0.995444 0.00969572 -3.85022e-21)
(0.99562 0.0100915 3.82042e-21)
(0.995815 0.0104734 -7.64079e-21)
(0.99603 0.0108401 1.76863e-23)
(0.996264 0.01119 3.77974e-21)
(0.996516 0.0115222 3.74221e-21)
(0.996787 0.0118359 -7.479e-21)
(0.997074 0.0121294 -7.42622e-21)
(0.997379 0.0124027 -3.69907e-21)
(0.9977 0.012654 -3.67667e-21)
(0.998037 0.0128824 0)
(0.998391 0.0130883 -3.62415e-21)
(0.998759 0.013269 -2.46295e-24)
(0.999144 0.0134257 7.162e-21)
(0.999548 0.0135551 -8.89276e-21)
(0.999972 0.0136579 1.76094e-21)
(1.00043 0.0137478 0)
(1.00014 -0.0032421 0)
(0.999701 -0.00308963 -8.4354e-21)
(0.99921 -0.00288085 0)
(0.998693 -0.00265297 8.4208e-21)
(0.998186 -0.00237165 4.21996e-21)
(0.997691 -0.00208805 -8.43728e-21)
(0.99721 -0.00181443 1.26125e-20)
(0.99675 -0.00148281 4.18783e-21)
(0.996314 -0.0011178 -4.18351e-21)
(0.995892 -0.000721711 0)
(0.995492 -0.000300484 4.18221e-21)
(0.995117 0.000145761 -8.3433e-21)
(0.994765 0.000617619 4.19153e-21)
(0.994438 0.00110747 -4.14133e-21)
(0.994138 0.0016193 2.82593e-23)
(0.993864 0.00214765 4.1449e-21)
(0.993617 0.00269064 -8.26204e-21)
(0.993398 0.0032507 0)
(0.993207 0.0038196 4.09779e-21)
(0.993044 0.0043992 -4.0978e-21)
(0.992911 0.00498845 -1.01461e-21)
(0.992806 0.00558196 0)
(0.992731 0.0061804 1.01717e-21)
(0.992684 0.00678185 2.52097e-22)
(0.992668 0.00738253 -5.34486e-22)
(0.992681 0.00798183 7.49945e-22)
(0.992724 0.00857838 4.94507e-22)
(0.992795 0.00916861 -9.9303e-22)
(0.992896 0.00975161 0)
(0.993026 0.010326 -1.95858e-21)
(0.993184 0.0108888 3.91864e-21)
(0.993371 0.011439 0)
(0.993585 0.011975 1.92783e-21)
(0.993826 0.0124942 0)
(0.994093 0.0129959 3.81599e-21)
(0.994386 0.0134787 -7.60825e-21)
(0.994705 0.0139402 3.77086e-21)
(0.995048 0.0143796 -2.05724e-23)
(0.995415 0.0147959 3.7104e-21)
(0.995804 0.0151868 -3.72616e-21)
(0.996215 0.0155527 3.68904e-21)
(0.996648 0.0158913 7.34414e-21)
(0.997102 0.0162016 0)
(0.997575 0.0164841 0)
(0.998069 0.0167355 -7.20556e-21)
(0.998584 0.0169577 -1.431e-20)
(0.999121 0.0171463 1.42168e-20)
(0.999686 0.017303 -7.95362e-21)
(1.00029 0.0174509 7.88794e-21)
(0.999639 -0.00523832 0)
(0.999068 -0.0050159 8.57998e-21)
(0.998439 -0.00473032 8.56876e-21)
(0.997786 -0.00441486 1.28403e-20)
(0.99713 -0.00405268 -1.28353e-20)
(0.996477 -0.00366202 -4.25851e-21)
(0.995848 -0.0032307 1.28294e-20)
(0.995245 -0.00274347 -4.24957e-21)
(0.994667 -0.00226882 4.25301e-21)
(0.994118 -0.0017748 0)
(0.993603 -0.00122257 8.51881e-21)
(0.993112 -0.000636208 0)
(0.992651 -1.82799e-05 -4.19257e-21)
(0.992223 0.000622424 -4.23379e-21)
(0.99183 0.00129042 4.93052e-23)
(0.99147 0.00197889 0)
(0.991147 0.00268552 4.18354e-21)
(0.990859 0.00341318 8.35159e-21)
(0.990608 0.00415206 0)
(0.990396 0.00490434 2.06297e-21)
(0.990221 0.00566855 -2.06234e-21)
(0.990084 0.00643833 -2.04724e-21)
(0.989987 0.00721428 2.05815e-21)
(0.989929 0.00799398 -4.02338e-24)
(0.989911 0.00877296 -5.07522e-22)
(0.989932 0.00955013 -2.23206e-22)
(0.989992 0.0103238 -5.02852e-22)
(0.990091 0.0110896 1.00368e-21)
(0.99023 0.0118463 0)
(0.990407 0.0125919 1.97158e-21)
(0.990622 0.0133229 -3.9289e-21)
(0.990875 0.0140378 0)
(0.991164 0.0147346 0)
(0.99149 0.0154102 3.85318e-21)
(0.99185 0.0160632 -7.68467e-21)
(0.992244 0.0166922 3.83049e-21)
(0.992672 0.0172941 3.80506e-21)
(0.993131 0.017868 0)
(0.993621 0.0184124 1.12396e-20)
(0.99414 0.0189248 -7.4443e-21)
(0.994687 0.0194058 -3.69535e-21)
(0.995262 0.0198522 1.33931e-23)
(0.995861 0.0202633 -7.30069e-21)
(0.996487 0.0206396 -7.24196e-21)
(0.997137 0.0209772 -7.19438e-21)
(0.997812 0.0212787 8.18258e-24)
(0.998516 0.0215384 -1.36011e-23)
(0.999253 0.0217595 0)
(1.00004 0.0219772 -1.39863e-20)
(0.998887 -0.00790169 0)
(0.998154 -0.00758816 2.23952e-21)
(0.997354 -0.00719824 -1.07235e-20)
(0.996525 -0.00677243 -8.57739e-21)
(0.995689 -0.00629874 8.57098e-21)
(0.994862 -0.00578097 4.35961e-21)
(0.994057 -0.00521494 -4.25813e-21)
(0.993274 -0.00460276 0)
(0.99252 -0.00395731 0)
(0.991807 -0.00324765 8.64388e-21)
(0.991133 -0.00252889 -8.52513e-21)
(0.990496 -0.0017961 4.27729e-21)
(0.989899 -0.000999612 -4.27389e-21)
(0.989343 -0.000170559 4.26983e-21)
(0.98883 0.00069247 4.27544e-21)
(0.988362 0.0015815 -4.24302e-21)
(0.98794 0.0024937 -4.19993e-21)
(0.987564 0.00343218 -4.18474e-21)
(0.987237 0.0043856 4.19022e-21)
(0.986959 0.00535628 -4.18929e-21)
(0.986731 0.00634213 0)
(0.986554 0.00733583 2.08887e-21)
(0.986429 0.00833762 -2.0573e-21)
(0.986356 0.00934437 1.54133e-21)
(0.986335 0.0103508 0)
(0.986367 0.0113552 1.01872e-21)
(0.986451 0.012355 0)
(0.986587 0.0133454 -1.00239e-21)
(0.986775 0.014324 1.7261e-23)