/*--------------------------------*- C++ -*----------------------------------*\
| =========                 |                                                 |
| \\      /  F ield         | OpenFOAM: The Open Source CFD Toolbox           |
|  \\    /   O peration     | Version:  2312                                  |
|   \\  /    A nd           | Website:  www.openfoam.com                      |
|    \\/     M anipulation  |                                                 |
\*---------------------------------------------------------------------------*/
FoamFile
{
    version     2.0;
    format      ascii;
    arch        "LSB;label=32;scalar=64";
    class       volScalarField;
    location    "19.459014521899945";
    object      p;
}
// * * * * * * * * * * * * * * * * * * * * * * * * * * * * * * * * * * * * * //

dimensions      [0 2 -2 0 0 0 0];

internalField   nonuniform List<scalar> 
21039
(
0.701812
0.568036
0.525949
0.497764
0.476523
0.460537
0.448203
0.438419
0.430502
0.424001
0.4186
0.414068
0.410234
0.406967
0.404164
0.401741
0.399632
0.39778
0.396137
0.394663
0.393321
0.392082
0.390915
0.389855
0.388932
0.388107
0.387342
0.386609
0.385898
0.554665
0.516874
0.503127
0.484821
0.46814
0.454948
0.444301
0.435566
0.42835
0.422341
0.417296
0.413031
0.409401
0.406295
0.40362
0.401303
0.399283
0.397505
0.395927
0.394508
0.393213
0.392013
0.390879
0.389842
0.388928
0.388105
0.387341
0.38661
0.385898
0.465157
0.462833
0.465084
0.458414
0.450061
0.442361
0.435211
0.428794
0.423183
0.418319
0.414113
0.410479
0.407337
0.404616
0.402252
0.400192
0.398386
0.396792
0.395373
0.394094
0.392923
0.391832
0.390794
0.389833
0.388974
0.388191
0.387458
0.386752
0.386062
0.426943
0.429109
0.433678
0.432691
0.43017
0.42705
0.423353
0.419549
0.415905
0.412523
0.409448
0.406693
0.404245
0.402082
0.400176
0.398498
0.397018
0.395707
0.394536
0.393477
0.392506
0.391595
0.390723
0.389902
0.389152
0.388455
0.387791
0.387137
0.386488
0.401772
0.405777
0.411769
0.413589
0.4139
0.41328
0.41186
0.410052
0.408077
0.406064
0.404106
0.402265
0.40057
0.399035
0.397659
0.396435
0.395349
0.394386
0.393527
0.392751
0.39204
0.39137
0.390722
0.390097
0.389503
0.388928
0.388361
0.387782
0.387188
0.381945
0.387226
0.394679
0.398666
0.400793
0.40172
0.401775
0.401337
0.400592
0.399663
0.398654
0.397634
0.396652
0.395735
0.394901
0.394156
0.393499
0.392923
0.392419
0.391974
0.39157
0.391191
0.390819
0.390437
0.390037
0.389618
0.389173
0.388692
0.388171
0.368954
0.373993
0.381185
0.386256
0.389608
0.391681
0.392836
0.393421
0.393613
0.393543
0.393316
0.393005
0.392662
0.392324
0.392016
0.391751
0.391536
0.391372
0.391254
0.391174
0.39112
0.391076
0.39103
0.390936
0.390772
0.390541
0.390244
0.38988
0.389455
0.361403
0.365512
0.371341
0.376417
0.380261
0.382987
0.384879
0.386208
0.387123
0.387742
0.388165
0.388463
0.388689
0.388883
0.389073
0.389277
0.389507
0.389768
0.390058
0.390374
0.390706
0.391041
0.391364
0.391607
0.39172
0.391713
0.391595
0.391367
0.391041
0.356593
0.359795
0.364242
0.36886
0.372701
0.375652
0.377929
0.379726
0.381152
0.382299
0.383248
0.384059
0.384784
0.38546
0.386115
0.386771
0.387442
0.388133
0.388847
0.389583
0.390332
0.391085
0.391827
0.392457
0.392895
0.393152
0.393247
0.393186
0.392982
0.352864
0.355313
0.358709
0.362794
0.366446
0.369416
0.371862
0.373928
0.375691
0.377222
0.378579
0.379814
0.380968
0.382074
0.38316
0.384246
0.385346
0.386468
0.387617
0.388792
0.389987
0.391195
0.392402
0.393473
0.394285
0.394851
0.395197
0.395334
0.395279
0.349516
0.35136
0.354
0.357571
0.360986
0.363904
0.366423
0.368646
0.370636
0.372446
0.374122
0.375703
0.377223
0.378712
0.380192
0.381684
0.3832
0.38475
0.386339
0.387969
0.389635
0.391332
0.39305
0.394614
0.395851
0.396775
0.397416
0.397787
0.397909
0.346237
0.34763
0.349734
0.352837
0.356001
0.358838
0.361378
0.363697
0.365846
0.367867
0.369795
0.371663
0.373498
0.375327
0.37717
0.379043
0.380962
0.382934
0.384967
0.387061
0.389216
0.391429
0.393695
0.3958
0.397516
0.398848
0.399829
0.400475
0.400806
0.342868
0.343945
0.345675
0.348375
0.351297
0.354033
0.356562
0.358935
0.361194
0.363375
0.365506
0.367614
0.369723
0.371855
0.37403
0.376263
0.378569
0.380957
0.383431
0.385994
0.388647
0.391389
0.394227
0.396906
0.399141
0.400928
0.402296
0.403257
0.403831
0.339345
0.340203
0.341664
0.344025
0.346723
0.349352
0.351848
0.354243
0.356576
0.358877
0.36117
0.363478
0.365822
0.368224
0.370703
0.373276
0.375956
0.378749
0.38166
0.384691
0.387839
0.391108
0.39451
0.397759
0.40052
0.402782
0.404567
0.405878
0.406729
0.335653
0.336356
0.337605
0.339667
0.342148
0.344664
0.347114
0.349511
0.35189
0.354277
0.356694
0.359164
0.361707
0.364347
0.367104
0.369995
0.373032
0.376222
0.379566
0.383061
0.386699
0.390473
0.394396
0.398145
0.401359
0.404043
0.406226
0.407895
0.409052
0.332112
0.332701
0.333781
0.335619
0.337923
0.340332
0.342728
0.345114
0.347516
0.34996
0.352465
0.355057
0.357757
0.360594
0.363589
0.36676
0.370123
0.373683
0.377439
0.381378
0.385474
0.389693
0.394009
0.398031
0.401393
0.404174
0.406475
0.40832
0.409704
0.329091
0.329605
0.330577
0.33227
0.334441
0.336755
0.339105
0.341482
0.343903
0.346388
0.34896
0.351644
0.354472
0.357471
0.360666
0.364082
0.367735
0.371634
0.375776
0.380139
0.384675
0.389302
0.393916
0.397967
0.401028
0.403256
0.404913
0.406257
0.407516
0.326572
0.327035
0.327932
0.329518
0.331585
0.333836
0.336169
0.338557
0.341004
0.343529
0.346161
0.348929
0.35187
0.355015
0.358394
0.362036
0.365964
0.370194
0.374723
0.379525
0.384539
0.389636
0.394613
0.398668
0.401126
0.402006
0.401582
0.400379
0.399514
0.324523
0.325033
0.325945
0.327423
0.329319
0.331461
0.333781
0.336203
0.338693
0.341268
0.343965
0.346822
0.349877
0.353166
0.356726
0.360592
0.364797
0.369362
0.374294
0.379574
0.385139
0.390848
0.396436
0.400855
0.402997
0.402336
0.398532
0.391021
0.379579
0.385199
0.384495
0.383797
0.383103
0.382412
0.381724
0.381036
0.380349
0.379661
0.378971
0.378279
0.377584
0.376884
0.37618
0.37547
0.374754
0.374031
0.373301
0.372564
0.371818
0.371065
0.370302
0.369532
0.368753
0.367966
0.36717
0.366367
0.365556
0.364738
0.363913
0.363081
0.362244
0.361401
0.360554
0.359702
0.358849
0.357993
0.357135
0.356278
0.355421
0.354566
0.353713
0.352864
0.352019
0.35118
0.350348
0.349522
0.348704
0.347895
0.385203
0.384509
0.383821
0.383138
0.382458
0.38178
0.381102
0.380425
0.379746
0.379066
0.378383
0.377697
0.377005
0.376309
0.375606
0.374896
0.374179
0.373454
0.37272
0.371977
0.371226
0.370465
0.369695
0.368915
0.368126
0.367329
0.366522
0.365707
0.364884
0.364053
0.363215
0.36237
0.36152
0.360665
0.359805
0.358942
0.358076
0.357209
0.35634
0.355472
0.354606
0.353741
0.35288
0.352023
0.351172
0.350327
0.349489
0.34866
0.347839
0.38539
0.384722
0.384059
0.3834
0.382744
0.382088
0.381432
0.380776
0.380117
0.379454
0.378788
0.378116
0.377437
0.376752
0.376059
0.375356
0.374645
0.373923
0.373191
0.372448
0.371694
0.370929
0.370153
0.369366
0.368567
0.367758
0.366938
0.366108
0.365268
0.364419
0.363562
0.362697
0.361825
0.360946
0.360062
0.359174
0.358282
0.357388
0.356492
0.355595
0.354699
0.353805
0.352914
0.352026
0.351143
0.350266
0.349396
0.348535
0.347682
0.385855
0.385226
0.3846
0.383976
0.383353
0.382728
0.382102
0.381472
0.380837
0.380197
0.37955
0.378895
0.378231
0.377557
0.376872
0.376175
0.375467
0.374745
0.37401
0.373261
0.372499
0.371723
0.370933
0.370128
0.369311
0.36848
0.367636
0.366779
0.365911
0.365032
0.364142
0.363242
0.362334
0.361417
0.360494
0.359565
0.358631
0.357692
0.356752
0.355809
0.354866
0.353924
0.352983
0.352045
0.351111
0.350183
0.349261
0.348345
0.347439
0.386606
0.386029
0.385451
0.384872
0.38429
0.383705
0.383114
0.382517
0.381911
0.381297
0.380672
0.380035
0.379386
0.378723
0.378045
0.377352
0.376643
0.375917
0.375175
0.374415
0.373638
0.372843
0.372031
0.371201
0.370355
0.369492
0.368614
0.36772
0.366811
0.365889
0.364953
0.364006
0.363047
0.362079
0.361101
0.360116
0.359124
0.358126
0.357124
0.356119
0.355112
0.354104
0.353097
0.352092
0.351089
0.350091
0.349097
0.34811
0.347131
0.387649
0.387134
0.386616
0.386093
0.385564
0.385026
0.384479
0.383921
0.38335
0.382765
0.382166
0.38155
0.380916
0.380264
0.379593
0.378901
0.378189
0.377456
0.3767
0.375923
0.375124
0.374303
0.373461
0.372597
0.371713
0.370808
0.369883
0.36894
0.367978
0.367
0.366006
0.364996
0.363973
0.362937
0.36189
0.360833
0.359767
0.358694
0.357614
0.356529
0.355442
0.354351
0.35326
0.35217
0.351081
0.349995
0.348912
0.347836
0.346767
0.389034
0.388559
0.388119
0.387665
0.387198
0.386717
0.386222
0.38571
0.38518
0.38463
0.384059
0.383466
0.38285
0.382209
0.381543
0.38085
0.380131
0.379385
0.378612
0.377812
0.376984
0.376129
0.375247
0.374339
0.373406
0.372448
0.371465
0.37046
0.369433
0.368385
0.367317
0.366231
0.365128
0.364009
0.362876
0.36173
0.360573
0.359407
0.358232
0.35705
0.355863
0.354672
0.353479
0.352285
0.351091
0.349899
0.34871
0.347526
0.346349
0.390715
0.390392
0.390033
0.389622
0.38923
0.388813
0.388376
0.387917
0.387433
0.386922
0.386383
0.385814
0.385215
0.384585
0.383923
0.383227
0.382498
0.381735
0.380938
0.380108
0.379243
0.378346
0.377416
0.376454
0.375461
0.374438
0.373385
0.372305
0.371197
0.370065
0.368909
0.36773
0.36653
0.365312
0.364075
0.362824
0.361557
0.360279
0.35899
0.357692
0.356387
0.355076
0.353761
0.352444
0.351125
0.349808
0.348492
0.34718
0.345878
0.392761
0.392536
0.392287
0.392018
0.391728
0.391321
0.390964
0.390566
0.390131
0.389663
0.389159
0.388618
0.388038
0.387418
0.386758
0.386057
0.385315
0.384531
0.383706
0.382839
0.381932
0.380984
0.379997
0.378971
0.377908
0.376807
0.375672
0.374503
0.373302
0.37207
0.370809
0.36952
0.368207
0.36687
0.365511
0.364133
0.362738
0.361327
0.359902
0.358467
0.357022
0.355569
0.35411
0.352648
0.351184
0.349719
0.348255
0.346796
0.345347
0.395188
0.395079
0.39493
0.394749
0.394544
0.394309
0.39403
0.393692
0.393284
0.392868
0.392404
0.391893
0.391335
0.390728
0.390071
0.389365
0.388608
0.387801
0.386945
0.386038
0.385082
0.384079
0.383027
0.381929
0.380785
0.379597
0.378368
0.377097
0.375786
0.374439
0.373056
0.37164
0.370193
0.368717
0.367214
0.365688
0.36414
0.362572
0.360988
0.359389
0.357779
0.356158
0.354531
0.352897
0.351261
0.349624
0.347986
0.346355
0.344736
0.397973
0.398004
0.39798
0.397912
0.397801
0.397645
0.397443
0.397196
0.396897
0.396542
0.396115
0.395645
0.395115
0.394525
0.393877
0.393169
0.392401
0.391574
0.390688
0.389743
0.388738
0.387677
0.386557
0.385382
0.384152
0.382868
0.381533
0.380149
0.378715
0.377236
0.375713
0.374148
0.372546
0.370906
0.369234
0.367533
0.365802
0.364049
0.362274
0.360481
0.358673
0.356851
0.355022
0.353185
0.351345
0.349503
0.347661
0.345827
0.34401
0.401049
0.401238
0.401358
0.401424
0.401434
0.401387
0.401281
0.401115
0.40089
0.400605
0.40026
0.399844
0.399357
0.398804
0.398182
0.39749
0.396727
0.395893
0.394991
0.394016
0.392972
0.391858
0.390674
0.389424
0.388106
0.386722
0.385274
0.383765
0.382193
0.380565
0.378882
0.377145
0.37536
0.373527
0.371652
0.369739
0.367789
0.365809
0.363802
0.361771
0.359722
0.357656
0.35558
0.353496
0.351408
0.349319
0.34723
0.345153
0.3431
0.404283
0.404647
0.404932
0.405154
0.405311
0.405401
0.405422
0.405373
0.405255
0.405064
0.404803
0.404466
0.404054
0.403566
0.403003
0.402364
0.401639
0.400831
0.399939
0.39896
0.397898
0.396753
0.39552
0.394205
0.392807
0.391323
0.38976
0.388118
0.386395
0.384599
0.382729
0.380789
0.378786
0.376718
0.374595
0.372422
0.370198
0.367935
0.365635
0.363305
0.360952
0.358577
0.356191
0.353796
0.351398
0.349002
0.346609
0.344235
0.341893
0.407419
0.40798
0.408456
0.408866
0.409206
0.409477
0.409675
0.409798
0.409848
0.409818
0.40971
0.409518
0.409242
0.40888
0.408422
0.407872
0.40726
0.406524
0.405696
0.404762
0.403727
0.402587
0.401337
0.399983
0.398522
0.39695
0.395273
0.393492
0.391602
0.389613
0.387524
0.385338
0.383064
0.380702
0.378262
0.375752
0.373172
0.370538
0.367854
0.365129
0.362373
0.359591
0.356798
0.353996
0.351197
0.348405
0.345624
0.342874
0.340173
0.410008
0.410782
0.411482
0.412133
0.412729
0.413271
0.41375
0.41416
0.414497
0.414746
0.414908
0.414971
0.414936
0.414802
0.414559
0.414202
0.413724
0.41316
0.412499
0.411685
0.410744
0.409672
0.408459
0.407111
0.405622
0.403985
0.402206
0.400282
0.398209
0.395996
0.393642
0.39115
0.388533
0.385788
0.382931
0.379972
0.376913
0.373776
0.370566
0.3673
0.363992
0.36065
0.357297
0.353939
0.350595
0.347274
0.343983
0.340747
0.337589
0.410895
0.411838
0.412802
0.413825
0.414874
0.415922
0.416925
0.417854
0.418688
0.419403
0.419997
0.420456
0.420787
0.420992
0.421063
0.421009
0.420812
0.420478
0.420025
0.419468
0.41871
0.417791
0.416696
0.415426
0.413969
0.412312
0.410461
0.408408
0.406143
0.40368
0.401014
0.39815
0.395103
0.391873
0.388481
0.38494
0.381255
0.377456
0.373552
0.369565
0.365518
0.361423
0.357315
0.353206
0.349132
0.34511
0.34116
0.33732
0.333622
0.408872
0.409881
0.411285
0.413076
0.415046
0.417041
0.418928
0.420642
0.422155
0.423449
0.424545
0.425443
0.42617
0.42674
0.427155
0.427436
0.427568
0.427556
0.427398
0.427081
0.426633
0.425962
0.425076
0.423975
0.422635
0.421031
0.419168
0.417029
0.414599
0.411892
0.408902
0.405636
0.402115
0.398339
0.394341
0.390138
0.385741
0.381189
0.376492
0.371682
0.366782
0.361809
0.356805
0.351786
0.346803
0.341896
0.337111
0.332527
0.32821
0.399436
0.400869
0.40446
0.408909
0.413238
0.417084
0.420333
0.423024
0.425241
0.427056
0.428563
0.429805
0.430844
0.431717
0.432435
0.433033
0.433498
0.433842
0.434058
0.434097
0.433995
0.433691
0.433126
0.432304
0.431186
0.429729
0.427928
0.425754
0.423181
0.42023
0.41689
0.413174
0.409113
0.404714
0.400024
0.395071
0.389873
0.384487
0.378924
0.373226
0.367415
0.361502
0.355523
0.349476
0.343402
0.337338
0.331366
0.325682
0.320557
0.371061
0.382096
0.394849
0.40533
0.413162
0.418882
0.423069
0.426221
0.428672
0.430629
0.43225
0.433604
0.434778
0.435815
0.436739
0.437593
0.43836
0.439061
0.439682
0.440152
0.440463
0.440625
0.440469
0.440026
0.439242
0.438046
0.436406
0.434277
0.431619
0.428457
0.424784
0.420617
0.416005
0.410966
0.405565
0.399849
0.393849
0.387641
0.381248
0.374723
0.368092
0.361359
0.354543
0.347597
0.34049
0.333139
0.325469
0.317555
0.309989
0.347104
0.34629
0.345418
0.344479
0.343456
0.342341
0.341159
0.340053
0.339131
0.338422
0.337963
0.337787
0.337938
0.338464
0.339417
0.340862
0.342879
0.345567
0.349054
0.353507
0.359151
0.366301
0.375404
0.387137
0.402601
0.4234
0.451226
0.492977
0.626483
0.347033
0.346202
0.345312
0.344348
0.343293
0.342139
0.340912
0.339756
0.338781
0.338019
0.337501
0.337262
0.337343
0.337784
0.338636
0.339958
0.341821
0.344312
0.347539
0.351643
0.356802
0.363257
0.371315
0.381365
0.394036
0.410266
0.428204
0.441607
0.479148
0.346843
0.345975
0.345039
0.344018
0.342894
0.341655
0.340324
0.339052
0.337955
0.337063
0.336405
0.336012
0.335916
0.336153
0.336761
0.337787
0.339279
0.341298
0.343909
0.347189
0.351218
0.35608
0.36183
0.368391
0.375572
0.383467
0.389745
0.387114
0.389194
0.346544
0.345613
0.344602
0.343493
0.34226
0.34089
0.339399
0.337947
0.336662
0.335571
0.334698
0.334068
0.333706
0.333635
0.333882
0.334472
0.335431
0.33678
0.338537
0.340709
0.343277
0.346191
0.349343
0.35246
0.355067
0.357128
0.3577
0.352734
0.350351
0.346159
0.345143
0.344031
0.342802
0.341425
0.339879
0.338178
0.336493
0.334967
0.333623
0.33248
0.331558
0.330871
0.330434
0.330258
0.330352
0.330717
0.331346
0.332223
0.333308
0.334537
0.335807
0.336985
0.337844
0.337962
0.337196
0.334955
0.328582
0.3244
0.345699
0.344576
0.343338
0.341958
0.340402
0.338641
0.336683
0.334719
0.332907
0.331269
0.329818
0.328569
0.327529
0.326702
0.326089
0.325685
0.325476
0.325438
0.325536
0.325716
0.325899
0.325976
0.325814
0.325224
0.323818
0.321251
0.316853
0.309048
0.30363
0.345166
0.343912
0.342522
0.340962
0.339192
0.337175
0.334916
0.332627
0.330492
0.328526
0.326742
0.325145
0.32374
0.322522
0.321484
0.320612
0.319882
0.319263
0.318709
0.31816
0.317535
0.316721
0.31558
0.313927
0.311407
0.307641
0.302183
0.294677
0.289541
0.344558
0.34315
0.341579
0.339806
0.337784
0.335469
0.332864
0.330211
0.327718
0.3254
0.323263
0.321311
0.319541
0.317945
0.316509
0.31521
0.314023
0.312907
0.311815
0.310684
0.309434
0.307959
0.306129
0.303789
0.30066
0.29644
0.291016
0.284922
0.280754
0.343867
0.342278
0.340495
0.338474
0.336159
0.333503
0.330507
0.32745
0.32457
0.321879
0.319381
0.317074
0.314952
0.313001
0.311201
0.309529
0.307951
0.306427
0.30491
0.303338
0.30164
0.299728
0.297499
0.294838
0.291542
0.287381
0.282467
0.277813
0.274583
0.34307
0.341269
0.33924
0.336931
0.334279
0.331234
0.3278
0.324302
0.32101
0.317934
0.315073
0.312423
0.309969
0.307695
0.305577
0.303588
0.301692
0.299851
0.298019
0.296141
0.294157
0.291999
0.289587
0.286836
0.283594
0.279691
0.275376
0.271834
0.269381
0.342125
0.340076
0.337759
0.335115
0.332077
0.328591
0.324671
0.320696
0.316973
0.313507
0.310292
0.307316
0.304562
0.302006
0.299621
0.297377
0.295238
0.293166
0.291117
0.289045
0.2869
0.284625
0.282157
0.279428
0.276325
0.272743
0.269018
0.266291
0.264461
0.340954
0.338613
0.335959
0.332925
0.329442
0.32546
0.321006
0.316524
0.31236
0.308509
0.304959
0.301689
0.298675
0.295886
0.293292
0.290857
0.288548
0.286323
0.284143
0.281965
0.279747
0.277442
0.274998
0.272356
0.269437
0.266202
0.263028
0.260893
0.259528
0.339432
0.336743
0.33369
0.330202
0.326209
0.321672
0.316642
0.311635
0.307034
0.302822
0.298973
0.295454
0.292232
0.289271
0.286531
0.283975
0.281565
0.279261
0.277025
0.274817
0.272598
0.27033
0.267969
0.265465
0.262762
0.259874
0.25719
0.255482
0.254443
0.337326
0.334217
0.330693
0.326677
0.32211
0.31697
0.31134
0.305818
0.300813
0.296288
0.292198
0.288498
0.28514
0.282079
0.279269
0.276667
0.274231
0.271921
0.2697
0.267529
0.265374
0.263201
0.260971
0.258641
0.256174
0.253622
0.251363
0.249968
0.249156
0.334262
0.330646
0.326569
0.321956
0.316767
0.311005
0.304797
0.298814
0.293481
0.28873
0.284492
0.280704
0.277302
0.274231
0.271437
0.268873
0.266491
0.264252
0.262116
0.260048
0.258015
0.255984
0.253924
0.251796
0.249581
0.247363
0.245483
0.244333
0.243672
0.329745
0.32558
0.32094
0.315759
0.310025
0.303766
0.297138
0.290868
0.285372
0.28055
0.276308
0.272563
0.269238
0.266267
0.263588
0.26115
0.258904
0.256806
0.254818
0.252906
0.251037
0.249182
0.247313
0.245399
0.243435
0.241512
0.239936
0.238982
0.238427
0.323729
0.319023
0.313936
0.308392
0.302364
0.295877
0.289096
0.282773
0.27731
0.272582
0.268475
0.264891
0.261741
0.258951
0.256457
0.254203
0.252139
0.250223
0.248414
0.246678
0.244985
0.243307
0.241622
0.239912
0.238182
0.236513
0.23517
0.234362
0.233884
0.315535
0.310571
0.305524
0.300085
0.294146
0.287736
0.28105
0.274868
0.269589
0.265075
0.2612
0.257852
0.254937
0.252377
0.250104
0.248063
0.246203
0.244483
0.242862
0.241307
0.239788
0.238275
0.236749
0.235207
0.233676
0.23223
0.231088
0.23041
0.229996
0.303861
0.300005
0.296057
0.291289
0.285784
0.279683
0.273266
0.267362
0.26237
0.258149
0.254562
0.251494
0.248844
0.246534
0.244496
0.242674
0.241019
0.239492
0.238053
0.23667
0.235311
0.233941
0.232546
0.231162
0.229867
0.228709
0.227774
0.227149
0.226717
0.322453
0.322741
0.323472
0.324974
0.327058
0.329398
0.331836
0.334312
0.336838
0.339461
0.342228
0.345181
0.348358
0.3518
0.355546
0.359641
0.364122
0.36902
0.374348
0.380096
0.38621
0.392546
0.398807
0.403774
0.40597
0.404131
0.39668
0.381226
0.349387
0.320386
0.320798
0.321641
0.323124
0.325117
0.327377
0.329774
0.332251
0.334817
0.337509
0.340368
0.343435
0.346749
0.350354
0.354297
0.358627
0.36339
0.368628
0.374368
0.380623
0.387384
0.394575
0.401996
0.408504
0.412737
0.413863
0.411312
0.406686
0.410666
0.318277
0.318773
0.319697
0.321167
0.323085
0.325263
0.327598
0.330051
0.332631
0.335367
0.338293
0.341445
0.344868
0.348608
0.35272
0.35726
0.36229
0.367869
0.374056
0.380915
0.388533
0.397007
0.406501
0.416311
0.425675
0.434484
0.443442
0.450662
0.46709
0.316102
0.316575
0.31747
0.31892
0.320836
0.323013
0.325336
0.327777
0.33036
0.333118
0.336083
0.339295
0.342798
0.346644
0.350895
0.355618
0.360888
0.366791
0.373423
0.380914
0.389475
0.399406
0.4114
0.425062
0.440338
0.456431
0.475366
0.492905
0.515158
0.313863
0.3143
0.31514
0.316554
0.318464
0.320647
0.322968
0.325403
0.327983
0.330748
0.333734
0.336983
0.340541
0.344466
0.348823
0.353691
0.35916
0.365338
0.372359
0.380415
0.389846
0.401047
0.415351
0.432039
0.452317
0.473245
0.49818
0.524771
0.553691
0.311563
0.311981
0.312784
0.314153
0.316024
0.31818
0.320479
0.322894
0.325459
0.328216
0.331202
0.334462
0.338045
0.342011
0.346431
0.351392
0.356995
0.363367
0.37067
0.379133
0.389241
0.401226
0.417265
0.435336
0.458044
0.483411
0.512065
0.54241
0.573335
0.309198
0.309603
0.310379
0.3117
0.313511
0.315612
0.317866
0.320242
0.322772
0.325497
0.328458
0.331697
0.335267
0.339228
0.343657
0.348643
0.354296
0.360753
0.368194
0.376831
0.38735
0.399449
0.41594
0.436422
0.45993
0.485948
0.513665
0.542061
0.570961
0.306764
0.307154
0.3079
0.309166
0.310907
0.31294
0.31513
0.317447
0.319919
0.322587
0.32549
0.328673
0.332187
0.336092
0.340466
0.345401
0.351003
0.357415
0.364819
0.373355
0.383651
0.396403
0.412831
0.433367
0.456074
0.480296
0.505125
0.529992
0.554748
0.304257
0.304633
0.305345
0.306549
0.308209
0.31016
0.31227
0.314507
0.316898
0.31948
0.322294
0.325382
0.328792
0.332586
0.336837
0.341635
0.347075
0.353306
0.360432
0.368818
0.378906
0.39138
0.407005
0.425945
0.446493
0.467832
0.489196
0.510275
0.530315
0.301678
0.30204
0.302717
0.303852
0.30542
0.307272
0.309283
0.31142
0.313705
0.316175
0.318865
0.321817
0.325077
0.328701
0.332756
0.337334
0.342483
0.34841
0.355251
0.363214
0.37269
0.384171
0.398295
0.414905
0.432505
0.450303
0.467695
0.48471
0.500333
0.299026
0.299372
0.300009
0.301071
0.302538
0.304278
0.306174
0.308191
0.310346
0.312674
0.315208
0.317985
0.321046
0.324443
0.328229
0.332496
0.337324
0.342825
0.349155
0.356436
0.364957
0.375078
0.387256
0.401148
0.415407
0.429329
0.442483
0.455205
0.46661
0.296303
0.296632
0.297229
0.298213
0.29957
0.301185
0.302948
0.304823
0.306826
0.308985
0.311331
0.313894
0.316711
0.319827
0.323298
0.327188
0.331578
0.336535
0.342172
0.348577
0.355939
0.364493
0.374473
0.385434
0.396247
0.40635
0.415481
0.424129
0.43167
0.293512
0.29383
0.294389
0.29529
0.296526
0.297999
0.299609
0.301322
0.303149
0.305113
0.30724
0.309555
0.312088
0.314878
0.317972
0.321414
0.325265
0.32957
0.334397
0.339792
0.345858
0.352706
0.360378
0.368392
0.375913
0.382554
0.388209
0.393399
0.397733
0.290657
0.290958
0.291472
0.292286
0.293397
0.294721
0.296168
0.297703
0.299333
0.30108
0.302961
0.304998
0.307213
0.309632
0.312292
0.315221
0.318459
0.322031
0.325963
0.330259
0.334943
0.340026
0.345412
0.350658
0.355239
0.35895
0.361817
0.36433
0.366297
0.287742
0.288029
0.288498
0.289222
0.290201
0.291367
0.292637
0.293979
0.295396
0.296906
0.298521
0.300254
0.302118
0.30413
0.306311
0.308679
0.311252
0.31403
0.317009
0.32015
0.32342
0.326759
0.329983
0.332746
0.334826
0.336178
0.336922
0.337509
0.337929
0.284776
0.285051
0.285474
0.286107
0.286949
0.287948
0.28903
0.290163
0.291354
0.292613
0.293943
0.295349
0.296836
0.298411
0.300081
0.30185
0.303716
0.305658
0.307643
0.309604
0.311467
0.313126
0.314354
0.314939
0.314943
0.314458
0.313651
0.312942
0.31249
0.281763
0.282024
0.282399
0.282939
0.283644
0.284473
0.28536
0.286278
0.287235
0.28823
0.289262
0.290325
0.291417
0.292534
0.29367
0.294813
0.295945
0.297027
0.298001
0.298782
0.299269
0.299334
0.298737
0.297427
0.295726
0.293835
0.291923
0.290374
0.289515
0.278714
0.278963
0.279289
0.279738
0.280304
0.28096
0.281645
0.282345
0.283061
0.283787
0.284511
0.285222
0.285909
0.286556
0.287145
0.287651
0.288038
0.288252
0.288217
0.287834
0.286989
0.285547
0.283278
0.280304
0.277185
0.274197
0.271465
0.269337
0.268311
0.27564
0.275879
0.27616
0.27652
0.276944
0.277422
0.277903
0.278383
0.278856
0.279308
0.279722
0.280078
0.280356
0.28053
0.28057
0.280437
0.280081
0.279431
0.2784
0.276877
0.274741
0.27186
0.26803
0.263551
0.259194
0.255289
0.25188
0.249286
0.248175
0.272547
0.272773
0.273013
0.273277
0.27357
0.273871
0.274154
0.274417
0.274649
0.274829
0.274935
0.27494
0.274814
0.274521
0.274019
0.273258
0.272173
0.270679
0.268675
0.26604
0.262651
0.25838
0.253054
0.247151
0.241648
0.236909
0.232877
0.229843
0.228645
0.269447
0.269661
0.26986
0.270036
0.270195
0.270324
0.270416
0.270469
0.270465
0.270381
0.270189
0.269853
0.269335
0.268591
0.267569
0.266203
0.264417
0.262112
0.259173
0.255467
0.250864
0.245237
0.238439
0.231123
0.224479
0.218905
0.214229
0.210722
0.209401
0.266351
0.266554
0.266712
0.266803
0.26683
0.266798
0.266708
0.266558
0.266329
0.265994
0.265516
0.264857
0.263968
0.262797
0.261282
0.259348
0.256902
0.253833
0.25001
0.245286
0.239512
0.232551
0.224268
0.215478
0.207608
0.201113
0.195702
0.191653
0.190179
0.26327
0.263467
0.263587
0.263597
0.263498
0.26331
0.263044
0.262702
0.262262
0.261691
0.260948
0.259987
0.258753
0.257187
0.255218
0.252759
0.249706
0.245934
0.241295
0.235619
0.228733
0.220466
0.210663
0.200272
0.190988
0.183379
0.177049
0.172344
0.170714
0.260212
0.260401
0.260483
0.260414
0.260196
0.259864
0.259438
0.258921
0.258289
0.257504
0.256519
0.255282
0.253736
0.251813
0.249435
0.246507
0.242913
0.238514
0.233143
0.226608
0.218696
0.209181
0.197849
0.185717
0.174757
0.165711
0.158137
0.152567
0.150759
0.257188
0.257374
0.257425
0.257282
0.256952
0.256481
0.255906
0.255232
0.25443
0.253454
0.252254
0.250775
0.248953
0.246719
0.243986
0.240654
0.236596
0.231663
0.22567
0.218399
0.209595
0.198954
0.18616
0.172202
0.159279
0.148343
0.138967
0.132142
0.13014
0.254205
0.254381
0.254394
0.254177
0.253743
0.253153
0.252455
0.251653
0.250709
0.249572
0.248188
0.2465
0.244446
0.24195
0.238924
0.235261
0.230829
0.225468
0.218981
0.21113
0.201618
0.190068
0.176029
0.160372
0.145377
0.132112
0.120113
0.111255
0.109025
0.251292
0.251515
0.251547
0.251275
0.25071
0.249956
0.249111
0.248184
0.24712
0.245852
0.24432
0.242465
0.240226
0.237525
0.234273
0.23036
0.225651
0.21998
0.213147
0.2049
0.194918
0.18274
0.167766
0.150696
0.133787
0.118103
0.10285
0.0903364
0.0863658
0.273694
0.258539
0.237087
0.2099
0.179672
0.150682
0.124678
0.101111
0.0794662
0.0555248
0.0307767
0.00121382
-0.0294994
-0.0584045
-0.0817643
-0.0972057
-0.104808
-0.106628
-0.106067
0.281238
0.270242
0.249584
0.221538
0.187838
0.152555
0.117637
0.0831336
0.0503937
0.013632
-0.0237494
-0.0621081
-0.0991623
-0.131747
-0.1568
-0.173232
-0.182222
-0.186166
-0.1876
0.277266
0.267398
0.247931
0.219926
0.184055
0.144173
0.102197
0.0574518
0.0122872
-0.0337128
-0.0800938
-0.125767
-0.168053
-0.203829
-0.230785
-0.248652
-0.259086
-0.264521
-0.267243
0.268073
0.258276
0.240476
0.212848
0.174865
0.129997
0.0812052
0.0294532
-0.0242584
-0.0789083
-0.133648
-0.186532
-0.234121
-0.273091
-0.301662
-0.320375
-0.331571
-0.337929
-0.34156
0.25561
0.246695
0.230457
0.203215
0.163813
0.115658
0.0617483
0.00360388
-0.0576337
-0.120547
-0.182969
-0.241785
-0.293017
-0.333587
-0.362633
-0.381618
-0.39342
-0.400663
-0.405077
0.239064
0.230674
0.215798
0.189557
0.149946
0.09997
0.0422917
-0.0214299
-0.0892701
-0.15894
-0.227185
-0.289968
-0.343203
-0.384494
-0.413962
-0.433716
-0.446845
-0.455714
-0.461643
0.218807
0.209632
0.195153
0.16979
0.130587
0.079746
0.0196623
-0.0477711
-0.119945
-0.193602
-0.264547
-0.328109
-0.380448
-0.420081
-0.448063
-0.466971
-0.479968
-0.489041
-0.495187
0.195697
0.184735
0.169437
0.144066
0.10515
0.0541342
-0.00682814
-0.0756694
-0.149354
-0.223891
-0.294375
-0.355939
-0.405404
-0.442317
-0.46845
-0.486524
-0.499468
-0.50877
-0.515212
0.170562
0.157437
0.140459
0.114117
0.0750531
0.0243077
-0.0362255
-0.104451
-0.177052
-0.249502
-0.316513
-0.373507
-0.418251
-0.451234
-0.474665
-0.491191
-0.503428
-0.512438
-0.518724
0.144258
0.129041
0.110045
0.0821625
0.042582
-0.00767251
-0.0669063
-0.133082
-0.202717
-0.270978
-0.332604
-0.38371
-0.423106
-0.452031
-0.472886
-0.488096
-0.499912
-0.509074
-0.51578
0.11773
0.100715
0.079741
0.0501745
0.00987289
-0.0398534
-0.0973108
-0.160397
-0.225407
-0.287382
-0.34151
-0.384964
-0.417622
-0.441255
-0.458245
-0.47072
-0.480517
-0.488185
-0.493762
0.0920479
0.073679
0.0510643
0.0200948
-0.0207741
-0.0697849
-0.125043
-0.184241
-0.243503
-0.298101
-0.344126
-0.37997
-0.406369
-0.42531
-0.438934
-0.448977
-0.456833
-0.462977
-0.467366
0.0682082
0.0489956
0.0252545
-0.00654098
-0.0474841
-0.0953652
-0.148024
-0.20293
-0.256195
-0.303612
-0.342337
-0.371809
-0.393287
-0.408726
-0.419953
-0.428358
-0.435018
-0.44041
-0.444358
0.0469347
0.0273441
0.00299198
-0.0290164
-0.0694579
-0.115709
-0.1653
-0.215451
-0.262392
-0.302672
-0.334562
-0.358355
-0.375564
-0.387962
-0.397034
-0.403869
-0.409271
-0.413697
-0.416908
0.0286842
0.00910096
-0.0154028
-0.0470758
-0.0864614
-0.130569
-0.176652
-0.22178
-0.262534
-0.296382
-0.3226
-0.342037
-0.356221
-0.366637
-0.37443
-0.380415
-0.385187
-0.389158
-0.392051
0.0135732
-0.00572359
-0.0300202
-0.0609544
-0.0988848
-0.140521
-0.182938
-0.223212
-0.258446
-0.286996
-0.308889
-0.325244
-0.337463
-0.346741
-0.353946
-0.359689
-0.364432
-0.368513
-0.371585
0.00140431
-0.0174478
-0.0413212
-0.0713113
-0.107583
-0.146544
-0.185137
-0.220588
-0.250676
-0.274619
-0.292981
-0.306953
-0.317713
-0.326168
-0.332946
-0.338488
-0.343153
-0.347183
-0.350224
-0.00813083
-0.0264672
-0.04981
-0.0788075
-0.113401
-0.149704
-0.184602
-0.215624
-0.241294
-0.261546
-0.277264
-0.289571
-0.2994
-0.307399
-0.313997
-0.319495
-0.32417
-0.328182
-0.331204
-0.0154286
-0.0332366
-0.0560374
-0.0841462
-0.117267
-0.151241
-0.182943
-0.210266
-0.232405
-0.249821
-0.263563
-0.274643
-0.283781
-0.291427
-0.297863
-0.303289
-0.307927
-0.311886
-0.314866
-0.0209263
-0.0382279
-0.0605602
-0.0879797
-0.119886
-0.15181
-0.180643
-0.20472
-0.223877
-0.238971
-0.251106
-0.261145
-0.269615
-0.276812
-0.282908
-0.288037
-0.292385
-0.296031
-0.298737
-0.0249578
-0.0417898
-0.0637813
-0.0907778
-0.121818
-0.152111
-0.178593
-0.200054
-0.216855
-0.230121
-0.240951
-0.250076
-0.257884
-0.264561
-0.270211
-0.274922
-0.278851
-0.282074
-0.284431
-0.0278308
-0.0442436
-0.0660603
-0.0928937
-0.12338
-0.152434
-0.177056
-0.196457
-0.211397