/*--------------------------------*- C++ -*----------------------------------*\
| =========                 |                                                 |
| \\      /  F ield         | OpenFOAM: The Open Source CFD Toolbox           |
|  \\    /   O peration     | Version:  2312                                  |
|   \\  /    A nd           | Website:  www.openfoam.com                      |
|    \\/     M anipulation  |                                                 |
\*---------------------------------------------------------------------------*/
FoamFile
{
    version     2.0;
    format      ascii;
    arch        "LSB;label=32;scalar=64";
    class       volVectorField;
    location    "1.031012";
    object      U;
}
// * * * * * * * * * * * * * * * * * * * * * * * * * * * * * * * * * * * * * //

dimensions      [0 1 -1 0 0 0 0];

internalField   nonuniform List<vector> 
21039
(
(0.915645 0.0472786 0)
(1.02516 0.0640392 0)
(1.00472 0.0257873 0)
(1.00203 0.0161609 0)
(1.0014 0.0109508 0)
(1.00099 0.007396 0)
(1.00075 0.00491258 0)
(1.00061 0.0030804 0)
(1.00052 0.00164515 0)
(1.00046 0.000466254 0)
(1.00042 -0.000534548 0)
(1.00039 -0.00140345 0)
(1.00036 -0.00217713 0)
(1.00034 -0.00287928 0)
(1.00033 -0.00352247 0)
(1.00031 -0.004116 0)
(1.0003 -0.00466547 0)
(1.00029 -0.00517423 0)
(1.00028 -0.00564443 0)
(1.00027 -0.00607637 0)
(1.00025 -0.00646951 0)
(1.00024 -0.00682399 0)
(1.00022 -0.00714249 0)
(1.0002 -0.00740839 0)
(1.00018 -0.00760806 0)
(1.00016 -0.00775547 0)
(1.00014 -0.00786307 0)
(1.00012 -0.00793895 0)
(1.00011 -0.00798542 0)
(0.804355 0.0680225 0)
(1.07259 0.110545 0)
(1.03881 0.0604719 0)
(1.0184 0.0420511 0)
(1.01147 0.0307098 0)
(1.00781 0.0219922 0)
(1.00567 0.0156915 0)
(1.00434 0.0109378 0)
(1.00348 0.00717029 0)
(1.00289 0.00407762 0)
(1.00248 0.00146253 0)
(1.00217 -0.000802003 0)
(1.00193 -0.00279983 0)
(1.00174 -0.00458803 0)
(1.00158 -0.00620441 0)
(1.00145 -0.00767511 0)
(1.00132 -0.0090148 0)
(1.00121 -0.0102324 0)
(1.00109 -0.0113333 0)
(1.00098 -0.0123171 0)
(1.00086 -0.013182 0)
(1.00074 -0.0139256 0)
(1.00063 -0.0145571 0)
(1.00056 -0.0150515 0)
(1.00053 -0.0153961 0)
(1.0005 -0.0156373 0)
(1.00046 -0.015807 0)
(1.0004 -0.0159239 0)
(1.00034 -0.0159968 0)
(0.695478 0.0477384 0)
(1.08333 0.102354 0)
(1.07756 0.0705064 0)
(1.04372 0.0548238 0)
(1.02785 0.0429889 0)
(1.01945 0.032932 0)
(1.01433 0.0251434 0)
(1.01101 0.0188465 0)
(1.00877 0.0136199 0)
(1.00721 0.0092055 0)
(1.00609 0.00540448 0)
(1.00524 0.00207489 0)
(1.00459 -0.000882592 0)
(1.00406 -0.00353723 0)
(1.00362 -0.00593611 0)
(1.00323 -0.00811291 0)
(1.00288 -0.0100872 0)
(1.00254 -0.0118692 0)
(1.00221 -0.0134616 0)
(1.00188 -0.0148586 0)
(1.00154 -0.0160491 0)
(1.0012 -0.0170092 0)
(1.0009 -0.0177246 0)
(1.00074 -0.0181953 0)
(1.00069 -0.0184911 0)
(1.00068 -0.0187195 0)
(1.00067 -0.0189333 0)
(1.00063 -0.0191375 0)
(1.00057 -0.0193102 0)
(0.602235 0.0236561 0)
(1.06046 0.0766315 0)
(1.09942 0.0655414 0)
(1.06621 0.0567323 0)
(1.04515 0.0471612 0)
(1.03346 0.0383891 0)
(1.02595 0.0309898 0)
(1.02079 0.0244612 0)
(1.01716 0.0187045 0)
(1.01453 0.0136199 0)
(1.01257 0.00909314 0)
(1.01107 0.0050315 0)
(1.00988 0.00136242 0)
(1.00891 -0.00196968 0)
(1.00808 -0.00500472 0)
(1.00734 -0.00777071 0)
(1.00666 -0.0102834 0)
(1.006 -0.0125486 0)
(1.00534 -0.0145608 0)
(1.00466 -0.0163029 0)
(1.00395 -0.0177517 0)
(1.0032 -0.0188663 0)
(1.00246 -0.0196029 0)
(1.00193 -0.02 0)
(1.00165 -0.0202365 0)
(1.00157 -0.0204738 0)
(1.00161 -0.0207819 0)
(1.00165 -0.021145 0)
(1.00164 -0.0215026 0)
(0.545215 0.00775128 0)
(1.02533 0.0491021 0)
(1.10134 0.0529878 0)
(1.07856 0.0511754 0)
(1.05795 0.0448659 0)
(1.04555 0.0382959 0)
(1.03712 0.0320726 0)
(1.031 0.0260877 0)
(1.02646 0.020487 0)
(1.02303 0.0152957 0)
(1.02037 0.0104962 0)
(1.01826 0.00606347 0)
(1.01655 0.00197033 0)
(1.0151 -0.00180864 0)
(1.01384 -0.00529344 0)
(1.0127 -0.00849716 0)
(1.01162 -0.0114243 0)
(1.01056 -0.0140719 0)
(1.00948 -0.0164278 0)
(1.00833 -0.018469 0)
(1.00709 -0.0201694 0)
(1.00574 -0.0214985 0)
(1.00438 -0.0224161 0)
(1.00332 -0.0229575 0)
(1.00279 -0.0233172 0)
(1.00279 -0.0236848 0)
(1.00311 -0.0241548 0)
(1.00346 -0.0247062 0)
(1.00366 -0.0252626 0)
(0.518754 -0.000461868 0)
(0.992556 0.0256928 0)
(1.09022 0.0370573 0)
(1.08057 0.040323 0)
(1.06409 0.0374921 0)
(1.05286 0.0333121 0)
(1.0447 0.0285671 0)
(1.03845 0.023562 0)
(1.03359 0.0185753 0)
(1.02973 0.0137194 0)
(1.02662 0.00905629 0)
(1.02406 0.00461881 0)
(1.02191 0.000422378 0)
(1.02004 -0.00352696 0)
(1.01836 -0.00722477 0)
(1.01681 -0.0106653 0)
(1.01532 -0.0138403 0)
(1.01383 -0.0167384 0)
(1.01228 -0.0193441 0)
(1.01063 -0.0216348 0)
(1.00883 -0.0235848 0)
(1.00689 -0.025174 0)
(1.00498 -0.0263817 0)
(1.00363 -0.0272196 0)
(1.00321 -0.0278436 0)
(1.0037 -0.028463 0)
(1.0047 -0.0291832 0)
(1.00565 -0.0299695 0)
(1.00626 -0.0307348 0)
(0.510527 -0.00313525 0)
(0.968751 0.00975029 0)
(1.07531 0.0220828 0)
(1.07703 0.0274551 0)
(1.06594 0.0273134 0)
(1.05685 0.0252213 0)
(1.04971 0.0220088 0)
(1.04394 0.0181886 0)
(1.03921 0.0140781 0)
(1.0353 0.00985113 0)
(1.03202 0.00562453 0)
(1.02921 0.00147264 0)
(1.02677 -0.00255703 0)
(1.02459 -0.0064314 0)
(1.02258 -0.0101248 0)
(1.02068 -0.0136165 0)
(1.01881 -0.0168871 0)
(1.01692 -0.0199168 0)
(1.01496 -0.0226854 0)
(1.01286 -0.0251697 0)
(1.01058 -0.0273426 0)
(1.00816 -0.0291821 0)
(1.00586 -0.0306821 0)
(1.00441 -0.0318577 0)
(1.00428 -0.032832 0)
(1.00539 -0.033794 0)
(1.0071 -0.0348145 0)
(1.00864 -0.0358381 0)
(1.00964 -0.0367786 0)
(0.510397 -0.00253025 0)
(0.955256 0.0019602 0)
(1.0632 0.0113122 0)
(1.07269 0.0162246 0)
(1.06647 0.0173424 0)
(1.05982 0.0165723 0)
(1.05407 0.0145743 0)
(1.04914 0.0118191 0)
(1.04489 0.00858539 0)
(1.04121 0.00506214 0)
(1.038 0.0013867 0)
(1.03516 -0.00234931 0)
(1.0326 -0.00607926 0)
(1.03024 -0.00975135 0)
(1.02802 -0.0133275 0)
(1.02586 -0.0167762 0)
(1.02371 -0.0200695 0)
(1.0215 -0.0231811 0)
(1.01918 -0.0260861 0)
(1.0167 -0.0287601 0)
(1.01402 -0.0311799 0)
(1.01119 -0.0333284 0)
(1.00854 -0.0352107 0)
(1.00696 -0.0368282 0)
(1.00697 -0.03823 0)
(1.00845 -0.0395395 0)
(1.01058 -0.0407884 0)
(1.01244 -0.0419343 0)
(1.0136 -0.0429246 0)
(0.511684 -0.00121207 0)
(0.948989 -0.000344888 0)
(1.05537 0.00505275 0)
(1.06906 0.0083483 0)
(1.06628 0.00951748 0)
(1.06176 0.00923059 0)
(1.05742 0.00790385 0)
(1.05344 0.00584922 0)
(1.04983 0.00326713 0)
(1.04656 0.000316824 0)
(1.04359 -0.00288209 0)
(1.04087 -0.00623863 0)
(1.03834 -0.00968155 0)
(1.03594 -0.0131564 0)
(1.03362 -0.0166189 0)
(1.03131 -0.0200329 0)
(1.02897 -0.0233666 0)
(1.02653 -0.0265912 0)
(1.02394 -0.0296802 0)
(1.02116 -0.0326102 0)
(1.01815 -0.0353629 0)
(1.01497 -0.0379289 0)
(1.01203 -0.0403129 0)
(1.0103 -0.0424458 0)
(1.01037 -0.0442591 0)
(1.01201 -0.0458264 0)
(1.01431 -0.0471837 0)
(1.01624 -0.0483342 0)
(1.01738 -0.0492717 0)
(0.51252 -0.00059707 0)
(0.946309 -0.000742323 0)
(1.05088 0.00168815 0)
(1.06637 0.00341662 0)
(1.0656 0.00406675 0)
(1.06261 0.003724 0)
(1.05943 0.00260482 0)
(1.05632 0.000873205 0)
(1.05337 -0.00134887 0)
(1.05058 -0.00395083 0)
(1.04795 -0.00684005 0)
(1.04546 -0.00994319 0)
(1.04307 -0.0131987 0)
(1.04075 -0.0165571 0)
(1.03843 -0.0199768 0)
(1.03609 -0.0234223 0)
(1.03366 -0.0268625 0)
(1.0311 -0.0302687 0)
(1.02835 -0.0336149 0)
(1.02537 -0.0368763 0)
(1.02213 -0.0400317 0)
(1.01874 -0.0430657 0)
(1.01562 -0.0459659 0)
(1.01382 -0.0485752 0)
(1.01391 -0.0507254 0)
(1.0156 -0.0524833 0)
(1.01789 -0.0539143 0)
(1.01973 -0.0550643 0)
(1.02074 -0.0559578 0)
(0.513442 -0.000501177 0)
(0.945529 -0.000974729 0)
(1.04892 -0.000234315 0)
(1.06509 0.000364722 0)
(1.06542 0.000391983 0)
(1.06345 -0.000223758 0)
(1.06113 -0.00139956 0)
(1.05876 -0.00306826 0)
(1.05641 -0.00515977 0)
(1.0541 -0.00760794 0)
(1.05186 -0.0103517 0)
(1.04967 -0.0133378 0)
(1.04751 -0.0165199 0)
(1.04534 -0.0198588 0)
(1.04315 -0.0233201 0)
(1.04087 -0.0268731 0)
(1.03846 -0.0304901 0)
(1.03589 -0.0341443 0)
(1.03309 -0.0378092 0)
(1.03003 -0.0414567 0)
(1.02668 -0.0450578 0)
(1.02315 -0.0485823 0)
(1.01991 -0.0519937 0)
(1.018 -0.0550619 0)
(1.01799 -0.0575496 0)
(1.01956 -0.0595302 0)
(1.02165 -0.0610944 0)
(1.02325 -0.0623179 0)
(1.02403 -0.0632402 0)
(0.514656 -0.000474832 0)
(0.945933 -0.00121481 0)
(1.04874 -0.00137776 0)
(1.06523 -0.0015653 0)
(1.06622 -0.00208835 0)
(1.06494 -0.00302837 0)
(1.06327 -0.0043771 0)
(1.0615 -0.00611752 0)
(1.05967 -0.00821772 0)
(1.05783 -0.0106439 0)
(1.05598 -0.0133603 0)
(1.05412 -0.0163338 0)
(1.05225 -0.0195336 0)
(1.05033 -0.0229326 0)
(1.04832 -0.026506 0)
(1.04621 -0.0302307 0)
(1.04393 -0.0340846 0)
(1.04144 -0.0380448 0)
(1.0387 -0.0420861 0)
(1.03564 -0.0461793 0)
(1.03225 -0.0502901 0)
(1.02864 -0.0543767 0)
(1.02525 -0.0583806 0)
(1.02313 -0.0620013 0)
(1.02288 -0.064929 0)
(1.02416 -0.0672378 0)
(1.02592 -0.0690383 0)
(1.02715 -0.0704312 0)
(1.02757 -0.0714647 0)
(0.515932 -0.000425332 0)
(0.946983 -0.00137552 0)
(1.04954 -0.00206812 0)
(1.06623 -0.00280359 0)
(1.06766 -0.00375842 0)
(1.06687 -0.0050011 0)
(1.06571 -0.00655357 0)
(1.06442 -0.00842224 0)
(1.06305 -0.0106008 0)
(1.06164 -0.0130777 0)
(1.06019 -0.0158372 0)
(1.0587 -0.0188634 0)
(1.05715 -0.0221404 0)
(1.05553 -0.0256536 0)
(1.0538 -0.0293892 0)
(1.05193 -0.0333338 0)
(1.04988 -0.0374738 0)
(1.04758 -0.0417935 0)
(1.04499 -0.0462734 0)
(1.04204 -0.0508878 0)
(1.03869 -0.0556034 0)
(1.03505 -0.0603732 0)
(1.03155 -0.0651221 0)
(1.02921 -0.069469 0)
(1.02867 -0.0730067 0)
(1.02959 -0.0758012 0)
(1.03091 -0.0779786 0)
(1.03169 -0.0796638 0)
(1.03167 -0.0809084 0)
(0.517215 -0.000386943 0)
(0.948393 -0.00147251 0)
(1.05086 -0.00249928 0)
(1.06772 -0.00360033 0)
(1.06945 -0.00486776 0)
(1.06904 -0.00635618 0)
(1.06828 -0.00809404 0)
(1.06741 -0.0100981 0)
(1.06646 -0.0123771 0)
(1.06545 -0.0149342 0)
(1.0644 -0.0177692 0)
(1.06329 -0.0208803 0)
(1.06212 -0.0242654 0)
(1.06085 -0.0279223 0)
(1.05948 -0.0318493 0)
(1.05794 -0.0360448 0)
(1.05621 -0.0405063 0)
(1.05421 -0.0452294 0)
(1.0519 -0.0502053 0)
(1.04919 -0.0554185 0)
(1.04603 -0.0608438 0)
(1.04249 -0.0664387 0)
(1.03899 -0.0721222 0)
(1.03651 -0.0774248 0)
(1.03569 -0.0818104 0)
(1.03623 -0.085318 0)
(1.03706 -0.0880782 0)
(1.0373 -0.0902374 0)
(1.03675 -0.0918402 0)
(0.518464 -0.000331332 0)
(0.950017 -0.00147909 0)
(1.05254 -0.00271507 0)
(1.06955 -0.00405421 0)
(1.07154 -0.00553716 0)
(1.07143 -0.00720462 0)
(1.07101 -0.00908456 0)
(1.0705 -0.0111992 0)
(1.06994 -0.013566 0)
(1.06933 -0.0161989 0)
(1.06868 -0.019109 0)
(1.06798 -0.0223065 0)
(1.06722 -0.0258014 0)
(1.06639 -0.0296038 0)
(1.06544 -0.0337248 0)
(1.06435 -0.0381757 0)
(1.06306 -0.0429683 0)
(1.06151 -0.0481134 0)
(1.05963 -0.0536191 0)
(1.05735 -0.0594884 0)
(1.05457 -0.0657172 0)
(1.05137 -0.0722843 0)
(1.0481 -0.0791261 0)
(1.04567 -0.0856888 0)
(1.04471 -0.0912635 0)
(1.04489 -0.095823 0)
(1.0452 -0.0994756 0)
(1.0448 -0.102379 0)
(1.04362 -0.10455 0)
(0.519568 -0.000228362 0)
(0.951702 -0.00137535 0)
(1.05439 -0.00274911 0)
(1.07155 -0.00425187 0)
(1.07374 -0.00588436 0)
(1.07387 -0.00767541 0)
(1.07373 -0.00965349 0)
(1.07353 -0.0118456 0)
(1.0733 -0.0142757 0)
(1.07305 -0.0169652 0)
(1.07278 -0.0199338 0)
(1.07247 -0.023201 0)
(1.07213 -0.0267866 0)
(1.07174 -0.0307114 0)
(1.07125 -0.0349977 0)
(1.07064 -0.0396698 0)
(1.06986 -0.0447538 0)
(1.06885 -0.0502774 0)
(1.06753 -0.0562691 0)
(1.06581 -0.062756 0)
(1.06361 -0.0697649 0)
(1.06096 -0.0773136 0)
(1.0582 -0.0853829 0)
(1.05612 -0.0933644 0)
(1.05526 -0.10037 0)
(1.05528 -0.106275 0)
(1.05515 -0.111128 0)
(1.05413 -0.115073 0)
(1.05227 -0.118062 0)
(0.52036 -8.24716e-05 0)
(0.953206 -0.00117078 0)
(1.0561 -0.00264978 0)
(1.0734 -0.00427737 0)
(1.07573 -0.00601292 0)
(1.07604 -0.00788072 0)
(1.07611 -0.00991595 0)
(1.07616 -0.0121516 0)
(1.0762 -0.0146167 0)
(1.07625 -0.0173379 0)
(1.0763 -0.0203411 0)
(1.07635 -0.0236524 0)
(1.07638 -0.0272988 0)
(1.07639 -0.0313094 0)
(1.07635 -0.0357158 0)
(1.07621 -0.040553 0)
(1.07594 -0.0458597 0)
(1.07548 -0.0516794 0)
(1.07476 -0.05806 0)
(1.07367 -0.0650535 0)
(1.07215 -0.0727199 0)
(1.07022 -0.0811216 0)
(1.06821 -0.0902947 0)
(1.0668 -0.0996093 0)
(1.0664 -0.108036 0)
(1.0666 -0.115372 0)
(1.06633 -0.121611 0)
(1.06489 -0.126855 0)
(1.06241 -0.130899 0)
(0.52073 0.00013535 0)
(0.954381 -0.000894954 0)
(1.0576 -0.00249555 0)
(1.075 -0.00423236 0)
(1.07743 -0.00603901 0)
(1.07787 -0.00794929 0)
(1.07811 -0.0100128 0)
(1.07835 -0.0122685 0)
(1.07861 -0.0147487 0)
(1.07891 -0.0174837 0)
(1.07924 -0.0205037 0)
(1.07959 -0.0238395 0)
(1.07996 -0.0275237 0)
(1.08033 -0.0315915 0)
(1.08068 -0.0360819 0)
(1.08098 -0.0410384 0)
(1.0812 -0.0465104 0)
(1.08126 -0.0525542 0)
(1.08112 -0.0592351 0)
(1.08069 -0.0666276 0)
(1.07988 -0.0748216 0)
(1.07875 -0.0839221 0)
(1.07761 -0.0940139 0)
(1.07705 -0.104456 0)
(1.07735 -0.114111 0)
(1.07803 -0.122736 0)
(1.07807 -0.130388 0)
(1.07682 -0.137247 0)
(1.07428 -0.142737 0)
(0.521365 0.000465303 0)
(0.95579 -0.000494138 0)
(1.05908 -0.00229018 0)
(1.07648 -0.00418317 0)
(1.07896 -0.00605056 0)
(1.07951 -0.00798327 0)
(1.07988 -0.0100615 0)
(1.08029 -0.0123286 0)
(1.08075 -0.0148186 0)
(1.08127 -0.0175644 0)
(1.08184 -0.0205988 0)
(1.08247 -0.0239563 0)
(1.08315 -0.0276738 0)
(1.08387 -0.0317914 0)
(1.0846 -0.0363539 0)
(1.08532 -0.0414118 0)
(1.08601 -0.0470226 0)
(1.08661 -0.0532537 0)
(1.08707 -0.0601846 0)
(1.08732 -0.06791 0)
(1.0873 -0.0765479 0)
(1.08708 -0.0862461 0)
(1.087 -0.0971385 0)
(1.08754 -0.108566 0)
(1.08881 -0.119266 0)
(1.0903 -0.128891 0)
(1.09113 -0.137539 0)
(1.09087 -0.1461 0)
(1.08927 -0.154712 0)
(1.00009 -0.0080265 0)
(1.00008 -0.00805786 0)
(1.00007 -0.00808354 0)
(1.00006 -0.00810346 2.50923e-21)
(1.00005 -0.00811821 1.26801e-20)
(1.00005 -0.00812781 -2.29461e-20)
(1.00004 -0.00813227 1.28148e-20)
(1.00003 -0.00813207 -1.03894e-20)
(1.00003 -0.00812683 1.23874e-21)
(1.00002 -0.00811699 1.04812e-20)
(1.00002 -0.00810244 0)
(1.00001 -0.00808321 -1.2037e-20)
(1.00001 -0.00805958 1.27643e-21)
(1 -0.00803133 1.079e-20)
(0.999999 -0.00799873 0)
(0.999994 -0.00796179 0)
(0.99999 -0.00792046 -1.10828e-20)
(0.999986 -0.00787503 1.10887e-20)
(0.999983 -0.0078254 0)
(0.999979 -0.00777165 -5.65043e-21)
(0.999976 -0.00771396 6.00644e-21)
(0.999973 -0.00765232 5.36416e-21)
(0.99997 -0.00758683 -8.59908e-21)
(0.999967 -0.00751761 2.7875e-21)
(0.999964 -0.00744475 9.09694e-23)
(0.999961 -0.00736832 -1.82198e-22)
(0.999959 -0.00728846 2.57636e-21)
(0.999956 -0.0072053 -2.94254e-21)
(0.999954 -0.00711892 0)
(0.999951 -0.00702946 0)
(0.999949 -0.00693709 -7.49165e-22)
(0.999946 -0.00684191 -7.52769e-22)
(0.999944 -0.00674408 -1.28848e-20)
(0.999942 -0.00664382 1.06006e-20)
(0.999939 -0.00654116 -1.37616e-20)
(0.999937 -0.00643642 1.37576e-20)
(0.999935 -0.00632973 -1.07974e-20)
(0.999932 -0.0062212 1.07797e-20)
(0.99993 -0.00611124 1.5507e-21)
(0.999927 -0.00599981 1.55643e-21)
(0.999924 -0.00588735 -1.5619e-21)
(0.999922 -0.00577406 0)
(0.999919 -0.00566006 0)
(0.999917 -0.00554591 0)
(0.999915 -0.00543162 0)
(0.999913 -0.00531798 0)
(0.999913 -0.00520528 6.37377e-21)
(0.999913 -0.00509259 -6.36441e-21)
(0.999914 -0.00497113 0)
(1.00029 -0.0160523 0)
(1.00024 -0.0160922 4.94761e-21)
(1.00019 -0.0161227 -5.00495e-21)
(1.00014 -0.01614 -2.52818e-21)
(1.00009 -0.0161433 -2.5347e-21)
(1.00004 -0.0161322 -7.69299e-21)
(0.999995 -0.0161064 1.28327e-20)
(0.999951 -0.0160662 0)
(0.999907 -0.0160115 -1.30654e-21)
(0.999865 -0.0159428 -2.63135e-21)
(0.999824 -0.0158604 0)
(0.999784 -0.0157645 1.33557e-21)
(0.999745 -0.0156559 -1.21382e-20)
(0.999707 -0.0155348 1.08028e-20)
(0.999671 -0.0154017 0)
(0.999636 -0.0152572 2.74707e-21)
(0.999601 -0.0151014 0)
(0.999568 -0.0149353 0)
(0.999537 -0.0147591 0)
(0.999506 -0.0145732 -5.65774e-21)
(0.999477 -0.0143783 5.3046e-21)
(0.999449 -0.0141748 -3.57298e-22)
(0.999422 -0.013963 0)
(0.999397 -0.0137437 -1.35908e-21)
(0.999373 -0.0135173 1.4267e-21)
(0.99935 -0.0132842 2.742e-22)
(0.999328 -0.0130451 3.67455e-22)
(0.999308 -0.0128006 0)
(0.99929 -0.0125511 -5.96026e-21)
(0.999272 -0.0122973 5.95842e-21)
(0.999257 -0.0120398 -1.12915e-20)
(0.999242 -0.0117791 2.48915e-20)
(0.999229 -0.0115159 -1.1337e-20)
(0.999217 -0.011251 1.52236e-21)
(0.999207 -0.0109848 1.52931e-21)
(0.999198 -0.0107183 1.53959e-21)
(0.999191 -0.0104519 -1.54238e-21)
(0.999185 -0.0101865 1.39733e-20)
(0.999181 -0.00992296 -1.08538e-20)
(0.999179 -0.00966165 -4.68665e-21)
(0.999178 -0.00940368 1.72697e-20)
(0.999178 -0.00914955 -1.25523e-20)
(0.999181 -0.00889972 -6.31913e-21)
(0.999186 -0.00865514 1.26933e-20)
(0.999193 -0.00841552 -2.54149e-20)
(0.999202 -0.00818186 1.27183e-20)
(0.999215 -0.00795397 6.4045e-21)
(0.999231 -0.00773014 1.96899e-23)
(0.999246 -0.00749744 0)
(1.0005 -0.0194606 7.36311e-21)
(1.0004 -0.0196046 -2.45289e-21)
(1.0003 -0.0197366 -9.94611e-21)
(1.00018 -0.0198478 5.02638e-21)
(1.00005 -0.0199347 -5.05797e-21)
(0.999924 -0.0199951 0)
(0.999796 -0.0200279 -5.14246e-21)
(0.99967 -0.0200338 -1.55657e-20)
(0.999545 -0.0200128 1.56187e-20)
(0.999424 -0.0199662 2.62871e-21)
(0.999306 -0.0198949 0)
(0.999192 -0.0197997 -1.60358e-20)
(0.999082 -0.0196824 -6.84351e-23)
(0.998977 -0.0195438 1.07869e-20)
(0.998875 -0.019385 0)
(0.998778 -0.0192076 -2.74274e-21)
(0.998686 -0.0190121 -2.76278e-21)
(0.998597 -0.0188004 0)
(0.998514 -0.0185732 -2.80006e-21)
(0.998434 -0.0183315 -5.65147e-21)
(0.998359 -0.0180767 5.65285e-21)
(0.998289 -0.0178098 -7.14461e-22)
(0.998223 -0.0175316 -7.18172e-22)
(0.998162 -0.0172437 0)
(0.998105 -0.016947 1.13734e-22)
(0.998053 -0.0166425 -6.39161e-22)
(0.998006 -0.0163314 0)
(0.997964 -0.0160151 0)
(0.997927 -0.0156944 -5.95872e-21)
(0.997894 -0.0153707 5.95729e-21)
(0.997867 -0.0150454 -1.20418e-20)
(0.997845 -0.0147192 1.20374e-20)
(0.997828 -0.014394 0)
(0.997817 -0.014071 0)
(0.997811 -0.0137511 0)
(0.997811 -0.0134366 -3.07214e-21)
(0.997816 -0.013128 -6.18529e-21)
(0.997827 -0.0128271 0)
(0.997844 -0.012536 -3.1111e-21)
(0.997866 -0.0122549 -3.14984e-21)
(0.997894 -0.0119863 9.38975e-21)
(0.997926 -0.0117307 0)
(0.997962 -0.011489 1.266e-20)
(0.998001 -0.0112627 -1.90156e-20)
(0.998042 -0.01105 0)
(0.998082 -0.0108516 0)
(0.998119 -0.0106637 0)
(0.998146 -0.0104813 -6.41959e-21)
(0.998158 -0.0102882 -6.45402e-21)
(1.00158 -0.0218343 -4.90565e-21)
(1.00145 -0.0221768 9.86522e-21)
(1.00127 -0.0225162 9.92663e-21)
(1.00104 -0.0228334 1.50628e-20)
(1.00078 -0.0231195 -5.01595e-21)
(1.00051 -0.0233691 -1.0218e-20)
(1.00024 -0.0235795 2.05276e-20)
(0.999966 -0.0237516 3.39814e-23)
(0.999703 -0.0238851 -5.21141e-21)
(0.999448 -0.0239823 5.2458e-21)
(0.999204 -0.0240447 0)
(0.99897 -0.0240735 5.32614e-21)
(0.998746 -0.0240717 -5.39773e-21)
(0.998533 -0.0240403 2.1609e-20)
(0.998332 -0.0239814 -2.17599e-20)
(0.998141 -0.0238972 1.64007e-20)
(0.997961 -0.0237886 -2.76176e-21)
(0.997791 -0.0236583 2.77818e-21)
(0.997632 -0.023508 2.79402e-21)
(0.997483 -0.0233383 -2.81606e-21)
(0.997344 -0.0231521 0)
(0.997216 -0.0229509 -4.29354e-21)
(0.997099 -0.0227355 3.55811e-21)
(0.996991 -0.0225086 2.8768e-21)
(0.996895 -0.0222717 1.36406e-22)
(0.996809 -0.0220256 2.73703e-22)
(0.996734 -0.021773 4.41643e-21)
(0.996669 -0.0215156 -2.94523e-21)
(0.996616 -0.021254 5.9573e-21)
(0.996574 -0.0209911 -5.95605e-21)
(0.996544 -0.0207287 0)
(0.996525 -0.0204674 1.5127e-20)
(0.996518 -0.0202105 -1.20994e-20)
(0.996524 -0.0199592 1.22228e-20)
(0.996542 -0.0197148 -1.22184e-20)
(0.996573 -0.0194812 0)
(0.996618 -0.0192583 1.23711e-20)
(0.996675 -0.0190488 -6.16489e-21)
(0.996745 -0.0188558 0)
(0.996828 -0.0186788 1.25741e-20)
(0.996922 -0.0185222 -1.25406e-20)
(0.997025 -0.0183856 6.32263e-21)
(0.997136 -0.0182702 6.32372e-21)
(0.99725 -0.0181778 1.90818e-20)
(0.997359 -0.018104 1.48226e-24)
(0.997454 -0.0180483 1.27694e-20)
(0.997519 -0.0179997 6.43199e-21)
(0.997538 -0.0179462 6.48239e-21)
(0.997498 -0.0178666 6.44802e-21)
(1.00373 -0.02578 0)
(1.00363 -0.0263232 -9.86557e-21)
(1.00339 -0.0268826 -9.93482e-21)
(1.00303 -0.0274257 0)
(1.00261 -0.0279371 -1.01157e-20)
(1.00215 -0.028409 -7.00337e-23)
(1.00169 -0.0288367 2.04353e-20)
(1.00123 -0.0292213 -5.11765e-21)
(1.00079 -0.0295621 7.13097e-23)
(1.00036 -0.0298611 -1.56713e-20)
(0.999948 -0.0301203 0)
(0.999557 -0.0303405 -1.59788e-20)
(0.999186 -0.0305253 5.31592e-21)
(0.998835 -0.0306756 0)
(0.998503 -0.0307934 -5.43191e-21)
(0.99819 -0.0308815 5.35587e-24)
(0.997896 -0.0309404 -5.54611e-21)
(0.997621 -0.0309735 1.9405e-20)
(0.997365 -0.0309829 7.27569e-23)
(0.997126 -0.0309686 -2.75757e-21)
(0.996906 -0.0309344 -2.80651e-21)
(0.996703 -0.0308823 5.71127e-21)
(0.996518 -0.0308125 -5.71159e-21)
(0.996352 -0.0307288 -7.24021e-22)
(0.996203 -0.0306329 1.49145e-21)
(0.996073 -0.0305253 -8.23549e-22)
(0.995962 -0.0304095 2.9419e-21)
(0.995868 -0.0302878 -2.94364e-21)
(0.995794 -0.0301601 2.9754e-21)
(0.995739 -0.0300301 5.98895e-21)
(0.995703 -0.0299003 -1.80284e-20)
(0.995688 -0.0297704 -3.08022e-21)
(0.995693 -0.0296448 1.81834e-20)
(0.995718 -0.0295247 6.11249e-21)
(0.995765 -0.0294107 -1.22894e-20)
(0.995833 -0.0293082 1.22819e-20)
(0.995923 -0.0292158 -2.75933e-23)
(0.996035 -0.0291364 1.86564e-20)
(0.996169 -0.0290742 -1.24536e-20)
(0.996323 -0.0290269 -3.13328e-20)
(0.996497 -0.0290006 1.26232e-20)
(0.996685 -0.0289935 6.36846e-21)
(0.996884 -0.0290067 2.54423e-20)
(0.997081 -0.0290427 -1.26356e-20)
(0.997258 -0.0290932 5.63512e-23)
(0.997386 -0.0291566 6.63751e-23)
(0.997429 -0.0292144 0)
(0.99735 -0.0292455 -1.28811e-20)
(0.99713 -0.029221 -1.29891e-20)
(1.00658 -0.0314181 0)
(1.00659 -0.0321293 -1.47259e-20)
(1.00633 -0.0328656 1.47965e-20)
(1.00587 -0.0335851 0)
(1.00529 -0.0342716 0)
(1.00464 -0.034917 -1.01626e-20)
(1.00398 -0.0355164 2.86053e-24)
(1.00332 -0.0360712 -1.02763e-20)
(1.00268 -0.03658 -3.06761e-23)
(1.00206 -0.0370451 0)
(1.00147 -0.0374682 0)
(1.0009 -0.0378496 5.30148e-21)
(1.00037 -0.0381931 0)
(0.999856 -0.0384991 0)
(0.999374 -0.0387691 -5.45909e-21)
(0.99892 -0.039006 1.08852e-20)
(0.998492 -0.03921 5.50271e-21)
(0.998091 -0.0393843 0)
(0.997716 -0.0395314 5.60595e-21)
(0.997368 -0.0396504 -1.39993e-20)
(0.997046 -0.0397457 -5.65162e-21)
(0.99675 -0.0398192 -5.70757e-21)
(0.996481 -0.0398708 5.70758e-21)
(0.996237 -0.0399047 2.52608e-24)
(0.99602 -0.0399226 4.54045e-23)
(0.99583 -0.0399248 7.35363e-22)
(0.995666 -0.0399151 -1.46337e-21)
(0.995529 -0.0398958 0)
(0.995419 -0.0398667 -2.96457e-21)
(0.995336 -0.0398316 0)
(0.995282 -0.0397933 0)
(0.995256 -0.0397508 -6.05993e-21)
(0.995258 -0.0397089 -2.43387e-20)
(0.99529 -0.0396689 -3.40475e-23)
(0.995351 -0.0396304 6.08557e-21)
(0.995441 -0.0395999 0)
(0.995562 -0.0395748 -6.18132e-21)
(0.995712 -0.0395579 -1.24993e-20)
(0.995891 -0.0395545 1.24758e-20)
(0.996099 -0.0395602 2.51473e-20)
(0.996332 -0.0395829 -2.52531e-20)
(0.996585 -0.0396201 8.20696e-23)
(0.996847 -0.0396725 -1.26917e-20)
(0.997098 -0.0397437 8.44597e-23)
(0.997303 -0.0398227 0)
(0.997406 -0.0399086 -1.28323e-20)
(0.99734 -0.0399791 -6.47181e-21)
(0.997042 -0.0400073 6.46927e-21)
(0.996488 -0.0399581 1.2967e-20)
(1.01016 -0.037565 0)
(1.01025 -0.0383716 9.79286e-21)
(1.00995 -0.0391964 -2.95009e-20)
(1.00937 -0.0399965 0)
(1.00861 -0.0407599 0)
(1.00777 -0.0414803 -2.01975e-20)
(1.00689 -0.0421529 2.03154e-20)
(1.00603 -0.0427801 -1.02368e-20)
(1.00518 -0.0433596 -3.27106e-23)
(1.00436 -0.0438937 1.0373e-20)
(1.00357 -0.0443836 0)
(1.00282 -0.0448293 0)
(1.0021 -0.0452343 1.06583e-20)
(1.00142 -0.0455984 0)
(1.00077 -0.0459229 0)
(1.00015 -0.0462104 -1.0903e-20)
(0.999573 -0.0464609 1.04102e-23)
(0.999026 -0.0466774 0)
(0.998514 -0.0468621 5.56564e-21)
(0.998037 -0.0470141 1.40559e-20)
(0.997593 -0.0471375 -5.64098e-21)
(0.997184 -0.0472344 0)
(0.99681 -0.0473046 -2.87463e-21)
(0.996471 -0.047352 3.60166e-21)
(0.996167 -0.0473786 -1.58303e-21)
(0.995898 -0.0473849 -7.32532e-22)
(0.995664 -0.047374 1.47566e-21)
(0.995466 -0.047349 -2.94978e-21)
(0.995305 -0.0473095 0)
(0.995179 -0.0472588 -1.20204e-20)
(0.995089 -0.0472007 1.80954e-20)
(0.995037 -0.0471334 6.11557e-21)
(0.995021 -0.0470618 4.01101e-23)
(0.995043 -0.0469882 6.18137e-21)
(0.995102 -0.0469103 -6.14669e-21)
(0.995198 -0.0468361 -1.24212e-20)
(0.995332 -0.0467629 2.48977e-20)
(0.995503 -0.0466924 -1.2556e-20)
(0.995712 -0.0466314 2.5161e-20)
(0.995955 -0.0465742 9.74786e-23)
(0.996232 -0.0465295 2.53887e-20)
(0.996533 -0.0464953 -1.26977e-20)
(0.996845 -0.0464709 0)
(0.997135 -0.0464623 1.03345e-22)
(0.997349 -0.0464563 2.5931e-20)
(0.997408 -0.0464549 0)
(0.997214 -0.0464373 0)
(0.996683 -0.0463756 2.29579e-20)
(0.995787 -0.0462315 3.26857e-21)
(1.01418 -0.0436846 2.41804e-21)
(1.01423 -0.0444582 1.69543e-20)
(1.01383 -0.0452429 1.96232e-20)
(1.01308 -0.0459968 -1.97097e-20)
(1.01212 -0.0467133 0)
(1.01106 -0.0473876 -2.52812e-23)
(1.00996 -0.0480152 -1.01423e-20)
(1.00886 -0.0485986 -1.02293e-20)
(1.0078 -0.049134 3.0897e-20)
(1.00676 -0.0496233 -1.03421e-20)
(1.00576 -0.0500669 0)
(1.00481 -0.0504639 2.11582e-20)
(1.00389 -0.0508174 -2.12356e-20)
(1.00301 -0.0511266 -3.62339e-23)
(1.00217 -0.0513922 2.16249e-20)
(1.00138 -0.0516166 -5.41143e-21)
(1.00063 -0.0517998 -5.51413e-21)
(0.999914 -0.051944 1.10249e-20)
(0.999244 -0.0520515 0)
(0.998617 -0.0521214 -5.60948e-21)
(0.998033 -0.0521574 5.66125e-21)
(0.997492 -0.0521619 5.72241e-21)
(0.996996 -0.0521347 -5.72239e-21)
(0.996543 -0.0520794 7.2512e-22)
(0.996135 -0.0519985 9.07701e-23)
(0.995772 -0.0518926 2.20209e-21)
(0.995454 -0.0517641 7.70792e-25)
(0.995182 -0.0516174 0)
(0.994955 -0.0514518 0)
(0.994774 -0.05127 -3.8993e-23)
(0.994639 -0.0510772 -6.11406e-21)
(0.994551 -0.0508709 1.21506e-20)
(0.994508 -0.050656 -1.22673e-20)
(0.994512 -0.0504363 1.23672e-20)
(0.994562 -0.0502074 -2.48318e-20)
(0.994658 -0.0499793 2.51553e-23)
(0.994801 -0.0497488 1.25023e-20)
(0.994989 -0.0495164 1.26417e-20)
(0.995224 -0.0492914 -2.5279e-20)
(0.995502 -0.0490652 -2.53827e-20)
(0.99582 -0.0488481 -1.27748e-20)
(0.99617 -0.0486379 -1.282e-20)
(0.996531 -0.0484317 0)
(0.996864 -0.0482384 -1.29087e-20)
(0.9971 -0.0480423 2.54153e-22)
(0.997139 -0.0478502 2.62976e-20)
(0.996866 -0.0476451 -3.29828e-20)
(0.996182 -0.0473995 6.83833e-21)
(0.995062 -0.0470713 0)
(1.0179 -0.0499092 0)
(1.01784 -0.0505592 -1.93634e-20)
(1.01729 -0.0512186 0)
(1.01635 -0.0518427 1.96932e-20)
(1.01519 -0.0524292 9.95046e-21)
(1.01391 -0.0529746 -1.99922e-20)
(1.01259 -0.0534746 3.02574e-20)
(1.01127 -0.0539315 1.01852e-20)
(1.00997 -0.0543398 -1.02791e-20)
(1.00871 -0.0547011 0)
(1.00749 -0.0550142 1.04927e-20)
(1.00631 -0.055278 -2.10387e-20)
(1.00518 -0.0554947 1.06311e-20)
(1.00409 -0.0556631 -1.07174e-20)
(1.00304 -0.0557831 -3.4223e-23)
(1.00205 -0.055857 1.0858e-20)
(1.0011 -0.0558849 -2.19967e-20)
(1.0002 -0.055868 0)
(0.999352 -0.0558092 1.122e-20)
(0.998555 -0.0557073 -1.12213e-20)
(0.997811 -0.0555658 -2.8318e-21)
(0.99712 -0.0553878 0)
(0.996483 -0.0551728 2.89268e-21)
(0.9959 -0.0549243 7.33731e-22)
(0.995373 -0.0546458 -1.54959e-21)
(0.994903 -0.0543377 2.21922e-21)
(0.994488 -0.0540024 1.50039e-21)
(0.99413 -0.0536453 -2.97952e-21)
(0.993829 -0.0532655 0)
(0.993585 -0.0528656 -6.08319e-21)
(0.993398 -0.0524526 1.22158e-20)
(0.993269 -0.0520226 0)
(0.993196 -0.0515813 6.15453e-21)
(0.99318 -0.0511342 0)
(0.99322 -0.0506743 1.24588e-20)
(0.993316 -0.0502143 -2.51912e-20)
(0.993468 -0.0497505 1.26959e-20)
(0.993675 -0.0492817 7.10879e-23)
(0.993936 -0.0488205 1.28045e-20)
(0.994249 -0.0483545 -1.28381e-20)
(0.994608 -0.0478963 1.28699e-20)
(0.995004 -0.0474428 2.61591e-20)
(0.995411 -0.0469891 0)
(0.995784 -0.0465476 0)
(0.996044 -0.0460991 -2.62397e-20)
(0.996084 -0.0456575 -5.29982e-20)
(0.995775 -0.0452084 5.32249e-20)
(0.995017 -0.0447237 -2.99261e-20)
(0.993786 -0.0441537 3.03405e-20)
(1.02112 -0.0564729 0)
(1.0209 -0.0570068 1.90549e-20)
(1.02017 -0.0575474 1.92205e-20)
(1.01904 -0.0580427 2.92347e-20)
(1.01767 -0.0584944 -2.94208e-20)
(1.01617 -0.0589002 -9.98663e-21)
(1.01462 -0.0592558 3.00246e-20)
(1.01306 -0.0595645 -1.01761e-20)
(1.01153 -0.0598188 1.01843e-20)
(1.01003 -0.0600206 0)
(1.00856 -0.060168 2.08357e-20)
(1.00714 -0.060259 0)
(1.00576 -0.0602961 -1.06138e-20)
(1.00444 -0.0602775 -1.07281e-20)
(1.00316 -0.0602026 2.3411e-23)
(1.00194 -0.0600741 0)
(1.00077 -0.0598918 1.09704e-20)
(0.999654 -0.0596568 2.21948e-20)
(0.9986 -0.0593729 0)
(0.997608 -0.0590381 5.67688e-21)
(0.996678 -0.0586565 -5.67654e-21)
(0.995813 -0.0582324 -5.77261e-21)
(0.995014 -0.0577646 5.79488e-21)
(0.994282 -0.0572574 -6.65297e-25)
(0.993618 -0.0567155 -1.46764e-21)
(0.993023 -0.0561391 -6.48444e-22)
(0.992498 -0.0555309 -1.4902e-21)
(0.992043 -0.0548982 3.03085e-21)
(0.991659 -0.0542396 0)
(0.991345 -0.053558 6.13983e-21)
(0.991102 -0.0528627 -1.22695e-20)
(0.990929 -0.0521485 0)
(0.990825 -0.0514224 0)
(0.990791 -0.0506917 1.2614e-20)
(0.990824 -0.0499468 -2.53195e-20)
(0.990924 -0.0492042 1.25869e-20)
(0.99109 -0.0484589 1.27754e-20)
(0.99132 -0.047709 0)
(0.991613 -0.0469706 3.9115e-20)
(0.991965 -0.0462273 -2.60859e-20)
(0.992368 -0.045495 -1.33396e-20)
(0.992812 -0.04477 3.57742e-22)
(0.993266 -0.0440455 -2.67062e-20)
(0.993681 -0.0433388 -2.68188e-20)
(0.993977 -0.042627 -2.6971e-20)
(0.994039 -0.0419311 -3.70487e-22)
(0.993738 -0.0412387 3.72262e-22)
(0.992971 -0.0405188 0)
(0.991719 -0.039708 -5.4526e-20)
(1.02417 -0.0636804 0)
(1.02372 -0.0641549 4.55857e-21)
(1.02275 -0.0646313 -2.39542e-20)
(1.02138 -0.0650456 -1.94126e-20)
(1.01976 -0.0654033 1.95982e-20)
(1.018 -0.0657027 9.74525e-21)
(1.01619 -0.0659391 -1.00774e-20)
(1.01436 -0.0661173 0)
(1.01254 -0.066228 0)
(1.01075 -0.0662737 2.05446e-20)
(1.009 -0.066252 -2.07994e-20)
(1.00729 -0.0661605 1.05567e-20)
(1.00563 -0.0660024 -1.05513e-20)
(1.00402 -0.0657752 1.06649e-20)
(1.00246 -0.0654781 1.08336e-20)
(1.00096 -0.0651147 -1.08753e-20)
(0.999528 -0.0646849 -1.10173e-20)
(0.998159 -0.0641899 -1.11148e-20)
(0.996858 -0.063635 1.13025e-20)
(0.99563 -0.0630173 -1.13049e-20)
(0.994479 -0.0623424 0)
(0.993405 -0.0616161 5.81048e-21)
(0.992412 -0.0608367 -5.83658e-21)
(0.991502 -0.0600102 4.39639e-21)
(0.990676 -0.0591429 0)
(0.989937 -0.058235 2.99642e-21)
(0.989285 -0.0572902 0)