/*--------------------------------*- C++ -*----------------------------------*\
| =========                 |                                                 |
| \\      /  F ield         | OpenFOAM: The Open Source CFD Toolbox           |
|  \\    /   O peration     | Version:  2312                                  |
|   \\  /    A nd           | Website:  www.openfoam.com                      |
|    \\/     M anipulation  |                                                 |
\*---------------------------------------------------------------------------*/
FoamFile
{
    version     2.0;
    format      ascii;
    arch        "LSB;label=32;scalar=64";
    class       surfaceScalarField;
    location    "93.083250809710592";
    object      phi;
}
// * * * * * * * * * * * * * * * * * * * * * * * * * * * * * * * * * * * * * //

dimensions      [0 3 -1 0 0 0 0];

oriented        oriented;

internalField   nonuniform List<scalar> 
41713
(
0.00736633
0.0568801
0.00362869
0.0679841
0.0021168
0.0657583
0.00148457
0.0648787
0.0010988
0.0646322
0.000844508
0.0645007
0.000669212
0.0644217
0.000542001
0.0643736
0.000446263
0.0643422
0.000372346
0.0643204
0.000314126
0.0643047
0.000267548
0.064293
0.000229846
0.0642841
0.00019908
0.0642772
0.000173856
0.0642717
0.000153153
0.0642671
0.000136207
0.0642634
0.000122434
0.0642602
0.000111378
0.0642575
0.000102658
0.0642552
9.59167e-05
0.0642532
9.07969e-05
0.0642516
8.70169e-05
0.0642502
8.43324e-05
0.0548139
8.20737e-05
0.0456782
8.00046e-05
0.0380654
7.81132e-05
0.0317213
7.64122e-05
0.0264346
0.0220289
7.48691e-05
0.0099967
0.0468834
0.00843221
0.0695486
0.00572007
0.0684705
0.00412645
0.0664723
0.00312603
0.0656326
0.00243492
0.0651918
0.00193731
0.0649193
0.00156777
0.0647432
0.00128599
0.064624
0.00106617
0.0645402
0.000891371
0.0644795
0.00075022
0.0644342
0.000634863
0.0643995
0.000539758
0.0643723
0.000460915
0.0643505
0.000395411
0.0643326
0.000341073
0.0643177
0.000296258
0.064305
0.000259702
0.064294
0.000230409
0.0642845
0.000207565
0.064276
0.00019046
0.0642687
0.000178379
0.0642623
0.000171149
0.0548211
0.000166712
0.0456827
0.000163724
0.0380684
0.000161413
0.0317236
0.000159403
0.0264366
0.0220306
0.000157689
0.00859993
0.0382835
0.00971563
0.0684329
0.00747863
0.0707075
0.00571009
0.0682408
0.00452268
0.06682
0.00363845
0.0660761
0.00295707
0.0656007
0.00242693
0.0652733
0.00200938
0.0650415
0.00167584
0.0648737
0.00140588
0.0647494
0.00118487
0.0646552
0.00100225
0.0645821
0.000850318
0.0645242
0.000723405
0.0644774
0.000617286
0.0644388
0.000528788
0.0644062
0.000455498
0.0643783
0.000395563
0.064354
0.000347536
0.0643325
0.000310263
0.0643133
0.00028278
0.0642961
0.00026412
0.064281
0.000253917
0.0548313
0.000248567
0.045688
0.000245644
0.0380713
0.000243745
0.0317255
0.0002422
0.0264381
0.0220319
0.000240922
0.00677878
0.0315047
0.00948507
0.0657266
0.00813355
0.072059
0.00645526
0.0699191
0.0052663
0.068009
0.00436332
0.0669791
0.0036345
0.0663295
0.00304045
0.0658674
0.00255402
0.0655279
0.00215318
0.0652745
0.00182065
0.0650819
0.00154305
0.0649328
0.00131005
0.0648151
0.00111376
0.0647205
0.000948146
0.064643
0.000808569
0.0645783
0.000691476
0.0645233
0.000594131
0.0644757
0.00051441
0.0644337
0.000450653
0.0643962
0.000401541
0.0643624
0.000365977
0.0643317
0.000342771
0.0643042
0.000331129
0.0548429
0.000325999
0.0456932
0.000323994
0.0380733
0.000323207
0.0317263
0.000322784
0.0264385
0.0220321
0.000322591
0.00506875
0.026436
0.00858144
0.0622139
0.00819893
0.0724415
0.00675827
0.0713598
0.00560621
0.0691611
0.00473418
0.0678511
0.00402032
0.0670434
0.00342066
0.066467
0.00291425
0.0660344
0.00248514
0.0657037
0.00212037
0.0654467
0.00180944
0.0652437
0.00154386
0.0650807
0.00131686
0.0649475
0.00112306
0.0648368
0.000958179
0.0647432
0.000818888
0.0646626
0.000702557
0.064592
0.000607134
0.0645291
0.000530999
0.0644724
0.000472866
0.0644205
0.000431636
0.0643729
0.000406012
0.0643298
0.00039462
0.0548543
0.000391075
0.0456967
0.000391143
0.0380732
0.000392485
0.031725
0.000394089
0.0264369
0.0220304
0.000395769
0.00362175
0.0228142
0.00732385
0.0585118
0.00780414
0.0719612
0.00675073
0.0724132
0.00569467
0.0702171
0.0048747
0.0686711
0.00419965
0.0677184
0.00362092
0.0670458
0.00312055
0.0665347
0.002687
0.0661372
0.00231075
0.065823
0.00198394
0.0655705
0.00170012
0.0653645
0.001454
0.0651936
0.0012413
0.0650495
0.00105855
0.064926
0.000902974
0.0648182
0.000772386
0.0647226
0.000665064
0.0646364
0.00057966
0.0645578
0.000515102
0.0644851
0.000470452
0.0644176
0.000444455
0.0643558
0.000435012
0.0548638
0.000434488
0.0456972
0.000437877
0.0380698
0.000442457
0.0317204
0.000447069
0.0264323
0.022026
0.00045148
0.00252591
0.0202883
0.00603163
0.0550061
0.00712181
0.070871
0.00650066
0.0730343
0.0055957
0.0711221
0.00484756
0.0694192
0.00422595
0.0683401
0.00368344
0.0675883
0.00320397
0.0670142
0.00277989
0.0665613
0.00240491
0.0661979
0.00207361
0.0659018
0.00178144
0.0656567
0.00152461
0.0654505
0.00130001
0.0652741
0.00110511
0.0651209
0.00093788
0.0649854
0.000796754
0.0648637
0.000680517
0.0647527
0.000588257
0.06465
0.000519279
0.0645541
0.000472956
0.0644639
0.000448215
0.0643805
0.000442121
0.0548699
0.000445858
0.0456935
0.000453703
0.038062
0.000462581
0.0317115
0.000471189
0.0264237
0.022018
0.000479237
0.00176119
0.0185271
0.00490039
0.0518669
0.00634584
0.0694256
0.00610971
0.0732704
0.00537442
0.0718574
0.00470332
0.0700903
0.00413832
0.0689051
0.00363872
0.0680879
0.00318822
0.0674647
0.00278169
0.0669678
0.00241562
0.066564
0.00208684
0.0662306
0.00179256
0.065951
0.00153043
0.0657126
0.00129851
0.0655061
0.00109522
0.0653242
0.00091936
0.0651613
0.000770052
0.065013
0.000646703
0.064876
0.000548959
0.0647478
0.000476632
0.0646264
0.000429533
0.064511
0.000406908
0.0644032
0.000404999
0.0548718
0.000413864
0.0456846
0.000427085
0.0380488
0.000441217
0.0316974
0.000454778
0.0264102
0.0220054
0.000467377
0.00124986
0.0172772
0.00397844
0.0491383
0.00559019
0.0678138
0.00566113
0.0731995
0.00509072
0.0724278
0.00449135
0.0706897
0.00397556
0.0694208
0.00351608
0.0685474
0.00309542
0.0678853
0.00270903
0.0673542
0.00235513
0.0669179
0.00203224
0.0665535
0.00173904
0.0662442
0.00147441
0.0659772
0.00123749
0.065743
0.00102763
0.065534
0.000844433
0.0653445
0.000687767
0.0651697
0.000557715
0.0650061
0.000454563
0.0648509
0.000378735
0.0647022
0.000330613
0.0645591
0.000309908
0.0644239
0.000312211
0.0548695
0.000326469
0.0456704
0.000345562
0.0380297
0.000365639
0.0316773
0.000384969
0.0263908
0.0219874
0.00040297
0.000914869
0.0163624
0.0032469
0.0468062
0.00489818
0.0661626
0.00519841
0.0728993
0.00477922
0.072847
0.00424517
0.0712237
0.00376846
0.0698976
0.0033413
0.0689745
0.0029462
0.0682804
0.00257801
0.0677224
0.0022357
0.0672602
0.00191883
0.0668704
0.00162712
0.0665359
0.00136042
0.0662439
0.00111871
0.0659847
0.000902194
0.0657505
0.000711233
0.0655354
0.000546411
0.0653345
0.000408515
0.065144
0.000298534
0.0649609
0.000217598
0.0647832
0.000166792
0.0646099
0.000146408
0.0644442
0.00015179
0.0548641
0.000170825
0.0456513
0.000195561
0.0380049
0.000221749
0.0316511
0.000247398
0.0263652
0.0219633
0.0002715
0.000696451
0.0156659
0.0026726
0.0448301
0.00428255
0.0645526
0.00474264
0.0724392
0.00445599
0.0731336
0.00398183
0.0716979
0.00353568
0.0703437
0.00313238
0.0693778
0.00275655
0.0686563
0.00240221
0.0680767
0.00206843
0.067594
0.00175534
0.0671835
0.00146333
0.0668279
0.00119292
0.0665143
0.000944774
0.0662328
0.00071976
0.0659756
0.000518924
0.0657363
0.000343545
0.0655099
0.000195109
0.0652924
7.53015e-05
0.0650807
-1.39882e-05
0.0648725
-7.09504e-05
0.0646669
-9.43994e-05
0.0644677
-8.85512e-05
0.0548582
-6.64403e-05
0.0456292
-3.69009e-05
0.0379754
-5.19007e-06
0.0316194
2.59727e-05
0.026334
0.0219334
5.5818e-05
0.000551035
0.0151149
0.00222165
0.0431595
0.0037432
0.0630311
0.00430573
0.0718767
0.00413016
0.0733092
0.00371028
0.0721178
0.00328798
0.070766
0.00290084
0.069765
0.00253775
0.0690194
0.00219203
0.0684224
0.00186251
0.0679235
0.00154956
0.0674964
0.00125396
0.0671235
0.000976685
0.0667916
0.000718919
0.0664906
0.000482058
0.0662124
0.000267738
0.0659506
7.77793e-05
0.0656998
-8.57492e-05
0.0654559
-0.000220433
0.0652154
-0.000323567
0.0649756
-0.000392355
0.0647357
-0.000424748
0.0645001
-0.000423481
0.054857
-0.000402448
0.0456082
-0.000371285
0.0379442
-0.000335683
0.0315838
-0.000298862
0.0262972
0.0218975
-0.000262974
0.000449422
0.0146655
0.00186402
0.0417449
0.00327359
0.0616215
0.00389414
0.0712561
0.00380811
0.0733952
0.00343639
0.0724895
0.00303254
0.0711699
0.00265487
0.0701426
0.0022982
0.069376
0.00195567
0.068765
0.00162562
0.0682536
0.00130844
0.0678136
0.00100507
0.0674269
0.000716769
0.0670799
0.000445085
0.0667623
0.000191775
0.0664657
-4.11739e-05
0.0661835
-0.000251447
0.0659101
-0.000436294
0.0656408
-0.000592532
0.0653716
-0.000716678
0.0650997
-0.00080516
0.0648242
-0.000855061
0.06455
-0.000866063
0.054868
-0.000852251
0.0455944
-0.000823956
0.0379159
-0.000787747
0.0315476
-0.000747753
0.0262572
0.0218566
-0.000706844
0.000373985
0.0142915
0.0015761
0.0405428
0.00286485
0.0603327
0.00351052
0.0706104
0.00349418
0.0734115
0.0031644
0.0728193
0.00277473
0.0715595
0.00240099
0.0705164
0.00204502
0.069732
0.00170041
0.0691096
0.00136497
0.068589
0.00103886
0.0681397
0.000723036
0.0677427
0.000418894
0.067384
0.00012806
0.0670531
-0.000147557
0.0667413
-0.000405625
0.0664416
-0.000643266
0.0661478
-0.000857109
0.0658546
-0.00104334
0.0655579
-0.00119781
0.0652542
-0.00131634
0.0649427
-0.00139561
0.0646293
-0.00143073
0.0549031
-0.00143521
0.0455989
-0.00141933
0.0379001
-0.00138997
0.0315182
-0.00135229
0.0262195
0.0218149
-0.00131052
0.000314665
0.0139768
0.00134218
0.0395152
0.0025112
0.0591637
0.00315754
0.0699641
0.00319207
0.073377
0.00289725
0.0731141
0.00251817
0.0719386
0.00214397
0.0708906
0.00178381
0.0700922
0.00143232
0.0694611
0.00108685
0.0689345
0.000747203
0.0684794
0.000414188
0.0680757
8.90264e-05
0.0677092
-0.000226728
0.0673689
-0.000531035
0.0670457
-0.000821211
0.0667318
-0.00109398
0.0664205
-0.00134545
0.0661061
-0.00157121
0.0657836
-0.00176653
0.0654495
-0.00192705
0.0651032
-0.00205013
0.0647523
-0.00212568
0.0549786
-0.00216623
0.0456394
-0.00218045
0.0379143
-0.00217341
0.0315112
-0.00214968
0.0261958
0.0217799
-0.00211469
0.000228965
0.0137479
0.000980992
0.0387632
0.00187762
0.0582671
0.00241129
0.0694304
0.00246878
0.0733195
0.0022426
0.0733403
0.00192916
0.072252
0.00161112
0.0712086
0.00130161
0.0704017
0.000997119
0.0697656
0.000695078
0.0692365
0.00039493
0.0687795
9.70321e-05
0.0683736
-0.000197896
0.0680041
-0.0004887
0.0676597
-0.000773637
0.0673306
-0.00105041
0.0670085
-0.00131611
0.0666862
-0.00156711
0.0663571
-0.0017991
0.0660156
-0.00200734
0.0656578
-0.00218758
0.0652835
-0.00233814
0.0649029
-0.00244628
0.0550868
-0.00252416
0.0457173
-0.0025788
0.0379689
-0.00261139
0.0315438
-0.00262171
0.0262061
0.0217713
-0.00261317
0.000170016
0.0135778
0.000728147
0.0382051
0.00141682
0.0575784
0.00184973
0.0689975
0.00191256
0.0732567
0.00173711
0.0735157
0.00147904
0.0725101
0.00121132
0.0714763
0.000948308
0.0706647
0.000687758
0.0700261
0.000427215
0.0694971
0.000165871
0.0690408
-9.63792e-05
0.0686358
-0.000359213
0.068267
-0.000621859
0.0679223
-0.000883118
0.0675918
-0.00114128
0.0672667
-0.00139403
0.066939
-0.0016383
0.0666014
-0.00187017
0.0662475
-0.00208497
0.0658726
-0.00227807
0.0654766
-0.00244685
0.0650717
-0.00257532
0.0552152
-0.00267783
0.0458198
-0.00276591
0.038057
-0.00284422
0.0316221
-0.00291034
0.0262722
0.0218117
-0.00295073
0.000130386
0.0134475
0.000553403
0.0377821
0.00108882
0.057043
0.0014394
0.0686469
0.00149971
0.0731964
0.0013617
0.0736537
0.00114893
0.0727229
0.000924175
0.0717011
0.000701493
0.0708874
0.000479489
0.0702481
0.000255923
0.0697206
2.98152e-05
0.069267
-0.000199175
0.0688648
-0.000431063
0.0684989
-0.000665496
0.0681568
-0.000901811
0.0678282
-0.00113893
0.0675038
-0.00137522
0.0671753
-0.00160837
0.0668345
-0.0018352
0.0664743
-0.00205152
0.0660889
-0.00225244
0.0656775
-0.00243315
0.0652524
-0.00257049
0.0553526
-0.00267659
0.0459259
-0.00276824
0.0381486
-0.00285976
0.0317136
-0.00296918
0.0263816
0.0219491
-0.00310659
9.93621e-05
0.0133481
0.000428044
0.0374534
0.000853004
0.056618
0.00113919
0.0683608
0.00119233
0.0731432
0.0010801
0.073766
0.000903111
0.0728999
0.000714652
0.0718895
0.000526954
0.0710751
0.000338738
0.0704363
0.000147948
0.0699114
-4.64064e-05
0.0694613
-0.000244794
0.0690632
-0.000447434
0.0687015
-0.000654358
0.0683637
-0.000865365
0.0680392
-0.00107996
0.0677184
-0.00129721
0.0673925
-0.00151562
0.0670529
-0.001733
0.0666917
-0.00194637
0.0663023
-0.00215199
0.0658831
-0.00234484
0.0654452
-0.00249411
0.0555018
-0.00260049
0.0460323
-0.00267076
0.0382189
-0.00271487
0.0317577
-0.00275131
0.0264181
-0.00291632
0.0221141
0.000119428
0.0219828
0.000161467
0.0219853
0.000194563
0.0219943
0.000225314
0.0219966
0.000250246
0.0220024
0.000270646
0.022007
0.000288013
0.02201
0.000299062
0.0220163
0.000308101
0.0220183
0.000312118
0.0220233
0.000313064
0.0220264
0.00031148
0.0220289
0.000305449
0.0220334
0.00029781
0.022035
0.000286916
0.0220382
0.000273712
0.0220406
0.000259164
0.0220419
0.000241634
0.0220449
0.00022303
0.022046
0.000203179
0.0220472
0.000181757
0.0220488
0.00015971
0.0220494
0.000136984
0.0220501
0.00011374
0.0220506
9.03763e-05
0.0220507
6.70606e-05
0.0220507
4.41798e-05
0.0220502
2.17291e-05
0.0220498
3.01157e-08
0.0220491
-2.02763e-05
0.0220477
-3.96896e-05
0.0220468
-5.73777e-05
0.022045
-7.30368e-05
0.022043
-8.74338e-05
0.0220418
-9.85266e-05
0.0220384
-0.000107641
0.0220365
-0.00011447
0.0220342
-0.000117116
0.02203
-0.000117975
0.0220282
-0.000114151
0.0220235
-0.000107162
0.0220204
-9.70411e-05
0.0220172
-8.11099e-05
0.0220114
-6.3011e-05
0.0220093
-3.81825e-05
0.0220025
-9.90164e-06
0.0219991
2.31979e-05
0.0219943
6.26656e-05
0.0219879
0.0219854
0.000104645
0.000202029
0.0219385
0.000244063
0.0219433
0.000277381
0.0219609
0.000308582
0.0219654
0.000334207
0.0219768
0.000355536
0.0219856
0.000374057
0.0219915
0.000386485
0.0220039
0.000397102
0.0220077
0.000402894
0.0220175
0.000405795
0.0220235
0.000406328
0.0220284
0.000402577
0.0220371
0.00039735
0.0220402
0.000389001
0.0220466
0.000378454
0.0220511
0.000366656
0.0220537
0.000351974
0.0220596
0.000336285
0.0220616
0.000319407
0.0220641
0.00030101
0.0220672
0.000282015
0.0220684
0.000262361
0.0220697
0.000242202
0.0220708
0.00022191
0.022071
0.000201645
0.0220709
0.00018179
0.0220701
0.000162314
0.0220693
0.000143532
0.0220678
0.00012608
0.0220651
0.000109431
0.0220634
9.44115e-05
0.0220601
8.13121e-05
0.0220561
6.93387e-05
0.0220537
6.0542e-05
0.0220472
5.35648e-05
0.0220434
4.87038e-05
0.022039
4.7858e-05
0.0220308
4.85975e-05
0.0220275
5.38257e-05
0.0220183
6.20001e-05
0.0220122
7.30732e-05
0.0220062
8.97272e-05
0.0219948
0.000108283
0.0219907
0.000133315
0.0219775
0.00016151
0.0219709
0.000194221
0.0219615
0.000232975
0.0219491
0.0219445
0.000273889
0.000285504
0.0218939
0.000327985
0.0219008
0.000362
0.0219269
0.00039414
0.0219333
0.000420949
0.02195
0.000443698
0.0219629
0.000463856
0.0219713
0.000478143
0.0219896
0.00049081
0.021995
0.000498848
0.0220095
0.000504166
0.0220182
0.000507276
0.0220253
0.000506259
0.0220382
0.000503896
0.0220426
0.000498537
0.022052
0.000491091
0.0220586
0.000482483
0.0220623
0.000471085
0.022071
0.000458742
0.022074
0.000445261
0.0220776
0.000430313
0.0220821
0.000414787
0.0220839
0.000398615
0.0220859
0.000381945
0.0220874
0.000365122
0.0220878
0.000348298
0.0220878
0.000331851
0.0220865
0.000315722
0.0220854
0.000300217
0.0220833
0.000285969
0.0220794
0.000272419
0.022077
0.000260394
0.0220721
0.000250172
0.0220663
0.000240929
0.022063
0.000234729
0.0220534
0.00023018
0.022048
0.000227569
0.0220417
0.000228798
0.0220296
0.000231399
0.0220249
0.000238287
0.0220114
0.000247891
0.0220026
0.00026015
0.0219939
0.000277751
0.0219772
0.000296974
0.0219715
0.000322409
0.0219521
0.000350706
0.0219426
0.00038321
0.021929
0.000421439
0.0219109
0.0219044
0.000461463
0.000368133
0.0218483
0.000411752
0.0218572
0.000447139
0.0218915
0.000480883
0.0218995
0.000509542
0.0219213
0.00053438
0.021938
0.000556855
0.0219488
0.000573684
0.0219728
0.000589094
0.0219796
0.000600074
0.0219985
0.000608514
0.0220097
0.000614908
0.0220189
0.000617337
0.0220357
0.00061855
0.0220414
0.000616898
0.0220536
0.000613269
0.0220622
0.000608564
0.022067
0.000601165
0.0220784
0.000592879
0.0220823
0.000583504
0.0220869
0.000572707
0.0220929
0.000561347
0.0220953
0.000549347
0.0220979
0.000536847
0.0220999
0.000524166
0.0221005
0.000511445
0.0221005
0.000499058
0.0220989
0.000486915
0.0220976
0.000475313
0.0220949
0.000464883
0.0220898
0.000455032
0.0220868
0.000446587
0.0220805
0.000439812
0.0220731
0.000433854
0.0220689
0.000430791
0.0220565
0.000429195
0.0220496
0.000429341
0.0220415
0.00043314
0.0220258
0.000438081
0.0220199
0.000447095
0.0220024
0.000458583
0.0219911
0.000472467
0.02198
0.000491447
0.0219582
0.000511757
0.0219512
0.000538012
0.0219258
0.000566819
0.0219138
0.000599518
0.0218963
0.000637625
0.0218728
0.0218649
0.000677157
0.000443186
0.0218009
0.000488854
0.0218115
0.000526514
0.0218539
0.000562764
0.0218633
0.000594176
0.0218899
0.000622011
0.0219102
0.000647716
0.0219231
0.000668011
0.0219525
0.000687096
0.0219605
0.000701959
0.0219837
0.00071447
0.0219972
0.000725104
0.0220083
0.000731944
0.0220289
0.000737703
0.0220356
0.000740734
0.0220506
0.0007419
0.022061
0.000742081
0.0220668
0.000739664
0.0220808
0.000736418
0.0220855
0.00073213
0.0220912
0.000726463
0.0220986
0.000720242
0.0221015
0.000713382
0.0221048
0.000706015
0.0221073
0.000698427
0.0221081
0.000690749
0.0221082
0.000683353
0.0221063
0.000676112
0.0221048
0.000669316
0.0221017
0.000663592
0.0220955
0.000658309
0.0220921
0.000654297
0.0220845
0.000651805
0.0220756
0.000649948
0.0220708
0.000650819
0.0220556
0.000652954
0.0220475
0.000656615
0.0220378
0.000663724
0.0220187
0.000671724
0.0220119
0.000683568
0.0219906
0.000697624
0.021977
0.000713804
0.0219638
0.000734822
0.0219372
0.000756862
0.0219291
0.000784574
0.0218981
0.000814522
0.0218838
0.000848045
0.0218628
0.000886658
0.0218342
0.0218252
0.000926325
0.000501859
0.0217505
0.000550676
0.0217627
0.000591711
0.0218128
0.000631578
0.0218234
0.000666867
0.0218546
0.000698836
0.0218782
0.000728926
0.021893
0.000753857
0.0219275
0.000777804
0.0219366
0.000797754
0.0219637
0.000815556
0.0219794
0.000831668
0.0219922
0.000844166
0.0220164
0.000855736
0.022024
0.00086472
0.0220416
0.000871965
0.0220538
0.000878321
0.0220605
0.00088218
0.0220769
0.000885273
0.0220824
0.000887371
0.0220891
0.000888134
0.0220978
0.000888348
0.0221013
0.000887918
0.0221052
0.000886966
0.0221082
0.000885746
0.0221093
0.000884373
0.0221095
0.000883215
0.0221075
0.000882108
0.0221059
0.00088133
0.0221025
0.000881505
0.0220953
0.000881962
0.0220916
0.000883532
0.022083
0.000886447
0.0220727
0.000889786
0.0220674
0.000895664
0.0220498
0.000902574
0.0220405
0.000910767
0.0220297
0.000922176
0.0220073
0.000934194
0.0219999
0.000949803
0.0219749
0.000967335
0.0219595
0.00098669
0.0219445
0.0010106
0.0219133
0.00103521
0.0219045
0.00106519
0.0218681
0.00109707
0.0218519
0.00113219
0.0218277
0.00117207
0.0217943
0.0217847
0.0012126
0.000533835
0.0216959
0.00058709
0.0217094
0.000632809
0.0217671
0.000677631
0.0217786
0.000718155
0.0218141
0.000755647
0.0218407
0.000791538
0.0218572
0.000822547
0.0218965
0.000852832
0.0219063
0.000879371
0.0219372
0.000903993
0.0219548
0.000927138
0.021969
0.000946873
0.0219967
0.000965852
0.0220051
0.000982411
0.022025
0.00099737
0.0220388
0.00101155
0.0220463
0.00102335
0.0220651
0.00103445
0.0220713
0.00104462
0.022079
0.00105349
0.022089
0.00106182
0.022093
0.00106949
0.0220975
0.00107663
0.0221011
0.00108343
0.0221025
0.00109001
0.022103
0.00109672
0.0221008
0.00110335
0.0220993
0.00111018
0.0220957
0.00111781
0.0220877
0.00112553
0.0220839
0.00113418
0.0220743
0.00114396
0.0220629
0.00115392
0.0220575
0.00116619
0.0220375
0.00117921
0.0220275
0.00119323
0.0220156
0.0012102
0.0219903
0.00122745
0.0219827
0.00124799
0.0219544
0.00127012
0.0219374
0.00129372
0.0219209
0.00132157
0.0218854
0.00134972
0.0218764
0.00138293
0.0218349
0.00141766
0.0218172
0.00145525
0.0217901
0.00149723
0.0217523
0.0217425
0.00153944
0.000527596
0.0216357
0.000586747
0.0216503
0.000638649
0.0217152
0.00068997
0.0217273
0.00073732
0.0217668
0.000781969
0.0217961
0.000825349
0.0218138
0.000864167
0.0218577
0.000902573
0.0218679
0.000937527
0.0219022
0.000970843
0.0219215
0.00100294
0.0219369
0.00103186
0.0219677
0.00106025
0.0219767
0.00108641
0.0219989
0.00111114
0.0220141
0.00113523
0.0220222
0.00115707
0.0220433
0.00117831
0.0220501
0.00119867
0.0220586
0.0012178
0.0220698
0.0012364
0.0220744
0.00125433
0.0220796
0.00127169
0.0220838
0.00128866
0.0220856
0.0013053
0.0220863
0.00132197
0.0220841
0.00133842
0.0220828
0.00135488
0.0220792
0.00137197
0.0220706
0.00138892
0.022067
0.00140655
0.0220567
0.00142506
0.0220444
0.00144345
0.0220391
0.00146385
0.0220171
0.00148468
0.0220067
0.00150616
0.0219942
0.00153024
0.0219663
0.00155421
0.0219587
0.0015811
0.0219275
0.00160919
0.0219093
0.00163833
0.0218917
0.00167133
0.0218524
0.00170419
0.0218435
0.00174172
0.0217974
0.00178032
0.0217786
0.00182135
0.0217491
0.00186634
0.0217073
0.0216978
0.00191105
0.000470327
0.0215684
0.00053697
0.0215836
0.00059672
0.0216555
0.000656302
0.0216677
0.00071231
0.0217107
0.000766026
0.0217424
0.000818884
0.0217609
0.000867567
0.021809
0.00091623
0.0218192
0.000961803
0.0218566
0.00100609
0.0218772
0.00104947
0.0218935
0.00108999
0.0219272
0.00113024
0.0219364
0.00116852
0.0219606
0.00120558
0.021977
0.00124221
0.0219856
0.00127674
0.0220088
0.00131079
0.022016
0.00134407
0.0220253
0.00137618
0.0220377
0.00140779
0.0220428
0.00143873
0.0220486
0.00146907
0.0220534
0.00149893
0.0220557
0.00152836
0.0220569
0.00155768
0.0220548
0.00158659
0.0220539
0.00161531
0.0220505
0.00164441
0.0220415
0.00167309
0.0220383
0.00170215
0.0220276
0.00173175
0.0220148
0.00176083
0.02201
0.00179158
0.0219863
0.00182232
0.021976
0.00185325
0.0219632
0.00188637
0.0219331
0.00191886
0.0219262
0.00195382
0.0218926
0.00198946
0.0218737
0.00202564
0.0218556
0.00206519
0.0218129
0.00210404
0.0218047
0.00214708
0.0217543
0.00219063
0.0217351
0.00223609
0.0217036
0.002285
0.0216584
0.0216498
0.00233302
0.000347569
0.0214923
0.000423417
0.0215078
0.000492839
0.0215861
0.000562605
0.0215979
0.000629303
0.021644
0.000694246
0.0216774
0.000758876
0.0216963
0.000819832
0.0217481
0.000881285
0.0217578
0.000940116
0.0217978
0.000998117
0.0218192
0.00105566
0.021836
0.00111072
0.0218722
0.00116589
0.0218813
0.00121942
0.0219071
0.00127204
0.0219244
0.00132449
0.0219331
0.00137506
0.0219582
0.00142535
0.0219657
0.00147501
0.0219757
0.0015236
0.0219891
0.00157175
0.0219946
0.00161923
0.0220012
0.00166609
0.0220066
0.00171238
0.0220094
0.0017581
0.0220112
0.00180355
0.0220093
0.00184836
0.0220091
0.00189269
0.0220062
0.00193711
0.0219971
0.00198072
0.0219947
0.00202431
0.021984
0.00206801
0.0219711
0.00211069
0.0219673
0.00215454
0.0219425
0.00219782
0.0219327
0.00224069
0.0219203
0.00228518
0.0218887
0.00232838
0.021883
0.00237344
0.0218475
0.00241851
0.0218286
0.00246343
0.0218106
0.00251109
0.0217652
0.00255734
0.0217584
0.00260713
0.0217045
0.00265675
0.0216854
0.0027076
0.0216528
0.00276123
0.0216048
0.0215978
0.00281324
0.000141955
0.0214062
0.000228972
0.0214208
0.000310104
0.0215049
0.000392198
0.0215158
0.000472007
0.0215642
0.000550753
0.0215987
0.000629871
0.0216172
0.000705936
0.021672
0.000783191
0.0216805
0.000858449
0.0217226
0.000933499
0.0217442
0.00100869
0.0217608
0.00108192
0.0217989
0.00115581
0.0218074
0.00122851
0.0218344
0.00130075
0.0218522
0.00137319
0.0218607
0.00144409
0.0218873
0.00151499
0.0218948
0.00158548
0.0219052
0.00165507
0.0219195
0.00172431
0.0219254
0.00179294
0.0219325
0.00186091
0.0219386
0.00192823
0.0219421
0.00199483
0.0219446
0.00206094
0.0219432
0.00212611
0.0219439
0.00219044
0.0219419
0.00225446
0.0219331
0.00231716
0.021932
0.00237931
0.0219219
0.00244097
0.0219094
0.00250092
0.0219074
0.00256137
0.021882
0.00262047
0.0218736
0.00267837
0.0218625
0.00273708
0.0218299
0.00279361
0.0218265
0.00285116
0.0217899
0.00290782
0.0217719
0.0029634
0.0217551
0.00302086
0.0217077
0.00307594
0.0217033
0.00313373
0.0216468
0.00319042
0.0216288
0.00324745
0.0215957
0.00330641
0.0215458
0.0215414
0.0033628
-0.000165853
0.021309
-6.71076e-05
0.021322
2.73388e-05
0.0214105
0.000124493
0.0214187
0.000220184
0.0214686
0.000315729
0.0215031
0.000412404
0.0215205
0.00050697
0.0215774
0.000603686
0.0215838
0.000699249
0.021627
0.000795469
0.0216479
0.000892662
0.0216636
0.000988649
0.0217029
0.00108604
0.02171
0.00118292
0.0217375
0.00127996
0.0217551
0.00137779
0.0217629
0.00147455
0.0217905
0.00157174
0.0217976
0.00166887
0.0218081
0.00176536
0.021823
0.00186169
0.021829
0.00195751
0.0218367
0.00205268
0.0218434
0.00214711
0.0218477
0.00224062
0.021851
0.00233339
0.0218504
0.00242483
0.0218525
0.00251496
0.0218517
0.00260422
0.0218438
0.00269149
0.0218447
0.00277745
0.0218359
0.0028621
0.0218248
0.00294408
0.0218254
0.00302562
0.0218005
0.00310472
0.0217945
0.00318149
0.0217857
0.00325795
0.0217535
0.00333098
0.0217534
0.00340383
0.0217171
0.00347452
0.0217012
0.00354284
0.0216867
0.00361185
0.0216387
0.00367715
0.021638
0.003744
0.0215799
0.0038085
0.0215643
0.00387213
0.0215321
0.00393659
0.0214814
0.0214807
0.00399722
-0.000596487
0.0211987
-0.000482839
0.0212084
-0.000373038
0.0213007
-0.000259954
0.0213056
-0.000146986
0.0213556
-3.2737e-05
0.0213889
8.46964e-05
0.0214031
0.000201192
0.0214609
0.000321153
0.0214639
0.000441272
0.0215069
0.000563451
0.0215258
0.0006879
0.0215392
0.000812324
0.0215785
0.000939336
0.021583
0.00106684
0.02161
0.00119541
0.0216266
0.00132561
0.0216327
0.00145545
0.0216607
0.00158638
0.0216667
0.00171779
0.0216766
0.00184898
0.0216918
0.00198034
0.0216977
0.00211137
0.0217057
0.00224184
0.0217129
0.00237149
0.021718
0.00250003
0.0217225
0.0026275
0.021723
0.00275314
0.0217269
0.00287683
0.021728
0.00299891
0.0217217
0.00311805
0.0217256
0.00323483
0.0217191
0.00334913
0.0217105
0.0034594
0.0217151
0.00356785
0.0216921
0.00367233
0.02169
0.00377282
0.0216852
0.0038714
0.0216549
0.00396472
0.0216601
0.00405615
0.0216257
0.00414359
0.0216138
0.00422684
0.0216035
0.00430905
0.0215565
0.00438568
0.0215614
0.00446224
0.0215033
0.00453472
0.0214918
0.00460472
0.0214621
0.00467403
0.0214121
0.0214169
0.00473788
-0.00118828
0.0210764
-0.00106051
0.0210806
-0.000934295
0.0211745
-0.000802182
0.0211735
-0.000668077
0.0212215
-0.000530565
0.0212514
-0.00038831
0.0212608
-0.000244885
0.0213175
-9.57417e-05
0.0213147
5.5288e-05
0.0213558
0.000209839
0.0213712
0.000368258
0.0213807
0.000528479
0.0214183
0.000692959
0.0214185
0.000859346
0.0214436
0.00102819
0.0214577
0.00119989
0.021461
0.00137227
0.0214883
0.00154672
0.0214923
0.00172246
0.0215009
0.00189869
0.0215156
0.00207564
0.0215207
0.00225265
0.0215287
0.00242933
0.0215363
0.00260522
0.0215421
0.00277983
0.0215479
0.00295301
0.0215498
0.00312373
0.0215562
0.00329166
0.0215601
0.00345696
0.0215564
0.00361798
0.0215646
0.00377516
0.021562
0.00392816
0.0215575
0.00407515
0.0215682
0.00421833
0.0215489
0.00435525
0.0215531
0.00448576
0.0215547
0.00461196
0.0215287
0.00473021
0.0215419
0.00484403
0.0215118
0.00495116
0.0215067
0.00505136
0.0215033
0.00514799
0.0214599
0.00523634
0.0214731
0.00532225
0.0214174
0.00540162
0.0214124
0.00547625
0.0213875
0.00554814
0.0213402
0.0213526
0.00561242
-0.00198312
0.0209449
-0.00184242
0.0209399
-0.0017006
0.0210326
-0.00154957
0.0210224
-0.00139304
0.021065
-0.00122925
0.0210876
-0.00105654
0.0210881
-0.000879133
0.0211401
-0.00069263
0.0211282
-0.000501138
0.0211644
-0.000303075
0.0211732
-9.88049e-05
0.0211765
0.000107988
0.0212115
0.000320154
0.0212063
0.000536068
0.0212277
0.000756615
0.0212372
0.000981655
0.0212359
0.00120895
0.021261
0.00143973
0.0212615
0.00167309
0.0212675
0.00190812
0.0212806
0.00214486
0.021284
0.00238247
0.0212911
0.00262035
0.0212984
0.00285772
0.0213047
0.0030938
0.0213118
0.00332815
0.0213154
0.0035593
0.021325
0.00378657
0.0213328
0.00400981
0.0213332
0.00422686
0.0213475
0.00443789
0.0213509
0.00464223
0.0213531
0.00483759
0.0213728
0.00502612
0.0213603
0.00520494
0.0213743
0.00537372
0.0213859
0.00553454
0.0213679
0.00568339
0.021393
0.00582395
0.0213713
0.00595375
0.0213769
0.00607252
0.0213845
0.00618389
0.0213485
0.0062829
0.021374
0.00637597
0.0213244
0.00645895
0.0213294
0.00653402
0.0213124
0.00660357
0.0212706
0.0212936
0.00666259
-0.00250608
0.0208378
-0.00238828
0.0208221
-0.00226473
0.0209091
-0.00212599
0.0208837
-0.00197495
0.0209139
-0.00181059
0.0209232
-0.00163261
0.0209101
-0.00144591
0.0209534
-0.00124778
0.0209301
-0.00104285
0.0209594
-0.000830526
0.0209608
-0.000611366
0.0209573
-0.000387671
0.0209878
-0.000157673
0.0209763
7.5415e-05
0.0209946
0.000311452
0.0210011
0.000553689
0.0209937
0.000799161
0.0210155
0.00104917
0.0210115
0.00130302
0.0210137
0.00155992
0.0210237
0.0018198
0.0210241
0.0020818
0.0210291
0.00234522
0.021035
0.00260904
0.0210409
0.0028722
0.0210487
0.00313396
0.0210537
0.00339249
0.0210665
0.0036467
0.0210786
0.00389603
0.0210839
0.00413798
0.0211056
0.00437231
0.0211166
0.004598
0.0211275
0.00481259
0.0211582
0.00501781
0.0211551
0.00521075
0.0211813
0.00539093
0.0212057
0.00556019
0.0211986
0.00571473
0.0212385
0.00585788
0.0212281
0.00598733
0.0212474
0.00610278
0.0212691
0.0062075
0.0212438
0.00629693
0.0212846
0.00637687
0.0212444
0.00644372
0.0212626
0.00649979
0.0212563
0.00654791
0.0212225
0.0212571
0.00658436
-0.00286677
0.0207538
-0.00278174
0.0207371
-0.00268725
0.0208146
-0.00256685
0.0207633
-0.00242259
0.0207696
-0.00225635
0.020757
-0.00207136
0.0207251
-0.00187491
0.020757
-0.00166673
0.0207219
-0.00145212
0.0207448
-0.00123122
0.0207399
-0.0010049
0.020731
-0.000775612
0.0207585
-0.000541302
0.020742
-0.000303039
0.0207563
-6.00194e-05
0.0207581
0.000185056
0.0207486
0.000434635
0.020766
0.000689943
0.0207562
0.000950399