/*--------------------------------*- C++ -*----------------------------------*\
| =========                 |                                                 |
| \\      /  F ield         | OpenFOAM: The Open Source CFD Toolbox           |
|  \\    /   O peration     | Version:  2312                                  |
|   \\  /    A nd           | Website:  www.openfoam.com                      |
|    \\/     M anipulation  |                                                 |
\*---------------------------------------------------------------------------*/
FoamFile
{
    version     2.0;
    format      ascii;
    arch        "LSB;label=32;scalar=64";
    class       surfaceScalarField;
    location    "26.38468794149524";
    object      phi;
}
// * * * * * * * * * * * * * * * * * * * * * * * * * * * * * * * * * * * * * //

dimensions      [0 3 -1 0 0 0 0];

oriented        oriented;

internalField   nonuniform List<scalar> 
41713
(
0.00736576
0.0568807
0.00362898
0.0679832
0.00211769
0.0657577
0.00148587
0.0648783
0.00110065
0.0646317
0.00084702
0.0645001
0.00067244
0.064421
0.000545999
0.0643729
0.000451091
0.0643413
0.000378065
0.0643195
0.000320795
0.0643037
0.000275229
0.064292
0.0002386
0.0642831
0.000208968
0.0642761
0.000184937
0.0642705
0.000165482
0.0642659
0.000149837
0.0642621
0.000137413
0.0642589
0.000127745
0.0642561
0.000120444
0.0642537
0.000115143
0.0642517
0.000111469
0.0642501
0.000109132
0.0642488
0.000107662
0.0548126
0.000106394
0.0456772
0.000105131
0.0380646
0.000103896
0.0317207
0.000102729
0.026434
0.0220285
0.00010162
0.00999552
0.0468852
0.00843155
0.0695472
0.00572095
0.0684683
0.00412873
0.0664705
0.00312981
0.0656306
0.00244038
0.0651895
0.00194461
0.0649168
0.00157704
0.0647404
0.00129737
0.064621
0.00107983
0.064537
0.000907459
0.0644761
0.000768889
0.0644306
0.000656271
0.0643957
0.000564061
0.0643683
0.000488266
0.0643463
0.000425956
0.0643282
0.000374949
0.0643131
0.000333589
0.0643002
0.000300593
0.0642891
0.000274943
0.0642794
0.000255803
0.0642709
0.000242431
0.0642635
0.000234078
0.0642571
0.000229993
0.0548167
0.000228127
0.0456791
0.000227231
0.0380655
0.000226617
0.0317213
0.00022598
0.0264347
0.0220291
0.000225379
0.00859739
0.0382878
0.00971241
0.0684322
0.00747721
0.0707035
0.00571082
0.0682369
0.00452547
0.0668159
0.00364346
0.0660715
0.0029645
0.0655958
0.002437
0.0652679
0.00202228
0.0650357
0.00169179
0.0648675
0.00142508
0.0647428
0.00120755
0.0646481
0.00102863
0.0645746
0.000880632
0.0645163
0.000757875
0.064469
0.000656131
0.0644299
0.000572213
0.064397
0.000503694
0.0643687
0.000448696
0.0643441
0.000405743
0.0643223
0.000373646
0.064303
0.0003514
0.0642857
0.000337989
0.0642705
0.000332224
0.0548225
0.000330511
0.0456808
0.000330555
0.0380654
0.000331069
0.0317208
0.000331485
0.0264342
0.0220288
0.000331804
0.00677509
0.0315127
0.00947796
0.0657293
0.00812735
0.0720541
0.00645157
0.0699126
0.00526489
0.0680026
0.00436416
0.0669722
0.00363779
0.0663221
0.00304642
0.0658593
0.00256288
0.0655193
0.00216517
0.0652652
0.00183601
0.0650719
0.00156203
0.0649221
0.00133293
0.0648037
0.00114082
0.0647084
0.000979648
0.0646302
0.000844793
0.0645648
0.000732689
0.0645091
0.000640579
0.0644608
0.00056632
0.0644184
0.000508217
0.0643804
0.000464914
0.0643463
0.000435265
0.0643154
0.000418022
0.0642878
0.000411449
0.0548291
0.000410491
0.0456818
0.000411904
0.038064
0.000413906
0.0317188
0.000415758
0.0264324
0.0220271
0.000417425
0.00506403
0.0264487
0.00856966
0.0622237
0.0081857
0.0724381
0.00674723
0.0713511
0.00559739
0.0691524
0.00472721
0.0678424
0.00401525
0.0670341
0.00341769
0.0664569
0.00291356
0.0660234
0.00248696
0.0656918
0.00212495
0.065434
0.00181703
0.06523
0.00155476
0.065066
0.00133136
0.0649318
0.00114147
0.0648201
0.000980835
0.0647254
0.000846095
0.0646439
0.000734621
0.0645723
0.000644339
0.0645086
0.000573604
0.0644512
0.000521089
0.0643988
0.000485651
0.0643508
0.000465932
0.0643075
0.000459606
0.0548354
0.000460262
0.0456811
0.000463789
0.0380605
0.000467967
0.0317146
0.000471893
0.0264285
0.0220235
0.000475478
0.00361602
0.0228326
0.00730708
0.0585326
0.00778231
0.0719629
0.00672972
0.0724037
0.00567542
0.0702067
0.00485653
0.0686613
0.00418231
0.0677083
0.00360446
0.0670347
0.00310513
0.0665227
0.00267278
0.0661242
0.00229795
0.0658088
0.00197281
0.0655551
0.00169094
0.0653478
0.00144709
0.0651756
0.00123699
0.0650302
0.00105719
0.0649052
0.000904936
0.0647961
0.000778026
0.0646992
0.000674736
0.0646119
0.000593697
0.0645322
0.000533809
0.0644587
0.000494092
0.0643905
0.000473234
0.0643284
0.000468275
0.0548403
0.000471519
0.0456779
0.00047804
0.038054
0.000485206
0.0317074
0.000491948
0.0264217
0.0220173
0.000498119
0.00251926
0.0203134
0.00601007
0.0550418
0.00709066
0.0708823
0.00646775
0.0730266
0.00556348
0.071111
0.00481528
0.0694095
0.00419295
0.0683306
0.00364957
0.0675781
0.00316927
0.067003
0.00274447
0.066549
0.00236893
0.0661843
0.00203728
0.0658868
0.00174502
0.0656401
0.00148843
0.0654322
0.00126441
0.0652542
0.00107047
0.0650992
0.000904623
0.064962
0.000765301
0.0648386
0.000651301
0.0647259
0.000561708
0.0646218
0.000495809
0.0645246
0.000452942
0.0644334
0.000431981
0.0643493
0.000429313
0.054843
0.000436002
0.0456712
0.000446346
0.0380436
0.000457319
0.0316964
0.000467678
0.0264114
0.0220078
0.00047719
0.00175367
0.0185597
0.00487462
0.0519208
0.00630556
0.0694513
0.00606394
0.0732683
0.00532743
0.0718475
0.00465475
0.0700822
0.00408709
0.0688983
0.00358439
0.0680808
0.00313069
0.0674567
0.00272098
0.0669587
0.00235182
0.0665535
0.00202011
0.0662185
0.00172315
0.0659371
0.00145865
0.0656967
0.00122472
0.0654881
0.00101984
0.0653041
0.000842856
0.0651389
0.000692931
0.0649885
0.000569494
0.0648494
0.000472207
0.0647191
0.000400882
0.0645959
0.000355311
0.064479
0.000334689
0.0643699
0.000334813
0.0548429
0.000345542
0.0456605
0.00036041
0.0380288
0.000375987
0.0316809
0.000390821
0.0263965
0.0219941
0.000404518
0.00124151
0.0173182
0.0039493
0.0492131
0.00554175
0.0678589
0.00560262
0.0732074
0.00502816
0.072422
0.00442517
0.0706852
0.00390447
0.069419
0.00343931
0.068546
0.00301269
0.0678833
0.00262026
0.0673511
0.00226033
0.0669134
0.00193152
0.0665473
0.00163262
0.066236
0.0013626
0.0659668
0.00112067
0.0657301
0.000906252
0.0655185
0.000719046
0.0653261
0.000558964
0.0651486
0.00042615
0.0649822
0.000320941
0.0648243
0.000243794
0.0646731
0.000195086
0.0645277
0.000174451
0.0643906
0.000177236
0.0548401
0.000192148
0.0456456
0.000211891
0.038009
0.00023255
0.0316602
0.000252557
0.0263765
0.0219755
0.000271243
0.000905739
0.0164125
0.00321533
0.0469035
0.00484313
0.0662311
0.00512827
0.0729222
0.00470133
0.0728489
0.00416108
0.0712254
0.00367694
0.0699031
0.00324128
0.0689816
0.00283719
0.0682874
0.00245983
0.0677285
0.00210829
0.067265
0.00178227
0.0668733
0.00148159
0.0665366
0.00120621
0.0662421
0.00095625
0.06598
0.000731995
0.0657427
0.000533924
0.0655242
0.000362738
0.0653197
0.000219315
0.0651256
0.00010468
0.0649389
1.9984e-05
0.0647577
-3.36926e-05
0.0645814
-5.60096e-05
0.0644129
-5.16262e-05
0.0548357
-3.30183e-05
0.0456269
-8.36893e-06
0.0379844
1.77443e-05
0.0316341
4.29179e-05
0.0263513
0.0219517
6.66883e-05
0.000686643
0.0157258
0.00263956
0.0449505
0.00422274
0.0646479
0.00466277
0.0724822
0.00436401
0.0731477
0.00388053
0.0717089
0.00342419
0.0703595
0.00300943
0.0693964
0.00262149
0.0686754
0.00225473
0.0680952
0.00190841
0.0676113
0.00158283
0.0671989
0.00127849
0.066841
0.000996046
0.0665246
0.000736332
0.0662397
0.000500349
0.0659787
0.000289304
0.0657353
0.00010454
0.0655045
-5.24186e-05
0.0652826
-0.000179771
0.0650663
-0.000275495
0.0648535
-0.000337581
0.0646434
-0.00036488
0.0644402
-0.00036147
0.0548323
-0.000341004
0.0456065
-0.000312653
0.037956
-0.000281564
0.031603
-0.000250308
0.0263201
0.0219218
-0.000220424
0.000540697
0.0151851
0.00218797
0.0433033
0.00368053
0.0631553
0.0042185
0.0719442
0.00402616
0.07334
0.00359339
0.0721417
0.00315795
0.0707949
0.00275639
0.069798
0.00237807
0.0690537
0.00201672
0.0684566
0.0016714
0.0679566
0.00134266
0.0675277
0.00103143
0.0671522
0.000738845
0.0668171
0.000466286
0.0665123
0.000215293
0.0662297
-1.24424e-05
0.065963
-0.000214975
0.065707
-0.00038999
0.0654576
-0.000534815
0.0652111
-0.000646541
0.0649652
-0.000722261
0.0647192
-0.0007599
0.0644778
-0.000761841
0.0548343
-0.000742618
0.0455873
-0.000712408
0.0379258
-0.000677274
0.0315679
-0.000640624
0.0262834
0.0218856
-0.000604447
0.000438726
0.0147464
0.00183037
0.0419116
0.00320979
0.0617759
0.00380209
0.0713519
0.00369472
0.0734474
0.00330629
0.0725301
0.00288624
0.0712149
0.00249128
0.0701929
0.00211642
0.0694286
0.00175522
0.0688178
0.00140629
0.0683055
0.0010702
0.0678638
0.000748069
0.0674743
0.000441369
0.0671238
0.000151762
0.0668019
-0.000118907
0.0665004
-0.000368454
0.0662125
-0.000594233
0.0659328
-0.000793176
0.0656565
-0.000961858
0.0653798
-0.00109655
0.0650999
-0.00119348
0.0648161
-0.00124972
0.0645341
-0.00126455
0.0548491
-0.00125291
0.0455756
-0.00122574
0.0378986
-0.00118995
0.0315321
-0.00114996
0.0262434
0.0218445
-0.00110881
0.000363084
0.0143833
0.00154293
0.0407318
0.00280134
0.0605175
0.00341608
0.0707372
0.0033743
0.0734892
0.00302401
0.0728804
0.00261512
0.0716238
0.00222138
0.0705867
0.00184451
0.0698054
0.00147847
0.0691838
0.00112134
0.0686626
0.000773475
0.0682116
0.000436041
0.0678118
0.000110525
0.0674494
-0.000201333
0.0671138
-0.000497364
0.0667964
-0.00077486
0.06649
-0.00103061
0.0661886
-0.00126092
0.0658868
-0.00146165
0.0655805
-0.00162832
0.0652666
-0.00175651
0.0649443
-0.00184286
0.0646204
-0.00188202
0.0548883
-0.00188851
0.0455821
-0.0018733
0.0378834
-0.00184377
0.0315026
-0.00180538
0.0262051
0.0218017
-0.0017626
0.000303682
0.0140796
0.00130974
0.0397257
0.00244894
0.0593783
0.0030628
0.0701233
0.00306859
0.0734834
0.0027498
0.0731992
0.00234866
0.072025
0.00195204
0.0709833
0.00156863
0.0701888
0.00119331
0.0695591
0.000823694
0.0690323
0.000459776
0.0685755
0.000102479
0.0681691
-0.000246887
0.0677987
-0.000586508
0.0674534
-0.000913929
0.0671238
-0.00122611
0.0668022
-0.0015194
0.0664819
-0.00178952
0.0661569
-0.00203161
0.0658226
-0.00224052
0.0654755
-0.00241159
0.0651154
-0.00254203
0.0647509
-0.00262133
0.0549676
-0.00266316
0.0456239
-0.00267706
0.0378973
-0.00266872
0.0314942
-0.00264314
0.0261795
0.0217646
-0.00260607
0.000219712
0.0138599
0.000954307
0.0389911
0.00182662
0.058506
0.00233247
0.0696175
0.00236389
0.0734519
0.00211527
0.0734478
0.00178131
0.0723589
0.00144278
0.0713218
0.00111215
0.0705195
0.000786021
0.0698853
0.000461994
0.0693563
0.000139644
0.0688979
-0.000180651
0.0684894
-0.000497988
0.0681161
-0.000810869
0.0677663
-0.00111727
0.0674302
-0.00141455
0.0670995
-0.0016994
0.0667667
-0.00196777
0.0664253
-0.00221492
0.0660698
-0.00243564
0.0656962
-0.00262536
0.0653051
-0.00278219
0.0649077
-0.0028931
0.0550785
-0.00297133
0.0457021
-0.00302466
0.0379507
-0.0030549
0.0315245
-0.00306234
0.0261869
0.0217531
-0.00305082
0.000162354
0.0136976
0.000706409
0.0384471
0.00137557
0.0578368
0.00178544
0.0692076
0.00182574
0.0734116
0.00163036
0.0736432
0.0013541
0.0726352
0.00106841
0.0716075
0.000786961
0.0708009
0.000507493
0.0701647
0.000227665
0.0696361
-5.33144e-05
0.0691789
-0.000335444
0.0687715
-0.000618198
0.0683988
-0.000900577
0.0680486
-0.00118112
0.0677108
-0.00145779
0.0673762
-0.00172789
0.0670368
-0.0019879
0.0666853
-0.00223348
0.0663153
-0.00245949
0.0659222
-0.00266094
0.0655065
-0.00283503
0.0650818
-0.0029656
0.055209
-0.00306802
0.0458046
-0.00315446
0.0380371
-0.00323004
0.0316
-0.0032927
0.0262496
0.0217896
-0.0033292
0.000124074
0.0135735
0.000535645
0.0380355
0.00105539
0.0573171
0.00138711
0.0688759
0.00142839
0.0733704
0.00127316
0.0737984
0.00104466
0.0728637
0.000804452
0.0718477
0.000565968
0.0710394
0.00032771
0.070403
8.75074e-05
0.0698763
-0.00015564
0.069422
-0.000401975
0.0690178
-0.000651314
0.0686482
-0.000903145
0.0683005
-0.00115657
0.0679642
-0.00141019
0.0676298
-0.00166202
0.0672886
-0.00190933
0.0669326
-0.00214847
0.0665545
-0.00237481
0.0661486
-0.00258308
0.0657148
-0.00276826
0.065267
-0.00290718
0.055348
-0.00301303
0.0459104
-0.00310327
0.0381273
-0.00319237
0.0316892
-0.0032982
0.0263554
0.0219229
-0.00343155
9.41752e-05
0.0134793
0.000413524
0.0377161
0.000825829
0.0569048
0.00109661
0.0686051
0.00113386
0.0733331
0.00100702
0.0739253
0.000816649
0.0730541
0.000615092
0.0720493
0.000413997
0.0712405
0.000211953
0.070605
6.92187e-06
0.0700814
-0.000202048
0.069631
-0.000415376
0.0692312
-0.00063317
0.068866
-0.000855301
0.0685226
-0.00108136
0.0681902
-0.00131056
0.067859
-0.00154165
0.0675197
-0.00177272
0.0671637
-0.00200114
0.0667829
-0.00222349
0.0663709
-0.00243564
0.0659269
-0.00263235
0.0654637
-0.0027831
0.0554987
-0.00288954
0.0460169
-0.00295949
0.0381973
-0.00300332
0.031733
-0.0030392
0.0263913
-0.00320272
0.0220865
0.000146508
0.0219825
0.000188864
0.021985
0.000222271
0.0219939
0.000253321
0.0219963
0.000278544
0.0220021
0.000299225
0.0220067
0.000316864
0.0220097
0.000328178
0.022016
0.000337471
0.0220181
0.000341734
0.0220231
0.000342916
0.0220262
0.000341558
0.0220287
0.000335745
0.0220332
0.000328313
0.0220348
0.000317618
0.0220381
0.000304602
0.0220404
0.000290231
0.0220417
0.000272869
0.0220447
0.000254423
0.0220458
0.000234719
0.0220471
0.000213434
0.0220486
0.000191512
0.0220493
0.000168901
0.02205
0.000145763
0.0220505
0.000122494
0.0220506
9.92617e-05
0.0220506
7.64557e-05
0.0220502
5.40685e-05
0.0220497
3.24228e-05
0.022049
1.21611e-05
0.0220476
-7.22062e-06
0.0220467
-2.48892e-05
0.022045
-4.05411e-05
0.022043
-5.49454e-05
0.0220418
-6.60558e-05
0.0220385
-7.52012e-05
0.0220365
-8.20736e-05
0.0220342
-8.47735e-05
0.0220301
-8.56994e-05
0.0220283
-8.19537e-05
0.0220236
-7.50547e-05
0.0220205
-6.50372e-05
0.0220173
-4.92197e-05
0.0220115
-3.12489e-05
0.0220094
-6.55944e-06
0.0220027
2.15692e-05
0.0219992
5.45053e-05
0.0219944
9.37995e-05
0.0219881
0.0219856
0.000135592
0.000270586
0.0219373
0.000313465
0.0219421
0.000347613
0.0219598
0.00037962
0.0219643
0.000406031
0.0219757
0.000428125
0.0219846
0.000447386
0.0219905
0.000460535
0.0220029
0.000471845
0.0220068
0.000478311
0.0220166
0.000481858
0.0220226
0.000483011
0.0220276
0.000479858
0.0220363
0.000475199
0.0220394
0.000467393
0.0220459
0.000457362
0.0220504
0.000446049
0.022053
0.000431829
0.0220589
0.000416571
0.0220611
0.000400093
0.0220635
0.000382072
0.0220667
0.00036342
0.0220679
0.000344078
0.0220693
0.000324205
0.0220704
0.000304166
0.0220707
0.000284123
0.0220706
0.000264463
0.0220698
0.000245148
0.0220691
0.000226494
0.0220677
0.000209144
0.022065
0.000192561
0.0220633
0.000177579
0.02206
0.000164488
0.0220561
0.000152489
0.0220538
0.00014364
0.0220473
0.000136578
0.0220436
0.0001316
0.0220392
0.000130611
0.022031
0.000131172
0.0220277
0.000136195
0.0220186
0.000144134
0.0220125
0.00015494
0.0220065
0.000171303
0.0219952
0.000189533
0.0219912
0.000214217
0.021978
0.000242034
0.0219714
0.000274338
0.0219621
0.00031266
0.0219497
0.0219451
0.000353111
0.000377704
0.0218914
0.00042147
0.0218984
0.00045675
0.0219245
0.000490122
0.0219309
0.000518136
0.0219477
0.000542059
0.0219607
0.000563358
0.0219692
0.000578758
0.0219875
0.000592499
0.021993
0.00060158
0.0220075
0.000607905
0.0220163
0.000611981
0.0220235
0.000611897
0.0220364
0.000610423
0.0220409
0.000605917
0.0220504
0.000599282
0.022057
0.000591439
0.0220609
0.000580771
0.0220696
0.000569111
0.0220727
0.000556268
0.0220764
0.000541917
0.022081
0.00052694
0.0220829
0.000511271
0.022085
0.000495062
0.0220866
0.00047865
0.0220871
0.00046219
0.0220871
0.000446065
0.0220859
0.000430206
0.0220849
0.000414924
0.0220829
0.000400855
0.022079
0.000387433
0.0220767
0.000375492
0.0220719
0.000365308
0.0220663
0.000356053
0.022063
0.000349801
0.0220536
0.000345151
0.0220482
0.000342392
0.022042
0.000343433
0.02203
0.000345796
0.0220254
0.000352406
0.022012
0.000361688
0.0220032
0.000373579
0.0219946
0.000390776
0.021978
0.000409546
0.0219724
0.000434495
0.021953
0.000462262
0.0219436
0.000494197
0.0219302
0.00053182
0.0219121
0.0219057
0.000571191
0.000464637
0.0218441
0.000509892
0.0218531
0.000546888
0.0218875
0.000582206
0.0218956
0.000612409
0.0219175
0.000638756
0.0219343
0.000662699
0.0219452
0.000680965
0.0219692
0.000697767
0.0219762
0.000710101
0.0219952
0.000719851
0.0220066
0.000727507
0.0220158
0.000731157
0.0220328
0.000733539
0.0220385
0.000733009
0.0220509
0.000730452
0.0220596
0.000726763
0.0220646
0.000720333
0.022076
0.00071296
0.0220801
0.00070444
0.0220849
0.000694447
0.022091
0.000683831
0.0220935
0.000672518
0.0220963
0.00066065
0.0220984
0.000648539
0.0220992
0.000636329
0.0220993
0.000624397
0.0220979
0.000612647
0.0220967
0.000601377
0.0220942
0.000591224
0.0220892
0.000581586
0.0220864
0.000573298
0.0220802
0.000566622
0.022073
0.000560702
0.0220689
0.000557624
0.0220566
0.000555954
0.0220499
0.000555968
0.022042
0.000559584
0.0220264
0.000564281
0.0220207
0.000573003
0.0220033
0.000584142
0.0219921
0.000597625
0.0219812
0.000616157
0.0219594
0.000635964
0.0219526
0.000661671
0.0219273
0.00068988
0.0219154
0.000721934
0.0218981
0.000759349
0.0218747
0.021867
0.000798138
0.000524818
0.0217948
0.000572378
0.0218055
0.000611901
0.021848
0.000649983
0.0218575
0.000683195
0.0218843
0.000712797
0.0219047
0.00074023
0.0219178
0.000762215
0.0219472
0.000782947
0.0219555
0.000799414
0.0219787
0.000813483
0.0219925
0.000825627
0.0220037
0.000833925
0.0220245
0.000841092
0.0220314
0.000845474
0.0220465
0.000847937
0.0220571
0.000849355
0.0220632
0.000848117
0.0220773
0.000845989
0.0220822
0.000842756
0.0220881
0.000838082
0.0220957
0.000832788
0.0220988
0.00082679
0.0221023
0.000820219
0.022105
0.00081336
0.022106
0.000806343
0.0221063
0.000799541
0.0221047
0.000792825
0.0221034
0.000786486
0.0221005
0.000781151
0.0220945
0.00077619
0.0220913
0.000772433
0.022084
0.00077013
0.0220753
0.000768394
0.0220707
0.000769324
0.0220557
0.000771452
0.0220478
0.000775044
0.0220384
0.000782022
0.0220194
0.000789829
0.0220129
0.000801421
0.0219917
0.000815166
0.0219784
0.000830977
0.0219653
0.000851572
0.0219389
0.000873133
0.021931
0.000900315
0.0219001
0.000929681
0.0218861
0.000962571
0.0218652
0.0010005
0.0218368
0.021828
0.00103943
0.000550583
0.0217423
0.000601464
0.0217547
0.000644532
0.0218049
0.000686413
0.0218156
0.000723684
0.021847
0.000757606
0.0218708
0.000789617
0.0218858
0.000816428
0.0219204
0.000842221
0.0219297
0.000863972
0.021957
0.000883529
0.0219729
0.000901352
0.0219859
0.000915505
0.0220103
0.00092868
0.0220182
0.000939213
0.022036
0.000947947
0.0220484
0.000955737
0.0220554
0.00096096
0.022072
0.000965357
0.0220778
0.000968695
0.0220848
0.000970625
0.0220937
0.000971942
0.0220975
0.000972545
0.0221017
0.000972552
0.022105
0.000972222
0.0221064
0.000971667
0.0221069
0.000971251
0.0221051
0.000970817
0.0221038
0.000970639
0.0221007
0.000971338
0.0220938
0.000972251
0.0220904
0.000974204
0.022082
0.00097743
0.022072
0.000981014
0.0220671
0.000987065
0.0220497
0.000994081
0.0220407
0.00100232
0.0220301
0.0010137
0.022008
0.00102563
0.0220009
0.00104109
0.0219762
0.00105842
0.021961
0.00107751
0.0219463
0.00110109
0.0219153
0.00112532
0.0219068
0.00115488
0.0218706
0.00118628
0.0218547
0.00122087
0.0218306
0.00126016
0.0217975
0.0217881
0.00130007
0.000533955
0.0216856
0.000589371
0.0216992
0.000637221
0.0217571
0.000684168
0.0217687
0.000726793
0.0218044
0.000766361
0.0218312
0.00080431
0.0218478
0.000837336
0.0218874
0.000869615
0.0218974
0.000898103
0.0219285
0.000924637
0.0219464
0.000949655
0.0219608
0.000971205
0.0219888
0.00099196
0.0219974
0.00101023
0.0220177
0.00102685
0.0220318
0.00104265
0.0220396
0.00105598
0.0220587
0.00106856
0.0220652
0.00108014
0.0220732
0.00109035
0.0220835
0.00109995
0.0220879
0.00110884
0.0220928
0.0011171
0.0220967
0.00112496
0.0220985
0.00113253
0.0220993
0.00114014
0.0220975
0.00114762
0.0220963
0.00115521
0.0220931
0.00116353
0.0220855
0.00117188
0.0220821
0.00118107
0.0220728
0.00119132
0.0220618
0.00120169
0.0220567
0.00121429
0.0220371
0.00122759
0.0220274
0.00124182
0.0220159
0.00125893
0.0219909
0.00127626
0.0219836
0.00129682
0.0219556
0.00131891
0.0219389
0.00134243
0.0219227
0.00137013
0.0218876
0.0013981
0.0218788
0.00143106
0.0218376
0.0014655
0.0218202
0.00150277
0.0217934
0.00154437
0.0217559
0.0217463
0.00158615
0.000466927
0.0216232
0.000528255
0.0216379
0.000582298
0.021703
0.000635787
0.0217152
0.000685296
0.0217549
0.000732096
0.0217844
0.000777626
0.0218023
0.000818556
0.0218465
0.00085907
0.0218569
0.000896091
0.0218915
0.000931446
0.021911
0.000965554
0.0219267
0.000996433
0.0219579
0.00102674
0.0219671
0.00105477
0.0219897
0.00108132
0.0220052
0.00110719
0.0220137
0.00113073
0.0220352
0.00115362
0.0220424
0.00117557
0.0220513
0.00119621
0.0220629
0.00121626
0.0220678
0.00123559
0.0220735
0.00125425
0.0220781
0.00127247
0.0220803
0.00129029
0.0220815
0.00130805
0.0220797
0.00132553
0.0220789
0.00134296
0.0220757
0.00136093
0.0220675
0.0013787
0.0220643
0.00139708
0.0220545
0.00141627
0.0220426
0.00143528
0.0220377
0.00145623
0.0220161
0.00147755
0.0220061
0.00149945
0.021994
0.0015239
0.0219665
0.00154819
0.0219593
0.00157534
0.0219285
0.00160363
0.0219106
0.00163294
0.0218934
0.00166605
0.0218545
0.001699
0.0218459
0.00173655
0.0218001
0.00177514
0.0217816
0.00181613
0.0217524
0.00186104
0.021711
0.0217017
0.00190563
0.000340723
0.0215537
0.000409561
0.0215691
0.00047151
0.0216411
0.000533307
0.0216534
0.00059149
0.0216967
0.000647382
0.0217285
0.000702439
0.0217472
0.000753302
0.0217956
0.000804164
0.021806
0.000851905
0.0218437
0.000898344
0.0218646
0.000943877
0.0218812
0.000986481
0.0219153
0.00102881
0.0219248
0.00106911
0.0219494
0.00110815
0.0219662
0.00114672
0.0219751
0.00118312
0.0219988
0.001219
0.0220065
0.00125406
0.0220162
0.00128786
0.0220291
0.00132112
0.0220346
0.00135364
0.022041
0.00138548
0.0220462
0.0014168
0.022049
0.00144762
0.0220507
0.00147824
0.0220491
0.0015084
0.0220487
0.00153831
0.0220458
0.00156852
0.0220373
0.00159825
0.0220346
0.0016283
0.0220244
0.00165882
0.0220121
0.00168879
0.0220077
0.00172033
0.0219846
0.00175183
0.0219746
0.00178347
0.0219623
0.00181722
0.0219327
0.00185033
0.0219262
0.00188585
0.021893
0.00192201
0.0218745
0.00195867
0.0218568
0.00199866
0.0218145
0.00203794
0.0218066
0.00208135
0.0217567
0.00212527
0.0217377
0.00217106
0.0217066
0.00222025
0.0216618
0.0216534
0.00226856
0.000144748
0.0214756
0.000222973
0.0214909
0.000294825
0.0215692
0.000366721
0.0215815
0.000435717
0.0216277
0.000503037
0.0216612
0.000570054
0.0216802
0.000633338
0.0217323
0.000697128
0.0217422
0.000758264
0.0217826
0.000818568
0.0218043
0.00087841
0.0218214
0.000935714
0.021858
0.000993134
0.0218674
0.00104886
0.0218937
0.00110363
0.0219114
0.00115822
0.0219205
0.00121084
0.0219462
0.00126316
0.0219542
0.0013148
0.0219646
0.00136528
0.0219786
0.00141529
0.0219846
0.00146458
0.0219917
0.00151315
0.0219977
0.00156112
0.022001
0.00160847
0.0220033
0.00165546
0.0220021
0.00170176
0.0220024
0.00174753
0.022
0.0017933
0.0219915
0.00183824
0.0219896
0.00188309
0.0219796
0.00192799
0.0219672
0.00197184
0.0219639
0.00201677
0.0219396
0.00206111
0.0219303
0.00210501
0.0219184
0.00215046
0.0218873
0.00219462
0.021882
0.00224057
0.021847
0.00228652
0.0218285
0.00233231
0.021811
0.00238079
0.021766
0.00242786
0.0217595
0.00247844
0.0217061
0.00252884
0.0216873
0.00258045
0.021655
0.00263483
0.0216074
0.0216007
0.00268758
-0.000132752
0.021388
-4.44234e-05
0.0214025
3.8374e-05
0.0214864
0.000123428
0.0214965
0.000206163
0.021545
0.000287751
0.0215796
0.000369521
0.0215984
0.000448139
0.0216537
0.000528019
0.0216624
0.000605874
0.0217048
0.000683504
0.0217267
0.000761256
0.0217436
0.000836987
0.0217822
0.000913358
0.021791
0.000988489
0.0218185
0.00106311
0.0218368
0.00113792
0.0218457
0.0012111
0.021873
0.00128426
0.021881
0.00135696
0.0218919
0.00142868
0.0219069
0.00150002
0.0219132
0.00157069
0.021921
0.00164063
0.0219277
0.00170988
0.0219318
0.00177835
0.0219348
0.00184625
0.0219342
0.00191317
0.0219355
0.00197921
0.021934
0.00204486
0.0219259
0.00210917
0.0219253
0.00217286
0.0219159
0.00223601
0.021904
0.00229743
0.0219025
0.00235928
0.0218778
0.00241977
0.0218698
0.00247903
0.0218592
0.00253905
0.0218273
0.00259689
0.0218242
0.00265571
0.0217882
0.00271363
0.0217706
0.00277047
0.0217541
0.00282916
0.0217073
0.0028855
0.0217032
0.00294452
0.0216471
0.00300245
0.0216294
0.00306072
0.0215967
0.00312091
0.0215472
0.021543
0.00317855
-0.000504398
0.0212879
-0.000402424
0.0213006
-0.000305291
0.0213893
-0.000206439
0.0213976
-0.000109036
0.0214476
-1.16054e-05
0.0214822
8.77329e-05
0.0214991
0.000185135
0.0215563
0.000284663
0.0215628
0.000382959
0.0216065
0.000481895
0.0216277
0.000581812
0.0216437
0.000680497
0.0216836
0.000780624
0.0216909
0.000880208
0.0217189
0.000979907
0.0217371
0.00108038
0.0217452
0.00117969
0.0217737
0.0012794
0.0217813
0.00137902
0.0217923
0.00147791
0.021808
0.0015766
0.0218145
0.00167472
0.0218229
0.00177213
0.0218303
0.00186874
0.0218352
0.0019644
0.0218392
0.00205922
0.0218394
0.00215268
0.021842
0.00224478
0.0218419
0.00233595
0.0218347
0.00242509
0.0218362
0.00251288
0.0218281
0.00259931
0.0218176
0.00268306
0.0218187
0.00276629
0.0217945
0.0028471
0.021789
0.00292555
0.0217807
0.00300365
0.0217492
0.00307833
0.0217495
0.00315281
0.0217137
0.00322513
0.0216983
0.00329512
0.0216841
0.00336576
0.0216367
0.00343274
0.0216362
0.00350125
0.0215786
0.00356744
0.0215632
0.0036328
0.0215314
0.00369896
0.021481
0.0214807
0.00376134
-0.000995969
0.0211751
-0.000879659
0.0211842
-0.000766735
0.0212764
-0.000649916
0.0212808
-0.000533047
0.0213307
-0.000414837
0.021364
-0.000294045
0.0213783
-0.000174302
0.0214366
-5.09953e-05
0.0214395
7.2385e-05
0.0214831
0.000197648
0.0215025
0.000325061
0.0215163
0.000452399
0.0215562
0.000582381
0.0215609
0.000712813
0.0215885
0.000844328
0.0216056
0.000977504
0.0216121
0.00111023
0.021641
0.00124401
0.0216475
0.00137821
0.0216581
0.00151211
0.0216741
0.00164613
0.0216805
0.00177975
0.0216892
0.00191272
0.0216974
0.00204483
0.021703
0.00217577
0.0217082
0.00230556
0.0217096
0.00243347
0.0217141
0.00255938
0.021716
0.00268361
0.0217105
0.00280486
0.0217149
0.00292371
0.0217092
0.00304003
0.0217013
0.00315231
0.0217064
0.00326273
0.0216841
0.00336916
0.0216826
0.0034716
0.0216783
0.00357209
0.0216487
0.00366736
0.0216542
0.00376072
0.0216204
0.00385011
0.0216089
0.00393533
0.0215989
0.00401952
0.0215525
0.00409819
0.0215575
0.0041768
0.0215
0.00425137
0.0214886
0.0043235
0.0214592
0.00439496
0.0214096
0.0214146
0.00446101
-0.001637
0.0210495
-0.00150562
0.0210529
-0.00137568
0.0211464
-0.0012397
0.0211448
-0.00110157
0.0211926
-0.000959871
0.0212223
-0.00081304
0.0212315
-0.000664992
0.0212885
-0.000511217
0.0212857
-0.000355489
0.0213273
-0.000196032
0.021343
-3.27451e-05
0.021353
0.000131529
0.0213919
0.000299419
0.021393
0.000469061
0.0214189
0.000641334
0.0214333
0.000816386
0.021437
0.000992041
0.0214653
0.00116972
0.0214698
0.00134864
0.0214791
0.00152794
0.0214948
0.00170788
0.0215006
0.00188779
0.0215093
0.00206727
0.0215179
0.00224588
0.0215244
0.00242312
0.021531
0.00259884
0.0215339
0.00277203
0.0215409
0.00294237
0.0215456
0.00310999
0.0215429
0.00327329
0.0215516
0.0034327
0.0215498
0.00358788
0.0215461
0.00373703
0.0215573
0.00388232
0.0215388
0.00402133
0.0215436
0.00415395
0.0215457
0.00428222
0.0215204
0.00440258
0.0215339
0.0045185
0.0215044
0.00462777
0.0214996
0.00473015
0.0214965
0.00482898
0.0214536
0.0049196
0.0214669
0.00500782
0.0214117
0.00508956
0.0214069
0.00516663
0.0213822
0.005241
0.0213352
0.0213478
0.00530782
-0.00247014
0.0209135
-0.00232474
0.0209075
-0.00217794
0.0209997
-0.00202163
0.0209885
-0.00185963
0.0210306
-0.00169023
0.0210529
-0.00151182
0.0210531
-0.00132866
0.0211054
-0.00113634
0.0210934
-0.000939113
0.0211301
-0.000735533
0.0211394
-0.000525834
0.0211433
-0.000312796
0.0211789
-9.39714e-05
0.0211742
0.000127593
0.0211973
0.000351935
0.021209
0.000581076
0.0212079
0.0008123
0.0212341
0.00104686
0.0212353
0.00128389
0.0212421
0.00152244
0.0212563
0.00176257
0.0212605
0.00200342
0.0212685
0.00224439
0.0212769
0.00248472
0.0212841
0.00272362
0.0212921
0.00296068
0.0212968
0.00319442
0.0213072
0.00342417
0.0213159
0.00364979
0.0213173
0.00386915
0.0213323
0.0040824
0.0213366
0.0042889
0.0213396
0.00448639
0.0213598
0.00467699
0.0213482
0.00485786
0.0213627
0.00502868
0.0213748
0.00519153
0.0213576
0.00534244
0.021383
0.00548506
0.0213618
0.00561696
0.0213677
0.00573789
0.0213756
0.00585147
0.0213401
0.00595278
0.0213656
0.0060482
0.0213163
0.00613363
0.0213214
0.00621125
0.0213045
0.00628341
0.0212631
0.021286
0.00634515
-0.00293889
0.0208016
-0.00281584
0.0207844
-0.00268668
0.0208705
-0.00254203
0.0208438
-0.00238485
0.0208734
-0.00221421
0.0208822
-0.00202981
0.0208687
-0.00183666
0.0209122
-0.00163204
0.0208888
-0.00142063
0.0209187
-0.00120184
0.0209206
-0.000976358
0.0209178
-0.000747031
0.0209496
-0.000511856
0.020939
-0.000272739
0.0209582
-2.91799e-05
0.0209654
0.000217227
0.0209615
0.000466474
0.0209848
0.000720296
0.0209814
0.000977725
0.0209847
0.001238
0.020996
0.00150107
0.0209974
0.00176607
0.0210035
0.00203229
0.0210107
0.00229874
0.0210176
0.00256435
0.0210265
0.00282841
0.0210328
0.00308908
0.0210465
0.00334531
0.0210597
0.00359653
0.0210661
0.00384027
0.0210885
0.0040763
0.0211005
0.00430361
0.0211123
0.00451975
0.0211437
0.00472648
0.0211415
0.00492089
0.0211683
0.00510252
0.0211932
0.00527322
0.0211869
0.00542921
0.021227
0.00557384
0.0212172
0.00570481
0.0212368
0.00582184
0.0212586
0.0059282
0.0212337
0.00601937
0.0212744
0.00610115
0.0212345
0.00616996
0.0212526
0.00622811
0.0212464
0.00627841
0.0212128
0.0212473
0.00631714
-0.00323978
0.0207122
-0.00314881
0.0206934
-0.00304808
0.0207698
-0.00292113
0.0207169
-0.00277013
0.0207224
-0.00259704
0.0207091
-0.00240516
0.0206768
-0.00220183
0.0207089
-0.00198683
0.0206738
-0.0017655
0.0206974
-0.00153802
0.0206932
-0.00130526
0.020685
-0.00106964
0.020714
-0.000829324
0.0206987
-0.000586023
0.0207149
-0.000338995
0.0207184
-8.6811e-05
0.0207093
0.000167699
0.0207303
0.000426898