/*--------------------------------*- C++ -*----------------------------------*\
| =========                 |                                                 |
| \\      /  F ield         | OpenFOAM: The Open Source CFD Toolbox           |
|  \\    /   O peration     | Version:  2312                                  |
|   \\  /    A nd           | Website:  www.openfoam.com                      |
|    \\/     M anipulation  |                                                 |
\*---------------------------------------------------------------------------*/
FoamFile
{
    version     2.0;
    format      ascii;
    arch        "LSB;label=32;scalar=64";
    class       volScalarField;
    location    "59.117954262796587";
    object      p;
}
// * * * * * * * * * * * * * * * * * * * * * * * * * * * * * * * * * * * * * //

dimensions      [0 2 -2 0 0 0 0];

internalField   nonuniform List<scalar> 
21039
(
0.608856
0.475139
0.43284
0.404548
0.383167
0.367011
0.354482
0.344478
0.336314
0.329541
0.32384
0.31898
0.314791
0.311138
0.30792
0.305054
0.30247
0.300113
0.297936
0.295896
0.293959
0.292095
0.290276
0.288586
0.287115
0.285823
0.284665
0.283601
0.282615
0.461854
0.423961
0.410066
0.391656
0.374825
0.36146
0.350619
0.341665
0.334203
0.327922
0.322578
0.317986
0.314002
0.310511
0.307422
0.304662
0.302167
0.299885
0.297771
0.295786
0.293896
0.292071
0.290282
0.288613
0.28715
0.285859
0.284699
0.283636
0.282648
0.372447
0.370025
0.372141
0.365352
0.356845
0.348973
0.34163
0.334995
0.32914
0.324006
0.319504
0.315545
0.31205
0.308946
0.30617
0.303666
0.301387
0.299289
0.297334
0.295488
0.293719
0.292
0.290304
0.288707
0.287294
0.286039
0.284907
0.283865
0.282895
0.334387
0.336489
0.340924
0.339797
0.33712
0.333829
0.32994
0.325919
0.322034
0.318385
0.315017
0.311939
0.309141
0.306598
0.304282
0.302163
0.30021
0.298394
0.296686
0.295059
0.293487
0.291944
0.290407
0.288943
0.287632
0.286456
0.285385
0.28439
0.283456
0.309435
0.313394
0.319256
0.320929
0.321082
0.320291
0.318679
0.316656
0.314443
0.312166
0.309918
0.307758
0.305717
0.303804
0.302021
0.300358
0.298801
0.297333
0.295936
0.29459
0.293274
0.291965
0.290645
0.289366
0.288201
0.287138
0.286154
0.285226
0.28434
0.289881
0.295126
0.302457
0.306298
0.308268
0.309024
0.308889
0.308239
0.307259
0.30607
0.304774
0.303441
0.302115
0.300826
0.299588
0.298407
0.29728
0.296202
0.295159
0.29414
0.293127
0.292102
0.291048
0.29
0.289018
0.288097
0.287225
0.286382
0.285558
0.277215
0.282227
0.289309
0.294237
0.297434
0.299338
0.300307
0.300684
0.300645
0.30032
0.299812
0.299193
0.298513
0.297808
0.297101
0.296404
0.295723
0.295057
0.294401
0.293745
0.293077
0.29238
0.291639
0.290867
0.290106
0.289361
0.288626
0.287889
0.287143
0.270039
0.274129
0.279862
0.284802
0.288495
0.291057
0.292768
0.293894
0.294584
0.294956
0.295106
0.295103
0.294999
0.294833
0.294631
0.294409
0.294178
0.29394
0.293694
0.293432
0.293145
0.292819
0.292438
0.29199
0.291492
0.290958
0.29039
0.289781
0.289131
0.265655
0.268845
0.273209
0.277701
0.281397
0.28419
0.286292
0.287895
0.289105
0.290014
0.290699
0.29122
0.291625
0.291951
0.292225
0.292464
0.29268
0.292878
0.293059
0.293218
0.293346
0.29343
0.293456
0.29338
0.293191
0.292905
0.292536
0.292084
0.291551
0.262402
0.264845
0.268171
0.272138
0.275654
0.278474
0.280755
0.282636
0.284195
0.285499
0.286606
0.287563
0.288411
0.289181
0.289898
0.290579
0.291236
0.291875
0.292497
0.293098
0.293671
0.294205
0.294684
0.295033
0.295198
0.295203
0.295069
0.294802
0.294412
0.259577
0.26142
0.264002
0.267464
0.270751
0.27353
0.275894
0.277946
0.279746
0.281344
0.282785
0.284106
0.285338
0.286509
0.287638
0.288742
0.289831
0.290911
0.291984
0.293047
0.294094
0.295115
0.296096
0.29692
0.297492
0.297834
0.297973
0.29792
0.297694
0.256861
0.258261
0.260317
0.263319
0.266365
0.269073
0.271473
0.273636
0.275612
0.27744
0.279154
0.280784
0.282355
0.283888
0.285403
0.286911
0.288424
0.289945
0.291478
0.293021
0.294567
0.296108
0.297635
0.298989
0.300024
0.300756
0.301215
0.301413
0.301367
0.254089
0.255181
0.256874
0.259482
0.262295
0.264916
0.26732
0.269555
0.271662
0.273674
0.275617
0.277513
0.279386
0.281252
0.283128
0.285026
0.286955
0.288919
0.29092
0.292955
0.29502
0.297107
0.299214
0.301142
0.302689
0.303864
0.304697
0.305199
0.305386
0.251189
0.252068
0.253504
0.255784
0.258384
0.260912
0.263302
0.265581
0.267787
0.269947
0.272082
0.274211
0.276354
0.278528
0.280745
0.28302
0.285359
0.287768
0.290245
0.292783
0.295377
0.29802
0.300718
0.303233
0.305312
0.306961
0.308206
0.309051
0.309505
0.248135
0.248867
0.250104
0.252098
0.254494
0.256925
0.25929
0.261597
0.263878
0.266156
0.268452
0.270783
0.273168
0.275623
0.278163
0.280803
0.283551
0.286407
0.289366
0.29242
0.295552
0.298749
0.302013
0.305068
0.307629
0.309719
0.311371
0.312578
0.313336
0.245183
0.245811
0.246891
0.248674
0.250907
0.253248
0.255581
0.257903
0.260239
0.262609
0.265033
0.267529
0.270116
0.272815
0.275646
0.278622
0.281752
0.285036
0.288466
0.292023
0.295675
0.29938
0.303106
0.306502
0.309275
0.311514
0.313324
0.314737
0.315741
0.242649
0.243209
0.244195
0.245845
0.247956
0.250217
0.252522
0.25486
0.257243
0.259688
0.262215
0.264845
0.267602
0.27051
0.273593
0.276867
0.280342
0.284022
0.287897
0.291937
0.296089
0.300269
0.304368
0.307881
0.310447
0.312227
0.313482
0.314468
0.315398
0.240523
0.241039
0.241961
0.243515
0.245533
0.247743
0.250049
0.252419
0.254854
0.257368
0.259988
0.262739
0.265648
0.268747
0.27206
0.27561
0.279413
0.283476
0.287791
0.292325
0.29701
0.301718
0.306248
0.309853
0.311927
0.312499
0.311832
0.310429
0.309365
0.23879
0.239358
0.240303
0.241764
0.24362
0.24573
0.248036
0.250458
0.252959
0.25555
0.258263
0.261133
0.264193
0.267476
0.271012
0.27483
0.278955
0.283401
0.288166
0.293222
0.298504
0.303868
0.309058
0.313088
0.314939
0.314124
0.310314
0.302952
0.29176
0.281665
0.280708
0.279755
0.278804
0.277854
0.276904
0.275953
0.275002
0.274048
0.273091
0.27213
0.271165
0.270195
0.269219
0.268237
0.267248
0.266252
0.265248
0.264237
0.263218
0.26219
0.261155
0.260111
0.25906
0.258001
0.256935
0.255862
0.254782
0.253696
0.252605
0.25151
0.25041
0.249308
0.248202
0.247095
0.245988
0.244881
0.243775
0.242671
0.241571
0.240475
0.239385
0.238302
0.237226
0.236159
0.235102
0.234056
0.23302
0.231997
0.2817
0.280752
0.279809
0.278868
0.277927
0.276987
0.276045
0.275102
0.274157
0.273208
0.272255
0.271297
0.270333
0.269363
0.268386
0.267402
0.266409
0.265408
0.264399
0.26338
0.262353
0.261317
0.260271
0.259217
0.258155
0.257084
0.256005
0.254919
0.253827
0.252728
0.251624
0.250515
0.249402
0.248287
0.247169
0.24605
0.244932
0.243814
0.242698
0.241585
0.240476
0.239373
0.238276
0.237187
0.236107
0.235037
0.233977
0.232929
0.231894
0.281969
0.281044
0.280122
0.279202
0.278282
0.27736
0.276437
0.275511
0.27458
0.273645
0.272704
0.271757
0.270801
0.269838
0.268866
0.267884
0.266892
0.26589
0.264877
0.263853
0.262818
0.261773
0.260716
0.259649
0.258571
0.257484
0.256387
0.255281
0.254167
0.253045
0.251916
0.250782
0.249642
0.248499
0.247352
0.246203
0.245054
0.243904
0.242756
0.241611
0.240469
0.239332
0.238201
0.237078
0.235963
0.234857
0.233763
0.23268
0.231611
0.282563
0.281673
0.280783
0.279892
0.279
0.278104
0.277203
0.276298
0.275385
0.274466
0.273537
0.272599
0.271651
0.270692
0.269721
0.268737
0.26774
0.26673
0.265707
0.264669
0.263618
0.262553
0.261474
0.260382
0.259277
0.25816
0.257031
0.25589
0.25474
0.253579
0.25241
0.251233
0.25005
0.248861
0.247667
0.24647
0.245271
0.244071
0.242871
0.241673
0.240477
0.239286
0.2381
0.236921
0.235749
0.234587
0.233435
0.232294
0.231167
0.283492
0.282648
0.2818
0.280946
0.280088
0.279223
0.27835
0.277468
0.276576
0.275673
0.274758
0.273829
0.272886
0.271927
0.270953
0.269963
0.268956
0.267931
0.266889
0.265829
0.264752
0.263657
0.262546
0.261417
0.260273
0.259113
0.257938
0.256749
0.255546
0.254332
0.253107
0.251871
0.250627
0.249375
0.248117
0.246854
0.245587
0.244318
0.243048
0.241778
0.24051
0.239244
0.237984
0.236729
0.235481
0.234242
0.233012
0.231793
0.230587
0.284768
0.283982
0.283184
0.282377
0.281561
0.280733
0.279893
0.27904
0.278171
0.277286
0.276383
0.275463
0.274523
0.273563
0.272582
0.271579
0.270555
0.269508
0.26844
0.267349
0.266236
0.265101
0.263944
0.262767
0.261569
0.260353
0.259117
0.257864
0.256595
0.255311
0.254012
0.252701
0.251378
0.250045
0.248704
0.247356
0.246003
0.244645
0.243285
0.241924
0.240563
0.239204
0.237849
0.236499
0.235155
0.233819
0.232491
0.231174
0.229869
0.286425
0.285707
0.28497
0.284219
0.283452
0.282669
0.281867
0.281045
0.280202
0.279337
0.278448
0.277534
0.276595
0.275629
0.274637
0.273616
0.272568
0.271492
0.270388
0.269255
0.268095
0.266908
0.265694
0.264454
0.263189
0.2619
0.260589
0.259255
0.257902
0.256529
0.255139
0.253733
0.252313
0.25088
0.249436
0.247983
0.246522
0.245055
0.243584
0.242111
0.240637
0.239164
0.237693
0.236226
0.234765
0.233311
0.231865
0.230429
0.229007
0.288498
0.287861
0.287196
0.286509
0.2858
0.285067
0.284309
0.283522
0.282708
0.281863
0.280987
0.280079
0.279138
0.278163
0.277153
0.276108
0.275029
0.273914
0.272763
0.271579
0.27036
0.269107
0.267822
0.266505
0.265157
0.26378
0.262375
0.260943
0.259487
0.258007
0.256506
0.254985
0.253446
0.251891
0.250323
0.248742
0.247152
0.245553
0.243949
0.242341
0.24073
0.239119
0.23751
0.235905
0.234304
0.23271
0.231123
0.229548
0.227987
0.291019
0.290473
0.28989
0.289277
0.288635
0.28796
0.28725
0.286504
0.28572
0.284897
0.284034
0.28313
0.282184
0.281195
0.280163
0.279087
0.277968
0.276805
0.2756
0.274351
0.273061
0.27173
0.270359
0.268949
0.267503
0.26602
0.264503
0.262954
0.261375
0.259767
0.258133
0.256474
0.254794
0.253094
0.251377
0.249645
0.2479
0.246145
0.244381
0.242612
0.24084
0.239066
0.237293
0.235523
0.233758
0.231999
0.230248
0.228509
0.226787
0.294003
0.29356
0.293071
0.292544
0.291979
0.29137
0.290715
0.290014
0.289265
0.288466
0.287617
0.286716
0.285763
0.284757
0.283698
0.282586
0.281421
0.280202
0.278932
0.27761
0.276237
0.274815
0.273345
0.271827
0.270265
0.268659
0.267012
0.265326
0.263602
0.261843
0.260053
0.258232
0.256385
0.254512
0.252619
0.250707
0.248778
0.246836
0.244884
0.242924
0.24096
0.238992
0.237025
0.235061
0.233102
0.23115
0.229206
0.227276
0.225368
0.297439
0.297111
0.296715
0.296311
0.295839
0.295302
0.294709
0.294058
0.29335
0.29258
0.291748
0.290854
0.289896
0.288874
0.287788
0.286638
0.285424
0.284146
0.282806
0.281403
0.27994
0.278417
0.276835
0.275197
0.273504
0.271757
0.269961
0.268116
0.266225
0.264291
0.262317
0.260306
0.258261
0.256184
0.254081
0.251954
0.249806
0.247641
0.245463
0.243275
0.241081
0.238882
0.236684
0.234488
0.232299
0.230118
0.227947
0.225794
0.223666
0.301261
0.301093
0.300862
0.300562
0.300182
0.299708
0.299194
0.29862
0.297968
0.297238
0.296435
0.295557
0.294603
0.293575
0.29247
0.291289
0.290031
0.288698
0.287291
0.285808
0.284252
0.282624
0.280924
0.279155
0.277319
0.275416
0.273452
0.271427
0.269343
0.267206
0.265018
0.26278
0.260501
0.25818
0.255824
0.253438
0.251023
0.248588
0.246134
0.243667
0.241193
0.238712
0.236233
0.233757
0.231289
0.228833
0.226389
0.223969
0.221583
0.305467
0.30544
0.305325
0.30514
0.304882
0.304552
0.304146
0.303655
0.303078
0.302404
0.301658
0.300824
0.299904
0.298895
0.297795
0.296607
0.295326
0.293956
0.292498
0.290946
0.289307
0.28758
0.285762
0.28386
0.281874
0.279802
0.277652
0.275425
0.27312
0.270746
0.268304
0.265798
0.263235
0.260616
0.25795
0.255243
0.252497
0.249724
0.246925
0.244109
0.241283
0.238449
0.235619
0.232793
0.22998
0.227184
0.224407
0.221661
0.218963
0.30981
0.309959
0.31001
0.309985
0.309877
0.309687
0.309411
0.309046
0.308595
0.30805
0.30741
0.306668
0.305846
0.304905
0.303864
0.30272
0.301463
0.300096
0.298623
0.297034
0.295336
0.293529
0.291608
0.289579
0.287441
0.285192
0.28284
0.280384
0.277824
0.27517
0.272422
0.269586
0.26667
0.263676
0.260617
0.257499
0.254326
0.251113
0.247865
0.244593
0.241308
0.238014
0.234726
0.231449
0.228193
0.224965
0.221767
0.218617
0.215534
0.313899
0.314246
0.314504
0.314697
0.314816
0.314861
0.314823
0.314698
0.31448
0.314155
0.313724
0.313167
0.312483
0.311681
0.31088
0.309839
0.308668
0.307368
0.305937
0.304363
0.302655
0.300808
0.298813
0.296678
0.294399
0.29197
0.2894
0.286688
0.283831
0.280841
0.277718
0.274467
0.271103
0.267625
0.264051
0.260391
0.25665
0.25285
0.248997
0.24511
0.241203
0.237285
0.233381
0.229495
0.225648
0.22185
0.218106
0.214439
0.210874
0.316544
0.317059
0.317571
0.318119
0.318665
0.319182
0.319627
0.319972
0.320196
0.320276
0.320211
0.31999
0.319618
0.319088
0.318388
0.317533
0.316602
0.315449
0.314149
0.312678
0.311037
0.309219
0.307211
0.30502
0.302636
0.300048
0.297266
0.294285
0.291097
0.28772
0.284152
0.280399
0.276479
0.272394
0.268169
0.263817
0.259346
0.254787
0.25015
0.245459
0.240736
0.235996
0.231274
0.226582
0.221956
0.217416
0.21298
0.208682
0.204556
0.316393
0.316993
0.317947
0.319244
0.320678
0.322097
0.323375
0.324451
0.325296
0.325894
0.326265
0.326409
0.326353
0.326112
0.325681
0.32505
0.324212
0.323423
0.322318
0.321
0.319494
0.317782
0.315839
0.313667
0.311248
0.308561
0.305614
0.302393
0.298887
0.295116
0.291077
0.28678
0.28225
0.27749
0.272536
0.267407
0.262117
0.256707
0.251187
0.245591
0.239942
0.234258
0.22858
0.222927
0.217347
0.211882
0.206581
0.201518
0.19676
0.30902
0.310067
0.313161
0.317033
0.320739
0.323933
0.326508
0.328503
0.330002
0.331072
0.331805
0.332237
0.332431
0.332419
0.332216
0.331846
0.331261
0.330476
0.3299
0.328775
0.32748
0.325974
0.324202
0.322158
0.319804
0.317103
0.314055
0.310635
0.306826
0.302652
0.298108
0.293212
0.288001
0.282484
0.276713
0.270718
0.264523
0.258184
0.251715
0.245159
0.238536
0.231859
0.225161
0.218439
0.211731
0.205071
0.198545
0.19235
0.18677
0.283289
0.293759
0.305716
0.315385
0.32244
0.327413
0.330868
0.333289
0.334995
0.336183
0.337
0.337511
0.337797
0.337897
0.337837
0.33766
0.337346
0.336882
0.336281
0.335556
0.33459
0.333392
0.331898
0.330091
0.32792
0.325317
0.322262
0.318718
0.314657
0.310107
0.305071
0.299573
0.293667
0.287376
0.280771
0.273901
0.266803
0.259554
0.252178
0.244731
0.237236
0.229699
0.222134
0.214488
0.206721
0.198736
0.190444
0.181907
0.173759
0.230995
0.229953
0.22881
0.227552
0.226158
0.224615
0.222952
0.221363
0.219992
0.21887
0.218031
0.217512
0.217349
0.217591
0.218292
0.219514
0.221333
0.223849
0.227187
0.231512
0.237049
0.244109
0.253138
0.264813
0.280232
0.300993
0.328785
0.370612
0.503958
0.230876
0.229816
0.228654
0.22737
0.225943
0.22436
0.222651
0.221011
0.219589
0.218414
0.217519
0.216937
0.216704
0.216866
0.217469
0.21857
0.220238
0.222558
0.225639
0.229617
0.234672
0.24104
0.249027
0.259022
0.271652
0.287853
0.305752
0.319167
0.35672
0.230558
0.229459
0.228249
0.226907
0.225409
0.22374
0.221927
0.220171
0.218628
0.217326
0.216294
0.215561
0.215158
0.215121
0.215486
0.216296
0.2176
0.219455
0.221926
0.225087
0.229017
0.233798
0.239484
0.245994
0.25314
0.261012
0.267262
0.264624
0.266722
0.230054
0.228889
0.227601
0.226166
0.224556
0.222753
0.220779
0.218845
0.217117
0.215619
0.214378
0.213416
0.212752
0.212417
0.21243
0.212814
0.213594
0.21479
0.216418
0.21848
0.22096
0.223802
0.226899
0.229976
0.232554
0.234599
0.235162
0.230199
0.227817
0.229392
0.228136
0.226741
0.225181
0.223422
0.22144
0.219254
0.217088
0.215122
0.213377
0.211874
0.210628
0.209654
0.208964
0.208566
0.208468
0.208668
0.209158
0.209918
0.210908
0.212062
0.213273
0.214408
0.215238
0.21534
0.214571
0.21234
0.205988
0.20181
0.228572
0.227203
0.225676
0.22396
0.222016
0.219814
0.217369
0.214925
0.212679
0.210649
0.208849
0.207289
0.205976
0.204912
0.204095
0.203516
0.20316
0.203
0.202999
0.203101
0.203225
0.20326
0.203071
0.202469
0.201063
0.198509
0.194141
0.186372
0.18096
0.227586
0.22608
0.224393
0.222489
0.220324
0.217862
0.215115
0.212351
0.209789
0.207443
0.205324
0.203435
0.201776
0.200342
0.199122
0.198097
0.197242
0.196523
0.195892
0.195287
0.194624
0.193789
0.192641
0.190995
0.188495
0.184763
0.179358
0.171898
0.166765
0.226419
0.22475
0.222874
0.220749
0.218325
0.215561
0.212469
0.209347
0.206439
0.203757
0.201306
0.199084
0.197087
0.195301
0.193709
0.192287
0.191003
0.189816
0.188675
0.187514
0.186251
0.184779
0.182966
0.180656
0.177571
0.173411
0.168063
0.162025
0.157855
0.225048
0.223188
0.221091
0.218709
0.215986
0.212877
0.209397
0.205882
0.202605
0.199573
0.196788
0.194242
0.191925
0.189818
0.187899
0.186137
0.184498
0.182937
0.181403
0.179834
0.178155
0.176275
0.174092
0.171489
0.168263
0.16419
0.159376
0.154785
0.151549
0.223429
0.221348
0.218995
0.216316
0.213251
0.209753
0.205843
0.201903
0.198239
0.194854
0.191743
0.188892
0.186285
0.183899
0.181705
0.179671
0.177757
0.17592
0.174112
0.172275
0.170347
0.168256
0.165922
0.16326
0.160119
0.156333
0.152138
0.148664
0.146203
0.221495
0.219155
0.216505
0.213484
0.210029
0.206095
0.201714
0.197326
0.193267
0.189534
0.186116
0.182992
0.180137
0.177523
0.175115
0.172883
0.170777
0.168759
0.166782
0.164797
0.162749
0.160581
0.158229
0.155623
0.152655
0.149219
0.145632
0.142976
0.141138
0.219136
0.216494
0.213499
0.210084
0.206186
0.201767
0.196879
0.192025
0.187575
0.183516
0.179825
0.176473
0.173426
0.170648
0.168098
0.165737
0.163523
0.161413
0.159361
0.157323
0.155251
0.153098
0.150811
0.148332
0.145582
0.142521
0.1395
0.13744
0.136067
0.216186
0.213186
0.209788
0.205919
0.201523
0.196573
0.19115
0.185831
0.181015
0.176672
0.172763
0.169247
0.166078
0.16321
0.160597
0.158192
0.155953
0.153833
0.151791
0.149782
0.147765
0.1457
0.143542
0.141241
0.138743
0.136057
0.133541
0.131909
0.130864
0.212356
0.208933
0.205065
0.200679
0.195731
0.190219
0.184263
0.178514
0.173391
0.168838
0.164796
0.161205
0.158005
0.15514
0.152555
0.150197
0.148018
0.145974
0.144021
0.142118
0.140227
0.138311
0.136334
0.13425
0.132025
0.129703
0.127625
0.12631
0.125494
0.207205
0.20328
0.198872
0.193913
0.188386
0.182322
0.175885
0.169798
0.164477
0.159833
0.155779
0.152234
0.149121
0.14637
0.143918
0.141707
0.139684
0.137803
0.136019
0.134294
0.132591
0.130879
0.129123
0.127287
0.125352
0.123389
0.121703
0.120638
0.119976
0.200336
0.195879
0.190938
0.185459
0.179458
0.172998
0.166278
0.16006
0.154739
0.150188
0.14629
0.142943
0.140053
0.137538
0.135328
0.133361
0.131579
0.129934
0.128385
0.126891
0.12542
0.123941
0.122426
0.120848
0.119197
0.117552
0.116181
0.115316
0.114761
0.191947
0.186984
0.181649
0.175879
0.169681
0.163119
0.156405
0.150309
0.145195
0.140908
0.137309
0.134276
0.131705
0.129505
0.127601
0.125927
0.124426
0.123049
0.121755
0.120506
0.119269
0.118017
0.116729
0.115389
0.114001
0.112626
0.111494
0.110777
0.110299
0.181437
0.176265
0.171048
0.16548
0.159489
0.153146
0.146694
0.14092
0.136166
0.132261
0.129052
0.126404
0.124203
0.122355
0.120783
0.119419
0.118209
0.117105
0.116065
0.115055
0.114041
0.112995
0.111901
0.110759
0.109591
0.108451
0.107524
0.106937
0.106523
0.167391
0.163521
0.159553
0.154783
0.149356
0.143465
0.137448
0.132127
0.127827
0.124373
0.1216
0.119365
0.117551
0.116063
0.114821
0.113763
0.112833
0.111987
0.111185
0.110393
0.109579
0.10871
0.107775
0.106816
0.105903
0.105058
0.104337
0.103802
0.10337
0.237002
0.237353
0.238119
0.239606
0.241658
0.243979
0.24642
0.248915
0.251472
0.254134
0.256944
0.259941
0.263158
0.266631
0.270396
0.274486
0.278933
0.283759
0.288968
0.294541
0.300418
0.306456
0.312365
0.317003
0.31899
0.317148
0.309968
0.295113
0.264283
0.23521
0.235683
0.236566
0.238045
0.240017
0.242269
0.24468
0.247192
0.249807
0.252561
0.255491
0.258632
0.26202
0.265696
0.269699
0.27407
0.278848
0.284064
0.289738
0.29587
0.302444
0.309384
0.316485
0.32269
0.326705
0.327798
0.325406
0.321358
0.325571
0.233368
0.233923
0.234893
0.23637
0.238277
0.240458
0.24282
0.245324
0.247974
0.250795
0.253819
0.257078
0.260612
0.264463
0.268679
0.273309
0.278405
0.284017
0.290191
0.29698
0.304455
0.312717
0.32188
0.331346
0.340303
0.34888
0.357418
0.364658
0.381127
0.231449
0.231984
0.232929
0.234394
0.23631
0.238501
0.240866
0.243375
0.246048
0.248916
0.252008
0.25536
0.259013
0.263013
0.267415
0.27228
0.277672
0.283664
0.290342
0.297819
0.306276
0.316045
0.327654
0.340958
0.355481
0.371299
0.389157
0.405752
0.427066
0.229456
0.229957
0.230853
0.232289
0.234208
0.236417
0.238795
0.241315
0.244008
0.246908
0.250052
0.253476
0.257224
0.261347
0.265906
0.270971
0.276622
0.282952
0.290082
0.29819
0.307548
0.318689
0.332513
0.349007
0.367983
0.389267
0.412869
0.437113
0.463811
0.227388
0.227873
0.228737
0.230137
0.232027
0.23422
0.23659
0.23911
0.241809
0.244727
0.247902
0.251374
0.255188
0.259401
0.264076
0.269293
0.275143
0.281737
0.289217
0.297827
0.307862
0.320002
0.335418
0.353749
0.375067
0.399332
0.426992
0.456494
0.485924
0.225242
0.225716
0.226559
0.227919
0.22976
0.231911
0.23425
0.236747
0.239434
0.242348
0.245529
0.249018
0.252863
0.257121
0.261861
0.267167
0.273139
0.279897
0.287581
0.296514
0.306902
0.319524
0.335348
0.355462
0.378246
0.403183
0.429934
0.4575
0.485165
0.22301
0.223473
0.224291
0.225606
0.227388
0.229482
0.231771
0.234227
0.236878
0.239762
0.242919
0.24639
0.250224
0.254478
0.259225
0.264546
0.270545
0.277357
0.285057
0.294107
0.304382
0.317313
0.333552
0.353633
0.375816
0.399252
0.423144
0.447027
0.470705
0.22069
0.221141
0.221931
0.223194
0.224905
0.226928
0.229151
0.231545
0.234137
0.236963
0.240064
0.243479
0.247257
0.251454
0.256141
0.261397
0.267319
0.274071
0.281557
0.290416
0.300846
0.31346
0.329135
0.347823
0.367932
0.388665
0.409292
0.429547
0.448728
0.218281
0.21872
0.21948
0.220684
0.222314
0.224249
0.226386
0.228697
0.231205
0.233946
0.236956
0.240276
0.243951
0.248035
0.252594
0.257702
0.263429
0.269932
0.277298
0.285798
0.29581
0.307626
0.32197
0.338553
0.355897
0.373299
0.390215
0.406667
0.42168
0.215779
0.216205
0.216932
0.218071
0.219609
0.221443
0.223478
0.225685
0.228085
0.230711
0.233598
0.236784
0.240309
0.244222
0.248587
0.253464
0.258939
0.265129
0.272136
0.280102
0.289298
0.299975
0.31259
0.326703
0.340964
0.354746
0.367681
0.380084
0.391117
0.213185
0.213598
0.21429
0.215359
0.216797
0.218516
0.22043
0.222511
0.224779
0.227262
0.229994
0.233007
0.236337
0.240028
0.244136
0.248729
0.253863
0.259629
0.26609
0.27335
0.281553
0.290889
0.301569
0.313036
0.324138
0.33437
0.343524
0.352079
0.359463
0.210504
0.210908
0.211566
0.212561
0.213887
0.215473
0.217245
0.219179
0.221289
0.223603
0.226148
0.228951
0.232044
0.235467
0.239266
0.243499
0.248202
0.253441
0.259242
0.265672
0.272783
0.280665
0.289329
0.298168
0.306281
0.313323
0.319237
0.324547
0.328911
0.207734
0.208124
0.208742
0.209658
0.210867
0.212312
0.213931
0.2157
0.217632
0.219751
0.222079
0.22464
0.227461
0.230572
0.234011
0.237817
0.242017
0.246652
0.251718
0.257239
0.2632
0.269594
0.276295
0.282714
0.288213
0.292611
0.295974
0.298811
0.300974
0.204881
0.205259
0.205837
0.20667
0.207754
0.209049
0.210499
0.212086
0.21382
0.215723
0.217811
0.220103
0.222617
0.225378
0.228412
0.231742
0.235387
0.239361
0.243641
0.248211
0.253005
0.257954
0.262847
0.267167
0.270525
0.272876
0.274372
0.275498
0.27628
0.201952
0.202319
0.202857
0.203604
0.204558
0.205691
0.206961
0.208348
0.209869
0.211537
0.213365
0.215362
0.217542
0.219919
0.222509
0.225325
0.228372
0.231645
0.235103
0.238703
0.24235
0.24594
0.249225
0.251795
0.253485
0.254358
0.254603
0.254686
0.254794
0.19895
0.199305
0.1998
0.200457
0.201279
0.202247
0.203331
0.204506
0.2058
0.207222
0.208772
0.210455
0.212277
0.214244
0.216362
0.218635
0.221053
0.223597
0.226217
0.228851
0.231394
0.233731
0.235612
0.236767
0.237223
0.237119
0.236628
0.236196
0.236164
0.195886
0.19623
0.196679
0.197248
0.197935
0.198734
0.19963
0.20057
0.201641
0.202803
0.204062
0.205416
0.206863
0.208403
0.210031
0.21174
0.213511
0.215314
0.217091
0.218774
0.220263
0.221449
0.222112
0.222139
0.221722
0.221037
0.220191
0.219607
0.219774
0.192768
0.193103
0.193511
0.193991
0.19454
0.195163
0.195846
0.196589
0.197412
0.198305
0.199263
0.200279
0.201342
0.202443
0.203569
0.204702
0.205816
0.206871
0.207808
0.208557
0.209031
0.209145
0.208729
0.207838
0.206808
0.205821
0.204877
0.204372
0.204946
0.189604
0.189929
0.19029
0.190683
0.191094
0.191544
0.19203
0.192557
0.193136
0.193758
0.194414
0.195088
0.195762
0.19642
0.19704
0.197595
0.198052
0.198362
0.198465
0.198295
0.197782
0.19687
0.195456
0.193773
0.192295
0.191192
0.190325
0.190052
0.191162
0.186404
0.186722
0.187036
0.187347
0.187614
0.187896
0.188195
0.188502
0.188839
0.189195
0.18955
0.189884
0.190173
0.190391
0.190511
0.190496
0.190304
0.189881
0.189165
0.188091
0.186606
0.184684
0.182292
0.179851
0.177987
0.176856
0.176153
0.176196
0.177929
0.183179
0.183494
0.183758
0.184005
0.1841
0.184256
0.184355
0.184446
0.184548
0.184641
0.184703
0.184705
0.184617
0.184406
0.184037
0.183467
0.182643
0.181508
0.179991
0.178029
0.175576
0.172629
0.169213
0.165941
0.163629
0.162444
0.161903
0.162281
0.164706
0.179939
0.180258
0.180467
0.180618
0.180651
0.180621
0.180523
0.180408
0.180283
0.180124
0.179903
0.179584
0.179133
0.17851
0.177671
0.176567
0.175138
0.173315
0.171024
0.168193
0.164774
0.160766
0.156225
0.151937
0.148962
0.147538
0.147022
0.147664
0.150825
0.176696
0.176998
0.177182
0.177262
0.177182
0.176986
0.176712
0.176407
0.17607
0.175674
0.175184
0.174562
0.173766
0.172751
0.171468
0.169858
0.167855
0.165381
0.162352
0.158684
0.154311
0.149211
0.143426
0.137866
0.13387
0.131832
0.131001
0.13169
0.135563
0.173462
0.173752
0.173919
0.17393
0.173729
0.173381
0.172944
0.172461
0.171929
0.171313
0.170575
0.16967
0.168553
0.167173
0.165477
0.163398
0.160863
0.157785
0.154069
0.149615
0.14433
0.138143
0.131028
0.123923
0.118432
0.115166
0.113345
0.113612
0.11812
0.170243
0.170521
0.170655
0.170591
0.170283
0.169804
0.169226
0.16859
0.167886
0.167074
0.16611
0.164945
0.163533
0.16182
0.159745
0.157239
0.154219
0.150592
0.14625
0.141077
0.134952
0.127745
0.119321
0.110543
0.103162
0.0979373
0.0940432
0.0929695
0.0980012
0.167071
0.167389
0.167547
0.167434
0.167001
0.166347
0.165594
0.164801
0.163943
0.162961
0.161798
0.160406
0.158733
0.156725
0.154318
0.151435
0.147991
0.143883
0.138995
0.1332
0.126353
0.118254
0.108618
0.0981512
0.0886541
0.0809289
0.0738207
0.0692911
0.0730274
0.132647
0.112472
0.0847762
0.0489677
0.00844959
-0.0320553
-0.0688259
-0.102821
-0.133987
-0.166458
-0.199781
-0.237038
-0.275233
-0.310925
-0.339759
-0.358938
-0.368572
-0.371152
-0.370736
0.139678
0.123773
0.0974369
0.0609958
0.0172316
-0.0300474
-0.0761871
-0.122403
-0.166127
-0.213469
-0.260806
-0.308474
-0.35413
-0.394103
-0.42484
-0.445047
-0.456126
-0.460979
-0.46272
0.133984
0.119264
0.0945196
0.058165
0.012381
-0.0400413
-0.0934614
-0.151507
-0.209209
-0.267104
-0.324629
-0.380693
-0.432318
-0.475885
-0.508692
-0.530406
-0.543008
-0.549454
-0.552589
0.122432
0.108288
0.0856206
0.050209
0.0019351
-0.0553335
-0.117523
-0.183062
-0.250168
-0.317817
-0.384946
-0.449369
-0.507197
-0.554539
-0.589244
-0.611903
-0.625315
-0.632738
-0.636852
0.108134
0.094945
0.0734998
0.0384643
-0.0112336
-0.0716617
-0.139382
-0.211729
-0.287238
-0.364338
-0.44043
-0.511932
-0.574231
-0.623619
-0.658954
-0.681914
-0.695968
-0.704345
-0.709311
0.0887256
0.0760545
0.0559464
0.022054
-0.0276073
-0.0897407
-0.161105
-0.239482
-0.322495
-0.407446
-0.490477
-0.566884
-0.631791
-0.682177
-0.718031
-0.741829
-0.757339
-0.767511
-0.774167
0.0646166
0.0510859
0.0315063
-0.0012145
-0.0501784
-0.11301
-0.186742
-0.26918
-0.357172
-0.446881
-0.533356
-0.611051
-0.675215
-0.723816
-0.757952
-0.780719
-0.796021
-0.806392
-0.813285
0.037263
0.0216917
0.00121695
-0.0314074
-0.0799319
-0.14278
-0.217357
-0.301325
-0.391112
-0.482069
-0.568387
-0.644134
-0.705183
-0.75067
-0.782601
-0.804313
-0.819491
-0.830093
-0.837317
0.00774124
-0.0104119
-0.0329156
-0.0667194
-0.115462
-0.177967
-0.252019
-0.3353
-0.424001
-0.512871
-0.595566
-0.666316
-0.721994
-0.762873
-0.79156
-0.811379
-0.825677
-0.83591
-0.842942
-0.0230589
-0.0437935
-0.0688378
-0.104624
-0.154161
-0.216234
-0.288901
-0.369979
-0.455531
-0.539934
-0.61674
-0.680828
-0.730259
-0.766266
-0.791782
-0.809936
-0.823661
-0.834034
-0.841545
-0.0541217
-0.0771587
-0.104782
-0.142825
-0.193525
-0.255289
-0.326213
-0.404088
-0.484751
-0.562332
-0.630722
-0.685922
-0.727297
-0.756851
-0.77761
-0.792401
-0.803674
-0.812267
-0.818451
-0.0842179
-0.109104
-0.138983
-0.179035
-0.230817
-0.292193
-0.361057
-0.434985
-0.509566
-0.579022
-0.638123
-0.684281
-0.718017
-0.741753
-0.758326
-0.770118
-0.779045
-0.78583
-0.79062
-0.112202
-0.138408
-0.170006
-0.211449
-0.26379
-0.324363
-0.390783
-0.460362
-0.528559
-0.590009
-0.640603
-0.679065
-0.706711
-0.726066
-0.739651
-0.749441
-0.756949
-0.76288
-0.767187
-0.137262
-0.164312
-0.197085
-0.239234
-0.291473
-0.35068
-0.414155
-0.478873
-0.540252
-0.593585
-0.636032
-0.667478
-0.689745
-0.70526
-0.71617
-0.724071
-0.730125
-0.734981
-0.738478
-0.158865
-0.186382
-0.219853
-0.262075
-0.31354
-0.37075
-0.430721
-0.490164
-0.544682
-0.590478
-0.625962
-0.651889
-0.670278
-0.683287
-0.69265
-0.699603
-0.705019
-0.70946
-0.712684
-0.176858
-0.204611
-0.238427
-0.280253
-0.330419
-0.385144
-0.441271
-0.495417
-0.543592
-0.582976
-0.613001
-0.634951
-0.65082
-0.662443
-0.671193
-0.678014
-0.683587
-0.688349
-0.691941
-0.191459
-0.219396
-0.253401
-0.294612
-0.343197
-0.395093
-0.447017
-0.495638
-0.537604
-0.571139
-0.596525
-0.615313
-0.629305
-0.639971
-0.648343
-0.655111
-0.660799
-0.665695
-0.669401
-0.202967
-0.231201
-0.26542
-0.306025
-0.352977
-0.401911
-0.449512
-0.492716
-0.529003
-0.557593
-0.579363
-0.595907
-0.608735
-0.618954
-0.627288
-0.634204
-0.640102
-0.64515
-0.648959
-0.211744
-0.240547
-0.275201
-0.315464
-0.361016
-0.407174
-0.4507
-0.488972
-0.520367
-0.544937
-0.563913
-0.578797
-0.590797
-0.600709
-0.609012
-0.616014
-0.622023
-0.627138
-0.630994
-0.218165
-0.247971
-0.283504
-0.32395
-0.368525
-0.412083
-0.451534
-0.484939
-0.51172
-0.532682
-0.549235
-0.562662
-0.573835
-0.583264
-0.59124
-0.597957
-0.60367
-0.608453
-0.612006
-0.222346
-0.253753
-0.29083
-0.332248
-0.376487
-0.417782
-0.453301
-0.482046
-0.504579
-0.522341
-0.536775
-0.548879
-0.559203
-0.568022
-0.575482
-0.581706
-0.586905
-0.591168
-0.594285
-0.224269
-0.258062
-0.297585
-0.340993
-0.385652
-0.425009
-0.456638