/*--------------------------------*- C++ -*----------------------------------*\
| =========                 |                                                 |
| \\      /  F ield         | OpenFOAM: The Open Source CFD Toolbox           |
|  \\    /   O peration     | Version:  2312                                  |
|   \\  /    A nd           | Website:  www.openfoam.com                      |
|    \\/     M anipulation  |                                                 |
\*---------------------------------------------------------------------------*/
FoamFile
{
    version     2.0;
    format      ascii;
    arch        "LSB;label=32;scalar=64";
    class       volScalarField;
    location    "97.426881508884023";
    object      p;
}
// * * * * * * * * * * * * * * * * * * * * * * * * * * * * * * * * * * * * * //

dimensions      [0 2 -2 0 0 0 0];

internalField   nonuniform List<scalar> 
21039
(
0.602668
0.468955
0.426668
0.398402
0.377054
0.36094
0.348464
0.338522
0.330433
0.323746
0.318143
0.313396
0.309331
0.305818
0.302755
0.300058
0.29766
0.295505
0.293546
0.291742
0.290059
0.288465
0.286933
0.285527
0.284306
0.28323
0.282258
0.281355
0.280505
0.455659
0.417759
0.403879
0.385496
0.368697
0.355373
0.344583
0.335691
0.328302
0.322107
0.316861
0.312379
0.308519
0.305167
0.302232
0.29964
0.29733
0.295249
0.293354
0.291605
0.289968
0.288413
0.286913
0.285527
0.284314
0.283241
0.282269
0.281366
0.280515
0.366211
0.363785
0.365917
0.359155
0.350677
0.342844
0.33555
0.328975
0.323192
0.318141
0.313734
0.309884
0.30651
0.303543
0.300918
0.298581
0.296485
0.294587
0.292849
0.291238
0.289722
0.288273
0.286866
0.285554
0.284393
0.283357
0.282414
0.281535
0.280704
0.328092
0.330196
0.334643
0.333538
0.330886
0.327632
0.323791
0.319828
0.316011
0.312441
0.309164
0.306191
0.303511
0.301101
0.298933
0.296977
0.295204
0.293586
0.292093
0.290699
0.289379
0.288107
0.28686
0.285683
0.284627
0.283673
0.282793
0.281963
0.281169
0.303071
0.307034
0.312902
0.314588
0.314763
0.314006
0.312437
0.310468
0.308318
0.306116
0.303955
0.301895
0.299967
0.298182
0.296541
0.295037
0.293656
0.292382
0.291197
0.290082
0.289016
0.287978
0.28695
0.285961
0.285053
0.284215
0.283427
0.282666
0.281924
0.283429
0.28868
0.296012
0.29986
0.301847
0.302632
0.302534
0.301933
0.30101
0.29989
0.298675
0.297435
0.296216
0.295047
0.293945
0.292916
0.29196
0.291069
0.290234
0.289442
0.288678
0.287924
0.287163
0.286408
0.285687
0.284996
0.284323
0.28365
0.282975
0.270655
0.275675
0.282755
0.287685
0.290893
0.29282
0.293821
0.294239
0.294251
0.293988
0.293552
0.293018
0.292435
0.291842
0.291262
0.290708
0.290189
0.289704
0.289249
0.288816
0.288393
0.287965
0.287519
0.287042
0.286547
0.286036
0.285505
0.284943
0.28435
0.263355
0.267453
0.273183
0.278121
0.281821
0.284399
0.286134
0.287294
0.288026
0.28845
0.288662
0.288733
0.288716
0.28865
0.288563
0.288474
0.288393
0.288326
0.288272
0.288226
0.288179
0.288119
0.288032
0.287882
0.287655
0.287359
0.287
0.286573
0.28608
0.258832
0.26203
0.266392
0.270879
0.274577
0.27738
0.279499
0.281126
0.282368
0.283317
0.284051
0.284633
0.28511
0.285522
0.285896
0.286252
0.286605
0.28696
0.287321
0.287685
0.288045
0.28839
0.288708
0.288932
0.289018
0.288978
0.288824
0.288558
0.288186
0.255433
0.25788
0.261204
0.265166
0.268681
0.271504
0.273792
0.275688
0.277266
0.278597
0.279738
0.280739
0.281642
0.282479
0.283278
0.284058
0.284832
0.28561
0.286395
0.287186
0.287979
0.288765
0.289533
0.290181
0.290626
0.290884
0.290973
0.290899
0.290673
0.252457
0.254302
0.256881
0.260338
0.26362
0.266395
0.268758
0.270812
0.272617
0.274226
0.275684
0.277029
0.278294
0.27951
0.280697
0.281875
0.283058
0.284253
0.285467
0.286699
0.287947
0.289205
0.290464
0.291585
0.29244
0.29304
0.293416
0.293571
0.293522
0.249592
0.25099
0.253043
0.25604
0.259078
0.261775
0.264164
0.266315
0.26828
0.2701
0.271809
0.27344
0.275018
0.276569
0.278113
0.279666
0.281241
0.282847
0.28449
0.286172
0.287893
0.289649
0.291436
0.293077
0.294391
0.295382
0.296076
0.296489
0.296644
0.246684
0.247769
0.249455
0.252056
0.254858
0.257461
0.259842
0.26205
0.264128
0.26611
0.268024
0.269893
0.271743
0.273594
0.275464
0.277369
0.279321
0.28133
0.2834
0.285537
0.28774
0.290009
0.292348
0.294542
0.296356
0.297783
0.298847
0.299557
0.299931
0.243664
0.244532
0.245957
0.248227
0.25081
0.253312
0.255666
0.257902
0.260059
0.262164
0.264242
0.266312
0.268397
0.270516
0.272685
0.27492
0.277234
0.279636
0.282132
0.284721
0.287405
0.290185
0.293073
0.295823
0.29815
0.300041
0.301514
0.30257
0.303217
0.240515
0.241233
0.242452
0.24443
0.246804
0.249199
0.251514
0.25376
0.255968
0.258166
0.260372
0.262608
0.264894
0.267248
0.269689
0.272234
0.274897
0.277684
0.280599
0.283638
0.286796
0.290068
0.293466
0.296711
0.29949
0.301804
0.303676
0.305091
0.306043
0.237505
0.238113
0.239171
0.240932
0.243135
0.24543
0.2477
0.249943
0.252184
0.254445
0.256747
0.25911
0.261556
0.264105
0.266781
0.269602
0.272583
0.275729
0.27904
0.282506
0.286105
0.289808
0.293595
0.297121
0.300068
0.302502
0.304514
0.306123
0.307317
0.234945
0.235483
0.236441
0.238063
0.240138
0.242345
0.244575
0.246817
0.249084
0.251396
0.253773
0.256236
0.258811
0.261523
0.2644
0.267462
0.270725
0.274199
0.277879
0.281749
0.285766
0.28986
0.293938
0.29751
0.300197
0.302135
0.303567
0.304733
0.30584
0.232817
0.233309
0.234197
0.235718
0.237693
0.239842
0.242062
0.244323
0.246626
0.248986
0.25143
0.253983
0.256675
0.259537
0.262598
0.265884
0.269416
0.273206
0.277255
0.281541
0.286008
0.290544
0.294966
0.298554
0.300691
0.30138
0.30086
0.299617
0.298717
0.231096
0.231638
0.232545
0.233967
0.235776
0.237819
0.24003
0.242331
0.244685
0.247104
0.249619
0.252266
0.255077
0.258088
0.261331
0.264838
0.268637
0.27275
0.277183
0.281917
0.286901
0.292007
0.297001
0.300933
0.302784
0.302045
0.298361
0.291151
0.280089
0.279682
0.278853
0.278029
0.27721
0.276393
0.275577
0.274763
0.273948
0.273133
0.272316
0.271496
0.270673
0.269847
0.269015
0.268178
0.267336
0.266487
0.265631
0.264768
0.263897
0.263019
0.262134
0.261241
0.26034
0.259432
0.258516
0.257594
0.256665
0.25573
0.25479
0.253844
0.252894
0.251941
0.250984
0.250025
0.249065
0.248104
0.247144
0.246185
0.245229
0.244276
0.243328
0.242385
0.241449
0.24052
0.2396
0.238689
0.237788
0.236897
0.279695
0.278876
0.278063
0.277253
0.276446
0.275641
0.274836
0.274031
0.273225
0.272416
0.271605
0.27079
0.269971
0.269146
0.268315
0.267478
0.266633
0.265781
0.264921
0.264052
0.263176
0.26229
0.261396
0.260494
0.259583
0.258664
0.257737
0.256803
0.255862
0.254915
0.253962
0.253004
0.252042
0.251076
0.250107
0.249137
0.248166
0.247195
0.246225
0.245257
0.244292
0.243331
0.242376
0.241427
0.240485
0.239552
0.238629
0.237716
0.236813
0.279905
0.279111
0.278321
0.277534
0.276749
0.275964
0.275179
0.274393
0.273604
0.272811
0.272014
0.271212
0.270403
0.269587
0.268763
0.267931
0.26709
0.266239
0.265378
0.264507
0.263625
0.262733
0.26183
0.260917
0.259994
0.259062
0.258119
0.257168
0.256208
0.255241
0.254266
0.253285
0.252299
0.251307
0.250313
0.249315
0.248315
0.247315
0.246316
0.245317
0.244322
0.243329
0.242342
0.241361
0.240387
0.239421
0.238464
0.237518
0.236583
0.280407
0.279649
0.278894
0.278139
0.277384
0.276627
0.275868
0.275105
0.274338
0.273564
0.272783
0.271994
0.271196
0.270388
0.269569
0.268738
0.267896
0.267042
0.266174
0.265293
0.264399
0.263492
0.262572
0.261639
0.260693
0.259734
0.258764
0.257783
0.256791
0.255789
0.254778
0.253759
0.252733
0.2517
0.250662
0.249621
0.248575
0.247529
0.246481
0.245433
0.244388
0.243345
0.242306
0.241272
0.240245
0.239225
0.238214
0.237212
0.236222
0.281209
0.280501
0.27979
0.279076
0.278359
0.277638
0.27691
0.276175
0.275432
0.274679
0.273916
0.273141
0.272352
0.27155
0.270734
0.269902
0.269055
0.268191
0.26731
0.266413
0.265499
0.264568
0.263621
0.262657
0.261677
0.260682
0.259672
0.258648
0.257611
0.256561
0.255499
0.254428
0.253347
0.252257
0.25116
0.250058
0.24895
0.24784
0.246727
0.245613
0.2445
0.243388
0.242279
0.241174
0.240075
0.238982
0.237897
0.236821
0.235756
0.282321
0.281674
0.281019
0.280356
0.279686
0.279007
0.278317
0.277616
0.276901
0.276173
0.275428
0.274667
0.273889
0.273091
0.272275
0.271438
0.270581
0.269702
0.268802
0.267881
0.266939
0.265975
0.26499
0.263985
0.26296
0.261916
0.260853
0.259773
0.258676
0.257564
0.256437
0.255297
0.254145
0.252982
0.25181
0.25063
0.249443
0.24825
0.247054
0.245856
0.244656
0.243457
0.24226
0.241066
0.239876
0.238692
0.237514
0.236345
0.235187
0.283772
0.283199
0.28261
0.282008
0.281393
0.280764
0.28012
0.279457
0.278775
0.278074
0.27735
0.276604
0.275835
0.27504
0.27422
0.273374
0.272502
0.271603
0.270676
0.269723
0.268743
0.267736
0.266704
0.265646
0.264563
0.263457
0.262328
0.261177
0.260005
0.258815
0.257606
0.256381
0.255141
0.253887
0.252621
0.251344
0.250059
0.248766
0.247468
0.246166
0.244861
0.243555
0.24225
0.240946
0.239646
0.238351
0.237062
0.23578
0.23451
0.285592
0.285106
0.284595
0.284065
0.283515
0.282944
0.28235
0.281732
0.281087
0.280415
0.279714
0.278983
0.278221
0.277427
0.276601
0.275741
0.274848
0.273921
0.272961
0.271967
0.270939
0.269879
0.268787
0.267664
0.266511
0.265328
0.264118
0.262881
0.261618
0.260332
0.259024
0.257696
0.256349
0.254985
0.253605
0.252213
0.250809
0.249396
0.247974
0.246547
0.245116
0.243682
0.242248
0.240814
0.239383
0.237956
0.236534
0.235121
0.23372
0.287806
0.28742
0.286999
0.286551
0.286076
0.285571
0.285035
0.284466
0.283863
0.283224
0.282547
0.281831
0.281076
0.280281
0.279445
0.278568
0.277648
0.276688
0.275685
0.274642
0.273558
0.272434
0.271271
0.27007
0.268832
0.267559
0.266251
0.264912
0.263541
0.262142
0.260716
0.259264
0.25779
0.256295
0.254781
0.25325
0.251705
0.250148
0.24858
0.247004
0.245423
0.243838
0.242251
0.240664
0.239079
0.237497
0.23592
0.234352
0.232798
0.29042
0.290146
0.289828
0.289474
0.289085
0.288656
0.288187
0.287675
0.287118
0.286516
0.285867
0.285169
0.284422
0.283625
0.282778
0.28188
0.280931
0.279931
0.278881
0.277782
0.276632
0.275435
0.27419
0.2729
0.271565
0.270186
0.268767
0.267308
0.265811
0.264279
0.262714
0.261118
0.259494
0.257843
0.25617
0.254476
0.252763
0.251035
0.249294
0.247542
0.245783
0.244018
0.242251
0.240482
0.238716
0.236953
0.235194
0.233447
0.231716
0.293416
0.293265
0.293063
0.292818
0.292528
0.292189
0.291797
0.291351
0.290851
0.290294
0.289678
0.289004
0.28827
0.287476
0.28662
0.285704
0.284726
0.283687
0.282588
0.281429
0.280211
0.278934
0.2776
0.276211
0.274767
0.27327
0.271724
0.270129
0.268486
0.266801
0.265075
0.263309
0.261509
0.259675
0.257812
0.255924
0.254011
0.252079
0.25013
0.248168
0.246197
0.244217
0.242235
0.24025
0.238268
0.23629
0.234317
0.232358
0.23042
0.296735
0.296754
0.296633
0.296522
0.296358
0.296125
0.295825
0.295462
0.295034
0.294538
0.293972
0.293336
0.292629
0.29185
0.290999
0.290075
0.289078
0.288009
0.286868
0.285654
0.28437
0.283015
0.281589
0.280097
0.278537
0.276912
0.275224
0.273477
0.271669
0.269807
0.267893
0.265928
0.263919
0.261866
0.259776
0.257653
0.255497
0.253318
0.251116
0.248897
0.246666
0.244424
0.242179
0.239932
0.237689
0.235452
0.233222
0.23101
0.228827
0.3002
0.300385
0.300499
0.300544
0.300513
0.300416
0.300176
0.299936
0.299614
0.299207
0.298721
0.298153
0.297502
0.29677
0.295952
0.295049
0.294059
0.292983
0.291822
0.290572
0.289236
0.287815
0.286305
0.284713
0.283037
0.281276
0.279438
0.277521
0.275526
0.273461
0.271326
0.269125
0.266864
0.264545
0.262175
0.259761
0.257303
0.254813
0.252294
0.249751
0.247194
0.244623
0.242049
0.239474
0.236906
0.234347
0.231801
0.22928
0.226799
0.303715
0.304078
0.304354
0.304561
0.304695
0.304762
0.304755
0.304662
0.304483
0.304227
0.303887
0.303448
0.302919
0.302293
0.301565
0.300738
0.299805
0.298769
0.297631
0.296383
0.29503
0.29357
0.291999
0.290322
0.288537
0.286642
0.284643
0.282541
0.280333
0.278029
0.27563
0.273139
0.270566
0.267911
0.265185
0.262396
0.259546
0.256652
0.253715
0.250748
0.247761
0.244758
0.241754
0.238752
0.235764
0.232795
0.229848
0.226941
0.224091
0.306806
0.307377
0.30787
0.308311
0.30869
0.309008
0.309258
0.30943
0.30952
0.309512
0.309404
0.309188
0.308926
0.30851
0.307962
0.3073
0.306508
0.305591
0.304548
0.303367
0.302055
0.300607
0.299016
0.297287
0.295415
0.293394
0.291233
0.288928
0.286476
0.283889
0.281167
0.278313
0.275341
0.272249
0.269056
0.26577
0.262396
0.258956
0.255454
0.25191
0.248337
0.244744
0.241153
0.237572
0.23402
0.230505
0.227034
0.22363
0.220316
0.308324
0.309072
0.309835
0.310648
0.311473
0.312286
0.313041
0.313712
0.314277
0.314712
0.315015
0.315164
0.315163
0.315024
0.314792
0.314425
0.313878
0.31317
0.312312
0.311285
0.310098
0.308741
0.307198
0.305477
0.303564
0.301449
0.299141
0.29663
0.293912
0.291001
0.287894
0.284597
0.281128
0.277486
0.273695
0.269769
0.265715
0.261562
0.257321
0.253014
0.248664
0.244284
0.239909
0.235553
0.231248
0.227017
0.222876
0.218861
0.215004
0.307035
0.307875
0.309089
0.310664
0.312394
0.314129
0.315742
0.317171
0.318387
0.319374
0.320153
0.32072
0.321101
0.321302
0.321303
0.321117
0.321053
0.320574
0.319959
0.319164
0.318185
0.317006
0.315599
0.313968
0.312092
0.309949
0.307544
0.304864
0.301895
0.298657
0.295144
0.291366
0.287347
0.283088
0.278625
0.273976
0.269153
0.264196
0.259116
0.253946
0.248707
0.243417
0.238118
0.232826
0.227591
0.222455
0.217467
0.212703
0.208227
0.298568
0.29987
0.303232
0.307388
0.3114
0.314924
0.317853
0.320226
0.322125
0.323618
0.324795
0.325695
0.326377
0.326878
0.3272
0.327331
0.327267
0.327233
0.326957
0.326473
0.325798
0.324902
0.323742
0.322312
0.320573
0.318486
0.316051
0.31324
0.310036
0.306459
0.302506
0.298191
0.29355
0.288591
0.283366
0.277902
0.272223
0.266383
0.260396
0.254303
0.248125
0.241873
0.23558
0.229242
0.222897
0.216581
0.210377
0.20449
0.199207
0.271744
0.282511
0.294717
0.304662
0.312029
0.317348
0.321178
0.324
0.326133
0.327775
0.329071
0.330086
0.3309
0.331553
0.332071
0.332476
0.332717
0.33283
0.333014
0.332874
0.33257
0.332046
0.331231
0.33011
0.328627
0.326712
0.324343
0.32148
0.318093
0.31421
0.30983
0.304978
0.299704
0.294031
0.288027
0.281741
0.275208
0.268504
0.261652
0.254706
0.247691
0.240609
0.233475
0.226233
0.218843
0.211206
0.20323
0.194978
0.187101
0.236026
0.235125
0.234148
0.233084
0.231914
0.230632
0.229266
0.227979
0.226894
0.226042
0.225455
0.225171
0.225227
0.225673
0.22656
0.227951
0.229925
0.232581
0.236043
0.24048
0.246115
0.25326
0.262361
0.274096
0.289564
0.310363
0.33818
0.380033
0.513392
0.235928
0.23501
0.234014
0.232925
0.231723
0.230403
0.228991
0.227655
0.226519
0.225613
0.22497
0.224623
0.224611
0.224975
0.225762
0.227032
0.228854
0.231313
0.234519
0.238607
0.243759
0.250211
0.25827
0.268324
0.281002
0.297241
0.315163
0.328597
0.366172
0.235663
0.234708
0.233666
0.232521
0.23125
0.229845
0.228332
0.226881
0.225625
0.224593
0.223812
0.223314
0.22313
0.223293
0.223841
0.224819
0.226275
0.228267
0.230861
0.23413
0.238155
0.243019
0.248774
0.255342
0.262535
0.270444
0.276714
0.274087
0.2762
0.235245
0.234226
0.233109
0.231874
0.230496
0.228959
0.227287
0.22566
0.22422
0.222993
0.222003
0.221273
0.220828
0.22069
0.220884
0.221434
0.222363
0.223693
0.22544
0.227609
0.23018
0.233102
0.236266
0.239398
0.24202
0.2441
0.244681
0.239723
0.237348
0.2347
0.233594
0.232375
0.231018
0.229495
0.227784
0.225903
0.224047
0.222371
0.220897
0.219644
0.218629
0.217868
0.217374
0.217154
0.217217
0.217562
0.218182
0.219058
0.22015
0.221392
0.222679
0.223878
0.22476
0.224903
0.224164
0.221948
0.2156
0.211427
0.234033
0.232818
0.231471
0.229963
0.22826
0.226334
0.2242
0.222068
0.220113
0.218353
0.216802
0.21547
0.214367
0.213494
0.212849
0.212426
0.21221
0.212175
0.212284
0.212482
0.21269
0.212796
0.212667
0.212113
0.210744
0.208216
0.20386
0.196093
0.190688
0.233238
0.231891
0.23039
0.2287
0.226782
0.224602
0.22217
0.219722
0.217451
0.215375
0.213501
0.211836
0.210381
0.209132
0.208077
0.207201
0.206479
0.205877
0.20535
0.204834
0.204248
0.203478
0.202384
0.200781
0.198314
0.194603
0.189206
0.181748
0.176624
0.232307
0.230803
0.229119
0.227216
0.225046
0.22257
0.219798
0.216993
0.214377
0.211961
0.209751
0.207747
0.205945
0.204335
0.2029
0.201617
0.200456
0.199376
0.198329
0.197249
0.196056
0.194641
0.192876
0.190603
0.187544
0.183401
0.178058
0.172021
0.167861
0.231221
0.229534
0.227637
0.225484
0.223023
0.220209
0.217053
0.213856
0.210867
0.208097
0.205545
0.203208
0.201076
0.199133
0.197358
0.195723
0.194194
0.192729
0.191277
0.189778
0.188158
0.186327
0.184183
0.18161
0.178406
0.174344
0.169533
0.164945
0.161718
0.229948
0.228047
0.225901
0.22346
0.220663
0.217467
0.213884
0.210262
0.206882
0.203749
0.20086
0.198205
0.195769
0.193531
0.191465
0.189541
0.187722
0.185966
0.184225
0.182445
0.180563
0.17851
0.176207
0.173567
0.170441
0.166663
0.162472
0.159001
0.156547
0.228429
0.226278
0.223844
0.221068
0.21789
0.214262
0.210209
0.206133
0.202348
0.198855
0.195643
0.192696
0.189993
0.187508
0.185209
0.183063
0.181033
0.179077
0.177151
0.175206
0.173191
0.171048
0.168715
0.166124
0.163164
0.159734
0.15615
0.153497
0.151663
0.22657
0.224126
0.221355
0.218194
0.214578
0.210468
0.205905
0.201353
0.197162
0.193323
0.189816
0.186617
0.183696
0.181019
0.178551
0.176255
0.174092
0.172021
0.169998
0.167982
0.165925
0.163783
0.161503
0.159028
0.156282
0.153223
0.150206
0.148147
0.146774
0.224224
0.221432
0.218266
0.214657
0.210546
0.205903
0.200796
0.195763
0.191182
0.187031
0.183276
0.17988
0.176803
0.174003
0.171439
0.169069
0.16685
0.164743
0.162705
0.160695
0.158674
0.156603
0.154438
0.152131
0.149629
0.146943
0.144428
0.142796
0.141747
0.221128
0.217921
0.214292
0.21017
0.205507
0.200294
0.194635
0.189143
0.18422
0.17982
0.17589
0.172376
0.169226
0.166387
0.16381
0.161448
0.159255
0.157194
0.155215
0.153286
0.151368
0.149428
0.147428
0.145327
0.14309
0.140764
0.138683
0.137364
0.13654
0.216873
0.21317
0.209004
0.204309
0.199059
0.193275
0.187104
0.18123
0.17606
0.171514
0.167517
0.163993
0.160875
0.158099
0.155608
0.153347
0.15127
0.14933
0.147489
0.145709
0.143955
0.142197
0.140402
0.138535
0.13658
0.134607
0.132914
0.13184
0.131167
0.21102
0.206786
0.202086
0.196863
0.191121
0.184911
0.178408
0.172344
0.167107
0.162587
0.158678
0.155287
0.152329
0.149732
0.147429
0.145363
0.143482
0.141741
0.140099
0.138521
0.136973
0.135428
0.133858
0.132236
0.130557
0.128895
0.127512
0.126632
0.126062
0.203655
0.198912
0.193811
0.188282
0.182318
0.175965
0.169408
0.163394
0.158292
0.153963
0.150282
0.147139
0.144438
0.142098
0.140049
0.13823
0.136589
0.13508
0.133663
0.132302
0.130966
0.12963
0.128271
0.126878
0.125453
0.124056
0.122908
0.12217
0.121674
0.194126
0.189179
0.18419
0.178847
0.173057
0.166872
0.16051
0.15474
0.149921
0.1459
0.142539
0.139715
0.137325
0.135284
0.133519
0.131969
0.130583
0.129314
0.128123
0.126978
0.125846
0.1247
0.123524
0.122319
0.121108
0.119941
0.118992
0.118379
0.117945
0.180999
0.177366
0.173627
0.16906
0.163793
0.158003
0.152003
0.146607
0.142165
0.138523
0.13553
0.133059
0.131002
0.129271
0.127795
0.126512
0.125374
0.124335
0.12336
0.122414
0.121465
0.120482
0.119455
0.118425
0.117463
0.116587
0.11584
0.115275
0.11482
0.229331
0.229654
0.23038
0.231823
0.233823
0.23607
0.238409
0.240773
0.243171
0.245645
0.248238
0.250987
0.253928
0.257097
0.26053
0.264265
0.268337
0.272772
0.277583
0.282761
0.28826
0.293952
0.299573
0.30403
0.305951
0.304142
0.297066
0.282338
0.251542
0.227573
0.228017
0.228857
0.230288
0.232202
0.234374
0.236677
0.239049
0.241494
0.244046
0.24674
0.249613
0.252701
0.256042
0.259677
0.263651
0.268004
0.272773
0.277984
0.283647
0.289759
0.296258
0.302964
0.308889
0.312735
0.313786
0.311441
0.307628
0.311994
0.225777
0.226302
0.227226
0.228651
0.230495
0.232591
0.23484
0.237196
0.239665
0.242271
0.245044
0.248015
0.251223
0.254711
0.258524
0.262715
0.267337
0.272444
0.278088
0.284329
0.291251
0.298968
0.307603
0.316681
0.325314
0.333747
0.342211
0.349603
0.366442
0.223917
0.22442
0.225318
0.226727
0.228575
0.230678
0.232923
0.235278
0.237761
0.240401
0.243227
0.246272
0.249576
0.253184
0.257149
0.261531
0.266399
0.271826
0.277902
0.28475
0.29256
0.301678
0.312593
0.325445
0.339405
0.354943
0.372718
0.389092
0.410852
0.221994
0.222463
0.223309
0.224687
0.226535
0.228651
0.230904
0.233265
0.235759
0.238421
0.241284
0.244383
0.24776
0.251463
0.255551
0.260091
0.265166
0.27087
0.277327
0.284721
0.293333
0.30374
0.316629
0.332744
0.350803
0.371536
0.395623
0.418862
0.444955
0.22001
0.220462
0.221275
0.222615
0.224431
0.226528
0.22877
0.231124
0.233617
0.236288
0.23917
0.242301
0.245723
0.249489
0.25366
0.258312
0.263535
0.26944
0.276176
0.283988
0.293167
0.304557
0.318644
0.337014
0.356888
0.380516
0.407585
0.436704
0.465918
0.217961
0.218402
0.219193
0.22049
0.222255
0.224308
0.226516
0.228844
0.23132
0.233978
0.236856
0.23999
0.243424
0.247212
0.251418
0.25612
0.261414
0.267423
0.274292
0.282344
0.291743
0.303731
0.317877
0.337112
0.35911
0.383318
0.409385
0.436636
0.464095
0.21584
0.216269
0.217035
0.218286
0.21999
0.221984
0.224142
0.226427
0.228863
0.231485
0.234331
0.237435
0.240843
0.244606
0.24879
0.253473
0.258748
0.264747
0.271566
0.279645
0.288851
0.300641
0.315533
0.33429
0.355534
0.378134
0.4013
0.424644
0.447929
0.213645
0.214061
0.214799
0.215997
0.21763
0.219553
0.221645
0.223867
0.226242
0.228804
0.231587
0.234628
0.237968
0.241657
0.245758
0.250345
0.255499
0.26137
0.267947
0.275692
0.284919
0.296194
0.310447
0.327675
0.346521
0.366184
0.385898
0.405404
0.42402
0.211374
0.211779
0.212486
0.213625
0.215177
0.217014
0.219021
0.221162
0.223454
0.225929
0.22862
0.231561
0.23479
0.238353
0.242307
0.246722
0.25165
0.257239
0.263573
0.270893
0.279592
0.289942
0.302637
0.317578
0.33341
0.349503
0.365294
0.380806
0.39508
0.209024
0.209416
0.21009
0.211165
0.212627
0.214366
0.216273
0.218313
0.2205
0.222863
0.225432
0.228237
0.231313
0.2347
0.238446
0.242611
0.247258
0.252493
0.258407
0.265118
0.272882
0.281955
0.292719
0.304959
0.31748
0.329723
0.341311
0.352563
0.362647
0.206596
0.206975
0.207615
0.208622
0.209986
0.211613
0.213404
0.215324
0.217384
0.21961
0.222027
0.224663
0.227546
0.230711
0.234198
0.238062
0.24235
0.247127
0.252453
0.258385
0.265051
0.272643
0.281297
0.29066
0.299781
0.308229
0.315794
0.322961
0.329164
0.204094
0.204464
0.205073
0.206008
0.207263
0.208761
0.210417
0.212196
0.214108
0.216172
0.218411
0.220846
0.2235
0.226403
0.229585
0.233087
0.236936
0.241165
0.245794
0.250839
0.256334
0.262345
0.268821
0.275337
0.281225
0.286228
0.290301
0.293975
0.296917
0.201516
0.201873
0.202443
0.203302
0.204444
0.205808
0.207318
0.208942
0.210686
0.212567
0.214603
0.21681
0.219205
0.22181
0.224643
0.22773
0.231079
0.234699
0.238573
0.242674
0.246959
0.251381
0.255751
0.259645
0.262688
0.264795
0.266063
0.267015
0.26751
0.198867
0.199213
0.199746
0.200524
0.201548
0.202767
0.204118
0.205572
0.207132
0.208811
0.210625
0.212582
0.214693
0.216968
0.219417
0.222051
0.224862
0.227836
0.230927
0.234065
0.237149
0.240057
0.242507
0.244132
0.244826
0.244652
0.243808
0.242805
0.241679
0.196153
0.19649
0.196986
0.197683
0.198581
0.199646
0.200827
0.202098
0.203457
0.204923
0.206498
0.208186
0.209989
0.211911
0.21395
0.216105
0.218352
0.220659
0.222955
0.225141
0.22708
0.228598
0.229371
0.229121
0.227976
0.226118
0.223798
0.221525
0.219497
0.193378
0.193704
0.194159
0.194772
0.195544
0.196453
0.197458
0.198534
0.199688
0.200928
0.202251
0.203654
0.205134
0.206686
0.208299
0.209959
0.211631
0.213266
0.214778
0.216051
0.216927
0.217212
0.216569
0.214837
0.212341
0.209343
0.206094
0.203107
0.200737
0.190549
0.190866
0.191279
0.191809
0.192454
0.193202
0.194023
0.1949
0.195842
0.196848
0.19791
0.199021
0.200169
0.201342
0.202522
0.203682
0.20478
0.205754
0.206511
0.206925
0.206836
0.20605
0.204248
0.2014
0.197985
0.194305
0.190556
0.187263
0.184931
0.187675
0.187986
0.18836
0.188806
0.189324
0.189906
0.190535
0.191213
0.191937
0.192704
0.193502
0.194316
0.195129
0.195921
0.196667
0.197333
0.197866
0.198201
0.198237
0.197852
0.196894
0.195184
0.192448
0.188794
0.184816
0.180814
0.176891
0.173586
0.171556
0.184761
0.185065
0.185397
0.185759
0.186154
0.186562
0.187018
0.187493
0.187999
0.188527
0.18906
0.189578
0.190058
0.190475
0.190795
0.190979
0.190969
0.190692
0.190052
0.188929
0.187191
0.184684
0.181197
0.176983
0.172728
0.168698
0.164864
0.161787
0.160264
0.181817
0.182116
0.182406
0.182685
0.182948
0.183216
0.183483
0.183758
0.184049
0.184342
0.184616
0.184845
0.185001
0.185054
0.184965
0.184689
0.184164
0.183316
0.182049
0.180254
0.177816
0.174618
0.17052
0.165925
0.161603
0.157775
0.154241
0.151593
0.150779
0.178852
0.179146
0.1794
0.179589
0.179748
0.179859
0.179943
0.180025
0.180108
0.180174
0.180197
0.180147
0.179994
0.1797
0.179225
0.178516
0.177513
0.176138
0.174299
0.171897
0.168834
0.165024
0.160401
0.155524
0.151258
0.147782
0.144708
0.142667
0.14278
0.175873
0.176157
0.176385
0.176525
0.176556
0.176504
0.176413
0.176309
0.176193
0.176042
0.175827
0.175514
0.175068
0.17445
0.173614
0.172507
0.171066
0.169214
0.166863
0.163921
0.160301
0.155942
0.150834
0.145676
0.141464
0.138377
0.135833
0.13453
0.135808
0.17289
0.173167
0.173367
0.17344
0.173354
0.173157
0.172904
0.172628
0.172326
0.171973
0.171535
0.170977
0.17026
0.169342
0.168177
0.16671
0.164877
0.162604
0.159806
0.156395
0.152295
0.14745
0.14188
0.136386
0.132109
0.129291
0.127196
0.126657
0.1293
0.169913
0.17019
0.170366
0.170368
0.170173
0.169837
0.169431
0.168995
0.168523
0.167985
0.167344
0.166561
0.165597
0.164409
0.162949
0.161164
0.15899
0.156357
0.153185
0.149394
0.144907
0.139662
0.133671
0.127757
0.123189
0.120315
0.118315
0.11837
0.122556
0.166947
0.167219
0.167361
0.167293
0.166996
0.166536
0.165998
0.165425
0.164806
0.164105
0.163282
0.162297
0.161112
0.159684
0.157966
0.155907
0.153445
0.150516
0.147047
0.142967
0.13821
0.132701
0.126418
0.12012
0.115087
0.111708
0.109056
0.109119
0.114973
0.164021
0.164338
0.164506
0.164397
0.163976
0.163343
0.162638
0.161923
0.161172
0.160331
0.15935
0.158192
0.156817
0.155185
0.153251
0.150964
0.14827
0.14511
0.141423
0.137158
0.13226
0.126635
0.12018
0.113547
0.107962
0.103761
0.0996539
0.0981529
0.104382
0.147014
0.127106
0.0994902
0.0635838
0.0223247
-0.018932
-0.0569325
-0.0916098
-0.123705
-0.156502
-0.190286
-0.227602
-0.265832
-0.301504
-0.330274
-0.349381
-0.358987
-0.361602
-0.361247
0.155599
0.140524
0.114416
0.0782066
0.0338921
-0.0137988
-0.0611858
-0.107717
-0.152663
-0.200512
-0.248241
-0.296127
-0.341889
-0.381844
-0.412496
-0.432621
-0.443683
-0.448586
-0.450396
0.151588
0.13791
0.1134
0.0775931
0.0314191
-0.0209978
-0.0756244
-0.134204
-0.192636
-0.251027
-0.308925
-0.365199
-0.416888
-0.460395
-0.493093
-0.514724
-0.527321
-0.533833
-0.537045
0.141828
0.128611
0.106252
0.0713584
0.0232565
-0.0339374
-0.096416
-0.162461
-0.230097
-0.298161
-0.365634
-0.430234
-0.488085
-0.535336
-0.56992
-0.592504
-0.605935
-0.613445
-0.61765
0.128839
0.116796
0.0962324
0.0621132
0.0130185
-0.0470814
-0.114691
-0.187267
-0.263155
-0.340588
-0.416962
-0.488591
-0.55087
-0.600144
-0.635364
-0.658283
-0.672402
-0.6809
-0.685978
0.110906
0.0996759
0.0808947
0.0483677
-0.000248769
-0.0616353
-0.132622
-0.21092
-0.294072
-0.379197
-0.462371
-0.538792
-0.603595
-0.653827
-0.689574
-0.713367
-0.728987
-0.739313
-0.746099
0.0884918
0.0766233
0.0586518
0.0276433
-0.0198308
-0.0814628
-0.15443
-0.23642
-0.324211
-0.413813
-0.500179
-0.577684
-0.641607
-0.690004
-0.724059
-0.746889
-0.762382
-0.772969
-0.780035
0.0628918
0.049153
0.0305151
-9.22401e-05
-0.0467059
-0.107913
-0.181262
-0.264341
-0.353508
-0.443975
-0.529835
-0.605112
-0.665738
-0.710947
-0.742799
-0.764614
-0.780034
-0.790892
-0.798318
0.0351356
0.0189721
-0.00147517
-0.0329666
-0.0794066
-0.139849
-0.21221
-0.294132
-0.381739
-0.469662
-0.55148
-0.621428
-0.676473
-0.716974
-0.745558
-0.765492
-0.780052
-0.790556
-0.797804
0.00611634
-0.0124677
-0.0352371
-0.0684299
-0.115305
-0.17492
-0.245462
-0.324713
-0.40868
-0.491643
-0.567121
-0.630053
-0.678614
-0.714104
-0.739437
-0.757649
-0.771589
-0.78219
-0.789886
-0.0231848
-0.0438899
-0.0690082
-0.104185
-0.151889
-0.210831
-0.27922
-0.354816
-0.433397
-0.509041
-0.575673
-0.629413
-0.669743
-0.698696
-0.719227
-0.734041
-0.745485
-0.754266
-0.760605
-0.0516095
-0.0739521
-0.101065
-0.137962
-0.186422
-0.244627
-0.310572
-0.381791
-0.453828
-0.520911
-0.577914
-0.622407
-0.655002
-0.678092
-0.694398
-0.706165
-0.715193
-0.722104
-0.726999
-0.0780922
-0.101503
-0.130032
-0.167992
-0.216665
-0.27372
-0.336857
-0.403334
-0.468587
-0.527316
-0.575579
-0.612258
-0.638713
-0.65739
-0.670663
-0.680362
-0.68789
-0.693869
-0.698216
-0.101901
-0.125855
-0.1552
-0.193486
-0.241674
-0.297004
-0.356839
-0.418095
-0.476199
-0.52658
-0.566599
-0.596274
-0.617409
-0.632299
-0.642922
-0.650731
-0.65678
-0.661656
-0.665171
-0.122603
-0.14666
-0.176276
-0.214193
-0.261179
-0.314135
-0.370124
-0.425798
-0.476813
-0.519558
-0.552645
-0.576902
-0.594265
-0.606723
-0.615836
-0.6227
-0.6281
-0.632546
-0.635778
-0.140152
-0.163999
-0.193452
-0.230451
-0.275655
-0.325734
-0.377568
-0.427716
-0.472272
-0.508617
-0.536351
-0.556764
-0.571711
-0.58284
-0.591352
-0.598069
-0.603593
-0.608322
-0.61189
-0.154873
-0.178354
-0.207388
-0.243144
-0.286203
-0.33303
-0.38038
-0.424862
-0.463218
-0.493856
-0.517151
-0.534591
-0.547799
-0.558051
-0.56622
-0.57289
-0.578521
-0.583373
-0.587043
-0.167196
-0.190297
-0.218813
-0.253195
-0.293942
-0.33734
-0.380127
-0.419162
-0.451986
-0.477924
-0.497851
-0.513234
-0.525388
-0.535239
-0.543374
-0.550174
-0.555988
-0.560964
-0.564719
-0.177621
-0.200467
-0.228541
-0.261628
-0.300133
-0.34021
-0.378712
-0.412896
-0.441094
-0.463325
-0.480719
-0.494605
-0.506003
-0.51555
-0.523618
-0.530445
-0.536305
-0.541284
-0.545031
-0.186658
-0.209519
-0.237436
-0.269515
-0.305956
-0.34273
-0.376933
-0.406437
-0.430433
-0.449488
-0.464784
-0.477402
-0.488054
-0.497134
-0.504856
-0.511369
-0.516899
-0.521518
-0.524942
-0.194586
-0.217906
-0.246173
-0.277748
-0.312433
-0.34599
-0.375963
-0.401073
-0.421365
-0.437755
-0.451312
-0.462814
-0.472697
-0.481172
-0.488351
-0.494335
-0.499321
-0.503397
-0.506371
-0.201534
-0.22598
-0.255369
-0.287128
-0.320368
-0.350658
-0.376281
-0.397075
-0.413926
-0.427924
-0.43989
-0.450269