/*--------------------------------*- C++ -*----------------------------------*\
| =========                 |                                                 |
| \\      /  F ield         | OpenFOAM: The Open Source CFD Toolbox           |
|  \\    /   O peration     | Version:  2312                                  |
|   \\  /    A nd           | Website:  www.openfoam.com                      |
|    \\/     M anipulation  |                                                 |
\*---------------------------------------------------------------------------*/
FoamFile
{
    version     2.0;
    format      ascii;
    arch        "LSB;label=32;scalar=64";
    class       volVectorField;
    location    "30.456998760614013";
    object      U;
}
// * * * * * * * * * * * * * * * * * * * * * * * * * * * * * * * * * * * * * //

dimensions      [0 1 -1 0 0 0 0];

internalField   nonuniform List<vector> 
21039
(
(0.913757 0.0474335 0)
(1.02607 0.0665028 0)
(1.00449 0.0295225 0)
(1.00176 0.0189304 0)
(1.0012 0.0139308 0)
(1.00079 0.01056 0)
(1.00055 0.0082435 0)
(1.0004 0.00661128 0)
(1.0003 0.00541235 0)
(1.00023 0.00450287 0)
(1.00018 0.00379736 0)
(1.00014 0.00324083 0)
(1.00011 0.00279628 0)
(1.00009 0.00243811 0)
(1.00007 0.00214819 0)
(1.00006 0.00191337 0)
(1.00005 0.00172389 0)
(1.00003 0.00157238 0)
(1.00003 0.00145311 0)
(1.00002 0.00136142 0)
(1.00001 0.00129331 0)
(1.00001 0.00124667 0)
(1 0.00122292 0)
(1 0.00120208 0)
(1 0.00118749 0)
(1 0.0011763 0)
(1.00001 0.00116448 0)
(1.00001 0.00114245 0)
(1.00001 0.00108946 0)
(0.79453 0.0730656 0)
(1.07449 0.12172 0)
(1.03986 0.0709073 0)
(1.01808 0.0497881 0)
(1.01126 0.0383933 0)
(1.00761 0.0296348 0)
(1.00536 0.0233624 0)
(1.00393 0.0188129 0)
(1.00297 0.0153856 0)
(1.0023 0.0127393 0)
(1.00181 0.0106573 0)
(1.00145 0.00899309 0)
(1.00117 0.0076458 0)
(1.00095 0.006545 0)
(1.00077 0.00564035 0)
(1.00063 0.00489519 0)
(1.00051 0.00428241 0)
(1.00041 0.00378162 0)
(1.00032 0.00337721 0)
(1.00024 0.00305691 0)
(1.00017 0.00281048 0)
(1.00012 0.00263123 0)
(1.00007 0.00252262 0)
(1.00004 0.00245004 0)
(1.00003 0.00241493 0)
(1.00003 0.00240049 0)
(1.00004 0.00239352 0)
(1.00005 0.00237583 0)
(1.00006 0.00231969 0)
(0.667272 0.0572891 0)
(1.08296 0.124852 0)
(1.08429 0.0903812 0)
(1.04622 0.06779 0)
(1.02899 0.0543048 0)
(1.02017 0.0433794 0)
(1.01461 0.035112 0)
(1.01091 0.0287718 0)
(1.00835 0.0237859 0)
(1.00653 0.0198228 0)
(1.00519 0.0166368 0)
(1.00418 0.0140456 0)
(1.00341 0.0119179 0)
(1.00279 0.0101582 0)
(1.0023 0.00869648 0)
(1.00189 0.00748056 0)
(1.00155 0.00647136 0)
(1.00126 0.00563923 0)
(1.001 0.00496148 0)
(1.00078 0.00442043 0)
(1.00058 0.00400154 0)
(1.00041 0.003694 0)
(1.00026 0.00350279 0)
(1.00015 0.00338601 0)
(1.0001 0.00333735 0)
(1.00008 0.00332397 0)
(1.00007 0.00332381 0)
(1.00009 0.00331368 0)
(1.0001 0.00326327 0)
(0.540935 0.0352732 0)
(1.05062 0.110875 0)
(1.11578 0.0971127 0)
(1.07599 0.0764169 0)
(1.0491 0.0622945 0)
(1.03512 0.0512298 0)
(1.02627 0.0426042 0)
(1.02009 0.0356279 0)
(1.01566 0.0298983 0)
(1.01242 0.0251901 0)
(1.00999 0.0212989 0)
(1.00813 0.0180608 0)
(1.00668 0.0153514 0)
(1.00552 0.0130754 0)
(1.00457 0.0111597 0)
(1.00379 0.00954793 0)
(1.00313 0.008197 0)
(1.00256 0.00707361 0)
(1.00205 0.00615198 0)
(1.00161 0.00541206 0)
(1.00121 0.0048375 0)
(1.00086 0.00441502 0)
(1.00054 0.0041508 0)
(1.00031 0.00399847 0)
(1.00017 0.00394149 0)
(1.0001 0.0039323 0)
(1.00008 0.0039412 0)
(1.00009 0.00394082 0)
(1.0001 0.00389634 0)
(0.444076 0.0186724 0)
(0.99753 0.0919099 0)
(1.12879 0.0957399 0)
(1.10123 0.079608 0)
(1.06801 0.0656064 0)
(1.04953 0.0549765 0)
(1.03802 0.0466428 0)
(1.02979 0.0396621 0)
(1.0237 0.0337458 0)
(1.0191 0.0287447 0)
(1.01558 0.0245003 0)
(1.01283 0.0208846 0)
(1.01064 0.0177978 0)
(1.00887 0.0151595 0)
(1.00741 0.0129054 0)
(1.00618 0.0109845 0)
(1.00513 0.00935676 0)
(1.00422 0.00799067 0)
(1.00341 0.00686146 0)
(1.00268 0.00594985 0)
(1.00203 0.00524023 0)
(1.00143 0.00471895 0)
(1.00089 0.00439394 0)
(1.00049 0.00421631 0)
(1.00024 0.00415849 0)
(1.00009 0.00415987 0)
(1.00004 0.00418408 0)
(1.00004 0.00419945 0)
(1.00004 0.004164 0)
(0.378515 0.00810621 0)
(0.939444 0.0718642 0)
(1.12667 0.0883502 0)
(1.12053 0.0787284 0)
(1.08519 0.0660233 0)
(1.06274 0.0560833 0)
(1.04896 0.0482644 0)
(1.03913 0.0415649 0)
(1.0317 0.0357521 0)
(1.02596 0.0307218 0)
(1.02147 0.0263541 0)
(1.0179 0.022555 0)
(1.01501 0.0192498 0)
(1.01262 0.0163765 0)
(1.01063 0.0138845 0)
(1.00894 0.0117326 0)
(1.00747 0.00988825 0)
(1.00617 0.00832525 0)
(1.00501 0.00702309 0)
(1.00396 0.00596583 0)
(1.00299 0.00514093 0)
(1.0021 0.00453639 0)
(1.0013 0.00416308 0)
(1.00068 0.00397109 0)
(1.00028 0.00392162 0)
(1.00005 0.0039419 0)
(0.999946 0.00398949 0)
(0.999921 0.00402827 0)
(0.999902 0.00400708 0)
(0.333302 0.00233604 0)
(0.88315 0.0538345 0)
(1.11367 0.0778467 0)
(1.13348 0.0748391 0)
(1.1005 0.0643307 0)
(1.07492 0.0552949 0)
(1.05906 0.0481135 0)
(1.04792 0.0418609 0)
(1.03942 0.0363155 0)
(1.03275 0.0314063 0)
(1.02743 0.0270532 0)
(1.02313 0.0231941 0)
(1.0196 0.0197775 0)
(1.01664 0.0167595 0)
(1.01413 0.0141036 0)
(1.01196 0.0117805 0)
(1.01006 0.00976626 0)
(1.00836 0.00804241 0)
(1.00682 0.00659458 0)
(1.0054 0.00541207 0)
(1.00409 0.00448707 0)
(1.00287 0.00381119 0)
(1.00174 0.00339949 0)
(1.00087 0.00320244 0)
(1.00029 0.00316966 0)
(0.999944 0.00321686 0)
(0.999777 0.00329604 0)
(0.999714 0.00336669 0)
(0.999661 0.00336692 0)
(0.301025 -0.000193037 0)
(0.831474 0.0395395 0)
(1.09347 0.0668721 0)
(1.14012 0.0693029 0)
(1.11342 0.0613026 0)
(1.08607 0.0532435 0)
(1.06838 0.0466977 0)
(1.05614 0.0409464 0)
(1.04678 0.0357467 0)
(1.03935 0.0310407 0)
(1.03334 0.0267824 0)
(1.02842 0.0229378 0)
(1.02431 0.0194763 0)
(1.02083 0.0163711 0)
(1.01783 0.0135998 0)
(1.0152 0.0111445 0)
(1.01287 0.00899114 0)
(1.01075 0.00712954 0)
(1.00881 0.00555262 0)
(1.007 0.00425624 0)
(1.00531 0.00323886 0)
(1.0037 0.00249708 0)
(1.00221 0.00205137 0)
(1.00104 0.00185426 0)
(1.00025 0.00184386 0)
(0.999761 0.00192385 0)
(0.999506 0.00204144 0)
(0.999383 0.00215304 0)
(0.999278 0.00218423 0)
(0.278096 -0.000990292 0)
(0.785921 0.0290176 0)
(1.06935 0.0567954 0)
(1.14129 0.0631715 0)
(1.12368 0.0576202 0)
(1.09608 0.0505164 0)
(1.07693 0.0445044 0)
(1.06376 0.0391993 0)
(1.05373 0.0343379 0)
(1.04571 0.0298535 0)
(1.03914 0.0257204 0)
(1.03369 0.0219243 0)
(1.02909 0.0184511 0)
(1.02513 0.0152886 0)
(1.02168 0.0124269 0)
(1.01862 0.00985913 0)
(1.01586 0.00758075 0)
(1.01333 0.00559009 0)
(1.01097 0.00388815 0)
(1.00875 0.00247845 0)
(1.00663 0.00136662 0)
(1.00461 0.000553204 0)
(1.00271 6.80707e-05 0)
(1.00119 -0.00013093 0)
(1.00014 -0.000118977 0)
(0.999484 -5.49658e-06 0)
(0.999114 0.000149474 0)
(0.998908 0.000308828 0)
(0.998726 0.000402403 0)
(0.261724 -0.00103905 0)
(0.746872 0.0215627 0)
(1.04386 0.0480402 0)
(1.13833 0.0570187 0)
(1.13146 0.0536803 0)
(1.10503 0.0474918 0)
(1.08481 0.0419003 0)
(1.07085 0.0369386 0)
(1.0603 0.0323542 0)
(1.05181 0.0280617 0)
(1.04481 0.0240426 0)
(1.03893 0.020294 0)
(1.0339 0.016813 0)
(1.02954 0.0135983 0)
(1.02568 0.0106503 0)
(1.02221 0.00797116 0)
(1.01904 0.00556528 0)
(1.01609 0.00343938 0)
(1.01331 0.00160245 0)
(1.01065 6.44968e-05 0)
(1.00809 -0.00116122 0)
(1.00561 -0.00206377 0)
(1.00325 -0.00260544 0)
(1.00133 -0.00282353 0)
(0.999985 -0.00279867 0)
(0.999112 -0.00264943 0)
(0.998591 -0.00244475 0)
(0.998269 -0.00224345 0)
(0.997982 -0.00213698 0)
(0.24959 -0.000825501 0)
(0.71382 0.0163867 0)
(1.01863 0.0406336 0)
(1.13247 0.0511373 0)
(1.13708 0.0496798 0)
(1.11305 0.0443557 0)
(1.09219 0.0391006 0)
(1.07754 0.0343817 0)
(1.06656 0.0299973 0)
(1.05772 0.0258445 0)
(1.05037 0.021904 0)
(1.04414 0.0181782 0)
(1.03876 0.0146715 0)
(1.03404 0.0113897 0)
(1.02982 0.00834087 0)
(1.02597 0.00553469 0)
(1.02241 0.00298321 0)
(1.01906 0.000700015 0)
(1.01585 -0.00129985 0)
(1.01275 -0.0029978 0)
(1.00971 -0.00437059 0)
(1.00673 -0.00539674 0)
(1.00386 -0.00602888 0)
(1.00149 -0.00629501 0)
(0.99979 -0.00627779 0)
(0.998651 -0.0061067 0)
(0.997925 -0.00585736 0)
(0.997434 -0.00560077 0)
(0.996997 -0.00545962 0)
(0.240172 -0.000572204 0)
(0.685918 0.0128043 0)
(0.994538 0.0344555 0)
(1.12472 0.0456796 0)
(1.14091 0.0457346 0)
(1.12025 0.0412049 0)
(1.0992 0.0362277 0)
(1.08397 0.0316676 0)
(1.07261 0.0274083 0)
(1.06349 0.0233374 0)
(1.05587 0.0194303 0)
(1.04937 0.0156906 0)
(1.0437 0.0121265 0)
(1.03868 0.00874864 0)
(1.03413 0.00557035 0)
(1.02995 0.00260723 0)
(1.02602 -0.000123976 0)
(1.02228 -0.00260434 0)
(1.01865 -0.00481036 0)
(1.01509 -0.00671432 0)
(1.01156 -0.00828433 0)
(1.00804 -0.00948884 0)
(1.00461 -0.0102686 0)
(1.00173 -0.010636 0)
(0.999605 -0.0106694 0)
(0.998133 -0.0105083 0)
(0.997134 -0.0102371 0)
(0.996403 -0.00993717 0)
(0.995748 -0.00975624 0)
(0.232595 -0.000368815 0)
(0.662325 0.0102781 0)
(0.972062 0.0293272 0)
(1.1158 0.0407085 0)
(1.14324 0.0419223 0)
(1.12671 0.0381026 0)
(1.10594 0.033361 0)
(1.09026 0.0288924 0)
(1.07857 0.0246908 0)
(1.06922 0.0206453 0)
(1.0614 0.0167239 0)
(1.05467 0.0129284 0)
(1.04878 0.00926802 0)
(1.0435 0.00575625 0)
(1.03868 0.00240967 0)
(1.03419 -0.000753756 0)
(1.02993 -0.0037133 0)
(1.02582 -0.00644309 0)
(1.02178 -0.00891207 0)
(1.01776 -0.0110849 0)
(1.01372 -0.0129218 0)
(1.00963 -0.0143819 0)
(1.00559 -0.015394 0)
(1.00214 -0.0159491 0)
(0.999532 -0.0161088 0)
(0.997649 -0.0160187 0)
(0.99629 -0.0157708 0)
(0.995231 -0.0154596 0)
(0.994273 -0.0152551 0)
(0.226346 -0.000233166 0)
(0.642304 0.00843346 0)
(0.9514 0.0250633 0)
(1.10629 0.036227 0)
(1.1444 0.0382906 0)
(1.13254 0.0350928 0)
(1.11249 0.0305566 0)
(1.09648 0.0261289 0)
(1.08451 0.0219278 0)
(1.07498 0.0178561 0)
(1.06701 0.0138745 0)
(1.06013 0.00997994 0)
(1.05406 0.00618115 0)
(1.04858 0.00249192 0)
(1.04353 -0.00107129 0)
(1.03879 -0.00448875 0)
(1.03424 -0.00773517 0)
(1.02979 -0.010779 0)
(1.02536 -0.0135832 0)
(1.02088 -0.0161056 0)
(1.01632 -0.0182994 0)
(1.01165 -0.0201162 0)
(1.00697 -0.0214758 0)
(1.0029 -0.0223438 0)
(0.999749 -0.0227505 0)
(0.997372 -0.0228378 0)
(0.995545 -0.0226999 0)
(0.994037 -0.0224433 0)
(0.992659 -0.0222577 0)
(0.221098 -0.000155295 0)
(0.625235 0.00703878 0)
(0.932587 0.0215274 0)
(1.09656 0.0322366 0)
(1.14461 0.0348814 0)
(1.13776 0.0322073 0)
(1.11883 0.0278496 0)
(1.10267 0.0234271 0)
(1.09046 0.0191819 0)
(1.0808 0.0150402 0)
(1.07271 0.0109566 0)
(1.06573 0.00692252 0)
(1.05953 0.00294332 0)
(1.05391 -0.000969536 0)
(1.0487 -0.00480071 0)
(1.04375 -0.0085291 0)
(1.03895 -0.0121262 0)
(1.03419 -0.0155565 0)
(1.02939 -0.0187778 0)
(1.02448 -0.0217414 0)
(1.0194 -0.024394 0)
(1.01415 -0.0266822 0)
(1.00884 -0.0285232 0)
(1.00418 -0.0298675 0)
(1.0005 -0.0307056 0)
(0.997597 -0.0311617 0)
(0.99522 -0.0313125 0)
(0.993135 -0.0312569 0)
(0.991191 -0.0311832 0)
(0.216996 -0.000104549 0)
(0.611671 0.00603681 0)
(0.916837 0.0187922 0)
(1.08771 0.0289581 0)
(1.14426 0.0319617 0)
(1.1422 0.0297001 0)
(1.12461 0.0254925 0)
(1.10846 0.021058 0)
(1.09609 0.0167472 0)
(1.08634 0.0125137 0)
(1.07821 0.00830713 0)
(1.07118 0.0041119 0)
(1.06493 -7.18124e-05 0)
(1.05924 -0.00423684 0)
(1.05394 -0.00837022 0)
(1.04886 -0.0124515 0)
(1.04389 -0.016452 0)
(1.03891 -0.0203348 0)
(1.03382 -0.0240541 0)
(1.02854 -0.0275539 0)
(1.02301 -0.0307717 0)
(1.01723 -0.0336448 0)
(1.01136 -0.036083 0)
(1.00619 -0.0380272 0)
(1.00208 -0.0394511 0)
(0.998753 -0.0404833 0)
(0.99585 -0.0411714 0)
(0.993091 -0.0415587 0)
(0.990369 -0.0417685 0)
(0.213985 -7.51707e-05 0)
(0.601705 0.00535462 0)
(0.90479 0.0168307 0)
(1.08051 0.0264996 0)
(1.14365 0.029714 0)
(1.14566 0.0277566 0)
(1.12939 0.0236647 0)
(1.11336 0.0192134 0)
(1.1009 0.0148393 0)
(1.0911 0.0105193 0)
(1.08297 0.00619756 0)
(1.07595 0.00185081 0)
(1.06972 -0.00252645 0)
(1.06403 -0.00693225 0)
(1.05871 -0.0113577 0)
(1.05359 -0.0157859 0)
(1.04855 -0.0201915 0)
(1.04344 -0.0245401 0)
(1.03817 -0.0287856 0)
(1.03263 -0.0328682 0)
(1.02676 -0.0367153 0)
(1.02057 -0.0402498 0)
(1.01423 -0.0433527 0)
(1.00869 -0.0459249 0)
(1.00435 -0.0479406 0)
(1.00086 -0.0496127 0)
(0.997771 -0.0510719 0)
(0.994675 -0.0523475 0)
(0.991448 -0.0532856 0)
(0.211659 -3.06258e-05 0)
(0.594059 0.00489047 0)
(0.895273 0.0154078 0)
(1.0745 0.0246427 0)
(1.14289 0.0279826 0)
(1.14837 0.02626 0)
(1.13335 0.0222696 0)
(1.11749 0.0178137 0)
(1.10499 0.013394 0)
(1.09518 0.00900572 0)
(1.08707 0.00458852 0)
(1.08009 0.000112507 0)
(1.0739 -0.00443359 0)
(1.06826 -0.00905299 0)
(1.06297 -0.013742 0)
(1.05787 -0.0184899 0)
(1.05282 -0.0232777 0)
(1.04767 -0.028077 0)
(1.04231 -0.0328465 0)
(1.03662 -0.0375277 0)
(1.03052 -0.042044 0)
(1.024 -0.0463059 0)
(1.01728 -0.0501508 0)
(1.01139 -0.0533592 0)
(1.00685 -0.055822 0)
(1.00338 -0.0578235 0)
(1.00059 -0.0597391 0)
(0.998161 -0.0619422 0)
(0.995474 -0.0638891 0)
(0.210185 -4.00242e-05 0)
(0.588799 0.00452951 0)
(0.8885 0.014395 0)
(1.07014 0.0233337 0)
(1.14238 0.0267504 0)
(1.15051 0.0251598 0)
(1.13652 0.0212127 0)
(1.12085 0.0167464 0)
(1.10835 0.0122982 0)
(1.09856 0.00786228 0)
(1.09051 0.00336993 0)
(1.0836 -0.00121336 0)
(1.07749 -0.00590278 0)
(1.07193 -0.0107068 0)
(1.06672 -0.0156281 0)
(1.06169 -0.0206633 0)
(1.05669 -0.0258024 0)
(1.05158 -0.0310259 0)
(1.04623 -0.0363018 0)
(1.04052 -0.0415806 0)
(1.03434 -0.0467927 0)
(1.02771 -0.0518581 0)
(1.02082 -0.0566033 0)
(1.01478 -0.0606576 0)
(1.01011 -0.0636927 0)
(1.00662 -0.065778 0)
(1.00402 -0.0669612 0)
(1.00228 -0.0679633 0)
(1.00235 -0.0725919 0)
(1.00001 0.00110186 0)
(1.00001 0.00110661 0)
(1.00001 0.00110632 0)
(1.00001 0.00110682 1.05331e-21)
(1.00001 0.00110921 5.24919e-21)
(1.00001 0.00111333 -9.44231e-21)
(1 0.00111898 5.24231e-21)
(1 0.00112607 -4.17249e-21)
(1 0.00113443 5.3527e-22)
(1 0.00114409 4.16829e-21)
(1 0.00115486 0)
(0.999999 0.00116672 -4.65299e-21)
(0.999997 0.00117958 5.30772e-22)
(0.999996 0.00119329 4.12862e-21)
(0.999995 0.00120782 0)
(0.999994 0.00122303 0)
(0.999993 0.00123885 -4.08054e-21)
(0.999992 0.00125516 4.08311e-21)
(0.999991 0.00127181 0)
(0.99999 0.00128876 -2.02152e-21)
(0.999989 0.00130586 2.1486e-21)
(0.999988 0.001323 1.88219e-21)
(0.999988 0.00134009 -3.00901e-21)
(0.999987 0.00135699 9.69437e-22)
(0.999986 0.0013736 3.1032e-23)
(0.999986 0.00138984 -6.20162e-23)
(0.999986 0.00140555 8.61768e-22)
(0.999985 0.00142065 -9.85099e-22)
(0.999985 0.00143507 0)
(0.999985 0.00144867 0)
(0.999985 0.00146136 -2.42633e-22)
(0.999985 0.001473 -2.41492e-22)
(0.999986 0.00148355 -4.07655e-21)
(0.999986 0.00149303 3.35518e-21)
(0.999986 0.00150129 -4.27387e-21)
(0.999987 0.00150832 4.26813e-21)
(0.999988 0.00151406 -3.28792e-21)
(0.999988 0.00151841 3.28684e-21)
(0.999989 0.00152139 4.65916e-22)
(0.99999 0.00152288 4.63402e-22)
(0.999992 0.00152289 -4.60858e-22)
(0.999993 0.00152138 0)
(0.999994 0.00151826 0)
(0.999996 0.00151358 0)
(0.999998 0.00150728 0)
(0.999999 0.00149944 0)
(1 0.00148991 1.77821e-21)
(1 0.00147806 -1.77513e-21)
(1 0.00145985 0)
(1.00006 0.00233726 0)
(1.00004 0.00234735 2.12717e-21)
(1.00003 0.00235431 -2.11816e-21)
(1.00002 0.00236487 -1.05655e-21)
(1 0.0023802 -1.05654e-21)
(0.999989 0.0023997 -3.15681e-21)
(0.999976 0.00242305 5.27025e-21)
(0.999964 0.00245025 0)
(0.999953 0.00248073 -5.23774e-22)
(0.999942 0.00251462 -1.04609e-21)
(0.999932 0.00255146 0)
(0.999922 0.00259107 5.20049e-22)
(0.999913 0.00263334 -4.66216e-21)
(0.999905 0.00267775 4.1471e-21)
(0.999897 0.00272432 0)
(0.99989 0.00277263 1.0302e-21)
(0.999884 0.00282241 0)
(0.999878 0.00287357 0)
(0.999873 0.00292558 0)
(0.999869 0.00297832 -2.0299e-21)
(0.999866 0.00303155 1.90401e-21)
(0.999863 0.00308486 -1.265e-22)
(0.999861 0.00313809 0)
(0.99986 0.00319094 -4.6905e-22)
(0.99986 0.00324309 4.92626e-22)
(0.999861 0.00329433 9.33231e-23)
(0.999862 0.00334439 1.23846e-22)
(0.999865 0.00339297 0)
(0.999868 0.00343985 -1.96146e-21)
(0.999872 0.00348479 1.96102e-21)
(0.999876 0.00352754 -3.6447e-21)
(0.999882 0.00356785 7.99942e-21)
(0.999888 0.00360554 -3.62735e-21)
(0.999895 0.00364038 4.8013e-22)
(0.999903 0.0036721 4.77814e-22)
(0.999911 0.00370059 4.75847e-22)
(0.99992 0.00372559 -4.72992e-22)
(0.99993 0.0037469 4.22731e-21)
(0.999941 0.00376444 -3.2847e-21)
(0.999952 0.00377788 -1.3969e-21)
(0.999964 0.00378722 5.0856e-21)
(0.999977 0.0037922 -3.692e-21)
(0.99999 0.00379264 -1.8316e-21)
(1 0.00378856 3.63458e-21)
(1.00002 0.00377956 -7.24428e-21)
(1.00003 0.00376587 3.60872e-21)
(1.00005 0.00374724 1.78615e-21)
(1.00006 0.00372295 -4.6792e-24)
(1.00008 0.00368824 0)
(1.00008 0.00327888 3.20205e-21)
(1.00005 0.00329483 -1.06905e-21)
(1.00001 0.0033131 -4.2561e-21)
(0.999967 0.00333759 2.12013e-21)
(0.999929 0.00336954 -2.11935e-21)
(0.999893 0.00340814 0)
(0.999859 0.00345299 -2.10646e-21)
(0.999826 0.00350426 -6.30446e-21)
(0.999795 0.00356078 6.30472e-21)
(0.999766 0.00362298 1.04576e-21)
(0.999739 0.00368993 0)
(0.999714 0.00376139 -6.2453e-21)
(0.999691 0.00383731 1.39878e-23)
(0.99967 0.00391662 4.15114e-21)
(0.999651 0.00399951 0)
(0.999634 0.00408523 -1.02924e-21)
(0.999619 0.00417329 -1.02877e-21)
(0.999606 0.00426374 0)
(0.999596 0.0043555 -1.02229e-21)
(0.999588 0.00444845 -2.03101e-21)
(0.999582 0.00454231 2.03162e-21)
(0.999578 0.00463625 -2.53548e-22)
(0.999577 0.00473007 -2.52042e-22)
(0.999578 0.00482339 0)
(0.999581 0.00491556 3.89591e-23)
(0.999586 0.00500626 -2.17866e-22)
(0.999593 0.00509516 0)
(0.999603 0.00518165 0)
(0.999615 0.0052654 -1.96124e-21)
(0.999629 0.00534611 1.96086e-21)
(0.999646 0.00542324 -3.88722e-21)
(0.999664 0.00549646 3.88593e-21)
(0.999684 0.00556545 0)
(0.999707 0.00562977 0)
(0.999731 0.00568908 0)
(0.999757 0.00574313 -9.50222e-22)
(0.999785 0.00579145 -1.89209e-21)
(0.999815 0.00583376 0)
(0.999847 0.00586989 -9.35507e-22)
(0.99988 0.00589926 -9.22089e-22)
(0.999915 0.00592188 2.78506e-21)
(0.999952 0.00593727 0)
(0.999991 0.00594512 3.65372e-21)
(1.00003 0.00594547 -5.46762e-21)
(1.00007 0.00593754 0)
(1.00012 0.00592167 0)
(1.00016 0.00589721 0)
(1.00021 0.00586341 -1.77937e-21)
(1.00026 0.00581656 -1.76644e-21)
(1.00006 0.00391013 -2.13915e-21)
(0.999988 0.00393666 4.28123e-21)
(0.999914 0.00397197 4.27147e-21)
(0.999839 0.00401583 6.38041e-21)
(0.999766 0.00406993 -2.13214e-21)
(0.999696 0.00413329 -4.23034e-21)
(0.999629 0.00420551 8.4563e-21)
(0.999566 0.004287 -5.14657e-24)
(0.999506 0.00437578 -2.10126e-21)
(0.999451 0.00447277 2.10327e-21)
(0.999399 0.00457643 0)
(0.999352 0.00468649 2.08535e-21)
(0.999308 0.00480301 -2.07097e-21)
(0.999269 0.00492419 8.30852e-21)
(0.999234 0.00505057 -8.28417e-21)
(0.999203 0.00518092 6.20666e-21)
(0.999176 0.00531453 -1.03559e-21)
(0.999154 0.00545174 1.02831e-21)
(0.999136 0.00559063 1.02121e-21)
(0.999123 0.00573124 -1.02153e-21)
(0.999114 0.00587325 0)
(0.999109 0.00601529 -1.51494e-21)
(0.999109 0.00615721 1.26602e-21)
(0.999113 0.0062985 1.00646e-21)
(0.999122 0.00643809 4.68628e-23)
(0.999135 0.00657567 9.31883e-23)
(0.999152 0.00671078 1.48712e-21)
(0.999174 0.00684245 -9.90031e-22)
(0.9992 0.0069703 1.96286e-21)
(0.99923 0.00709391 -1.96254e-21)
(0.999264 0.00721246 0)
(0.999303 0.00732555 4.84211e-21)
(0.999345 0.00743271 -3.86959e-21)
(0.999391 0.00753327 3.83256e-21)
(0.999441 0.00762683 -3.83115e-21)
(0.999495 0.00771299 0)
(0.999552 0.00779107 3.77121e-21)
(0.999613 0.00786073 -1.88907e-21)
(0.999678 0.00792168 0)
(0.999746 0.00797313 3.71344e-21)
(0.999817 0.0080151 -3.70917e-21)
(0.999892 0.00804689 1.83953e-21)
(0.99997 0.00806808 1.82979e-21)
(1.00005 0.00807873 5.45456e-21)
(1.00013 0.00807772 6.729e-24)
(1.00022 0.00806553 3.60336e-21)
(1.00031 0.00804107 1.78264e-21)
(1.00041 0.00800349 1.76884e-21)
(1.00051 0.00795043 1.76735e-21)
(0.999966 0.00417876 0)
(0.999858 0.00422301 -4.28641e-21)
(0.999738 0.00428323 -4.27452e-21)
(0.999616 0.00435431 0)
(0.999496 0.00443858 -4.25858e-21)
(0.999381 0.00453491 1.25599e-23)
(0.999271 0.00464287 8.51123e-21)
(0.999167 0.00476323 -2.13142e-21)
(0.99907 0.00489306 -1.30036e-23)
(0.998979 0.00503391 -6.32487e-21)
(0.998894 0.00518351 0)
(0.998816 0.00534158 -6.29041e-21)
(0.998745 0.00550836 2.10229e-21)
(0.998681 0.00568116 0)
(0.998624 0.00586099 -2.08505e-21)
(0.998574 0.00604602 1.06185e-23)
(0.998532 0.00623536 -2.06347e-21)
(0.998496 0.00642965 7.20959e-21)
(0.998468 0.00662601 -1.53498e-23)
(0.998448 0.00682471 -1.03654e-21)
(0.998434 0.00702538 -1.02005e-21)
(0.998428 0.00722599 2.02619e-21)
(0.99843 0.00742654 -2.02648e-21)
(0.998438 0.00762631 -2.50103e-22)
(0.998455 0.00782379 5.18189e-22)
(0.998478 0.00801867 -2.79304e-22)
(0.998508 0.00821039 9.94181e-22)
(0.998546 0.00839752 -9.92122e-22)
(0.998591 0.00857969 9.87382e-22)
(0.998643 0.00875634 1.95708e-21)
(0.998701 0.0089263 -5.85133e-21)
(0.998767 0.00908914 -9.5176e-22)
(0.998839 0.00924421 5.80998e-21)
(0.998917 0.00939061 1.92505e-21)
(0.999002 0.00952789 -3.81608e-21)
(0.999093 0.00965547 3.81379e-21)
(0.99919 0.00977247 9.71346e-24)
(0.999293 0.0098785 5.64605e-21)
(0.999402 0.00997313 -3.76197e-21)
(0.999517 0.0100554 -9.31221e-21)
(0.999637 0.0101253 3.69969e-21)
(0.999763 0.010182 1.83842e-21)
(0.999894 0.0102249 7.30287e-21)
(1.00003 0.0102541 -3.64512e-21)
(1.00017 0.0102682 -1.08339e-23)
(1.00032 0.0102679 -1.18991e-23)
(1.00047 0.0102516 0)
(1.00063 0.0102185 -3.55063e-21)
(1.0008 0.0101681 -3.52021e-21)
(0.999793 0.0040273 0)
(0.999635 0.00409856 -6.48827e-21)
(0.999458 0.00419367 6.47624e-21)
(0.999276 0.00430196 0)
(0.999096 0.00442674 0)
(0.998923 0.00456662 -4.27441e-21)
(0.998758 0.00472124 -3.26979e-24)
(0.998601 0.00489177 -4.27147e-21)
(0.998454 0.00507412 -8.74752e-24)
(0.998316 0.00527075 0)
(0.998189 0.00547841 0)
(0.998071 0.00569693 2.10286e-21)
(0.997964 0.00592672 0)
(0.997868 0.00616403 0)
(0.997782 0.00641051 -2.08888e-21)
(0.997707 0.00666359 4.18792e-21)
(0.997643 0.00692215 2.08452e-21)
(0.99759 0.00718727 0)
(0.997548 0.00745485 2.04714e-21)
(0.997517 0.00772555 -5.14879e-21)
(0.997498 0.00799888 -2.04764e-21)
(0.997489 0.00827204 -2.03479e-21)
(0.997492 0.00854524 2.03498e-21)
(0.997506 0.00881754 1.4305e-24)
(0.997531 0.00908689 1.57781e-23)
(0.997568 0.00935301 2.50022e-22)
(0.997615 0.0096152 -4.99981e-22)
(0.997673 0.00987154 0)
(0.997741 0.0101216 -9.86176e-22)
(0.997821 0.0103648 0)
(0.99791 0.0105995 0)
(0.99801 0.0108252 -1.95043e-21)
(0.99812 0.0110412 -7.73588e-21)
(0.99824 0.0112461 2.54426e-23)
(0.998369 0.0114396 1.92223e-21)
(0.998508 0.0116208 0)
(0.998656 0.0117888 -1.8916e-21)
(0.998813 0.011943 -3.76883e-21)
(0.998979 0.0120828 3.74022e-21)
(0.999153 0.0122072 7.44214e-21)
(0.999336 0.0123161 -7.39629e-21)
(0.999527 0.0124085 -6.57352e-27)
(0.999726 0.0124837 -3.65428e-21)
(0.999933 0.0125419 -3.1028e-24)
(1.00015 0.0125813 0)
(1.00037 0.0126028 -3.58712e-21)
(1.0006 0.0126044 -1.77589e-21)
(1.00084 0.0125854 1.77458e-21)
(1.0011 0.0125481 3.52166e-21)
(0.999504 0.00339953 0)
(0.999283 0.00350968 4.3385e-21)
(0.999036 0.00365137 -1.30351e-20)
(0.99878 0.0038087 0)
(0.998527 0.00398655 0)
(0.998281 0.00418311 -8.63708e-21)
(0.998045 0.00439801 8.59956e-21)
(0.997822 0.00463292 -4.31005e-21)
(0.997611 0.00488239 -8.79162e-24)
(0.997415 0.00514992 4.2771e-21)
(0.997232 0.00543116 0)
(0.997064 0.00572603 0)
(0.99691 0.00603518 4.25385e-21)
(0.996772 0.00635358 0)
(0.996649 0.00668371 0)
(0.996541 0.00702204 -4.19715e-21)
(0.996449 0.00736727 1.6693e-23)
(0.996373 0.00772095 0)
(0.996313 0.00807757 2.06818e-21)
(0.996268 0.00843824 5.16976e-21)
(0.99624 0.00880236 -2.07103e-21)
(0.996227 0.00916621 0)
(0.996231 0.00953028 -1.01868e-21)
(0.996251 0.00989331 1.2724e-21)
(0.996287 0.0102527 -5.54528e-22)
(0.996338 0.0106081 -2.52633e-22)
(0.996406 0.0109588 4.96935e-22)
(0.996489 0.0113021 -9.99524e-22)
(0.996587 0.0116378 0)
(0.996701 0.011965 -3.94786e-21)
(0.996829 0.0122815 5.8833e-21)
(0.996972 0.012587 1.92746e-21)
(0.99713 0.0128804 -9.63811e-24)
(0.997301 0.0131602 1.9224e-21)
(0.997486 0.0134257 -1.93237e-21)
(0.997685 0.0136762 -3.80382e-21)
(0.997897 0.0139102 7.58205e-21)
(0.998122 0.0141272 -3.77214e-21)
(0.998359 0.0143266 7.50194e-21)
(0.998608 0.0145068 3.80082e-24)
(0.998869 0.0146682 7.39479e-21)
(0.999141 0.0148093 -3.67272e-21)
(0.999424 0.0149292 0)
(0.999718 0.0150286 -3.61707e-24)
(1.00002 0.0151049 7.19849e-21)
(1.00034 0.0151596 0)
(1.00067 0.0151899 0)
(1.00101 0.0151956 6.16786e-21)
(1.00137 0.0151829 8.79047e-22)
(0.99906 0.00223893 1.09845e-21)
(0.998764 0.00240181 7.72091e-21)
(0.998431 0.00260335 8.72274e-21)
(0.998085 0.0028238 -8.78527e-21)
(0.997739 0.00306975 0)
(0.997403 0.00333849 -1.22412e-23)
(0.99708 0.00362985 -4.38226e-21)
(0.996773 0.00394617 -4.36584e-21)
(0.996483 0.00428046 1.29909e-20)
(0.996212 0.00463746 -4.3162e-21)
(0.99596 0.00501142 0)
(0.995727 0.0054024 8.59056e-21)
(0.995514 0.00581132 -8.53356e-21)
(0.995323 0.00623161 2.9829e-23)
(0.995151 0.00666673 8.49159e-21)
(0.995001 0.00711206 -2.13249e-21)
(0.994873 0.00756602 -2.0693e-21)
(0.994766 0.00803071 4.20789e-21)
(0.994681 0.00849903 0)
(0.994619 0.00897259 -2.07482e-21)
(0.994578 0.00945058 2.07524e-21)
(0.994559 0.00992832 2.06075e-21)
(0.994563 0.0104065 -2.06069e-21)
(0.994589 0.0108835 2.56927e-22)
(0.994637 0.0113562 3.17008e-23)
(0.994707 0.0118241 7.5758e-22)
(0.994799 0.0122861 -2.9692e-24)
(0.994912 0.0127393 0)
(0.995047 0.0131831 0)
(0.995203 0.0136164 -1.30146e-25)
(0.995379 0.0140367 -1.95434e-21)
(0.995576 0.0144434 3.93e-21)
(0.995792 0.0148352 -3.89633e-21)
(0.996028 0.0152102 3.85923e-21)
(0.996283 0.0155677 -7.71481e-21)
(0.996556 0.0159067 1.87691e-23)
(0.996848 0.0162254 3.8088e-21)
(0.997156 0.0165233 3.76167e-21)
(0.997481 0.0167995 -7.51754e-21)
(0.997823 0.0170523 -7.45502e-21)
(0.99818 0.0172821 -3.70869e-21)
(0.998552 0.0174871 -3.68213e-21)
(0.998939 0.0176664 0)
(0.99934 0.0178207 -3.62051e-21)
(0.999756 0.0179471 -1.29115e-23)
(1.00019 0.0180474 7.12677e-21)
(1.00063 0.0181182 -8.83825e-21)
(1.0011 0.0181597 1.73848e-21)
(1.00159 0.0181838 0)
(0.998416 0.000501122 0)
(0.99802 0.000720272 -8.83815e-21)
(0.997581 0.000987033 0)
(0.997135 0.0012836 8.80004e-21)
(0.996679 0.00161418 4.40528e-21)
(0.99623 0.00197406 -8.80139e-21)
(0.995799 0.00236236 1.31402e-20)
(0.995387 0.00278162 4.35747e-21)
(0.994997 0.00322278 -4.34893e-21)
(0.994632 0.00369214 0)
(0.994292 0.00418247 4.33967e-21)
(0.993977 0.00469408 -8.65257e-21)
(0.993689 0.00522806 4.34543e-21)
(0.993429 0.00577619 -4.28381e-21)
(0.993196 0.00634295 3.40179e-23)
(0.992992 0.0069225 4.28274e-21)
(0.992816 0.00751291 -8.52319e-21)
(0.99267 0.00811684 0)
(0.992552 0.00872544 4.2152e-21)
(0.992465 0.00934087 -4.21513e-21)
(0.992407 0.00996198 -1.04156e-21)
(0.992379 0.0105831 0)
(0.992381 0.011205 1.04225e-21)
(0.992413 0.0118256 2.57672e-22)
(0.992475 0.0124412 -5.46524e-22)
(0.992567 0.0130511 7.65158e-22)
(0.992688 0.0136539 5.03156e-22)
(0.992839 0.014246 -1.01166e-21)
(0.993018 0.0148265 0)
(0.993226 0.0153942 -1.98774e-21)
(0.993462 0.0159459 3.97533e-21)
(0.993725 0.0164809 0)
(0.994015 0.0169975 1.95063e-21)
(0.994331 0.0174934 0)
(0.994673 0.0179676 3.85136e-21)
(0.995039 0.0184189 -7.66583e-21)
(0.995429 0.0188453 3.79202e-21)
(0.995842 0.0192458 -2.57227e-23)
(0.996277 0.0196198 3.72066e-21)
(0.996733 0.0199648 -3.73712e-21)
(0.997209 0.0202817 3.69472e-21)
(0.997705 0.0205681 7.3352e-21)
(0.998219 0.0208231 0)
(0.998752 0.0210477 0)
(0.999303 0.0212382 -7.17966e-21)
(0.999872 0.0213973 -1.42268e-20)
(1.00046 0.0215204 1.41154e-20)
(1.00108 0.0216087 -7.89339e-21)
(1.00173 0.021682 7.80403e-21)
(0.997553 -0.00199932 0)
(0.997026 -0.0016553 9.0343e-21)
(0.996447 -0.00123092 9.01406e-21)
(0.995851 -0.000833439 1.34837e-20)
(0.995253 -0.000443936 -1.34629e-20)
(0.994669 1.90995e-05 -4.45354e-21)
(0.994113 0.000525834 1.34144e-20)
(0.993575 0.00107135 -4.43126e-21)
(0.993063 0.00164556 4.43384e-21)
(0.992579 0.00225522 0)
(0.992128 0.00289123 8.86601e-21)
(0.99171 0.0035539 0)
(0.991326 0.00424437 -4.34729e-21)
(0.990978 0.00495262 -4.39112e-21)
(0.990666 0.00568431 5.65715e-23)
(0.990391 0.00643217 0)
(0.990154 0.0071939 4.32363e-21)
(0.989954 0.00797264 8.61979e-21)
(0.989794 0.00875775 0)
(0.989673 0.00955187 2.12144e-21)
(0.989591 0.0103534 -2.12075e-21)
(0.989549 0.0111554 -2.0999e-21)
(0.989547 0.0119589 2.11158e-21)
(0.989585 0.0127613 -4.57512e-24)
(0.989663 0.0135579 -5.19191e-22)
(0.989781 0.0143477 -2.28241e-22)
(0.989938 0.015129 -5.13058e-22)
(0.990135 0.0158974 1.02194e-21)
(0.99037 0.0166516 0)
(0.990643 0.0173899 2.00059e-21)
(0.990953 0.0181085 -3.98563e-21)
(0.9913 0.0188062 0)
(0.991683 0.0194811 0)
(0.9921 0.02013 3.88778e-21)
(0.992551 0.0207518 -7.74812e-21)
(0.993034 0.0213452 3.86386e-21)
(0.993548 0.0219074 3.82821e-21)
(0.994092 0.0224371 0)
(0.994664 0.0229337 1.12584e-20)
(0.995264 0.0233942 -7.45171e-21)
(0.995889 0.0238197 -3.68405e-21)
(0.996539 0.0242074 8.83806e-26)
(0.997212 0.0245562 -7.26831e-21)
(0.997907 0.0248676 -7.19887e-21)
(0.998624 0.0251371 -7.14069e-21)
(0.999365 0.025368 2.46936e-23)
(1.00013 0.0255548 -3.08275e-23)
(1.00093 0.0256997 0)
(1.00177 0.0258332 -1.38174e-20)
(0.996422 -0.00528632 0)
(0.995739 -0.00485216 2.38169e-21)
(0.994988 -0.00434379 -1.1283e-20)
(0.994204 -0.00380955 -9.01456e-21)
(0.993428 -0.00323416 9.00025e-21)
(0.992669 -0.00258195 4.59241e-21)
(0.991935 -0.00191172 -4.45328e-21)
(0.991232 -0.00124365 0)
(0.990564 -0.000526104 0)
(0.989934 0.000251529 9.02996e-21)
(0.989344 0.00106636 -8.87526e-21)
(0.988795 0.00191586 4.44857e-21)
(0.988288 0.00280022 -4.44489e-21)
(0.987826 0.00370783 4.43628e-21)
(0.987411 0.00464542 4.436e-21)
(0.987043 0.00560403 -4.39658e-21)
(0.986725 0.00658075 -4.34106e-21)
(0.986456 0.00757916 -4.31992e-21)
(0.986238 0.00858679 4.31933e-21)
(0.986071 0.00960661 -4.31825e-21)
(0.985956 0.0106363 0)
(0.985893 0.0116678 2.14668e-21)
(0.985884 0.012702 -2.10935e-21)
(0.985927 0.0137354 1.57948e-21)
(0.986023 0.0147625 0)
(0.986173 0.0157817 1.04049e-21)
(0.986374 0.0167906 0)
(0.986628 0.017784 -1.0208e-21)
(0.986934 0.0187598 1.88245e-23)
(0.987289 0.0197157 1.42077e-23)
(0.987695 0.0206471 4.03315e-21)
(0.988149 0.021552 0)
(0.98865 0.0224281 0)
(0.989197 0.0232712 0)
(0.989787 0.0240797 0)
(0.99042 0.0248522 -7.71291e-21)