/*--------------------------------*- C++ -*----------------------------------*\
| =========                 |                                                 |
| \\      /  F ield         | OpenFOAM: The Open Source CFD Toolbox           |
|  \\    /   O peration     | Version:  2312                                  |
|   \\  /    A nd           | Website:  www.openfoam.com                      |
|    \\/     M anipulation  |                                                 |
\*---------------------------------------------------------------------------*/
FoamFile
{
    version     2.0;
    format      ascii;
    arch        "LSB;label=32;scalar=64";
    class       surfaceScalarField;
    location    "20.540800596077528";
    object      phi;
}
// * * * * * * * * * * * * * * * * * * * * * * * * * * * * * * * * * * * * * //

dimensions      [0 3 -1 0 0 0 0];

oriented        oriented;

internalField   nonuniform List<scalar> 
41713
(
0.00736046
0.056886
0.00362565
0.0679812
0.00211413
0.065758
0.00148105
0.0648795
0.0010949
0.0646326
0.000840496
0.0645008
0.000665147
0.0644218
0.00053793
0.0643737
0.000442236
0.0643421
0.000368411
0.0643203
0.000310329
0.0643045
0.000263936
0.0642928
0.00022647
0.0642839
0.00019599
0.0642769
0.000171104
0.0642713
0.000150792
0.0642667
0.000134289
0.0642629
0.00012101
0.0642597
0.000110496
0.064257
0.000102362
0.0642546
9.62465e-05
0.0642526
9.17823e-05
0.0642509
8.86833e-05
0.0642495
8.65901e-05
0.0548133
8.48209e-05
0.0456777
8.31528e-05
0.038065
8.159e-05
0.031721
8.01571e-05
0.0264343
0.0220287
7.88294e-05
0.00998787
0.0468981
0.00841819
0.0695509
0.00570603
0.0684701
0.00411187
0.0664737
0.00311048
0.065634
0.00241846
0.0651929
0.00192004
0.0649202
0.00154978
0.0647439
0.00126736
0.0646245
0.001047
0.0645406
0.000871758
0.0644798
0.00073026
0.0644343
0.000614666
0.0643995
0.000519442
0.0643721
0.000440603
0.0643502
0.000375233
0.0643321
0.000321161
0.064317
0.000276746
0.0643041
0.000240722
0.064293
0.000212091
0.0642832
0.000190034
0.0642746
0.000173832
0.0642671
0.000162755
0.0642606
0.000156446
0.0548196
0.00015281
0.0456814
0.000150506
0.0380673
0.000148771
0.0317227
0.000147238
0.0264358
0.02203
0.000145922
0.00858595
0.0383122
0.00969005
0.0684468
0.00745063
0.0707095
0.00568111
0.0682432
0.00449153
0.0668236
0.00360491
0.0660795
0.00292122
0.0656039
0.00238886
0.0652763
0.00196916
0.0650443
0.00163356
0.0648762
0.00136163
0.0647517
0.00113876
0.0646572
0.000954424
0.0645838
0.000800925
0.0645256
0.000672609
0.0644785
0.000565267
0.0644395
0.000475736
0.0644065
0.000401615
0.0643783
0.000341058
0.0643535
0.000292622
0.0643316
0.000255156
0.0643121
0.000227697
0.0642946
0.000209268
0.064279
0.000199417
0.0548294
0.000194461
0.0456863
0.00019193
0.0380698
0.000190395
0.0317243
0.000189174
0.026437
0.022031
0.000188182
0.00676208
0.0315501
0.00944781
0.0657611
0.00808878
0.0720686
0.00640829
0.0699237
0.00521579
0.0680161
0.00430833
0.0669869
0.00357495
0.0663373
0.00297637
0.0658749
0.00248542
0.0655352
0.00208011
0.0652815
0.00174317
0.0650886
0.00146124
0.0649391
0.00122405
0.064821
0.00102373
0.064726
0.000854255
0.064648
0.000711027
0.0645827
0.000590517
0.0645271
0.000490011
0.0644788
0.000407411
0.0644361
0.000341074
0.064398
0.0002897
0.0643634
0.000252207
0.0643321
0.000227416
0.0643038
0.000214695
0.0548421
0.000208857
0.0456922
0.000206394
0.0380723
0.000205309
0.0317253
0.000204693
0.0264377
0.0220313
0.000204384
0.00505034
0.0264997
0.00853368
0.0622778
0.00813582
0.0724664
0.00669015
0.0713694
0.00553304
0.0691732
0.00465417
0.0678658
0.00393291
0.0670585
0.00332574
0.066482
0.00281173
0.0660492
0.00237498
0.0657183
0.00200257
0.065461
0.00168404
0.0652576
0.00141095
0.0650941
0.00117656
0.0649603
0.000975547
0.064849
0.000803682
0.0647546
0.000657665
0.0646731
0.000534915
0.0646015
0.00043342
0.0645376
0.000351604
0.0644798
0.000288219
0.0644268
0.0002422
0.0643781
0.000212279
0.0643338
0.000197637
0.0548568
0.000191684
0.0456981
0.000189957
0.038074
0.000189959
0.0317253
0.000190558
0.0264371
0.0220304
0.000191478
0.00360204
0.0228977
0.00726725
0.0586126
0.00772298
0.0720107
0.00665969
0.0724326
0.00559649
0.0702364
0.00476719
0.0686951
0.00408153
0.0677442
0.0034918
0.0670718
0.00298021
0.0665608
0.00253529
0.0661632
0.00214757
0.0658488
0.00180926
0.065596
0.00151396
0.0653894
0.00125646
0.0652178
0.00103252
0.0650729
0.000838756
0.0649483
0.000672449
0.0648394
0.000531478
0.0647425
0.000414189
0.0646549
0.000319299
0.0645747
0.000245803
0.0645003
0.000192825
0.0644311
0.00015914
0.0643674
0.000143719
0.0548722
0.000138622
0.0457032
0.000138495
0.0380741
0.000140357
0.0317235
0.0001429
0.0264345
0.0220276
0.000145742
0.00250522
0.0203925
0.00596805
0.0551497
0.00702422
0.0709545
0.00638653
0.0730703
0.00547137
0.0711515
0.00471124
0.0694552
0.00407564
0.0683798
0.00351832
0.0676291
0.00302366
0.0670554
0.00258411
0.0666028
0.00219344
0.0662394
0.00184633
0.0659431
0.0015383
0.0656974
0.00126566
0.0654905
0.00102536
0.0653132
0.000814972
0.0651587
0.000632557
0.0650218
0.000476629
0.0648984
0.000346074
0.0647855
0.000240079
0.0646807
0.000158054
0.0645824
9.95057e-05
0.0644896
6.33938e-05
0.0644036
4.82208e-05
0.0548874
4.4882e-05
0.0457066
4.71713e-05
0.0380718
5.16475e-05
0.031719
5.67492e-05
0.0264294
0.0220222
6.21092e-05
0.00173965
0.0186528
0.00483171
0.0520577
0.00623441
0.0695518
0.00597384
0.0733309
0.0052241
0.0719013
0.00453811
0.0701412
0.0039557
0.0689622
0.00343737
0.0681474
0.00296755
0.0675253
0.00254128
0.067029
0.00215514
0.0666256
0.00180606
0.0662922
0.00149137
0.0660121
0.0012088
0.0657731
0.000956528
0.0655655
0.00073308
0.0653822
0.000537371
0.0652175
0.000368644
0.0650671
0.000226444
0.0649277
0.000110545
0.0647966
2.08409e-05
0.0646721
-4.28224e-05
0.0645533
-8.10607e-05
0.0644418
-9.54788e-05
0.0549018
-9.64734e-05
0.0457076
-9.1087e-05
0.0380665
-8.32057e-05
0.0317111
-7.46593e-05
0.0264209
0.0220137
-6.61505e-05
0.00122754
0.0174253
0.00390639
0.0493788
0.00546802
0.0679902
0.00550615
0.0732928
0.00491593
0.0724915
0.00429836
0.0707588
0.00376181
0.0694988
0.00327978
0.0686294
0.0028357
0.0679693
0.00242534
0.0674394
0.00204703
0.0670039
0.00169941
0.0666398
0.00138129
0.0663303
0.00109166
0.0660627
0.000829774
0.0658274
0.000595123
0.0656168
0.000387462
0.0654252
0.00020681
0.0652478
5.33635e-05
0.0650811
-7.25187e-05
0.0649225
-0.000170255
0.0647698
-0.000239228
0.0646222
-0.00027957
0.0644821
-0.000293055
0.0549153
-0.000291262
0.0457058
-0.000282111
0.0380573
-0.000270003
0.031699
-0.000257041
0.0264079
0.0220007
-0.000244068
0.000891841
0.0165334
0.00317295
0.0470977
0.00476845
0.0663947
0.00502779
0.0730334
0.00458265
0.0729366
0.00402666
0.0713148
0.00352595
0.0699995
0.00307265
0.0690827
0.00265027
0.0683917
0.00225412
0.0678356
0.00188331
0.0673747
0.00153754
0.0669855
0.00121666
0.0666511
0.000920636
0.0663587
0.000649617
0.0660984
0.000403944
0.0658625
0.000184149
0.065645
-9.09077e-06
0.065441
-0.000174895
0.0652469
-0.000312073
0.0650596
-0.000419223
0.0648769
-0.000495001
0.064698
-0.000538889
0.064526
-0.000552366
0.0549288
-0.000548194
0.0457016
-0.000535209
0.0380443
-0.000518441
0.0316823
-0.000500445
0.0263899
0.0219827
-0.000482428
0.000672858
0.0158606
0.00259787
0.0451727
0.00414816
0.0648444
0.00456021
0.0726214
0.00424117
0.0732557
0.00374098
0.071815
0.00326774
0.0704727
0.00283507
0.0695154
0.0024285
0.0687983
0.00204261
0.0682215
0.00167666
0.0677406
0.00133093
0.0673313
0.00100592
0.0669762
0.000702302
0.0666623
0.000420923
0.0663798
0.000162779
0.0661206
-7.1014e-05
0.0658788
-0.000279106
0.0656491
-0.000459781
0.0654276
-0.000611016
0.0652109
-0.000730592
0.0649965
-0.000816326
0.0647837
-0.000866891
0.0645766
-0.000882827
0.0549447
-0.000877969
0.0456967
-0.000862136
0.0380285
-0.000841085
0.0316612
-0.000817946
0.0263668
0.0219592
-0.000794433
0.00052708
0.0153335
0.00214691
0.0435529
0.00360652
0.0633848
0.00411519
0.0721127
0.00390106
0.0734698
0.00345092
0.0722651
0.00299861
0.070925
0.00257934
0.0699347
0.00218258
0.069195
0.00180227
0.0686018
0.00143745
0.0681054
0.00108865
0.0676801
0.000756787
0.067308
0.000442984
0.0669761
0.000148544
0.0666742
-0.000125113
0.0663943
-0.000376294
0.0661299
-0.000602898
0.0658757
-0.000802456
0.0656272
-0.000972184
0.0653806
-0.00110903
0.0651334
-0.00120993
0.0648847
-0.00127265
0.0646393
-0.00129572
0.0549678
-0.00129379
0.0456948
-0.00127763
0.0380123
-0.00125386
0.0316374
-0.00122638
0.0263393
0.0219304
-0.00119764
0.000425325
0.0149082
0.00178972
0.0421885
0.00313636
0.0620381
0.00369875
0.0715503
0.00356869
0.0735999
0.00316265
0.0726712
0.00272615
0.0713615
0.00231413
0.0703467
0.0019215
0.0695877
0.00154196
0.0689813
0.00117413
0.0684733
0.000818534
0.0680357
0.000476253
0.0676503
0.000148636
0.0673037
-0.00016281
0.0669856
-0.000456259
0.0666877
-0.000729416
0.0664031
-0.000979566
0.0661259
-0.0012036
0.0658512
-0.00139803
0.065575
-0.00155901
0.0652944
-0.00168269
0.0650083
-0.00176598
0.0647226
-0.00180399
0.0550058
-0.00181157
0.0457024
-0.0018002
0.038001
-0.00177733
0.0316146
-0.00174784
0.0263098
0.0218978
-0.00171523
0.000349935
0.0145582
0.0015024
0.041036
0.00272816
0.0608124
0.00331286
0.0709656
0.00324812
0.0736646
0.00288044
0.0730389
0.00245589
0.0717861
0.00204615
0.0707564
0.0016526
0.0699812
0.00126926
0.0693647
0.000894228
0.0688483
0.000527804
0.0684021
0.000171005
0.0680071
-0.000174869
0.0676496
-0.000508142
0.0673189
-0.00082659
0.0670062
-0.0011275
0.066704
-0.00140768
0.0664061
-0.00166345
0.066107
-0.00189064
0.0658022
-0.00208474
0.0654885
-0.00224131
0.0651649
-0.00235691
0.0648382
-0.00242162
0.0550705
-0.00244964
0.0457304
-0.00245238
0.0380037
-0.00243768
0.0315999
-0.00241148
0.0262836
0.0218651
-0.0023787
0.000290823
0.0142674
0.00126907
0.0400578
0.00237551
0.0597059
0.00295942
0.0703817
0.00294248
0.0736815
0.00260695
0.0733744
0.00219133
0.0722017
0.00178013
0.0711676
0.00138148
0.0703799
0.000990265
0.0697559
0.000604087
0.0692345
0.000222844
0.0687833
-0.000152787
0.0683827
-0.000521613
0.0680184
-0.000881813
0.0676791
-0.00123099
0.0673554
-0.00156617
0.0670392
-0.00188377
0.0667237
-0.00217957
0.0664028
-0.00244876
0.0660714
-0.00268627
0.065726
-0.00288746
0.0653661
-0.00304964
0.0650004
-0.00315733
0.0551782
-0.00322363
0.0457967
-0.00325829
0.0380384
-0.00326735
0.0316089
-0.0032562
0.0262725
0.0218399
-0.00323105
0.000209112
0.0140583
0.000919746
0.0393471
0.00176412
0.0588616
0.0022448
0.069901
0.00225743
0.0736689
0.00199547
0.0736364
0.00165046
0.0725467
0.00130097
0.0715171
0.000958823
0.070722
0.00062058
0.0700941
0.000283817
0.0695712
-5.20629e-05
0.0691192
-0.000386818
0.0687175
-0.000719615
0.0683512
-0.00104904
0.0680085
-0.00137315
0.0676795
-0.00168942
0.0673554
-0.00199462
0.0670289
-0.00228481
0.0666929
-0.00255532
0.0663419
-0.00280108
0.0659717
-0.00301763
0.0655826
-0.0032033
0.065186
-0.00334064
0.0553155
-0.00344221
0.0458983
-0.00351582
0.038112
-0.00356334
0.0316564
-0.00358531
0.0262944
0.0218405
-0.00358594
0.00015373
0.0139046
0.000677367
0.0388235
0.00132285
0.0582161
0.0017117
0.0695122
0.00173667
0.0736439
0.00153084
0.0738422
0.00124631
0.0728312
0.00095255
0.0718109
0.000662562
0.071012
0.000374005
0.0703827
8.4509e-05
0.0698607
-0.000206878
0.0694106
-0.000500251
0.0690109
-0.000795148
0.0686461
-0.00109069
0.0683041
-0.00138553
0.0679743
-0.00167772
0.0676476
-0.00196468
0.0673158
-0.00224302
0.0669713
-0.00250847
0.0666074
-0.00275605
0.0662193
-0.00298092
0.0658075
-0.00318052
0.0653856
-0.00333487
0.0554699
-0.0034588
0.0460222
-0.00356442
0.0382176
-0.00365678
0.0317488
-0.00373386
0.0263715
0.0218891
-0.00378241
0.000117057
0.0137875
0.000511258
0.0384293
0.00101088
0.0577165
0.00132498
0.0691981
0.00135371
0.0736152
0.00119031
0.0740056
0.000955653
0.0730659
0.000709531
0.072057
0.000464723
0.0712568
0.000219648
0.0706277
-2.79294e-05
0.0701083
-0.000279077
0.0696617
-0.000534141
0.0692659
-0.000793046
0.068905
-0.00105538
0.0685664
-0.00132036
0.0682393
-0.0015867
0.067914
-0.00185253
0.0675817
-0.00211522
0.067234
-0.00237125
0.0668634
-0.00261609
0.0664641
-0.00284462
0.066036
-0.00305201
0.065593
-0.00321173
0.0556296
-0.00333665
0.0461471
-0.00344441
0.0383254
-0.00354941
0.0318538
-0.00366931
0.0264914
0.0220352
-0.00381546
8.84334e-05
0.0136991
0.00039311
0.0381246
0.000788306
0.0573213
0.00104423
0.0689421
0.00107112
0.0735883
0.000937877
0.0741388
0.000742957
0.0732608
0.000537084
0.0722629
0.000331303
0.0714626
0.000124128
0.0708349
-8.65151e-05
0.070319
-0.000301668
0.0698769
-0.00052182
0.0694861
-0.000747189
0.0691304
-0.000977749
0.068797
-0.0012132
0.0684747
-0.00145288
0.0681537
-0.00169563
0.0678244
-0.00193967
0.067478
-0.00218248
0.0671062
-0.00242073
0.0667024
-0.00265048
0.0662658
-0.00286662
0.0658092
-0.00303562
0.0557986
-0.00315895
0.0462705
-0.00324453
0.0384109
-0.00330289
0.0319122
-0.00335158
0.0265401
-0.0035267
0.0222103
0.000123635
0.0219825
0.000165918
0.0219851
0.000199256
0.021994
0.000230247
0.0219964
0.000255417
0.0220022
0.000276053
0.0220067
0.000293656
0.0220098
0.000304937
0.0220161
0.000314208
0.0220181
0.000318454
0.0220231
0.000319627
0.0220262
0.000318267
0.0220287
0.000312458
0.0220332
0.00030504
0.0220348
0.000294363
0.022038
0.000281373
0.0220403
0.000267038
0.0220417
0.000249716
0.0220447
0.000231318
0.0220458
0.000211669
0.022047
0.000190446
0.0220486
0.000168594
0.0220492
0.00014606
0.0220499
0.000123005
0.0220504
9.9826e-05
0.0220505
7.66913e-05
0.0220505
5.39871e-05
0.0220501
3.17093e-05
0.0220496
1.01792e-05
0.0220489
-9.96277e-06
0.0220475
-2.92158e-05
0.0220466
-4.67482e-05
0.0220449
-6.2256e-05
0.0220429
-7.65058e-05
0.0220416
-8.74561e-05
0.0220383
-9.64325e-05
0.0220363
-0.000103127
0.0220341
-0.000105644
0.0220299
-0.000106378
0.0220281
-0.000102434
0.0220234
-9.53295e-05
0.0220203
-8.50981e-05
0.0220171
-6.90612e-05
0.0220113
-5.08615e-05
0.0220092
-2.59377e-05
0.0220024
2.43319e-06
0.021999
3.56176e-05
0.0219942
7.51646e-05
0.0219878
0.0219853
0.000117217
0.000190819
0.0219377
0.000233416
0.0219425
0.000267297
0.0219601
0.000299067
0.0219646
0.000325262
0.021976
0.000347164
0.0219848
0.000366261
0.0219907
0.000379264
0.0220031
0.00039046
0.0220069
0.00039683
0.0220167
0.000400309
0.0220227
0.000401422
0.0220276
0.000398247
0.0220363
0.000393598
0.0220394
0.000385824
0.0220458
0.000375851
0.0220503
0.000364627
0.0220529
0.000350513
0.0220588
0.000335391
0.0220609
0.000319077
0.0220633
0.000301239
0.0220664
0.000282801
0.0220676
0.0002637
0.022069
0.000244087
0.02207
0.000224339
0.0220703
0.000204612
0.0220702
0.000185288
0.0220694
0.000166339
0.0220686
0.000148078
0.0220671
0.000131141
0.0220644
0.000115
0.0220627
0.000100485
0.0220594
8.78823e-05
0.0220555
7.64017e-05
0.0220531
6.80898e-05
0.0220466
6.15919e-05
0.0220428
5.72044e-05
0.0220384
5.68239e-05
0.0220303
5.80234e-05
0.0220269
6.37033e-05
0.0220177
7.23228e-05
0.0220116
8.38343e-05
0.0220056
0.000100918
0.0219942
0.000119898
0.0219902
0.000145345
0.021977
0.000173948
0.0219704
0.000207058
0.0219611
0.000246201
0.0219487
0.021944
0.000287494
0.00023349
0.0218923
0.000276714
0.0218993
0.000311476
0.0219254
0.000344382
0.0219317
0.000371967
0.0219484
0.000395505
0.0219613
0.000416468
0.0219697
0.000431562
0.021988
0.000445056
0.0219934
0.000453923
0.0220079
0.000460083
0.0220165
0.000464046
0.0220236
0.000463883
0.0220365
0.000462387
0.0220409
0.000457899
0.0220503
0.00045133
0.0220569
0.000443609
0.0220606
0.000433094
0.0220693
0.000421644
0.0220723
0.000409062
0.0220759
0.000395009
0.0220805
0.000380386
0.0220823
0.00036512
0.0220843
0.000349352
0.0220858
0.000333437
0.0220862
0.000317522
0.0220861
0.00030198
0.0220849
0.000286759
0.0220838
0.000272163
0.0220817
0.000258819
0.0220778
0.000246177
0.0220754
0.000235059
0.0220705
0.00022574
0.0220648
0.000217406
0.0220614
0.000212107
0.0220519
0.000208462
0.0220465
0.000206754
0.0220401
0.00020888
0.0220281
0.000212381
0.0220234
0.000220162
0.02201
0.00023066
0.0220011
0.000243811
0.0219925
0.000262297
0.0219757
0.000282406
0.0219701
0.00030872
0.0219507
0.000337894
0.0219412
0.000371271
0.0219277
0.000410365
0.0219096
0.0219031
0.000451249
0.000250672
0.0218461
0.000295078
0.0218548
0.000331258
0.0218892
0.000365839
0.0218971
0.000395357
0.0219189
0.000421081
0.0219356
0.000444479
0.0219463
0.000462244
0.0219702
0.00047863
0.021977
0.000490603
0.0219959
0.000500064
0.0220071
0.00050751
0.0220162
0.000511001
0.022033
0.000513313
0.0220386
0.000512774
0.0220508
0.000510279
0.0220594
0.000506742
0.0220642
0.00050051
0.0220755
0.000493422
0.0220794
0.000485267
0.0220841
0.000475695
0.02209
0.000465587
0.0220924
0.000454856
0.022095
0.000443632
0.022097
0.00043225
0.0220976
0.000420844
0.0220975
0.000409776
0.022096
0.000398974
0.0220946
0.000388728
0.022092
0.000379657
0.0220868
0.000371188
0.0220839
0.000364134
0.0220776
0.000358759
0.0220702
0.000354224
0.022066
0.000352581
0.0220536
0.000352424
0.0220466
0.000354025
0.0220385
0.000359277
0.0220229
0.000365693
0.022017
0.000376182
0.0219995
0.000389158
0.0219882
0.000404544
0.0219771
0.000425024
0.0219553
0.000446854
0.0219482
0.000474624
0.0219229
0.000504959
0.0219109
0.000539191
0.0218935
0.000578828
0.0218699
0.0218621
0.0006199
0.000239517
0.021798
0.000285866
0.0218085
0.000324223
0.0218508
0.000361244
0.0218601
0.00039347
0.0218867
0.00042217
0.0219069
0.000448805
0.0219197
0.000470056
0.021949
0.000490171
0.0219569
0.000506098
0.02198
0.000519727
0.0219935
0.000531541
0.0220044
0.000539583
0.022025
0.000546616
0.0220316
0.00055095
0.0220465
0.000553467
0.0220569
0.000555063
0.0220626
0.000554071
0.0220765
0.000552312
0.0220812
0.000549557
0.0220868
0.000545445
0.0220942
0.000540835
0.022097
0.000535624
0.0221002
0.000529931
0.0221027
0.000524069
0.0221034
0.000518155
0.0221035
0.000512542
0.0221016
0.000507135
0.0221
0.00050221
0.0220969
0.000498376
0.0220907
0.000495034
0.0220872
0.000492991
0.0220796
0.000492494
0.0220707
0.000492683
0.0220658
0.00049561
0.0220506
0.000499844
0.0220424
0.000505642
0.0220327
0.000514899
0.0220136
0.000525097
0.0220068
0.000539151
0.0219854
0.000555451
0.0219719
0.000573909
0.0219586
0.000597213
0.021932
0.000621586
0.0219239
0.000651634
0.0218929
0.00068395
0.0218786
0.000719863
0.0218575
0.000760872
0.0218289
0.02182
0.000802962
0.000196495
0.0217473
0.000245771
0.0217592
0.000287278
0.0218093
0.000327713
0.0218197
0.000363638
0.0218507
0.000396332
0.0218742
0.00042725
0.0218887
0.000453056
0.0219232
0.000477997
0.021932
0.000498997
0.021959
0.000517939
0.0219745
0.000535289
0.021987
0.00054907
0.0220112
0.000562033
0.0220186
0.000572469
0.0220361
0.000581243
0.0220481
0.000589233
0.0220546
0.000594753
0.022071
0.000599608
0.0220763
0.00060355
0.0220829
0.000606199
0.0220915
0.000608394
0.0220948
0.000610017
0.0220986
0.000611165
0.0221016
0.000612134
0.0221025
0.000613022
0.0221026
0.000614167
0.0221005
0.00061545
0.0220987
0.000617132
0.0220952
0.000619808
0.022088
0.000622856
0.0220842
0.000627069
0.0220754
0.000632681
0.022065
0.000638807
0.0220596
0.000647498
0.0220419
0.000657297
0.0220326
0.000668448
0.0220216
0.000682844
0.0219992
0.000697936
0.0219917
0.000716647
0.0219667
0.000737345
0.0219512
0.000759928
0.021936
0.000787093
0.0219048
0.000815026
0.0218959
0.000848355
0.0218595
0.00088364
0.0218433
0.000922205
0.021819
0.000965546
0.0217856
0.0217759
0.0010096
0.000116812
0.0216926
0.000170158
0.0217059
0.000215979
0.0217635
0.000261123
0.0217745
0.000302057
0.0218098
0.000340043
0.0218362
0.000376561
0.0218522
0.000408273
0.0218914
0.000439434
0.0219008
0.000466938
0.0219315
0.000492657
0.0219488
0.000517041
0.0219626
0.000538088
0.0219901
0.000558539
0.0219982
0.000576661
0.0220179
0.000593299
0.0220315
0.000609314
0.0220386
0.000622995
0.0220573
0.000636131
0.0220632
0.000648449
0.0220705
0.000659549
0.0220804
0.00067025
0.0220841
0.000680409
0.0220884
0.000690105
0.0220919
0.000699608
0.022093
0.000708997
0.0220932
0.000718591
0.0220909
0.000728244
0.0220891
0.000738198
0.0220853
0.000749032
0.0220772
0.000760095
0.0220731
0.000772168
0.0220633
0.000785465
0.0220517
0.000799074
0.022046
0.000815046
0.022026
0.000831892
0.0220158
0.000849842
0.0220036
0.00087079
0.0219783
0.00089215
0.0219703
0.000916857
0.021942
0.000943251
0.0219248
0.000971219
0.0219081
0.00100347
0.0218725
0.00103615
0.0218633
0.00107391
0.0218218
0.00111328
0.0218039
0.00115559
0.0217767
0.00120231
0.0217389
0.0217289
0.00124934
-7.00335e-06
0.0216334
5.1911e-05
0.021647
0.000104012
0.0217114
0.000155769
0.0217228
0.000203216
0.0217624
0.000248146
0.0217912
0.000292039
0.0218083
0.000331441
0.021852
0.000370604
0.0218616
0.000406411
0.0218957
0.000440749
0.0219145
0.000474056
0.0219293
0.000504296
0.0219599
0.000534205
0.0219682
0.000562017
0.0219901
0.00058856
0.0220049
0.000614674
0.0220125
0.000638616
0.0220334
0.000662158
0.0220396
0.000685
0.0220477
0.000706715
0.0220587
0.000728097
0.0220627
0.000748977
0.0220675
0.000769409
0.0220714
0.000789633
0.0220727
0.000809701
0.0220731
0.00082991
0.0220707
0.000850084
0.0220689
0.000870436
0.0220649
0.000891529
0.0220561
0.000912675
0.0220519
0.000934639
0.0220414
0.000957612
0.0220288
0.000980646
0.022023
0.0010058
0.0220008
0.00103153
0.02199
0.00105807
0.0219771
0.0010873
0.021949
0.0011166
0.021941
0.00114891
0.0219097
0.00118255
0.0218911
0.00121739
0.0218732
0.00125615
0.0218338
0.00129494
0.0218245
0.00133844
0.0217783
0.00138314
0.0217592
0.00143036
0.0217295
0.0014816
0.0216876
0.0216778
0.00153266
-0.000178046
0.0215674
-0.00011273
0.0215816
-5.43809e-05
0.0216531
4.07531e-06
0.0216643
6.0199e-05
0.0217062
0.000114387
0.0217371
0.000167884
0.0217548
0.000216973
0.021803
0.000266251
0.0218124
0.000312614
0.0218493
0.000357881
0.0218692
0.000402456
0.0218848
0.000444277
0.0219181
0.000486093
0.0219264
0.000526096
0.0219501
0.000565097
0.0219659
0.000603915
0.0219736
0.000640763
0.0219965
0.000677397
0.022003
0.000713484
0.0220116
0.000748561
0.0220236
0.000783395
0.0220279
0.000817781
0.0220332
0.00085174
0.0220375
0.000885476
0.022039
0.000919007
0.0220396
0.000952601
0.0220371
0.000986036
0.0220355
0.0010195
0.0220315
0.00105352
0.0220221
0.00108737
0.0220181
0.00112179
0.022007
0.00115694
0.0219936
0.00119183
0.0219881
0.00122852
0.0219641
0.00126542
0.0219531
0.00130273
0.0219398
0.00134234
0.0219094
0.00138158
0.0219018
0.0014234
0.0218678
0.0014661
0.0218484
0.00150951
0.0218298
0.0015564
0.0217869
0.0016028
0.0217781
0.00165346
0.0217276
0.00170481
0.0217079
0.00175817
0.0216761
0.00181506
0.0216307
0.0216217
0.0018712
-0.000408363
0.0214933
-0.000334044
0.0215073
-0.000265874
0.0215849
-0.000196962
0.0215954
-0.000131437
0.0216407
-6.75809e-05
0.0216732
-3.72004e-06
0.021691
5.73731e-05
0.0217419
0.000119466
0.0217503
0.000179061
0.0217897
0.000237845
0.0218104
0.000296436
0.0218262
0.000352736
0.0218618
0.000409468
0.0218697
0.000464759
0.0218948
0.000519399
0.0219113
0.000574182
0.0219189
0.000627269
0.0219435
0.000680397
0.0219499
0.000733186
0.0219588
0.000785132
0.0219717
0.000836961
0.021976
0.000888421
0.0219817
0.000939491
0.0219864
0.000990327
0.0219882
0.0010409
0.021989
0.00109143
0.0219865
0.00114165
0.0219852
0.00119169
0.0219814
0.00124206
0.0219717
0.00129195
0.0219682
0.00134208
0.0219568
0.00139257
0.0219431
0.00144236
0.0219383
0.00149352
0.021913
0.0015444
0.0219022
0.00159516
0.021889
0.0016477
0.0218569
0.00169927
0.0218502
0.00175286
0.0218143
0.00180671
0.0217946
0.00186064
0.0217759
0.00191746
0.0217301
0.00197311
0.0217224
0.00203243
0.0216683
0.00209177
0.0216485
0.00215248
0.0216154
0.00221609
0.0215671
0.0215595
0.00227823
-0.000710725
0.0214096
-0.000626019
0.0214226
-0.000546869
0.0215057
-0.000466201
0.0215147
-0.000387575
0.0215621
-0.000309675
0.0215953
-0.000231062
0.0216124
-0.000155686
0.0216665
-7.89344e-05
0.0216735
-3.93947e-06
0.0217147
7.15942e-05
0.0217349
0.000147641
0.0217501
0.000221914
0.0217875
0.00029718
0.0217944
0.00037155
0.0218205
0.000445785
0.021837
0.000520639
0.021844
0.000594187
0.0218699
0.000668141
0.0218759
0.00074206
0.0218849
0.000815378
0.0218983
0.000888769
0.0219027
0.000961916
0.0219085
0.00103474
0.0219136
0.00110732
0.0219156
0.00117957
0.0219168
0.00125166
0.0219144
0.00132322
0.0219137
0.00139434
0.0219103
0.00146546
0.0219006
0.00153569
0.021898
0.00160571
0.0218868
0.00167557
0.0218733
0.00174413
0.0218697
0.00181347
0.0218436
0.00188182
0.0218339
0.00194932
0.0218215
0.00201788
0.0217883
0.00208464
0.0217835
0.00215264
0.0217462
0.00222005
0.0217272
0.00228668
0.0217093
0.00235538
0.0216614
0.002422
0.0216558
0.00249148
0.0215988
0.0025601
0.0215799
0.00262923
0.0215462
0.00270043
0.0214959
0.0214907
0.00276925
-0.00110298
0.021315
-0.00100618
0.0213258
-0.000913949
0.0214135
-0.000819142
0.0214199
-0.000725488
0.0214684
-0.000631625
0.0215014
-0.000536018
0.0215168
-0.00044228
0.0215727
-0.000345959
0.0215772
-0.000250521
0.0216193
-0.00015432
0.0216387
-5.6839e-05
0.0216526
3.97098e-05
0.021691
0.0001381
0.021696
0.000236298
0.0217223
0.000335174
0.0217382
0.00043533
0.0217438
0.000534766
0.0217705
0.000635151
0.0217755
0.00073595
0.0217841
0.000836516
0.0217978
0.000937442
0.0218017
0.00103832
0.0218077
0.001139
0.0218129
0.00123945
0.0218151
0.00133949
0.0218167
0.00143922
0.0218147
0.00153814
0.0218148
0.00163624
0.0218122
0.00173391
0.0218029
0.00183012
0.0218018
0.00192546
0.0217915
0.00201993
0.0217788
0.00211224
0.0217774
0.00220446
0.0217514
0.00229472
0.0217436
0.00238307
0.0217332
0.00247145
0.0216999
0.00255683
0.0216981
0.00264236
0.0216607
0.00272608
0.0216435
0.00280779
0.0216275
0.00289043
0.0215787
0.00296972
0.0215765
0.00305075
0.0215178
0.0031297
0.0215009
0.00320801
0.0214679
0.00328728
0.0214167
0.0214151
0.00336294
-0.00160875
0.0212085
-0.00149851
0.0212156
-0.0013915
0.0213065
-0.0012804
0.0213088
-0.00116903
0.0213571
-0.00105603
0.0213884
-0.000939862
0.0214006
-0.000824309
0.0214572
-0.000704802
0.0214577
-0.000584881
0.0214994
-0.000462631
0.0215164
-0.000337779
0.0215278
-0.000212744
0.0215659
-8.47582e-05
0.0215681
4.40029e-05
0.0215935
0.000174001
0.0216082
0.000306271
0.0216116
0.000438724
0.021638
0.000572898
0.0216414
0.000708148
0.0216489
0.000843709
0.0216622
0.000980067
0.0216654
0.0011167
0.021671
0.00125333
0.0216763
0.00138981
0.0216787
0.0015258
0.0216807
0.0016613
0.0216792
0.00179562
0.0216804
0.00192863
0.0216792
0.00206059
0.0216709
0.00219026
0.0216721
0.00231816
0.0216636
0.00244414
0.0216528
0.00256671
0.0216549
0.00268796
0.0216302
0.00280579
0.0216258
0.00292019
0.0216188
0.00303309
0.021587
0.00314127
0.0215899
0.00324796
0.021554
0.00335109
0.0215403
0.00345045
0.0215282
0.00354907
0.0214801
0.00364253
0.021483
0.00373615
0.0214241
0.00382601
0.0214111
0.00391362
0.0213803
0.00400071
0.0213296
0.0213332
0.00408258
-0.00226092
0.0210907
-0.00213708
0.0210917
-0.00201453
0.021184
-0.00188557
0.0211798
-0.00175418
0.0212257
-0.00161893
0.0212532
-0.0014782
0.0212599
-0.00133598
0.021315
-0.00118759
0.0213093
-0.00103684
0.0213486
-0.000881881
0.0213615
-0.000722555
0.0213685
-0.000561478
0.0214048
-0.000395905
0.0214025
-0.000228153
0.0214258
-5.75523e-05
0.0214376
0.000116051
0.021438
0.000290526
0.0214635
0.00046811
0.0214638
0.000647691
0.0214693
0.000828443
0.0214815
0.0010107
0.0214831
0.00119379
0.0214879
0.00137727
0.0214928
0.00156078
0.0214951
0.00174382
0.0214977
0.00192617
0.0214969
0.00210691
0.0214997
0.00228566
0.0215004
0.00246252
0.0214941
0.00263594
0.0214987
0.00280626
0.0214932
0.00297312
0.021486
0.00313476
0.0214932
0.00329322
0.0214717
0.00344612
0.0214729
0.00359328
0.0214716
0.00373667
0.0214436
0.00387277
0.0214538
0.00400491
0.0214219
0.00413089
0.0214143
0.00425044
0.0214086
0.00436679
0.0213638
0.00447531
0.0213745
0.00458167
0.0213178
0.00468184
0.0213109
0.00477754
0.0212846
0.00487068
0.0212364
0.0212474
0.00495644
-0.00310473
0.0209644
-0.00296873
0.0209557
-0.00283125
0.0210465
-0.002684
0.0210326
-0.00253086
0.0210725
-0.00237003
0.0210924
-0.00219982
0.0210896
-0.00202454
0.0211397
-0.0018396
0.0211243
-0.00164932
0.0211583
-0.00145211
0.0211643
-0.00124813
0.0211645
-0.00104033
0.021197
-0.000826094
0.0211883
-0.000607993
0.0212077
-0.000385525
0.0212151
-0.000158063
0.0212105
7.17798e-05
0.0212337
0.00030482
0.0212307
0.000541823
0.0212323
0.000781257
0.021242
0.00102339
0.021241
0.00126736
0.021244
0.00151257
0.0212476
0.00175832
0.0212494
0.00200382
0.0212522
0.00224858
0.0212521
0.00249123
0.0212571
0.00273105
0.0212606
0.00296781
0.0212573
0.00319945
0.021267
0.00342605
0.0212666
0.00364689
0.0212651
0.00385975
0.0212804
0.0040666
0.0212649
0.00426462
0.0212749
0.00445341
0.0212828
0.00463494
0.0212621
0.00480528
0.0212835
0.00496792
0.0212593
0.00512041
0.0212619
0.00526245
0.0212666
0.00539753
0.0212287
0.00552077
0.0212513
0.00563838
0.0212002
0.00574627
0.021203
0.00584653
0.0211844
0.00594144
0.0211415
0.0211628
0.00602606
-0.00348404
0.0208625
-0.00337089
0.0208426
-0.00325162
0.0209272
-0.00311667
0.0208976
-0.00296904
0.0209249
-0.00280772
0.020931
-0.00263235
0.0209143
-0.00244799
0.0209553
-0.00225176
0.0209281
-0.00204839
0.0209549
-0.00183717
0.020953
-0.00161872
0.020946
-0.00139586
0.0209742
-0.00116641
0.0209588
-0.000932589
0.0209738
-0.000693908
0.0209764
-0.000449857
0.0209665
-0.000202169
0.020986
5.07598e-05
0.0209778
0.000306756
0.0209763
0.000566919
0.0209819
0.000831114
0.0209768
0.00109847
0.0209766
0.00136828
0.0209778
0.00163963
0.020978
0.00191147
0.0209804
0.002183
0.0209806
0.0024525
0.0209876
0.00271884
0.0209943
0.00298139
0.0209948
0.00323773
0.0210107
0.00348752
0.0210169
0.0037297
0.0210229
0.00396183
0.0210482
0.00418548
0.0210412
0.00439777
0.0210626
0.00459815
0.0210825
0.00478831
0.021072
0.00496452
0.0211073
0.00512993
0.0210939
0.00528223
0.0211096
0.00542109
0.0211277
0.00554962
0.0211002
0.00566334
0.0211376
0.00576788
0.0210956
0.00585966
0.0211112
0.00594092
0.0211031
0.00601434
0.0210681
0.0211009
0.00607623
-0.00370291
0.020783
-0.00362206
0.0207617
-0.00353154
0.0208367
-0.00341456
0.0207807
-0.0032733
0.0207837
-0.00310973
0.0207675
-0.00292714
0.0207317
-0.00273296
0.0207612
-0.00252685
0.020722
-0.0023142
0.0207423
-0.00209509
0.0207339
-0.0018703
0.0207212