/*--------------------------------*- C++ -*----------------------------------*\
| =========                 |                                                 |
| \\      /  F ield         | OpenFOAM: The Open Source CFD Toolbox           |
|  \\    /   O peration     | Version:  2312                                  |
|   \\  /    A nd           | Website:  www.openfoam.com                      |
|    \\/     M anipulation  |                                                 |
\*---------------------------------------------------------------------------*/
FoamFile
{
    version     2.0;
    format      ascii;
    arch        "LSB;label=32;scalar=64";
    class       volVectorField;
    location    "21.493198809655222";
    object      U;
}
// * * * * * * * * * * * * * * * * * * * * * * * * * * * * * * * * * * * * * //

dimensions      [0 1 -1 0 0 0 0];

internalField   nonuniform List<vector> 
21039
(
(0.913753 0.0474106 0)
(1.02607 0.0664776 0)
(1.00449 0.029508 0)
(1.00176 0.018904 0)
(1.0012 0.0139009 0)
(1.00079 0.0105268 0)
(1.00055 0.00820678 0)
(1.0004 0.0065712 0)
(1.0003 0.00536912 0)
(1.00023 0.00445665 0)
(1.00018 0.00374833 0)
(1.00014 0.00318916 0)
(1.00012 0.00274215 0)
(1.00009 0.00238169 0)
(1.00007 0.00208967 0)
(1.00006 0.00185292 0)
(1.00005 0.00166171 0)
(1.00004 0.00150869 0)
(1.00003 0.00138812 0)
(1.00002 0.00129534 0)
(1.00001 0.00122642 0)
(1.00001 0.0011792 0)
(1 0.00115505 0)
(1 0.00113424 0)
(1 0.00111991 0)
(1 0.00110908 0)
(1.00001 0.00109771 0)
(1.00001 0.00107632 0)
(1.00001 0.00102441 0)
(0.794547 0.0730292 0)
(1.07451 0.121663 0)
(1.03987 0.0708553 0)
(1.01809 0.0497148 0)
(1.01127 0.0383121 0)
(1.00762 0.0295452 0)
(1.00536 0.0232642 0)
(1.00394 0.018707 0)
(1.00298 0.0152727 0)
(1.0023 0.01262 0)
(1.00182 0.0105323 0)
(1.00145 0.00886297 0)
(1.00117 0.0075112 0)
(1.00095 0.00640657 0)
(1.00078 0.00549872 0)
(1.00063 0.00475103 0)
(1.00051 0.00413638 0)
(1.00041 0.00363439 0)
(1.00032 0.00322947 0)
(1.00024 0.00290937 0)
(1.00018 0.00266387 0)
(1.00012 0.00248626 0)
(1.00007 0.00237984 0)
(1.00004 0.00231025 0)
(1.00003 0.0022782 0)
(1.00003 0.00226666 0)
(1.00004 0.00226237 0)
(1.00005 0.00224733 0)
(1.00006 0.00219413 0)
(0.667364 0.057258 0)
(1.08303 0.124772 0)
(1.08432 0.0902804 0)
(1.04625 0.0676694 0)
(1.02902 0.0541748 0)
(1.0202 0.0432368 0)
(1.01463 0.0349573 0)
(1.01093 0.0286067 0)
(1.00837 0.0236116 0)
(1.00654 0.0196405 0)
(1.00521 0.0164478 0)
(1.0042 0.0138512 0)
(1.00342 0.0117192 0)
(1.0028 0.00995647 0)
(1.00231 0.00849294 0)
(1.0019 0.00727648 0)
(1.00155 0.006268 0)
(1.00126 0.00543785 0)
(1.001 0.00476333 0)
(1.00078 0.00422678 0)
(1.00058 0.00381364 0)
(1.0004 0.00351309 0)
(1.00025 0.00332984 0)
(1.00014 0.00322184 0)
(1.00009 0.00318139 0)
(1.00006 0.00317537 0)
(1.00006 0.0031817 0)
(1.00007 0.00317749 0)
(1.00008 0.00313286 0)
(0.541125 0.0352455 0)
(1.05077 0.110772 0)
(1.11584 0.0969607 0)
(1.07603 0.076246 0)
(1.04915 0.0621143 0)
(1.03517 0.0510353 0)
(1.02631 0.042396 0)
(1.02013 0.0354083 0)
(1.01569 0.0296691 0)
(1.01245 0.0249532 0)
(1.01001 0.0210563 0)
(1.00815 0.0178143 0)
(1.00669 0.0151031 0)
(1.00553 0.0128272 0)
(1.00458 0.0109135 0)
(1.0038 0.00930579 0)
(1.00313 0.00796084 0)
(1.00255 0.00684539 0)
(1.00205 0.00593362 0)
(1.0016 0.00520545 0)
(1.0012 0.00464449 0)
(1.00083 0.0042374 0)
(1.00051 0.00398998 0)
(1.00028 0.00385505 0)
(1.00014 0.00381374 0)
(1.00006 0.00381828 0)
(1.00004 0.00383909 0)
(1.00005 0.0038492 0)
(1.00005 0.00381445 0)
(0.444364 0.0186451 0)
(0.997797 0.0917889 0)
(1.1289 0.0955399 0)
(1.10129 0.0793818 0)
(1.06808 0.0653716 0)
(1.0496 0.054728 0)
(1.03808 0.0463808 0)
(1.02985 0.0393891 0)
(1.02374 0.0334644 0)
(1.01914 0.0284575 0)
(1.01561 0.02421 0)
(1.01285 0.020594 0)
(1.01066 0.0175096 0)
(1.00888 0.0148764 0)
(1.00741 0.0126303 0)
(1.00618 0.0107202 0)
(1.00512 0.00910601 0)
(1.0042 0.00775623 0)
(1.00338 0.00664604 0)
(1.00265 0.00575603 0)
(1.00198 0.00507054 0)
(1.00138 0.00457575 0)
(1.00083 0.00427917 0)
(1.00043 0.00413009 0)
(1.00017 0.00409761 0)
(1.00002 0.00412091 0)
(0.999959 0.00416392 0)
(0.999953 0.00419556 0)
(0.999951 0.00417478 0)
(0.378907 0.00807797 0)
(0.939863 0.0717272 0)
(1.12687 0.088104 0)
(1.12061 0.0784403 0)
(1.08527 0.0657259 0)
(1.06282 0.0557749 0)
(1.04903 0.0479437 0)
(1.0392 0.0412345 0)
(1.03175 0.0354154 0)
(1.02601 0.0303823 0)
(1.0215 0.0260152 0)
(1.01792 0.0222203 0)
(1.01501 0.018923 0)
(1.01262 0.0160614 0)
(1.01061 0.0135846 0)
(1.0089 0.0114519 0)
(1.00742 0.00963027 0)
(1.00611 0.00809372 0)
(1.00494 0.00682159 0)
(1.00388 0.00579778 0)
(1.0029 0.00500955 0)
(1.002 0.00444477 0)
(1.00119 0.00411369 0)
(1.00056 0.00396355 0)
(1.00015 0.0039509 0)
(0.999913 0.00400283 0)
(0.999805 0.00407735 0)
(0.999776 0.00413916 0)
(0.999753 0.00413837 0)
(0.333811 0.00230593 0)
(0.883758 0.0536797 0)
(1.11399 0.0775518 0)
(1.13361 0.0744801 0)
(1.10059 0.0639591 0)
(1.07502 0.0549157 0)
(1.05915 0.0477244 0)
(1.048 0.0414637 0)
(1.03947 0.0359145 0)
(1.03279 0.0310057 0)
(1.02746 0.0266574 0)
(1.02314 0.0228075 0)
(1.01958 0.0194049 0)
(1.01661 0.0164054 0)
(1.01408 0.0137729 0)
(1.01189 0.0114779 0)
(1.00997 0.00949658 0)
(1.00826 0.00781036 0)
(1.0067 0.00640472 0)
(1.00527 0.00526876 0)
(1.00394 0.00439442 0)
(1.0027 0.00377296 0)
(1.00156 0.00341882 0)
(1.00067 0.00327838 0)
(1.00008 0.00329536 0)
(0.999726 0.00338522 0)
(0.999552 0.00350056 0)
(0.999483 0.00360183 0)
(0.999427 0.00362868 0)
(0.301666 -0.000225245 0)
(0.832311 0.0393629 0)
(1.09395 0.0665231 0)
(1.14031 0.0688616 0)
(1.11353 0.0608414 0)
(1.08618 0.0527782 0)
(1.06849 0.0462253 0)
(1.05622 0.0404678 0)
(1.04684 0.0352664 0)
(1.03938 0.0305637 0)
(1.03335 0.026314 0)
(1.0284 0.0224834 0)
(1.02427 0.0190415 0)
(1.02076 0.0159617 0)
(1.01774 0.0132216 0)
(1.01509 0.0108035 0)
(1.01272 0.00869337 0)
(1.01058 0.0068808 0)
(1.00862 0.00535865 0)
(1.00679 0.00412252 0)
(1.00507 0.00317047 0)
(1.00344 0.00249857 0)
(1.00193 0.00212617 0)
(1.00074 0.00200105 0)
(0.999931 0.00205449 0)
(0.999435 0.00218961 0)
(0.999171 0.00235404 0)
(0.999042 0.00250411 0)
(0.998933 0.00256765 0)
(0.278881 -0.00102405 0)
(0.78703 0.0288148 0)
(1.07005 0.0563849 0)
(1.14157 0.062635 0)
(1.12381 0.0570512 0)
(1.0962 0.0499453 0)
(1.07704 0.0439291 0)
(1.06385 0.0386192 0)
(1.05379 0.0337574 0)
(1.04573 0.0292783 0)
(1.03913 0.0251565 0)
(1.03365 0.021378 0)
(1.02901 0.017929 0)
(1.02502 0.0147976 0)
(1.02154 0.0119742 0)
(1.01844 0.00945187 0)
(1.01564 0.0072262 0)
(1.01308 0.00529545 0)
(1.01069 0.00366055 0)
(1.00843 0.0023248 0)
(1.00628 0.0012936 0)
(1.00423 0.00056654 0)
(1.0023 0.000169093 0)
(1.00076 5.66851e-05 0)
(0.999696 0.000149746 0)
(0.999023 0.000333482 0)
(0.998641 0.000548834 0)
(0.998425 0.000757224 0)
(0.998238 0.000876285 0)
(0.262673 -0.00107407 0)
(0.748301 0.0213292 0)
(1.04483 0.0475602 0)
(1.13873 0.0563728 0)
(1.13161 0.0529832 0)
(1.10515 0.0467915 0)
(1.08493 0.0411981 0)
(1.07094 0.0362321 0)
(1.06035 0.0316471 0)
(1.05182 0.0273601 0)
(1.04478 0.0233531 0)
(1.03885 0.0196238 0)
(1.03378 0.0161698 0)
(1.02937 0.0129901 0)
(1.02546 0.0100854 0)
(1.02195 0.00745826 0)
(1.01873 0.00511312 0)
(1.01574 0.00305679 0)
(1.01291 0.00129783 0)
(1.01021 -0.000153866 0)
(1.00761 -0.00128495 0)
(1.00509 -0.0020859 0)
(1.00269 -0.00252041 0)
(1.00075 -0.00263241 0)
(0.999379 -0.00251407 0)
(0.998488 -0.00228539 0)
(0.997952 -0.00201461 0)
(0.997618 -0.00175539 0)
(0.997322 -0.00160079 0)
(0.250725 -0.000862062 0)
(0.715623 0.0161184 0)
(1.01993 0.0400758 0)
(1.13304 0.0503679 0)
(1.13728 0.0488333 0)
(1.11317 0.0435004 0)
(1.09231 0.0382439 0)
(1.07764 0.0335197 0)
(1.0666 0.0291325 0)
(1.05771 0.0249827 0)
(1.05031 0.0210525 0)
(1.04403 0.017345 0)
(1.03859 0.0138651 0)
(1.03381 0.0106195 0)
(1.02953 0.00761648 0)
(1.02563 0.00486634 0)
(1.022 0.0023814 0)
(1.01859 0.000174806 0)
(1.01533 -0.00173827 0)
(1.01217 -0.00333879 0)
(1.00908 -0.00460387 0)
(1.00605 -0.00551286 0)
(1.00313 -0.00602002 0)
(1.00073 -0.00616269 0)
(0.998995 -0.00603718 0)
(0.997835 -0.00577321 0)
(0.997092 -0.00544591 0)
(0.996589 -0.00512321 0)
(0.996144 -0.0049249 0)
(0.241518 -0.000610844 0)
(0.688152 0.0124981 0)
(0.996243 0.0338125 0)
(1.12552 0.0447734 0)
(1.14118 0.0447174 0)
(1.12038 0.0401674 0)
(1.09933 0.0351863 0)
(1.08408 0.0306177 0)
(1.07266 0.0263505 0)
(1.06348 0.022277 0)
(1.0558 0.018375 0)
(1.04923 0.014649 0)
(1.04349 0.0111082 0)
(1.03839 0.00776411 0)
(1.03377 0.0046308 0)
(1.02951 0.00172446 0)
(1.02551 -0.000938419 0)
(1.02169 -0.00333825 0)
(1.01799 -0.00545059 0)
(1.01436 -0.00724785 0)
(1.01075 -0.00869856 0)
(1.00717 -0.00977161 0)
(1.00368 -0.0104095 0)
(1.00075 -0.0106361 0)
(0.998594 -0.0105453 0)
(0.997096 -0.0102778 0)
(0.996076 -0.00991609 0)
(0.995332 -0.00953984 0)
(0.994668 -0.00929353 0)
(0.234179 -0.000410216 0)
(0.665054 0.00993193 0)
(0.974251 0.0285932 0)
(1.11689 0.0396538 0)
(1.14362 0.0407144 0)
(1.12687 0.0368554 0)
(1.10608 0.0321033 0)
(1.09037 0.0276201 0)
(1.07863 0.0234019 0)
(1.06921 0.0193444 0)
(1.06131 0.0154188 0)
(1.05451 0.0116282 0)
(1.04853 0.00798329 0)
(1.04316 0.00449875 0)
(1.03825 0.00119167 0)
(1.03366 -0.00191938 0)
(1.02931 -0.00481258 0)
(1.0251 -0.00746081 0)
(1.02097 -0.00983236 0)
(1.01686 -0.0118919 0)
(1.01272 -0.0135998 0)
(1.00855 -0.0149157 0)
(1.00444 -0.0157702 0)
(1.00092 -0.0161672 0)
(0.998273 -0.0161866 0)
(0.996357 -0.0159756 0)
(0.994974 -0.0156247 0)
(0.993898 -0.0152258 0)
(0.992929 -0.0149467 0)
(0.228198 -0.000277836 0)
(0.645591 0.00804616 0)
(0.954157 0.0242342 0)
(1.10775 0.0350147 0)
(1.14494 0.0368744 0)
(1.13275 0.03361 0)
(1.11265 0.0290509 0)
(1.09663 0.0245984 0)
(1.0846 0.0203683 0)
(1.075 0.0162707 0)
(1.06693 0.0122706 0)
(1.05996 0.00836741 0)
(1.05378 0.00457133 0)
(1.0482 0.000897235 0)
(1.04304 -0.0026375 0)
(1.03818 -0.00601146 0)
(1.03351 -0.00919748 0)
(1.02894 -0.0121628 0)
(1.02439 -0.0148695 0)
(1.0198 -0.0172752 0)
(1.01512 -0.0193329 0)
(1.01034 -0.0209946 0)
(1.00557 -0.0221816 0)
(1.00142 -0.0228744 0)
(0.998212 -0.023124 0)
(0.995792 -0.023075 0)
(0.993935 -0.0228201 0)
(0.992406 -0.0224635 0)
(0.991013 -0.0221932 0)
(0.223248 -0.000203933 0)
(0.629149 0.00660939 0)
(0.936003 0.0206002 0)
(1.09849 0.0308598 0)
(1.14537 0.0332421 0)
(1.13805 0.030465 0)
(1.11904 0.026065 0)
(1.10287 0.0216022 0)
(1.09061 0.0173106 0)
(1.08086 0.0131241 0)
(1.07267 0.00900252 0)
(1.06557 0.00494043 0)
(1.05926 0.000945028 0)
(1.05351 -0.00297103 0)
(1.04816 -0.00679029 0)
(1.04307 -0.010489 0)
(1.03813 -0.0140366 0)
(1.03322 -0.0173962 0)
(1.02827 -0.0205245 0)
(1.02321 -0.0233717 0)
(1.01799 -0.0258842 0)
(1.0126 -0.0280084 0)
(1.00717 -0.0296631 0)
(1.00241 -0.0308151 0)
(0.998648 -0.0314784 0)
(0.995692 -0.0317809 0)
(0.993275 -0.0317985 0)
(0.991161 -0.0316282 0)
(0.989198 -0.0314575 0)
(0.219448 -0.000156085 0)
(0.616223 0.00556964 0)
(0.92094 0.017774 0)
(1.09016 0.0274264 0)
(1.14528 0.0301077 0)
(1.1426 0.0277017 0)
(1.12489 0.0234271 0)
(1.10873 0.018933 0)
(1.09631 0.0145553 0)
(1.08646 0.0102546 0)
(1.07822 0.0059871 0)
(1.07107 0.00174059 0)
(1.06468 -0.00248239 0)
(1.05885 -0.00667249 0)
(1.05339 -0.0108139 0)
(1.04814 -0.0148828 0)
(1.043 -0.0188485 0)
(1.03784 -0.0226722 0)
(1.03257 -0.0263061 0)
(1.0271 -0.0296929 0)
(1.02139 -0.032769 0)
(1.01544 -0.0354714 0)
(1.00941 -0.0377114 0)
(1.00412 -0.0394476 0)
(0.999911 -0.0406797 0)
(0.996509 -0.041541 0)
(0.993552 -0.0420783 0)
(0.990753 -0.0423343 0)
(0.988004 -0.0424332 0)
(0.216713 -0.000127463 0)
(0.606836 0.00485883 0)
(0.909531 0.0157384 0)
(1.08344 0.024838 0)
(1.14496 0.0276751 0)
(1.14619 0.0255322 0)
(1.12975 0.0213471 0)
(1.11371 0.016816 0)
(1.10121 0.0123545 0)
(1.09132 0.00794478 0)
(1.08306 0.00353875 0)
(1.07591 -0.000882767 0)
(1.06952 -0.0053228 0)
(1.06367 -0.00977613 0)
(1.05817 -0.01423 0)
(1.05286 -0.0186642 0)
(1.04761 -0.023051 0)
(1.04229 -0.0273534 0)
(1.03681 -0.0315228 0)
(1.03105 -0.0354972 0)
(1.02497 -0.0392029 0)
(1.01857 -0.0425617 0)
(1.01204 -0.0454563 0)
(1.00634 -0.0478071 0)
(1.00188 -0.0496168 0)
(0.998305 -0.0511037 0)
(0.995141 -0.0523971 0)
(0.991987 -0.0535249 0)
(0.988719 -0.0543348 0)
(0.214627 -8.18698e-05 0)
(0.599702 0.00437384 0)
(0.900588 0.0142565 0)
(1.0779 0.0228745 0)
(1.14448 0.0257882 0)
(1.14904 0.0238411 0)
(1.1338 0.0197317 0)
(1.11793 0.0151763 0)
(1.10539 0.0106491 0)
(1.09548 0.00614957 0)
(1.08725 0.00162535 0)
(1.08012 -0.00294833 0)
(1.07377 -0.00757963 0)
(1.06794 -0.012268 0)
(1.06246 -0.0170055 0)
(1.05714 -0.0217778 0)
(1.05186 -0.0265631 0)
(1.04647 -0.0313295 0)
(1.04086 -0.0360327 0)
(1.03492 -0.0406115 0)
(1.02858 -0.0449873 0)
(1.02182 -0.0490695 0)
(1.01487 -0.052697 0)
(1.0088 -0.055671 0)
(1.00412 -0.0579144 0)
(1.00054 -0.0597193 0)
(0.99766 -0.0614593 0)
(0.995148 -0.0635007 0)
(0.992386 -0.0653051 0)
(0.213365 -8.87561e-05 0)
(0.594888 0.00399882 0)
(0.894316 0.0131977 0)
(1.07395 0.0214782 0)
(1.14423 0.0244241 0)
(1.15133 0.0225729 0)
(1.13706 0.0184833 0)
(1.12138 0.0138996 0)
(1.10884 0.00932525 0)
(1.09896 0.00475764 0)
(1.09077 0.000137303 0)
(1.08371 -0.00456465 0)
(1.07742 -0.00936006 0)
(1.07166 -0.014253 0)
(1.06623 -0.0192415 0)
(1.06097 -0.0243185 0)
(1.05572 -0.0294701 0)
(1.05035 -0.0346731 0)
(1.04472 -0.0398918 0)
(1.03873 -0.0450734 0)
(1.03227 -0.0501455 0)
(1.02536 -0.0550269 0)
(1.01823 -0.0595453 0)
(1.01198 -0.0633517 0)
(1.00715 -0.0661547 0)
(1.00353 -0.0680371 0)
(1.00083 -0.069054 0)
(0.998992 -0.0699385 0)
(0.99897 -0.0744549 0)
(1.00001 0.001037 0)
(1.00001 0.00104208 0)
(1.00001 0.00104226 0)
(1.00001 0.00104328 1.27652e-21)
(1.00001 0.00104623 6.36782e-21)
(1.00001 0.00105091 -1.14593e-20)
(1 0.00105716 6.3648e-21)
(1 0.00106487 -5.07273e-21)
(1 0.00107389 6.47354e-22)
(1 0.00108422 5.07122e-21)
(0.999999 0.0010957 0)
(0.999998 0.00110829 -5.67298e-21)
(0.999997 0.00112191 6.43649e-22)
(0.999996 0.00113639 5.03759e-21)
(0.999995 0.00115174 0)
(0.999993 0.00116778 0)
(0.999992 0.00118445 -4.99402e-21)
(0.999991 0.00120165 4.99716e-21)
(0.99999 0.0012192 0)
(0.999989 0.00123709 -2.4799e-21)
(0.999988 0.00125515 2.63585e-21)
(0.999988 0.00127326 2.31279e-21)
(0.999987 0.00129136 -3.6983e-21)
(0.999986 0.00130928 1.19215e-21)
(0.999986 0.00132694 3.82257e-23)
(0.999985 0.00134424 -7.6407e-23)
(0.999985 0.00136104 1.06343e-21)
(0.999984 0.00137725 -1.21554e-21)
(0.999984 0.00139279 0)
(0.999984 0.00140755 0)
(0.999984 0.0014214 -3.00301e-22)
(0.999984 0.00143421 -2.99155e-22)
(0.999985 0.00144596 -5.0568e-21)
(0.999985 0.00145666 4.16183e-21)
(0.999985 0.00146615 -5.31118e-21)
(0.999986 0.00147442 5.3046e-21)
(0.999987 0.0014814 -4.09401e-21)
(0.999987 0.00148702 4.09212e-21)
(0.999988 0.00149127 5.8092e-22)
(0.999989 0.00149404 5.78331e-22)
(0.999991 0.00149534 -5.757e-22)
(0.999992 0.00149511 0)
(0.999993 0.00149328 0)
(0.999995 0.00148991 0)
(0.999997 0.00148491 0)
(0.999998 0.00147836 0)
(1 0.00147013 2.23485e-21)
(1 0.00145959 -2.23099e-21)
(1 0.00144276 0)
(1.00005 0.00221342 0)
(1.00004 0.00222543 2.57423e-21)
(1.00002 0.00223452 -2.56617e-21)
(1.00001 0.00224729 -1.28112e-21)
(0.999996 0.00226488 -1.28135e-21)
(0.999983 0.0022867 -3.83284e-21)
(0.99997 0.00231241 6.39831e-21)
(0.999958 0.00234203 0)
(0.999947 0.00237498 -6.37003e-22)
(0.999936 0.0024114 -1.27294e-21)
(0.999925 0.0024508 0)
(0.999916 0.00249304 6.33835e-22)
(0.999906 0.00253798 -5.68807e-21)
(0.999898 0.00258511 5.05985e-21)
(0.99989 0.00263445 0)
(0.999883 0.00268557 1.25911e-21)
(0.999876 0.0027382 0)
(0.99987 0.00279226 0)
(0.999865 0.00284721 0)
(0.999861 0.00290293 -2.48999e-21)
(0.999858 0.00295919 2.33549e-21)
(0.999855 0.00301556 -1.55312e-22)
(0.999853 0.00307188 0)
(0.999852 0.00312787 -5.77266e-22)
(0.999852 0.00318319 6.06263e-22)
(0.999852 0.00323762 1.1499e-22)
(0.999853 0.00329092 1.52746e-22)
(0.999856 0.00334276 0)
(0.999859 0.00339292 -2.42438e-21)
(0.999863 0.00344118 2.42383e-21)
(0.999867 0.00348727 -4.51308e-21)
(0.999873 0.00353093 9.90954e-21)
(0.999879 0.00357199 -4.49539e-21)
(0.999886 0.00361021 5.95876e-22)
(0.999894 0.00364533 5.93547e-22)
(0.999902 0.00367722 5.9161e-22)
(0.999911 0.00370563 -5.8865e-22)
(0.999921 0.00373035 5.26811e-21)
(0.999931 0.0037513 -4.09333e-21)
(0.999943 0.00376814 -1.74341e-21)
(0.999955 0.00378087 6.35527e-21)
(0.999967 0.00378925 -4.61432e-21)
(0.99998 0.00379306 -2.29257e-21)
(0.999994 0.00379234 4.55548e-21)
(1.00001 0.00378668 -9.08406e-21)
(1.00002 0.0037763 4.52734e-21)
(1.00004 0.00376095 2.24504e-21)
(1.00005 0.00373993 -4.51643e-24)
(1.00007 0.00370856 0)
(1.00006 0.00315267 3.87211e-21)
(1.00003 0.00317289 -1.29254e-21)
(0.999987 0.00319567 -5.15228e-21)
(0.999948 0.00322475 2.56919e-21)
(0.999909 0.00326135 -2.56921e-21)
(0.999873 0.00330466 0)
(0.999838 0.00335428 -2.55786e-21)
(0.999805 0.00341039 -7.6611e-21)
(0.999773 0.00347181 7.66316e-21)
(0.999744 0.00353897 1.27252e-21)
(0.999717 0.00361094 0)
(0.999691 0.00368746 -7.61062e-21)
(0.999668 0.0037685 1.33642e-23)
(0.999646 0.00385298 5.06333e-21)
(0.999627 0.00394108 0)
(0.99961 0.00403207 -1.25792e-21)
(0.999595 0.00412542 -1.25781e-21)
(0.999582 0.00422123 0)
(0.999571 0.00431837 -1.25183e-21)
(0.999563 0.00441673 -2.49062e-21)
(0.999557 0.00451605 2.49137e-21)
(0.999553 0.00461547 -3.11122e-22)
(0.999551 0.0047148 -3.09642e-22)
(0.999552 0.00481366 0)
(0.999555 0.00491138 4.79715e-23)
(0.99956 0.00500765 -2.68359e-22)
(0.999567 0.00510215 0)
(0.999577 0.00519424 0)
(0.999589 0.00528361 -2.4236e-21)
(0.999603 0.00536993 2.42313e-21)
(0.999619 0.00545268 -4.8124e-21)
(0.999637 0.0055315 4.81079e-21)
(0.999658 0.0056061 0)
(0.99968 0.005676 0)
(0.999704 0.00574088 0)
(0.99973 0.00580048 -1.18139e-21)
(0.999758 0.00585431 -2.35453e-21)
(0.999788 0.00590211 0)
(0.99982 0.00594368 -1.16642e-21)
(0.999854 0.00597845 -1.15303e-21)
(0.999889 0.00600643 3.47708e-21)
(0.999926 0.00602712 0)
(0.999965 0.00604022 4.57526e-21)
(1 0.00604574 -6.8486e-21)
(1.00005 0.00604293 0)
(1.00009 0.0060321 0)
(1.00013 0.0060126 0)
(1.00018 0.00598369 -2.23777e-21)
(1.00023 0.00594184 -2.22451e-21)
(1.00001 0.00383576 -2.58629e-21)
(0.999943 0.00386963 5.17716e-21)
(0.999868 0.00391252 5.16829e-21)
(0.999792 0.00396405 7.7287e-21)
(0.999718 0.00402586 -2.58188e-21)
(0.999647 0.00409702 -5.1322e-21)
(0.99958 0.00417707 1.02625e-20)
(0.999516 0.00426645 -4.80116e-24)
(0.999457 0.00436318 -2.55412e-21)
(0.999401 0.00446815 2.55684e-21)
(0.999349 0.00457985 0)
(0.999301 0.00469797 2.54013e-21)
(0.999257 0.00482259 -2.52657e-21)
(0.999217 0.0049519 1.01326e-20)
(0.999181 0.00508644 -1.01104e-20)
(0.99915 0.00522497 7.57772e-21)
(0.999123 0.00536678 -1.26457e-21)
(0.999101 0.0055122 1.25741e-21)
(0.999083 0.00565932 1.25046e-21)
(0.999069 0.00580816 -1.25112e-21)
(0.99906 0.00595841 0)
(0.999055 0.00610868 -1.85999e-21)
(0.999055 0.00625883 1.55343e-21)
(0.999059 0.00640833 1.23665e-21)
(0.999068 0.00655613 5.76672e-23)
(0.999081 0.00670187 1.14798e-22)
(0.999098 0.00684514 1.83326e-21)
(0.99912 0.00698493 -1.22075e-21)
(0.999146 0.00712086 2.42474e-21)
(0.999177 0.00725252 -2.42433e-21)
(0.999211 0.00737906 0)
(0.99925 0.00750007 5.99769e-21)
(0.999292 0.00761511 -4.79369e-21)
(0.999339 0.00772346 4.75705e-21)
(0.999389 0.00782475 -4.75529e-21)
(0.999443 0.00791856 0)
(0.999501 0.00800419 4.69501e-21)
(0.999563 0.00808132 -2.35059e-21)
(0.999628 0.00814962 0)
(0.999696 0.00820833 4.6371e-21)
(0.999768 0.00825745 -4.63159e-21)
(0.999843 0.00829625 2.30074e-21)
(0.999922 0.00832434 2.29044e-21)
(1 0.00834173 6.83584e-21)
(1.00009 0.00834735 6.99564e-24)
(1.00018 0.00834164 4.52247e-21)
(1.00027 0.00832348 2.2419e-21)
(1.00036 0.00829212 2.22812e-21)
(1.00047 0.00824538 2.22549e-21)
(0.999878 0.00420119 0)
(0.99977 0.00425653 -5.18321e-21)
(0.999649 0.00432816 -5.17212e-21)
(0.999526 0.00441072 0)
(0.999405 0.0045065 -5.15952e-21)
(0.999289 0.00461438 1.18684e-23)
(0.999179 0.00473393 1.03179e-20)
(0.999074 0.0048659 -2.58335e-21)
(0.998976 0.00500735 -1.23202e-23)
(0.998885 0.00515984 -7.68488e-21)
(0.9988 0.00532109 0)
(0.998722 0.0054908 -7.65507e-21)
(0.99865 0.00566922 2.55724e-21)
(0.998586 0.00585365 0)
(0.998529 0.00604509 -2.5415e-21)
(0.998479 0.00624173 1.08605e-23)
(0.998437 0.0064426 -2.52128e-21)
(0.998401 0.00664842 8.8118e-21)
(0.998373 0.00685626 -1.47243e-23)
(0.998353 0.00706638 -1.26548e-21)
(0.99834 0.00727844 -1.24934e-21)
(0.998334 0.00749036 2.48578e-21)
(0.998336 0.00770214 -2.48613e-21)
(0.998345 0.0079131 -3.07628e-22)
(0.998362 0.00812167 6.36856e-22)
(0.998385 0.00832754 -3.44095e-22)
(0.998417 0.00853018 1.22472e-21)
(0.998455 0.00872812 -1.22263e-21)
(0.998501 0.00892096 1.21816e-21)
(0.998553 0.0091082 2.41872e-21)
(0.998613 0.0092886 -7.23627e-21)
(0.998679 0.00946174 -1.18301e-21)
(0.998752 0.009627 7.19541e-21)
(0.998831 0.0097834 2.38708e-21)
(0.998917 0.00993055 -4.74005e-21)
(0.999009 0.0100678 4.73719e-21)
(0.999108 0.0101943 9.56495e-24)
(0.999212 0.0103097 7.03143e-21)
(0.999322 0.0104135 -4.6851e-21)
(0.999439 0.0105047 -1.16196e-20)
(0.99956 0.0105834 4.62268e-21)
(0.999688 0.0106486 2.30012e-21)
(0.999821 0.0106998 9.14696e-21)
(0.999959 0.0107371 -4.56483e-21)
(1.0001 0.0107591 -1.02717e-23)
(1.00025 0.0107664 -1.12186e-23)
(1.00041 0.0107575 0)
(1.00057 0.0107315 -4.46853e-21)
(1.00074 0.0106884 -4.43816e-21)
(0.999642 0.00417505 0)
(0.999483 0.00426194 -7.83541e-21)
(0.999304 0.00437306 7.82388e-21)
(0.999122 0.00449741 0)
(0.998942 0.00463822 0)
(0.998768 0.00479415 -5.17721e-21)
(0.998602 0.00496477 -3.29683e-24)
(0.998445 0.00515131 -5.17627e-21)
(0.998298 0.00534964 -9.29905e-24)
(0.99816 0.0055622 0)
(0.998033 0.00578577 0)
(0.997916 0.0060201 2.55747e-21)
(0.997809 0.00626567 0)
(0.997713 0.00651867 0)
(0.997628 0.00678075 -2.54551e-21)
(0.997553 0.00704936 5.10115e-21)
(0.99749 0.0073233 2.54187e-21)
(0.997438 0.00760374 0)
(0.997397 0.00788652 2.50525e-21)
(0.997367 0.00817223 -6.29457e-21)
(0.997349 0.0084605 -2.50641e-21)
(0.997341 0.00874844 -2.49407e-21)
(0.997346 0.00903623 2.49429e-21)
(0.997361 0.009323 1.48441e-24)
(0.997387 0.00960664 1.93743e-23)
(0.997425 0.00988684 3.07626e-22)
(0.997474 0.010163 -6.15093e-22)
(0.997534 0.010433 0)
(0.997604 0.0106966 -1.21656e-21)
(0.997685 0.0109531 0)
(0.997777 0.0112008 0)
(0.997879 0.0114393 -2.41215e-21)
(0.997991 0.0116678 -9.58232e-21)
(0.998113 0.0118851 2.5517e-23)
(0.998245 0.0120906 2.38335e-21)
(0.998387 0.0122837 0)
(0.998537 0.0124631 -2.35289e-21)
(0.998697 0.0126285 -4.69269e-21)
(0.998866 0.0127792 4.6625e-21)
(0.999043 0.0129141 9.2879e-21)
(0.999229 0.0130334 -9.24132e-21)
(0.999423 0.0131356 1.18104e-24)
(0.999625 0.0132205 -4.57567e-21)
(0.999835 0.0132879 -1.90852e-24)
(1.00005 0.0133362 0)
(1.00028 0.0133663 -4.50678e-21)
(1.00051 0.0133761 -2.23574e-21)
(1.00076 0.0133651 2.23408e-21)
(1.00102 0.0133358 4.43951e-21)
(0.999267 0.00368292 0)
(0.999045 0.00381384 5.23765e-21)
(0.998797 0.00397704 -1.57338e-20)
(0.998541 0.00415594 0)
(0.998287 0.00435519 0)
(0.998041 0.00457305 -1.04439e-20)
(0.997806 0.00480913 1.04081e-20)
(0.997582 0.00506515 -5.21537e-21)
(0.997373 0.00533563 -9.36068e-24)
(0.997177 0.00562405 5.18407e-21)
(0.996995 0.00592608 0)
(0.996828 0.00624156 0)
(0.996676 0.00657122 5.16443e-21)
(0.996539 0.00690996 0)
(0.996417 0.00726025 0)
(0.996311 0.00761859 -5.11031e-21)
(0.996221 0.00798357 1.70777e-23)
(0.996147 0.00835686 0)
(0.996088 0.00873288 2.52581e-21)
(0.996046 0.00911266 6.31564e-21)
(0.99602 0.0094957 -2.52964e-21)
(0.996011 0.00987823 0)
(0.996017 0.0102607 -1.24838e-21)
(0.99604 0.0106418 1.5596e-21)
(0.996079 0.011019 -6.80225e-22)
(0.996133 0.011392 -3.10183e-22)
(0.996204 0.0117599 6.12018e-22)
(0.99629 0.0121202 -1.22973e-21)
(0.996392 0.0124724 0)
(0.99651 0.0128158 -4.87027e-21)
(0.996642 0.0131483 7.26666e-21)
(0.996789 0.0134693 2.38892e-21)
(0.99695 0.0137779 -9.31412e-24)
(0.997126 0.0140723 2.38431e-21)
(0.997316 0.0143523 -2.39397e-21)
(0.997519 0.0146168 -4.72706e-21)
(0.997736 0.0148643 9.42791e-21)
(0.997965 0.0150945 -4.69595e-21)
(0.998207 0.0153065 9.34805e-21)
(0.998461 0.015499 5.24327e-24)
(0.998727 0.0156722 9.24017e-21)
(0.999005 0.0158246 -4.59428e-21)
(0.999293 0.0159555 0)
(0.999593 0.0160652 -2.14965e-24)
(0.999903 0.0161515 9.04329e-21)
(1.00022 0.0162156 0)
(1.00056 0.0162549 0)
(1.00091 0.0162692 7.77957e-21)
(1.00128 0.0162652 1.10888e-21)
(0.99871 0.0026499 1.32347e-21)
(0.998413 0.00284029 9.29736e-21)
(0.998079 0.00306984 1.05241e-20)
(0.997734 0.00331781 -1.05903e-20)
(0.997389 0.0035909 0)
(0.997053 0.00388687 -1.27942e-23)
(0.996732 0.0042054 -5.28846e-21)
(0.996426 0.00454879 -5.2725e-21)
(0.996138 0.0049099 1.5713e-20)
(0.995868 0.0052935 -5.2237e-21)
(0.995618 0.00569384 0)
(0.995388 0.00611094 1.04113e-20)
(0.995178 0.00654576 -1.0354e-20)
(0.994989 0.00699168 2.98404e-23)
(0.994821 0.00745213 1.03164e-20)
(0.994675 0.00792255 -2.58892e-21)
(0.99455 0.00840121 -2.5261e-21)
(0.994447 0.00889036 5.12225e-21)
(0.994366 0.0093828 0)
(0.994307 0.00988008 -2.53276e-21)
(0.994271 0.0103815 2.53374e-21)
(0.994257 0.0108823 2.51977e-21)
(0.994266 0.011383 -2.51967e-21)
(0.994296 0.0118823 3.14399e-22)
(0.99435 0.0123768 3.88793e-23)
(0.994425 0.012866 9.30075e-22)
(0.994522 0.0133491 -3.00762e-24)
(0.994642 0.0138227 0)
(0.994782 0.0142865 0)
(0.994944 0.0147393 -6.16615e-25)
(0.995127 0.0151786 -2.41575e-21)
(0.99533 0.0156039 4.85201e-21)
(0.995553 0.0160137 -4.81901e-21)
(0.995796 0.0164061 4.78211e-21)
(0.996058 0.0167806 -9.56154e-21)
(0.996338 0.0171359 1.94377e-23)
(0.996637 0.0174705 4.73155e-21)
(0.996953 0.0177836 4.68522e-21)
(0.997286 0.0180745 -9.36315e-21)
(0.997635 0.0183414 -9.30044e-21)
(0.998001 0.0185847 -4.63162e-21)
(0.998381 0.0188025 -4.60457e-21)
(0.998776 0.0189941 0)
(0.999186 0.01916 -4.54178e-21)
(0.99961 0.0192975 -9.36638e-24)
(1.00005 0.0194082 8.97206e-21)
(1.0005 0.0194888 -1.11434e-20)
(1.00098 0.0195395 2.20253e-21)
(1.00148 0.0195731 0)
(0.997925 0.00100342 0)
(0.997531 0.00126519 -1.06431e-20)
(0.997104 0.00157115 0)
(0.996649 0.0019027 1.06077e-20)
(0.996192 0.0022678 5.31019e-21)
(0.995746 0.00266176 -1.06121e-20)
(0.995316 0.00308357 1.58593e-20)
(0.994907 0.00353594 5.26413e-21)
(0.99452 0.00401003 -5.25697e-21)
(0.994158 0.00451219 0)
(0.993822 0.00503511 5.24983e-21)
(0.993512 0.00557893 -1.04733e-20)
(0.993228 0.00614481 5.25703e-21)
(0.992973 0.00672444 -5.19573e-21)
(0.992745 0.00732233 3.40943e-23)
(0.992546 0.00793263 5.19599e-21)
(0.992376 0.00855329 -1.03525e-20)
(0.992236 0.00918712 0)
(0.992125 0.00982515 5.13149e-21)
(0.992044 0.0104695 -5.13134e-21)
(0.991993 0.011119 -1.2707e-21)
(0.991972 0.011768 0)
(0.991982 0.0124173 1.27205e-21)
(0.992022 0.0130648 3.15195e-22)
(0.992092 0.0137066 -6.68609e-22)
(0.992192 0.0143421 9.37759e-22)
(0.992322 0.0149701 6.18351e-22)
(0.992481 0.0155866 -1.24181e-21)
(0.99267 0.016191 0)
(0.992887 0.0167819 -2.44881e-21)
(0.993132 0.0173562 4.89771e-21)
(0.993405 0.017913 0)
(0.993705 0.0184508 2.41158e-21)
(0.994032 0.0189671 0)
(0.994384 0.0194612 4.77374e-21)
(0.99476 0.0199317 -9.51255e-21)
(0.995161 0.0203764 4.71554e-21)
(0.995585 0.0207946 -2.52511e-23)
(0.996031 0.0211854 4.64352e-21)
(0.996498 0.0215467 -4.66061e-21)
(0.996986 0.0218789 4.6173e-21)
(0.997494 0.0221799 9.18398e-21)
(0.99802 0.0224488 0)
(0.998565 0.0226865 0)
(0.999128 0.0228894 -9.02433e-21)
(0.999709 0.02306 -1.79179e-20)
(1.00031 0.0231939 1.78053e-20)
(1.00094 0.0232924 -9.96695e-21)
(1.0016 0.023376 9.88081e-21)
(0.996893 -0.00141059 0)
(0.996368 -0.000977206 1.08476e-20)
(0.995794 -0.000561326 1.08246e-20)
(0.995199 -0.000180856 1.62024e-20)
(0.994605 0.000288621 -1.61817e-20)
(0.994033 0.000802532 -5.36092e-21)
(0.993475 0.00135104 1.6139e-20)
(0.992937 0.00193877 -5.34001e-21)
(0.992428 0.0025536 5.34302e-21)
(0.991949 0.00320362 0)
(0.991503 0.00387931 1.06886e-20)
(0.991092 0.00458101 0)
(0.990715 0.00531011 -5.25905e-21)
(0.990374 0.00605646 -5.30492e-21)
(0.990069 0.00682575 5.76177e-23)
(0.989802 0.00761072 0)
(0.989574 0.0084089 5.23867e-21)
(0.989384 0.00922363 1.04515e-20)
(0.989232 0.0100441 0)
(0.989121 0.0108729 2.58026e-21)
(0.98905 0.0117085 -2.57938e-21)
(0.989018 0.0125439 -2.55928e-21)
(0.989027 0.0133801 2.57124e-21)
(0.989076 0.0142146 -4.63961e-24)
(0.989166 0.0150423 -6.34145e-22)
(0.989296 0.0158626 -2.78603e-22)
(0.989465 0.0166737 -6.28128e-22)
(0.989674 0.017471 1.25253e-21)
(0.989922 0.0182534 0)
(0.990208 0.019019 2.46186e-21)
(0.990532 0.0197641 -4.9074e-21)
(0.990893 0.0204875 0)
(0.991289 0.0211873 0)
(0.991721 0.0218601 4.81128e-21)
(0.992186 0.0225051 -9.59565e-21)
(0.992683 0.0231207 4.78604e-21)
(0.993213 0.0237041 4.75177e-21)
(0.993771 0.0242543 0)
(0.994359 0.0247704 1.40332e-20)
(0.994974 0.0252496 -9.30061e-21)
(0.995615 0.0256929 -4.61126e-21)
(0.996281 0.0260973 5.03947e-24)
(0.99697 0.026462 -9.12022e-21)
(0.997682 0.0267882 -9.04924e-21)
(0.998415 0.0270718 -8.99228e-21)
(0.999172 0.0273158 1.96912e-23)
(0.999954 0.0275147 -2.58317e-23)
(1.00077 0.0276711 0)
(1.00162 0.0278161 -1.75119e-20)
(0.995567 -0.00469989 0)
(0.994883 -0.0042031 2.83541e-21)
(0.994124 -0.00365172 -1.35514e-20)
(0.993353 -0.00307547 -1.08346e-20)
(0.992583 -0.00240803 1.08221e-20)
(0.99183 -0.00173147 5.50239e-21)
(0.991103 -0.0010689 -5.36471e-21)
(0.990405 -0.000337312 0)
(0.989744 0.00044511 0)
(0.989122 0.00127528 1.08542e-20)
(0.988538 0.00213869 -1.06996e-20)
(0.987997 0.00303496 5.36257e-21)
(0.987499 0.00396589 -5.35804e-21)
(0.987047 0.00491928 5.35054e-21)
(0.986643 0.00590185 5.35166e-21)
(0.986286 0.00690471 -5.31183e-21)
(0.98598 0.00792489 -5.25705e-21)
(0.985724 0.00896615 -5.23608e-21)
(0.985518 0.0100158 5.23742e-21)
(0.985365 0.0110768 -5.23602e-21)
(0.985264 0.0121469 0)
(0.985215 0.013218 2.60679e-21)
(0.985221 0.0142908 -2.56914e-21)
(0.985279 0.015362 1.92436e-21)
(0.985391 0.0164259 0)
(0.985557 0.017481 1.27082e-21)
(0.985775 0.0185248 0)
(0.986045 0.0195522 -1.25105e-21)
(0.986368 0.020561 1.92574e-23)
(0.986742 0.0215488 1.38364e-23)
(0.987165 0.0225112 4.95677e-21)
(0.987637 0.0234461 0)
(0.988157 0.0243512 0)
(0.988723 0.0252222 0)
(0.989332 0.0260577 0)
(0.989984 0.026856 -9.56387e-21)
(0.990677 0.0276133 4.76515e-21)