/*--------------------------------*- C++ -*----------------------------------*\
| =========                 |                                                 |
| \\      /  F ield         | OpenFOAM: The Open Source CFD Toolbox           |
|  \\    /   O peration     | Version:  2312                                  |
|   \\  /    A nd           | Website:  www.openfoam.com                      |
|    \\/     M anipulation  |                                                 |
\*---------------------------------------------------------------------------*/
FoamFile
{
    version     2.0;
    format      ascii;
    arch        "LSB;label=32;scalar=64";
    class       volScalarField;
    location    "350";
    object      magR;
}
// * * * * * * * * * * * * * * * * * * * * * * * * * * * * * * * * * * * * * //

dimensions      [0 2 -2 0 0 0 0];

internalField   nonuniform List<scalar> 
10720
(
0.0201426
0.0331721
0.0435988
0.0524721
0.0602328
0.0698312
0.0828536
0.0999121
0.122994
0.155375
0.202439
0.276056
0.398456
0.60686
0.981544
1.90503
3.70612
7.09901
13.7335
23.5973
37.1796
58.3902
85.4422
130.007
245.025
363.528
839.798
1483.95
1027.44
417.351
120.657
12.3249
2.97575
0.182579
1.15783e-15
0.00367392
0.240483
21.0695
78.4156
0.0244079
0.0403764
0.0416446
0.0366807
0.0179661
0.0170986
0.0209782
0.0254251
0.0273699
0.0310917
0.0379804
0.0498122
0.0683919
0.10217
0.153617
0.271023
0.400707
0.947961
1.35454
1.726
2.34459
3.39543
4.70323
6.57157
8.82411
11.1468
10.1938
6.22152
2.58076
0.70687
0.0926229
0.00415811
0.000803903
0.000297431
9.67344e-05
1.40504e-05
2.22494e-07
3.03246
230.709
0.0343957
0.0378859
0.029202
0.0241094
0.0211347
0.0197962
0.0190977
0.0185187
0.0180498
0.0176512
0.0173839
0.0170675
0.0179258
0.0225521
0.0336589
0.0675753
0.167628
0.40179
0.983041
2.36225
5.12608
9.89561
17.8697
23.7966
48.4916
66.1147
237.137
556.842
474.325
287.315
135.007
48.0453
11.9844
0.834018
0.016305
0.00473045
0.292559
9.76427
35.1015
0.0166444
0.00159771
0.00566058
0.00389068
0.0108255
0.015676
0.0167285
0.0172214
0.0172896
0.0169934
0.0166055
0.0160998
0.0110013
0.00877914
0.00858499
0.0192719
0.0732992
0.165876
0.0425982
0.309984
0.00539174
0.0739529
0.955314
0.024409
0.181771
0.0370186
0.110854
0.0306537
0.0353835
0.0283058
0.0167211
0.00831524
0.00346368
0.00126321
0.000403893
0.000104475
1.73604e-06
0.790399
55.3052
0.00716918
0.0090901
0.00787431
0.00744003
0.00713475
0.00682115
0.00660826
0.00649923
0.00650663
0.00662279
0.00681543
0.00706145
0.00731278
0.00756923
0.0105035
0.00483481
0.0306538
0.0735448
0.183564
0.45105
1.00053
2.00273
0.578002
0.194104
5.48824
3.97455
52.8262
181.303
182.882
141.721
86.2682
42.8451
15.3392
2.63251
0.244836
9.52767e-05
0.118506
3.09732
19.808
0.00491949
0.00371535
0.00943768
0.0165566
0.0172602
0.0132702
0.00983679
0.0102797
0.0109328
0.0115314
0.0122417
0.0130862
0.0138072
0.0137623
0.0135751
0.0130974
0.0132793
0.0114322
0.00989081
0.00826714
0.00313622
0.0167079
0.0016416
0.00708919
0.0419032
0.0105135
0.0135854
0.00917372
0.00983314
0.00835724
0.00573275
0.00368655
0.00248032
0.00190162
0.00158067
0.00198709
1.24959e-15
0.322227
21.352
0.00703117
0.00109814
0.00561315
0.00612709
0.00639978
0.0064221
0.00645806
0.00650977
0.00659669
0.00667677
0.00675599
0.00684704
0.00695784
0.00711947
0.00728134
0.00737139
0.00734131
0.00257808
0.00370754
0.000381011
2.46278e-15
3.60277e-15
0.116406
0.0395203
1.21043
0.802859
6.46151e-05
0.000501131
0.00103943
0.0028221
0.0187549
0.424578
3.26553
2.79541
0.848775
0.000445181
0.339077
0.151228
12.5453
0.00894787
0.0156233
0.0171469
0.0127839
0.00766325
0.00147945
0.0061104
0.00616937
4.77961e-05
0.00198187
0.00353906
0.00484661
0.00595901
0.00675243
0.00723567
0.00759793
0.00791494
0.00813847
0.00854029
0.00909454
0.00934563
0.00952638
0.00910511
0.00921797
0.00867277
0.00783335
0.00791805
0.00785116
0.00777054
0.00772188
0.00764923
0.00749923
0.00722137
0.00691695
0.0063499
0.008316
0.000152307
0.255704
16.9938
0.015606
0.0155949
0.0158267
0.0160773
0.0163106
0.0165857
0.0168298
0.0170514
0.017611
0.0176944
0.0174118
0.0175647
0.0177123
0.0178827
0.0180894
0.0183026
0.0184047
0.018189
0.0170022
0.00238312
0.00496242
0.00214343
2.25803e-15
2.74315e-15
1.64087e-14
1.1547e-15
1.3833e-05
0.000108893
0.000229002
0.000629746
0.00423483
0.0969659
0.00182887
2.58088e-05
0.544153
0.59808
1.65541
0.159324
5.90015
0.0195751
0.0165408
0.0114928
0.0101175
0.00464652
0.00337167
0.00318253
0.00293025
0.00266316
0.00260483
0.00251161
0.00242114
0.0023706
0.00231306
0.00222489
0.00215681
0.00218906
0.00213221
0.00208149
0.00217518
0.00224564
0.00231594
0.00227967
0.002341
0.00227724
0.0021436
0.00218575
0.00219731
0.00220604
0.00222096
0.00222642
0.0021977
0.00212643
8.40049e-05
7.65309e-05
0.00284921
5.41874e-05
0.218316
14.3754
0.0214591
0.0204101
0.0202425
0.0201669
0.0201719
0.0202025
0.0202552
0.0203401
0.0204753
0.0207019
0.0209713
0.0212961
0.0216807
0.0221375
0.0226031
0.0232696
0.0242569
0.0250983
0.0257452
0.0236714
0.0202921
0.00862546
0.00277546
0.00171381
6.41748e-08
1.1547e-15
1.1547e-15
1.1547e-15
1.1547e-15
1.1547e-15
1.1547e-15
1.1547e-15
0.000419416
5.99549e-06
8.38416e-07
9.59761e-06
0.00025587
5.18554e-06
3.51922e-05
0.0176145
0.001588
0.00401527
0.00500491
0.0100955
0.0174715
0.0176681
0.0177916
0.0161331
0.0143873
0.0126708
0.0110366
0.00967814
0.00849143
0.0073497
0.00640514
0.00609091
0.00528315
0.00430961
0.00398183
0.00376609
0.00359093
0.00339412
0.00320766
0.00304783
0.00290786
0.0027875
0.00268268
0.00259104
0.00251191
0.00242834
0.00229021
0.00211196
0.00199376
0.00136139
0.00227489
4.53068e-05
0.179418
11.0434
0.0127732
0.015345
0.0120936
0.0102727
0.00898515
0.00792746
0.00703999
0.00634362
0.00584377
0.0055437
0.00541944
0.00545493
0.0056228
0.00590287
0.00630436
0.00685531
0.00744095
0.00842487
0.0102151
0.0122577
0.0138314
0.014234
0.0129548
0.00932063
3.2283e-07
2.03743e-06
1.1547e-15
1.1547e-15
1.1547e-15
1.1547e-15
1.1547e-15
1.1547e-15
1.1547e-15
1.1547e-15
1.9493e-07
2.25057e-06
6.04729e-05
1.1547e-15
8.66152e-06
0.00484946
0.00369493
0.00989952
0.024596
0.025973
0.026284
0.0264981
0.0267838
0.0271516
0.0255434
0.0235772
0.0216053
0.0198749
0.0182939
0.016624
0.0151877
0.0140718
0.0132228
0.0125098
0.0118989
0.0113658
0.010909
0.0105032
0.010115
0.00974071
0.00939748
0.00909028
0.00881026
0.008548
0.00829833
0.00806247
0.00780367
0.00742234
0.00669164
0.00626121
0.00629486
0.000131689
0.12828
7.36822
0.00223217
0.00251123
0.00251532
0.00245014
0.00253116
0.00262628
0.00266785
0.00272367
0.00276314
0.00278506
0.00281926
0.00285459
0.00289046
0.00293338
0.0029838
0.00305019
0.0031053
0.0032242
0.000196878
0.00178733
0.0037649
0.00584984
0.00763364
0.00815893
0.0100547
1.02773e-05
4.97762e-07
1.1547e-15
1.1547e-15
1.1547e-15
1.1547e-15
1.1547e-15
1.1547e-15
1.1547e-15
1.1547e-15
1.1547e-15
1.1547e-15
1.1547e-15
1.1547e-15
0.000224347
0.0172282
0.0260408
0.0235855
0.0173337
0.0147399
0.0145121
0.0142052
0.0138513
0.0134854
0.0130986
0.0127096
0.0122795
0.0119457
0.0116956
0.0113563
0.0108735
0.0103633
0.00989657
0.00947256
0.00909334
0.00875226
0.00843075
0.00811797
0.00782091
0.00754901
0.00730466
0.00708335
0.00687932
0.00668701
0.00650391
0.00634786
0.00620696
0.0059929
0.00579407
0.00634992
0.000139225
0.0737701
4.03355
0.00720284
0.00720375
0.00829997
0.00941979
0.0104824
0.0114389
0.0122676
0.012872
0.0132125
0.0133431
0.0133194
0.0131536
0.0128618
0.0124728
0.0120135
0.0115033
0.0109173
0.0103292
0.010016
0.00855922
0.00694068
0.00666888
0.00699493
0.00681287
0.0101639
2.43281e-05
1.22425e-06
1.1547e-15
1.1547e-15
1.1547e-15
1.1547e-15
1.1547e-15
1.1547e-15
1.1547e-15
1.1547e-15
1.1547e-15
1.1547e-15
1.1547e-15
1.1547e-15
0.0203208
0.0218572
0.0133712
0.00568034
0.000474683
0.00185779
0.00183693
0.000164886
0.000397844
0.000664669
0.000953762
0.00125564
0.00157208
0.00189976
0.002226
0.00238436
0.00241606
0.00239879
0.00234
0.00224727
0.00215769
0.00207422
0.00197567
0.00187825
0.00180024
0.00173471
0.00167784
0.00162992
0.00159028
0.00155685
0.00152656
0.00150828
0.00157542
0.00171788
0.0018414
0.00301714
6.94147e-05
0.0323207
1.67926
0.0190599
0.017197
0.0172852
0.0175011
0.0176486
0.0177298
0.017945
0.0180545
0.0179366
0.0177796
0.0176071
0.0173481
0.017009
0.0166475
0.016239
0.0157533
0.0151291
0.0147038
0.0142847
0.0131234
0.0116267
0.0102894
0.00936933
0.00799377
0.00974224
5.27401e-05
2.75564e-06
1.1547e-15
1.1547e-15
1.1547e-15
1.1547e-15
1.1547e-15
1.1547e-15
1.1547e-15
1.1547e-15
1.1547e-15
1.1547e-15
1.1547e-15
1.1547e-15
0.0168182
0.00672235
0.00240687
0.000768111
0.000406216
0.000375127
0.00037071
0.000375309
0.000386072
0.000401814
0.000417539
0.000437015
0.000463927
0.000496816
0.000536261
0.00055816
0.000565134
0.000568533
0.000567046
0.000560129
0.000553879
0.00054904
0.000540385
0.000530493
0.000522975
0.00051666
0.000511091
0.000506558
0.000502975
0.000499814
0.000496558
0.000495091
0.000506767
0.000528172
0.000571553
0.00079928
6.14914e-05
0.00843446
0.418911
0.0103647
0.00977978
0.0088595
0.00811923
0.00751368
0.00699473
0.00673001
0.00656771
0.00628043
0.00613278
0.00615705
0.0061675
0.00618445
0.00633753
0.00656349
0.0067329
0.00691898
0.00721859
0.00779545
0.00846055
0.0087813
0.00872079
0.00859653
0.00773349
0.00908816
0.000110918
6.01422e-06
1.1547e-15
1.1547e-15
1.1547e-15
1.1547e-15
1.1547e-15
1.1547e-15
1.1547e-15
1.1547e-15
1.1547e-15
1.1547e-15
1.1547e-15
1.1547e-15
0.00273497
0.00108075
0.000721853
0.000644472
0.0022587
0.00236435
0.0023149
0.00223343
0.00213225
0.00201895
0.00189589
0.00176774
0.0016407
0.00151874
0.00140837
0.00131151
0.00122783
0.00115938
0.00110335
0.00105398
0.00101356
0.000982184
0.00095285
0.000925817
0.00090388
0.000883953
0.000864618
0.000846318
0.000828575
0.00081044
0.000792099
0.000772995
0.000728724
0.000651594
0.000695907
0.000472
0.000278388
0.000558939
0.0261896
0.000347964
0.000794964
0.00117527
0.000962462
0.000909788
0.000867417
0.000835714
0.000827144
0.000803156
0.000793962
0.000812953
0.000831927
0.000853817
0.000898892
0.000957576
0.00101185
0.00107253
0.00120702
0.00043391
0.00132436
0.00254863
0.00371351
0.00468667
0.00488583
0.00690504
0.000201662
1.13395e-05
1.1547e-15
1.1547e-15
1.1547e-15
1.1547e-15
1.1547e-15
1.1547e-15
1.1547e-15
1.1547e-15
1.1547e-15
1.1547e-15
1.1547e-15
1.1547e-15
0.000609524
0.00127816
0.0043398
0.00664032
0.00710225
0.00699082
0.00683788
0.00666937
0.00648983
0.00629959
0.00609127
0.00587208
0.00564655
0.00542018
0.0052006
0.00499493
0.00480218
0.00462275
0.00445742
0.00430559
0.00416571
0.00403661
0.00391694
0.00380466
0.0036986
0.0035987
0.00350521
0.00341728
0.00333337
0.00325169
0.00317094
0.00309036
0.00299689
0.00285703
0.00267891
0.00240621
0.00220961
0.000515244
0.00614285
0.000785329
0.000607739
0.00062228
0.000663917
0.000724049
0.000778188
0.00080797
0.000844798
0.000877339
0.000898819
0.000919895
0.00093497
0.000944712
0.00095143
0.000952961
0.000951267
3.14961e-06
8.70687e-05
0.000133812
0.000140564
0.00042153
0.00105155
0.00192907
0.00236554
0.00446644
0.000331818
1.93374e-05
1.1547e-15
1.1547e-15
1.1547e-15
1.1547e-15
1.1547e-15
1.1547e-15
1.1547e-15
1.1547e-15
1.1547e-15
1.1547e-15
1.1547e-15
1.1547e-15
0.0019949
0.00579666
0.00695629
0.00583605
0.00541782
0.00528353
0.00515518
0.00503445
0.0049236
0.00481702
0.00470095
0.00458175
0.00446035
0.00433993
0.00422035
0.00410109
0.00398255
0.00386585
0.00375178
0.00364102
0.00353429
0.00343205
0.00333399
0.00324026
0.00315133
0.0030674
0.00298882
0.00291517
0.0028456
0.00277891
0.0027143
0.00265297
0.0026067
0.00256389
0.00250679
0.0024173
0.00233104
0.00209003
0.000239463
0.00361854
0.00372034
0.00418626
0.00460863
0.00494354
0.00521679
0.00546091
0.00568232
0.00586994
0.00601082
0.00610429
0.00615308
0.00615975
0.00612952
0.00606626
0.00597585
0.00586066
0.00572321
0.00555691
0.00521043
0.00484439
0.00408328
0.0034101
0.00297524
0.00391745
0.000681509
6.60348e-11
3.7335e-12
1.1547e-15
1.1547e-15
1.1547e-15
1.1547e-15
1.1547e-15
1.1547e-15
1.1547e-15
1.1547e-15
1.1547e-15
1.1547e-15
1.1547e-15
0.00632193
0.00549149
0.00297425
0.00144027
0.00116016
0.00111604
0.00108517
0.00105181
0.00102695
0.00100953
0.000996977
0.000987306
0.000978841
0.000970493
0.000961143
0.00095028
0.000937374
0.000922514
0.000905547
0.000886832
0.000866761
0.000845808
0.000824451
0.000803976
0.00078519
0.000767862
0.000752057
0.0007377
0.00072482
0.000713267
0.000702768
0.000691759
0.000686222
0.000734288
0.000809577
0.000900491
0.00101933
0.00124097
0.000766059
0.00571437
0.00531509
0.00538604
0.00552259
0.00563169
0.00568251
0.00577123
0.00587599
0.00597433
0.00605859
0.00612565
0.00617952
0.00622233
0.00625283
0.00627352
0.00628223
0.00626762
0.00622896
0.0061624
0.00616624
0.00606847
0.00554434
0.00490307
0.00419775
0.00426193
0.00142395
6.38632e-09
3.74161e-10
1.1547e-15
1.1547e-15
1.1547e-15
1.1547e-15
1.1547e-15
1.1547e-15
1.1547e-15
1.1547e-15
1.1547e-15
1.1547e-15
1.1547e-15
0.00394003
0.00121211
0.000536185
0.00019203
0.000158485
0.000157221
0.000154819
0.000148898
0.000144291
0.000141345
0.000137949
0.000135302
0.00013417
0.000133541
0.000133681
0.000134702
0.000135974
0.000137541
0.000139215
0.000140815
0.000142207
0.000143412
0.000144423
0.000145133
0.000145436
0.000145542
0.000145696
0.00014589
0.000146152
0.000146469
0.000146805
0.000146845
0.000147876
0.000160475
0.000179271
0.000201863
0.000235062
0.000142483
0.000302466
0.00231293
0.00225231
0.001917
0.00172813
0.00161487
0.00161613
0.00168108
0.00175651
0.00181748
0.00187385
0.00193096
0.00199389
0.00206516
0.00214521
0.00223511
0.00232949
0.00242062
0.00250023
0.00263853
0.00291716
0.00329466
0.00359069
0.00372759
0.0036287
0.00370995
0.00208761
3.0543e-08
1.85374e-09
1.1547e-15
1.1547e-15
1.1547e-15
1.1547e-15
1.1547e-15
1.1547e-15
1.1547e-15
1.1547e-15
1.1547e-15
1.1547e-15
1.15825e-15
0.000152403
0.000166571
0.00015859
0.000223695
0.000233532
0.000240221
0.000239786
0.000233253
0.000226335
0.000220336
0.000212261
0.000204735
0.000199358
0.000194694
0.000191389
0.000189826
0.000189045
0.000189294
0.00019021
0.000191654
0.000193369
0.000195311
0.000197396
0.000199027
0.000199688
0.000199781
0.00019976
0.000199599
0.000199278
0.000198744
0.000197951
0.000196875
0.000195581
0.000190454
0.000178761
0.000160009
0.000136009
0.000145576
0.000151146
0.000286525
0.000283414
0.000257785
0.000224288
0.000212542
0.000216136
0.000222364
0.000233162
0.000242374
0.000250046
0.000260167
0.000271683
0.000285205
0.000301695
0.000320621
0.000341618
0.000363434
0.00038474
0.000416275
0.000479147
8.43232e-05
0.000572524
0.00116174
0.00166746
0.00204101
0.00187297
8.4689e-08
5.32103e-09
1.1547e-15
1.1547e-15
1.1547e-15
1.1547e-15
1.1547e-15
1.1547e-15
1.1547e-15
1.1547e-15
1.1547e-15
1.15643e-15
1.17814e-15
9.45484e-05
0.000373857
0.0010528
0.00147746
0.00151137
0.00151422
0.00150278
0.00148746
0.0014709
0.00145426
0.00143788
0.0014211
0.00140378
0.0013858
0.00136686
0.00134692
0.00132595
0.00130407
0.00128137
0.00125806
0.00123435
0.00121038
0.00118629
0.00116228
0.00113866
0.00111547
0.00109281
0.00107068
0.00104898
0.00102757
0.0010062
0.000984758
0.000963546
0.000924959
0.000856573
0.000757052
0.000635889
0.000522871
0.00037385
0.000235743
0.000182117
0.00022471
0.000236599
0.000255006
0.000263216
0.000264644
0.000268834
0.000272275
0.000273262
0.000275839
0.000277986
0.000279974
0.000282415
0.00028725
0.000290876
0.00029369
0.000295612
0.000296585
0.000296131
0.000292464
0.000340562
0.000427247
0.000225393
0.000571151
0.00110755
1.66814e-07
1.08428e-08
1.1547e-15
1.1547e-15
1.1547e-15
1.1547e-15
1.1547e-15
1.1547e-15
1.1547e-15
1.1547e-15
1.1547e-15
1.15557e-15
1.15532e-15
0.000560546
0.00191254
0.00245824
0.00238863
0.00234363
0.00231707
0.00228563
0.00225447
0.002226
0.00220022
0.00217704
0.00215536
0.00213414
0.00211274
0.00209059
0.00206724
0.00204247
0.00201619
0.00198833
0.00195891
0.00192809
0.00189601
0.0018627
0.00182845
0.00179389
0.00175951
0.00172547
0.00169189
0.00165876
0.00162595
0.00159319
0.00156047
0.00152996
0.00149527
0.00144174
0.00136212
0.00126604
0.0011257
0.000909868
0.00122911
0.00130671
0.00150536
0.00164549
0.00174985
0.00177903
0.00181466
0.00184431
0.00186837
0.0018864
0.00189835
0.00190504
0.00190668
0.00190272
0.00191208
0.00190899
0.00189836
0.00188061
0.00185667
0.00182463
0.00169127
0.00146509
0.00124466
0.00101616
0.000771296
0.00100317
4.93071e-07
3.31337e-08
1.1547e-15
1.1547e-15
1.1547e-15
1.1547e-15
1.1547e-15
1.1547e-15
1.1547e-15
1.1547e-15
1.1547e-15
1.1547e-15
1.16357e-15
0.00245518
0.00230598
0.00153411
0.00116355
0.00110885
0.00108733
0.00107016
0.00105244
0.00103697
0.00102424
0.00101427
0.00100627
0.000999261
0.000992627
0.000985893
0.000978691
0.000970789
0.000961987
0.000952133
0.000941157
0.000929062
0.000915855
0.000901672
0.000886832
0.000871803
0.000856799
0.000841923
0.000827289
0.00081293
0.000798807
0.000784898
0.000771002
0.000758675
0.000758293
0.000774575
0.000799353
0.000830338
0.000848837
0.000803535
0.00242198
0.00226541
0.00231434
0.00235856
0.00238228
0.00239715
0.00240846
0.0024162
0.00242351
0.00243066
0.00243653
0.00244126
0.00244465
0.00244586
0.00244426
0.00243987
0.00243292
0.00242215
0.00240695
0.00239942
0.00236454
0.00226464
0.00207414
0.0017966
0.00143151
0.00134039
1.90356e-06
1.32149e-07
1.1547e-15
1.1547e-15
1.1547e-15
1.1547e-15
1.1547e-15
1.1547e-15
1.1547e-15
1.1547e-15
1.1547e-15
2.01687e-15
1.17413e-15
0.00183434
0.000818729
1.68347e-05
0.00016911
0.000162819
0.000164066
0.000162663
0.000157457
0.000152426
0.000148345
0.000143031
0.000138244
0.000135055
0.000132371
0.000130789
0.000130604
0.000131188
0.000132649
0.000134784
0.000137424
0.000140333
0.000143438
0.000146623
0.000149329
0.000151057
0.000152239
0.000153269
0.00015415
0.000154882
0.000155441
0.000155824
0.000155999
0.000156284
0.000158875
0.000166911
4.96786e-05
0.000140911
0.000264196
0.000383947
0.00119957
0.00114452
0.00105088
0.0010008
0.000958432
0.000924795
0.000902879
0.000889238
0.000882779
0.000882356
0.000886238
0.000893887
0.000904621
0.000917911
0.00093346
0.000951136
0.000971106
0.000992966
0.0010162
0.00104845
0.00113099
0.001256
0.00134575
0.00141084
0.00134344
0.00139121
5.83231e-06
4.17971e-07
1.1547e-15
1.1547e-15
1.1547e-15
1.1547e-15
1.1547e-15
1.1547e-15
1.1547e-15
1.1547e-15
1.1547e-15
1.15483e-15
1.15665e-15
0.000244745
0.000136026
2.44177e-06
1.141e-05
1.2605e-05
1.41032e-05
1.5616e-05
1.58305e-05
1.53918e-05
1.48373e-05
1.40876e-05
1.33729e-05
1.28793e-05
1.24695e-05
1.21906e-05
1.20909e-05
1.20981e-05
1.22224e-05
1.24557e-05
1.27723e-05
1.31533e-05
1.3585e-05
1.40674e-05
1.45274e-05
1.48659e-05
1.51119e-05
1.53221e-05
1.5503e-05
1.56553e-05
1.57783e-05
1.58717e-05
1.59368e-05
1.5906e-05
1.54579e-05
1.26109e-05
1.85406e-05
3.57854e-05
5.92592e-05
2.90896e-05
0.00015907
0.000153907
0.000150931
0.000138042
0.000133642
0.00013064
0.000125374
0.000123155
0.000121922
0.000120796
0.000121398
0.000122715
0.00012473
0.000127821
0.000131577
0.000136081
0.000141307
0.00014717
0.000153548
0.000161564
0.000182144
4.89579e-05
0.000246588
0.000477576
0.000637041
0.000973131
1.37698e-05
1.01812e-06
1.1547e-15
1.1547e-15
1.1547e-15
1.1547e-15
1.1547e-15
1.1547e-15
1.1547e-15
1.1547e-15
1.1547e-15
1.15471e-15
1.16134e-15
3.21743e-05
5.38173e-05
0.000133427
7.49981e-05
8.13833e-05
8.88207e-05
9.79405e-05
0.000101316
0.000100764
9.91123e-05
9.73117e-05
9.55987e-05
9.43331e-05
9.33897e-05
9.25938e-05
9.20247e-05
9.16266e-05
9.13242e-05
9.11276e-05
9.1001e-05
9.09025e-05
9.07845e-05
9.06626e-05
9.05319e-05
9.02373e-05
8.96768e-05
8.89263e-05
8.80503e-05
8.70663e-05
8.59926e-05
8.48385e-05
8.36166e-05
8.19858e-05
7.83379e-05
6.28842e-05
3.87498e-05
2.48335e-05
8.76533e-05
7.33845e-05
4.04907e-05
4.22844e-05
5.03061e-05
5.11212e-05
5.35482e-05
5.55516e-05
5.51879e-05
5.52725e-05
5.51628e-05
5.45217e-05
5.42943e-05
5.40709e-05
5.38779e-05
5.39421e-05
5.40393e-05
5.42402e-05
5.45019e-05
5.47962e-05
5.50932e-05
5.52969e-05
5.4796e-05
5.53811e-05
7.9879e-05
0.000104716
0.000148171
0.000387698
2.21471e-05
1.6882e-06
1.1547e-15
1.1547e-15
1.1547e-15
1.1547e-15
1.1547e-15
1.1547e-15
1.1547e-15
1.1547e-15
1.1547e-15
1.1547e-15
1.15485e-15
0.000161132
0.000390545
0.000827818
0.00084952
0.000847306
0.000844879
0.000850072
0.000849488
0.000842755
0.000834791
0.000828031
0.000822533
0.000817945
0.000813829
0.000809801
0.000805714
0.0008014
0.000796696
0.000791512
0.000785738
0.000779284
0.000772068
0.000764041
0.000755227
0.000745711
0.000735588
0.000724991
0.000714028
0.000702723
0.000691106
0.000679175
0.000666889
0.000654188
0.000641614
0.000614664
0.000571474
0.00050827
0.000416563
0.000318324
0.00029347
0.000302083
0.000335932
0.000355758
0.000368589
0.000377325
0.000381713
0.000383621
0.000384356
0.000384013
0.000382993
0.000381615
0.00037984
0.000377731
0.000375295
0.000372538
0.000369557
0.000366347
0.000363032
0.000359022
0.00035089
0.000301303
0.000251518
0.000165723
6.02594e-05
0.000227128
5.20232e-05
4.55384e-06
1.1547e-15
1.1547e-15
1.1547e-15
1.1547e-15
1.1547e-15
1.1547e-15
1.1547e-15
1.1547e-15
1.1547e-15
1.1547e-15
1.1547e-15
0.000853681
0.00105309
0.000997357
0.00090973
0.000886753
0.000866158
0.000842202
0.000832343
0.000822904
0.000814299
0.000808218
0.00080408
0.000800752
0.000797703
0.000794653
0.000791344
0.000787668
0.000783516
0.000778785
0.000773365
0.000767184
0.000760166
0.000752193
0.000743277
0.000733687
0.000723653
0.000713242
0.00070253
0.000691514
0.000680205
0.000668654
0.000656832
0.000644579
0.000634883
0.000627244
0.0006154
0.000589608
0.000547301
0.000469114
0.00106536
0.00102055
0.00102991
0.00103678
0.00103531
0.00103132
0.00102612
0.00102044
0.00101548
0.001011
0.00100693
0.00100339
0.00100003
0.000996651
0.000993086
0.000989156
0.000984825
0.000979808
0.000973808
0.000966759
0.000959887
0.00092049
0.000844464
0.000732604
0.000611519
0.00052783
0.000212812
2.75519e-06
2.11759e-07
1.1547e-15
1.1547e-15
1.1547e-15
1.1547e-15
1.1547e-15
1.1547e-15
1.1547e-15
1.1547e-15
1.1547e-15
1.1547e-15
0.00106676
0.000692833
0.000294638
0.000221385
0.0001968
0.00017887
0.000213447
0.000225972
0.000227898
0.000226197
0.000224123
0.000222308
0.000220549
0.00021877
0.000216997
0.000215214
0.000213497
0.000211807
0.000210188
0.000208624
0.000207099
0.000205639
0.000204231
0.000202905
0.000201505
0.000200125
0.000198628
0.000197019
0.000195255
0.000193359
0.000191266
0.000188984
0.000186175
0.000184939
0.000201357
0.00022736
0.000254287
0.000296128
0.000311381
0.000827633
0.000783523
0.000758751
0.000743753
0.000729843
0.000717307
0.000707897
0.000700581
0.000695047
0.000691336
0.000688836
0.000687283
0.000686478
0.00068613
0.00068607
0.000686211
0.000686512
0.000686743
0.000686811
0.000686364
0.000693353
0.000714374
0.000726331
0.000715788
0.000678747
0.000617612
0.000422679
1.85078e-05
1.46574e-06
1.1547e-15
1.1547e-15
1.1547e-15
1.1547e-15
1.1547e-15
1.1547e-15
1.1547e-15
1.1547e-15
1.1547e-15
1.15482e-15
0.000302126
8.24739e-06
4.55991e-05
3.36389e-05
3.0431e-05
2.83453e-05
3.39572e-05
3.52073e-05
3.46657e-05
3.36518e-05
3.21141e-05
3.06051e-05
2.94409e-05
2.83264e-05
2.74771e-05
2.70009e-05
2.67538e-05
2.67997e-05
2.71158e-05
2.76632e-05
2.83947e-05
2.93019e-05
3.03684e-05
3.13996e-05
3.21411e-05
3.275e-05
3.33432e-05
3.39092e-05
3.44371e-05
3.49216e-05
3.53447e-05
3.57026e-05
3.59284e-05
3.64269e-05
4.04458e-05
4.65387e-05
5.40272e-05
2.32283e-05
9.6583e-05
0.000101752
0.000144319
0.000113895
9.93918e-05
9.14377e-05
8.6125e-05
8.21904e-05
7.98079e-05
7.84193e-05
7.78846e-05
7.81069e-05
7.89024e-05
8.02092e-05
8.20474e-05
8.43291e-05
8.71585e-05
9.05447e-05
9.45623e-05
9.9227e-05
0.000103637
0.00011062
0.000148121
0.00021456
0.000288514
0.000359426
0.000401502
0.000405402
5.90002e-05
4.94164e-06
1.1547e-15
1.1547e-15
1.1547e-15
1.1547e-15
1.1547e-15
1.1547e-15
1.1547e-15
1.1547e-15
1.1547e-15
1.1547e-15
5.27347e-05
6.95949e-06
2.71829e-05
3.01952e-05
3.25435e-05
3.43431e-05
3.24015e-05
3.12248e-05
3.05429e-05
2.79049e-05
2.54885e-05
2.39334e-05
2.28894e-05
2.19566e-05
2.12488e-05
2.08461e-05
2.06177e-05
2.06179e-05
2.08268e-05
2.12111e-05
2.17266e-05
2.23727e-05
2.31193e-05
2.37949e-05
2.4209e-05
2.44906e-05
2.47611e-05
2.50111e-05
2.52364e-05
2.54309e-05
2.55938e-05
2.57257e-05
2.58206e-05
2.58967e-05
2.48697e-05
2.17539e-05
1.67101e-05
1.66462e-05
2.60722e-05
1.41721e-05
2.03503e-05
1.71426e-05
1.43212e-05
1.32901e-05
1.2655e-05
1.18222e-05
1.14059e-05
1.11274e-05
1.08893e-05
1.08642e-05
1.09274e-05
1.10794e-05
1.13708e-05
1.17485e-05
1.22444e-05
1.28552e-05
1.35912e-05
1.44534e-05
1.53031e-05
1.65495e-05
2.24093e-05
3.27854e-05
4.70356e-05
2.733e-05
0.000101749
0.000207004
9.78437e-05
7.80181e-07
6.23561e-08
1.1547e-15
1.1547e-15
1.1547e-15
1.1547e-15
1.1547e-15
1.1547e-15
1.1547e-15
1.1547e-15
1.1547e-15
3.82002e-05
4.17758e-05
0.000176915
0.000196496
0.000208323
0.000214749
0.000202104
0.000199281
0.000200139
0.000187462
0.000178459
0.000175224
0.00017369
0.000172782
0.00017207
0.000171375
0.000170646
0.000169831
0.000168901
0.000167825
0.00016659
0.000165171
0.000163533
0.000161729
0.000159851
0.000157919
0.00015591
0.000153821
0.000151647
0.000149394
0.000147054
0.000144653
0.00014219
0.000139747
0.000131586
0.000112916
8.51372e-05
5.88334e-05
2.72801e-05
7.91446e-05
4.98471e-05
5.1854e-05
4.88688e-05
4.86163e-05
4.86849e-05
4.73846e-05
4.69116e-05
4.64946e-05
4.5742e-05
4.54482e-05
4.51728e-05
4.49491e-05
4.49688e-05
4.50336e-05
4.52061e-05
4.54345e-05
4.56957e-05
4.59518e-05
4.61704e-05
4.63397e-05
4.52564e-05
4.11821e-05
3.48817e-05
3.24362e-05
4.10873e-05
2.45177e-05
7.43236e-05
5.00448e-06
4.36289e-07
1.1547e-15
1.1547e-15
1.1547e-15
1.1547e-15
1.1547e-15
1.1547e-15
1.1547e-15
1.1547e-15
1.1547e-15
0.00024261
0.000446223
0.000486918
0.000480804
0.000482244
0.000482816
0.000480602
0.000477049
0.000477427
0.00046821
0.00045998
0.000459945
0.000458877
0.000457406
0.000455738
0.000453951
0.000452076
0.000450107
0.000448005
0.000445731
0.000443231
0.000440433
0.000437248
0.00043365
0.000429704
0.00042543
0.00042081
0.000415858
0.000410583
0.000404989
0.000399078
0.000392882
0.00038642
0.000380121
0.000360296
0.000341324
0.000323759
0.000282543
0.000223669
0.000373185
0.000351635
0.00034245
0.000337367
0.000332774
0.000329681
0.000328084
0.000327187
0.000326905
0.000326898
0.000326915
0.000326901
0.000326741
0.000326379
0.000325794
0.000324962
0.000323872
0.000322493
0.000320795
0.000318804
0.000316746
0.000307004
0.000277794
0.000234815
0.000188385
0.000148972
0.000109132
0.000113191
3.06019e-05
1.46495e-07
1.18289e-08
1.1547e-15
1.1547e-15
1.1547e-15
1.1547e-15
1.1547e-15
1.1547e-15
1.1547e-15
1.1547e-15
0.000583021
0.000463663
0.000357194
0.000328322
0.000315537
0.000310763
0.000307955
0.000305531
0.000303392
0.00030788
0.000308203
0.000307517
0.000306525
0.000305449
0.000304375
0.000303306
0.000302187
0.000301055
0.000299825
0.000298466
0.000296938
0.000295203
0.000293174
0.000290806
0.000288156
0.0002853
0.000282249
0.000278989
0.000275538
0.000271902
0.00026809
0.000264066
0.000259838
0.000255908
0.000254626
0.000256381
0.000259687
0.000257942
0.000236502
0.000554954
0.000506218
0.000491094
0.000480619
0.00047254
0.000466481
0.000462647
0.000459899
0.000457837
0.000456196
0.000454635
0.000453111
0.000451556
0.0004499
0.000448137
0.000446255
0.000444237
0.000442041
0.000439623
0.00043705
0.000435469
0.000434206
0.000423064
0.000399248
0.000364314
0.000318907
0.000255886
0.000211577
0.000113685
5.8546e-06
4.97541e-07
1.1547e-15
1.1547e-15
1.1547e-15
1.1547e-15
1.1547e-15
1.1547e-15
1.1547e-15
1.1547e-15
0.000350422
0.000136853
5.18015e-05
3.52372e-05
2.66163e-05
2.40907e-05
2.36381e-05
2.31491e-05
2.25914e-05
2.20473e-05
2.14756e-05
2.09256e-05
2.03979e-05
1.99032e-05
1.94451e-05
1.90242e-05
1.86354e-05
1.82771e-05
1.79602e-05
1.76888e-05
1.74674e-05
1.7324e-05
1.72601e-05
1.72716e-05
1.73339e-05
1.74447e-05
1.75848e-05
1.77334e-05
1.78768e-05
1.8013e-05
1.81331e-05
1.82245e-05
1.81671e-05
1.78647e-05
2.07134e-05
3.41118e-05
5.70028e-05
8.84176e-05
0.00011357
0.000208244
0.00022006
0.000205891
0.000197058
0.000191605
0.00018788
0.000185504
0.000183734
0.000182077
0.000180525
0.000178985
0.00017752
0.000176157
0.000174917
0.000173822
0.000172897
0.000172169
0.000171626
0.000171279
0.000171083
0.000171644
0.00017868
0.000197453
0.000218315
0.000235178
0.000242508
0.000236805
0.000218762
0.000175448
2.86155e-05
6.43751e-08
5.2553e-09
1.1547e-15
1.1547e-15
1.1547e-15
1.1547e-15
1.1547e-15
1.1547e-15
1.1547e-15
7.19041e-05
1.94174e-05
8.10206e-06
5.61532e-06
4.38973e-06
4.04928e-06
3.96082e-06
3.7469e-06
3.50444e-06
3.32268e-06
3.09509e-06
2.86963e-06
2.68228e-06
2.5034e-06
2.35524e-06
2.25023e-06
2.17063e-06
2.1247e-06
2.11052e-06
2.12634e-06
2.16764e-06
2.239e-06
2.34049e-06
2.44939e-06
2.53546e-06
2.61566e-06
2.70369e-06
2.79637e-06
2.8915e-06
2.98784e-06
3.08338e-06
3.17559e-06
3.24265e-06
3.26505e-06
3.87474e-06
6.52906e-06
1.11572e-05
1.7931e-05
4.3403e-06
2.96902e-05
3.17338e-05
3.16759e-05
2.89789e-05
2.83903e-05
2.81099e-05
2.71071e-05
2.66151e-05
2.61195e-05
2.54231e-05
2.49902e-05
2.45818e-05
2.42231e-05
2.4036e-05
2.3907e-05
2.38787e-05
2.3929e-05
2.40474e-05
2.42147e-05
2.44119e-05
2.46949e-05
2.58454e-05
2.89188e-05
2.52539e-06
3.89131e-05
7.68568e-05
0.000113866
0.000136877
0.000150443
6.67922e-05
2.25511e-06
1.8964e-07
1.1547e-15
1.1547e-15
1.1547e-15
1.1547e-15
1.1547e-15
1.1547e-15
1.1547e-15
7.50462e-06
2.56666e-05
3.00016e-05
6.77682e-07
1.01892e-06
8.21755e-07
6.78827e-07
4.0211e-07
4.94292e-08
2.73102e-05
2.58508e-05
2.43543e-05
2.3133e-05
2.19097e-05
2.08855e-05
2.01976e-05
1.96955e-05
1.94752e-05
1.9522e-05
1.98134e-05
2.03094e-05
2.10151e-05
2.191e-05
2.27525e-05
2.32451e-05
2.3558e-05
2.38701e-05
2.41769e-05
2.44758e-05
2.47566e-05
2.50146e-05
2.52479e-05
2.54544e-05
2.56339e-05
2.57588e-05
2.49748e-05
2.29648e-05
1.94438e-05
1.61565e-05
2.04555e-05
1.15051e-05
1.24398e-05
1.23128e-05
1.25278e-05
1.25934e-05
1.22032e-05
1.20515e-05
1.19491e-05
1.17577e-05
1.16906e-05
1.1624e-05
1.15595e-05
1.15557e-05
1.15542e-05
1.15748e-05
1.16058e-05
1.1639e-05
1.16658e-05
1.16807e-05
1.16547e-05
1.15079e-05
1.01383e-05
8.4392e-06
1.20453e-05
1.51407e-05