/*--------------------------------*- C++ -*----------------------------------*\
| =========                 |                                                 |
| \\      /  F ield         | OpenFOAM: The Open Source CFD Toolbox           |
|  \\    /   O peration     | Version:  2312                                  |
|   \\  /    A nd           | Website:  www.openfoam.com                      |
|    \\/     M anipulation  |                                                 |
\*---------------------------------------------------------------------------*/
FoamFile
{
    version     2.0;
    format      ascii;
    arch        "LSB;label=32;scalar=64";
    class       volScalarField;
    location    "350";
    object      turbulenceProperties:I;
}
// * * * * * * * * * * * * * * * * * * * * * * * * * * * * * * * * * * * * * //

dimensions      [0 0 0 0 0 0 0];

internalField   nonuniform List<scalar> 
10720
(
0.00384096
0.00436846
0.00448606
0.00467769
0.00491497
0.00517161
0.00549157
0.00588901
0.00640441
0.00709559
0.00802815
0.00933289
0.0112306
0.013974
0.0180533
0.0257525
0.0371305
0.0536858
0.07899
0.110863
0.150583
0.204534
0.26381
0.333624
0.426842
0.482795
0.679079
0.884146
0.750348
0.496207
0.279867
0.0984975
0.059352
0.0272635
5.77404e-08
0.0207234
0.126417
0.499375
0.783672
0.00493556
0.00719268
0.00855227
0.00954183
0.00944499
0.0142073
0.0291827
0.0433067
0.0254725
0.0168794
0.0138519
0.013078
0.0133972
0.01483
0.0168326
0.0210181
0.0241082
0.0346542
0.0407097
0.0445959
0.050238
0.0588716
0.067768
0.0783005
0.0890999
0.0989012
0.0943499
0.0738555
0.0478213
0.0252887
0.00930283
0.00201547
0.000912265
0.000575468
0.000343516
0.000138531
1.87104e-05
0.0739191
0.508672
0.00493589
0.00417085
0.00380121
0.0035103
0.0032309
0.00299008
0.00278799
0.00261716
0.00247907
0.00236743
0.00228185
0.00220752
0.00221577
0.00243945
0.00293007
0.00408988
0.0063576
0.00974349
0.0151655
0.0235731
0.0351755
0.0501046
0.0700193
0.0848496
0.130455
0.168989
0.342375
0.542508
0.514215
0.411962
0.292106
0.179778
0.0916011
0.0275656
0.00676363
0.0574831
0.0913521
0.330513
0.530159
0.00445974
0.00155926
0.00339275
0.00164964
0.00717771
0.0116547
0.0164203
0.0188046
0.0156075
0.0116467
0.00912006
0.00754633
0.00546669
0.00440613
0.00401431
0.00562591
0.0103766
0.0148806
0.00722997
0.0193249
0.0024608
0.00857015
0.0298871
0.00478373
0.0127516
0.00564874
0.00962936
0.00500448
0.00532084
0.00471044
0.00358496
0.00250454
0.00160268
0.000960568
0.000539917
0.000273027
3.52541e-05
0.0233042
0.225733
0.0027337
0.00284736
0.00242764
0.00218368
0.00199326
0.00182484
0.00169232
0.00159332
0.00152587
0.00148556
0.00146462
0.00145793
0.00145765
0.00146308
0.00175535
0.000966804
0.00303698
0.00469284
0.00739238
0.0115495
0.0171353
0.0241902
0.0130412
0.0076222
0.043007
0.0370967
0.147364
0.292448
0.308827
0.284645
0.231602
0.170421
0.106193
0.0444395
0.016614
0.00148593
0.0555373
0.196293
0.38629
0.00204471
0.00217298
0.00434915
0.00677641
0.00829524
0.00883708
0.00898114
0.00995113
0.00961198
0.00845177
0.00738984
0.00662919
0.00605503
0.00548153
0.00501959
0.00460153
0.00437874
0.00382578
0.00334545
0.0029878
0.00180333
0.00406657
0.00124438
0.0025297
0.00602918
0.00294766
0.00330962
0.00270326
0.00278139
0.00253745
0.00208217
0.00167234
0.00137026
0.00119687
0.00108774
0.00121022
9.55433e-10
0.0154201
0.136759
0.00180055
0.000398895
0.000835603
0.000815212
0.00088573
0.000921227
0.000935738
0.000952652
0.000979247
0.000985114
0.000981666
0.000979497
0.000983432
0.00100295
0.00101773
0.00100291
0.000935413
0.000592631
0.00074931
0.000246942
6.06966e-10
6.12969e-10
0.00602806
0.00357141
0.0201572
0.0173371
0.000159272
0.000459904
0.000691385
0.00119695
0.00326181
0.0164682
0.0490086
0.0465497
0.0265879
0.00118975
0.349843
0.0489014
0.298458
0.00280209
0.00485982
0.00569638
0.00541909
0.00408515
0.0010577
0.00267308
0.00290471
0.000251275
0.00157459
0.00201305
0.0022634
0.0024378
0.00254926
0.00261451
0.00266891
0.00271885
0.00275042
0.00280494
0.00287498
0.0028846
0.00287639
0.00277722
0.00276552
0.00266302
0.00251532
0.00251266
0.00248821
0.0024649
0.00245001
0.00243492
0.00241091
0.00236878
0.00232301
0.00223114
0.00255189
0.000345065
0.0140404
0.118572
0.0037616
0.00351255
0.00331616
0.00313633
0.00297863
0.00283829
0.002712
0.00260104
0.00254557
0.00244775
0.00232385
0.00226198
0.00221025
0.00216986
0.00214021
0.00211604
0.0020821
0.00201253
0.00180216
0.00059959
0.000905072
0.00061744
6.39332e-10
6.50689e-10
6.64745e-10
6.80402e-10
7.60457e-05
0.000217682
0.000323138
0.000551841
0.00148557
0.00745043
0.00109424
0.000140037
0.0204512
0.0272559
0.0889279
0.0836269
0.198476
0.00477696
0.00453154
0.00291654
0.0021365
0.00163984
0.00159177
0.00173988
0.00181618
0.00180099
0.001785
0.00172257
0.00165543
0.00161008
0.00157456
0.00153884
0.00151575
0.00152882
0.00150751
0.00148225
0.00150023
0.00150256
0.00149982
0.00146048
0.00145433
0.00141351
0.00135485
0.00135382
0.00134466
0.00133643
0.00133218
0.00132741
0.00131512
0.00129259
0.000257169
0.000246121
0.00150724
0.000208835
0.0133106
0.108794
0.00416848
0.00368917
0.00338274
0.00312625
0.00291113
0.00272771
0.00257339
0.00244303
0.0023349
0.00225405
0.0021881
0.00213711
0.00209981
0.00207594
0.00205315
0.00205994
0.00211007
0.00213216
0.00213779
0.00215644
0.00210028
0.00143818
0.000854075
0.00070087
4.39099e-06
6.84366e-10
7.00616e-10
7.16757e-10
7.34019e-10
7.5373e-10
7.76854e-10
8.04874e-10
0.000507256
6.50541e-05
2.50705e-05
9.797e-05
0.000717756
0.000830494
0.000483261
0.00322692
0.000748798
0.00129077
0.00158879
0.00250406
0.00389881
0.00422893
0.00435867
0.00432932
0.00415326
0.00389067
0.00359582
0.00332896
0.00308783
0.00285159
0.00264621
0.00256505
0.00237136
0.0021207
0.00201146
0.00192552
0.00184821
0.00176607
0.00169029
0.0016268
0.00157245
0.00152547
0.00148452
0.00144925
0.00141969
0.00139106
0.00134858
0.00129489
0.00125977
0.00104377
0.00135433
0.000192255
0.0122061
0.0971888
0.00200967
0.00208813
0.00175724
0.00153631
0.00136999
0.00123087
0.00111568
0.0010259
0.000960583
0.000919418
0.000899915
0.000899996
0.000916722
0.000947904
0.000993634
0.00105555
0.00112342
0.00122292
0.00138199
0.00156149
0.00172058
0.00181876
0.00181442
0.00161792
1.00243e-05
2.89456e-05
7.04434e-10
7.20525e-10
7.3844e-10
7.59228e-10
7.83197e-10
8.10813e-10
8.41196e-10
8.82516e-10
1.19101e-05
4.32736e-05
0.0002711
4.27218e-09
0.000290115
0.00132319
0.00123332
0.00216026
0.00370603
0.0045561
0.00502019
0.00533354
0.00552531
0.0055785
0.00549693
0.00531649
0.00507819
0.00484004
0.00461031
0.00436561
0.00414679
0.00396564
0.00381456
0.0036714
0.00353274
0.00339877
0.00327317
0.00315589
0.00304636
0.00294701
0.00285926
0.00278191
0.00271316
0.0026517
0.00259679
0.00254843
0.00250031
0.0024357
0.00231359
0.00224223
0.00225502
0.000327902
0.0103011
0.0796766
0.000908127
0.000917793
0.000871884
0.000817895
0.000792734
0.000772099
0.000747611
0.000730111
0.000715086
0.000702504
0.000696141
0.000694232
0.000696575
0.000703951
0.000716367
0.000734831
0.000756149
0.00079046
0.000201548
0.000629153
0.000948115
0.00122661
0.00145618
0.00157019
0.0018244
6.54396e-05
1.4704e-05
7.2371e-10
7.41181e-10
7.6178e-10
7.8607e-10
8.14504e-10
8.46508e-10
8.78813e-10
9.07232e-10
9.37846e-10
1.0309e-09
2.45622e-09
2.05747e-08
0.000306055
0.00282497
0.00370431
0.00378895
0.00349223
0.00346278
0.00367062
0.00383372
0.00393566
0.0039751
0.00396082
0.00391108
0.00383399
0.00376201
0.00369933
0.00361985
0.00351406
0.00339839
0.00327998
0.00316183
0.0030472
0.00293777
0.00283323
0.00273511
0.00264633
0.00256771
0.00249847
0.00243733
0.00238331
0.00233555
0.00229345
0.00225988
0.00223252
0.00219483
0.0021624
0.00227073
0.000338111
0.00783748
0.0589229
0.00175271
0.00167223
0.00170903
0.00173426
0.00174758
0.00174839
0.00174124
0.0017245
0.0016981
0.00166773
0.00163769
0.00160849
0.00158077
0.00155582
0.00153438
0.00151657
0.0014995
0.00148618
0.00149627
0.00141953
0.00131489
0.00132979
0.0014104
0.00144748
0.00184478
0.000101474
2.32125e-05
7.27818e-10
7.44678e-10
7.64529e-10
7.88082e-10
8.15805e-10
8.48606e-10
8.80539e-10
9.04021e-10
9.20606e-10
9.48489e-10
1.7108e-09
8.93555e-09
0.00309161
0.00335989
0.00278627
0.00193022
0.000593717
0.0012501
0.00131617
0.000413569
0.000665605
0.000880395
0.00106816
0.00123182
0.001378
0.00150957
0.00162524
0.00167054
0.00166777
0.00164461
0.00160359
0.00154839
0.00149277
0.00143886
0.00138048
0.00132439
0.00127771
0.00123806
0.00120375
0.00117471
0.00115073
0.00113112
0.00111471
0.00110461
0.00112731
0.00117727
0.00122081
0.00156713
0.000238913
0.00519306
0.0379884
0.00302251
0.00274646
0.00263032
0.00252568
0.00242785
0.00233396
0.00225971
0.00219117
0.00212032
0.00205897
0.00200833
0.00196363
0.00192498
0.00189541
0.001873
0.00185523
0.00183727
0.001839
0.00184944
0.0018149
0.00175309
0.00169728
0.00167179
0.00159942
0.00183415
0.000150585
3.50611e-05
7.3216e-10
7.48554e-10
7.678e-10
7.90561e-10
8.17155e-10
8.48684e-10
8.8123e-10
9.03671e-10
9.16897e-10
9.04706e-10
1.31725e-09
3.53844e-09
0.00295898
0.00195779
0.00123074
0.000733275
0.000563089
0.000571181
0.000596739
0.0006261
0.000655588
0.000683592
0.000706149
0.000727099
0.000750164
0.000774633
0.000801093
0.000811908
0.000809952
0.000803355
0.000791759
0.000775297
0.000758655
0.000742777
0.000724679
0.000706575
0.000691229
0.000678007
0.000666498
0.000656823
0.000648932
0.000642518
0.000637231
0.000634216
0.000640633
0.000653996
0.000681338
0.000808018
0.000225235
0.0026592
0.0189631
0.00233847
0.00218224
0.00198879
0.00182115
0.00168085
0.00155796
0.00147218
0.00140627
0.00133451
0.00128497
0.0012602
0.00124013
0.00122679
0.00123291
0.00125182
0.00127104
0.00129773
0.00134091
0.00141455
0.00149962
0.00155996
0.00159306
0.00162677
0.00159332
0.00178923
0.000220176
5.21617e-05
7.3667e-10
7.52577e-10
7.71269e-10
7.9334e-10
8.18994e-10
8.48824e-10
8.80491e-10
9.02978e-10
9.18785e-10
8.86591e-10
1.09278e-09
2.01919e-09
0.0012495
0.000818208
0.00069693
0.000690588
0.00135648
0.00145488
0.00150359
0.00153264
0.00154112
0.00153046
0.00150264
0.00146123
0.00141093
0.00135576
0.0013004
0.00124683
0.00119544
0.00114863
0.00110602
0.00106548
0.00102877
0.000996566
0.000965823
0.000937114
0.000912365
0.000890273
0.000870076
0.000851933
0.000835593
0.000820598
0.000806985
0.000794363
0.000769824
0.000727709
0.000752975
0.000621792
0.0004798
0.000685378
0.00474396
0.000446811
0.00065107
0.000759601
0.00065925
0.000616271
0.000579047
0.000548149
0.000527613
0.000504582
0.0004887
0.000483685
0.000480535
0.000480118
0.000488002
0.000501208
0.000514938
0.000532103
0.000568538
0.00034444
0.000610211
0.000861608
0.00106216
0.0012232
0.00128535
0.00157766
0.000299381
7.2143e-05
7.41323e-10
7.56697e-10
7.74804e-10
7.96185e-10
8.20994e-10
8.49417e-10
8.79515e-10
9.01305e-10
9.20754e-10
8.85267e-10
9.67558e-10
1.41875e-09
0.000613916
0.000919459
0.00175878
0.00227173
0.00245221
0.00253678
0.00260796
0.00266263
0.00269565
0.00270621
0.00269428
0.00266378
0.00261868
0.00256316
0.0025007
0.00243396
0.00236479
0.00229472
0.00222509
0.00215668
0.00209003
0.00202575
0.00196428
0.00190606
0.00185183
0.00180227
0.00175747
0.00171712
0.00168081
0.00164811
0.00161859
0.00159186
0.0015643
0.00152657
0.00147979
0.0014061
0.00135374
0.000658936
0.00230109
0.000697276
0.000593042
0.000577366
0.000573475
0.000577105
0.000576791
0.0005676
0.00056211
0.000556365
0.000548778
0.00054299
0.000537291
0.000532023
0.000527953
0.000524516
0.000522133
3.00282e-05
0.000158333
0.000197578
0.000204547
0.000359045
0.000576935
0.00079825
0.000906798
0.00128262
0.000387353
9.49143e-05
7.46148e-10
7.60946e-10
7.78422e-10
7.99069e-10
8.22998e-10
8.50196e-10
8.78803e-10
8.99401e-10
9.20442e-10
8.92882e-10
9.02734e-10
1.14532e-09
0.00114863
0.00201558
0.00228898
0.00218143
0.00218391
0.00223889
0.00228983
0.00233143
0.00236003
0.00237418
0.00237163
0.00235571
0.00232886
0.00229351
0.00225148
0.00220411
0.00215273
0.00209856
0.00204257
0.00198568
0.00192869
0.00187233
0.00181727
0.00176442
0.00171487
0.00166936
0.00162809
0.00159093
0.00155763
0.00152787
0.00150139
0.00147838
0.00146199
0.00144884
0.00143383
0.00141145
0.00139234
0.00132871
0.000454929
0.0015483
0.00152146
0.00155701
0.00157471
0.00157491
0.00156246
0.00154606
0.00152915
0.0015107
0.00149025
0.00146853
0.00144597
0.00142316
0.00140072
0.00137915
0.00135896
0.00134041
0.00132405
0.00130896
0.00127616
0.00124365
0.00115847
0.00107858
0.00103068
0.00121413
0.00056004
1.76745e-07
4.27116e-08
7.65333e-10
7.82146e-10
8.02022e-10
8.25022e-10
8.51011e-10
8.78276e-10
8.97891e-10
9.18037e-10
9.02974e-10
8.74379e-10
1.01144e-09
0.00210547
0.00201718
0.00153606
0.00110802
0.00102915
0.00104355
0.00106128
0.00107266
0.00108173
0.00108833
0.00109172
0.00109161
0.00108798
0.00108113
0.0010711
0.00105805
0.0010421
0.0010236
0.00100276
0.000980015
0.000955826
0.000930777
0.000905494
0.000881066
0.000858394
0.000837708
0.000819152
0.00080271
0.000788409
0.000776193
0.000765919
0.000756682
0.000751706
0.000776832
0.000816225
0.00086282
0.000922052
0.00102517
0.000814717
0.00200092
0.00187269
0.00182266
0.00178295
0.0017423
0.00169335
0.00165307
0.00161941
0.00158859
0.00156005
0.00153357
0.00150933
0.00148766
0.00146869
0.00145309
0.00144049
0.00142961
0.00142091
0.00141412
0.00142036
0.00142027
0.00137392
0.00131309
0.00123988
0.00127943
0.000816831
1.75185e-06
4.3052e-07
7.6986e-10
7.85983e-10
8.0506e-10
8.27104e-10
8.51872e-10
8.77806e-10
8.96873e-10
9.14768e-10
9.113e-10
8.67317e-10
9.45759e-10
0.00170471
0.000971159
0.000666058
0.000411489
0.0003855
0.000395571
0.000403477
0.000404943
0.000405751
0.000406652
0.00040493
0.00040261
0.000401168
0.000399411
0.000397937
0.000397029
0.000395831
0.000394462
0.000392697
0.000390342
0.0003873
0.000383705
0.000379679
0.000375241
0.000370462
0.000365801
0.000361658
0.000358066
0.000355086
0.000352736
0.000350992
0.000349478
0.000349718
0.000363875
0.000384769
0.000409171
0.000443428
0.000347817
0.000512541
0.00130139
0.00124826
0.00111595
0.00102598
0.00096182
0.000932825
0.000923327
0.000917834
0.000909357
0.000900957
0.000894148
0.000889957
0.000888943
0.000891309
0.000897393
0.000906093
0.000916076
0.000926358
0.000950108
0.00100079
0.00106929
0.00112675
0.00116355
0.00116833
0.0012066
0.000998084
3.86205e-06
9.65022e-07
7.74527e-10
7.89935e-10
8.08191e-10
8.29261e-10
8.5282e-10
8.77385e-10
8.96164e-10
9.11716e-10
9.16143e-10
8.71473e-10
9.16392e-10
0.000342265
0.000366922
0.000367976
0.000449772
0.000472597
0.000492536
0.000504514
0.000508002
0.000508327
0.000507088
0.000501123
0.000493767
0.000487393
0.000480675
0.00047468
0.000470059
0.000465733
0.000462072
0.000458666
0.00045538
0.000451962
0.000448433
0.000444803
0.00044055
0.000435355
0.000429906
0.000424821
0.000420146
0.000415905
0.00041209
0.000408687
0.000405671
0.000403106
0.000397221
0.000384928
0.0003649
0.000337812
0.000352036
0.000362736
0.000466752
0.000452386
0.000419124
0.000379431
0.000358948
0.000351662
0.000346822
0.000345852
0.000343767
0.000340862
0.000339968
0.000340239
0.000342028
0.00034588
0.000351432
0.000358406
0.000366158
0.000374246
0.000387935
0.000416078
0.000175078
0.000459286
0.000661241
0.000803847
0.000905723
0.000954032
6.48381e-06
1.64675e-06
7.79331e-10
7.94004e-10
8.11418e-10
8.31502e-10
8.53875e-10
8.77069e-10
8.95573e-10
9.09399e-10
9.1778e-10
8.80082e-10
9.06762e-10
0.000274433
0.000558349
0.000960637
0.00116879
0.001213
0.00124469
0.00126824
0.00128532
0.00129604
0.0013012
0.00130153
0.00129744
0.00128964
0.00127877
0.00126524
0.00124934
0.00123132
0.00121143
0.00118987
0.00116691
0.00114285
0.00111799
0.00109266
0.00106732
0.00104258
0.00101897
0.000996792
0.000976182
0.000957193
0.000939816
0.000923988
0.000909627
0.000896834
0.000877242
0.000844215
0.000795089
0.000731581
0.000668073
0.000571126
0.000430874
0.000369931
0.000400001
0.000399148
0.000403451
0.000398915
0.000389495
0.000382706
0.000375772
0.000367711
0.000361387
0.000355403
0.000349996
0.000345605
0.00034342
0.000341224
0.000339292
0.000337723
0.00033659
0.000335635
0.000333884
0.00036193
0.000408703
0.000300392
0.000485603
0.0007398
9.17577e-06
2.36796e-06
7.84267e-10
7.98187e-10
8.14746e-10
8.33833e-10
8.5504e-10
8.76911e-10
8.95017e-10
9.07856e-10
9.17448e-10
8.89028e-10
9.07156e-10
0.000679067
0.00128026
0.00148514
0.00150063
0.00152189
0.00154768
0.0015686
0.00158382
0.00159333
0.00159764
0.00159742
0.00159308
0.00158512
0.00157409
0.00156031
0.00154396
0.00152521
0.0015042
0.00148106
0.00145596
0.00142916
0.00140095
0.00137165
0.00134177
0.00131215
0.00128355
0.00125641
0.00123098
0.00120741
0.00118575
0.00116597
0.00114806
0.00113282
0.00111781
0.00109741
0.0010684
0.00103394
0.000981602
0.000891973
0.000999106
0.00100804
0.00105507
0.00107469
0.00108082
0.00106221
0.00104595
0.00102906
0.00101147
0.000993592
0.000975759
0.000958208
0.00094114
0.000924582
0.000913175
0.000900641
0.0008882
0.000876254
0.000865255
0.000854704
0.000822258
0.000767286
0.000711455
0.000648926
0.000572633
0.000707002
1.59087e-05
4.17029e-06
7.89327e-10
8.02484e-10
8.18175e-10
8.36263e-10
8.5632e-10
8.76938e-10
8.94501e-10
9.06894e-10
9.16406e-10
8.96429e-10
9.11655e-10
0.00144045
0.00142198
0.00118474
0.00105552
0.00105279
0.001064
0.00107502
0.00108201
0.00108593
0.00108744
0.00108703
0.00108483
0.00108085
0.00107524
0.00106808
0.00105934
0.00104904
0.00103716
0.0010237
0.0010087
0.000992268
0.000974545
0.000955775
0.000936377
0.000917005
0.00089819
0.000880255
0.000863429
0.000847856
0.000833605
0.000820727
0.000809145
0.00079968
0.000797807
0.000806006
0.000819963
0.000838718
0.000853573
0.000839134
0.00142009
0.00134584
0.00132877
0.00130916
0.00128518
0.00125834
0.00123136
0.00120508
0.00118
0.0011566
0.00113479
0.00111446
0.00109563
0.00107819
0.00106209
0.00104729
0.00103384
0.00102178
0.00101131
0.00100494
0.00099541
0.000975033
0.000936941
0.000878381
0.000792308
0.00081191
3.15243e-05
8.39136e-06
7.94503e-10
8.06889e-10
8.21706e-10
8.38796e-10
8.5772e-10
8.77153e-10
8.94077e-10
9.06287e-10
9.15451e-10
9.01988e-10
9.16941e-10
0.00125821
0.000855019
0.000125051
0.000404713
0.00040499
0.000414154
0.000419282
0.000418093
0.000415466
0.000412647
0.000406808
0.000400597
0.000395844
0.00039119
0.000387658
0.000385758
0.000384591
0.000384306
0.000384573
0.000385115
0.000385583
0.00038588
0.000385873
0.000384915
0.000382561
0.00037959
0.000376641
0.000373815
0.000371195
0.000368816
0.000366733
0.000364947
0.000363859
0.000366019
0.000374932
0.000204799
0.000346092
0.000476873
0.000580651
0.00100901
0.000967099
0.000906725
0.000865009
0.000828083
0.000795116
0.000768076
0.000745817
0.000727525
0.000712782
0.00070082
0.000691217
0.000683639
0.000677862
0.000673772
0.000671275
0.000670415
0.000671226
0.00067374
0.000680488
0.000704407
0.000741939
0.000769874
0.000792556
0.000779916
0.000818883
5.56524e-05
1.50375e-05
7.99785e-10
8.11398e-10
8.25339e-10
8.41436e-10
8.59249e-10
8.77556e-10
8.93796e-10
9.05886e-10
9.14891e-10
9.06181e-10
9.21554e-10
0.000463254
0.000350919
4.78868e-05
0.000105528
0.000112937
0.000121512
0.000129823
0.000132324
0.000131662
0.00013006
0.000127183
0.00012409
0.00012174
0.000119584
0.000117903
0.000116967
0.000116438
0.000116364
0.000116686
0.000117262
0.000117984
0.000118774
0.000119622
0.000120228
0.000120245
0.000119875
0.0001194
0.000118883
0.000118357
0.000117848
0.000117375
0.000116962
0.000116374
0.000114436
0.000103277
0.000125354
0.000174709
0.000226169
0.000159986
0.000370076
0.000357672
0.000347107
0.000325014
0.000313284
0.000303223
0.000290841
0.000282449
0.000275522
0.000269097
0.000264954
0.00026186
0.000259753
0.000258985
0.000259089
0.00026011
0.000261987
0.000264676
0.000268129
0.000273314
0.000288982
0.000149574
0.000336047
0.00046946
0.000545798
0.000685338
8.62451e-05
2.36497e-05
8.05163e-10
8.16004e-10
8.29073e-10
8.44188e-10
8.60914e-10
8.78142e-10
8.93693e-10
9.05633e-10
9.14722e-10
9.09596e-10
9.2519e-10
0.000168967
0.000221837
0.000355289
0.000271152
0.000287212
0.00030481
0.000324597
0.000333885
0.00033574
0.000334836
0.000332848
0.000330316
0.000328012
0.000325852
0.000323612
0.000321475
0.00031937
0.000317175
0.000314906
0.000312497
0.000309876
0.000306968
0.000303814
0.000300451
0.000296731
0.00029262
0.000288339
0.000284068
0.000279895
0.000275898
0.000272128
0.000268632
0.000264878
0.000258224
0.000231122
0.000181577
0.000145792
0.000275457
0.000254351
0.00018772
0.000188731
0.000202024
0.000199682
0.000200486
0.000200193
0.00019565
0.000192124
0.000188417
0.000184023
0.000180555
0.000177284
0.000174258
0.000171841
0.000169672
0.000167864
0.000166349
0.000165119
0.000164171
0.000163375
0.000161849
0.000162296
0.000194908
0.00022372
0.000267477
0.00043675
0.000110314
3.06884e-05
8.10623e-10
8.20702e-10
8.32907e-10
8.47054e-10
8.62722e-10
8.78915e-10
8.93781e-10
9.05528e-10
9.14833e-10
9.12624e-10
9.28054e-10
0.000379807
0.000599684
0.000886956
0.000913466
0.000926523
0.000938801
0.000953984
0.000963627
0.000967133
0.000967483
0.000966391
0.00096426
0.000961264
0.00095745
0.0009528
0.00094734
0.000941036
0.000933818
0.000925631
0.000916397
0.000906062
0.000894585
0.00088197
0.000868348
0.000854062
0.000839515
0.000825041
0.000810888
0.000797245
0.000784262
0.000772046
0.000760652
0.000750107
0.000740754
0.000724159
0.000698683
0.000660718
0.000601345
0.000530233
0.000507413
0.000507081
0.000525463
0.000530907
0.000530831
0.00052726
0.00052069
0.00051284
0.000504536
0.000495984
0.000487497
0.000479224
0.000471168
0.000463387
0.000455909
0.000448755
0.000441996
0.000435709
0.000430058
0.000424718
0.000417676
0.000385793
0.000352157
0.000286256
0.000173271
0.000338635
0.00017051
5.07912e-05
8.16151e-10
8.25481e-10
8.36836e-10
8.50036e-10
8.64678e-10
8.79874e-10
8.94067e-10
9.05589e-10
9.15127e-10
9.15424e-10
9.3044e-10
0.000877015
0.000986956
0.000974659
0.000945277
0.000946824
0.000948539
0.000946649
0.000950189
0.000951448
0.00095093
0.000949936
0.000948484
0.000946256
0.000943217
0.000939388
0.000934714
0.00092919
0.00092277
0.000915382
0.00090694
0.000897385
0.000886663
0.000874711
0.000861631
0.000847844
0.000833808
0.000819803
0.000806063
0.000792756
0.000780031
0.000768035
0.000756841
0.00074643
0.000738592
0.000733127
0.000726472
0.00071286
0.000690243
0.000644248
0.000969614
0.000935741
0.000924811
0.000912132
0.000896446
0.000879446
0.000862352
0.000845859
0.000830249
0.000815576
0.000801832
0.00078896
0.00077684
0.00076541
0.000754623
0.000744435
0.000734858
0.000725906
0.000717608
0.000709998
0.000703566
0.000686421
0.000656405
0.000611713
0.000560407
0.000523306
0.000347774
3.98109e-05
1.1128e-05
8.30332e-10
8.40857e-10
8.53131e-10
8.66783e-10
8.81024e-10
8.94549e-10
9.05833e-10
9.15553e-10
9.18022e-10
9.32548e-10
0.000982474
0.000801535
0.000529888
0.000465952
0.000445262
0.000429879
0.000474865
0.000492975
0.000498302
0.000498608
0.000497561
0.000496026
0.000493947
0.000491377
0.000488439
0.000485166
0.00048167
0.000477915
0.000473943
0.000469724
0.000465219
0.000460447
0.000455381
0.000450086
0.000444508
0.00043891
0.00043326
0.000427661
0.000422161
0.000416868
0.000411783
0.000406975
0.00040213
0.000399558
0.000416279
0.000442437
0.000468956
0.00050842
0.000525316
0.000856312
0.000822302
0.000796961
0.000776531
0.000757381
0.000738866
0.000722353
0.000707568
0.000694147
0.000682218
0.000671472
0.000661685
0.00065277
0.000644577
0.000637029
0.000630098
0.000623786
0.000618073
0.000613029
0.000608552
0.000608186
0.000614842
0.000618644
0.000614035
0.000599047
0.000573711
0.000494195
0.000103971
2.9477e-05
8.35242e-10
8.4496e-10
8.56339e-10
8.69038e-10
8.82363e-10
8.95228e-10
9.06263e-10
9.16095e-10
9.20402e-10
9.34458e-10
0.000523497
8.74891e-05
0.000208361
0.000181374
0.000174685
0.000170582
0.000188653
0.000193692
0.000193361
0.000191286
0.000187301
0.000183017
0.000179471
0.000175861
0.000172908
0.000171006
0.000169732
0.000169294
0.000169603
0.000170506
0.000171819
0.000173472
0.000175374
0.000176945
0.000177532
0.000177663
0.000177715
0.0001777
0.000177633
0.000177543
0.000177425
0.000177311
0.000177071
0.000177731
0.000186966
0.00020056
0.000216526
0.000142584
0.000292795
0.000300609
0.000353627
0.000309704
0.000285024
0.000269439
0.000257585
0.000247887
0.000240746
0.000235268
0.000231263
0.000228559
0.000226818
0.000225921
0.000225854
0.000226454
0.000227828
0.00022995
0.000232895
0.000236671
0.000240213
0.000246765
0.000284336
0.000341353
0.00039555
0.000441995
0.000468599
0.000487751
0.000187042
5.44927e-05
8.40201e-10
8.4914e-10
8.59654e-10
8.71439e-10
8.83888e-10
8.961e-10
9.06875e-10
9.16753e-10
9.22557e-10
9.36184e-10
0.000218813
8.03493e-05
0.000160705
0.00017151
0.000180149
0.000187098
0.000183498
0.000181531
0.000180551
0.000173232
0.000165925
0.000160927
0.00015736
0.000153982
0.00015125
0.000149502
0.0001483
0.000147847
0.00014806
0.000148795
0.000149865
0.000151235
0.000152767
0.000153883
0.000154023
0.000153676
0.000153271
0.00015281
0.000152316
0.000151804
0.000151305
0.00015085
0.000150451
0.000150187
0.000146916
0.000137384
0.000120618
0.000120859
0.000152236
0.000112248
0.000132963
0.000120418
0.000108534
0.00010314
9.9234e-05
9.45732e-05
9.16364e-05
8.93106e-05
8.72189e-05
8.60486e-05
8.52771e-05
8.48947e-05
8.5071e-05
8.55778e-05
8.65085e-05
8.7822e-05
8.95312e-05
9.16199e-05
9.36447e-05
9.68375e-05
0.000112197
0.000135332
0.000161912
0.000123489
0.000238836
0.000350064
0.000242671
2.17988e-05
6.21101e-06
8.53387e-10
8.63073e-10
8.73982e-10
8.85595e-10
8.97162e-10
9.0766e-10
9.17525e-10
9.24501e-10
9.3772e-10
0.00018621
0.000196708
0.000409361
0.000436506
0.000454392
0.000466084
0.000456257
0.000456338
0.000459734
0.000446517
0.000436567
0.000432968
0.000431042
0.000429582
0.000428124
0.000426481
0.000424608
0.00042244
0.000419935
0.000417034
0.000413703
0.000409886
0.000405518
0.000400666
0.000395521
0.000390215
0.000384799
0.000379342
0.000373909
0.000368575
0.000363396
0.000358461
0.000353822
0.00034963
0.000338627
0.000313583
0.000272699
0.000227495
0.000155829
0.000265267
0.000208249
0.00020976
0.000200977
0.000197913
0.000195443
0.000190286
0.000186931
0.000183784
0.000180104
0.00017746
0.000174961
0.000172674
0.000170957
0.000169418
0.000168176
0.00016713
0.000166254
0.000165498
0.000164822
0.000164219
0.000161586
0.000153688
0.000141239
0.000136212
0.000153573
0.000120295
0.000213059
5.55805e-05
1.65265e-05
8.57694e-10
8.66587e-10
8.76663e-10
8.87476e-10
8.9841e-10
9.08608e-10
9.18406e-10
9.26257e-10
9.39068e-10
0.000469001
0.000642138
0.000677862
0.000681032
0.000689068
0.000696104
0.000700409
0.000702549
0.000706309
0.0007018
0.000696976
0.000697544
0.00069673
0.000695156
0.000693077
0.000690606
0.000687795
0.000684643
0.000681105
0.000677123
0.000672622
0.000667508
0.000661665
0.000655071
0.00064788
0.000640263
0.000632328
0.000624191
0.000615969
0.000607776
0.000599717
0.000591915
0.000584476
0.00057781
0.000561435
0.00054619
0.000532612
0.000499134
0.000446479
0.000575812
0.000553273
0.000539626
0.000529042
0.000519162
0.000510344
0.000502834
0.000496164
0.000490167
0.000484654
0.000479447
0.000474463
0.000469631
0.000464903
0.000460257
0.000455682
0.000451184
0.000446778
0.000442496
0.000438397
0.000434666
0.000426106
0.000404105
0.000370913
0.00033214
0.000295725
0.000254483
0.000264777
0.000138354
9.63312e-06
2.75911e-06
8.70191e-10
8.79474e-10
8.89526e-10
8.99838e-10
9.09709e-10
9.19386e-10
9.27855e-10
9.40239e-10
0.000726385
0.000653608
0.000579362
0.000561208
0.000555482
0.000556235
0.000558135
0.000559479
0.000560117
0.00056603
0.000567394
0.000567239
0.000566351
0.000565045
0.000563478
0.000561693
0.000559663
0.000557426
0.00055489
0.000552006
0.000548707
0.000544927
0.000540542
0.000535502
0.000529933
0.000524017
0.000517854
0.000511507
0.000505075
0.000498651
0.000492325
0.000486145
0.000480196
0.000475015
0.000472865
0.000474194
0.00047772
0.000477448
0.000459376
0.000701741
0.000663827
0.000646657
0.000632346
0.000619976
0.000608817
0.000599292
0.000590828
0.000583056
0.00057588
0.000569095
0.000562621
0.000556428
0.000550456
0.000544689
0.000539122
0.000533753
0.000528595
0.00052367
0.000519065
0.000515495
0.000512613
0.000504461
0.000489171
0.000467033
0.000437319
0.000392807
0.000363828
0.000268414
6.12561e-05
1.79853e-05
8.73874e-10
8.82407e-10
8.91732e-10
9.01436e-10
9.10955e-10
9.20459e-10
9.29321e-10
9.41255e-10
0.000562504
0.000354503
0.000220135
0.000183326
0.000160775
0.000154254
0.000153945
0.00015326
0.000152069
0.000150677
0.000148979
0.000147182
0.000145328
0.00014349
0.000141705
0.000139989
0.000138335
0.000136742
0.000135251
0.000133877
0.000132634
0.000131621
0.000130836
0.000130255
0.000129798
0.000129474
0.000129227
0.000128993
0.000128741
0.000128487
0.00012822
0.000127922
0.000127198
0.000125734
0.000135109
0.000173254
0.000224137
0.000279831
0.000318503
0.000429517
0.000437568
0.000418873
0.000405339
0.000395474
0.000387323
0.000380678
0.00037488
0.000369357
0.000364148
0.000359165
0.000354437
0.000349997
0.000345853
0.000342014
0.000338503
0.000335347
0.000332549
0.000330146
0.000328118
0.000327066
0.00033237
0.000348349
0.0003656
0.00037918
0.000385231
0.000381386
0.000370369
0.000335585
0.000136215
6.50237e-06
1.87229e-06
8.8545e-10
8.94085e-10
9.03195e-10
9.12335e-10
9.21616e-10
9.30682e-10
9.42138e-10
0.000254473
0.000133294
8.68565e-05
7.29712e-05
6.50689e-05
6.29938e-05
6.27429e-05
6.1371e-05
5.95992e-05
5.81986e-05
5.62675e-05
5.42242e-05
5.24317e-05
5.06346e-05
4.90762e-05
4.79179e-05
4.69984e-05
4.64218e-05
4.61764e-05
4.62431e-05
4.6565e-05
4.7177e-05
4.80571e-05
4.89524e-05
4.95669e-05
5.0086e-05
5.0648e-05
5.12251e-05
5.18021e-05
5.23755e-05
5.29369e-05
5.34762e-05
5.38253e-05
5.38436e-05
5.85338e-05
7.59161e-05
9.92947e-05
0.000126142
6.22948e-05
0.000162028
0.000166093
0.000164325
0.000155566
0.000152448
0.000150131
0.00014592
0.000143164
0.000140458
0.00013729
0.00013491
0.000132663
0.000130617
0.000129095
0.000127786
0.0001268
0.000126073
0.000125582
0.000125281
0.000125128
0.000125274
0.00012767
0.000134654
3.97158e-05
0.000155765
0.000218957
0.000266884
0.000293935
0.000312589
0.000209305
3.86813e-05
1.12958e-05
8.88591e-10
8.9657e-10
9.05102e-10
9.13841e-10
9.22851e-10
9.3196e-10
9.42916e-10
8.20956e-05