/*--------------------------------*- C++ -*----------------------------------*\
| =========                 |                                                 |
| \\      /  F ield         | OpenFOAM: The Open Source CFD Toolbox           |
|  \\    /   O peration     | Version:  2312                                  |
|   \\  /    A nd           | Website:  www.openfoam.com                      |
|    \\/     M anipulation  |                                                 |
\*---------------------------------------------------------------------------*/
FoamFile
{
    version     2.0;
    format      ascii;
    arch        "LSB;label=32;scalar=64";
    class       volSymmTensorField;
    location    "350";
    object      turbulenceProperties:devReff;
}
// * * * * * * * * * * * * * * * * * * * * * * * * * * * * * * * * * * * * * //

dimensions      [0 2 -2 0 0 0 0];

internalField   nonuniform List<symmTensor> 
10720
(
(0.00348826 0.00825388 -8.15481e-21 -0.0037356 -1.25594e-19 0.000247342)
(0.00731532 0.0139524 1.03247e-20 -0.00756704 1.89515e-19 0.000251714)
(0.0124177 0.0178603 4.57607e-20 -0.0130294 1.95246e-19 0.000611679)
(0.0163587 0.0186324 2.8692e-19 -0.0170631 1.88845e-18 0.000704459)
(0.0183485 0.016442 -7.63677e-19 -0.0189637 -2.89485e-18 0.000615258)
(0.02017 0.0136796 -7.08092e-19 -0.0208873 -1.42156e-18 0.000717255)
(0.0228571 0.0114682 1.82274e-19 -0.0235972 1.32342e-20 0.000740102)
(0.0268658 0.00932473 8.78932e-20 -0.0276469 1.38975e-19 0.000781088)
(0.0327243 0.00667313 2.13163e-19 -0.0336584 -1.72185e-19 0.000934099)
(0.0409465 0.00301024 -3.44461e-20 -0.0420416 -3.45595e-20 0.00109505)
(0.0524708 -0.00272427 3.98027e-18 -0.0538225 1.70136e-18 0.00135176)
(0.0696733 -0.012154 -9.59885e-19 -0.0714181 -7.36987e-19 0.00174487)
(0.0969698 -0.0287293 2.16616e-18 -0.099323 -3.25173e-18 0.00235324)
(0.140971 -0.0594963 1.21844e-18 -0.144339 2.63234e-18 0.00336807)
(0.215275 -0.119725 2.36695e-18 -0.220435 -4.19637e-18 0.00515948)
(0.389951 -0.27368 1.08213e-18 -0.399422 2.09175e-17 0.00947058)
(0.69924 -0.606163 1.51574e-16 -0.717102 7.77599e-17 0.0178628)
(1.21775 -1.28746 -4.4634e-17 -1.25056 7.06432e-17 0.0328096)
(2.10169 -2.70928 -3.0696e-17 -2.1639 -4.25142e-16 0.0622045)
(3.15096 -4.98269 2.75791e-17 -3.25374 -7.93158e-19 0.102779)
(4.19377 -8.29535 -6.42845e-16 -4.35128 -4.63259e-16 0.157506)
(5.32426 -13.6065 1.29414e-15 -5.55471 1.90634e-15 0.23045)
(5.868 -20.5813 -6.77095e-16 -6.16411 -1.79032e-15 0.296112)
(5.93012 -32.0427 6.5645e-16 -6.35507 1.52441e-16 0.424956)
(6.41582 -61.1257 -2.42083e-16 -7.02091 -1.19458e-17 0.605094)
(4.67758 -91.0845 7.15359e-17 -5.67287 -1.75139e-15 0.99529)
(2.31304 -210.705 6.84323e-16 -5.23418 -2.12862e-16 2.92114)
(-11.9031 -372.282 7.43867e-16 9.81826 1.36713e-15 2.08479)
(-20.6024 -247.582 1.47183e-14 21.9878 3.58523e-16 -1.38544)
(-10.6578 -84.324 7.9224e-15 11.2394 3.98842e-15 -0.581626)
(-3.63414 -22.7094 -2.37204e-15 3.72391 -5.31747e-16 -0.0897711)
(-0.352825 -1.89771 -3.32607e-16 0.357136 -1.36442e-16 -0.00431101)
(-0.0773648 -0.39931 -1.23041e-17 0.0776963 -5.36873e-17 -0.000331511)
(-0.00379917 -0.0211454 -5.95565e-18 0.00376655 -6.05413e-18 3.26222e-05)
(-6.04909e-05 -0.00039572 6.9101e-20 5.96076e-05 2.33796e-19 8.83272e-07)
(6.21917e-05 0.000131773 1.25572e-20 -5.58157e-05 2.37542e-19 -6.37599e-06)
(0.00468169 0.0127915 -2.48326e-18 -0.00343641 2.9432e-19 -0.00124528)
(1.73708 4.05246 7.94529e-16 -1.55454 -5.26008e-15 -0.182545)
(5.25498 18.9903 8.53433e-15 -5.07372 3.1327e-14 -0.181262)
(0.00212902 0.00703346 3.41978e-21 -0.00221031 -9.55188e-21 8.12917e-05)
(0.00238701 0.0108553 -3.53393e-20 -0.00265689 3.7841e-20 0.000269879)
(0.00142177 0.0112467 -2.07301e-19 -0.00158075 -1.50322e-19 0.000158978)
(0.000590412 0.0143923 4.19541e-19 -0.000758346 -5.18599e-19 0.000167934)
(-7.25839e-05 0.00517506 -2.69418e-19 4.95603e-05 -5.05101e-20 2.30236e-05)
(-4.59753e-05 0.00492437 -1.52688e-18 0.000116075 1.95668e-18 -7.00995e-05)
(0.00057427 0.00597007 1.38419e-18 -0.000268596 2.46936e-18 -0.000305674)
(0.00222901 0.00697031 3.82865e-19 -0.00179563 -5.45856e-18 -0.000433388)
(0.00417091 0.00694548 2.03921e-18 -0.00402132 -1.60782e-19 -0.000149591)
(0.00583305 0.00712098 -1.11971e-18 -0.00589354 -3.3846e-19 6.04896e-05)
(0.00747955 0.00816161 8.01492e-19 -0.00760218 1.91707e-18 0.000122632)
(0.00946671 0.0104121 1.44124e-18 -0.00961451 -6.99123e-19 0.000147797)
(0.0120167 0.0142157 -1.39337e-18 -0.0122191 -1.97122e-19 0.000202455)
(0.0162996 0.0213044 3.89761e-19 -0.0166013 3.0407e-19 0.000301696)
(0.0225867 0.0327307 4.51965e-18 -0.0229977 4.80174e-19 0.000410987)
(0.0366934 0.0591325 5.10875e-18 -0.0373721 -1.1663e-18 0.000678747)
(0.054887 0.0979614 2.27443e-18 -0.0558779 2.97062e-18 0.000990947)
(0.14677 0.289649 2.1281e-18 -0.14941 6.09851e-18 0.00264005)
(0.164348 0.35767 2.40371e-18 -0.167231 -1.33622e-18 0.00288314)
(0.184137 0.443211 3.29407e-18 -0.187464 2.10846e-19 0.00332653)
(0.234169 0.626233 -4.4114e-18 -0.238574 -2.65911e-17 0.00440509)
(0.29537 0.889634 -1.42266e-17 -0.301494 2.96262e-20 0.00612351)
(0.336644 1.16825 9.98746e-18 -0.344712 1.27349e-17 0.00806778)
(0.387309 1.61894 4.0545e-18 -0.399554 2.52385e-19 0.0122451)
(0.410415 2.18641 1.71228e-16 -0.428033 -2.10264e-17 0.0176184)
(0.384474 2.7844 8.77728e-19 -0.406395 -1.27286e-18 0.0219213)
(0.213891 2.37223 -8.99969e-20 -0.231663 -3.31701e-18 0.0177726)
(0.0584256 1.30701 -2.7539e-19 -0.0677077 8.46056e-21 0.00928203)
(0.000883989 0.502314 2.06229e-19 -0.00430387 2.79287e-21 0.00341989)
(-0.00517265 0.132796 3.25003e-18 0.00429884 -3.66284e-19 0.000873812)
(-0.001446 0.0186294 -3.85855e-20 0.00132705 -1.92128e-21 0.000118946)
(-0.000256212 0.00224141 -1.20918e-20 0.00024241 3.62826e-20 1.38029e-05)
(-0.000236401 0.00158529 -2.50969e-19 0.000227065 -4.28811e-20 9.33559e-06)
(-0.000265502 0.00145783 -3.98423e-19 0.000257377 1.4734e-19 8.12429e-06)
(-0.000294605 0.00137827 3.61698e-19 0.000287398 5.35366e-21 7.20624e-06)
(-0.000321536 0.00131416 -5.76391e-22 0.000314877 -5.65343e-20 6.65916e-06)
(-0.0003502 0.0012536 -6.04715e-21 0.000345243 1.01271e-19 4.95761e-06)
(-0.252043 0.789483 7.0038e-18 0.239775 -4.06036e-17 0.0122679)
(-20.6676 54.1426 -1.88613e-14 20.3961 -4.45919e-15 0.271533)
(0.015249 -0.0115203 -1.0432e-19 -0.0138536 -3.08798e-19 -0.00139537)
(0.0164305 -0.0174803 2.01286e-19 -0.0144129 5.27037e-19 -0.00201757)
(0.00860626 -0.0138224 1.32602e-20 -0.00692329 5.86939e-21 -0.00168296)
(0.00403487 -0.0100145 2.09353e-19 -0.00270197 2.72491e-20 -0.0013329)
(0.00154048 -0.00700407 1.55572e-19 -0.000508215 9.58388e-19 -0.00103227)
(0.00026189 -0.00553046 6.2359e-19 0.000675684 1.11485e-18 -0.000937574)
(-0.000512227 -0.00492673 -2.72851e-19 0.00150217 4.43337e-20 -0.000989943)
(-0.00108901 -0.00448202 -2.45722e-19 0.00217037 -6.93433e-20 -0.00108135)
(-0.00151473 -0.0040372 -1.64984e-18 0.00270303 -1.80257e-18 -0.0011883)
(-0.00176079 -0.00361333 -5.532e-19 0.00306517 -1.92548e-19 -0.00130438)
(-0.00186778 -0.00324776 -5.65175e-18 0.00330087 -5.44543e-18 -0.00143309)
(-0.00183609 -0.00295267 -7.08425e-20 0.00338457 9.19084e-19 -0.00154848)
(-0.00177687 -0.00298165 -3.43947e-18 0.00352624 2.39815e-20 -0.00174937)
(-0.00185332 -0.00376017 3.06082e-18 0.00416968 1.80566e-18 -0.00231637)
(-0.00186307 -0.00591022 -9.56428e-18 0.00542542 -2.8622e-18 -0.00356235)
(-0.00116563 -0.0129647 4.14086e-17 0.00823912 1.01971e-17 -0.00707349)
(0.00439812 -0.0352815 -8.78805e-17 0.0115886 -7.33208e-17 -0.0159868)
(0.0252037 -0.0897857 -1.72519e-16 0.00640017 -6.43365e-17 -0.0316039)
(0.0833708 -0.22575 -3.76817e-16 -0.024629 1.47483e-16 -0.0587418)
(0.220448 -0.549116 7.5663e-17 -0.117736 -4.25274e-19 -0.102713)
(0.471561 -1.20434 6.76605e-16 -0.312795 7.6644e-16 -0.158766)
(0.842227 -2.35265 -1.11723e-15 -0.623386 -2.00648e-15 -0.21884)
(1.32441 -4.3076 8.86047e-17 -1.03742 2.13221e-15 -0.286988)
(1.50753 -5.80084 2.80172e-17 -1.15678 -4.77736e-16 -0.350744)
(2.82635 -11.8724 -0 -2.05569 -0 -0.770667)
(1.44181 -9.34241 -1.78721e-17 -0.545662 2.7143e-16 -0.896151)
(0.127617 -15.6638 -7.67397e-16 2.90055 2.20551e-16 -3.02817)
(0.135072 -9.571 -9.30569e-17 1.41318 -7.81323e-16 -1.54825)
(2.46658 -5.25054 -1.03635e-14 -3.85922 -4.90892e-15 1.39264)
(3.92002 -4.91461 -4.00434e-16 -6.36605 -1.88861e-14 2.44603)
(1.5567 -3.13801 6.84839e-16 -2.46454 1.12277e-14 0.907839)
(0.0393272 -1.55355 1.25748e-16 -0.190173 4.67244e-15 0.150846)
(-0.0927 -0.940327 -1.0801e-15 0.0820812 7.15643e-16 0.0106188)
(-0.0195793 -0.160561 1.17561e-16 0.0193578 1.52342e-16 0.000221506)
(-0.000541078 -0.00412476 -1.8069e-19 0.000550597 -1.37355e-18 -9.5191e-06)
(3.28115e-05 -0.000559768 1.03476e-19 -4.13735e-05 -1.38214e-19 8.56202e-06)
(0.00713272 0.00546073 5.70996e-19 -0.00829332 3.04847e-19 0.0011606)
(0.233877 -0.112146 6.56757e-16 -0.365352 8.82891e-15 0.131476)
(-2.35448 0.868111 -2.44989e-14 1.77152 -4.16042e-14 0.58296)
(0.00457148 -0.00228262 3.52321e-20 -0.00425899 9.86335e-20 -0.000312484)
(0.000826729 -0.000242946 -2.47937e-21 -0.000777737 -8.98066e-20 -4.89926e-05)
(0.00187644 -0.000139588 -1.34035e-19 -0.00179282 -3.10109e-19 -8.36183e-05)
(0.00308168 0.000537397 6.87034e-20 -0.00298516 9.26516e-19 -9.65156e-05)
(0.00280688 0.00133189 5.83647e-19 -0.00276603 -5.42194e-19 -4.08532e-05)
(0.00315657 0.00286636 -3.01553e-19 -0.00316638 -1.17609e-18 9.81638e-06)
(0.00230833 0.00383522 5.70472e-19 -0.00237107 -3.26486e-18 6.27434e-05)
(0.00126754 0.00438181 -2.816e-18 -0.0013938 -1.4678e-19 0.000126257)
(5.45839e-05 0.00456446 -1.7271e-18 -0.000186939 3.53289e-18 0.000132355)
(-0.00120676 0.00430585 -7.07593e-19 0.00115549 -5.42827e-20 5.1265e-05)
(-0.0021707 0.00373066 -5.29233e-19 0.00225832 -2.18798e-18 -8.76253e-05)
(-0.00273637 0.00305389 9.45813e-20 0.00296228 -1.17047e-18 -0.000225914)
(-0.00215562 0.00174174 6.91377e-19 0.00240027 1.78552e-18 -0.000244645)
(-0.00184314 0.00114583 -6.75458e-19 0.00210504 -3.49754e-19 -0.000261906)
(-0.00183827 0.000930189 -3.91813e-19 0.00215512 -1.34535e-18 -0.00031685)
(-0.00402948 0.00175647 -4.34251e-18 0.00485104 -7.99852e-19 -0.000821566)
(-0.0149365 0.00601499 -2.7135e-18 0.0184752 1.58461e-19 -0.00353875)
(-0.0329978 0.0131676 -4.11292e-19 0.0418913 -3.8747e-18 -0.00889357)
(-0.00829929 0.00343242 -1.83483e-18 0.0107817 1.06529e-18 -0.00248242)
(-0.0150394 0.00663599 5.84908e-18 0.020006 -1.90882e-18 -0.00496659)
(-0.000262793 0.000125411 -8.96187e-19 0.000358643 4.94205e-19 -9.585e-05)
(-0.0130033 0.00668588 -9.41992e-18 0.0182648 1.73683e-18 -0.00526153)
(-0.160678 0.0872964 1.59683e-17 0.233734 -8.00456e-17 -0.0730556)
(-0.000212098 0.000124756 9.06643e-19 0.000324929 -2.53561e-20 -0.00011283)
(-0.00163382 0.00117829 -7.0174e-18 0.00267257 6.35322e-19 -0.00103875)
(-0.000349933 0.00033571 -1.50344e-18 0.000605661 1.13195e-19 -0.000255728)
(-0.00111779 0.00144478 -1.5131e-21 0.00200574 1.07108e-19 -0.000887948)
(-0.000338111 0.000558025 2.87862e-22 0.00061337 1.50612e-20 -0.000275259)
(-0.0003859 0.000779423 -7.14294e-22 0.000686941 -9.70602e-24 -0.000301041)
(-0.000368937 0.000887455 2.00059e-20 0.000631048 1.53267e-19 -0.000262111)
(-0.0002448 0.000679002 3.7028e-21 0.000395802 -7.63462e-20 -0.000151002)
(-0.000152163 0.000467711 4.80664e-20 0.000229689 -1.2758e-19 -7.75262e-05)
(-9.39483e-05 0.000307381 1.26707e-18 0.000131577 4.6945e-20 -3.76285e-05)
(-6.66892e-05 0.000224314 6.44202e-19 8.68051e-05 -3.53958e-19 -2.01159e-05)
(-5.88351e-05 0.000197403 -4.10935e-19 7.15691e-05 7.53913e-20 -1.2734e-05)
(-6.29517e-05 0.000206076 3.43614e-19 7.29088e-05 4.13731e-20 -9.9571e-06)
(-7.27224e-05 0.000229323 -5.90312e-19 7.82509e-05 -8.12623e-20 -5.52854e-06)
(-0.0628574 0.161204 -3.44115e-16 0.0781031 -1.2419e-17 -0.0152458)
(-1.20226 3.84811 -1.99066e-14 1.50053 -2.63588e-15 -0.298266)
(0.00198279 -0.00167638 -8.46222e-21 -0.00211522 -2.28371e-20 0.00013243)
(0.00191113 -0.00246612 -2.4281e-19 -0.00210848 -5.28938e-19 0.000197342)
(0.00118512 -0.00262319 1.6662e-19 -0.00140513 3.49322e-19 0.000220009)
(0.000485383 -0.00272506 2.24598e-19 -0.000753302 3.97907e-19 0.000267919)
(-0.000206134 -0.00270518 4.15425e-19 -0.000103951 5.98252e-19 0.000310085)
(-0.00089485 -0.00253376 -1.29325e-18 0.000536369 -2.16372e-18 0.000358481)
(-0.00154196 -0.00222516 9.38491e-19 0.00112067 1.76418e-18 0.00042129)
(-0.00210094 -0.00179235 1.28568e-18 0.00161623 1.17228e-18 0.000484709)
(-0.00255278 -0.00124534 -7.13527e-20 0.00200123 1.56133e-19 0.000551552)
(-0.00286302 -0.000625242 9.29628e-19 0.0022421 1.54692e-18 0.000620918)
(-0.00302148 2.31716e-05 -1.99152e-18 0.00233788 -1.58003e-19 0.000683599)
(-0.00303322 0.000663386 2.93364e-18 0.00229337 3.1636e-18 0.000739856)
(-0.00292427 0.00124297 1.44359e-18 0.00215237 6.15144e-19 0.000771905)
(-0.00273767 0.00174251 6.95975e-19 0.00196114 -6.57523e-19 0.00077653)
(-0.00280165 0.00240715 2.45909e-18 0.00195443 2.34723e-18 0.000847224)
(-0.00208503 0.00226015 -5.09443e-18 0.00142755 -5.03738e-18 0.000657479)
(-0.00487297 0.00642416 3.20664e-18 0.00330486 4.73307e-18 0.00156811)
(-0.0101398 0.0159131 6.60635e-17 0.00687266 1.92689e-17 0.00326717)
(-0.0221527 0.0411118 5.14736e-17 0.0151124 3.63704e-17 0.00704025)
(-0.0472751 0.104013 -3.90075e-17 0.0326911 -2.65258e-18 0.014584)
(-0.0877086 0.236984 1.029e-16 0.0615092 -2.26154e-16 0.0261995)
(-0.130933 0.487044 4.37733e-17 0.0911977 3.56667e-16 0.0397352)
(-0.0168327 0.144086 2.70284e-16 0.00804422 -6.3049e-17 0.0087885)
(0.0120622 0.0491897 -8.5324e-17 -0.0164894 -3.46571e-17 0.00442719)
(0.569545 -0.0746545 3.37771e-17 -0.663822 3.2308e-17 0.0942776)
(0.50306 -0.682942 -7.3218e-16 -0.572419 1.9949e-16 0.0693595)
(2.37436 -4.79973 5.71905e-16 -2.54886 7.55702e-17 0.174495)
(1.98548 -6.09341 -2.55707e-16 -2.03988 8.89668e-19 0.0543996)
(0.648833 -3.46026 -4.20476e-15 -0.520489 2.27733e-15 -0.128344)
(0.286076 -2.21553 -5.41622e-15 -0.127972 2.0884e-16 -0.158104)
(0.209075 -1.44554 1.01979e-14 -0.0787233 -2.50021e-15 -0.130352)
(0.162161 -0.469117 5.74015e-15 -0.0761508 1.70291e-15 -0.0860103)
(0.0649924 0.0905873 1.23579e-16 -0.0552577 8.06283e-16 -0.00973479)
(0.00520975 -0.0624201 3.02516e-16 -0.00611805 -8.20498e-17 0.000908298)
(-0.000554155 -0.0233571 2.04664e-17 0.000847876 -2.46078e-18 -0.000293721)
(-1.39442e-05 -0.000368062 -7.23548e-20 1.46697e-05 -1.51354e-19 -7.25462e-07)
(-0.000911118 -0.00814184 4.77274e-19 0.00127493 -4.86709e-18 -0.000363814)
(0.0114719 -0.0920363 -6.51325e-16 -0.0233546 -1.27819e-15 0.0118826)
(-2.00437 0.992982 2.49588e-14 1.90858 -3.13253e-15 0.0957963)
(0.00263934 -0.00140903 -5.27227e-20 -0.00277548 -1.15329e-19 0.000136142)
(0.00193041 -0.000582332 -2.66343e-20 -0.00200215 -3.71728e-21 7.17405e-05)
(0.00301378 -0.00021016 4.34737e-19 -0.00309467 6.12775e-19 8.08927e-05)
(0.00459319 0.000757062 -4.23447e-19 -0.00466817 -4.03174e-20 7.49749e-05)
(0.00438908 0.00191708 9.30605e-20 -0.00443047 3.90719e-19 4.13884e-05)
(0.00306662 0.002436 -8.14001e-20 -0.0030761 1.41005e-18 9.47913e-06)
(0.00191549 0.00260365 -5.83235e-20 -0.00191932 9.64046e-19 3.83412e-06)
(0.00118105 0.00304746 3.60579e-18 -0.00119715 2.25295e-18 1.60992e-05)
(0.000341752 0.00336071 7.13385e-19 -0.000356209 -6.92329e-19 1.44569e-05)
(-0.000561516 0.00345256 2.13934e-18 0.000546746 2.54115e-19 1.47701e-05)
(-0.00141854 0.00336748 -2.44704e-18 0.00138648 -1.20555e-18 3.20602e-05)
(-0.00220373 0.00316136 -2.00916e-18 0.00212941 2.96767e-18 7.43175e-05)
(-0.00290447 0.00282388 3.41211e-18 0.00275929 -1.6013e-18 0.000145173)
(-0.00341536 0.00231082 2.63727e-18 0.00317122 -1.63867e-20 0.000244139)
(-0.00380219 0.00175459 -3.15193e-18 0.00343603 2.49441e-18 0.000366162)
(-0.00404988 0.00117104 -2.37815e-18 0.00353852 5.03285e-18 0.000511363)
(-0.00432393 0.000616836 8.27663e-18 0.00362752 -4.31696e-18 0.000696406)
(-0.00419267 4.31244e-05 7.94923e-18 0.00335572 -1.49017e-18 0.000836949)
(-0.00408477 -0.000461324 3.40481e-18 0.00311986 -3.8592e-19 0.00096491)
(-0.00308755 -0.000746123 -1.00774e-18 0.00222875 3.07415e-18 0.000858801)
(-0.00101959 -0.000391226 5.74311e-18 0.000690735 2.39995e-19 0.000328856)
(-0.00451735 -0.00252523 8.48855e-19 0.00282596 -3.77545e-18 0.00169139)
(-0.000376976 -0.000298751 -7.41499e-21 0.000210829 -2.14251e-20 0.000166147)
(-0.00114114 -0.00138562 -1.6413e-19 0.000443273 -7.09942e-19 0.000697872)
(-0.00394271 -0.00842643 3.19894e-20 -0.000411094 1.66398e-18 0.0043538)
(-0.00042539 -0.002302 2.967e-17 -0.000887316 -1.81477e-18 0.00131271)
(0.000160383 -0.00264004 -4.7516e-19 -0.00185021 2.95889e-20 0.00168983)
(0.000412666 -0.00142699 -2.30962e-18 -0.00145214 -4.04331e-20 0.00103947)
(0.000628002 -0.00130651 -3.84181e-20 -0.00162706 4.84847e-21 0.00099906)
(0.000691749 -0.00120128 -3.09215e-18 -0.00153285 -1.01925e-19 0.000841103)
(0.000550287 -0.000960252 3.88227e-18 -0.00109826 5.27803e-19 0.000547977)
(0.000331165 -0.000625556 -1.40083e-19 -0.000606121 -2.80643e-21 0.000274956)
(0.000218944 -0.000454711 -4.17014e-18 -0.00037023 1.00606e-18 0.000151286)
(0.000170829 -0.00038445 -1.05055e-20 -0.000267778 5.53646e-19 9.69484e-05)
(0.000145952 -0.000352509 7.56777e-20 -0.000213345 -6.87174e-19 6.73934e-05)
(0.000198282 -0.000481068 -2.79444e-19 -0.000271053 1.36014e-18 7.27709e-05)
(1.18085e-05 -3.22658e-05 5.59051e-20 -1.41917e-05 -2.51583e-19 2.38329e-06)
(0.0414409 -0.0632816 8.22843e-16 -0.0534093 1.15305e-17 0.0119684)
(0.596157 2.36776 1.23172e-13 -0.809998 2.15801e-14 0.213842)
(0.00384315 -0.00301419 -8.71845e-20 -0.00374361 -1.4353e-19 -9.95475e-05)
(0.000681935 -0.000752493 -3.63652e-20 -0.00065872 -5.98755e-20 -2.32146e-05)
(0.00217753 -0.00359178 3.02274e-19 -0.00205167 4.17518e-19 -0.000125861)
(0.00157029 -0.00427341 4.01978e-19 -0.00140367 4.50041e-19 -0.000166628)
(0.000758592 -0.0046357 5.2056e-20 -0.000547127 -1.43619e-20 -0.000211465)
(-0.000145689 -0.00464534 -1.42167e-19 0.000404217 3.75692e-19 -0.000258528)
(-0.00100836 -0.00448465 3.64799e-18 0.00131946 3.64901e-18 -0.000311093)
(-0.00178294 -0.00417158 -3.57266e-18 0.00215384 -4.57932e-18 -0.0003709)
(-0.00245563 -0.00373729 9.19021e-19 0.00289939 2.41556e-19 -0.000443757)
(-0.00300214 -0.00322583 5.20113e-18 0.00352577 3.85479e-18 -0.000523628)
(-0.00342496 -0.00266776 4.49885e-18 0.00404201 4.46483e-18 -0.000617049)
(-0.00373112 -0.00208963 5.25895e-18 0.00445427 1.63796e-18 -0.000723143)
(-0.0039299 -0.00151656 -6.40669e-18 0.004771 -4.80745e-18 -0.000841105)
(-0.00404741 -0.000954747 -4.64583e-18 0.00501278 -4.43567e-18 -0.000965378)
(-0.00408544 -0.00042176 5.24456e-19 0.00519077 -1.64088e-18 -0.00110533)
(-0.00406527 0.000133151 -1.4344e-17 0.00531534 7.64795e-19 -0.00125008)
(-0.00398392 0.000802272 -4.77964e-18 0.0053639 -5.84047e-18 -0.00137998)
(-0.00130617 0.000554407 -1.12176e-17 0.0018149 -8.47909e-18 -0.000508732)
(-0.00159641 0.00120565 1.75694e-18 0.00227968 -2.45981e-18 -0.000683267)
(-0.000163517 0.00020601 1.10959e-19 0.000237788 -2.45452e-19 -7.4271e-05)
(-2.72043e-05 5.63088e-05 -2.51935e-19 3.96379e-05 -7.94256e-22 -1.24336e-05)
(-1.99264e-05 6.90398e-05 4.09008e-20 2.91722e-05 8.15278e-21 -9.24577e-06)
(-0.00391797 0.0286588 -7.45497e-17 0.00624365 -1.43013e-17 -0.00232568)
(-0.000171738 0.0099577 -8.40334e-18 0.000727973 8.93038e-18 -0.000556235)
(0.0333133 0.302231 7.05964e-17 -0.0247396 4.5834e-18 -0.0085737)
(1.3181e-05 5.62292e-05 6.26885e-20 -1.22869e-05 2.85195e-20 -8.94151e-07)
(2.34672e-05 9.3639e-06 -4.95148e-21 -2.67536e-05 3.17436e-21 3.28641e-06)
(2.58469e-05 -3.06284e-05 5.77644e-21 -2.90504e-05 4.1e-22 3.20348e-06)
(2.06667e-05 -5.25787e-05 8.64444e-20 -2.14159e-05 -1.2174e-20 7.49205e-07)
(1.58346e-05 -6.49949e-05 -7.09055e-21 -1.58848e-05 3.75878e-20 5.02417e-08)
(1.195e-05 -6.73584e-05 -1.33097e-19 -1.23141e-05 -6.29975e-20 3.6411e-07)
(6.94887e-05 -0.000446462 1.70297e-18 -7.35459e-05 -1.16679e-18 4.05716e-06)
(0.0111166 -0.0873075 3.69343e-16 -0.0125381 -2.82447e-17 0.00142156)
(0.0203265 0.000147518 -5.65762e-17 -0.0224785 -3.17553e-16 0.00215201)
(0.0103866 -0.0697193 -1.55551e-16 -0.00912161 -6.2691e-18 -0.00126497)
(-3.22294e-05 -0.000476431 8.04755e-21 3.13357e-05 8.05039e-20 8.93715e-07)
(-0.0179616 -0.104403 -3.79796e-17 0.017167 -3.75585e-19 0.000794561)
(2.48146e-05 -0.0169286 1.28968e-17 -0.000348074 -6.2497e-17 0.000323259)
(-1.34561 0.968508 -1.08312e-14 1.13606 7.39208e-15 0.20955)
(0.0046618 -0.00247665 -4.75911e-20 -0.00459154 -1.86654e-20 -7.02543e-05)
(0.0051997 -0.00170044 1.74913e-19 -0.00513663 8.60298e-19 -6.30756e-05)
(0.00564421 -0.000628891 5.98712e-19 -0.00561635 1.17377e-18 -2.78625e-05)
(0.00502303 0.000564818 6.71763e-19 -0.00501281 -3.4016e-19 -1.02183e-05)
(0.00423233 0.00155306 -1.23411e-18 -0.00423561 -9.30637e-19 3.27904e-06)
(0.00101243 0.000698135 -5.85333e-20 -0.00101243 -4.01051e-19 -8.09591e-09)
(0.002879 0.00335439 -2.16286e-18 -0.00288032 -1.82349e-18 1.31517e-06)
(0.00193741 0.00399302 -3.08462e-18 -0.00194743 -1.08223e-20 1.0022e-05)
(3.59965e-05 0.00018293 -3.14086e-20 -3.67923e-05 -2.38138e-20 7.95809e-07)
(-8.63781e-05 0.00149706 4.50248e-19 7.75416e-05 -2.97018e-19 8.83651e-06)
(-0.000728912 0.00242599 7.20522e-19 0.000714875 1.64693e-18 1.40363e-05)
(-0.00162558 0.00294814 2.49196e-18 0.00161803 -9.67936e-19 7.55257e-06)
(-0.00257502 0.00309408 -2.91886e-18 0.00259163 -2.64427e-18 -1.66057e-05)
(-0.00335855 0.00287201 -3.78041e-19 0.00341649 1.27807e-18 -5.79421e-05)
(-0.00385742 0.00242348 4.38831e-18 0.00397185 -1.03353e-18 -0.00011443)
(-0.00413618 0.00192517 1.00023e-17 0.00431548 -9.56822e-19 -0.000179302)
(-0.00424995 0.0014575 -7.66854e-18 0.00449985 -1.28182e-18 -0.000249906)
(-0.00420855 0.00103716 -1.99702e-18 0.00452519 -2.83029e-18 -0.000316637)
(-0.00418572 0.000690486 -9.60732e-19 0.00457028 5.63231e-19 -0.000384567)
(-0.0041785 0.000373493 1.51732e-17 0.00462773 -5.1122e-18 -0.000449233)
(-0.00400303 4.94426e-05 2.35842e-18 0.00449622 -3.00783e-18 -0.000493191)
(-0.00377861 -0.000284364 -1.61356e-17 0.00430245 3.9205e-18 -0.000523834)
(-0.00329193 -0.000617268 -4.68009e-19 0.0037991 1.48864e-18 -0.000507173)
(-0.00293284 -0.000960626 -1.71262e-19 0.00345144 -8.26342e-19 -0.000518605)
(-0.00232598 -0.00110789 5.3073e-20 0.00283195 -4.77184e-21 -0.00050597)
(-0.00173332 -0.0010571 -1.03528e-17 0.0022271 1.61739e-19 -0.000493777)
(-0.00145434 -0.00104522 -1.01712e-20 0.00200245 -2.90558e-22 -0.000548114)
(-0.00120211 -0.000975556 2.20909e-18 0.00178269 -1.40916e-19 -0.000580577)
(-0.000994147 -0.000882421 -1.05208e-19 0.00159461 -1.13884e-21 -0.000600464)
(-0.000832686 -0.000780066 -2.31005e-20 0.0014462 -6.03021e-19 -0.000613511)
(-0.000695958 -0.000686422 -6.13691e-18 0.00130361 5.42421e-19 -0.000607651)
(-0.000569976 -0.000614252 -9.35793e-20 0.00114979 -5.49671e-21 -0.000579816)
(-0.00044579 -0.000578862 3.20912e-19 0.000975041 -7.06929e-19 -0.000529251)
(-0.000322932 -0.000608445 1.61527e-17 0.000792451 3.68453e-18 -0.00046952)
(-0.000186987 -0.000673282 -3.22125e-19 0.000572325 -3.90011e-20 -0.000385338)
(-5.10546e-05 -0.00122199 -3.091e-17 0.000503252 8.49482e-19 -0.000452198)
(5.74931e-06 -4.15715e-05 3.20763e-18 3.87535e-06 4.39064e-19 -9.62466e-06)
(0.0211474 -0.0605159 -6.25286e-17 -0.0114598 2.01789e-16 -0.00968762)
(3.70586 2.39865 -7.37519e-16 -3.19151 4.02985e-15 -0.51435)
(0.00604705 -0.00489736 -2.05894e-19 -0.00611717 -2.73147e-19 7.01193e-05)
(0.00508648 -0.00588284 -3.97603e-19 -0.00518886 -5.42116e-19 0.000102375)
(0.00386432 -0.00681216 1.37177e-18 -0.00398054 1.74871e-18 0.00011622)
(0.00243158 -0.00751769 -5.90675e-18 -0.002586 -7.62108e-18 0.000154418)
(0.000847359 -0.00791835 1.50713e-18 -0.00104259 2.04418e-18 0.000195227)
(-0.000867668 -0.00802748 3.38519e-18 0.000628501 3.47949e-18 0.000239167)
(-0.00261367 -0.00776288 -3.11887e-18 0.00231127 -4.70442e-18 0.0003024)
(-0.00429619 -0.00712743 -1.83132e-18 0.00391797 2.68746e-19 0.000378224)
(-0.00586882 -0.00615846 -1.37699e-17 0.00540118 -1.27126e-17 0.00046764)
(-0.00719118 -0.00483625 -2.41742e-18 0.00661324 -5.41298e-18 0.000577942)
(-0.00818802 -0.00323813 4.04973e-19 0.00748632 -1.30907e-18 0.000701702)
(-0.00887607 -0.00146731 -8.83157e-18 0.0080276 -1.05938e-17 0.000848463)
(-0.00917932 0.000411451 4.56599e-18 0.00816524 5.22142e-18 0.00101409)
(-0.00908979 0.00229524 -1.97034e-17 0.00790224 -1.01489e-17 0.00118755)
(-0.00862861 0.00410011 4.32739e-18 0.00726732 2.40897e-18 0.00136129)
(-0.00784704 0.00574225 2.20245e-17 0.00632877 1.77138e-17 0.00151826)
(-0.00687319 0.00711171 -3.15909e-17 0.00527017 -8.98928e-18 0.00160302)
(-0.00579126 0.0082208 -6.00686e-18 0.00416333 2.71914e-17 0.00162793)
(-0.00459437 0.00909565 -2.25271e-18 0.00299335 -3.73412e-18 0.00160102)
(-0.000511566 0.00151689 -4.70174e-18 0.000273298 -7.33188e-19 0.000238268)
(-0.000574055 0.00309152 1.04428e-17 0.000145342 6.19479e-18 0.000428713)
(-5.92939e-05 0.00135579 1.54852e-19 -0.000104877 -2.29015e-19 0.000164171)
(5.70713e-06 6.02792e-05 1.73237e-19 -1.19995e-05 4.70678e-20 6.29242e-06)
(1.24647e-05 5.53731e-05 1.25771e-19 -1.75594e-05 3.98821e-20 5.09465e-06)
(1.51891e-05 5.06478e-05 -1.1991e-20 -1.83467e-05 -1.08224e-21 3.1576e-06)
(1.49098e-05 4.75096e-05 1.17556e-21 -1.67659e-05 -4.54769e-21 1.85609e-06)
(1.31867e-05 4.3319e-05 1.34368e-20 -1.36067e-05 -3.17128e-21 4.20005e-07)
(1.3319e-05 2.91007e-05 -5.31932e-21 -1.30214e-05 -8.11503e-21 -2.97651e-07)
(1.42156e-05 1.08329e-05 -8.59831e-20 -1.38712e-05 -2.09641e-21 -3.4441e-07)
(1.42884e-05 -9.57944e-06 7.42581e-21 -1.43472e-05 3.49927e-22 5.8737e-08)
(1.26618e-05 -3.00418e-05 -1.16823e-20 -1.31209e-05 5.42238e-21 4.5908e-07)
(1.10662e-05 -4.76714e-05 -2.37391e-19 -1.17231e-05 -1.32085e-19 6.56881e-07)
(6.51691e-06 -6.50534e-05 -8.15527e-21 -6.76859e-06 -5.32809e-20 2.5168e-07)
(3.2471e-06 -3.3318e-05 -6.63427e-19 -3.59523e-06 3.41917e-20 3.48122e-07)
(0.0175071 -0.0393655 1.61973e-17 -0.016443 3.21781e-17 -0.00106406)
(-0.0158763 -0.227183 -4.18366e-20 0.0145493 7.22584e-21 0.00132696)
(-0.0924996 -0.690193 -2.2653e-16 0.0810488 2.43408e-16 0.0114508)
(-0.000417342 -0.0376685 1.05025e-17 0.00051585 7.40787e-17 -9.85082e-05)
(-0.360081 0.29413 6.92866e-15 0.329033 4.3097e-15 0.0310472)
(0.00727015 -0.00398916 4.1529e-19 -0.0073483 1.8513e-19 7.8155e-05)
(0.00758718 -0.00259021 -1.1602e-18 -0.0076291 -1.67422e-18 4.19251e-05)
(0.00764054 -0.000998689 -7.42031e-19 -0.00767983 1.15705e-18 3.92846e-05)
(0.00716783 0.000605815 2.95581e-18 -0.00718602 1.58987e-18 1.81832e-05)
(0.00322246 0.00104407 -4.75624e-19 -0.00322789 -2.52197e-18 5.43441e-06)
(0.00212071 0.00131049 -7.28137e-19 -0.00211871 6.93382e-19 -2.0042e-06)
(0.00163308 0.00168442 1.78462e-18 -0.00163122 1.35691e-18 -1.85179e-06)
(0.00107132 0.00186764 -6.41799e-19 -0.00107287 -1.44279e-18 1.55296e-06)
(0.000524894 0.00187637 -1.34136e-18 -0.000528076 -5.34985e-19 3.1826e-06)
(5.90409e-05 0.00188178 -1.07496e-18 -6.31613e-05 4.28884e-19 4.12033e-06)
(-0.000345862 0.00175442 1.35792e-18 0.000341688 -1.81805e-20 4.17379e-06)
(-0.000660615 0.00155576 -9.26975e-19 0.00065632 -6.47378e-19 4.29441e-06)
(-0.000896662 0.00133989 -1.12353e-18 0.000890966 8.24744e-19 5.69598e-06)
(-0.00104932 0.00110185 1.17165e-18 0.00104041 4.16307e-19 8.90324e-06)
(-0.00111222 0.000855334 -2.00104e-18 0.00109863 3.79619e-19 1.35911e-05)
(-0.00112041 0.000636295 -3.815e-19 0.0011004 -1.27558e-18 2.00061e-05)
(-0.00112877 0.000465299 5.5156e-19 0.00110014 7.07187e-19 2.86256e-05)
(-0.00105631 0.000298804 -2.61056e-18 0.00101952 1.9834e-19 3.67906e-05)
(-0.000965251 0.000162071 1.04068e-18 0.000921069 -5.00875e-20 4.41822e-05)
(-0.000926495 5.31172e-05 -4.44841e-18 0.000872606 4.27208e-19 5.38891e-05)
(-0.000868785 -4.96017e-05 -4.7192e-19 0.000806883 1.32809e-19 6.1902e-05)
(-0.000803342 -0.000149447 3.94867e-18 0.000734376 8.26599e-20 6.89662e-05)
(-0.000694505 -0.000238853 3.63838e-18 0.000623881 -6.87334e-19 7.06247e-05)
(-0.000595568 -0.000329139 -3.27884e-18 0.000519233 2.63034e-19 7.63354e-05)
(-0.000449683 -0.000372813 -4.15161e-20 0.000371164 1.29408e-20 7.85192e-05)
(-0.000304588 -0.000365813 -2.89678e-18 0.00022802 3.33222e-19 7.65684e-05)
(-0.000201314 -0.000364324 -1.61056e-20 0.000116548 1.15292e-21 8.47667e-05)
(-0.000108298 -0.000345239 5.07193e-22 1.39518e-05 2.65428e-20 9.43466e-05)
(-2.84773e-05 -0.000317561 1.23175e-20 -7.61711e-05 -1.6084e-21 0.000104648)
(3.86241e-05 -0.000285083 1.09853e-18 -0.000153784 9.70498e-20 0.00011516)
(9.17583e-05 -0.000249544 -1.63398e-21 -0.000215294 -2.21676e-19 0.000123536)
(0.000127436 -0.00021149 -9.8618e-20 -0.000252942 -1.40484e-20 0.000125506)
(0.000146785 -0.000172679 -6.55848e-18 -0.000268317 -1.20221e-18 0.000121532)
(1.05007e-05 -9.40157e-06 -3.88768e-19 -1.82452e-05 -2.39266e-20 7.74446e-06)
(1.02794e-05 -7.35883e-06 -2.8148e-21 -1.72397e-05 4.63308e-22 6.96033e-06)
(0.000229787 -0.000145175 -1.31701e-17 -0.000368718 -5.56682e-18 0.000138932)
(9.60649e-06 -5.16899e-06 -7.31228e-20 -1.46445e-05 5.4145e-19 5.03802e-06)
(0.0271584 -0.0114485 6.93104e-19 -0.036765 -4.60529e-19 0.00960658)
(3.23463 1.77656 -2.9152e-13 -3.01407 -5.16439e-14 -0.220555)
(0.00913298 -0.00738325 8.02674e-19 -0.00908946 8.4658e-19 -4.35221e-05)
(0.00775789 -0.00875285 -5.8456e-19 -0.00771837 -5.89238e-19 -3.95225e-05)
(0.00609759 -0.0101626 -1.24909e-20 -0.00603176 -6.08473e-20 -6.58347e-05)
(0.00412078 -0.0112457 -2.11843e-19 -0.0040422 1.40312e-19 -7.85883e-05)
(0.00195344 -0.0119564 7.68923e-18 -0.00185324 7.91375e-18 -0.000100205)
(-0.000405268 -0.0122158 -5.05748e-18 0.000543707 -6.04052e-18 -0.000138439)
(-0.00278192 -0.0119869 -3.23364e-19 0.00295724 1.28966e-18 -0.000175316)
(-0.0050555 -0.0113072 1.82508e-17 0.00527865 1.70147e-17 -0.000223143)
(-0.00715694 -0.0102128 -3.90203e-18 0.00744612 4.3012e-19 -0.000289187)
(-0.00899563 -0.00877756 -2.25932e-17 0.00936191 -1.50591e-17 -0.000366283)
(-0.0105232 -0.00706665 7.45733e-18 0.0109872 6.09916e-18 -0.000464037)
(-0.0117141 -0.00514858 -2.09724e-17 0.0122996 -6.9861e-18 -0.000585581)
(-0.0125549 -0.00310436 -8.51744e-18 0.0132874 -3.30705e-18 -0.000732415)
(-0.0130544 -0.000995364 -1.54029e-17 0.0139688 7.98782e-18 -0.000914436)