/*--------------------------------*- C++ -*----------------------------------*\
| =========                 |                                                 |
| \\      /  F ield         | OpenFOAM: The Open Source CFD Toolbox           |
|  \\    /   O peration     | Version:  2312                                  |
|   \\  /    A nd           | Website:  www.openfoam.com                      |
|    \\/     M anipulation  |                                                 |
\*---------------------------------------------------------------------------*/
FoamFile
{
    version     2.0;
    format      ascii;
    arch        "LSB;label=32;scalar=64";
    class       volSymmTensorField;
    location    "350";
    object      turbulenceProperties:R;
}
// * * * * * * * * * * * * * * * * * * * * * * * * * * * * * * * * * * * * * //

dimensions      [0 2 -2 0 0 0 0];

internalField   nonuniform List<symmTensor> 
10720
(
(0.0127484 0.00715054 -7.06472e-21 0.0064902 -1.08805e-19 0.00994073)
(0.0217594 0.0128038 9.47468e-21 0.00810221 1.73913e-19 0.0152773)
(0.0304005 0.0167166 4.28304e-20 0.00658299 1.82744e-19 0.0193505)
(0.0387987 0.0174925 2.69366e-19 0.00742167 1.77292e-18 0.0241022)
(0.0462836 0.0153551 -7.13197e-19 0.0114378 -2.7035e-18 0.0297226)
(0.0544443 0.0127052 -6.57652e-19 0.0163117 -1.32029e-18 0.0363772)
(0.0648301 0.0106409 1.69126e-19 0.021727 1.22795e-20 0.0443086)
(0.0783873 0.00868762 8.18879e-20 0.0275993 1.29479e-19 0.0540849)
(0.0968268 0.00626755 2.00207e-19 0.0344787 -1.6172e-19 0.0669687)
(0.122559 0.00285568 -3.26775e-20 0.0438317 -3.2785e-20 0.0847534)
(0.159501 -0.00261159 3.81565e-18 0.0576037 1.63099e-18 0.110496)
(0.216464 -0.0117713 -9.29664e-19 0.0798146 -7.13784e-19 0.150674)
(0.309868 -0.0280845 2.11754e-18 0.117981 -3.17875e-18 0.217375)
(0.466422 -0.0586017 1.20012e-18 0.185403 2.59277e-18 0.330889)
(0.743065 -0.118598 2.34466e-18 0.311457 -4.15686e-18 0.534927)
(1.41634 -0.272345 1.07685e-18 0.630817 2.08154e-17 1.03771)
(2.69796 -0.604646 1.51194e-16 1.28517 7.75652e-17 2.01829)
(5.04803 -1.28579 -4.45763e-17 2.58292 7.05518e-17 3.86463)
(9.51328 -2.7075 -3.06758e-17 5.2505 -4.24863e-16 7.47514)
(15.8869 -4.98084 2.75689e-17 9.48461 -7.92863e-19 12.8399)
(24.2613 -8.29346 -6.42698e-16 15.7182 -4.63154e-16 20.226)
(36.8407 -13.6046 1.29396e-15 25.9633 1.90607e-15 31.7476)
(51.9863 -20.5795 -6.77034e-16 39.9553 -1.79016e-15 46.4149)
(76.1029 -32.0409 6.56412e-16 63.8184 1.52432e-16 70.5981)
(138.671 -61.1239 -2.42076e-16 125.234 -1.19454e-17 132.86)
(200.896 -91.0827 7.15344e-17 190.546 -1.75135e-15 197.214)
(455.608 -210.703 6.84317e-16 448.061 -2.1286e-16 456.216)
(789.069 -372.28 7.43864e-16 810.79 1.36712e-15 803.056)
(536.813 -247.58 1.47182e-14 579.403 3.5852e-16 556.029)
(220.081 -84.3222 7.92223e-15 241.978 3.98833e-15 230.157)
(63.4476 -22.7077 -2.37187e-15 70.8051 -5.31708e-16 66.9917)
(6.58671 -1.89616 -3.32335e-16 7.29609 -1.3633e-16 6.93494)
(1.60878 -0.39791 -1.22609e-17 1.7633 -5.34991e-17 1.68554)
(0.100463 -0.0201346 -5.67096e-18 0.107667 -5.76473e-18 0.104112)
(6.57578e-16 -5.94546e-17 1.0382e-32 6.75622e-16 3.51265e-32 6.66799e-16)
(0.00214439 5.02781e-05 4.79119e-21 0.00209937 9.06341e-20 0.00211823)
(0.14303 0.012594 -2.4449e-18 0.135037 2.89774e-19 0.137194)
(13.3647 4.0521 7.94457e-16 10.0734 -5.2596e-15 11.4453)
(47.5805 18.9899 8.53413e-15 37.252 3.13262e-14 42.1444)
(0.014943 0.00597808 2.90664e-21 0.0112548 -8.1186e-21 0.0132025)
(0.0239639 0.00986509 -3.21156e-20 0.0193801 3.4389e-20 0.0220399)
(0.0237878 0.0103583 -1.90924e-19 0.0210225 -1.38447e-19 0.0226248)
(0.0185781 0.0136103 3.96745e-19 0.0173026 -4.90421e-19 0.0181786)
(0.00963214 0.00451485 -2.35047e-19 0.0097387 -4.40663e-20 0.00971555)
(0.00915704 0.00438952 -1.36104e-18 0.00930149 1.74416e-18 0.00913554)
(0.0117611 0.00554348 1.28528e-18 0.0109785 2.29291e-18 0.0109441)
(0.0156726 0.00660542 3.62822e-19 0.0118587 -5.17281e-18 0.0131496)
(0.0184729 0.00659473 1.93623e-18 0.0106944 -1.52663e-19 0.0143706)
(0.0219976 0.00674563 -1.06069e-18 0.0108891 -3.2062e-19 0.0165293)
(0.0272585 0.00773132 7.59236e-19 0.0129719 1.816e-18 0.0202895)
(0.0355907 0.00990552 1.37112e-18 0.0174379 -6.65107e-19 0.0267252)
(0.0481958 0.0136205 -1.33504e-18 0.0249747 -1.88869e-19 0.0368762)
(0.0707941 0.0206178 3.772e-19 0.0389536 2.9427e-19 0.0553118)
(0.104847 0.0319569 4.4128e-18 0.0603407 4.68822e-19 0.083196)
(0.182218 0.0582769 5.03484e-18 0.109224 -1.14943e-18 0.146724)
(0.26706 0.0970314 2.25283e-18 0.157346 2.94241e-18 0.213675)
(0.625298 0.288651 2.12076e-18 0.33014 6.07749e-18 0.481665)
(0.877017 0.356609 2.39658e-18 0.546422 -1.33226e-18 0.716031)
(1.10009 0.442091 3.28575e-18 0.729429 2.10313e-19 0.919737)
(1.4726 0.625056 -4.40311e-18 1.00074 -2.65411e-17 1.24326)
(2.09984 0.888404 -1.42069e-17 1.5038 2.95852e-20 1.81099)
(2.86379 1.16696 9.97649e-18 2.18318 1.27209e-17 2.53558)
(3.92926 1.6176 4.05116e-18 3.14304 2.52177e-19 3.5545)
(5.16987 2.18504 1.7112e-16 4.33195 -2.10132e-17 4.77732)
(6.39672 2.78299 8.77283e-19 5.60625 -1.27222e-18 6.03435)
(5.76875 2.3708 -8.99425e-20 5.32346 -3.315e-18 5.57275)
(3.48815 1.30556 -2.75084e-19 3.36215 8.45116e-21 3.43906)
(1.43366 0.500852 2.05629e-19 1.42849 2.78475e-21 1.43619)
(0.388637 0.131333 3.21424e-18 0.398004 -3.6225e-19 0.394617)
(0.0502611 0.0171736 -3.55703e-20 0.0528174 -1.77114e-21 0.0517037)
(0.00221758 0.000799835 -4.3149e-21 0.00239551 1.29473e-20 0.00231393)
(0.000419027 0.000165204 -2.61536e-20 0.000467325 -4.46866e-21 0.000444635)
(0.000150514 6.64888e-05 -1.81713e-20 0.000174362 6.71987e-21 0.000162994)
(4.72097e-05 2.36148e-05 6.19718e-21 5.71815e-05 9.17272e-23 5.23808e-05)
(6.56895e-06 3.73128e-06 -1.63654e-24 8.3759e-06 -1.60517e-22 7.50079e-06)
(9.91874e-08 6.30799e-08 -3.04286e-25 1.34181e-07 5.09585e-24 1.17059e-07)
(1.36413 0.788266 6.993e-18 1.85519 -4.0541e-17 1.62804)
(103.86 54.1413 -1.88608e-14 144.922 -4.45909e-15 124.798)
(0.0281009 -0.0112358 -1.01744e-19 -0.000283006 -3.01172e-19 0.0118676)
(0.0274376 -0.0171347 1.97307e-19 -0.00279612 5.16618e-19 0.00935422)
(0.0195335 -0.0134223 1.28765e-20 0.00445334 5.69953e-21 0.00954202)
(0.0150304 -0.00958989 2.00476e-19 0.0085792 2.60937e-20 0.00989021)
(0.0123535 -0.0065783 1.46115e-19 0.0104293 9.0013e-19 0.00993713)
(0.0108602 -0.00512266 5.77607e-19 0.0112435 1.03264e-18 0.00974918)
(0.0098583 -0.00455477 -2.52251e-19 0.0117206 4.09866e-20 0.00941665)
(0.00902876 -0.00415611 -2.27854e-19 0.0120511 -6.43011e-20 0.00903586)
(0.00838634 -0.00376046 -1.53675e-18 0.012315 -1.67901e-18 0.00869039)
(0.00794681 -0.0033834 -5.17998e-19 0.0124657 -1.80295e-19 0.00837417)
(0.00770834 -0.00305895 -5.32318e-18 0.0125765 -5.12885e-18 0.00811776)
(0.00757541 -0.00279534 -6.70676e-20 0.0125179 8.7011e-19 0.0078477)
(0.008105 -0.00284533 -3.28223e-18 0.0131657 2.28851e-20 0.00813125)
(0.0105594 -0.00363589 2.95966e-18 0.0163833 1.74597e-18 0.0101116)
(0.0166331 -0.00578983 -9.36946e-18 0.0237731 -2.80389e-18 0.0149684)
(0.0359031 -0.0128391 4.10071e-17 0.0452167 1.00983e-17 0.0300525)
(0.0960749 -0.0351391 -8.75259e-17 0.103236 -7.3025e-17 0.0757723)
(0.24402 -0.0896145 -1.7219e-16 0.225253 -6.42139e-17 0.187321)
(0.616724 -0.225537 -3.76461e-16 0.508826 1.47344e-16 0.474745)
(1.49899 -0.548849 7.56262e-17 1.16097 -4.25067e-19 1.17598)
(3.24224 -1.20401 6.7642e-16 2.4581 7.6623e-16 2.61209)
(6.18722 -2.35225 -1.11705e-15 4.72185 -2.00615e-15 5.12633)
(10.9733 -4.30717 8.85957e-17 8.61168 2.132e-15 9.36204)
(14.356 -5.80039 2.80151e-17 11.6919 -4.77699e-16 12.4979)
(29.0098 -11.872 -0 24.1279 -0 25.4129)
(38.8291 -9.34212 -1.78716e-17 36.8416 2.71422e-16 36.4912)
(136.419 -15.6636 -7.6739e-16 139.192 2.20549e-16 133.263)
(321.531 -9.57092 -9.30562e-17 322.809 -7.81317e-16 319.847)
(276.271 -5.25049 -1.03634e-14 269.945 -4.90887e-15 275.197)
(169.69 -4.91458 -4.00431e-16 159.404 -1.8886e-14 168.217)
(79.4412 -3.13798 6.84831e-16 75.42 1.12276e-14 78.7923)
(27.7489 -1.55348 1.25742e-16 27.5194 4.67224e-15 27.8604)
(6.78344 -0.940156 -1.0799e-15 6.95819 7.15513e-16 6.88674)
(0.443633 -0.160128 1.17244e-16 0.482465 1.51931e-16 0.46338)
(0.00849071 -0.00352923 -1.54602e-19 0.00942477 -1.17524e-18 0.00894552)
(0.00273624 -0.000361783 6.68773e-20 0.00268829 -8.93291e-20 0.00272056)
(0.175819 0.00542528 5.67289e-19 0.160494 3.02868e-19 0.169886)
(5.86444 -0.112135 6.56688e-16 5.26527 8.82798e-15 5.76205)
(17.8247 0.868092 -2.44984e-14 21.9506 -4.16033e-14 20.7621)
(0.0130277 -0.00207574 3.2039e-20 0.00499751 8.96941e-20 0.00858634)
(0.00125677 -0.00011582 -1.18199e-21 0.000491876 -4.28136e-20 0.000839291)
(0.00450177 -0.000107556 -1.03277e-19 0.00167451 -2.38947e-19 0.0029915)
(0.0031805 0.000467803 5.98063e-20 -0.00210068 8.06531e-19 0.000413884)
(0.0083136 0.00117257 5.13828e-19 0.00340735 -4.77334e-19 0.00580653)
(0.0113715 0.00264271 -2.78024e-19 0.00554192 -1.08433e-18 0.00847029)
(0.0111863 0.00358357 5.3304e-19 0.00681398 -3.05064e-18 0.0090881)
(0.0104915 0.00413261 -2.65584e-18 0.0079815 -1.38432e-19 0.00941511)
(0.00938477 0.0043342 -1.63998e-18 0.00915543 3.35467e-18 0.00945862)
(0.00801983 0.00411263 -6.75841e-19 0.0102761 -5.18469e-20 0.0092214)
(0.00687883 0.0035824 -5.08201e-19 0.0111318 -2.10103e-18 0.00887912)
(0.00605295 0.00294567 9.12298e-20 0.0115497 -1.129e-18 0.00847444)
(0.00388174 0.0016647 6.60796e-19 0.00823612 1.70654e-18 0.0057082)
(0.00298872 0.00109142 -6.43384e-19 0.00674942 -3.33146e-19 0.00449486)
(0.00288144 0.000891109 -3.75352e-19 0.00670707 -1.28883e-18 0.00433895)
(0.00646685 0.00172734 -4.27049e-18 0.0152001 -7.86586e-19 0.00962156)
(0.0248218 0.00599184 -2.70306e-18 0.0581049 1.57851e-19 0.0361756)
(0.0569686 0.0131479 -4.10675e-19 0.131745 -3.86889e-18 0.0810367)
(0.014852 0.00341464 -1.82533e-18 0.0338341 1.05977e-18 0.0206387)
(0.163281 0.00661921 5.83429e-18 0.198238 -1.904e-18 0.173329)
(0.0028747 0.000109073 -7.79438e-19 0.00341518 4.29823e-19 0.00301989)
(0.027245 0.0066698 -9.39726e-18 0.0584379 1.73266e-18 0.0349682)
(0.359489 0.0872807 1.59655e-17 0.753831 -8.00312e-17 0.447096)
(0.0139054 0.000109036 7.924e-19 0.0143747 -2.2161e-20 0.0139922)
(0.103315 0.00116069 -6.91256e-18 0.107557 6.2583e-19 0.103901)
(0.0210395 0.000314502 -1.40846e-18 0.0219348 1.06044e-19 0.0211278)
(0.0628778 0.00141891 -1.48601e-21 0.0659454 1.05191e-19 0.0631035)
(0.0173687 0.000526796 2.71753e-22 0.018267 1.42184e-20 0.0174281)
(0.0200477 0.000740726 -6.78831e-22 0.0210673 -9.22413e-24 0.0201284)
(0.015974 0.000838289 1.88975e-20 0.0169186 1.44775e-19 0.0160749)
(0.00941536 0.000615955 3.35899e-21 0.00999648 -6.92574e-20 0.00950045)
(0.00466247 0.000387175 3.97898e-20 0.00497857 -1.05612e-19 0.00472425)
(0.00192886 0.000205514 8.4716e-19 0.00207965 3.13872e-20 0.00196652)
(0.000695639 9.69753e-05 2.78501e-19 0.000761998 -1.53023e-19 0.000715774)
(0.000218624 4.01983e-05 -8.36808e-20 0.000245178 1.53523e-20 0.000228011)
(5.50264e-05 1.35828e-05 2.26482e-20 6.39812e-05 2.72698e-21 5.85194e-05)
(8.78332e-07 2.9093e-07 -7.48899e-22 1.06986e-06 -1.03093e-22 9.63577e-07)
(0.370318 0.160952 -3.43576e-16 0.511058 -1.23996e-17 0.417855)
(30.5534 3.84802 -1.99061e-14 33.2562 -2.63582e-15 31.4574)
(0.00543196 -0.00149865 -7.56502e-21 0.00176844 -2.04158e-20 0.00377779)
(0.00642481 -0.00225123 -2.21653e-19 0.00275546 -4.82848e-19 0.00486035)
(0.00506913 -0.00238132 1.51257e-19 0.00271772 3.17113e-19 0.00419301)
(0.00420003 -0.00247295 2.03819e-19 0.00307594 3.61094e-19 0.00400268)
(0.00340397 -0.00245853 3.77547e-19 0.00349683 5.43704e-19 0.00387312)
(0.00259307 -0.002309 -1.17853e-18 0.00389733 -1.97179e-18 0.00373523)
(0.00186393 -0.00203659 8.5896e-19 0.00430093 1.61468e-18 0.00366081)
(0.00126439 -0.00164866 1.18261e-18 0.00468355 1.0783e-18 0.00364274)
(0.000824472 -0.00115147 -6.59741e-20 0.00503519 1.44364e-19 0.0036948)
(0.000576841 -0.00058096 8.63789e-19 0.0053204 1.43736e-18 0.00381404)
(0.000513058 2.16267e-05 -1.85873e-18 0.00551509 -1.47468e-19 0.0039711)
(0.000617729 0.000621618 2.74893e-18 0.00560894 2.96441e-18 0.00415324)
(0.000837519 0.0011682 1.35675e-18 0.00560877 5.78138e-19 0.00431135)
(0.00113181 0.00164141 6.55595e-19 0.00555801 -6.19373e-19 0.00444212)
(0.00277855 0.00228507 2.33438e-18 0.00729342 2.22819e-18 0.00624237)
(-0.00028934 0.00212246 -4.78409e-18 0.00300927 -4.73052e-18 0.0022861)
(0.0118283 0.00627482 3.13209e-18 0.0198161 4.62304e-18 0.0181197)
(0.0297719 0.0157555 6.5409e-17 0.0466158 1.9078e-17 0.0430461)
(0.0772314 0.0409495 5.12704e-17 0.114349 3.62268e-17 0.106309)
(0.196636 0.103852 -3.8947e-17 0.276478 -2.64847e-18 0.258399)
(0.452946 0.236832 1.02834e-16 0.602068 -2.26009e-16 0.566781)
(0.950726 0.486913 4.37615e-17 1.1728 3.56571e-16 1.12135)
(0.295267 0.143988 2.70101e-16 0.320127 -6.30063e-17 0.32087)
(0.115991 0.0491316 -8.52231e-17 0.0874735 -3.46162e-17 0.108365)
(3.69659 -0.0746502 3.37752e-17 2.46329 3.23061e-17 3.22135)
(2.68467 -0.682876 -7.32109e-16 1.6093 1.99471e-16 2.25102)
(32.5536 -4.79963 5.71893e-16 27.6305 7.55686e-17 30.3538)
(106.53 -6.09332 -2.55703e-16 102.504 8.89655e-19 104.599)
(106.197 -3.46018 -4.20466e-15 105.028 2.27728e-15 105.42)
(82.0887 -2.21547 -5.41608e-15 81.6746 2.08835e-16 81.6445)
(50.0018 -1.4455 1.01976e-14 49.7141 -2.50014e-15 49.6624)
(24.8955 -0.469098 5.73992e-15 24.6572 1.70284e-15 24.6474)
(8.92062 0.0905735 1.2356e-16 8.80039 8.06161e-16 8.8459)
(1.52423 -0.0623469 3.02161e-16 1.51291 -8.19535e-17 1.51993)
(0.139552 -0.0230342 2.01835e-17 0.140934 -2.42677e-18 0.139808)
(5.38321e-05 -1.11142e-05 -2.18487e-21 5.46962e-05 -4.57039e-21 5.42313e-05)
(0.0672051 -0.00800326 4.69151e-19 0.069354 -4.78425e-18 0.0677431)
(1.79805 -0.0920023 -6.51085e-16 1.76324 -1.27772e-15 1.79846)
(9.29043 0.99296 2.49582e-14 13.2033 -3.13246e-15 11.3906)
(0.00411154 -0.00127816 -4.78256e-20 -0.000800337 -1.04616e-19 0.00184085)
(0.00325007 -0.000501701 -2.29464e-20 -0.000137973 -3.20257e-21 0.00164876)
(0.00768878 -0.000190703 3.94488e-19 0.00214587 5.56042e-19 0.00502743)
(0.0131739 0.000712097 -3.98297e-19 0.00446263 -3.79228e-20 0.00892406)
(0.0133935 0.00180967 8.78466e-20 0.00506811 3.68828e-19 0.00928942)
(0.00992077 0.00227854 -7.61384e-20 0.00417512 1.3189e-18 0.00706124)
(0.00690122 0.0024163 -5.41268e-20 0.00334234 8.94677e-19 0.00512712)
(0.00648826 0.00285103 3.37337e-18 0.00426335 2.10773e-18 0.0053984)
(0.00607246 0.00317222 6.73374e-19 0.00541364 -6.535e-19 0.00576352)
(0.00554169 0.00328921 2.03813e-18 0.00659752 2.42092e-19 0.00609071)
(0.00509711 0.00323843 -2.35326e-18 0.00779463 -1.15935e-18 0.00649212)
(0.00478146 0.00306611 -1.94863e-18 0.00898405 2.87826e-18 0.00699087)
(0.0044691 0.00275757 3.33198e-18 0.00999985 -1.56369e-18 0.00744712)
(0.00390924 0.00226749 2.58782e-18 0.0103723 -1.60794e-20 0.00750012)
(0.00338913 0.0017283 -3.1047e-18 0.0105189 2.45704e-18 0.00749502)
(0.00283983 0.00115686 -2.34935e-18 0.0103363 4.97191e-18 0.00734584)
(0.00264266 0.000610917 8.1972e-18 0.0105178 -4.27554e-18 0.00761482)
(0.00166305 4.27645e-05 7.88288e-18 0.00914844 -1.47773e-18 0.00665069)
(0.000791117 -0.000457966 3.38002e-18 0.0079433 -3.83111e-19 0.00580403)
(0.00111168 -0.000739982 -9.99443e-19 0.00638423 3.04885e-18 0.00502556)
(0.000633934 -0.000382834 5.61992e-18 0.00230757 2.34847e-19 0.00195346)
(0.00436172 -0.00251472 8.45321e-19 0.0116745 -3.75973e-18 0.0105446)
(0.000520894 -0.000286257 -7.10491e-21 0.00108412 -2.05291e-20 0.0010413)
(0.00272425 -0.0013713 -1.62435e-19 0.0042923 -7.02607e-19 0.00454427)
(0.0190123 -0.00841139 3.19323e-20 0.0225376 1.66101e-18 0.027294)
(0.00527552 -0.00228756 2.94838e-17 0.0048165 -1.80338e-18 0.00700271)
(0.0075651 -0.0026266 -4.72741e-19 0.00556474 2.94382e-20 0.00908676)
(0.00547048 -0.00141493 -2.2901e-18 0.00362144 -4.00912e-20 0.00609198)
(0.00608041 -0.00129497 -3.80786e-20 0.00384528 4.80562e-21 0.00644819)
(0.00528725 -0.00118876 -3.05994e-18 0.00308582 -1.00863e-19 0.00543505)
(0.00366817 -0.000945344 3.822e-18 0.00204521 5.19608e-19 0.00366589)
(0.00234895 -0.000607116 -1.35954e-19 0.0014393 -2.7237e-21 0.0022944)
(0.00157319 -0.000432042 -3.96224e-18 0.00101339 9.55906e-19 0.00150891)
(0.0012021 -0.000357372 -9.76561e-21 0.000794386 5.14651e-19 0.00113342)
(0.000995764 -0.000321607 6.90436e-20 0.000667964 -6.26934e-19 0.000924092)
(0.00125616 -0.000447164 -2.59749e-19 0.000819898 1.26428e-18 0.00113949)
(7.81117e-16 -3.12729e-16 5.41846e-31 5.29117e-16 -2.4384e-30 6.89766e-16)
(0.215698 -0.063242 8.22328e-16 0.120907 1.15233e-17 0.186244)
(12.7567 2.36774 1.23171e-13 11.3506 2.158e-14 12.3744)
(0.00517909 -0.00286606 -8.28996e-20 -0.0020348 -1.36476e-19 0.00143016)
(0.00060746 -0.0005742 -2.7749e-20 -0.000415545 -4.56888e-20 6.9386e-05)
(0.00249746 -0.00338693 2.85035e-19 -0.00149054 3.93706e-19 0.000325434)
(0.00197654 -0.00405067 3.81026e-19 -0.000842414 4.26585e-19 0.000330148)
(0.00137873 -0.00440618 4.94787e-20 0.000137656 -1.36508e-20 0.000456699)
(0.00066592 -0.00442006 -1.35273e-19 0.00118916 3.57472e-19 0.000558553)
(-3.24551e-05 -0.00427365 3.47635e-18 0.00218584 3.47733e-18 0.000632011)
(-0.000638944 -0.00398316 -3.41129e-18 0.00312003 -4.37248e-18 0.000709322)
(-0.00112271 -0.00357701 8.79607e-19 0.00400264 2.31196e-19 0.000802876)
(-0.00153914 -0.00309598 4.99177e-18 0.00472601 3.69963e-18 0.000839608)
(-0.00187265 -0.00256819 4.33093e-18 0.00531561 4.29818e-18 0.000830456)
(-0.00210274 -0.00201815 5.07906e-18 0.00580266 1.58193e-18 0.000802352)
(-0.00222203 -0.00146964 -6.20846e-18 0.00620964 -4.6587e-18 0.000771186)
(-0.00222053 -0.000928445 -4.51785e-18 0.00659007 -4.31347e-18 0.000776593)
(-0.0021642 -0.000411567 5.1178e-19 0.00688781 -1.60122e-18 0.00074388)
(-0.00216746 0.000130387 -1.40462e-17 0.00701842 7.48919e-19 0.00058929)
(-0.00231046 0.000788255 -4.69613e-18 0.00687404 -5.73842e-18 0.000247986)
(-0.00060108 0.000530702 -1.0738e-17 0.00238654 -8.11655e-18 0.000162259)
(-0.000514061 0.00117228 1.70831e-18 0.00325475 -2.39172e-18 0.00037381)
(-1.67743e-05 0.000162144 8.73324e-20 0.000299079 -1.93187e-19 5.34681e-05)
(3.60894e-17 1.3052e-15 -5.83968e-30 1.58545e-15 -1.84103e-32 3.78463e-16)
(1.43139e-17 2.26023e-15 1.33902e-30 1.62171e-15 2.66907e-31 3.63977e-16)
(0.0589609 0.0285803 -7.43456e-17 0.0690947 -1.42622e-17 0.0605488)
(0.0211672 0.00987733 -8.33552e-18 0.0220597 8.8583e-18 0.0207858)
(0.686694 0.302163 7.05804e-17 0.628654 4.58236e-18 0.644817)
(0.463532 1.6312e-06 1.81859e-21 0.463531 8.27348e-22 0.463531)
(3.73055e-05 1.01694e-12 -5.37739e-28 3.73055e-05 3.44741e-28 3.73055e-05)
(0.000289328 -3.97941e-11 7.50506e-27 0.000289328 5.32694e-28 0.000289328)
(0.000600115 -3.58789e-10 5.89883e-25 0.000600115 -8.30737e-26 0.000600115)
(0.00162934 -4.51376e-09 -4.92424e-25 0.00162934 2.6104e-24 0.00162934)
(0.0108282 -3.40863e-07 -6.73527e-22 0.0108281 -3.18795e-22 0.0108281)
(0.24519 -0.000383749 1.46376e-18 0.245067 -1.0029e-18 0.245133)
(1.89509 -0.0872653 3.69164e-16 1.87145 -2.82311e-17 1.8854)
(1.63415 0.000147446 -5.65484e-17 1.59137 -3.17397e-16 1.61599)
(0.497037 -0.0695927 -1.55269e-16 0.477564 -6.25772e-18 0.485407)
(0.0002323 -0.000112663 1.90302e-21 0.000247332 1.90369e-20 0.000240133)
(0.157885 -0.104058 -3.78541e-17 0.192897 -3.74344e-19 0.176579)
(0.0862463 -0.016842 1.28308e-17 0.0858753 -6.21772e-17 0.0865432)
(5.78098 0.968488 -1.08309e-14 8.26261 7.39193e-15 7.33611)
(0.00760488 -0.00236548 -4.5455e-20 -0.00123313 -1.78276e-20 0.00308522)
(0.0129326 -0.00162803 1.67465e-19 0.0030364 8.23665e-19 0.00789391)
(0.0142669 -0.000603836 5.7486e-19 0.00345498 1.12701e-18 0.00882082)
(0.011044 0.00054039 6.42708e-19 0.00144224 -3.25448e-19 0.00622846)
(0.00672762 0.00148104 -1.17688e-18 -0.00134761 -8.8748e-19 0.0026947)
(0.000986456 0.000586262 -4.91536e-20 -0.000713929 -3.36784e-19 0.000136253)
(0.00344839 0.00321527 -2.07316e-18 -0.00207208 -1.74786e-18 0.000690047)
(0.00258751 0.00384101 -2.9672e-18 -0.00114945 -1.04103e-20 0.000733491)
(1.20545e-05 3.24395e-05 -5.56977e-21 -8.53317e-07 -4.22296e-21 5.8123e-06)
(0.000186552 0.00136121 4.09389e-19 0.000335596 -2.70064e-19 0.000273126)
(-0.000152292 0.00231244 6.86797e-19 0.00122392 1.56984e-18 0.000555882)
(-0.000719478 0.00285852 2.4162e-18 0.00242553 -9.38511e-19 0.000864009)
(-0.00130485 0.00302645 -2.85505e-18 0.00374887 -2.58647e-18 0.00119765)
(-0.00172221 0.00282294 -3.71582e-19 0.00493708 1.25623e-18 0.00152201)
(-0.00187567 0.00238899 4.32587e-18 0.0058422 -1.01882e-18 0.00181407)
(-0.00180508 0.00190163 9.87992e-18 0.00654321 -9.4512e-19 0.0021034)
(-0.0015625 0.00144182 -7.58606e-18 0.0070932 -1.26803e-18 0.00239452)
(-0.00119112 0.00102706 -1.97757e-18 0.00745756 -2.80272e-18 0.00266289)
(-0.000776537 0.000684417 -9.52287e-19 0.0079025 5.5828e-19 0.0029912)
(-0.000316668 0.000370529 1.50528e-17 0.00841969 -5.07163e-18 0.00338301)
(0.000166154 4.90717e-05 2.34072e-18 0.00860164 -2.98527e-18 0.00364966)
(0.000645721 -0.000282316 -1.60194e-17 0.00866856 3.89225e-18 0.00387705)
(0.00109142 -0.000612696 -4.64542e-19 0.00812993 1.47761e-18 0.00385555)
(0.00165877 -0.000953702 -1.70027e-19 0.00799703 -8.20386e-19 0.0040556)
(0.00213832 -0.00109951 5.26714e-20 0.00725721 -4.73573e-21 0.00394455)
(0.00240796 -0.00104827 -1.02664e-17 0.00633533 1.60389e-19 0.00363716)
(0.00280931 -0.00103655 -1.00867e-20 0.0062374 -2.88145e-22 0.00370801)
(0.00308563 -0.000967302 2.1904e-18 0.00604517 -1.39724e-19 0.00370191)
(0.00329724 -0.000874771 -1.04296e-19 0.00586356 -1.12896e-21 0.00368751)
(0.00346911 -0.000773161 -2.2896e-20 0.00572782 -5.97683e-19 0.00368635)
(0.00359511 -0.000680226 -6.08152e-18 0.00557663 5.37525e-19 0.00368262)
(0.0036603 -0.000608547 -9.27101e-20 0.00536409 -5.44566e-21 0.00365055)
(0.00364468 -0.000573221 3.17785e-19 0.00505166 -7.0004e-19 0.00356203)
(0.00360407 -0.000602184 1.59865e-17 0.00470797 3.64661e-18 0.00345899)
(0.00341771 -0.000665637 -3.18467e-19 0.0041684 -3.85582e-20 0.00322161)
(0.00463162 -0.00121119 -3.0637e-17 0.00518103 8.41978e-19 0.00423402)
(8.8621e-05 -2.83963e-05 2.19104e-18 8.7341e-05 2.99912e-19 7.81195e-05)
(0.159455 -0.0604971 -6.25091e-17 0.126858 2.01726e-16 0.12863)
(12.891 2.39865 -7.37518e-16 5.99362 4.02985e-15 8.67077)
(0.0124178 -0.00478509 -2.01174e-19 0.000532406 -2.66886e-19 0.00657786)
(0.0114688 -0.00574824 -3.88506e-19 0.00142851 -5.29713e-19 0.00659869)
(0.0104203 -0.00665844 1.34082e-18 0.0027525 1.70925e-18 0.00675681)
(0.00916786 -0.00735173 -5.77635e-18 0.00426105 -7.45283e-18 0.00694097)
(0.00776204 -0.00774842 1.47479e-18 0.00591265 2.00031e-18 0.0071239)
(0.0062283 -0.00786223 3.3155e-18 0.00769367 3.40787e-18 0.00731235)
(0.00463965 -0.00761069 -3.05772e-18 0.00946804 -4.61218e-18 0.00749855)
(0.00309029 -0.00699545 -1.79741e-18 0.0111523 2.6377e-19 0.00767815)
(0.00187545 -0.0060521 -1.3532e-17 0.0129508 -1.24931e-17 0.00810247)
(0.000564032 -0.00475841 -2.37851e-18 0.0141463 -5.32586e-18 0.00820811)
(-0.000696031 -0.0031896 3.98904e-19 0.0147434 -1.28945e-18 0.00806048)
(-0.0013518 -0.001447 -8.70933e-18 0.0153179 -1.04472e-17 0.00823813)
(-0.0016392 0.000406193 4.50765e-18 0.0154837 5.1547e-18 0.00842395)
(-0.00153334 0.00226811 -1.94705e-17 0.0152579 -1.0029e-17 0.00862253)
(-0.00104993 0.00405515 4.27993e-18 0.0146717 2.38255e-18 0.00883041)
(-0.000270909 0.00568349 2.17991e-17 0.0137599 1.75326e-17 0.00899857)
(0.000572263 0.00704388 -3.12896e-17 0.0125998 -8.90354e-18 0.00896763)
(0.00122347 0.00814817 -5.95379e-18 0.0110901 2.69511e-17 0.00857712)
(0.00104575 0.00902194 -2.23446e-18 0.00857199 -3.70386e-18 0.00719094)
(0.000130962 0.00144495 -4.47874e-18 0.000878602 -6.98414e-19 0.000845233)
(0.000833347 0.00302315 1.02119e-17 0.00153683 6.05778e-18 0.00181394)
(0.000581415 0.0012915 1.47509e-19 0.000537994 -2.18156e-19 0.000794284)
(7.94686e-16 1.35215e-15 3.88595e-30 3.975e-16 1.0558e-30 8.07815e-16)
(1.04781e-15 1.69318e-15 3.84577e-30 1.29743e-16 1.2195e-30 8.22449e-16)
(3.95745e-15 1.09731e-14 -2.59791e-30 -3.30822e-15 -2.34473e-31 1.35078e-15)
(6.66668e-16 4.17662e-21 1.03345e-37 6.66665e-16 -3.99793e-37 6.66667e-16)
(7.98649e-06 1.08422e-16 3.36306e-32 7.98649e-06 -7.93732e-33 7.98649e-06)
(6.28696e-05 1.33005e-15 -2.4312e-31 6.28696e-05 -3.70898e-31 6.28696e-05)
(0.000132214 2.8959e-15 -2.29853e-29 0.000132214 -5.60421e-31 0.000132214)
(0.000363584 -2.44373e-14 1.89433e-29 0.000363584 8.9267e-31 0.000363584)
(0.00244498 -2.30457e-12 -8.96174e-28 0.00244498 4.15963e-28 0.00244498)
(0.0559833 -8.48898e-10 -4.22729e-24 0.0559833 -2.35207e-24 0.0559833)
(0.00105595 -5.7189e-07 -7.16937e-23 0.00105584 -4.68397e-22 0.0010559)
(1.49007e-05 -7.02261e-12 -1.39834e-25 1.49007e-05 7.20676e-27 1.49007e-05)
(0.329702 -0.039323 1.61798e-17 0.295789 3.21433e-17 0.311151)
(0.275257 -0.226927 -4.17894e-20 0.305648 7.2177e-21 0.292441)
(0.676402 -0.689831 -2.26411e-16 0.849859 2.43281e-16 0.780298)
(0.0863214 -0.0375087 1.04579e-17 0.0872506 7.37646e-17 0.0866389)
(3.02618 0.294116 6.92833e-15 3.71526 4.3095e-15 3.41729)
(0.01625 -0.00390367 4.0639e-19 0.0019448 1.81163e-19 0.0092121)
(0.014492 -0.0025331 -1.13462e-18 -0.000388844 -1.6373e-18 0.00711307)
(0.00992175 -0.000976118 -7.25261e-19 -0.00505237 1.1309e-18 0.00249229)
(0.00807283 0.000591478 2.88586e-18 -0.00594135 1.55225e-18 0.00109237)
(0.00357712 0.00099339 -4.52536e-19 -0.00256011 -2.39955e-18 0.000516264)
(0.0023783 0.00122819 -6.82412e-19 -0.00159489 6.49839e-19 0.000388884)
(0.00192384 0.00157869 1.67261e-18 -0.00113556 1.27174e-18 0.000391537)
(0.00139286 0.00174863 -6.009e-19 -0.000614681 -1.35084e-18 0.000391273)
(0.000877398 0.0017549 -1.25453e-18 -0.000107407 -5.00352e-19 0.00038946)
(0.000474704 0.00176795 -1.00993e-18 0.000359894 4.02941e-19 0.000423106)
(0.000127992 0.0016551 1.28105e-18 0.00077662 -1.71513e-20 0.000458212)
(-0.00012963 0.00147391 -8.78208e-19 0.00111802 -6.1332e-19 0.000500299)
(-0.00030062 0.00127558 -1.0696e-18 0.0014012 7.85156e-19 0.000558425)
(-0.000388262 0.00105347 1.12021e-18 0.00160971 3.98026e-19 0.00062349)
(-0.000394544 0.000820376 -1.91925e-18 0.00172594 3.64104e-19 0.000685252)
(-0.000342849 0.000612067 -3.66973e-19 0.0017934 -1.22701e-18 0.000754143)
(-0.000259095 0.000449299 5.32593e-19 0.00189317 6.82869e-19 0.000858498)
(-0.000134264 0.000288985 -2.52477e-18 0.00187336 1.91822e-19 0.000922919)
(-1.09898e-06 0.000156896 1.00745e-18 0.00182499 -4.84882e-20 0.000976104)
(0.000133223 5.15516e-05 -4.3173e-18 0.00187929 4.14616e-19 0.00108471)
(0.000266858 -4.82206e-05 -4.58779e-19 0.00189587 1.29111e-19 0.00117163)
(0.000400385 -0.000145478 3.8438e-18 0.00189726 8.04646e-20 0.00124953)
(0.00051543 -0.000232482 3.54133e-18 0.00179865 -6.69001e-19 0.00126015)
(0.000668306 -0.000320662 -3.1944e-18 0.0017544 2.5626e-19 0.0013229)
(0.000799584 -0.000363034 -4.04271e-20 0.0015989 1.26014e-20 0.00131393)
(0.000886999 -0.00035569 -2.81663e-18 0.00140487 3.24001e-19 0.00125761)
(0.00102455 -0.000354457 -1.56694e-20 0.0013338 1.1217e-21 0.00130288)
(0.00113057 -0.000335948 4.93543e-22 0.00124953 2.58285e-20 0.00132776)
(0.00121847 -0.000309063 1.19879e-20 0.00117205 -1.56536e-21 0.00134803)
(0.00129488 -0.000277518 1.06937e-18 0.00110758 9.44742e-20 0.00136938)
(0.00135062 -0.000242954 -1.59083e-21 0.00105168 -2.15821e-19 0.00138156)
(0.00136959 -0.000205864 -9.59944e-20 0.000999336 -1.36747e-20 0.00136772)
(0.00134871 -0.000167977 -6.37987e-18 0.000944917 -1.16947e-18 0.00132415)
(5.38652e-05 -5.5345e-06 -2.28859e-19 3.69432e-05 -1.40851e-20 5.22427e-05)
(4.93551e-05 -4.19637e-06 -1.60513e-21 3.36623e-05 2.64201e-22 4.74624e-05)
(0.00184576 -0.000142358 -1.29146e-17 0.00125887 -5.45881e-18 0.00175667)
(3.55547e-05 -2.57357e-06 -3.64068e-20 2.34805e-05 2.6958e-19 3.32801e-05)
(0.149924 -0.0114457 6.92936e-19 0.0860165 -4.60417e-19 0.132377)
(10.9966 1.77655 -2.91519e-13 4.74789 -5.16438e-14 7.54141)
(0.0170244 -0.00729123 7.9267e-19 -0.000970918 8.36028e-19 0.00796227)
(0.014741 -0.00864285 -5.77214e-19 -0.000540719 -5.81832e-19 0.00704163)
(0.0127683 -0.0100365 -1.23359e-20 0.000789487 -6.00922e-20 0.00668138)
(0.0105873 -0.0111081 -2.0925e-19 0.00252424 1.38594e-19 0.00643933)
(0.00827348 -0.0118131 7.59708e-18 0.00451242 7.81891e-18 0.00624445)
(0.00582192 -0.012073 -4.99837e-18 0.00675981 -5.96992e-18 0.00608563)
(0.00339372 -0.0118508 -3.19693e-19 0.00906773 1.27502e-18 0.00597073)
(0.00108998 -0.0111835 1.80511e-17 0.0113111 1.68285e-17 0.00586946)
(-0.00101453 -0.010106 -3.86122e-18 0.0134358 4.25622e-19 0.0057814)
(-0.00279245 -0.00869058 -2.23693e-17 0.0153832 -1.49099e-17 0.00575138)
(-0.0042503 -0.00700088 7.38792e-18 0.0170599 6.0424e-18 0.00571523)
(-0.00535268 -0.00510398 -2.07907e-17 0.018453 -6.92559e-18 0.00567941)
(-0.00608557 -0.00307956 -8.44939e-18 0.0195503 -3.28062e-18 0.0056425)
(-0.00645099 -0.000988095 -1.52905e-17 0.0203749 7.9295e-18 0.00560033)
(-0.00653594 0.00112573 1.39429e-18 0.0208721 7.71825e-19 0.0054774)
(-0.00619115 0.00322013 1.41146e-17 0.0212754 3.13725e-18 0.00545543)
(-0.00532673 0.00534348 2.24902e-17 0.0216983 3.15267e-17 0.00566578)
(-0.00436089 0.0076027 9.62185e-17 0.0215163 2.6313e-17 0.00568792)
(-0.00306068 0.00994997 -4.37214e-17 0.0205898 -2.15595e-18 0.00561302)
(0.000142053 0.0105059 3.97771e-17 0.0174297 1.71787e-17 0.00598103)
(0.00292562 0.00976216 5.37912e-18 0.0133228 -1.53129e-17 0.00592584)
(0.00247527 0.00424896 -2.37659e-18 0.00489213 4.3073e-18 0.00286903)
(0.00118136 0.00132736 -4.87573e-18 0.00131416 -2.66608e-18 0.00102801)
(0.000939993 0.000753919 1.05206e-19 0.000667913 -1.45881e-19 0.000686048)
(4.08099e-08 2.64239e-08 8.79522e-24 1.94568e-08 -1.83556e-24 2.60375e-08)
(6.66668e-16 1.95843e-21 4.63637e-36 6.66666e-16 -1.2675e-36 6.66666e-16)
(6.66667e-16 8.9151e-27 -7.47607e-42 6.66667e-16 -2.5008e-42 6.66667e-16)
(6.66667e-16 9.26648e-27 -7.68236e-42 6.66667e-16 -3.56654e-43 6.66667e-16)
(6.66667e-16 1.47942e-26 6.62125e-41 6.66667e-16 2.5058e-41 6.66667e-16)
(6.66667e-16 2.9024e-26 -1.92286e-41 6.66667e-16 -8.57384e-41 6.66667e-16)
(6.66667e-16 4.88399e-26 -8.19888e-40 6.66667e-16 2.64897e-40 6.66667e-16)
(6.66667e-16 -6.53699e-26 -4.67099e-39 6.66667e-16 3.41214e-39 6.66667e-16)