/*--------------------------------*- C++ -*----------------------------------*\
| =========                 |                                                 |
| \\      /  F ield         | OpenFOAM: The Open Source CFD Toolbox           |
|  \\    /   O peration     | Version:  2312                                  |
|   \\  /    A nd           | Website:  www.openfoam.com                      |
|    \\/     M anipulation  |                                                 |
\*---------------------------------------------------------------------------*/
FoamFile
{
    version     2.0;
    format      ascii;
    arch        "LSB;label=32;scalar=64";
    class       volScalarField;
    location    "350";
    object      turbulenceProperties:k;
}
// * * * * * * * * * * * * * * * * * * * * * * * * * * * * * * * * * * * * * //

dimensions      [0 2 -2 0 0 0 0];

internalField   nonuniform List<scalar> 
10720
(
0.0145897
0.0225694
0.028167
0.0351613
0.0437221
0.0535666
0.0654329
0.0800357
0.0991371
0.125572
0.1638
0.223476
0.322612
0.491357
0.794725
1.54243
3.00071
5.74779
11.1195
19.1057
30.1027
47.2758
69.1782
105.26
198.383
294.328
679.942
1201.46
836.122
346.108
100.622
10.4089
2.52881
0.156121
1e-15
0.00318099
0.20763
17.4417
63.4885
0.0197001
0.0326919
0.0337175
0.0270297
0.0145432
0.013797
0.0168419
0.0203405
0.0217689
0.024708
0.03026
0.0398769
0.0550233
0.0825298
0.124192
0.219083
0.319041
0.718551
1.06974
1.37463
1.8583
2.70732
3.79128
5.3134
7.13957
9.01866
8.33248
5.14468
2.14918
0.590629
0.0773911
0.00346351
0.000665493
0.000243935
7.8386e-05
1.12228e-05
1.75214e-07
2.42368
186.79
0.0198427
0.0169979
0.0167644
0.0167499
0.01636
0.0159264
0.0154978
0.0150579
0.0146959
0.0143933
0.0142013
0.0139705
0.014701
0.0185271
0.0276873
0.0555861
0.137542
0.328297
0.800148
1.91797
4.15622
8.0177
14.4735
19.2729
39.2753
56.0809
204.437
482.093
410.706
248.656
116.827
41.5644
10.3142
0.694739
0.0134305
0.00407255
0.2531
8.44588
30.2687
0.0133058
0.00129397
0.00458389
0.000746851
0.00876374
0.0126919
0.0135442
0.013944
0.0139994
0.0137587
0.0134449
0.0130385
0.00891303
0.0071165
0.00696373
0.0156442
0.0595511
0.134875
0.0346624
0.267424
0.00465488
0.0603256
0.780208
0.0211361
0.157387
0.032051
0.0959634
0.0265319
0.0306217
0.0244838
0.0144561
0.00718265
0.00298751
0.00108671
0.000345907
8.87635e-05
1.45589e-06
0.649616
47.6335
0.0054891
0.00702031
0.00598993
0.00563932
0.00538696
0.00511281
0.00491283
0.00479534
0.00477723
0.00485564
0.00499963
0.00518996
0.00537882
0.00556597
0.00815716
0.00250301
0.024882
0.0597169
0.148945
0.365756
0.810898
1.62244
0.468132
0.155915
4.69061
3.27249
45.269
156.816
158.322
122.704
74.6892
37.1001
13.2835
2.27853
0.210147
8.13798e-05
0.102151
2.67987
16.9421
0.00257602
0.00238043
0.00743104
0.0132803
0.0138755
0.0105786
0.00768534
0.00807501
0.00862481
0.00911496
0.00969193
0.0103782
0.010958
0.0108908
0.0107015
0.010261
0.0103876
0.00873109
0.00726922
0.00626073
0.00244748
0.0132904
0.00132316
0.00578041
0.0344219
0.00854737
0.0111083
0.00759195
0.00818694
0.00690406
0.00468963
0.00304133
0.00204774
0.00156496
0.00129391
0.00160777
1e-15
0.261425
18.2409
0.00228723
0.00013065
0.000666175
0.000732136
0.00098654
0.00120682
0.0013927
0.0015952
0.0018414
0.00201324
0.00213671
0.00225114
0.0023794
0.00257306
0.00273375
0.00272012
0.00240578
0.000973859
0.00155725
0.000167886
1e-15
1e-15
0.0943022
0.0320064
0.980083
0.695297
5.59583e-05
0.000433992
0.000900172
0.00244401
0.0162422
0.367695
2.82597
2.42076
0.730004
0.000359882
0.263681
0.129332
10.6899
0.00472848
0.0119314
0.0132714
0.00935735
0.00403735
0.00020439
0.00103318
0.00108578
8.50676e-06
0.000397636
0.000813754
0.00128503
0.00182083
0.00236844
0.0028903
0.00342077
0.00396261
0.00446466
0.00505858
0.00574301
0.00620873
0.00659567
0.00653846
0.0068557
0.00667004
0.00619023
0.00637736
0.00641636
0.00642416
0.00644164
0.00642718
0.00633747
0.00612918
0.00588551
0.00540386
0.00702333
0.000127041
0.207471
13.7777
0.00976402
0.00974798
0.00996482
0.0101849
0.0103993
0.0106172
0.0108031
0.0109604
0.0114644
0.0114592
0.0110539
0.0111021
0.0111342
0.0111735
0.0112261
0.0112438
0.0110699
0.0104454
0.00840434
0.000927398
0.00209206
0.000956846
1e-15
1e-15
1e-15
1e-15
1.19797e-05
9.43045e-05
0.000198322
0.000545376
0.00366747
0.0839749
0.00158385
2.23511e-05
0.468321
0.436673
1.15328
0.130105
5.07936
0.0137034
0.0106081
0.00368084
0.00161192
0.000766641
0.000586144
0.000589908
0.000584728
0.000579725
0.000628852
0.000681412
0.000744346
0.000829503
0.000922467
0.00100832
0.00110235
0.00124629
0.00133101
0.0014
0.00154861
0.00166718
0.00177359
0.00178712
0.0018728
0.00185621
0.00177474
0.00183062
0.00185393
0.00186928
0.00188592
0.00189193
0.00186832
0.00180889
7.15255e-05
6.52399e-05
0.00243065
4.61576e-05
0.184159
11.6429
0.0120079
0.010621
0.0101196
0.00977543
0.00951518
0.00933368
0.00921609
0.00913525
0.00910135
0.00917105
0.00926242
0.00938987
0.0095536
0.00976214
0.00990678
0.0102698
0.0110187
0.0114217
0.0115711
0.0117764
0.0110871
0.00511822
0.00176176
0.00114698
4.31521e-08
1e-15
1e-15
1e-15
1e-15
1e-15
1e-15
1e-15
0.000363225
5.19225e-06
7.2609e-07
8.31177e-06
0.00022159
4.49081e-06
3.04773e-05
0.0063638
0.000300787
0.000768939
0.000984243
0.00205886
0.00423821
0.00435937
0.00427474
0.0041785
0.00406981
0.00395628
0.00382957
0.00374323
0.0036604
0.00351835
0.00338057
0.00350858
0.00328177
0.0028495
0.00276446
0.00271652
0.00267064
0.00259003
0.00250668
0.00243673
0.00237099
0.00230729
0.00224525
0.00218631
0.00213224
0.00207039
0.00195945
0.001812
0.00171433
0.00117256
0.00196192
3.91034e-05
0.155155
9.34004
0.00281781
0.00339105
0.00269013
0.0023019
0.00203682
0.00182397
0.00165318
0.00153092
0.00145985
0.00144377
0.00148169
0.00157555
0.00172472
0.00193104
0.00220567
0.00256874
0.00298112
0.00359347
0.0046353
0.00593508
0.0071754
0.00792363
0.00773018
0.00597152
2.20831e-07
1.76447e-06
1e-15
1e-15
1e-15
1e-15
1e-15
1e-15
1e-15
1e-15
1.68814e-07
1.94905e-06
5.23711e-05
1e-15
7.5011e-06
0.00109599
0.000850344
0.00229374
0.00585755
0.00768531
0.00816983
0.00826204
0.00827382
0.00828586
0.00830382
0.00832706
0.00833641
0.00840367
0.00848404
0.00844146
0.00840597
0.00842912
0.00849369
0.00851469
0.00848337
0.00840726
0.00831078
0.00819815
0.0080657
0.00792016
0.00776697
0.00760661
0.00743924
0.007265
0.00708543
0.00690572
0.0066974
0.0063781
0.00575474
0.00538753
0.00541714
0.000113294
0.110163
6.31551
0.000584823
0.000658502
0.000658866
0.000643025
0.000666659
0.000696676
0.000716418
0.000744894
0.000774541
0.000805122
0.000845831
0.000894035
0.000950156
0.00101742
0.00109721
0.00119409
0.0012988
0.00144799
9.53662e-05
0.000934681
0.00211916
0.00351409
0.00486714
0.00551426
0.0071957
8.90036e-06
4.31075e-07
1e-15
1e-15
1e-15
1e-15
1e-15
1e-15
1e-15
1e-15
1e-15
1e-15
1e-15
1e-15
6.03212e-05
0.00465451
0.00715854
0.00663285
0.00500192
0.00440016
0.00450702
0.0046262
0.00477057
0.00494666
0.00514985
0.00537999
0.00561169
0.00590055
0.0062382
0.00651908
0.00668176
0.00676665
0.00679399
0.00677458
0.00672362
0.00665103
0.00655699
0.00644724
0.00633139
0.00621132
0.00608741
0.0059603
0.00583071
0.00569858
0.00556497
0.00544772
0.0053388
0.00516301
0.00499745
0.0054793
0.000120203
0.0635855
3.47268
0.00222016
0.00220637
0.00253146
0.0028663
0.00318732
0.00349072
0.0037753
0.00401736
0.00420606
0.00435671
0.00448558
0.00459349
0.00468163
0.00475629
0.00482176
0.0048785
0.00490742
0.00492726
0.00507018
0.00460043
0.00395046
0.00401372
0.00445009
0.00458216
0.00721959
2.10687e-05
1.06023e-06
1e-15
1e-15
1e-15
1e-15
1e-15
1e-15
1e-15
1e-15
1e-15
1e-15
1e-15
1e-15
0.00633817
0.00685933
0.00427838
0.00184785
0.000157846
0.000636224
0.000651166
6.09016e-05
0.000154094
0.000271404
0.000412639
0.00057774
0.000771134
0.000994718
0.00124378
0.00141878
0.0015251
0.0015958
0.00162773
0.00162297
0.00160786
0.00158685
0.00154611
0.00149993
0.00146381
0.00143216
0.00140193
0.00137433
0.00135005
0.00132837
0.00130737
0.00129516
0.00135533
0.0014797
0.00158736
0.00260129
5.98492e-05
0.0278136
1.44741
0.00673843
0.0060235
0.00601936
0.00605561
0.00608482
0.00611381
0.00621418
0.00630831
0.00635252
0.00641206
0.00649762
0.00658322
0.00666984
0.00678036
0.00690353
0.00702092
0.00709428
0.00727694
0.00748618
0.00728329
0.00681697
0.00636284
0.00610021
0.00547414
0.00700487
4.56743e-05
2.38646e-06
1e-15
1e-15
1e-15
1e-15
1e-15
1e-15
1e-15
1e-15
1e-15
1e-15
1e-15
1e-15
0.00597773
0.00242111
0.000877628
0.000283977
0.000153197
0.000145092
0.000147672
0.000154829
0.000165754
0.000180317
0.000196658
0.000216675
0.000242636
0.000274441
0.000312887
0.000343502
0.00036565
0.000384541
0.000398719
0.000407287
0.000414474
0.000421119
0.000423581
0.000423951
0.000425147
0.000426172
0.000426532
0.000426587
0.000426497
0.000426043
0.000424938
0.000424921
0.000435881
0.00045498
0.000492857
0.000689513
5.30544e-05
0.00727168
0.360652
0.00411761
0.00385394
0.00346229
0.00314579
0.00289544
0.00268856
0.00258919
0.00253876
0.00244875
0.00242195
0.00247441
0.00253439
0.00261114
0.00276319
0.00296968
0.00317473
0.00341255
0.00373477
0.004234
0.00481616
0.00523849
0.00545232
0.00563241
0.00531235
0.00653847
9.60575e-05
5.20847e-06
1e-15
1e-15
1e-15
1e-15
1e-15
1e-15
1e-15
1e-15
1e-15
1e-15
1e-15
1e-15
0.00109632
0.000438449
0.000294514
0.000266343
0.000950035
0.00101581
0.0010197
0.00101369
0.00100105
0.000983898
0.000962235
0.000936532
0.000908776
0.000880456
0.000854685
0.000832077
0.000811718
0.000795877
0.000783565
0.000771443
0.000761864
0.000755851
0.000748756
0.000741113
0.000735463
0.000729361
0.000721549
0.000712598
0.00070246
0.000690703
0.000677746
0.000663338
0.000626677
0.000561166
0.000599903
0.00040704
0.000240063
0.000481766
0.0225163
0.000153401
0.000347866
0.000508902
0.00041278
0.000387491
0.000367733
0.000353644
0.000350503
0.000341996
0.000341065
0.000353876
0.000368589
0.000386728
0.000418151
0.000459582
0.000503019
0.000554087
0.000648978
0.000242953
0.000772945
0.0015518
0.00235849
0.00310581
0.0033806
0.00498513
0.000174644
9.82032e-06
1e-15
1e-15
1e-15
1e-15
1e-15
1e-15
1e-15
1e-15
1e-15
1e-15
1e-15
1e-15
0.00027181
0.000572528
0.00195464
0.00302938
0.00329123
0.00329995
0.00329914
0.00330295
0.00330871
0.00331488
0.00331596
0.00331216
0.00330369
0.00329185
0.00327746
0.00326128
0.00324308
0.00322263
0.00320027
0.00317559
0.00314814
0.00311806
0.00308537
0.00304954
0.00301049
0.00296834
0.00292318
0.002875
0.00282373
0.00276926
0.00271149
0.00265065
0.00257629
0.00245996
0.00230905
0.00207501
0.00190556
0.00044417
0.00528303
0.000380952
0.000292692
0.000296474
0.00031322
0.000338963
0.000362157
0.000374619
0.000391377
0.000407485
0.000420067
0.000434333
0.000447694
0.000460487
0.000473941
0.000486978
0.000500193
1.70682e-06
4.87102e-05
7.74344e-05
8.42335e-05
0.000261763
0.000677178
0.00128999
0.00164498
0.00322998
0.000287363
1.67467e-05
1e-15
1e-15
1e-15
1e-15
1e-15
1e-15
1e-15
1e-15
1e-15
1e-15
1e-15
1e-15
0.000975634
0.00283747
0.00343702
0.00292076
0.00274881
0.00272447
0.0027103
0.0027076
0.00271399
0.00272591
0.00273473
0.00274219
0.00274802
0.00275217
0.00275391
0.00275248
0.00274756
0.00273884
0.00272608
0.00270912
0.00268797
0.00266274
0.00263365
0.00260142
0.00256688
0.00253028
0.00249179
0.00245147
0.00240939
0.00236555
0.0023201
0.00227474
0.00224023
0.002207
0.00216019
0.00208413
0.00200986
0.00180127
0.000205976
0.00191356
0.00195314
0.00217494
0.00237045
0.00252175
0.00264266
0.00275204
0.00285642
0.00295213
0.00303401
0.0031026
0.00315887
0.00320357
0.00323835
0.00326453
0.00328329
0.00329483
0.00330079
0.00329541
0.00318227
0.00305227
0.00265796
0.00229719
0.00207751
0.00283645
0.000590204
5.71878e-11
3.2333e-12
1e-15
1e-15
1e-15
1e-15
1e-15
1e-15
1e-15
1e-15
1e-15
1e-15
1e-15
0.00335576
0.00292383
0.00160134
0.000784389
0.000639176
0.0006232
0.000615786
0.000607978
0.00060541
0.000607599
0.000613009
0.00062034
0.000628623
0.000637282
0.000645511
0.000652857
0.000658773
0.000662981
0.000665115
0.000665085
0.000662848
0.000658632
0.000652792
0.000646335
0.000639934
0.000633415
0.000626789
0.000620058
0.000613389
0.000606859
0.000600431
0.000592905
0.000589555
0.000631913
0.0006975
0.000776271
0.000878803
0.00106945
0.000659062
0.00325249
0.00299853
0.00300667
0.00305189
0.00308624
0.00309096
0.00312057
0.00316575
0.0032148
0.00326406
0.00331233
0.0033611
0.00341132
0.00346362
0.00352101
0.00358113
0.00363669
0.0036884
0.00373321
0.0038291
0.00387097
0.00364068
0.00332137
0.00293901
0.00308621
0.00123317
5.53072e-09
3.24033e-10
1e-15
1e-15
1e-15
1e-15
1e-15
1e-15
1e-15
1e-15
1e-15
1e-15
1e-15
0.00224828
0.000695632
0.000310555
0.000112169
9.34611e-05
9.3757e-05
9.35522e-05
9.1309e-05
8.98537e-05
8.94334e-05
8.87374e-05
8.85127e-05
8.92863e-05
9.04395e-05
9.21729e-05
9.45962e-05
9.72872e-05
0.000100267
0.000103384
0.000106479
0.000109412
0.000112164
0.000114705
0.00011692
0.000118684
0.000120137
0.000121453
0.000122617
0.000123659
0.000124586
0.000125394
0.000125829
0.000127016
0.000138073
0.000154425
0.000173992
0.000202632
0.000122778
0.000260256
0.00139873
0.00134927
0.00113691
0.00101523
0.000941194
0.00093507
0.000966963
0.00100656
0.00103931
0.00107088
0.00110463
0.00114357
0.00118949
0.00124351
0.00130724
0.00137786
0.00145114
0.0015231
0.0016375
0.00184813
0.00213504
0.00238552
0.00254477
0.00255109
0.00268909
0.00180785
2.6451e-08
1.60539e-09
1e-15
1e-15
1e-15
1e-15
1e-15
1e-15
1e-15
1e-15
1e-15
1e-15
1e-15
9.24817e-05
0.000101714
9.75045e-05
0.00013848
0.000145784
0.000151472
0.000152944
0.000150598
0.000147946
0.00014585
0.00014233
0.000139092
0.000137253
0.000135894
0.000135492
0.000136365
0.000137867
0.00014019
0.000143074
0.000146405
0.000149965
0.000153692
0.0001575
0.000160872
0.000163331
0.00016515
0.000166662
0.000167831
0.000168636
0.000169052
0.000169067
0.000168678
0.000167969
0.000163847
0.00015397
0.000137906
0.00011724
0.000125443
0.000130077
0.000182728
0.000179367
0.000161726
0.000139513
0.000131242
0.000132583
0.000135655
0.000141651
0.000146763
0.000151034
0.000156937
0.000163877
0.000172285
0.000182882
0.000195501
0.000209983
0.000225636
0.000241836
0.000265558
0.00031084
5.57322e-05
0.000386346
0.000802173
0.00118071
0.0014843
0.00162152
7.33428e-08
4.60815e-09
1e-15
1e-15
1e-15
1e-15
1e-15
1e-15
1e-15
1e-15
1e-15
1e-15
1e-15
6.05831e-05
0.000240796
0.000681906
0.000963445
0.000993242
0.00100396
0.00100602
0.00100559
0.00100415
0.00100262
0.00100134
0.000999763
0.000997838
0.000995639
0.000992987
0.000989865
0.000986266
0.000982128
0.000977414
0.00097208
0.000966085
0.000959345
0.000951789
0.000943384
0.000934145
0.000924015
0.000912971
0.000901011
0.000888111
0.000874266
0.000859462
0.000843732
0.00082749
0.000795707
0.000737747
0.00065246
0.00054814
0.000450579
0.000321811
0.000157982
0.000121315
0.000148503
0.000155125
0.000166055
0.000170315
0.000170264
0.000172096
0.000173502
0.000173436
0.000174552
0.000175603
0.000176806
0.000178623
0.000182349
0.000185676
0.000188825
0.000191829
0.000194684
0.000196998
0.000197509
0.000233978
0.00029922
0.000161231
0.000417965
0.000957034
1.44465e-07
9.3901e-09
1e-15
1e-15
1e-15
1e-15
1e-15
1e-15
1e-15
1e-15
1e-15
1e-15
1e-15
0.000377455
0.00129208
0.00166889
0.00163197
0.00161199
0.00160537
0.00159582
0.00158622
0.00157813
0.00157184
0.00156744
0.00156407
0.00156111
0.00155832
0.00155537
0.00155199
0.00154806
0.0015434
0.00153785
0.00153125
0.00152345
0.00151425
0.00150345
0.00149091
0.00147676
0.00146111
0.00144397
0.00142539
0.00140539
0.00138399
0.00136118
0.00133716
0.001314
0.00128636
0.00124175
0.00117397
0.0010914
0.00097017
0.000783441
0.000860969
0.000910517
0.00104121
0.00112983
0.00119376
0.00120605
0.00122275
0.0012357
0.00124509
0.00125108
0.00125426
0.00125539
0.0012548
0.00125252
0.00126125
0.00126373
0.0012629
0.00125945
0.00125424
0.00124539
0.00116814
0.00102615
0.000885678
0.000735932
0.000569377
0.000857827
4.27012e-07
2.86946e-08
1e-15
1e-15
1e-15
1e-15
1e-15
1e-15
1e-15
1e-15
1e-15
1e-15
1e-15
0.00172604
0.00162425
0.00108538
0.000827741
0.00079318
0.000782316
0.000774618
0.000766358
0.000759548
0.000754667
0.000751811
0.000750395
0.000749755
0.000749549
0.000749453
0.000749226
0.000748733
0.000747802
0.000746285
0.000744069
0.000741068
0.000737164
0.000732343
0.000726687
0.000720381
0.000713475
0.000705977
0.000697946
0.000689408
0.000680364
0.000670868
0.000660838
0.000651686
0.000652413
0.000667184
0.000688994
0.00071588
0.000731675
0.000692112
0.00176139
0.00163946
0.00166369
0.00168425
0.00169095
0.001691
0.00168856
0.00168412
0.00167992
0.00167664
0.00167404
0.0016723
0.00167139
0.00167111
0.00167132
0.00167167
0.00167205
0.00167222
0.00167224
0.00168002
0.00167074
0.00161801
0.0015011
0.0013192
0.00106795
0.00111024
1.64853e-06
1.14445e-07
1e-15
1e-15
1e-15
1e-15
1e-15
1e-15
1e-15
1e-15
1e-15
1e-15
1e-15
0.00133683
0.000597543
1.23368e-05
0.000124497
0.0001204
0.000121884
0.000121421
0.000118087
0.000114838
0.000112271
0.000108746
0.00010559
0.000103635
0.00010207
0.000101365
0.000101769
0.000102815
0.000104601
0.000106984
0.000109839
0.000112983
0.000116354
0.000119849
0.000122989
0.000125319
0.000127158
0.00012881
0.000130261
0.000131499
0.000132498
0.000133258
0.000133758
0.000134279
0.000136716
0.00014379
4.28257e-05
0.000121506
0.000227778
0.000330826
0.000899722
0.000854585
0.000780076
0.000738516
0.000703337
0.000674705
0.000654903
0.000641486
0.000633567
0.000630366
0.00063072
0.00063421
0.000640349
0.000648883
0.000659727
0.000672728
0.000687972
0.000705463
0.00072514
0.000752409
0.000817214
0.000915404
0.000990937
0.00105111
0.00101404
0.00110841
5.05093e-06
3.61974e-07
1e-15
1e-15
1e-15
1e-15
1e-15
1e-15
1e-15
1e-15
1e-15
1e-15
1e-15
0.000183758
0.000102284
1.84276e-06
8.64362e-06
9.58376e-06
1.07635e-05
1.19644e-05
1.21743e-05
1.18795e-05
1.14917e-05
1.09491e-05
1.04298e-05
1.008e-05
9.79483e-06
9.61251e-06
9.57294e-06
9.62092e-06
9.76608e-06
1.00038e-05
1.03149e-05
1.06853e-05
1.11043e-05
1.15719e-05
1.2027e-05
1.23839e-05
1.26627e-05
1.29082e-05
1.31239e-05
1.3309e-05
1.3462e-05
1.35822e-05
1.36711e-05
1.36709e-05
1.33052e-05
1.08661e-05
1.59861e-05
3.08639e-05
5.11037e-05
2.50746e-05
0.000122359
0.000117928
0.000115067
0.000104696
0.000100854
9.80744e-05
9.36379e-05
9.15379e-05
9.02119e-05
8.9011e-05
8.91345e-05
8.98257e-05
9.10686e-05
9.3154e-05
9.5797e-05
9.90576e-05
0.000102916
0.000107352
0.000112327
0.000118666
0.000134454
3.63769e-05
0.0001847
0.000361078
0.000486765
0.000762011
1.1925e-05
8.81717e-07
1e-15
1e-15
1e-15
1e-15
1e-15
1e-15
1e-15
1e-15
1e-15
1e-15
1e-15
2.47636e-05
4.14878e-05
0.000103178
5.81782e-05
6.33252e-05
6.93334e-05
7.66988e-05
7.95836e-05
7.93755e-05
7.82875e-05
7.70698e-05
7.59108e-05
7.5102e-05
7.45531e-05
7.41296e-05
7.39e-05
7.38261e-05
7.3851e-05
7.39863e-05
7.42056e-05
7.44742e-05
7.475e-05
7.50409e-05
7.5333e-05
7.5482e-05
7.53882e-05
7.51051e-05
7.46797e-05
7.4122e-05
7.34445e-05
7.26553e-05
7.17682e-05
7.04934e-05
6.7449e-05
5.41974e-05
3.34184e-05
2.14235e-05
7.56122e-05
6.32816e-05
3.18039e-05
3.31063e-05
3.92183e-05
3.96744e-05
4.13771e-05
4.27323e-05
4.2266e-05
4.21565e-05
4.19072e-05
4.12679e-05
4.09591e-05
4.06679e-05
4.04148e-05
4.0376e-05
4.03886e-05
4.05045e-05
4.06898e-05
4.09343e-05
4.12276e-05
4.14922e-05
4.12626e-05
4.19058e-05
6.08187e-05
8.0319e-05
0.000114618
0.000303793
1.918e-05
1.46202e-06
1e-15
1e-15
1e-15
1e-15
1e-15
1e-15
1e-15
1e-15
1e-15
1e-15
1e-15
0.000126629
0.000307378
0.000653207
0.000672104
0.00067212
0.000672019
0.000677965
0.000679171
0.000675313
0.00067035
0.000666276
0.000663154
0.000660746
0.000658752
0.000656887
0.000655072
0.000653204
0.000651169
0.000648918
0.000646371
0.000643443
0.000640039
0.000636077
0.000631499
0.000626264
0.000620359
0.000613847
0.000606769
0.000599119
0.000590902
0.000582112
0.000572733
0.00056274
0.000552622
0.000529906
0.000492977
0.000438596
0.000359454
0.000274614
0.000234573
0.000240829
0.000266838
0.000281494
0.000290564
0.000296323
0.000298656
0.00029909
0.000298632
0.000297379
0.000295673
0.000293755
0.000291611
0.000289329
0.000286955
0.000284491
0.000282
0.000279536
0.000277251
0.000274656
0.000269082
0.000231861
0.00019446
0.000128865
4.71742e-05
0.000179319
4.50534e-05
3.94374e-06
1e-15
1e-15
1e-15
1e-15
1e-15
1e-15
1e-15
1e-15
1e-15
1e-15
1e-15
0.000682721
0.000843249
0.000800313
0.000731636
0.000714771
0.000699773
0.00068192
0.000675274
0.000668805
0.000662899
0.000658968
0.000656565
0.000654804
0.000653297
0.000651836
0.000650237
0.000648439
0.000646373
0.000643976
0.000641169
0.000637892
0.000634061
0.000629549
0.000624306
0.000618468
0.000612149
0.000605358
0.000598125
0.000590417
0.000582219
0.000573569
0.000564449
0.000554738
0.00054703
0.00054092
0.000531022
0.000508932
0.000472424
0.000404868
0.00086408
0.00082597
0.000830963
0.000833758
0.000829983
0.000824144
0.000817399
0.000810387
0.000803993
0.00079806
0.000792576
0.000787637
0.000782991
0.00077858
0.000774348
0.000770156
0.000765966
0.000761686
0.000757224
0.00075246
0.000748244
0.000719252
0.000662144
0.000576975
0.000484175
0.000420569
0.000184299
2.38606e-06
1.83389e-07
1e-15
1e-15
1e-15
1e-15
1e-15
1e-15
1e-15
1e-15
1e-15
1e-15
0.000865652
0.000562767
0.000239749
0.000180486
0.00016075
0.000146382
0.000174989
0.000185548
0.000187388
0.000186223
0.000184732
0.00018344
0.000182188
0.000180923
0.00017967
0.000178424
0.000177253
0.000176128
0.000175093
0.00017414
0.000173256
0.000172463
0.000171747
0.000171122
0.000170441
0.000169764
0.000168966
0.000168041
0.000166943
0.000165684
0.000164202
0.000162506
0.000160304
0.00015941
0.000173703
0.000196245
0.000219559
0.0002557
0.000268845
0.000679435
0.000642082
0.000620149
0.000606213
0.000593317
0.000581549
0.000572363
0.000564934
0.000558952
0.000554475
0.000551033
0.000548412
0.000546473
0.000545027
0.000543977
0.000543255
0.000542825
0.000542583
0.000542546
0.000542405
0.000548389
0.00056589
0.000576801
0.000570326
0.000543057
0.000496608
0.000366025
1.60282e-05
1.26937e-06
1e-15
1e-15
1e-15
1e-15
1e-15
1e-15
1e-15
1e-15
1e-15
1e-15
0.000248128
6.77859e-06
3.75343e-05
2.77338e-05
2.51288e-05
2.34426e-05
2.81234e-05
2.91943e-05
2.87758e-05
2.79607e-05
2.67066e-05
2.54728e-05
2.45239e-05
2.36157e-05
2.29281e-05
2.25526e-05
2.23702e-05
2.24354e-05
2.27308e-05
2.32253e-05
2.3881e-05
2.46919e-05
2.56454e-05
2.65774e-05
2.727e-05
2.78529e-05
2.84236e-05
2.89706e-05
2.9483e-05
2.99545e-05
3.03681e-05
3.07197e-05
3.09511e-05
3.1411e-05
3.49026e-05
4.01818e-05
4.66627e-05
2.00638e-05
8.34211e-05
8.43642e-05
0.000119477
9.4081e-05
8.19117e-05
7.51899e-05
7.06573e-05
6.72709e-05
6.51676e-05
6.38802e-05
6.32928e-05
6.33256e-05
6.38264e-05
6.47448e-05
6.60987e-05
6.78186e-05
6.99878e-05
7.26131e-05
7.57628e-05
7.9463e-05
8.29938e-05
8.86164e-05
0.000118766
0.000172335
0.000232307
0.000290329
0.000325598
0.000350754
5.10956e-05
4.27958e-06
1e-15
1e-15
1e-15
1e-15
1e-15
1e-15
1e-15
1e-15
1e-15
1e-15
4.37358e-05
5.77559e-06
2.25872e-05
2.51237e-05
2.71126e-05
2.86471e-05
2.70573e-05
2.60993e-05
2.555e-05
2.33601e-05
2.13513e-05
2.0061e-05
1.91977e-05
1.84271e-05
1.78452e-05
1.75199e-05
1.7342e-05
1.73579e-05
1.75517e-05
1.78966e-05
1.83561e-05
1.89305e-05
1.95953e-05
2.02051e-05
2.05965e-05
2.08768e-05
2.11483e-05
2.1402e-05
2.16331e-05
2.18355e-05
2.20074e-05
2.21489e-05
2.22545e-05
2.23396e-05
2.14685e-05
1.87882e-05
1.44366e-05
1.43829e-05
2.25273e-05
1.18452e-05
1.69873e-05
1.42832e-05
1.19093e-05
1.1031e-05
1.0483e-05
9.77315e-06
9.40967e-06
9.16068e-06
8.94581e-06
8.90688e-06
8.94079e-06
9.048e-06
9.26956e-06
9.56209e-06
9.95133e-06
1.04343e-05
1.10202e-05
1.17115e-05
1.23965e-05
1.34061e-05
1.8161e-05
2.65998e-05
3.82293e-05
2.22669e-05
8.31571e-05
0.000177793
8.4735e-05
6.75656e-07
5.4002e-08
1e-15
1e-15
1e-15
1e-15
1e-15
1e-15
1e-15
1e-15
1e-15
3.19347e-05
3.49429e-05
0.000148135
0.00016471
0.000174806
0.000180374
0.000169899
0.000167647
0.000168474
0.000157888
0.00015038
0.000147723
0.000146498
0.000145802
0.000145276
0.000144769
0.000144243
0.000143653
0.000142978
0.000142194
0.000141294
0.000140255
0.000139049
0.000137717
0.00013633
0.000134898
0.000133395
0.000131815
0.000130148
0.000128394
0.000126543
0.000124616
0.000122611
0.0001206
0.000113628
9.75509e-05
7.35751e-05
5.08497e-05
2.35787e-05
6.65826e-05
4.189e-05
4.35088e-05
4.0937e-05
4.06601e-05
4.06476e-05
3.94924e-05
3.90288e-05
3.86116e-05
3.79174e-05
3.76065e-05
3.73134e-05
3.70667e-05
3.70246e-05
3.7024e-05
3.71156e-05
3.72565e-05
3.7431e-05
3.76118e-05
3.77729e-05
3.79025e-05
3.70206e-05
3.37105e-05
2.85884e-05
2.6632e-05
3.3817e-05
2.06664e-05
6.43637e-05
4.334e-06
3.77837e-07
1e-15
1e-15
1e-15
1e-15
1e-15
1e-15
1e-15
1e-15
1e-15
0.000204131
0.000375626
0.000410238
0.000405445
0.000406997
0.000407795
0.000406198
0.000403424
0.000403937
0.000396303
0.000389483
0.000389593
0.000388826
0.000387723
0.000386461
0.00038511
0.000383701
0.00038223
0.000380673
0.000379001
0.000377174
0.000375136
0.000372812
0.000370177
0.000367272
0.000364094
0.000360617
0.00035684
0.000352762
0.000348371
0.000343662
0.000338657
0.000333368
0.000328165
0.000311228
0.000294966
0.000279869
0.000244271
0.00019338
0.000315615
0.00029712
0.000288982
0.000284298
0.000280041
0.00027703
0.000275273
0.000274103
0.00027344
0.000273007
0.000272599
0.000272174
0.000271642
0.000270964
0.000270123
0.000269099
0.000267881
0.000266461
0.000264841
0.000263046
0.000261249
0.000253186
0.000229176
0.000193877
0.000155746
0.000123391
9.10745e-05
9.7977e-05
2.6502e-05
1.26868e-07
1.02441e-08
1e-15
1e-15
1e-15
1e-15
1e-15
1e-15
1e-15
1e-15
0.00049313
0.000392326
0.000302449
0.0002782
0.000267544
0.000263659
0.000261416
0.000259474
0.000257754
0.000261652
0.000262003
0.000261492
0.000260719
0.000259879
0.000259045
0.00025822
0.000257361
0.000256501
0.000255569
0.000254546
0.000253398
0.000252097
0.00025057
0.000248778
0.000246762
0.000244576
0.000242224
0.000239688
0.000236975
0.000234086
0.000231021
0.000227747
0.000224267
0.000221013
0.000220019
0.000221622
0.000224542
0.000223063
0.000204532
0.000471363
0.000429643
0.000416349
0.000406985
0.000399673
0.000394055
0.000390315
0.000387496
0.000385249
0.000383355
0.000381535
0.000379755
0.000377967
0.000376118
0.000374204
0.000372211
0.000370124
0.000367928
0.000365615
0.000363246
0.000361767
0.000360628
0.000351413
0.0003318
0.000303049
0.000265652
0.000213752
0.000182391
9.84533e-05
5.07023e-06
4.30883e-07
1e-15
1e-15
1e-15
1e-15
1e-15
1e-15
1e-15
1e-15
0.00029766
0.000116282
4.40398e-05
2.99744e-05
2.26533e-05
2.05139e-05
2.01371e-05
1.97276e-05
1.9258e-05
1.87991e-05
1.83159e-05
1.78507e-05
1.74043e-05
1.69861e-05
1.65991e-05
1.6244e-05
1.59165e-05
1.56153e-05
1.535e-05
1.51242e-05
1.4942e-05
1.48276e-05
1.47826e-05
1.48034e-05
1.4869e-05
1.4977e-05
1.51108e-05
1.52522e-05
1.53893e-05
1.55199e-05
1.56358e-05
1.57262e-05
1.56869e-05
1.54343e-05
1.79037e-05
2.94951e-05
4.93006e-05
7.64803e-05
9.82419e-05
0.000177496
0.000187449
0.000175217
0.00016753
0.000162732
0.000159399
0.000157212
0.000155543
0.000153968
0.000152482
0.000151009
0.000149602
0.000148287
0.000147082
0.000146009
0.000145085
0.00014433
0.000143742
0.000143336
0.000143081
0.000143479
0.000149311
0.000164992
0.000182476
0.000196696
0.000203038
0.000198578
0.000186409
0.000151931
2.47817e-05
5.57504e-08
4.55123e-09
1e-15
1e-15
1e-15
1e-15
1e-15
1e-15
1e-15
6.12898e-05
1.65548e-05
6.91074e-06
4.79185e-06
3.74763e-06
3.45838e-06
3.38401e-06
3.20217e-06
2.99568e-06
2.84089e-06
2.6468e-06
2.45443e-06
2.29458e-06
2.14195e-06
2.01556e-06
1.92609e-06
1.85837e-06
1.81948e-06
1.80783e-06
1.82196e-06
1.85804e-06
1.92005e-06
2.00812e-06
2.10281e-06
2.17813e-06
2.24861e-06
2.32598e-06
2.40751e-06
2.49127e-06
2.57613e-06
2.66032e-06
2.74161e-06
2.80108e-06
2.8218e-06
3.35009e-06
5.64682e-06
9.65188e-06
1.55136e-05
3.75535e-06
2.53785e-05
2.71111e-05
2.70402e-05
2.47167e-05
2.41942e-05
2.39339e-05
2.3059e-05
2.26197e-05
2.21774e-05
2.15653e-05
2.11773e-05
2.08107e-05
2.04869e-05
2.03093e-05
2.01816e-05
2.01395e-05
2.01638e-05
2.02465e-05
2.0372e-05
2.05251e-05
2.07526e-05
2.17113e-05
2.42896e-05
2.12141e-06
3.27019e-05
6.46383e-05
9.58701e-05
0.000115832
0.00013017
5.78437e-05
1.95298e-06
1.64233e-07
1e-15
1e-15
1e-15
1e-15
1e-15
1e-15
1e-15
6.41484e-06
2.19432e-05
2.56588e-05
5.79806e-07
8.72077e-07
7.03561e-07
5.81357e-07
3.44454e-07
4.23502e-08
2.34029e-05
2.21556e-05
2.0876e-05
1.9832e-05
1.8786e-05
1.79105e-05
1.73233e-05
1.68957e-05
1.67098e-05
1.67535e-05
1.70079e-05
1.74388e-05
1.8051e-05
1.88274e-05
1.95607e-05
1.99948e-05
2.02754e-05
2.05564e-05
2.08333e-05
2.11039e-05
2.1359e-05
2.15941e-05
2.18072e-05
2.19963e-05
2.21609e-05
2.22768e-05
2.1605e-05
1.98704e-05
1.68257e-05
1.39818e-05
1.75255e-05
9.85276e-06
1.06461e-05
1.05298e-05
1.0706e-05
1.0754e-05
1.04127e-05
1.02754e-05
1.01799e-05
1.00086e-05
9.94316e-06
9.87808e-06
9.81488e-06
9.8035e-06
9.79426e-06
9.80388e-06
9.82233e-06
9.84292e-06
9.85874e-06
9.86544e-06
9.83871e-06
9.71092e-06
8.55343e-06
7.12008e-06
1.01651e-05
1.27843e-05
1.85793e-05
2.61858e-05
5.65742e-05
6.08506e-05
9.20323e-06
9.26725e-07
1e-15
1e-15
1e-15
1e-15
1e-15
1e-15
1e-15
4.58683e-05
0.000155765
0.000164845
0.000168509
0.00016643
0.000163944
0.000162073
0.00016032
0.000158697
0.000157276
0.000156106
0.000155089
0.000154189
0.000153396
0.000152651
0.00015195
0.000151273
0.000150593
0.000149896
0.000149164
0.000148372
0.000147491
0.000146502
0.000145412
0.000144223
0.000142921
0.00014152
0.000140032
0.000138454
0.000136782
0.00013501
0.000133135
0.000131155
0.000129082
0.000126779
0.000120124
0.000107977
8.93044e-05
6.94273e-05
8.87032e-05
6.88748e-05
6.97413e-05
7.22224e-05
7.29036e-05
7.25474e-05
7.19894e-05
7.17186e-05
7.1819e-05
7.20202e-05
7.22651e-05
7.25015e-05
7.2661e-05
7.27438e-05
7.27414e-05
7.26434e-05
7.24477e-05
7.21556e-05
7.1772e-05
7.13124e-05
7.07136e-05
6.96233e-05
6.13522e-05
4.9155e-05
3.91204e-05
2.30157e-05
1.04489e-05
1.56833e-05
2.76088e-05
4.83785e-05
2.45192e-05
8.00188e-07
6.90998e-08
1e-15
1e-15
1e-15
1e-15
1e-15
1e-15
0.000233701
0.000245546
0.000228271
0.000220129
0.000219433
0.00021716
0.000214744
0.000212394
0.000210256
0.00020833
0.000206684
0.000205278
0.000204013
0.000202891
0.000201873
0.000200919
0.000200001
0.000199103