/*--------------------------------*- C++ -*----------------------------------*\
| =========                 |                                                 |
| \\      /  F ield         | OpenFOAM: The Open Source CFD Toolbox           |
|  \\    /   O peration     | Version:  2312                                  |
|   \\  /    A nd           | Website:  www.openfoam.com                      |
|    \\/     M anipulation  |                                                 |
\*---------------------------------------------------------------------------*/
FoamFile
{
    version     2.0;
    format      ascii;
    arch        "LSB;label=32;scalar=64";
    class       volScalarField;
    location    "350";
    object      turbulenceProperties:epsilon;
}
// * * * * * * * * * * * * * * * * * * * * * * * * * * * * * * * * * * * * * //

dimensions      [0 2 -3 0 0 0 0];

internalField   nonuniform List<scalar> 
10720
(
0.0480251
0.103749
0.155498
0.207142
0.249405
0.289036
0.337213
0.399294
0.492247
0.637285
0.867066
1.25069
1.92207
3.12372
5.50267
12.4083
31.3306
92.1105
324.477
766.44
1268.18
1847.47
2458.45
3470.04
6350.4
9027.5
11205.8
26136.6
45297.5
22136.2
6659.03
800.448
202.459
11.0123
5.99025e-14
0.147612
6.08672
247.425
452.553
0.0412506
0.0363718
0.0281919
0.116449
0.0205618
0.0244811
0.0372192
0.0520713
0.0611833
0.0746783
0.099044
0.142247
0.213281
0.349077
0.615988
1.45548
3.43469
15.0183
30.6454
43.0995
58.4949
83.7742
116.994
171.406
250.77
357.059
378.36
265.009
121.299
34.9614
4.56927
0.194587
0.0342629
0.0112066
0.00317224
0.000398109
5.49066e-06
69.2038
4829.16
0.0347399
0.0338578
0.027178
0.0214721
0.0157483
0.0114349
0.00866655
0.00683422
0.0056441
0.00482935
0.00425292
0.00380168
0.00367373
0.00428008
0.00597343
0.011363
0.0274136
0.0607132
0.212423
1.83514
10.6335
34.3073
86.2576
154.528
427.555
853.171
3716.47
16496.8
13649.1
3621
1311.78
678.496
173.922
11.7664
0.273938
0.0816878
3.76775
67.8762
173.311
0.00917622
0.000138474
0.000404541
0.000511876
0.0031055
0.00374837
0.00386908
0.00384068
0.00375805
0.00362664
0.00345146
0.00322034
0.00208138
0.00153905
0.00134287
0.00251118
0.00676395
0.00740177
1.74095e-05
1.63148
0.0292102
0.00615358
0.373883
0.579669
3.38116
0.623452
1.51098
0.375565
0.440881
0.316429
0.192512
0.0965814
0.039816
0.0139561
0.00421134
0.00100493
1.50178e-05
5.95115
482.563
0.00185201
0.0025907
0.00216585
0.00200724
0.00190193
0.00180288
0.00174435
0.00172274
0.00174161
0.00179934
0.00188505
0.0019913
0.00209922
0.00220769
0.00328814
0.00102619
0.010377
0.0253023
0.0662162
0.14871
0.0923508
1.47908
0.56907
0.258935
11.3243
9.2841
379.295
3425.76
5090.04
3582.23
1391.09
500.852
241.302
54.9005
5.5713
0.00191426
1.6261
23.8649
57.0788
0.00103875
0.000753698
0.00254662
0.00511196
0.00526086
0.00392015
0.00280448
0.00292984
0.00314705
0.00337267
0.00365523
0.00399865
0.00431692
0.00438616
0.0044062
0.00432162
0.00447925
0.00385974
0.00330088
0.00292758
0.00118175
0.00664608
0.000687667
0.00313943
0.0171509
0.00415215
0.00568315
0.00442321
0.00537848
0.00451602
0.00312158
0.0025284
0.00198019
0.0016701
0.00144782
0.00176394
9.28577e-16
0.0852334
20.0698
0.000836397
4.77017e-05
0.000241571
0.000265271
0.000356237
0.000434849
0.00050139
0.000573997
0.000662982
0.000726423
0.000774017
0.00082011
0.000873191
0.000952759
0.0010233
0.00103156
0.000926279
0.00038126
0.000621273
6.86285e-05
3.88277e-16
2.74909e-16
0.00192088
0.00187653
0.00809817
145630
259.498
1304.7
1068.71
774.032
466.811
198.853
34.7462
25.9608
8.72435
0.00376365
2.07494
0.774272
21.3521
0.00178388
0.00416716
0.00463414
0.00327378
0.00141202
7.17461e-05
0.000363801
0.00038383
3.02138e-06
0.000142026
0.000292647
0.000465962
0.000666812
0.000877523
0.00108527
0.00130398
0.00153639
0.00176432
0.00204228
0.00237404
0.00262216
0.00284108
0.00287126
0.00307094
0.00305315
0.00290275
0.00306472
0.00316189
0.00324815
0.00333545
0.00338642
0.00338896
0.00332727
0.00324124
0.00301877
0.00395664
6.73948e-05
0.0802943
1.29426
0.00339617
0.00339205
0.00347701
0.00356664
0.00365164
0.00374911
0.00383579
0.00391456
0.00412185
0.00415024
0.00403554
0.0040888
0.00414041
0.00419991
0.00427129
0.00433841
0.00433958
0.00416686
0.00341789
0.0003854
0.000890864
0.000410169
4.01223e-16
2.94333e-16
4.15408e-17
1.02376e-10
516057
1.75123e+06
1.32418e+06
1.04935e+06
1.57801e+06
3.56399e+06
2.5456
21.3315
2.13746
1.93594
6.29154
0.648872
10.8158
0.00481126
0.00373252
0.00130558
0.000566793
0.000269877
0.000207189
0.00020975
0.00020944
0.000209362
0.00022915
0.000250762
0.000276898
0.000312238
0.000351738
0.000389924
0.000432915
0.000497825
0.000541753
0.000581803
0.000655516
0.000716516
0.000772389
0.000787682
0.000834468
0.000835286
0.000806725
0.000839555
0.000855516
0.000864632
0.00087266
0.000873812
0.000858597
0.000824452
3.21713e-05
2.88684e-05
0.00105211
1.93376e-05
0.07402
0.330865
0.0041387
0.00366848
0.00352512
0.00342765
0.00336006
0.00331493
0.00328865
0.00327602
0.00328211
0.00332836
0.00338608
0.00346142
0.00355549
0.00367285
0.00377397
0.00396878
0.00432771
0.00456673
0.00471951
0.00491334
0.00474622
0.00225349
0.000792024
0.000510831
1.68193e-08
9.7018e-11
1.95433e-05
1.89918e-05
1.12607e-05
4.66799e-06
1.50643e-06
3.74539e-07
27395.1
101.817
5.91362
8.52209
14.3879
0.08532
0.0833925
0.00219662
0.000106297
0.000269811
0.0003462
0.000727261
0.00150334
0.0015539
0.00153338
0.00151049
0.00148442
0.00145762
0.0014266
0.00141121
0.00139797
0.0013627
0.00132957
0.0014034
0.00133743
0.00118416
0.00116664
0.00116094
0.00115378
0.00113001
0.00110342
0.00108248
0.00106315
0.00104186
0.00101879
0.000993727
0.000966125
0.00093191
0.000873906
0.000799982
0.000748209
0.000506455
0.00083947
1.67092e-05
0.0680198
2.41893
0.000966675
0.00117078
0.000936611
0.000806395
0.000717196
0.00064417
0.000585738
0.000544575
0.000521884
0.000519362
0.000537017
0.000576063
0.000636939
0.000721296
0.000834641
0.000986587
0.00116432
0.00142972
0.00188305
0.00247007
0.00306871
0.00348222
0.0034766
0.00273982
1.0155e-07
0.113977
8.62801e-06
1.42133e-05
1.23783e-05
7.03241e-06
2.99516e-06
1.06599e-06
3.80136e-07
1.50465e-07
15.8585
58.5974
334.949
2.67935e-09
4.10908
0.000382597
0.000299386
0.000800067
0.00205535
0.00270302
0.00288013
0.00292397
0.00294572
0.00297272
0.00300576
0.00304413
0.0030804
0.0031413
0.00321138
0.00323935
0.00327492
0.00333956
0.00342857
0.00349433
0.00352704
0.0035325
0.00352374
0.00350456
0.00347563
0.00344337
0.00340547
0.0033535
0.00329102
0.00321535
0.00312451
0.00302279
0.00289922
0.00272339
0.0024157
0.00222104
0.00219014
4.51831e-05
0.0443457
2.22449
0.00019998
0.000226922
0.000227843
0.000223382
0.00023203
0.000242803
0.00025031
0.000261216
0.000272997
0.00028563
0.000302401
0.000322463
0.000346106
0.000374787
0.000409425
0.000452228
0.000500238
0.00056832
3.82428e-05
0.000384376
0.000896456
0.00152293
0.00215747
0.00249809
0.0033179
0.275117
1600.34
9.21104e-06
1.10939e-05
8.33689e-06
4.51029e-06
2.04059e-06
9.40477e-07
5.15221e-07
3.31454e-07
1.5977e-07
5.90682e-08
2.59856e-08
6.7843e-09
2.10071e-05
0.00160981
0.00248137
0.00230356
0.00173574
0.0015283
0.00157079
0.00162158
0.00168418
0.00176062
0.0018497
0.00195176
0.00205818
0.00219036
0.00234677
0.00248915
0.00259394
0.00267473
0.00272276
0.00274439
0.0027476
0.00273836
0.00271843
0.0026945
0.00266895
0.00263645
0.00259548
0.00254744
0.00249037
0.00242421
0.00235034
0.00227659
0.00220161
0.0020932
0.0019879
0.00213209
4.585e-05
0.0238959
1.27179
0.000758885
0.000754582
0.000867122
0.00098349
0.0010933
0.00119827
0.00129892
0.00138731
0.00145992
0.00152174
0.00157806
0.00162908
0.00167542
0.0017201
0.00176546
0.00181216
0.00185336
0.0018963
0.0019943
0.00185621
0.00163166
0.00169538
0.00192299
0.00202393
0.00324944
0.291495
1654.45
5.42245e-06
8.69588e-06
8.41505e-06
5.66506e-06
3.11777e-06
1.70117e-06
1.04576e-06
7.24705e-07
4.26722e-07
1.97783e-07
9.84658e-08
3.52136e-08
0.00217206
0.0023378
0.00146664
0.000631223
5.38048e-05
0.000217012
0.00022281
2.09446e-05
5.33259e-05
9.46063e-05
0.000145054
0.000205032
0.000276579
0.000361008
0.000457363
0.000529405
0.000578346
0.000614164
0.000633596
0.00063739
0.000636035
0.000631679
0.000619574
0.00060584
0.000595773
0.000586304
0.000576018
0.00056553
0.000554755
0.000543507
0.000531085
0.000520827
0.000538221
0.000578238
0.000609116
0.000977033
2.20162e-05
0.00996814
0.5204
0.00227603
0.00203042
0.00203156
0.00204159
0.00204933
0.0020598
0.00209747
0.00213593
0.00215993
0.00219125
0.00223365
0.00227871
0.00232744
0.00238939
0.00246213
0.00253969
0.00260863
0.0027268
0.00286735
0.00285025
0.00272112
0.00259341
0.00254102
0.00233087
0.003043
0.272488
1529.78
2.9763e-06
6.16502e-06
7.50847e-06
6.19645e-06
4.06387e-06
2.54036e-06
1.70013e-06
1.23751e-06
8.20788e-07
4.37509e-07
2.4126e-07
1.20048e-07
0.00200767
0.000815622
0.000295277
9.50351e-05
5.11699e-05
4.84746e-05
4.94397e-05
5.20323e-05
5.59924e-05
6.13129e-05
6.74106e-05
7.49716e-05
8.48445e-05
9.71037e-05
0.000112162
0.000124918
0.0001349
0.000143451
0.000150038
0.00015434
0.00015799
0.000161405
0.000163448
0.000164824
0.000166317
0.000167501
0.000168074
0.000168196
0.000167821
0.000166904
0.000165302
0.000163729
0.000166008
0.000170728
0.000181839
0.000249366
1.88114e-05
0.00250395
0.125594
0.00136069
0.00127332
0.0011428
0.00103565
0.000951761
0.000883356
0.000851502
0.000836531
0.000809114
0.00080328
0.000824756
0.000850087
0.000882693
0.000943284
0.00102613
0.00111275
0.00121594
0.00135599
0.00156744
0.00181332
0.00200717
0.00212889
0.00224316
0.00216155
0.00271723
0.239449
1339.73
1.54355e-06
4.024e-06
6.05255e-06
6.04107e-06
4.66366e-06
3.29306e-06
2.37485e-06
1.79329e-06
1.27632e-06
7.48778e-07
4.47897e-07
2.74723e-07
0.000361837
0.000145057
9.66055e-05
8.69106e-05
0.000309302
0.000330467
0.000332043
0.000331046
0.000328462
0.000324922
0.000320351
0.000314742
0.000308649
0.00030255
0.000297443
0.000293289
0.000288993
0.000285617
0.000283028
0.000280193
0.000278105
0.000277444
0.00027661
0.000275464
0.000274662
0.000273254
0.000270666
0.000267209
0.000262723
0.000257185
0.000250646
0.00024319
0.00022737
0.000200929
0.000211576
0.00014101
8.16965e-05
0.000159336
0.0075662
4.95505e-05
0.000112462
0.000163971
0.00013259
0.000124205
0.000117748
0.000113256
0.000112367
0.000109871
0.000109958
0.000114673
0.00012024
0.000127198
0.000138937
0.00015461
0.000171658
0.000192111
0.000228577
8.68179e-05
0.000280099
0.000570703
0.000880687
0.00117972
0.00130975
0.00197228
0.176341
989.456
7.62163e-07
2.44988e-06
4.47385e-06
5.32945e-06
4.79469e-06
3.79639e-06
2.94115e-06
2.33064e-06
1.73851e-06
1.09876e-06
7.04884e-07
4.94265e-07
8.80195e-05
0.000184098
0.000623367
0.000962548
0.00104335
0.00104521
0.00104612
0.00105077
0.00105804
0.00106722
0.00107634
0.0010851
0.00109339
0.00110129
0.0011079
0.00111165
0.00111298
0.00111224
0.00110996
0.00110642
0.00110199
0.00109709
0.00109111
0.00108287
0.00107182
0.00105815
0.00104188
0.00102332
0.00100185
0.000977981
0.000951251
0.000922408
0.000888132
0.000838086
0.000776133
0.000686396
0.000620418
0.000140806
0.00170905
0.000120713
9.28488e-05
9.36871e-05
9.86682e-05
0.000106527
0.00011366
0.000117531
0.000122883
0.000128238
0.000132742
0.00013805
0.000143329
0.00014868
0.000154554
0.000160656
0.000167066
5.76507e-07
1.66306e-05
2.67408e-05
2.94148e-05
9.23805e-05
0.00024172
0.000466904
0.000605843
0.00121338
0.113868
644.636
3.59932e-07
1.40308e-06
3.06496e-06
4.30255e-06
4.46742e-06
3.94546e-06
3.28287e-06
2.71325e-06
2.12909e-06
1.45211e-06
9.99756e-07
7.64732e-07
0.000308699
0.000886979
0.00107234
0.00090967
0.00085407
0.000846054
0.000843223
0.000845722
0.000852366
0.00086186
0.000871098
0.00088031
0.000889362
0.000897029
0.000902877
0.000906947
0.000909275
0.000909876
0.000908893
0.000906605
0.000902985
0.000897617
0.000890283
0.000880973
0.000869802
0.000857133
0.000843029
0.000827676
0.000810599
0.00079189
0.000771694
0.000750855
0.000733094
0.000714534
0.000690898
0.000656993
0.000624529
0.000546084
6.39455e-05
0.000596202
0.000608879
0.000675473
0.000733507
0.000778134
0.000813847
0.000846706
0.000879177
0.000910611
0.000939505
0.000965825
0.000989474
0.00101041
0.00102868
0.00104465
0.00105806
0.00106888
0.0010787
0.0010858
0.00105683
0.00102192
0.000898492
0.00078633
0.000722865
0.00100625
0.0888888
0.000819322
0.000527088
7.60162e-07
1.96133e-06
3.2069e-06
3.80701e-06
3.73191e-06
3.33497e-06
2.8739e-06
2.37346e-06
1.75284e-06
1.10535e-06
8.80972e-07
0.00103739
0.000895924
0.000491881
0.000240567
0.000195468
0.00019032
0.000188221
0.000186324
0.000186236
0.000187776
0.000190326
0.000193431
0.000196784
0.000200207
0.000203452
0.000206393
0.000208858
0.000210751
0.000212025
0.000212624
0.000212411
0.000211453
0.000209875
0.000207948
0.000205838
0.00020355
0.000201083
0.000198466
0.000195636
0.000192577
0.000189407
0.000185667
0.000183122
0.000194344
0.000212121
0.000232963
0.000260236
0.000309614
0.00019565
0.000992263
0.000912121
0.000910257
0.000919959
0.000927538
0.000926889
0.000934581
0.000948352
0.00096474
0.000982382
0.00100059
0.00101919
0.00103802
0.00105766
0.00107969
0.00110275
0.00112418
0.00114519
0.00116538
0.00120186
0.00122225
0.00115892
0.00106949
0.000961179
0.0010286
0.0684002
0.0286859
0.0229774
3.91046e-07
1.17899e-06
2.22237e-06
2.99011e-06
3.23769e-06
3.10575e-06
2.79908e-06
2.42237e-06
1.51787e-06
1.29954e-07
7.48605e-09
0.000679231
0.000209382
9.3564e-05
3.36416e-05
2.79296e-05
2.79595e-05
2.78925e-05
2.72493e-05
2.68571e-05
2.67845e-05
2.66348e-05
2.6626e-05
2.69137e-05
2.73127e-05
2.78856e-05
2.8671e-05
2.95418e-05
3.05012e-05
3.15033e-05
3.25017e-05
3.34503e-05
3.4338e-05
3.51527e-05
3.58471e-05
3.63705e-05
3.67725e-05
3.71057e-05
3.73699e-05
3.75536e-05
3.76453e-05
3.767e-05
3.75261e-05
3.75794e-05
4.04638e-05
4.4775e-05
4.98176e-05
5.72734e-05
3.39844e-05
7.37347e-05
0.000414872
0.000398111
0.000333798
0.000296859
0.000274513
0.000272211
0.000281344
0.000293209
0.000303352
0.000313234
0.000323761
0.000335708
0.000349553
0.000365835
0.000385278
0.000406895
0.000429316
0.000451731
0.000487388
0.000552079
0.000640073
0.000719001
0.00077367
0.000785629
0.000842031
0.0358792
0.0482234
0.0475755
1.91435e-07
6.68394e-07
1.43987e-06
2.17876e-06
2.59342e-06
2.66777e-06
2.52068e-06
2.24304e-06
1.95878e-08
1.15766e-13
2.26463e-15
2.72176e-05
2.98836e-05
2.85957e-05
4.03824e-05
4.23768e-05
4.39831e-05
4.44203e-05
4.37657e-05
4.30264e-05
4.24528e-05
4.14655e-05
4.0556e-05
4.00494e-05
3.96788e-05
3.9588e-05
3.98732e-05
4.03467e-05
4.10656e-05
4.19546e-05
4.29799e-05
4.40718e-05
4.52045e-05
4.63491e-05
4.7339e-05
4.80174e-05
4.84746e-05
4.88083e-05
4.90139e-05
4.90613e-05
4.89235e-05
4.86396e-05
4.81708e-05
4.75847e-05
4.59823e-05
4.27599e-05
3.78315e-05
3.17493e-05
3.33035e-05
3.52033e-05
5.27297e-05
5.15998e-05
4.63464e-05
3.98407e-05
3.74016e-05
3.77504e-05
3.86369e-05
4.03902e-05
4.1888e-05
4.31222e-05
4.48014e-05
4.67554e-05
4.91106e-05
5.21043e-05
5.57234e-05
5.98927e-05
6.43865e-05
6.90784e-05
7.60018e-05
8.91401e-05
1.60078e-05
0.000111264
0.000232232
0.000344906
0.000439141
0.0113005
0.0455327
0.0548125
8.92972e-08
3.58325e-07
8.75804e-07
1.48075e-06
1.92956e-06
2.12558e-06
2.10801e-06
8.08528e-07
4.38083e-13
2.07804e-15
5.3672e-16
1.74064e-05
6.89901e-05
0.000194813
0.000274196
0.000282209
0.000285161
0.000285768
0.000285627
0.000285169
0.000284708
0.000284331
0.000283865
0.000283288
0.000282632
0.000281867
0.000281001
0.000280021
0.0002789
0.000277626
0.000276184
0.000274527
0.000272596
0.000270362
0.000267757
0.000264713
0.000261271
0.000257436
0.000253233
0.000248561
0.000243315
0.00023768
0.000231571
0.00022528
0.000214627
0.000196965
0.000172128
0.000142761
0.000115153
8.34654e-05
4.47477e-05
3.43293e-05
4.18555e-05
4.35553e-05
4.65209e-05
4.76649e-05
4.76291e-05
4.81203e-05
4.84592e-05
4.83555e-05
4.85703e-05
4.87645e-05
4.90039e-05
4.94424e-05
5.04585e-05
5.13743e-05
5.22176e-05
5.30365e-05
5.38555e-05
5.45251e-05
5.46646e-05
6.48079e-05
8.31046e-05
4.50334e-05
0.000117766
0.00237151
0.0295237
0.0430199
3.97121e-08
1.81966e-07
5.01648e-07
9.42692e-07
1.34039e-06
1.57953e-06
1.64536e-06
9.63951e-07
3.11673e-12
2.56139e-15
3.32659e-15
0.000106593
0.000362642
0.000467038
0.000455643
0.000449482
0.000447253
0.000444181
0.000440999
0.00043823
0.000436056
0.000434485
0.000433227
0.000432104
0.000431052
0.000429988
0.000428845
0.000427562
0.000426065
0.000424306
0.000422246
0.000419808
0.000416893
0.000413448
0.000409373
0.000404592
0.000399208
0.000393241
0.000386724
0.000379561
0.000371589
0.000362934
0.000353702
0.000344682
0.000334315
0.000319483
0.000298561
0.000274082
0.000239325
0.000195395
0.000240731
0.00025436
0.000289437
0.000312664
0.000329424
0.000332102
0.00033598
0.000338692
0.000340226
0.000340751
0.000340602
0.000340026
0.000339097
0.000337937
0.000340055
0.0003405
0.000339818
0.000338455
0.000336834
0.000334206
0.000313005
0.000274758
0.000237355
0.000197847
0.000153919
0.000828784
0.0277146
0.0485438
1.68405e-08
8.76412e-08
2.71225e-07
5.64151e-07
8.73225e-07
1.10032e-06
1.20588e-06
8.92602e-07
1.38949e-11
4.60168e-13
8.67566e-16
0.000480301
0.000447907
0.000298639
0.000227291
0.000217423
0.000214054
0.000211518
0.000208808
0.000206528
0.000204843
0.000203763
0.000203102
0.000202674
0.000202381
0.000202138
0.000201874
0.000201536
0.000201068
0.000200427
0.000199587
0.000198513
0.000197155
0.000195513
0.000193588
0.000191379
0.000188932
0.000186256
0.000183364
0.000180232
0.000176782
0.000173033
0.000169032
0.000165236
0.000163854
0.000165863
0.000169324
0.000173735
0.000174576
0.000166422
0.00048656
0.000452014
0.000456086
0.00045937
0.000459504
0.000457885
0.000455484
0.000452482
0.000449518
0.000446942
0.000444839
0.000443209
0.000441938
0.000441064
0.000440626
0.00044016
0.000439322
0.000438378
0.000437635
0.000438855
0.000435219
0.000420631
0.000390019
0.00034319
0.000278692
0.00052525
0.032732
0.068498
6.81091e-09
4.00703e-08
1.3869e-07
3.18309e-07
5.3557e-07
7.21859e-07
8.34085e-07
7.34649e-07
4.73437e-11
4.0328e-17
5.33024e-16
0.000366176
0.000162086
3.34233e-06
3.36575e-05
3.24729e-05
3.27881e-05
3.25745e-05
3.15919e-05
3.06417e-05
2.98871e-05
2.88879e-05
2.79943e-05
2.74255e-05
2.6964e-05
2.67339e-05
2.67982e-05
2.7031e-05
2.7456e-05
2.80343e-05
2.87326e-05
2.95004e-05
3.03173e-05
3.11561e-05
3.18881e-05
3.23874e-05
3.27412e-05
3.30294e-05
3.32463e-05
3.3385e-05
3.34237e-05
3.33574e-05
3.31968e-05
3.3022e-05
3.32927e-05
3.46508e-05
1.02006e-05
2.8575e-05
5.26893e-05
7.6884e-05
0.000245083
0.000232123
0.000210629
0.000198299
0.000188007
0.000179522
0.000173438
0.000169134
0.000166358
0.000164923
0.00016453
0.000165019
0.000166207
0.000168052
0.000170565
0.000173578
0.000176991
0.000180924
0.000185487
0.000191933
0.000207688
0.000231921
0.000250612
0.000265763
0.000256705
0.000349534
0.0295184
0.0734081
2.62779e-09
1.74093e-08
6.7194e-08
1.69783e-07
3.10326e-07
4.4779e-07
5.46969e-07
5.43266e-07
1.29926e-10
2.97302e-15
1.47916e-15
4.94776e-05
2.73012e-05
4.9162e-07
2.30059e-06
2.54392e-06
2.84919e-06
3.15809e-06
3.20406e-06
3.1175e-06
3.00759e-06
2.8582e-06
2.71582e-06
2.6184e-06
2.53837e-06
2.48551e-06
2.46992e-06
2.47701e-06
2.50902e-06
2.5646e-06
2.63872e-06
2.72741e-06
2.8274e-06
2.93847e-06
3.04463e-06
3.12344e-06
3.18043e-06
3.22713e-06
3.26423e-06
3.2913e-06
3.30678e-06
3.30972e-06
3.30196e-06
3.27046e-06
3.15082e-06
2.54563e-06
3.70094e-06
7.05304e-06
1.14897e-05
5.64715e-06
3.28048e-05
3.15221e-05
3.05769e-05
2.76564e-05
2.65072e-05
2.56487e-05
2.43743e-05
2.37306e-05
2.3302e-05
2.29186e-05
2.28874e-05
2.30039e-05
2.32563e-05
2.37223e-05
2.43342e-05
2.50921e-05
2.59733e-05
2.69883e-05
2.81454e-05
2.96314e-05
3.34253e-05
9.00753e-06
4.56086e-05
8.90309e-05
0.000119993
0.000201119
0.0197203
0.0579991
9.67486e-10
7.19421e-09
3.08991e-08
8.58298e-08
1.70416e-07
2.63655e-07
3.415e-07
3.72149e-07
3.04385e-10
1.01834e-14
6.97361e-16
6.55288e-06
1.08984e-05
2.7096e-05
1.52414e-05
1.65473e-05
1.80737e-05
1.99433e-05
2.06357e-05
2.05222e-05
2.01823e-05
1.98105e-05
1.94555e-05
1.91923e-05
1.89974e-05
1.88367e-05
1.87276e-05
1.86596e-05
1.86176e-05
1.86044e-05
1.8613e-05
1.86328e-05
1.86499e-05
1.86644e-05
1.86712e-05
1.86301e-05
1.85193e-05
1.83548e-05
1.81472e-05
1.78993e-05
1.76102e-05
1.72774e-05
1.69092e-05
1.64433e-05
1.55684e-05
1.23716e-05
7.53679e-06
4.76806e-06
1.656e-05
1.38459e-05
8.38951e-06
8.7118e-06
1.02601e-05
1.03146e-05
1.07008e-05
1.0999e-05
1.08339e-05
1.07682e-05
1.06707e-05
1.04769e-05
1.03691e-05
1.02644e-05
1.01659e-05
1.01205e-05
1.00902e-05
1.00832e-05
1.00855e-05
1.0101e-05
1.0134e-05
1.01583e-05
1.00519e-05
1.01613e-05
1.46954e-05
1.93608e-05
2.75912e-05
7.4492e-05
0.00862066
0.0298589
3.40063e-10
2.83103e-09
1.35069e-08
4.12148e-08
8.89475e-08
1.47881e-07
2.03775e-07
2.40065e-07
6.29495e-10
1.10409e-13
4.05592e-15
3.29693e-05
7.9505e-05
0.000168875
0.000173372
0.00017302
0.000172678
0.000173835
0.000173691
0.000172204
0.000170419
0.000168844
0.000167504
0.000166347
0.000165301
0.000164303
0.000163337
0.000162375
0.000161388
0.000160365
0.000159283
0.000158106
0.000156778
0.00015526
0.000153526
0.000151539
0.000149317
0.0001469
0.000144296
0.000141509
0.00013852
0.000135295
0.000131832
0.000128184
0.000124518
0.000118046
0.000108481
9.52287e-05
7.68166e-05
5.84984e-05
6.09543e-05
6.24729e-05
6.88053e-05
7.21135e-05
7.40522e-05
7.51968e-05
7.55138e-05
7.53876e-05
7.5044e-05
7.44976e-05
7.38314e-05
7.30904e-05
7.22649e-05
7.13999e-05
7.0531e-05
6.96338e-05
6.86906e-05
6.77571e-05
6.69133e-05
6.59923e-05
6.43011e-05
5.51185e-05
4.60374e-05
3.04152e-05
1.11104e-05
4.23829e-05
0.00528598
0.0239396
1.14138e-10
1.06176e-09
5.61935e-09
1.88406e-08
4.42343e-08
7.92336e-08
1.16551e-07
1.47563e-07
1.17556e-09
6.31875e-13
2.41604e-14
0.0001752
0.000214952
0.000203867
0.000186037
0.000181484
0.000177431
0.000172571
0.000170444
0.0001683
0.000166266
0.000164704
0.000163512
0.000162482
0.000161524
0.000160595
0.000159651
0.000158676
0.00015765
0.000156561
0.000155385
0.000154091
0.000152625
0.000150936
0.000149002
0.000146833
0.000144478
0.000141967
0.000139306
0.000136498
0.000133531
0.000130379
0.000127027
0.000123495
0.000120425
0.0001177
0.000114123
0.000107909
9.86188e-05
8.41032e-05
0.000221555
0.000211512
0.000211446
0.000210754
0.000208757
0.000206467
0.000204072
0.000201679
0.000199423
0.000197243
0.000195139
0.000193112
0.000191094
0.000189128
0.000187253
0.000185376
0.000183405
0.000181419
0.000179507
0.000177511
0.000175481
0.000167716
0.000153686
0.000133444
0.000111681
9.69348e-05
0.00543263
0.00412004
0.00671069
3.79621e-10
2.22769e-09
8.20853e-09
2.10017e-08
4.06472e-08
6.40539e-08
8.70455e-08
2.00416e-09
2.98198e-12
1.19617e-13
0.000219274
0.000141522
6.02509e-05
4.53007e-05
4.0306e-05
3.66579e-05
4.37324e-05
4.62382e-05
4.65391e-05
4.60793e-05
4.55316e-05
4.50327e-05
4.45478e-05
4.40659e-05
4.35955e-05
4.31344e-05
4.26973e-05
4.22759e-05
4.188e-05
4.15061e-05
4.11459e-05
4.0795e-05
4.04431e-05
4.0091e-05
3.96993e-05
3.92864e-05
3.88309e-05
3.83309e-05
3.77791e-05
3.71785e-05
3.65063e-05
3.57602e-05
3.48832e-05
3.42929e-05
3.69269e-05
4.12015e-05
4.54773e-05
5.21624e-05
5.4511e-05
0.000172114
0.000162442
0.000155845
0.000151328
0.000147389
0.000143892
0.000141102
0.000138768
0.000136763
0.000135094
0.000133657
0.000132395
0.000131272
0.00013027
0.000129392
0.000128577
0.000127763
0.00012699
0.000126333
0.000125636
0.000126225
0.000129441
0.000131261
0.000129272
0.000122713
0.000111991
0.00264221
0.00753315
0.0142262
1.2952e-10
8.41918e-10
3.41317e-09
9.53078e-09
1.99863e-08
3.38791e-08
4.94616e-08
3.09961e-09
1.21746e-11
3.2414e-15
6.20866e-05
1.68308e-06
9.31564e-06
6.87783e-06
6.2265e-06
5.80037e-06
6.94151e-06
7.18165e-06
7.05101e-06
6.82225e-06
6.4873e-06
6.16001e-06
5.9047e-06
5.6621e-06
5.47514e-06
5.3646e-06
5.30101e-06
5.29638e-06
5.34577e-06
5.44107e-06
5.57215e-06
5.73582e-06
5.92748e-06
6.10829e-06
6.22777e-06
6.31656e-06
6.39817e-06
6.46968e-06
6.52893e-06
6.57475e-06
6.60191e-06
6.60868e-06
6.58265e-06
6.60237e-06
7.24827e-06
8.24043e-06
9.4412e-06
3.99955e-06
1.65155e-05
2.11224e-05
2.98648e-05
2.33522e-05
2.01948e-05
1.84454e-05
1.7259e-05
1.63635e-05
1.57848e-05
1.54022e-05
1.51864e-05
1.51184e-05
1.51602e-05
1.52984e-05
1.55377e-05
1.58618e-05
1.62833e-05
1.67954e-05
1.74194e-05
1.81693e-05
1.88691e-05
2.00133e-05
2.66418e-05
3.84408e-05
5.15899e-05
6.42552e-05
7.18852e-05
0.000637907
0.00625826
0.0140365
4.22046e-11
3.03637e-10
1.35492e-09
4.13729e-09
9.42893e-09
1.72524e-08
2.71248e-08
4.21603e-09
4.22717e-11
4.03548e-14
1.08104e-05
1.41642e-06
5.53862e-06
6.15731e-06
6.63829e-06
7.00089e-06
6.59232e-06
6.3336e-06
6.17216e-06
5.61566e-06
5.10696e-06
4.77452e-06
4.54726e-06
4.34495e-06
4.18975e-06
4.09655e-06
4.03872e-06
4.02625e-06
4.05469e-06
4.1171e-06
4.20415e-06
4.31455e-06
4.44151e-06
4.55165e-06
4.60833e-06
4.63658e-06
4.66025e-06
4.67711e-06
4.68625e-06
4.68669e-06
4.67716e-06
4.65723e-06
4.6252e-06
4.58721e-06
4.35443e-06
3.76275e-06
2.85246e-06
2.80074e-06
4.35423e-06
2.93014e-06
4.19335e-06
3.50026e-06
2.8983e-06
2.67025e-06
2.5253e-06
2.34302e-06
2.24491e-06
2.17423e-06
2.11185e-06
2.09133e-06
2.088e-06
2.10173e-06
2.14187e-06
2.198e-06
2.27491e-06
2.37065e-06
2.48788e-06
2.62819e-06
2.76499e-06
2.96926e-06
3.99347e-06
5.81325e-06
8.31425e-06
4.82446e-06
1.7969e-05
0.00010041
0.00259552
0.000620192
0.000709643
1.046e-10
5.14177e-10
1.71899e-09
4.26934e-09
8.46146e-09
1.43637e-08
4.78374e-09
1.18472e-10
2.56878e-13
7.79366e-06
8.46276e-06
3.58764e-05
3.98691e-05
4.22571e-05
4.34967e-05
4.08198e-05
4.00922e-05
4.00813e-05
3.73568e-05
3.53816e-05
3.45673e-05
3.41034e-05
3.37766e-05
3.3502e-05
3.32414e-05
3.29811e-05
3.27075e-05
3.24134e-05
3.20911e-05
3.17356e-05
3.13359e-05
3.08826e-05
3.03866e-05
2.98658e-05
2.93251e-05
2.87644e-05
2.81815e-05
2.75744e-05
2.69463e-05
2.62905e-05
2.56107e-05
2.49018e-05
2.41921e-05
2.25091e-05
1.90772e-05
1.41943e-05
9.66968e-06
4.44828e-06
1.62609e-05
1.02053e-05
1.052e-05
9.82573e-06
9.70191e-06
9.64584e-06
9.32127e-06
9.16236e-06
9.01383e-06
8.80124e-06
8.67951e-06
8.56365e-06
8.46024e-06
8.40511e-06
8.35986e-06
8.33228e-06
8.30974e-06
8.29231e-06
8.27889e-06
8.26054e-06
8.22845e-06
7.97608e-06
7.21504e-06
6.08625e-06
5.64624e-06
7.1485e-06
5.86224e-06
0.00047958
0.00106576
0.0014793
3.44701e-11
1.867e-10
6.84509e-10
1.85585e-09
3.99703e-09
7.34598e-09
4.37376e-09
2.568e-10
1.20656e-12
4.91584e-05
8.97846e-05
9.80428e-05
9.68188e-05
9.70143e-05
9.69102e-05
9.61161e-05
9.49596e-05
9.45337e-05
9.21889e-05
9.00532e-05
8.95522e-05
8.8884e-05
8.8176e-05
8.74684e-05
8.67678e-05
8.60683e-05
8.53582e-05
8.46232e-05
8.38508e-05
8.30228e-05
8.21127e-05
8.10946e-05
7.99692e-05
7.87542e-05
7.74575e-05
7.60867e-05
7.46382e-05
7.31085e-05
7.15057e-05
6.98159e-05
6.80457e-05
6.61845e-05
6.43328e-05
6.02357e-05
5.63453e-05
5.27325e-05
4.53665e-05
3.56076e-05
7.60453e-05
7.13974e-05
6.88958e-05
6.72435e-05
6.58052e-05
6.47034e-05
6.39164e-05
6.32807e-05
6.2759e-05
6.22876e-05
6.18269e-05
6.13699e-05
6.08995e-05
6.04073e-05
5.98816e-05
5.92925e-05
5.86211e-05
5.7893e-05
5.71458e-05
5.63699e-05
5.55638e-05
5.34245e-05
4.80203e-05
4.03906e-05
3.22992e-05
2.55063e-05
2.00907e-05
0.000181748
0.0016756
0.000141836
0.000111485
6.49675e-11
2.61523e-10
7.75611e-10
1.81942e-09
3.62974e-09
3.28496e-09
4.29101e-10
4.32087e-12
0.000117117
9.24711e-05
7.12468e-05
6.54515e-05
6.27993e-05
6.16686e-05
6.08502e-05
6.00516e-05
5.9283e-05
5.97922e-05
5.94877e-05
5.90069e-05
5.84937e-05
5.79918e-05
5.75165e-05
5.70616e-05
5.66089e-05
5.61578e-05
5.56872e-05
5.51879e-05
5.46473e-05
5.40506e-05
5.33759e-05
5.26197e-05
5.17984e-05
5.09294e-05
5.00206e-05
4.90654e-05
4.80613e-05
4.70148e-05
4.59172e-05
4.47651e-05
4.35518e-05
4.23707e-05
4.16332e-05
4.13799e-05
4.13453e-05
4.04796e-05
3.6771e-05
0.00011199
0.000101792
9.78181e-05
9.47953e-05
9.24282e-05
9.05338e-05
8.91193e-05
8.79505e-05
8.69158e-05
8.59602e-05
8.50254e-05
8.41084e-05
8.32061e-05
8.23089e-05
8.14028e-05
8.04499e-05
7.94241e-05
7.83562e-05
7.72946e-05
7.62415e-05
7.53463e-05
7.45005e-05
7.20676e-05
6.76284e-05
6.1464e-05
5.36849e-05
4.36442e-05
0.000102271
0.00154541
0.00155439
0.00142178
2.17219e-11
9.60715e-11
3.1204e-10
7.9908e-10
1.73433e-09
2.12203e-09
5.59983e-10
1.19852e-11
6.96812e-05
2.70003e-05
1.02144e-05
6.93991e-06
5.2306e-06
4.71816e-06
4.60751e-06
4.4862e-06
4.35071e-06
4.2184e-06
4.08249e-06
3.95348e-06
3.83169e-06
3.71879e-06
3.6152e-06
3.52039e-06
3.43279e-06
3.35155e-06
3.27829e-06
3.21342e-06
3.15736e-06
3.11453e-06
3.08461e-06
3.06677e-06
3.0568e-06
3.05425e-06
3.05584e-06
3.0575e-06
3.0563e-06
3.05212e-06
3.0427e-06
3.02609e-06
2.98212e-06
2.89601e-06
3.31504e-06
5.38736e-06
8.87839e-06
1.35709e-05
1.72559e-05
4.15663e-05
4.37684e-05
4.05453e-05
3.8405e-05
3.70196e-05
3.60121e-05
3.52897e-05
3.47025e-05
3.41408e-05
3.35988e-05
3.30601e-05
3.25382e-05
3.20437e-05
3.15823e-05
3.11531e-05
3.07462e-05
3.03561e-05
2.99926e-05
2.96772e-05
2.94013e-05
2.92517e-05
3.01891e-05
3.31088e-05
3.63818e-05
3.90103e-05
4.01087e-05
3.91866e-05
5.05934e-05
0.00058555
0.00200562
5.36745e-05
3.18191e-05
3.40123e-11
1.21111e-10
3.39143e-10
8.02228e-10
1.22973e-09
5.78866e-10
2.59677e-11
1.41331e-05
3.78329e-06
1.57678e-06
1.09101e-06
8.50742e-07
7.81856e-07
7.60889e-07
7.15397e-07
6.647e-07
6.25961e-07
5.79173e-07
5.33563e-07
4.9576e-07
4.60127e-07
4.30648e-07
4.09419e-07
3.93042e-07
3.82888e-07
3.78494e-07
3.79438e-07
3.84801e-07
3.95252e-07
4.10641e-07
4.26897e-07
4.38795e-07
4.49343e-07
4.60922e-07
4.72904e-07
4.84795e-07
4.96384e-07
5.07196e-07
5.16807e-07
5.21626e-07
5.18583e-07
6.07431e-07
1.00977e-06
1.70137e-06
2.6938e-06
6.44976e-07
5.85487e-06
6.23498e-06
6.15879e-06
5.57347e-06
5.41183e-06
5.31545e-06
5.08725e-06
4.95927e-06
4.83186e-06
4.66804e-06
4.5531e-06
4.44319e-06
4.34374e-06
4.27689e-06
4.22134e-06
4.18254e-06
4.15481e-06
4.13739e-06
4.12933e-06
4.12766e-06
4.14001e-06
4.29481e-06
4.76794e-06
4.13648e-07
6.34107e-06
1.24798e-05
1.84469e-05
2.39468e-05
0.00013282
0.00119579
0.000528907
0.000356712
1.16284e-11
4.54504e-11
1.39363e-10
3.5985e-10
6.58778e-10
4.88038e-10
4.4666e-11
1.45586e-06
4.9313e-06
5.75583e-06
1.29771e-07
1.94598e-07
1.56336e-07