/*--------------------------------*- C++ -*----------------------------------*\
| =========                 |                                                 |
| \\      /  F ield         | OpenFOAM: The Open Source CFD Toolbox           |
|  \\    /   O peration     | Version:  2312                                  |
|   \\  /    A nd           | Website:  www.openfoam.com                      |
|    \\/     M anipulation  |                                                 |
\*---------------------------------------------------------------------------*/
FoamFile
{
    version     2.0;
    format      ascii;
    arch        "LSB;label=32;scalar=64";
    class       volScalarField;
    location    "350";
    object      turbulenceProperties:L;
}
// * * * * * * * * * * * * * * * * * * * * * * * * * * * * * * * * * * * * * //

dimensions      [0 1 0 0 0 0 0];

internalField   nonuniform List<scalar> 
10720
(
0.0060295
0.00537004
0.00499537
0.00523011
0.0060232
0.00704808
0.00815589
0.00931783
0.0104196
0.0114733
0.0125632
0.0138797
0.0156651
0.0181178
0.021156
0.0253676
0.0272615
0.0245824
0.0187769
0.0179039
0.0213997
0.028911
0.0384569
0.0511376
0.0722997
0.0919099
0.259985
0.261815
0.0877027
0.0477965
0.0249065
0.00689373
0.00326376
0.000920439
8.53192e-11
0.000199712
0.00255408
0.0483751
0.183677
0.0110143
0.0267041
0.0360861
0.00627058
0.0140156
0.0108775
0.00964941
0.0091543
0.0086259
0.00854564
0.00873286
0.00919862
0.00994372
0.0111603
0.0116748
0.0115768
0.00862112
0.00666421
0.00593241
0.00614452
0.00711602
0.00873736
0.010368
0.0117413
0.0125001
0.0124639
0.0104457
0.00723534
0.00426807
0.00213337
0.000774233
0.000172125
8.23328e-05
5.58621e-05
3.59479e-05
1.55179e-05
2.19487e-06
0.00895912
0.0868643
0.0132207
0.0107551
0.0131234
0.0165892
0.0218334
0.0288819
0.0365797
0.0444262
0.0518656
0.0587537
0.0653864
0.0713714
0.0797248
0.096815
0.12673
0.189513
0.305751
0.509096
0.553651
0.237834
0.130934
0.108735
0.104893
0.089969
0.0945954
0.0808851
0.129238
0.105434
0.100202
0.177931
0.158174
0.0648958
0.0312954
0.0080867
0.000933616
0.000522786
0.00555312
0.0594199
0.157887
0.0274838
0.0552333
0.126058
0.00655191
0.0434095
0.0626798
0.0669429
0.0704461
0.0724242
0.0731209
0.074219
0.0759665
0.0664307
0.0640957
0.0711068
0.128037
0.353034
1.09963
60.9092
0.0139284
0.00178653
0.395646
0.302874
0.000871045
0.00303437
0.00151231
0.00323282
0.00189082
0.00199713
0.00198941
0.00148355
0.00103566
0.00067389
0.000421778
0.000251015
0.00013674
1.92206e-05
0.0144566
0.111943
0.0360819
0.0373079
0.035171
0.0346675
0.0341588
0.0333201
0.0324374
0.0316731
0.0311527
0.0308985
0.0308153
0.0308526
0.0308784
0.0309069
0.0368163
0.0200516
0.0621495
0.0947693
0.142645
0.244417
1.29924
0.229584
0.0924844
0.0390682
0.147406
0.104776
0.131949
0.0941914
0.0643092
0.062347
0.0762452
0.074137
0.0329676
0.0102941
0.00284126
6.30167e-05
0.00329914
0.030206
0.200752
0.0206821
0.0253202
0.0413326
0.0491934
0.0510505
0.0456057
0.0394752
0.040696
0.0418218
0.0423976
0.0428926
0.0434461
0.0436624
0.0425784
0.0412844
0.0395203
0.0388376
0.0347318
0.0308521
0.0278042
0.0168358
0.0378812
0.0115006
0.0230022
0.0611853
0.0312721
0.0338504
0.0245739
0.0226311
0.0208729
0.016905
0.0109001
0.00768934
0.00609104
0.00528232
0.0060053
2.69429e-09
0.257687
0.637831
0.0214899
0.00514415
0.0116955
0.012271
0.0142927
0.0158418
0.0170331
0.0182388
0.0195841
0.0204331
0.0209676
0.0214
0.021841
0.02251
0.0229519
0.0225981
0.0209327
0.013098
0.0162531
0.00520836
3.74288e-09
4.07571e-09
2.47722
0.501395
19.6874
6.54162e-07
2.6506e-10
1.13866e-09
4.15249e-09
2.56494e-08
7.28632e-07
0.000184239
0.022466
0.0238391
0.0117473
0.000298067
0.0107224
0.00987073
0.268967
0.0299501
0.0513903
0.0542108
0.045432
0.0298528
0.00669227
0.0149996
0.0153163
0.00134934
0.00917366
0.013034
0.0162443
0.0191462
0.0215832
0.0235267
0.0252113
0.0266779
0.0277835
0.0289474
0.0301233
0.0306568
0.0309804
0.0302567
0.030373
0.0293174
0.0275697
0.0273056
0.0267096
0.0260477
0.0254696
0.0250018
0.0244619
0.0236972
0.0228901
0.0216226
0.0244439
0.00349116
0.19339
6.49269
0.0466806
0.046622
0.047009
0.0473544
0.04772
0.0479476
0.0481007
0.0481657
0.0489344
0.0485669
0.0473212
0.0470105
0.0466261
0.046209
0.0457578
0.0451564
0.0441009
0.0420977
0.0370407
0.0120412
0.0176495
0.0118572
3.7083e-09
4.01454e-09
4.98891e-09
5.0755e-14
1.32025e-14
8.59287e-14
3.4657e-13
1.99436e-12
2.31271e-11
1.12194e-09
4.06874e-06
8.13972e-10
0.0246376
0.024492
0.0323465
0.0118841
0.173914
0.0547857
0.048099
0.0281059
0.0187617
0.0129242
0.0112544
0.0112242
0.0110931
0.0109551
0.011308
0.0116556
0.012051
0.0125726
0.0130885
0.0134928
0.0138918
0.0145222
0.0147282
0.0147944
0.0152761
0.0156109
0.01589
0.0157602
0.0159592
0.0157321
0.0152285
0.0153296
0.0153318
0.015359
0.0154213
0.0154747
0.0154551
0.0153333
0.00308962
0.00299937
0.0187156
0.00266467
0.175437
19.7299
0.0522416
0.0490278
0.0474519
0.0463328
0.04539
0.0446979
0.0442063
0.0437941
0.0434698
0.0433591
0.0432585
0.0431934
0.0431552
0.0431515
0.0429321
0.0430894
0.0439155
0.0439208
0.0433356
0.042739
0.0404169
0.0266995
0.0153414
0.012495
8.75745e-05
5.35581e-14
2.65879e-19
2.736e-19
4.61442e-19
1.11315e-18
3.44931e-18
1.38735e-17
4.15214e-11
1.90939e-11
1.71915e-11
4.62037e-10
3.7671e-08
1.83281e-08
3.31528e-07
0.0379754
0.00806398
0.0129855
0.0146558
0.0211072
0.0301576
0.0304364
0.02995
0.029383
0.0287399
0.0280524
0.0272963
0.0266661
0.0260302
0.0251646
0.0242916
0.0243331
0.023098
0.0211069
0.0204719
0.0200398
0.0196553
0.0191671
0.0186891
0.0182588
0.0178436
0.0174793
0.0171591
0.0169037
0.0167457
0.0166107
0.0163086
0.0158431
0.0155883
0.013027
0.0170098
0.00240464
0.147637
1.93902
0.0254255
0.0277145
0.0244783
0.0225042
0.0210608
0.0198704
0.0188564
0.0180739
0.0175618
0.0173564
0.0174514
0.0178387
0.0184782
0.019331
0.0203935
0.0216834
0.022971
0.0247571
0.0275383
0.0304167
0.0325458
0.0332822
0.0321227
0.0276749
0.000167916
3.37898e-09
6.02242e-19
3.65585e-19
4.19779e-19
7.38886e-19
1.73485e-18
4.87449e-18
1.36692e-17
3.45338e-17
7.18678e-13
7.63026e-12
1.85926e-10
1.93933e-15
8.21532e-10
0.015583
0.0136095
0.0225617
0.0358402
0.0409567
0.0421298
0.0422027
0.0419808
0.0416902
0.0413661
0.0410163
0.0406017
0.0402972
0.0399847
0.0393414
0.038669
0.0380773
0.0375157
0.0369463
0.0364019
0.0358577
0.0353298
0.0348034
0.0342461
0.0336355
0.033028
0.0325065
0.0320364
0.0316452
0.0313653
0.0311951
0.0310641
0.0307334
0.0296946
0.0292556
0.0299133
0.00438545
0.135483
1.17237
0.0116207
0.012236
0.0121967
0.0119943
0.0121897
0.0124444
0.0125879
0.0127886
0.0129745
0.0131423
0.0133667
0.0136218
0.0139048
0.014228
0.0145863
0.0149928
0.0153752
0.0159307
0.00400151
0.0122158
0.0178813
0.0224761
0.0258611
0.0269342
0.0302293
1.5859e-08
2.90601e-14
5.64122e-19
4.68381e-19
6.23273e-19
1.15207e-18
2.54639e-18
5.52502e-18
1.00853e-17
1.56768e-17
3.25227e-17
8.79687e-17
1.99963e-16
7.65909e-16
0.00366455
0.032413
0.0401077
0.0385329
0.033489
0.0313815
0.0316517
0.0318846
0.0321477
0.0324703
0.0328302
0.0332221
0.0335614
0.0340021
0.0344984
0.0347464
0.0345986
0.034195
0.0337955
0.0333856
0.032971
0.032548
0.0320938
0.0315693
0.0310163
0.0305097
0.0300686
0.0296811
0.0293765
0.0291582
0.0290231
0.0290215
0.0291143
0.0291223
0.0292019
0.0312582
0.004723
0.110255
0.836114
0.0226508
0.022568
0.0241356
0.0256386
0.0270447
0.0282813
0.0293445
0.0301591
0.0307019
0.0310512
0.0312815
0.0314017
0.0314161
0.0313352
0.0311625
0.0308969
0.0304791
0.0299698
0.0297457
0.0276219
0.0250048
0.0246453
0.0253664
0.0251821
0.0310201
5.45139e-08
1.08425e-13
9.58266e-19
5.97542e-19
6.17483e-19
9.17229e-19
1.66662e-18
3.05445e-18
4.96878e-18
7.17002e-18
1.21769e-17
2.6272e-17
5.27711e-17
1.47561e-16
0.0381729
0.0399297
0.031353
0.0206775
0.00605638
0.012151
0.0122542
0.00372866
0.00589415
0.00776578
0.00949529
0.0111291
0.0127221
0.0142796
0.0157593
0.016587
0.0169217
0.0170554
0.0170311
0.0168556
0.0166561
0.0164433
0.0161231
0.0157555
0.0154464
0.0151896
0.0149739
0.0148034
0.0146928
0.014637
0.0146257
0.0147053
0.0152332
0.0161747
0.0170606
0.0223129
0.00345563
0.0764633
0.549836
0.039934
0.0378328
0.0377726
0.037927
0.0380577
0.0381351
0.0383762
0.0385448
0.0385179
0.0385022
0.0385299
0.0385169
0.0384571
0.0383949
0.0382805
0.0380621
0.0376385
0.0374068
0.0371186
0.0358336
0.0339877
0.0321579
0.03081
0.028552
0.0316578
1.86141e-07
3.95988e-13
1.74584e-18
8.42844e-19
6.92039e-19
8.38569e-19
1.27862e-18
2.04544e-18
3.05633e-18
4.19888e-18
6.33069e-18
1.18767e-17
2.15375e-17
4.32841e-17
0.0378264
0.0240002
0.0144683
0.00827412
0.00608893
0.00592425
0.0059642
0.00608395
0.00626254
0.0064891
0.00672233
0.00699035
0.00731967
0.00769344
0.00810807
0.00837434
0.00851661
0.00863756
0.00871931
0.00875092
0.00877602
0.00879774
0.0087641
0.00870234
0.00866074
0.00863065
0.00861209
0.0086075
0.00862398
0.00865753
0.00870749
0.00879059
0.0090075
0.00934038
0.00988727
0.0119305
0.00337553
0.0406919
0.283365
0.0319074
0.0308746
0.0292924
0.0279939
0.0268984
0.0259313
0.0254239
0.0251265
0.0246087
0.0243816
0.0245224
0.024662
0.024838
0.025302
0.0259146
0.0264147
0.0269394
0.027658
0.0288815
0.0302871
0.0310389
0.0310743
0.0309644
0.0294338
0.031972
6.4605e-07
1.4579e-12
3.36637e-18
1.29129e-18
8.58506e-19
8.60138e-19
1.11418e-18
1.57791e-18
2.18799e-18
2.89756e-18
4.07121e-18
6.93951e-18
1.16012e-17
1.89142e-17
0.0164844
0.0103997
0.00859687
0.00821808
0.0155564
0.016098
0.0161137
0.0160196
0.0158446
0.0156073
0.0153101
0.0149627
0.0145849
0.0141888
0.0138034
0.0134472
0.0131493
0.0129171
0.012734
0.0125655
0.0124248
0.0123072
0.0121709
0.0120349
0.0119323
0.0118448
0.0117665
0.0116976
0.0116444
0.0115977
0.011567
0.0115435
0.0113374
0.0108711
0.0114113
0.00956948
0.00748109
0.0109049
0.0733753
0.00630054
0.00947967
0.0115044
0.0103932
0.010091
0.00984074
0.00964875
0.00959575
0.0094587
0.00941264
0.00953889
0.00967041
0.00982448
0.0101126
0.010471
0.0107992
0.0111557
0.0118849
0.0071673
0.0126065
0.0176005
0.0213703
0.0241082
0.0246595
0.0293243
2.1506e-06
5.11062e-12
6.81764e-18
2.12098e-18
1.16145e-18
9.74989e-19
1.08373e-18
1.36871e-18
1.76671e-18
2.22949e-18
2.98885e-18
4.72913e-18
7.37164e-18
1.05129e-17
0.00836566
0.0122273
0.0227793
0.0284637
0.0297366
0.0298015
0.0297648
0.0296842
0.0295576
0.0293854
0.0291505
0.0288654
0.0285367
0.02818
0.0278283
0.0275295
0.0272666
0.027027
0.0268013
0.0265767
0.0263381
0.0260776
0.0258092
0.0255539
0.025323
0.0251133
0.0249257
0.024753
0.0246101
0.0244848
0.0243892
0.0243102
0.0241933
0.0239213
0.0234906
0.0226276
0.0220309
0.0109241
0.0369192
0.0101212
0.00886181
0.00895325
0.00923165
0.00962607
0.00996369
0.0101371
0.0103534
0.0105398
0.0106574
0.0107741
0.0108598
0.0109208
0.0109695
0.0109913
0.0110027
0.000635563
0.00335896
0.00418706
0.0043186
0.00753293
0.0119791
0.0163055
0.0180951
0.0248591
7.02951e-06
1.74687e-11
1.44365e-17
3.70339e-18
1.69534e-18
1.20769e-18
1.16312e-18
1.317e-18
1.58281e-18
1.91511e-18
2.44055e-18
3.57833e-18
5.19742e-18
6.79473e-18
0.016221
0.0280004
0.0308761
0.0285129
0.0277272
0.027619
0.0274957
0.0273736
0.0272564
0.0271339
0.0269765
0.0268035
0.0266154
0.0264478
0.0263013
0.026163
0.0260259
0.0258851
0.0257322
0.0255568
0.0253594
0.0251526
0.0249454
0.0247477
0.024568
0.0243999
0.0242441
0.0240969
0.0239738
0.0238735
0.0237956
0.0237423
0.0237662
0.0238431
0.0238784
0.0237962
0.023707
0.0230033
0.00759622
0.0230702
0.0232943
0.0246743
0.0258537
0.0267411
0.0274284
0.0280176
0.0285325
0.0289436
0.0292287
0.0294017
0.0294832
0.0294874
0.0294367
0.0293388
0.029217
0.0290738
0.0288873
0.0286283
0.0279114
0.0271143
0.0250605
0.0230076
0.0215248
0.0246683
2.65056e-05
8.67326e-14
1.81246e-15
6.83558e-18
2.64931e-18
1.6203e-18
1.36489e-18
1.39236e-18
1.55808e-18
1.80805e-18
2.18927e-18
2.96442e-18
4.70093e-18
5.89821e-18
0.0307912
0.028996
0.0214066
0.0150053
0.0135843
0.0134319
0.0133401
0.0132204
0.0131429
0.0131059
0.0131034
0.013125
0.0131607
0.0132038
0.0132457
0.0132805
0.0133025
0.0133096
0.0132935
0.0132552
0.0132016
0.0131351
0.0130582
0.0129842
0.0129229
0.012869
0.012823
0.0127833
0.0127596
0.0127558
0.0127639
0.0127769
0.0128448
0.0134307
0.0142697
0.0152551
0.0164495
0.018561
0.0142099
0.0307171
0.0295796
0.0297609
0.0301139
0.0303735
0.0304646
0.030649
0.0308622
0.0310458
0.0311916
0.031306
0.0314159
0.0315398
0.0316688
0.0317967
0.0319326
0.0320557
0.0321412
0.0321617
0.0323947
0.0323781
0.031146
0.029409
0.0272382
0.0273889
0.00010403
2.35605e-12
4.17123e-14
1.32878e-17
4.40728e-18
2.33812e-18
1.73778e-18
1.60489e-18
1.67307e-18
1.85638e-18
2.14507e-18
3.42331e-18
3.99847e-17
6.94111e-16
0.0257892
0.0143983
0.00961127
0.00580245
0.00531575
0.00533529
0.0053306
0.00526135
0.00521107
0.00518858
0.00515695
0.00513907
0.00515093
0.00517433
0.00521444
0.00527289
0.00533739
0.00540884
0.00548288
0.00555482
0.00562184
0.00568442
0.00574246
0.00579511
0.00584149
0.00588401
0.00592723
0.00597018
0.00601681
0.00606983
0.00612494
0.00618042
0.00625921
0.00658839
0.00704244
0.00756992
0.00827542
0.00657786
0.00935643
0.020719
0.0204562
0.0188707
0.0179052
0.0172837
0.0172601
0.0175614
0.0178963
0.0181489
0.0183833
0.0186329
0.0189285
0.0192845
0.0196957
0.0201577
0.0206542
0.0211578
0.0216219
0.0223398
0.0236472
0.0253257
0.0266273
0.0272646
0.0269497
0.027212
0.000352031
1.46585e-11
2.22162e-13
2.71431e-17
7.77408e-18
3.60877e-18
2.38492e-18
2.00359e-18
1.94775e-18
2.0614e-18
2.31657e-18
2.65276e-16
4.45004e-11
1.59165e-09
0.00536927
0.0056405
0.00553245
0.00663085
0.00682522
0.00696459
0.00699677
0.00693865
0.00687232
0.00681764
0.00672884
0.00664627
0.00659735
0.00656027
0.00654616
0.0065623
0.00659272
0.00664172
0.00670262
0.0067725
0.00684708
0.00692589
0.00700747
0.00708248
0.00714311
0.00719424
0.00724339
0.00728904
0.00733447
0.00738236
0.00742641
0.00747286
0.00751723
0.00749462
0.00734173
0.007034
0.0065699
0.00693202
0.00692464
0.00769724
0.00764977
0.00729183
0.00679634
0.00660544
0.00664494
0.00671942
0.00685857
0.00697453
0.0070728
0.00721073
0.00737275
0.0075662
0.00779944
0.0080606
0.00834802
0.00864965
0.00894581
0.00935613
0.0101022
0.00427079
0.0112148
0.0160754
0.0193285
0.0213973
0.000949444
7.16795e-11
9.37761e-13
5.81894e-17
1.45012e-17
5.93301e-18
3.50914e-18
2.69292e-18
2.44458e-18
2.46496e-18
6.42668e-18
1.18341e-11
1.68814e-09
3.38133e-09
0.00445144
0.00889954
0.0150193
0.017921
0.0182261
0.0183303
0.0183476
0.0183448
0.0183348
0.0183227
0.0183117
0.0182985
0.0182829
0.0182647
0.0182412
0.0182112
0.0181754
0.0181337
0.0180858
0.0180317
0.0179729
0.0179112
0.0178463
0.0177817
0.0177226
0.0176648
0.0176075
0.0175491
0.0174964
0.0174574
0.0174192
0.0173902
0.0173621
0.0171841
0.0167168
0.0159097
0.014771
0.0136478
0.0113652
0.0072916
0.00639571
0.0071045
0.0072889
0.00755806
0.0076624
0.00766466
0.00770924
0.0077493
0.00776149
0.00780189
0.00784111
0.00788308
0.00793392
0.00801868
0.00809226
0.00816498
0.00823153
0.00828796
0.00833253
0.00834364
0.00907436
0.010234
0.00747002
0.0119226
0.00205139
3.056e-10
3.47551e-12
1.30845e-16
2.85557e-17
1.03582e-17
5.51203e-18
3.87659e-18
3.28969e-18
3.15807e-18
5.39047e-18
1.66665e-12
1.45902e-09
1.20098e-09
0.0113045
0.0210446
0.0239867
0.0237752
0.0236599
0.0236316
0.0235829
0.0235392
0.0235069
0.0234829
0.023469
0.0234611
0.0234554
0.0234498
0.0234409
0.0234268
0.023408
0.0233842
0.0233546
0.0233176
0.023274
0.0232249
0.0231683
0.0231069
0.0230478
0.0229883
0.0229277
0.0228654
0.0228084
0.0227675
0.0227368
0.0227154
0.0227068
0.0226761
0.0225054
0.0221377
0.0216161
0.0207475
0.0184407
0.0172437
0.0177486
0.0190737
0.0199582
0.0205733
0.0207232
0.0209109
0.0210739
0.0212185
0.021339
0.0214296
0.021495
0.0215388
0.0215539
0.0216439
0.0216795
0.0217015
0.0216997
0.0216689
0.0216085
0.020959
0.0196585
0.0182472
0.016581
0.014504
0.00498127
1.65437e-09
1.64532e-11
3.08551e-16
5.92889e-17
1.91581e-17
9.21056e-18
5.95053e-18
4.7224e-18
4.30902e-18
5.82136e-18
3.73934e-13
1.12674e-11
2.78231e-09
0.0245327
0.0240145
0.0196747
0.0172164
0.0168824
0.016797
0.0167481
0.0166948
0.0166547
0.0166301
0.0166234
0.0166304
0.0166442
0.0166614
0.0166782
0.0166925
0.016704
0.0167116
0.016714
0.0167097
0.0166986
0.016681
0.0166563
0.0166274
0.0166009
0.0165746
0.0165484
0.0165235
0.0165031
0.0164951
0.016501
0.0165141
0.0165438
0.0167113
0.0170726
0.0175504
0.0181157
0.0186283
0.0179778
0.024965
0.0241314
0.024448
0.0247247
0.0248651
0.0249541
0.0250312
0.025098
0.0251692
0.0252401
0.0253004
0.0253539
0.0254061
0.0254501
0.0254801
0.025515
0.0255726
0.0256315
0.0256753
0.0257829
0.0257833
0.0254245
0.0245025
0.022941
0.0205772
0.0115729
1.06256e-08
9.28747e-11
7.62915e-16
1.29676e-16
3.74661e-17
1.63243e-17
9.70209e-18
7.19829e-18
6.22976e-18
7.07297e-18
1.09752e-13
4.99473e-09
3.38948e-09
0.0219333
0.0148078
0.00213029
0.0067817
0.00668498
0.00674352
0.00674909
0.00667439
0.00659925
0.00654034
0.0064504
0.0063686
0.00632105
0.00628408
0.00627268
0.00629507
0.0063373
0.00640251
0.00648592
0.00658331
0.00668923
0.00680238
0.00691972
0.00702834
0.00711758
0.0071962
0.00727282
0.00734782
0.00742187
0.00749793
0.00757757
0.00765713
0.00774265
0.00788972
0.00817637
0.00451452
0.00770185
0.0107208
0.0128601
0.0180939
0.0176846
0.0169969
0.0166303
0.0163025
0.0160411
0.0158782
0.0157846
0.0157516
0.0157685
0.0158194
0.0159037
0.0160199
0.0161618
0.0163245
0.0165176
0.0167528
0.0170176
0.0172982
0.017669
0.0184831
0.0196228
0.0204526
0.0210699
0.0206695
0.0173477
6.31896e-08
4.87476e-10
1.97738e-15
2.9847e-16
7.73306e-17
3.06047e-17
1.67442e-17
1.1604e-17
9.4999e-18
9.56466e-18
3.99927e-14
1.30786e-09
2.09593e-09
0.00827258
0.00622608
0.000836093
0.00181504
0.00191638
0.00203654
0.00215325
0.00217844
0.0021581
0.00212833
0.00208285
0.00203795
0.00200834
0.00198437
0.00197025
0.00197046
0.00197961
0.00199875
0.00202725
0.00206294
0.00210433
0.00215045
0.00220124
0.00225103
0.00229263
0.00232802
0.00236137
0.0023933
0.002424
0.00245437
0.00248511
0.00251546
0.00253961
0.002531
0.00231205
0.0028378
0.00399468
0.00522458
0.00365346
0.00677949
0.00667563
0.00663303
0.00636473
0.00627851
0.00622228
0.0061084
0.0060642
0.00604205
0.00602086
0.00604163
0.00608109
0.00614036
0.00622771
0.00633129
0.0064562
0.0066051
0.00677207
0.00695025
0.00716836
0.0076642
0.00400235
0.0090435
0.0126632
0.0147064
0.0171859
3.43129e-07
2.3456e-09
5.37077e-15
7.22268e-16
1.68165e-16
6.05402e-17
3.04909e-17
1.97081e-17
1.52157e-17
1.39626e-17
1.70709e-14
4.64629e-10
3.06131e-09
0.00309008
0.00402904
0.00635563
0.00478407
0.00500403
0.00524864
0.00553437
0.00565324
0.00566223
0.00563962
0.00561194
0.00558592
0.00557228
0.00556785
0.00556755
0.00557398
0.00558592
0.00560136
0.00562074
0.00564313
0.00566776
0.00569407
0.00572287
0.00575425
0.00578404
0.00580779
0.00582689
0.00584353
0.00585822
0.00587296
0.00588984
0.00590823
0.00591447
0.00584657
0.00529937
0.00421185
0.00341723
0.00652395
0.00597416
0.0035129
0.00359286
0.00393337
0.00398101
0.00408701
0.00417316
0.0041676
0.00417674
0.00417756
0.00415786
0.00415401
0.00415171
0.00415287
0.0041655
0.00417996
0.00420086
0.00422877
0.00426038
0.00429222
0.00432325
0.00433281
0.00438677
0.00530344
0.00610922
0.00730789
0.0116799
1.60108e-06
9.72835e-09
1.52799e-14
1.83543e-15
3.84703e-16
1.26075e-16
5.84182e-17
3.51374e-17
2.54994e-17
2.16447e-17
8.25446e-15
4.66405e-11
1.02774e-09
0.00710188
0.0111377
0.016244
0.0165142
0.0165484
0.0165774
0.0166861
0.0167446
0.0167454
0.0167346
0.0167369
0.0167524
0.0167772
0.016807
0.0168373
0.0168667
0.0168941
0.0169181
0.0169378
0.0169525
0.0169628
0.016971
0.016978
0.0169848
0.0169939
0.0170035
0.0170118
0.0170201
0.0170282
0.0170389
0.0170573
0.017084
0.0171124
0.0171433
0.0169796
0.0165793
0.0158493
0.0145778
0.0127827
0.00968486
0.00983001
0.0104096
0.0107614
0.0109902
0.0111463
0.0112309
0.0112742
0.0112998
0.0113111
0.0113151
0.0113187
0.0113229
0.0113259
0.0113246
0.0113231
0.0113281
0.011334
0.0113365
0.0113337
0.0112795
0.0105251
0.00967865
0.00790299
0.00479192
0.00930957
9.40043e-06
5.37561e-08
4.55247e-14
4.89392e-15
9.24689e-16
2.75795e-16
1.17469e-16
6.55802e-17
4.45827e-17
3.52132e-17
4.42014e-15
8.21039e-12
2.06521e-10
0.0167307
0.0187187
0.0182484
0.0174793
0.0173019
0.0171431
0.0169557
0.0169169
0.0168868
0.0168674
0.0168762
0.0169063
0.016945
0.0169868
0.0170278
0.0170654
0.0170992
0.0171282
0.0171516
0.0171684
0.01718
0.017189
0.0171962
0.0172024
0.0172121
0.0172253
0.017239
0.0172544
0.0172701
0.0172874
0.0173123
0.017347
0.0173845
0.0174575
0.0175632
0.0176188
0.0174829
0.0171088
0.0159162
0.0188378
0.0184414
0.0186147
0.0187701
0.0188211
0.0188294
0.018817
0.0187958
0.0187839
0.0187817
0.0187888
0.0188089
0.0188395
0.0188748
0.0189085
0.0189451
0.0189927
0.0190398
0.0190738
0.0191065
0.0191654
0.0188985
0.0182169
0.0170655
0.015675
0.0146204
7.56758e-05
1.46995e-07
1.92298e-09
1.36877e-14
2.33252e-15
6.33018e-16
2.47416e-16
1.27835e-16
8.11216e-17
5.96947e-17
2.59269e-15
1.74193e-12
4.30799e-11
0.0190858
0.0155007
0.0101241
0.00879515
0.00830879
0.00793863
0.00869749
0.0089818
0.00905685
0.00906207
0.00906112
0.00906558
0.00907061
0.00907444
0.00907728
0.009079
0.00908178
0.00908514
0.00909031
0.00909741
0.00910727
0.00912264
0.00914472
0.00917476
0.00920998
0.00925143
0.00929404
0.00933804
0.00938169
0.0094256
0.00947074
0.0095189
0.00956058
0.00964385
0.0101871
0.0109639
0.0117548
0.0128802
0.0132877
0.0169078
0.0164577
0.016283
0.0162069
0.016112
0.0160149
0.0159461
0.0158996
0.0158773
0.0158807
0.0159021
0.0159394
0.0159906
0.0160496
0.0161119
0.0161817
0.0162655
0.0163536
0.0164369
0.0165217
0.0167174
0.0170886
0.0173414
0.0173126
0.0169457
0.0162375
0.000435492
1.3997e-06
1.65187e-08
4.01182e-14
6.1718e-15
1.52238e-15
5.45197e-16
2.59986e-16
1.53373e-16
1.05054e-16
1.67639e-15
4.26766e-13
1.2251e-09
0.0103442
0.001723
0.00405613
0.00348935
0.00332427
0.00321541
0.00353044
0.00360915
0.00359726
0.00356105
0.00349579
0.00342939
0.00337963
0.00333046
0.00329487
0.00328049
0.00327966
0.00329689
0.00333115
0.00338018
0.00344141
0.00351493
0.0036002
0.00368579
0.00375732
0.00382391
0.00389175
0.00396037
0.004029
0.00409728
0.00416523
0.00423344
0.0042983
0.00438132
0.0046745
0.00507898
0.00554766
0.00369224
0.00758062
0.00602804
0.00718536
0.00642105
0.00603199
0.00580809
0.00565459
0.00554046
0.00547635
0.0054469
0.00544828
0.00547703
0.00552684
0.00559556
0.00568309
0.00578565
0.00590844
0.00605359
0.0062206
0.00640606
0.00658416
0.00684912
0.00798283
0.00967052
0.0112774
0.0126506
0.0134296
0.00169211
9.58968e-06
1.03639e-07
1.23115e-13
1.7113e-14
3.83503e-15
1.25593e-15
5.51086e-16
3.01185e-16
1.91565e-16
1.23248e-15
1.2292e-13
1.25648e-10
0.0043964
0.00161022
0.00318473
0.00336059
0.00349448
0.00359874
0.00350808
0.00345918
0.0034382
0.00330364
0.00317435
0.0030923
0.00303953
0.00299146
0.00295649
0.00294144
0.00293823
0.00295138
0.00297992
0.00302166
0.0030738
0.00313683
0.00320907
0.00327871
0.00333294
0.00338049
0.00342915
0.00347844
0.00352805
0.00357733
0.00362704
0.00367775
0.00372973
0.00378222
0.00375363
0.00355635
0.00315981
0.00320022
0.0040349
0.00228618
0.00274352
0.00253407
0.00233007
0.00225452
0.00220851
0.00214268
0.00211273
0.00209541
0.00208185
0.00208857
0.00210385
0.00212781
0.0021651
0.00221046
0.00226746
0.00233619
0.00241622
0.0025058
0.00259379
0.00271637
0.00318449
0.00387776
0.00467147
0.00357869
0.00693436
0.00387951
4.93801e-05
1.47145e-07
2.90574e-09
4.96759e-14
1.01057e-14
3.0228e-15
1.21709e-15
6.14097e-16
3.61755e-16
1.08621e-15
4.38593e-14
2.01496e-11
0.00380482
0.00401059
0.00825769
0.00871215
0.00898703
0.00915136
0.00891449
0.00889646
0.00896478
0.00872643
0.00856426
0.00853472
0.00854339
0.00856467
0.00858817
0.0086103
0.00863098
0.00864982
0.00866689
0.00868203
0.00869606
0.00870993
0.00872404
0.00873933
0.00875781
0.00877915
0.00880109
0.00882398
0.00884774
0.00887152
0.00889696
0.00892532
0.0089587
0.00899554
0.008842
0.00829878
0.00730573
0.00616171
0.00422932
0.00549007
0.00436539
0.00448262
0.00438017
0.00439113
0.00441463
0.00437499
0.00437273
0.00437371
0.00435909
0.00436597
0.00437341
0.00438303
0.00440427
0.00442801
0.00445916
0.00449674
0.00453788
0.0045782
0.00461789
0.00465978
0.00464043
0.00445749
0.00412683
0.00399971
0.00452032
0.0026334
0.000176922
1.3911e-06
2.57977e-08
1.50739e-13
2.78315e-14
7.59105e-15
2.79987e-15
1.3e-15
7.07346e-16
1.18803e-15
2.02341e-14
4.30303e-12
0.00974872
0.0133233
0.0139258
0.0138554
0.013907
0.0139629
0.0139957
0.0140212
0.0141112
0.0140619
0.0140254
0.0141098
0.0141739
0.014227
0.0142721
0.014312
0.0143492
0.0143855
0.0144218
0.0144589
0.0144976
0.0145397
0.0145856
0.0146344
0.0146855
0.014738
0.0147891
0.0148399
0.0148914
0.0149419
0.0149943
0.0150495
0.0151116
0.0151841
0.0149777
0.0147735
0.0145894
0.0138279
0.0124096
0.0121156
0.0117869
0.0117164
0.0117136
0.0117018
0.0117097
0.0117413
0.0117837
0.0118386
0.0118998
0.0119617
0.0120226
0.0120799
0.0121327
0.0121824
0.0122335
0.0122897
0.0123454
0.012393
0.012436
0.0124874
0.0123909
0.0118716
0.0109823
0.00988816
0.00883004
0.00710858
0.000876797
1.33792e-05
5.23512e-08
1.52819e-09
7.99795e-14
1.98687e-14
6.69942e-15
2.85593e-15
1.43155e-15
1.5818e-15
1.21094e-14
1.20229e-12
0.015364
0.0138085
0.012131
0.0116492
0.0114504
0.0114073
0.0114135
0.0114367
0.0114699
0.0116311
0.0117142
0.0117751
0.0118259
0.0118706
0.0119111
0.0119488
0.0119843
0.01202
0.0120556
0.0120917
0.0121288
0.0121684
0.0122104
0.0122533
0.0122965
0.0123406
0.012384
0.0124273
0.0124721
0.0125173
0.0125656
0.012616
0.0126714
0.0127422
0.0128805
0.0131013
0.0133722
0.0135234
0.0130713
0.0150153
0.0143758
0.0142708
0.0142319
0.0142048
0.0141973
0.0142178
0.014251
0.0142954
0.0143478
0.0144024
0.0144577
0.0145114
0.014562
0.0146119
0.014667
0.0147316
0.0147997
0.0148617
0.0149208
0.0150059
0.0151047
0.01502
0.0146848
0.0141036
0.0132525
0.0117658
0.00395765
0.000103868
1.20688e-06
3.26881e-08
2.39202e-13
5.40857e-14
1.66521e-14
6.50266e-15
2.99605e-15
2.44867e-15
9.27911e-15
4.33512e-13
0.0121101
0.00763103
0.00470153
0.00388557
0.00338709
0.0032358
0.00322264
0.00320933
0.00319183
0.00317496
0.003155
0.00313461
0.00311371
0.00309328
0.00307381
0.00305583
0.00303953
0.00302526
0.00301437
0.00300762
0.00300589
0.00301229
0.00302766
0.0030517
0.00308203
0.00311828
0.00315851
0.00320122
0.00324573
0.00329165
0.00333891
0.00338638
0.00342343
0.00344043
0.00375497
0.00488574
0.00640658
0.00809835
0.00927233
0.00934812
0.00963489
0.00939953
0.00927757
0.00921425
0.00918255
0.00917835
0.00918536
0.00919503
0.00920839
0.00922318
0.00924044
0.00925961
0.00928067
0.00930575
0.00933949
0.0093858
0.00944152
0.00950153
0.00956507
0.00965416
0.0099305
0.010518
0.0111328
0.0116197
0.0118525
0.0117338
0.00826584
0.000525517
1.01072e-05
4.02982e-08
1.58557e-09
1.52768e-13
4.29035e-14
1.53214e-14
6.47714e-15
4.22543e-15
8.97643e-15
2.00093e-13
0.00557859
0.00292549
0.00189321
0.00157982
0.00140126
0.00135165
0.00134434
0.00131614
0.00128174
0.00125695
0.00122168
0.00118419
0.00115204
0.00111948
0.00109183
0.00107282
0.00105911
0.00105325
0.00105526
0.001065
0.00108151
0.00110606
0.00113869
0.0011737
0.00120378
0.00123303
0.00126463
0.00129796
0.00133277
0.00136872
0.00140574
0.00144332
0.00147676
0.00150194
0.00165871
0.00218356
0.00289602
0.00372722
0.00185401
0.00358809
0.0037202
0.00375148
0.00362279
0.00361332
0.00361961
0.0035765
0.00356446
0.00355168
0.00352517
0.00351707
0.00351088
0.00350778
0.00351638
0.00352911
0.0035507
0.00358088
0.00361809
0.00365892
0.00370174
0.00375224
0.00387049
0.00412555
0.0012274
0.00484595
0.00684239
0.00836149
0.00855419
0.00183732
6.0452e-05
8.47911e-07
3.06588e-08
4.46812e-13
1.14323e-13
3.72847e-14
1.44397e-14
7.88755e-15
1.0647e-14
1.16331e-13
0.00183376
0.00342507
0.00371047
0.000559021
0.000687662
0.000620261
0.000566999
0.000439346
0.000155145
0.0036735
0.00359986
0.00351809
0.00345078
0.0033786
0.00331744
0.00328011
0.00325633
0.00325522
0.00327661
0.00331918
0.00337989
0.00345951
0.00355663
0.00365155
0.00372039
0.00377686
0.00383506
0.00389499
0.00395725
0.00402084
0.00408631
0.00415354
0.00422282
0.00429552
0.00436583
0.00436032
0.00424267
0.003964
0.00365587
0.00302904
0.0022789
0.00239342
0.00240547
0.00244579
0.00246933
0.0024465
0.00244597
0.00245037
0.0024461
0.00245546
0.00246556
0.00247594
0.0024925
0.00250921
0.00252922
0.00255223
0.00257689
0.00260093
0.0026233
0.00264138
0.00264687
0.00250368
0.00230002
0.00276419
0.00311426
0.00376945
0.00442326
0.00336538
0.000246972
6.77218e-06
2.42574e-07
1.35036e-12
3.14432e-13
9.35405e-14
3.31482e-14
1.56126e-14
1.48539e-14
8.33727e-14
0.00498742
0.00928701
0.00957005
0.00969663
0.00966504
0.00963326
0.00963325
0.00964663
0.00966792
0.00969667
0.00973223
0.0097688
0.00980478
0.0098402
0.00987355
0.00990567
0.00993707
0.00996765
0.00999778
0.0100275
0.0100572
0.0100875
0.01012
0.010155
0.0101915
0.010228
0.0102641
0.0103011
0.0103404
0.0103812
0.0104253
0.0104722
0.0105224
0.0105795
0.0106298
0.0104947
0.0100961
0.00932334
0.00832147
0.00692977
0.00612876
0.00623442
0.00641364
0.0064988
0.00653194
0.00655285
0.00658421
0.00663314
0.00668906
0.00675022
0.00681389
0.00687489
0.00693158
0.00698362
0.00703291
0.00708203
0.00713016
0.00717394
0.00721234
0.00724294
0.0072499
0.00686017
0.00618377
0.00554992
0.00427792
0.00289492
0.00354991
0.00392441
0.000840975
4.19264e-05
7.75792e-07
3.50321e-08
8.91343e-13
2.41574e-13
7.82314e-14
3.23626e-14
2.34193e-14
7.25959e-14
0.0114631
0.0118753
0.0114649
0.0112799
0.0112938
0.0112829
0.0112859
0.0113031
0.0113312
0.011367
0.0114095
0.0114543
0.0114978
0.0115404
0.0115812
0.0116203
0.0116582
0.0116953
0.0117316
0.0117673
0.0118027
0.0118392
0.0118777
0.0119184
0.0119612
0.0120062
0.012052
0.0120989
0.0121483
0.0121992
0.012254
0.0123118
0.0123731
0.0124451
0.0125501
0.0126154
0.0125286
0.0122676
0.0115894
0.0115042
0.010769
0.010746
0.0108624
0.0109054
0.0109092
0.0109226
0.0109523
0.0109972
0.0110498
0.0111075
0.0111697
0.0112313
0.0112892
0.0113435
0.011397
0.0114545
0.0115155
0.0115753
0.0116304
0.0116811
0.0118583
0.0116059
0.0111688
0.0108045
0.0100552
0.00922166
0.00821735
0.00697173
0.00289382
0.00023412
9.73083e-06
3.38171e-08
1.87554e-09
6.41844e-13
1.89638e-13
6.97036e-14