/*--------------------------------*- C++ -*----------------------------------*\
| =========                 |                                                 |
| \\      /  F ield         | OpenFOAM: The Open Source CFD Toolbox           |
|  \\    /   O peration     | Version:  2312                                  |
|   \\  /    A nd           | Website:  www.openfoam.com                      |
|    \\/     M anipulation  |                                                 |
\*---------------------------------------------------------------------------*/
FoamFile
{
    version     2.0;
    format      ascii;
    arch        "LSB;label=32;scalar=64";
    class       volVectorField;
    location    "96.741103247190139";
    object      U;
}
// * * * * * * * * * * * * * * * * * * * * * * * * * * * * * * * * * * * * * //

dimensions      [0 1 -1 0 0 0 0];

internalField   nonuniform List<vector> 
21039
(
(0.913727 0.0474007 0)
(1.02608 0.0664998 0)
(1.00449 0.0295593 0)
(1.00176 0.0189439 0)
(1.0012 0.0139472 0)
(1.00079 0.0105792 0)
(1.00055 0.00826421 0)
(1.0004 0.00663341 0)
(1.0003 0.00543601 0)
(1.00023 0.00452812 0)
(1.00018 0.00382427 0)
(1.00014 0.00326947 0)
(1.00011 0.0028267 0)
(1.00009 0.00247037 0)
(1.00007 0.00218233 0)
(1.00006 0.0019494 0)
(1.00005 0.00176185 0)
(1.00003 0.00161228 0)
(1.00003 0.00149496 0)
(1.00002 0.0014052 0)
(1.00001 0.00133904 0)
(1.00001 0.00129431 0)
(1 0.0012723 0)
(1 0.00125328 0)
(1 0.00124027 0)
(1 0.0012304 0)
(1.00001 0.00121972 0)
(1.00001 0.00119892 0)
(1.00001 0.0011479 0)
(0.794437 0.0730488 0)
(1.07451 0.121759 0)
(1.03987 0.0709999 0)
(1.01807 0.0498498 0)
(1.01125 0.0384678 0)
(1.00761 0.02972 0)
(1.00535 0.0234561 0)
(1.00392 0.0189161 0)
(1.00296 0.0154988 0)
(1.00229 0.0128628 0)
(1.0018 0.0107917 0)
(1.00144 0.00913873 0)
(1.00116 0.00780308 0)
(1.00094 0.00671424 0)
(1.00077 0.00582184 0)
(1.00062 0.00508918 0)
(1.0005 0.00448906 0)
(1.0004 0.00400105 0)
(1.00031 0.00360946 0)
(1.00023 0.00330196 0)
(1.00017 0.00306823 0)
(1.00011 0.00290149 0)
(1.00006 0.00280483 0)
(1.00003 0.00274335 0)
(1.00003 0.00271731 0)
(1.00003 0.00271016 0)
(1.00003 0.00270902 0)
(1.00004 0.00269637 0)
(1.00005 0.00264564 0)
(0.667128 0.0573006 0)
(1.08293 0.124937 0)
(1.08429 0.0905268 0)
(1.0462 0.0679175 0)
(1.02897 0.0544545 0)
(1.02015 0.0435499 0)
(1.01458 0.035302 0)
(1.01088 0.0289834 0)
(1.00832 0.0240203 0)
(1.0065 0.0200809 0)
(1.00516 0.0169197 0)
(1.00415 0.0143543 0)
(1.00337 0.0122532 0)
(1.00276 0.010521 0)
(1.00226 0.00908737 0)
(1.00186 0.00790019 0)
(1.00151 0.0069202 0)
(1.00122 0.00611761 0)
(1.00097 0.00546956 0)
(1.00074 0.0049582 0)
(1.00055 0.00456879 0)
(1.00037 0.00429034 0)
(1.00022 0.00412725 0)
(1.00012 0.00403607 0)
(1.00007 0.0040082 0)
(1.00004 0.00401151 0)
(1.00004 0.00402468 0)
(1.00006 0.00402566 0)
(1.00007 0.00398577 0)
(0.54071 0.0352936 0)
(1.05048 0.110989 0)
(1.11574 0.097314 0)
(1.07595 0.0766238 0)
(1.04904 0.0625295 0)
(1.03506 0.0514971 0)
(1.0262 0.0429055 0)
(1.02002 0.0359663 0)
(1.01559 0.0302756 0)
(1.01234 0.0256079 0)
(1.00991 0.0217591 0)
(1.00805 0.018565 0)
(1.00659 0.0159013 0)
(1.00543 0.0136724 0)
(1.00449 0.0118049 0)
(1.0037 0.0102425 0)
(1.00304 0.00894184 0)
(1.00246 0.00786933 0)
(1.00196 0.00699895 0)
(1.00152 0.00631034 0)
(1.00112 0.00578681 0)
(1.00077 0.00541474 0)
(1.00045 0.00519952 0)
(1.00023 0.00509158 0)
(1.00009 0.00507066 0)
(1.00002 0.00509047 0)
(0.999999 0.00512262 0)
(1.00001 0.0051414 0)
(1.00002 0.00511423 0)
(0.443744 0.0186925 0)
(0.997225 0.0920413 0)
(1.12866 0.0959935 0)
(1.10115 0.0798986 0)
(1.06791 0.065932 0)
(1.04941 0.055346 0)
(1.03789 0.0470627 0)
(1.02966 0.0401367 0)
(1.02355 0.0342775 0)
(1.01895 0.0293361 0)
(1.01542 0.0251542 0)
(1.01267 0.0216035 0)
(1.01047 0.018584 0)
(1.0087 0.0160151 0)
(1.00723 0.0138323 0)
(1.006 0.0119844 0)
(1.00495 0.0104311 0)
(1.00404 0.00914043 0)
(1.00323 0.0080873 0)
(1.0025 0.00725197 0)
(1.00185 0.00661833 0)
(1.00125 0.00617219 0)
(1.00072 0.00592053 0)
(1.00032 0.00580925 0)
(1.00007 0.00580547 0)
(0.999936 0.00585038 0)
(0.999885 0.00590954 0)
(0.999887 0.00595352 0)
(0.999891 0.00594328 0)
(0.378075 0.00812538 0)
(0.938937 0.0720035 0)
(1.12641 0.0886444 0)
(1.12038 0.0790961 0)
(1.08503 0.0664385 0)
(1.06253 0.0565543 0)
(1.04874 0.0488022 0)
(1.0389 0.0421756 0)
(1.03146 0.0364392 0)
(1.02571 0.031489 0)
(1.02121 0.027205 0)
(1.01763 0.023493 0)
(1.01472 0.020278 0)
(1.01233 0.0174978 0)
(1.01034 0.0151015 0)
(1.00863 0.0130478 0)
(1.00716 0.0113035 0)
(1.00586 0.00984211 0)
(1.0047 0.00864258 0)
(1.00365 0.00768839 0)
(1.00268 0.00696629 0)
(1.0018 0.00646366 0)
(1.001 0.00619016 0)
(1.00039 0.00608852 0)
(1 0.00611278 0)
(0.999778 0.00619257 0)
(0.999684 0.00628799 0)
(0.999666 0.00636571 0)
(0.999653 0.00637819 0)
(0.332758 0.00235525 0)
(0.882418 0.0539734 0)
(1.11323 0.0781642 0)
(1.13323 0.0752676 0)
(1.10025 0.0648263 0)
(1.07462 0.0558588 0)
(1.05873 0.0487598 0)
(1.04757 0.0425978 0)
(1.03905 0.0371479 0)
(1.03236 0.0323388 0)
(1.02703 0.0280902 0)
(1.02271 0.0243399 0)
(1.01916 0.0210361 0)
(1.0162 0.0181345 0)
(1.01367 0.0155987 0)
(1.0115 0.0133985 0)
(1.00959 0.01151 0)
(1.00788 0.00991396 0)
(1.00634 0.00859542 0)
(1.00492 0.00754297 0)
(1.00361 0.00674802 0)
(1.0024 0.00620138 0)
(1.00128 0.0059167 0)
(1.00042 0.00583469 0)
(0.999858 0.00589615 0)
(0.999526 0.0060197 0)
(0.999371 0.00616027 0)
(0.99932 0.00628047 0)
(0.999278 0.00632236 0)
(0.30038 -0.000173536 0)
(0.830507 0.039672 0)
(1.0928 0.0671944 0)
(1.13972 0.0697699 0)
(1.11306 0.0618612 0)
(1.08564 0.0538846 0)
(1.06791 0.0474349 0)
(1.05564 0.0417904 0)
(1.04625 0.0367035 0)
(1.0388 0.0321158 0)
(1.03277 0.0279811 0)
(1.02782 0.024265 0)
(1.0237 0.020937 0)
(1.0202 0.0179698 0)
(1.01718 0.0153408 0)
(1.01454 0.0130317 0)
(1.01219 0.0110279 0)
(1.01007 0.00931873 0)
(1.00812 0.00789635 0)
(1.00632 0.00675576 0)
(1.00462 0.00589439 0)
(1.00303 0.00530802 0)
(1.00155 0.00501562 0)
(1.0004 0.00495751 0)
(0.999625 0.00506158 0)
(0.999158 0.00523559 0)
(0.998921 0.00542937 0)
(0.998817 0.00560094 0)
(0.998729 0.0056801 0)
(0.277352 -0.000970759 0)
(0.784726 0.02914 0)
(1.06843 0.0571056 0)
(1.14071 0.0636517 0)
(1.12318 0.0582178 0)
(1.09552 0.0512122 0)
(1.07631 0.0453083 0)
(1.06309 0.0401233 0)
(1.05303 0.0353892 0)
(1.04497 0.0310383 0)
(1.03838 0.0270446 0)
(1.0329 0.0233935 0)
(1.02826 0.0200712 0)
(1.02429 0.0170648 0)
(1.02081 0.0143646 0)
(1.01773 0.0119629 0)
(1.01495 0.00985496 0)
(1.01241 0.00803837 0)
(1.01005 0.00651323 0)
(1.00782 0.00528186 0)
(1.00571 0.00434883 0)
(1.0037 0.00371634 0)
(1.00182 0.00340996 0)
(1.00032 0.00337195 0)
(0.999295 0.00351816 0)
(0.998659 0.00374528 0)
(0.99831 0.00399762 0)
(0.998126 0.00422806 0)
(0.997969 0.00435292 0)
(0.260889 -0.0010202 0)
(0.745466 0.0216728 0)
(1.04268 0.0483247 0)
(1.13752 0.0574873 0)
(1.13079 0.0542893 0)
(1.10431 0.048215 0)
(1.08401 0.0427417 0)
(1.07 0.0379096 0)
(1.0594 0.033463 0)
(1.05087 0.029315 0)
(1.04383 0.0254468 0)
(1.03791 0.0218554 0)
(1.03285 0.0185381 0)
(1.02845 0.0154934 0)
(1.02456 0.0127213 0)
(1.02106 0.010224 0)
(1.01787 0.00800517 0)
(1.0149 0.00607085 0)
(1.01211 0.00442933 0)
(1.00945 0.00309099 0)
(1.00689 0.00206819 0)
(1.00442 0.00136985 0)
(1.00208 0.00102985 0)
(1.00019 0.000996421 0)
(0.998868 0.00117628 0)
(0.998021 0.00145223 0)
(0.997523 0.00176248 0)
(0.997222 0.0020564 0)
(0.996958 0.00223789 0)
(0.248672 -0.000808412 0)
(0.712229 0.0164829 0)
(1.01719 0.0408829 0)
(1.13142 0.0515726 0)
(1.13622 0.0502721 0)
(1.11215 0.0450764 0)
(1.09121 0.0399471 0)
(1.07649 0.0353633 0)
(1.06545 0.0311223 0)
(1.05656 0.0271199 0)
(1.04916 0.0233365 0)
(1.04288 0.0197748 0)
(1.03746 0.0164392 0)
(1.03269 0.0133358 0)
(1.02843 0.0104724 0)
(1.02455 0.00785848 0)
(1.02096 0.00550578 0)
(1.01758 0.0034281 0)
(1.01435 0.00164125 0)
(1.01124 0.000162434 0)
(1.0082 -0.000987539 0)
(1.00523 -0.00179002 0)
(1.00238 -0.00219997 0)
(1.00004 -0.00226107 0)
(0.998373 -0.00207235 0)
(0.997266 -0.0017632 0)
(0.99657 -0.00140561 0)
(0.996108 -0.00106156 0)
(0.9957 -0.000824486 0)
(0.239182 -0.000558002 0)
(0.68417 0.0128856 0)
(0.992863 0.0346645 0)
(1.12341 0.0460651 0)
(1.13982 0.0462846 0)
(1.11916 0.0418931 0)
(1.09803 0.0370459 0)
(1.08272 0.0326217 0)
(1.07129 0.0285061 0)
(1.06211 0.0245858 0)
(1.05443 0.0208363 0)
(1.04787 0.0172617 0)
(1.04214 0.0138703 0)
(1.03706 0.0106734 0)
(1.03247 0.0076842 0)
(1.02824 0.00491847 0)
(1.02427 0.00239427 0)
(1.02049 0.000130795 0)
(1.01683 -0.00184994 0)
(1.01325 -0.00352186 0)
(1.00971 -0.00485417 0)
(1.00621 -0.00581764 0)
(1.0028 -0.00635531 0)
(0.999945 -0.00649741 0)
(0.997863 -0.0063414 0)
(0.996429 -0.00602488 0)
(0.99547 -0.00562773 0)
(0.994782 -0.00522699 0)
(0.994172 -0.00495705 0)
(0.231544 -0.000358396 0)
(0.660451 0.010344 0)
(0.970183 0.0294947 0)
(1.11425 0.0410337 0)
(1.14194 0.0424091 0)
(1.12543 0.0387309 0)
(1.10458 0.034119 0)
(1.0888 0.0297821 0)
(1.07703 0.0257185 0)
(1.06762 0.0218179 0)
(1.05972 0.0180486 0)
(1.05293 0.0144129 0)
(1.04696 0.0109209 0)
(1.04162 0.0075867 0)
(1.03673 0.00442734 0)
(1.03218 0.00146257 0)
(1.02787 -0.0012865 0)
(1.0237 -0.00379496 0)
(1.01963 -0.00603243 0)
(1.01558 -0.00796455 0)
(1.01151 -0.00955218 0)
(1.00743 -0.0107561 0)
(1.00341 -0.0115075 0)
(0.999991 -0.0118162 0)
(0.997426 -0.0117669 0)
(0.995587 -0.0115033 0)
(0.994274 -0.0111131 0)
(0.993264 -0.0106844 0)
(0.992359 -0.0103796 0)
(0.225248 -0.000227053 0)
(0.640329 0.00848396 0)
(0.949352 0.0251913 0)
(1.10452 0.0364874 0)
(1.14288 0.0386996 0)
(1.13107 0.0356382 0)
(1.11094 0.0312255 0)
(1.09484 0.02692 0)
(1.08278 0.0228456 0)
(1.07317 0.0189071 0)
(1.06511 0.0150657 0)
(1.05815 0.0113199 0)
(1.052 0.00767923 0)
(1.04644 0.00415863 0)
(1.04131 0.000776282 0)
(1.03649 -0.00244704 0)
(1.03186 -0.00548617 0)
(1.02734 -0.0083098 0)
(1.02286 -0.0108809 0)
(1.01834 -0.0131577 0)
(1.01374 -0.0150937 0)
(1.00906 -0.0166416 0)
(1.0044 -0.017723 0)
(1.00035 -0.0183236 0)
(0.997239 -0.0185003 0)
(0.994906 -0.0183946 0)
(0.993129 -0.0180968 0)
(0.991676 -0.0177059 0)
(0.990355 -0.0174054 0)
(0.219968 -0.000154124 0)
(0.623184 0.00707369 0)
(0.930409 0.0216193 0)
(1.09462 0.0324325 0)
(1.1429 0.0352042 0)
(1.13611 0.0326524 0)
(1.11711 0.0284054 0)
(1.10086 0.0240897 0)
(1.08856 0.019954 0)
(1.0788 0.0159278 0)
(1.07062 0.011967 0)
(1.06354 0.00806463 0)
(1.05725 0.00422774 0)
(1.05153 0.000469589 0)
(1.04621 -0.00319286 0)
(1.04116 -0.00673767 0)
(1.03627 -0.010136 0)
(1.03142 -0.0133518 0)
(1.02655 -0.0163426 0)
(1.02157 -0.0190592 0)
(1.01645 -0.0214484 0)
(1.01117 -0.023457 0)
(1.00585 -0.0250033 0)
(1.0012 -0.0260584 0)
(0.997539 -0.0266426 0)
(0.994677 -0.026882 0)
(0.99235 -0.0268505 0)
(0.990322 -0.0266401 0)
(0.988439 -0.026435 0)
(0.215848 -0.000108368 0)
(0.609568 0.00605748 0)
(0.914567 0.0188549 0)
(1.08563 0.0290983 0)
(1.14239 0.0322032 0)
(1.1404 0.0300436 0)
(1.12276 0.0259286 0)
(1.10651 0.0215818 0)
(1.09405 0.0173601 0)
(1.08419 0.013221 0)
(1.07596 0.00911645 0)
(1.06882 0.00503298 0)
(1.06246 0.000972836 0)
(1.05665 -0.00305458 0)
(1.05123 -0.0070347 0)
(1.04603 -0.010946 0)
(1.04094 -0.0147587 0)
(1.03585 -0.0184349 0)
(1.03066 -0.0219278 0)
(1.02529 -0.025181 0)
(1.01969 -0.0281312 0)
(1.01386 -0.0307155 0)
(1.00795 -0.0328443 0)
(1.00277 -0.0344788 0)
(0.998666 -0.0356245 0)
(0.995361 -0.0364139 0)
(0.9925 -0.0368933 0)
(0.989796 -0.0371009 0)
(0.987137 -0.0371587 0)
(0.212832 -8.305e-05 0)
(0.599568 0.00536394 0)
(0.902464 0.0168725 0)
(1.07834 0.0265975 0)
(1.14168 0.0298885 0)
(1.14376 0.0280111 0)
(1.12745 0.0239921 0)
(1.11132 0.0196085 0)
(1.09877 0.0153029 0)
(1.08886 0.0110564 0)
(1.08062 0.00681617 0)
(1.07348 0.00256135 0)
(1.06711 -0.00171097 0)
(1.06129 -0.00599643 0)
(1.05583 -0.0102844 0)
(1.05057 -0.0145561 0)
(1.04538 -0.0187847 0)
(1.04014 -0.0229344 0)
(1.03474 -0.0269577 0)
(1.02909 -0.0307939 0)
(1.02313 -0.0343697 0)
(1.01685 -0.0376073 0)
(1.01045 -0.0403884 0)
(1.00487 -0.0426342 0)
(1.00051 -0.0443517 0)
(0.997024 -0.0457576 0)
(0.993957 -0.046981 0)
(0.990904 -0.0480459 0)
(0.98773 -0.0488071 0)
(0.210509 -4.18652e-05 0)
(0.591902 0.00489093 0)
(0.892913 0.015435 0)
(1.07228 0.0247092 0)
(1.14085 0.0281038 0)
(1.1464 0.0264395 0)
(1.13135 0.0225023 0)
(1.11541 0.0180949 0)
(1.1028 0.013724 0)
(1.09287 0.00938952 0)
(1.08464 0.00503453 0)
(1.07753 0.000631763 0)
(1.0712 -0.00382701 0)
(1.06541 -0.00834244 0)
(1.05996 -0.0129088 0)
(1.0547 -0.0175127 0)
(1.04948 -0.0221336 0)
(1.04418 -0.0267409 0)
(1.03867 -0.0312917 0)
(1.03284 -0.0357264 0)
(1.02662 -0.0399673 0)
(1.02 -0.0439244 0)
(1.01318 -0.0474367 0)
(1.00723 -0.0503067 0)
(1.00264 -0.0524591 0)
(0.99914 -0.0541798 0)
(0.996346 -0.0558389 0)
(0.993921 -0.0578046 0)
(0.99127 -0.0595424 0)
(0.209039 -5.37859e-05 0)
(0.586625 0.00452295 0)
(0.886117 0.0144115 0)
(1.06789 0.023377 0)
(1.14031 0.0268295 0)
(1.14851 0.0252773 0)
(1.13449 0.0213646 0)
(1.11873 0.0169287 0)
(1.10613 0.0125113 0)
(1.09622 0.00811124 0)
(1.08803 0.00366359 0)
(1.08098 -0.00086324 0)
(1.07472 -0.00548127 0)
(1.06899 -0.0101961 0)
(1.0636 -0.0150077 0)
(1.05839 -0.01991 0)
(1.05322 -0.0248904 0)
(1.04793 -0.0299272 0)
(1.0424 -0.0349863 0)
(1.03652 -0.0400164 0)
(1.0302 -0.0449469 0)
(1.02343 -0.0496972 0)
(1.01643 -0.0540956 0)
(1.01029 -0.057796 0)
(1.00554 -0.0605069 0)
(1.00199 -0.0623017 0)
(0.999362 -0.0632293 0)
(0.997622 -0.0639888 0)
(0.997663 -0.0683898 0)
(1.00001 0.00116038 0)
(1.00001 0.0011652 0)
(1.00001 0.00116516 0)
(1.00001 0.00116589 1.03357e-21)
(1.00001 0.0011685 5.14998e-21)
(1.00001 0.00117279 -9.26321e-21)
(1 0.00117859 5.14253e-21)
(1 0.00118581 -4.0922e-21)
(1 0.00119427 5.25407e-22)
(1 0.001204 4.08759e-21)
(1 0.00121483 0)
(0.999999 0.00122671 -4.56136e-21)
(0.999997 0.00123957 5.20767e-22)
(0.999996 0.00125325 4.0468e-21)
(0.999995 0.00126773 0)
(0.999994 0.00128287 0)
(0.999993 0.00129858 -3.99773e-21)
(0.999992 0.00131476 4.00025e-21)
(0.999991 0.00133126 0)
(0.99999 0.00134803 -1.97975e-21)
(0.999989 0.00136493 2.10419e-21)
(0.999989 0.00138184 1.84281e-21)
(0.999988 0.00139868 -2.94594e-21)
(0.999987 0.00141532 9.49037e-22)
(0.999987 0.00143163 3.03708e-23)
(0.999986 0.00144755 -6.06929e-23)
(0.999986 0.00146293 8.43168e-22)
(0.999986 0.00147767 -9.63848e-22)
(0.999985 0.0014917 0)
(0.999985 0.00150489 0)
(0.999985 0.00151721 -2.3729e-22)
(0.999986 0.00152844 -2.36147e-22)
(0.999986 0.00153851 -3.98548e-21)
(0.999986 0.0015475 3.28025e-21)
(0.999987 0.00155524 -4.1772e-21)
(0.999987 0.00156173 4.17152e-21)
(0.999988 0.00156689 -3.21256e-21)
(0.999989 0.00157064 3.21157e-21)
(0.99999 0.001573 4.5514e-22)
(0.999991 0.00157384 4.52618e-22)
(0.999992 0.00157318 -4.50068e-22)
(0.999993 0.00157096 0)
(0.999995 0.00156711 0)
(0.999996 0.00156169 0)
(0.999998 0.00155465 0)
(1 0.00154599 0)
(1 0.00153558 1.7349e-21)
(1 0.00152293 -1.7319e-21)
(1.00001 0.00150405 0)
(1.00005 0.00266541 0)
(1.00004 0.00267715 2.08759e-21)
(1.00002 0.00268598 -2.07838e-21)
(1.00001 0.00269833 -1.03657e-21)
(0.999996 0.0027153 -1.03652e-21)
(0.999983 0.00273634 -3.09645e-21)
(0.999971 0.00276108 5.16954e-21)
(0.99996 0.00278956 0)
(0.999949 0.00282119 -5.13617e-22)
(0.999938 0.0028561 -1.02571e-21)
(0.999928 0.00289384 0)
(0.999919 0.00293421 5.09787e-22)
(0.99991 0.00297712 -4.56942e-21)
(0.999902 0.00302204 4.06458e-21)
(0.999895 0.00306897 0)
(0.999889 0.00311753 1.00941e-21)
(0.999883 0.00316741 0)
(0.999877 0.00321854 0)
(0.999873 0.0032704 0)
(0.999869 0.00332283 -1.98779e-21)
(0.999866 0.00337564 1.86452e-21)
(0.999864 0.00342839 -1.23857e-22)
(0.999863 0.0034809 0)
(0.999862 0.00353293 -4.59075e-22)
(0.999863 0.00358412 4.82153e-22)
(0.999864 0.00363425 9.13211e-23)
(0.999866 0.00368308 1.21172e-22)
(0.999868 0.0037303 0)
(0.999872 0.00377568 -1.91844e-21)
(0.999876 0.00381899 1.91801e-21)
(0.999882 0.00386 -3.56374e-21)
(0.999887 0.00389842 7.8212e-21)
(0.999894 0.00393409 -3.5463e-21)
(0.999902 0.00396676 4.69299e-22)
(0.99991 0.0039962 4.66968e-22)
(0.999919 0.00402229 4.64971e-22)
(0.999928 0.00404473 -4.62122e-22)
(0.999938 0.00406337 4.12927e-21)
(0.999949 0.00407812 -3.20854e-21)
(0.999961 0.00408864 -1.36418e-21)
(0.999973 0.00409495 4.96552e-21)
(0.999986 0.00409677 -3.60477e-21)
(1 0.00409394 -1.78789e-21)
(1.00001 0.00408648 3.54716e-21)
(1.00003 0.00407401 -7.06954e-21)
(1.00004 0.00405673 3.52143e-21)
(1.00006 0.00403438 1.74245e-21)
(1.00008 0.00400633 -4.75038e-24)
(1.00009 0.00396805 0)
(1.00005 0.00400734 3.14233e-21)
(1.00002 0.00402772 -1.04913e-21)
(0.99998 0.00405065 -4.17598e-21)
(0.999942 0.00407958 2.07987e-21)
(0.999906 0.00411568 -2.07898e-21)
(0.999871 0.00415818 0)
(0.999838 0.00420664 -2.06576e-21)
(0.999806 0.00426128 -6.18194e-21)
(0.999777 0.0043209 6.18195e-21)
(0.99975 0.0043859 1.0252e-21)
(0.999724 0.00445541 0)
(0.999701 0.0045291 -6.1211e-21)
(0.999679 0.00460698 1.41882e-23)
(0.99966 0.00468796 4.06797e-21)
(0.999642 0.00477222 0)
(0.999627 0.00485903 -1.00829e-21)
(0.999614 0.00494785 -1.00776e-21)
(0.999603 0.00503878 0)
(0.999594 0.00513074 -1.00116e-21)
(0.999588 0.00522353 -1.98858e-21)
(0.999583 0.00531696 1.98918e-21)
(0.999581 0.00541017 -2.48222e-22)
(0.999582 0.00550293 -2.46703e-22)
(0.999584 0.0055949 0)
(0.999589 0.00568541 3.81202e-23)
(0.999596 0.00577412 -2.13162e-22)
(0.999605 0.00586076 0)
(0.999616 0.00594469 0)
(0.99963 0.00602555 -1.9179e-21)
(0.999646 0.00610308 1.91754e-21)
(0.999664 0.00617674 -3.80023e-21)
(0.999684 0.00624616 3.79897e-21)
(0.999706 0.00631108 0)
(0.99973 0.00637101 0)
(0.999755 0.00642564 0)
(0.999783 0.00647476 -9.28346e-22)
(0.999813 0.00651781 -1.84823e-21)
(0.999844 0.0065546 0)
(0.999877 0.00658492 -9.13566e-22)
(0.999912 0.00660821 -9.00065e-22)
(0.999949 0.00662451 2.71915e-21)
(0.999987 0.00663329 0)
(1.00003 0.00663429 3.56568e-21)
(1.00007 0.00662754 -5.33552e-21)
(1.00011 0.00661228 0)
(1.00016 0.00658887 0)
(1.0002 0.0065566 0)
(1.00025 0.00651482 -1.73536e-21)
(1.0003 0.0064602 -1.72234e-21)
(0.999983 0.00513896 -2.09886e-21)
(0.999919 0.00517375 4.20047e-21)
(0.999848 0.00521756 4.19049e-21)
(0.999776 0.00526955 6.2583e-21)
(0.999706 0.00533129 -2.09144e-21)
(0.999639 0.00540189 -4.14832e-21)
(0.999576 0.00548085 8.29186e-21)
(0.999516 0.00556866 -5.23649e-24)
(0.999461 0.00566331 -2.05986e-21)
(0.999409 0.00576567 2.06178e-21)
(0.999361 0.00587427 0)
(0.999317 0.00598872 2.04356e-21)
(0.999277 0.00610917 -2.02895e-21)
(0.999242 0.00623379 8.14034e-21)
(0.999211 0.00636307 -8.1155e-21)
(0.999184 0.00649586 6.07989e-21)
(0.999161 0.00663133 -1.01439e-21)
(0.999143 0.0067699 1.00704e-21)
(0.999129 0.00690968 9.99884e-22)
(0.99912 0.00705057 -1.00014e-21)
(0.999115 0.00719238 0)
(0.999114 0.00733369 -1.48263e-21)
(0.999118 0.00747431 1.23916e-21)
(0.999126 0.00761379 9.84872e-22)
(0.999139 0.00775105 4.58466e-23)
(0.999156 0.0078857 9.11529e-23)
(0.999178 0.0080174 1.45446e-21)
(0.999203 0.00814514 -9.68252e-22)
(0.999233 0.00826847 1.91911e-21)
(0.999268 0.00838708 -1.9188e-21)
(0.999306 0.00850009 0)
(0.999348 0.00860709 4.73214e-21)
(0.999394 0.00870768 -3.78165e-21)
(0.999444 0.00880111 3.7443e-21)
(0.999498 0.00888705 -3.74294e-21)
(0.999556 0.00896513 0)
(0.999617 0.00903456 3.68268e-21)
(0.999681 0.00909514 -1.84488e-21)
(0.999749 0.00914652 0)
(0.999821 0.00918791 3.62444e-21)
(0.999896 0.00921941 -3.62037e-21)
(0.999974 0.00924023 1.795e-21)
(1.00005 0.00925005 1.78534e-21)
(1.00014 0.00924889 5.32093e-21)
(1.00023 0.00923567 6.64614e-24)
(1.00032 0.00921089 3.51434e-21)
(1.00041 0.00917341 1.73806e-21)
(1.00051 0.0091225 1.72408e-21)
(1.00061 0.00905628 1.72288e-21)
(0.999825 0.00597486 0)
(0.999722 0.00603206 -4.20455e-21)
(0.999608 0.00610558 -4.19244e-21)
(0.999492 0.00618942 0)
(0.999379 0.00628572 -4.17589e-21)
(0.99927 0.00639347 1.27557e-23)
(0.999167 0.00651214 8.34507e-21)
(0.999069 0.00664257 -2.08986e-21)
(0.998979 0.00678178 -1.32036e-23)
(0.998895 0.00693129 -6.19903e-21)
(0.998817 0.00708888 0)
(0.998746 0.00725413 -6.1636e-21)
(0.998683 0.0074274 2.06004e-21)
(0.998626 0.00760593 0)
(0.998577 0.0077907 -2.04245e-21)
(0.998534 0.00797996 1.06477e-23)
(0.998499 0.00817264 -2.0205e-21)
(0.998472 0.00836954 7.05911e-21)
(0.998451 0.00856776 -1.55597e-23)
(0.998438 0.00876741 -1.01508e-21)
(0.998433 0.00896829 -9.98428e-22)
(0.998435 0.00916831 1.98267e-21)
(0.998444 0.00936737 -1.98296e-21)
(0.99846 0.00956491 -2.4463e-22)
(0.998484 0.00975934 5.06912e-22)
(0.998516 0.00995028 -2.73122e-22)
(0.998554 0.0101373 9.72169e-22)
(0.998599 0.0103189 -9.70106e-22)
(0.998652 0.0104947 9.65279e-22)
(0.998711 0.0106642 1.91276e-21)
(0.998778 0.0108262 -5.71822e-21)
(0.99885 0.0109802 -9.29359e-22)
(0.99893 0.0111258 5.6765e-21)
(0.999016 0.0112618 1.88042e-21)
(0.999108 0.0113879 -3.72666e-21)
(0.999206 0.0115036 3.72444e-21)
(0.99931 0.011608 9.79163e-24)
(0.99942 0.0117006 5.51146e-21)
(0.999536 0.0117811 -3.67223e-21)
(0.999658 0.0118486 -9.08749e-21)
(0.999784 0.011903 3.60957e-21)
(0.999916 0.0119435 1.79317e-21)
(1.00005 0.0119695 7.12238e-21)
(1.0002 0.0119813 -3.5554e-21)
(1.00034 0.0119773 -1.10587e-23)
(1.0005 0.0119583 -1.21756e-23)
(1.00065 0.0119227 0)
(1.00082 0.0118699 -3.46051e-21)
(1.00099 0.0117998 -3.42972e-21)
(0.999553 0.00642156 0)
(0.999404 0.00651124 -6.36414e-21)
(0.999236 0.00662541 6.35191e-21)
(0.999065 0.00675202 0)
(0.998895 0.00689408 0)
(0.998733 0.00705041 -4.19048e-21)
(0.998578 0.00722048 -3.3036e-24)
(0.998433 0.00740558 -4.18718e-21)
(0.998297 0.00760158 -8.74087e-24)
(0.998171 0.00781081 0)
(0.998055 0.00803016 0)
(0.99795 0.00825923 2.06011e-21)
(0.997855 0.00849861 0)
(0.997771 0.00874446 0)
(0.997698 0.00899835 -2.04569e-21)
(0.997635 0.00925784 4.10161e-21)
(0.997584 0.00952159 2.04118e-21)
(0.997544 0.00979085 0)
(0.997515 0.0100615 2.00341e-21)
(0.997497 0.010334 -5.0396e-21)
(0.997491 0.0106081 -2.00381e-21)
(0.997496 0.0108809 -1.99078e-21)
(0.997512 0.0111525 1.99097e-21)
(0.997539 0.0114221 1.4286e-24)
(0.997577 0.0116876 1.5432e-23)
(0.997627 0.0119486 2.44457e-22)
(0.997687 0.0122047 -4.8887e-22)
(0.997758 0.0124537 0)
(0.99784 0.0126952 -9.63842e-22)
(0.997932 0.0129287 0)
(0.998035 0.0131526 0)
(0.998147 0.0133664 -1.90541e-21)
(0.99827 0.0135693 -7.55553e-21)
(0.998402 0.01376 2.55364e-23)
(0.998544 0.0139382 1.87719e-21)
(0.998695 0.0141032 0)
(0.998855 0.0142537 -1.84631e-21)
(0.999024 0.0143895 -3.67781e-21)
(0.999201 0.0145099 3.64943e-21)
(0.999387 0.0146138 7.25995e-21)
(0.99958 0.0147014 -7.21393e-21)
(0.999782 0.0147714 -3.95533e-25)
(0.999991 0.0148233 -3.56311e-21)
(1.00021 0.0148574 -3.52914e-24)
(1.00043 0.0148718 0)
(1.00066 0.0148676 -3.49583e-21)
(1.0009 0.0148426 -1.73009e-21)
(1.00115 0.0147963 1.72882e-21)
(1.00142 0.0147316 3.4303e-21)
(0.999133 0.00638403 0)
(0.998927 0.0065187 4.25467e-21)
(0.998693 0.0066866 -1.27836e-20)
(0.998453 0.00686917 0)
(0.998215 0.00707068 0)
(0.997985 0.00728964 -8.46765e-21)
(0.997766 0.00752558 8.42949e-21)
(0.997559 0.00778035 -4.22493e-21)
(0.997366 0.0080484 -8.7781e-24)
(0.997187 0.00833315 4.19141e-21)
(0.997023 0.00863036 0)
(0.996873 0.00893972 0)
(0.996738 0.00926207 4.16737e-21)
(0.996619 0.00959227 0)
(0.996515 0.0099327 0)
(0.996426 0.01028 -4.10978e-21)
(0.996354 0.0106326 1.67508e-23)
(0.996298 0.0109922 0)
(0.996257 0.0113534 2.02409e-21)
(0.996233 0.0117169 5.05922e-21)
(0.996225 0.0120825 -2.02678e-21)
(0.996233 0.0124463 0)
(0.996257 0.0128086 -9.96371e-22)
(0.996297 0.0131685 1.24449e-21)
(0.996353 0.0135231 -5.42294e-22)
(0.996425 0.0138722 -2.47017e-22)
(0.996513 0.0142149 4.85658e-22)
(0.996616 0.0145489 -9.76991e-22)
(0.996735 0.0148736 0)
(0.996868 0.0151882 -3.85708e-21)
(0.997016 0.0154907 5.74695e-21)
(0.997179 0.0157806 1.88175e-21)
(0.997356 0.0160569 -9.76674e-24)
(0.997547 0.0163181 1.87652e-21)
(0.997751 0.0165636 -1.88661e-21)
(0.997969 0.0167927 -3.71196e-21)
(0.998199 0.0170038 7.39826e-21)
(0.998442 0.0171966 -3.6799e-21)
(0.998696 0.0173704 7.31747e-21)
(0.998963 0.0175237 3.35567e-24)
(0.99924 0.017657 7.20987e-21)
(0.999529 0.0177686 -3.58041e-21)
(0.999828 0.017858 0)
(1.00014 0.0179255 -4.1582e-24)
(1.00046 0.017969 7.01221e-21)
(1.00079 0.0179899 0)
(1.00113 0.0179853 0)
(1.00149 0.0179551 6.00445e-21)
(1.00186 0.0179062 8.55816e-22)
(0.998525 0.00576869 1.07736e-21)
(0.998247 0.0059632 7.57334e-21)
(0.997934 0.00619969 8.55312e-21)
(0.99761 0.00645339 -8.61561e-21)
(0.997287 0.00673036 0)
(0.996973 0.00702865 -1.2279e-23)
(0.996674 0.00734783 -4.2967e-21)
(0.996391 0.00769034 -4.28002e-21)
(0.996126 0.00804904 1.2732e-20)
(0.99588 0.00842862 -4.22973e-21)
(0.995654 0.00882351 0)
(0.995448 0.00923352 8.41629e-21)
(0.995262 0.00965977 -8.3588e-21)
(0.995097 0.0100956 3.00796e-23)
(0.994953 0.0105444 8.3157e-21)
(0.994831 0.0110016 -2.08854e-21)
(0.994731 0.0114654 -2.0248e-21)
(0.994653 0.0119382 4.11928e-21)
(0.994597 0.0124127 0)
(0.994563 0.0128904 -2.03016e-21)
(0.994552 0.0133706 2.03048e-21)
(0.994562 0.0138487 2.01579e-21)
(0.994596 0.0143251 -2.01572e-21)
(0.994651 0.0147984 2.51282e-22)
(0.994728 0.0152654 3.09936e-23)
(0.994828 0.0157255 7.40541e-22)
(0.994949 0.0161778 -2.97818e-24)
(0.995092 0.0166193 0)
(0.995256 0.0170493 0)
(0.995441 0.0174668 -1.49536e-26)
(0.995646 0.0178694 -1.90817e-21)
(0.995871 0.0182564 3.83795e-21)
(0.996115 0.0186266 -3.80393e-21)
(0.996379 0.018978 3.76654e-21)
(0.996662 0.0193101 -7.52914e-21)
(0.996962 0.0196219 1.86498e-23)
(0.997279 0.0199115 3.7158e-21)
(0.997614 0.0201785 3.66823e-21)
(0.997964 0.0204223 -7.33082e-21)
(0.998331 0.0206409 -7.26813e-21)
(0.998712 0.0208349 -3.61497e-21)
(0.999108 0.0210024 -3.58837e-21)
(0.999517 0.0211429 0)
(0.99994 0.0212569 -3.52673e-21)
(1.00038 0.0213416 -1.43271e-23)
(1.00083 0.021399 6.93738e-21)
(1.00129 0.0214255 -8.60145e-21)
(1.00178 0.0214216 1.68973e-21)
(1.00229 0.0213995 0)
(0.997687 0.00448016 0)
(0.99732 0.00475225 -8.66746e-21)
(0.996909 0.00507346 0)
(0.996481 0.0054149 8.62843e-21)
(0.996053 0.00578547 4.31933e-21)
(0.995636 0.00618242 -8.62916e-21)
(0.995237 0.00660529 1.28807e-20)
(0.994859 0.00705711 4.27068e-21)
(0.994503 0.00752886 -4.26181e-21)
(0.994173 0.00802672 0)
(0.993868 0.0085435 4.25208e-21)
(0.99359 0.00907919 -8.47698e-21)
(0.993338 0.00963512 4.25761e-21)
(0.993115 0.010203 -4.19535e-21)
(0.99292 0.0107871 3.43154e-23)
(0.992754 0.0113819 4.19398e-21)
(0.992617 0.011985 -8.34483e-21)
(0.99251 0.0125995 0)
(0.992432 0.0132163 4.12531e-21)
(0.992384 0.0138373 -4.12523e-21)
(0.992366 0.0144617 -1.01898e-21)
(0.992379 0.0150836 0)
(0.992421 0.0157037 1.01953e-21)
(0.992494 0.0163203 2.51955e-22)
(0.992597 0.0169291 -5.34397e-22)
(0.992729 0.0175297 7.47939e-22)
(0.992891 0.0181207 4.91603e-22)
(0.993082 0.0186985 -9.88632e-22)
(0.993302 0.0192622 0)
(0.99355 0.0198106 -1.94128e-21)
(0.993825 0.0203405 3.8823e-21)
(0.994128 0.0208511 0)
(0.994456 0.021341 1.90397e-21)
(0.994811 0.0218077 0)
(0.99519 0.0222504 3.75762e-21)
(0.995593 0.022668 -7.47744e-21)
(0.996019 0.0230583 3.69753e-21)
(0.996467 0.0234206 -2.59887e-23)
(0.996937 0.0237543 3.62596e-21)
(0.997427 0.0240569 -3.64229e-21)
(0.997936 0.0243294 3.59994e-21)
(0.998464 0.0245694 7.14386e-21)
(0.999009 0.0247763 0)
(0.999572 0.0249511 0)
(1.00015 0.0250901 -6.98906e-21)
(1.00075 0.0251962 -1.38436e-20)
(1.00136 0.0252648 1.37318e-20)
(1.002 0.025297 -7.67826e-21)
(1.00268 0.0253129 7.58684e-21)
(0.996569 0.0024194 0)
(0.996103 0.00278637 8.87026e-21)
(0.99557 0.00320613 8.84531e-21)
(0.995012 0.00365315 1.32262e-20)
(0.994453 0.00413855 -1.32044e-20)
(0.993906 0.00465699 -4.36689e-21)
(0.993381 0.00520751 1.31554e-20)
(0.992881 0.00579386 -4.34421e-21)
(0.99241 0.00640518 4.34667e-21)
(0.991972 0.00704932 0)
(0.991566 0.00771721 8.69097e-21)
(0.991195 0.00840901 0)
(0.990859 0.00912622 -4.25869e-21)
(0.990559 0.00985863 -4.30261e-21)
(0.990297 0.0106118 5.69565e-23)
(0.990072 0.0113786 0)
(0.989886 0.0121563 4.23413e-21)
(0.989738 0.0129483 8.44015e-21)
(0.98963 0.013744 0)
(0.989562 0.0145455 2.07605e-21)
(0.989533 0.0153516 -2.07536e-21)
(0.989545 0.0161553 -2.05418e-21)
(0.989597 0.0169572 2.06588e-21)
(0.989689 0.017755 -4.59482e-24)
(0.98982 0.0185439 -5.07684e-22)
(0.989993 0.0193228 -2.23196e-22)
(0.990204 0.0200902 -5.01475e-22)
(0.990454 0.0208415 9.98624e-22)
(0.990743 0.0215754 0)
(0.991069 0.0222903 1.95363e-21)
(0.991432 0.0229825 -3.89179e-21)
(0.991831 0.0236507 0)
(0.992265 0.0242931 0)
(0.992733 0.0249066 3.79279e-21)
(0.993233 0.0254901 -7.55786e-21)
(0.993765 0.0260424 3.76912e-21)
(0.994327 0.0265605 3.73278e-21)
(0.994918 0.0270437 0)
(0.995536 0.0274912 1.09693e-20)
(0.996179 0.0279001 -7.25912e-21)
(0.996848 0.0282717 -3.5864e-21)
(0.997539 0.028603 -1.85432e-24)
(0.998252 0.0288933 -7.07343e-21)
(0.998987 0.0291441 -7.00378e-21)
(0.999741 0.0293511 -6.9451e-21)
(1.00052 0.0295178 2.69496e-23)
(1.00132 0.0296387 -3.3152e-23)
(1.00214 0.0297159 0)
(1.00301 0.0297796 -1.34265e-20)
(0.995162 -0.000495599 0)
(0.994531 5.61846e-06 2.34803e-21)
(0.993835 0.000477691 -1.10974e-20)
(0.993115 0.00104132 -8.85873e-21)
(0.992397 0.00166476 8.83704e-21)
(0.991695 0.00233045 4.50813e-21)
(0.991012 0.0030375 -4.36674e-21)
(0.990358 0.00378941 0)
(0.98974 0.00457341 0)
(0.989162 0.00539879 8.85564e-21)
(0.988626 0.00625419 -8.69896e-21)
(0.988134 0.00714004 4.36019e-21)
(0.987687 0.00805785 -4.35654e-21)
(0.987286 0.00899552 4.34757e-21)
(0.986934 0.00995979 4.34698e-21)
(0.98663 0.010942 -4.30716e-21)
(0.986377 0.0119389 -4.25092e-21)
(0.986174 0.0129543 -4.22949e-21)
(0.986022 0.0139755 4.22849e-21)
(0.985923 0.0150053 -4.2274e-21)
(0.985876 0.0160414 0)
(0.985883 0.0170757 2.10084e-21)
(0.985943 0.0181088 -2.06324e-21)
(0.986056 0.0191375 1.54485e-21)
(0.986222 0.020156 0)
(0.986441 0.0211627 1.01719e-21)
(0.986713 0.0221553 0)
(0.987036 0.0231286 -9.97346e-22)
(0.987411 0.0240804 1.88226e-23)
(0.987836 0.0250084 1.44051e-23)
(0.988309 0.0259082 3.93813e-21)
(0.988831 0.0267777 0)
(0.989398 0.0276148 0)
(0.99001 0.0284152 0)
(0.990664 0.0291776 0)
(0.99136 0.0299005 -7.51912e-21)
(0.992095 0.0305801 3.74414e-21)
(0.992866 0.0312153 0)
(0.993672 0.0318053 -3.66864e-21)
(0.99451 0.0323464 -3.64598e-21)
(0.995378 0.0328404 7.189e-21)