/*--------------------------------*- C++ -*----------------------------------*\
| =========                 |                                                 |
| \\      /  F ield         | OpenFOAM: The Open Source CFD Toolbox           |
|  \\    /   O peration     | Version:  2312                                  |
|   \\  /    A nd           | Website:  www.openfoam.com                      |
|    \\/     M anipulation  |                                                 |
\*---------------------------------------------------------------------------*/
FoamFile
{
    version     2.0;
    format      ascii;
    arch        "LSB;label=32;scalar=64";
    class       surfaceScalarField;
    location    "36.853265615079593";
    object      phi;
}
// * * * * * * * * * * * * * * * * * * * * * * * * * * * * * * * * * * * * * //

dimensions      [0 3 -1 0 0 0 0];

oriented        oriented;

internalField   nonuniform List<scalar> 
41713
(
0.00736611
0.0568803
0.00362845
0.0679841
0.00211658
0.0657583
0.00148433
0.0648787
0.00109855
0.0646322
0.000844257
0.0645007
0.000668971
0.0644217
0.000541773
0.0643736
0.000446056
0.0643422
0.000372165
0.0643203
0.000313976
0.0643046
0.000267436
0.064293
0.000229779
0.0642841
0.000199063
0.0642772
0.000173896
0.0642716
0.000153256
0.0642671
0.000136378
0.0642633
0.000122681
0.0642601
0.000111705
0.0642574
0.000103071
0.0642551
9.64208e-05
0.0642531
9.13964e-05
0.0642515
8.77155e-05
0.0642501
8.51183e-05
0.0548138
8.29339e-05
0.0456782
8.09275e-05
0.0380653
7.90889e-05
0.0317213
7.7432e-05
0.0264345
0.0220289
7.59258e-05
0.00999609
0.0468842
0.00843138
0.0695488
0.00571924
0.0684705
0.00412559
0.0664723
0.00312514
0.0656327
0.00243402
0.0651918
0.00193642
0.0649193
0.0015669
0.0647432
0.00128515
0.0646239
0.00106539
0.0645401
0.000890662
0.0644793
0.000749597
0.064434
0.000634342
0.0643993
0.000539356
0.0643721
0.00046065
0.0643503
0.0003953
0.0643324
0.000341134
0.0643175
0.000296508
0.0643048
0.000260156
0.0642938
0.000231083
0.0642841
0.000208474
0.0642757
0.000191617
0.0642683
0.000179794
0.0642619
0.000172793
0.0548208
0.000168549
0.0456824
0.000165725
0.0380681
0.000163551
0.0317234
0.000161655
0.0264364
0.0220305
0.000160036
0.00859903
0.0382852
0.00971409
0.0684337
0.00747698
0.0707076
0.00570845
0.0682409
0.00452099
0.0668201
0.00363672
0.0660761
0.00295532
0.0656007
0.0024252
0.0652733
0.00200768
0.0650414
0.00167419
0.0648736
0.00140431
0.0647492
0.0011834
0.064655
0.00100091
0.0645818
0.000849131
0.0645239
0.000722399
0.064477
0.00061649
0.0644383
0.000528228
0.0644057
0.000455203
0.0643778
0.000395558
0.0643534
0.000347847
0.0643319
0.000310913
0.0643126
0.000283791
0.0642954
0.00026551
0.0642802
0.000255643
0.0548306
0.000250579
0.0456875
0.000247898
0.0380708
0.000246203
0.0317251
0.000244828
0.0264378
0.0220316
0.000243691
0.00677767
0.0315075
0.00948275
0.0657287
0.00813088
0.0720594
0.00645258
0.0699192
0.00526356
0.0680092
0.00436048
0.0669792
0.00363159
0.0663296
0.00303749
0.0658674
0.00255105
0.0655279
0.00215022
0.0652744
0.00181773
0.0650817
0.00154019
0.0649325
0.0013073
0.0648147
0.00111115
0.0647201
0.000945709
0.0646425
0.000806342
0.0645777
0.000689498
0.0645226
0.000592437
0.0644748
0.000513037
0.0644328
0.000449636
0.0643953
0.000400915
0.0643614
0.000365772
0.0643306
0.000343015
0.064303
0.000331776
0.0548419
0.000326993
0.0456923
0.000325284
0.0380725
0.000324747
0.0317257
0.000324534
0.026438
0.0220317
0.000324518
0.00506749
0.02644
0.00857836
0.0622178
0.00819503
0.0724428
0.00675425
0.0713599
0.0056021
0.0691613
0.0047299
0.0678514
0.00401587
0.0670436
0.00341607
0.0664672
0.00290954
0.0660344
0.00248035
0.0657036
0.00211553
0.0654465
0.00180458
0.0652434
0.00153902
0.0650803
0.00131208
0.064947
0.00111838
0.0648362
0.000953654
0.0647424
0.000814559
0.0646617
0.000698472
0.0645909
0.000603338
0.0645279
0.00052754
0.0644711
0.000469787
0.0644191
0.000428982
0.0643714
0.000403823
0.0643281
0.000392857
0.0548528
0.000389684
0.0456954
0.000390073
0.0380721
0.00039169
0.0317241
0.000393526
0.0264362
0.0220298
0.000395403
0.00362035
0.0228197
0.00732003
0.0585181
0.00779889
0.0719639
0.00674511
0.0724137
0.0056889
0.0702175
0.00486867
0.0686716
0.00419332
0.067719
0.0036143
0.0670462
0.00311367
0.066535
0.00267989
0.0661374
0.00230344
0.065823
0.00197647
0.0655704
0.00169253
0.0653642
0.00144634
0.0651932
0.00123362
0.0650489
0.00105089
0.0649252
0.000895403
0.0648172
0.000764957
0.0647214
0.000657836
0.0646351
0.000572691
0.0645562
0.000508451
0.0644833
0.000464176
0.0644157
0.000438609
0.0643537
0.000429572
0.0548619
0.000429414
0.0456956
0.000433123
0.0380684
0.00043798
0.0317192
0.00044283
0.0264313
0.0220252
0.000447445
0.00252439
0.0202953
0.00602712
0.0550154
0.00711517
0.0708759
0.00649325
0.0730356
0.00558801
0.0711228
0.0048395
0.0694201
0.00421742
0.0683411
0.00367444
0.0675892
0.00319452
0.067015
0.00277001
0.0665619
0.00239464
0.0661984
0.00206298
0.0659021
0.0017705
0.0656567
0.00151341
0.0654503
0.00128861
0.0652737
0.00109356
0.0651202
0.000926258
0.0649845
0.000785121
0.0648625
0.000668943
0.0647512
0.000576815
0.0646483
0.000508044
0.0645521
0.000462001
0.0644617
0.000437611
0.0643781
0.000431872
0.0548676
0.000435941
0.0456915
0.000444085
0.0380603
0.000453226
0.0317101
0.000462064
0.0264225
0.0220169
0.000470312
0.00175952
0.0185358
0.00489523
0.0518797
0.00633782
0.0694333
0.00610038
0.0732731
0.00536458
0.0718586
0.00469297
0.0700918
0.00412732
0.0689067
0.00362703
0.0680895
0.00317585
0.0674661
0.00276866
0.0669691
0.00240195
0.0665651
0.00207257
0.0662314
0.00177775
0.0659515
0.00151513
0.0657129
0.00128278
0.0655061
0.00107912
0.0653239
0.000902978
0.0651606
0.000753463
0.065012
0.000629991
0.0648747
0.000532214
0.0647461
0.000459945
0.0646244
0.000412995
0.0645087
0.000390611
0.0644005
0.00038898
0.0548692
0.000398124
0.0456824
0.000411607
0.0380468
0.00042598
0.0316957
0.000439754
0.0264087
0.0220041
0.00045254
0.00124805
0.0172877
0.00397269
0.049155
0.00558085
0.0678251
0.00564984
0.0732041
0.00507859
0.0724298
0.00447851
0.0706918
0.00396186
0.0694234
0.00350145
0.0685499
0.00307984
0.0678877
0.00269252
0.0673564
0.00233771
0.0669199
0.00201395
0.0665552
0.00171993
0.0662456
0.00145455
0.0659783
0.00121693
0.0657437
0.00100645
0.0655343
0.000822729
0.0653443
0.000665628
0.0651691
0.000535241
0.0650051
0.000431861
0.0648495
0.000355917
0.0647003
0.00030779
0.0645568
0.000287193
0.0644211
0.000289685
0.0548668
0.000304171
0.0456679
0.000323492
0.0380275
0.000343788
0.0316754
0.000363315
0.0263892
0.021986
0.000381492
0.000912899
0.0163748
0.00324062
0.0468273
0.00488763
0.0661781
0.0051852
0.0729065
0.00476471
0.0728503
0.00422971
0.0712268
0.00375192
0.0699012
0.00332356
0.0689783
0.00292721
0.0682841
0.0025578
0.0677258
0.00221428
0.0672634
0.00189625
0.0668732
0.00160342
0.0665384
0.00133566
0.066246
0.00109298
0.0659864
0.000875574
0.0657517
0.000683821
0.0655361
0.000518314
0.0653346
0.000379856
0.0651436
0.00026945
0.0649599
0.000188235
0.0647815
0.000137263
0.0646078
0.00011686
0.0644415
0.000122327
0.0548613
0.000141526
0.0456487
0.000166499
0.0380025
0.00019288
0.031649
0.000218694
0.0263634
0.0219617
0.000242952
0.00069432
0.0156805
0.00266585
0.0448558
0.0042709
0.0645731
0.0047276
0.0724498
0.00443912
0.0731388
0.00396369
0.0717022
0.00351621
0.0703486
0.00311142
0.069383
0.00273406
0.0686614
0.00237818
0.0680817
0.00204288
0.0675987
0.00172832
0.0671878
0.00143488
0.0668318
0.0011631
0.0665178
0.000913688
0.0662358
0.000687497
0.0659779
0.000485598
0.065738
0.000309291
0.0655109
0.000160058
0.0652928
3.95794e-05
0.0650804
-5.02575e-05
0.0648714
-0.000107569
0.0646651
-0.000131214
0.0644651
-0.000125441
0.0548555
-0.000103402
0.0456266
-7.39566e-05
0.0379731
-4.22473e-05
0.0316173
-1.09826e-05
0.0263321
0.0219317
1.89922e-05
0.000548747
0.0151318
0.00221447
0.0431901
0.00373058
0.063057
0.00428899
0.0718914
0.00411099
0.0733168
0.00368948
0.0721238
0.00326557
0.0707725
0.00287666
0.0697719
0.00251173
0.0690264
0.00216416
0.0684293
0.0018328
0.0679301
0.00151805
0.0675026
0.00122071
0.0671292
0.000941775
0.0667967
0.000682438
0.0664951
0.000444123
0.0662162
0.000228469
0.0659537
3.73048e-05
0.0657021
-0.000127279
0.0654574
-0.000262845
0.0652159
-0.000366651
0.0649752
-0.000435914
0.0647343
-0.000468562
0.0644978
-0.000467329
0.0548543
-0.000446176
0.0456055
-0.000414813
0.0379417
-0.00037899
0.0315815
-0.000341978
0.0262951
0.0218957
-0.00030591
0.000446985
0.0146848
0.00185645
0.0417806
0.0032601
0.0616533
0.00387586
0.0712756
0.00378676
0.0734059
0.00341299
0.0724975
0.00300723
0.0711783
0.00262751
0.0701517
0.0022687
0.0693852
0.00192401
0.068774
0.00159182
0.0682623
0.00127252
0.0678218
0.0009671
0.0674346
0.000676839
0.067087
0.000403295
0.0667687
0.000148236
0.0664713
-8.63466e-05
0.0661882
-0.000298101
0.0659139
-0.000484233
0.0656435
-0.000641537
0.0653732
-0.000766511
0.0651002
-0.000855554
0.0648234
-0.00090575
0.064548
-0.0009168
0.0548653
-0.000902885
0.0455916
-0.000874414
0.0379132
-0.000837983
0.031545
-0.000797774
0.0262549
0.0218545
-0.000756646
0.000371409
0.0143134
0.00156815
0.0405839
0.00285057
0.0603709
0.00349083
0.0706354
0.00347081
0.0734259
0.00313851
0.0728298
0.00274662
0.0715702
0.00237056
0.0705277
0.00201216
0.0697436
0.00166509
0.069121
0.0013272
0.0686002
0.000998674
0.0681504
0.000680506
0.0677527
0.000374114
0.0673934
8.11003e-05
0.0670617
-0.000196579
0.066749
-0.000456557
0.0664482
-0.000695921
0.0661532
-0.000911264
0.0658588
-0.00109874
0.0655607
-0.00125417
0.0652556
-0.00137335
0.0649426
-0.00145295
0.0646276
-0.00148813
0.0549005
-0.00149249
0.0455959
-0.00147638
0.0378971
-0.00144675
0.0315154
-0.00140877
0.0262169
0.0218125
-0.00136671
0.000311952
0.0140014
0.00133386
0.039562
0.00249619
0.0592085
0.00313656
0.069995
0.00316682
0.0733956
0.00286902
0.0731276
0.0024874
0.0719518
0.0021106
0.0709045
0.00174775
0.0701064
0.00139352
0.0694753
0.00104531
0.0689484
0.000702955
0.0684927
0.000367295
0.0680884
3.95314e-05
0.0677212
-0.000278691
0.0673799
-0.000585345
0.0670556
-0.000877689
0.0667406
-0.00115241
0.066428
-0.00140559
0.066112
-0.00163277
0.0657879
-0.00182917
0.065452
-0.00199042
0.0651038
-0.00211387
0.064751
-0.00218946
0.0549761
-0.00222984
0.0456363
-0.00224375
0.037911
-0.00223636
0.031508
-0.00221226
0.0261928
0.0217771
-0.00217689
0.000226572
0.0137749
0.000973673
0.0388149
0.00186441
0.0583178
0.00239268
0.0694667
0.00244613
0.0733422
0.0022171
0.0733567
0.00190127
0.0722676
0.00158085
0.0712249
0.00126887
0.0704184
0.000961863
0.0697823
0.000657302
0.0692529
0.000354659
0.0687954
5.42982e-05
0.0683888
-0.000243037
0.0680185
-0.000536182
0.067673
-0.000823327
0.0673428
-0.00110214
0.0670194
-0.00136968
0.0666955
-0.00162227
0.0663646
-0.00185558
0.0660212
-0.00206483
0.0656612
-0.00224575
0.0652847
-0.00239663
0.0649019
-0.00250479
0.0550843
-0.00258248
0.045714
-0.00263678
0.0379653
-0.00266896
0.0315402
-0.00267884
0.0262027
0.0217681
-0.00266988
0.00016796
0.0136069
0.000721849
0.038261
0.00140545
0.0576342
0.00183362
0.0690386
0.00189281
0.073283
0.00171474
0.0735347
0.00145451
0.0725279
0.00118469
0.0714948
0.000919489
0.0706836
0.000656708
0.0700451
0.000393925
0.0695157
0.000130351
0.0690589
-0.000134116
0.0686532
-0.000399136
0.0682835
-0.00066389
0.0679378
-0.000927146
0.067606
-0.00118716
0.0672794
-0.00144158
0.0669499
-0.0016873
0.0666103
-0.00192037
0.0662543
-0.00213609
0.065877
-0.00232978
0.0654784
-0.00249885
0.065071
-0.00262733
0.0552127
-0.00272967
0.0458164
-0.00281744
0.0380531
-0.00289533
0.0316181
-0.00296097
0.0262683
0.021808
-0.00300086
0.00012864
0.0134782
0.000548025
0.0378416
0.0010791
0.0571031
0.00142557
0.0686921
0.00148267
0.0732259
0.00134232
0.0736751
0.00112765
0.0727425
0.000901056
0.0717214
0.000676474
0.0709082
0.000452523
0.070269
0.000226994
0.0697412
-1.08621e-06
0.069287
-0.000232043
0.0688842
-0.000465861
0.0685173
-0.000702167
0.0681741
-0.000940267
0.0678441
-0.00117904
0.0675182
-0.00141684
0.0671877
-0.0016513
0.0668448
-0.0018792
0.0664822
-0.00209633
0.0660941
-0.00229778
0.0656799
-0.00247873
0.0652519
-0.00261606
0.0553501
-0.00272202
0.0459223
-0.00281344
0.0381445
-0.00290464
0.0317093
-0.0030136
0.0263773
0.0219449
-0.00315045
9.78882e-05
0.0133804
0.000423484
0.037516
0.000844737
0.0566819
0.00112739
0.0684094
0.00117773
0.0731756
0.00106345
0.0737894
0.000884813
0.0729212
0.000694771
0.0719114
0.000505437
0.0710975
0.000315536
0.0704589
0.000123042
0.0699337
-7.30298e-05
0.0694831
-0.000273136
0.0690843
-0.000477469
0.0687217
-0.000686043
0.0683827
-0.000898629
0.0680567
-0.0011147
0.0677342
-0.00133329
0.0674063
-0.00155286
0.0670644
-0.0017712
0.0667005
-0.00198529
0.0663082
-0.00219137
0.0658859
-0.00238443
0.065445
-0.00253371
0.0554993
-0.00264003
0.0460286
-0.00271023
0.0382147
-0.00275433
0.0317534
-0.00279081
0.0264137
-0.00295585
0.0221099
0.000120517
0.0219828
0.000162587
0.0219853
0.000195715
0.0219942
0.000226498
0.0219966
0.00025146
0.0220024
0.00027189
0.0220069
0.000289287
0.02201
0.000300366
0.0220163
0.000309434
0.0220183
0.00031348
0.0220233
0.000314455
0.0220264
0.000312899
0.0220289
0.000306895
0.0220334
0.000299284
0.022035
0.000288417
0.0220382
0.000275239
0.0220405
0.000260718
0.0220419
0.000243213
0.0220449
0.000224635
0.0220459
0.000204808
0.0220472
0.00018341
0.0220488
0.000161386
0.0220494
0.000138684
0.0220501
0.000115463
0.0220506
9.21213e-05
0.0220507
6.88273e-05
0.0220506
4.59678e-05
0.0220502
2.35379e-05
0.0220498
1.85919e-06
0.022049
-1.84273e-05
0.0220476
-3.78215e-05
0.0220467
-5.54912e-05
0.022045
-7.11324e-05
0.022043
-8.55123e-05
0.0220417
-9.65886e-05
0.0220384
-0.000105687
0.0220365
-0.000112501
0.0220342
-0.000115133
0.02203
-0.000115978
0.0220282
-0.000112141
0.0220235
-0.000105139
0.0220204
-9.5007e-05
0.0220172
-7.90649e-05
0.0220114
-6.0956e-05
0.0220092
-3.61183e-05
0.0220025
-7.82919e-06
0.0219991
2.52779e-05
0.0219942
6.47523e-05
0.0219879
0.0219854
0.000106738
0.000204462
0.0219383
0.000246582
0.0219432
0.000279986
0.0219608
0.000311272
0.0219653
0.000336982
0.0219767
0.000358396
0.0219855
0.000377001
0.0219914
0.000389512
0.0220038
0.000400211
0.0220076
0.000406086
0.0220174
0.000409069
0.0220234
0.000409683
0.0220283
0.000406011
0.022037
0.000400864
0.0220401
0.000392592
0.0220465
0.000382123
0.022051
0.000370402
0.0220536
0.000355795
0.0220595
0.000340181
0.0220615
0.000323375
0.022064
0.000305051
0.0220671
0.000286127
0.0220683
0.000266543
0.0220696
0.000246452
0.0220707
0.000226227
0.0220709
0.000206028
0.0220708
0.000186238
0.02207
0.000166825
0.0220692
0.000148105
0.0220678
0.000130714
0.022065
0.000114123
0.0220633
9.91607e-05
0.02206
8.61171e-05
0.022056
7.41976e-05
0.0220537
6.54535e-05
0.0220472
5.8527e-05
0.0220434
5.37149e-05
0.022039
5.29165e-05
0.0220308
5.37013e-05
0.0220274
5.89731e-05
0.0220182
6.71893e-05
0.0220121
7.8302e-05
0.0220061
9.49941e-05
0.0219947
0.000113586
0.0219907
0.000138652
0.0219775
0.000166879
0.0219708
0.000199619
0.0219615
0.000238401
0.0219491
0.0219444
0.000279341
0.00028841
0.0218936
0.000331027
0.0219005
0.000365179
0.0219267
0.000397454
0.021933
0.000424398
0.0219497
0.000447282
0.0219626
0.000467575
0.0219711
0.000481995
0.0219893
0.000494796
0.0219948
0.000502965
0.0220093
0.000508416
0.0220179
0.000511656
0.0220251
0.000510768
0.0220379
0.000508533
0.0220423
0.000503302
0.0220517
0.000495981
0.0220583
0.000487497
0.0220621
0.000476223
0.0220707
0.000464001
0.0220738
0.00045064
0.0220773
0.000435811
0.0220819
0.000420401
0.0220837
0.000404344
0.0220857
0.000387786
0.0220872
0.000371075
0.0220876
0.000354359
0.0220876
0.00033802
0.0220863
0.000321995
0.0220852
0.000306592
0.0220832
0.000292445
0.0220792
0.000278992
0.0220768
0.000267063
0.0220719
0.000256934
0.0220662
0.000247782
0.0220628
0.00024167
0.0220533
0.000237207
0.0220478
0.000234679
0.0220415
0.000235989
0.0220295
0.000238667
0.0220247
0.00024563
0.0220113
0.000255307
0.0220025
0.000267634
0.0219938
0.000285302
0.0219771
0.000304588
0.0219714
0.000330085
0.021952
0.000358439
0.0219425
0.000390998
0.0219289
0.000429279
0.0219108
0.0219044
0.000469351
0.000370242
0.0218479
0.000414044
0.0218567
0.000449614
0.0218911
0.000483541
0.0218991
0.000512384
0.0219209
0.000537405
0.0219376
0.000560061
0.0219484
0.000577073
0.0219723
0.000592664
0.0219792
0.000603825
0.0219981
0.000612445
0.0220093
0.000619017
0.0220185
0.000621624
0.0220353
0.000623014
0.022041
0.000621537
0.0220532
0.000618081
0.0220618
0.000613549
0.0220666
0.00060632
0.022078
0.000598203
0.0220819
0.000588995
0.0220866
0.000578363
0.0220925
0.000567165
0.0220949
0.000555325
0.0220975
0.000542984
0.0220996
0.000530459
0.0221002
0.000517891
0.0221001
0.000505655
0.0220986
0.00049366
0.0220972
0.000482203
0.0220946
0.000471916
0.0220895
0.000462204
0.0220865
0.000453896
0.0220802
0.000447255
0.0220728
0.000441428
0.0220686
0.000438492
0.0220562
0.000437021
0.0220493
0.000437289
0.0220412
0.000441206
0.0220256
0.000446261
0.0220197
0.000455386
0.0220022
0.000466981
0.0219909
0.00048097
0.0219798
0.000500051
0.021958
0.000520458
0.021951
0.000546806
0.0219256
0.000575703
0.0219136
0.000608489
0.0218962
0.000646678
0.0218726
0.0218647
0.000686288
0.000443044
0.0218003
0.000488937
0.0218109
0.000526822
0.0218532
0.000563298
0.0218626
0.000594937
0.0218893
0.000622999
0.0219095
0.000648931
0.0219225
0.000669453
0.0219518
0.000688765
0.0219599
0.000703855
0.021983
0.000716592
0.0219966
0.000727453
0.0220076
0.000734517
0.0220282
0.000740501
0.022035
0.000743755
0.0220499
0.000745143
0.0220604
0.000745545
0.0220662
0.000743346
0.0220802
0.000740318
0.0220849
0.000736245
0.0220906
0.000730792
0.022098
0.000724782
0.0221009
0.000718131
0.0221042
0.00071097
0.0221067
0.000703587
0.0221075
0.000696111
0.0221076
0.000688914
0.0221058
0.000681869
0.0221043
0.000675266
0.0221012
0.000669731
0.022095
0.000664636
0.0220916
0.000660808
0.0220841
0.000658496
0.0220751
0.000656816
0.0220703
0.000657861
0.0220552
0.000660166
0.022047
0.000663994
0.0220374
0.000671266
0.0220183
0.000679425
0.0220115
0.000691425
0.0219902
0.000705633
0.0219767
0.00072196
0.0219635
0.000743122
0.0219368
0.000765302
0.0219288
0.00079315
0.0218978
0.000823229
0.0218835
0.00085688
0.0218625
0.000895616
0.0218339
0.021825
0.000935401
0.000498083
0.0217496
0.000547161
0.0217618
0.000588458
0.0218119
0.00062859
0.0218225
0.000664145
0.0218537
0.000696382
0.0218773
0.00072674
0.0218921
0.00075194
0.0219266
0.000776158
0.0219357
0.000796379
0.0219628
0.000814452
0.0219785
0.000830836
0.0219912
0.000843606
0.0220155
0.000855446
0.0220231
0.000864702
0.0220407
0.000872217
0.0220529
0.000878843
0.0220596
0.00088297
0.022076
0.000886331
0.0220816
0.000888695
0.0220883
0.000889721
0.022097
0.000890198
0.0221004
0.000890029
0.0221044
0.000889335
0.0221074
0.000888372
0.0221085
0.000887253
0.0221087
0.000886346
0.0221067
0.000885488
0.0221051
0.000884956
0.0221017
0.000885374
0.0220946
0.000886072
0.0220909
0.000887879
0.0220822
0.000891028
0.022072
0.000894598
0.0220667
0.000900703
0.0220491
0.000907836
0.0220399
0.000916249
0.022029
0.000927875
0.0220067
0.000940106
0.0219993
0.000955923
0.0219743
0.00097366
0.0219589
0.000993216
0.0219439
0.00101733
0.0219127
0.00104212
0.021904
0.00107229
0.0218676
0.00110436
0.0218514
0.00113966
0.0218272
0.00117971
0.0217938
0.0217843
0.00122041
0.000525198
0.0216947
0.000578746
0.0217082
0.00062476
0.0217659
0.000669881
0.0217774
0.000710707
0.0218129
0.000748502
0.0218395
0.000784701
0.0218559
0.000816019
0.0218953
0.000846616
0.0219051
0.000873468
0.0219359
0.000898405
0.0219536
0.000921867
0.0219678
0.000941919
0.0219954
0.000961217
0.0220038
0.000978095
0.0220238
0.000993373
0.0220376
0.00100788
0.0220451
0.00101999
0.0220639
0.00103142
0.0220701
0.0010419
0.0220778
0.00105109
0.0220878
0.00105973
0.0220918
0.00106773
0.0220964
0.00107517
0.0221
0.00108229
0.0221014
0.00108918
0.0221018
0.0010962
0.0220997
0.00110314
0.0220982
0.00111027
0.0220946
0.0011182
0.0220866
0.00112623
0.0220829
0.00113517
0.0220733
0.00114525
0.0220619
0.0011555
0.0220565
0.00116805
0.0220365
0.00118136
0.0220266
0.00119567
0.0220147
0.00121291
0.0219894
0.00123043
0.0219818
0.00125124
0.0219535
0.00127364
0.0219365
0.00129751
0.02192
0.00132562
0.0218846
0.00135403
0.0218756
0.00138749
0.0218341
0.00142247
0.0218165
0.0014603
0.0217894
0.00150252
0.0217516
0.0217418
0.00154496
0.000513075
0.0216342
0.000572546
0.0216488
0.00062477
0.0217137
0.000676421
0.0217257
0.000724105
0.0217652
0.000769091
0.0217945
0.000812815
0.0218122
0.000851979
0.0218561
0.000890737
0.0218663
0.000926046
0.0219006
0.000959719
0.0219199
0.000992177
0.0219353
0.00102147
0.0219661
0.00105022
0.0219751
0.00107674
0.0219973
0.00110185
0.0220125
0.00112632
0.0220206
0.00114853
0.0220417
0.00117014
0.0220485
0.00119088
0.022057
0.00121038
0.0220683
0.00122935
0.0220728
0.00124767
0.0220781
0.0012654
0.0220822
0.00128274
0.022084
0.00129976
0.0220848
0.0013168
0.0220826
0.00133362
0.0220814
0.00135046
0.0220778
0.00136791
0.0220692
0.00138523
0.0220656
0.00140323
0.0220553
0.0014221
0.022043
0.00144085
0.0220378
0.00146162
0.0220157
0.0014828
0.0220054
0.00150463
0.0219929
0.00152906
0.021965
0.00155338
0.0219575
0.00158062
0.0219263
0.00160905
0.0219081
0.00163853
0.0218906
0.00167187
0.0218513
0.00170506
0.0218424
0.00174292
0.0217963
0.00178184
0.0217775
0.00182319
0.021748
0.0018685
0.0217063
0.0216968
0.00191352
0.000449181
0.0215665
0.000516158
0.0215818
0.000576241
0.0216536
0.000636176
0.0216658
0.000692545
0.0217088
0.00074663
0.0217404
0.000799867
0.021759
0.000848935
0.0218071
0.000897991
0.0218173
0.000943962
0.0218547
0.000988649
0.0218752
0.00103245
0.0218915
0.00107338
0.0219252
0.00111405
0.0219344
0.00115275
0.0219586
0.00119024
0.021975
0.00122729
0.0219836
0.00126225
0.0220068
0.00129674
0.022014
0.00133046
0.0220233
0.00136301
0.0220357
0.00139506
0.0220408
0.00142644
0.0220467
0.00145722
0.0220515
0.00148752
0.0220537
0.0015174
0.0220549
0.00154717
0.0220529
0.00157652
0.022052
0.00160568
0.0220486
0.00163523
0.0220396
0.00166435
0.0220364
0.00169385
0.0220258
0.0017239
0.022013
0.00175343
0.0220082
0.00178462
0.0219846
0.0018158
0.0219742
0.00184717
0.0219615
0.00188072
0.0219314
0.00191365
0.0219245
0.00194904
0.0218909
0.00198511
0.021872
0.00202172
0.0218539
0.0020617
0.0218113
0.00210097
0.0218031
0.00214442
0.0217528
0.0021884
0.0217336
0.00223427
0.0217022
0.00228358
0.021657
0.0216484
0.00233201
0.000319313
0.0214901
0.000395526
0.0215056
0.000465325
0.0215838
0.000535487
0.0215956
0.000602556
0.0216418
0.000667887
0.0216751
0.000732926
0.0216939
0.000794302
0.0217457
0.000856191
0.0217554
0.000915466
0.0217954
0.000973921
0.0218168
0.00103193
0.0218335
0.00108745
0.0218697
0.0011431
0.0218788
0.00119711
0.0219046
0.00125022
0.0219219
0.00130316
0.0219306
0.00135423
0.0219557
0.00140502
0.0219632
0.00145518
0.0219732
0.00150428
0.0219866
0.00155294
0.0219921
0.00160094
0.0219987
0.00164831
0.0220041
0.00169512
0.0220069
0.00174137
0.0220087
0.00178734
0.0220069
0.00183268
0.0220067
0.00187754
0.0220038
0.00192249
0.0219947
0.00196663
0.0219923
0.00201076
0.0219817
0.002055
0.0219687
0.00209821
0.021965
0.00214259
0.0219402
0.00218641
0.0219304
0.00222982
0.0219181
0.00227484
0.0218864
0.00231858
0.0218808
0.00236417
0.0218453
0.00240978
0.0218264
0.00245523
0.0218085
0.00250342
0.0217631
0.0025502
0.0217563
0.00260052
0.0217025
0.00265066
0.0216834
0.00270203
0.0216508
0.00275618
0.0216029
0.0215958
0.0028087
0.00010564
0.0214035
0.000193214
0.021418
0.000275195
0.0215018
0.000357591
0.0215132
0.000437854
0.0215615
0.000517109
0.0215959
0.000596739
0.0216143
0.000673322
0.0216691
0.000751095
0.0216776
0.000826871
0.0217196
0.000902444
0.0217412
0.000978161
0.0217578
0.00105193
0.0217959
0.00112636
0.0218043
0.00119961
0.0218313
0.0012724
0.0218491
0.0013454
0.0218576
0.00141687
0.0218842
0.00148834
0.0218918
0.00155941
0.0219021
0.00162958
0.0219165
0.00169941
0.0219223
0.00176864
0.0219294
0.00183721
0.0219355
0.00190514
0.021939
0.00197235
0.0219415
0.00203907
0.0219402
0.00210486
0.0219409
0.00216982
0.0219388
0.00223446
0.02193
0.0022978
0.021929
0.00236058
0.0219189
0.00242288
0.0219064
0.00248347
0.0219044
0.00254456
0.0218791
0.00260431
0.0218706
0.00266286
0.0218595
0.00272222
0.0218271
0.00277941
0.0218236
0.00283761
0.0217871
0.00289492
0.0217691
0.00295116
0.0217523
0.00300927
0.021705
0.003065
0.0217006
0.00312344
0.0216441
0.00318078
0.0216261
0.00323845
0.0215931
0.00329806
0.0215432
0.0215388
0.00335509
-0.000208421
0.021306
-0.000109388
0.021319
-1.52699e-05
0.0214077
8.26161e-05
0.0214153
0.000178951
0.0214652
0.000275036
0.0214998
0.000372379
0.0215169
0.000467511
0.021574
0.00056479
0.0215803
0.000660935
0.0216235
0.000757753
0.0216444
0.000855564
0.02166
0.000952172
0.0216993
0.00105019
0.0217063
0.0011477
0.0217338
0.00124537
0.0217514
0.00134384
0.0217591
0.00144124
0.0217868
0.00153909
0.0217939
0.00163688
0.0218043
0.00173404
0.0218193
0.00183105
0.0218253
0.00192755
0.0218329
0.00202341
0.0218397
0.00211854
0.0218439
0.00221277
0.0218473
0.00230625
0.0218467
0.00239841
0.0218487
0.00248927
0.0218479
0.00257927
0.02184
0.00266728
0.0218409
0.00275399
0.0218322
0.0028394
0.021821
0.00292214
0.0218217
0.00300444
0.0217968
0.00308432
0.0217908
0.00316187
0.021782
0.00323911
0.0217498
0.00331292
0.0217498
0.00338656
0.0217135
0.00345804
0.0216976
0.00352716
0.0216831
0.00359696
0.0216352
0.00366305
0.0216345
0.0037307
0.0215764
0.00379598
0.0215608
0.00386041
0.0215287
0.00392565
0.021478
0.0214774
0.00398707
-0.000645777
0.0211951
-0.000531528
0.0212047
-0.000420749
0.0212969
-0.000307192
0.0213018
-0.000193729
0.0213517
-7.88795e-05
0.0213849
3.89175e-05
0.0213991
0.000155925
0.021457
0.000276424
0.0214598
0.000397014
0.0215029
0.00051991
0.0215215
0.000645011
0.0215349
0.000770081
0.0215742
0.000897755
0.0215786
0.00102595
0.0216056
0.00115523
0.0216222
0.00128615
0.0216282
0.00141671
0.0216563
0.00154838
0.0216622
0.00168053
0.0216722
0.00181248
0.0216873
0.0019446
0.0216931
0.00207641
0.0217011
0.00220767
0.0217084
0.00233813
0.0217134
0.00246748
0.0217179
0.00259578
0.0217184
0.00272225
0.0217223
0.00284679
0.0217234
0.00296973
0.0217171
0.00308973
0.0217209
0.00320739
0.0217145
0.00332258
0.0217059
0.00343375
0.0217105
0.00354311
0.0216874
0.0036485
0.0216854
0.00374992
0.0216806
0.00384942
0.0216503
0.00394368
0.0216555
0.00403606
0.0216211
0.00412445
0.0216092
0.00420864
0.0215989
0.00429181
0.021552
0.0043694
0.0215569
0.00444692
0.0214989
0.00452036
0.0214874
0.00459131
0.0214577
0.00466157
0.0214077
0.0214126
0.00472637
-0.00124391
0.0210723
-0.00111557
0.0210764
-0.0009888
0.0211701
-0.00085601
0.021169
-0.000721209
0.0212169
-0.000582996
0.0212467
-0.000439861
0.021256
-0.000295586
0.0213127
-0.000145546
0.0213098
6.53833e-06
0.0213508
0.000161678
0.0213663
0.000320729
0.0213758
0.000481404
0.0214136
0.000646613
0.0214134
0.000813728
0.0214385
0.000983305
0.0214526
0.00115581
0.0214557
0.001329
0.0214831
0.00150426
0.021487
0.00168084
0.0214956
0.00185791
0.0215103
0.00203572
0.0215153
0.00221361
0.0215233
0.00239118
0.0215308
0.00256798
0.0215366
0.00274351
0.0215424
0.00291763
0.0215443
0.00308931
0.0215506
0.00325822
0.0215545
0.0034245
0.0215508
0.00358653
0.0215589
0.00374473
0.0215563
0.00389877
0.0215518
0.00404681
0.0215625
0.00419106
0.0215432
0.00432905
0.0215474
0.00446066
0.021549
0.00458795
0.021523
0.00470732
0.0215362
0.00482226
0.0215061
0.00493052
0.021501
0.00503185
0.0214976
0.00512963
0.0214542
0.00521912
0.0214674
0.00530618
0.0214118
0.00538669
0.0214069
0.00546247
0.021382
0.0055355
0.0213347
0.0213472
0.00560092
-0.00204464
0.0209401
-0.00190321
0.0209349
-0.00176062
0.0210276
-0.00160881
0.0210172
-0.00145149
0.0210596
-0.00128688
0.0210821
-0.00111336
0.0210825
-0.000935132
0.0211345
-0.000747818
0.0211225
-0.000555597
0.0211586
-0.000356571
0.0211673
-0.000151291
0.0211706
5.69298e-05
0.0212053
0.000269964
0.0212004
0.000486459
0.021222
0.000708041
0.021231
0.000933988
0.0212298
0.00116214
0.0212549
0.00139381
0.0212553
0.0016281
0.0212613
0.00186407
0.0212743
0.00210178
0.0212776
0.00234037
0.0212847
0.00257926
0.0212919
0.00281766
0.0212982
0.00305478
0.0213053
0.0032902
0.0213088
0.00352245
0.0213183
0.00375083
0.0213261
0.00397521
0.0213264
0.00419342
0.0213407
0.00440563
0.0213441
0.00461117
0.0213463
0.00480775
0.0213659
0.00499753
0.0213534
0.00517761
0.0213673
0.00534767
0.0213789
0.00550979
0.0213609
0.00565995
0.021386
0.00580184
0.0213643
0.00593298
0.0213699
0.00605309
0.0213775
0.00616582
0.0213415
0.0062662
0.021367
0.00636064
0.0213174
0.00644498
0.0213225
0.00652143
0.0213055
0.00659233
0.0212638
0.0212868
0.00665272
-0.00256209
0.0208323
-0.00244356
0.0208164
-0.00231924
0.0209032
-0.00217971
0.0208776
-0.00202785
0.0209077
-0.00186266
0.0209169
-0.00168382
0.0209036
-0.00149625
0.0209469
-0.00129721
0.0209234
-0.00109135
0.0209527
-0.000878093
0.0209541
-0.000658005
0.0209505
-0.00043359
0.0209809
-0.000202489
0.0209693
3.22778e-05
0.0209872
0.000269103
0.0209942
0.00051168
0.0209872
0.000757866
0.0210087
0.00100866
0.0210045
0.00126332
0.0210066
0.00152106
0.0210166
0.00178181
0.0210169
0.00204471
0.0210218
0.00230906
0.0210276
0.00257383
0.0210335
0.00283796
0.0210411
0.00310073
0.0210461
0.00336028
0.0210588
0.00361555
0.0210708
0.00386595
0.021076
0.00410901
0.0210976
0.00434448
0.0211086
0.00457133
0.0211194
0.0047871
0.0211501
0.00499352
0.021147
0.00518769
0.0211731
0.00536913
0.0211975
0.00553966
0.0211904
0.00569548
0.0212302
0.00583994
0.0212198
0.0059707
0.0212391
0.00608749
0.0212607
0.00619355
0.0212355
0.00628433
0.0212763
0.00636563
0.0212361
0.00643384
0.0212543
0.00649128
0.0212481
0.00654075
0.0212143
0.021249
0.00657855
-0.0029162
0.0207476
-0.00283041
0.0207306
-0.00273514
0.020808
-0.00261395
0.0207564
-0.00246887
0.0207626
-0.00230181
0.0207499
-0.002116
0.0207178
-0.00191874
0.0207496
-0.00170975
0.0207144
-0.00149434
0.0207373
-0.00127265
0.0207324
-0.00104554
0.0207234
-0.000815485
0.0207509
-0.000580557
0.0207344
-0.000342042
0.0207487
-9.83934e-05
0.0207505
0.000148387
0.0207404
0.000398843
0.0207583
0.000655007
0.0207484