/*--------------------------------*- C++ -*----------------------------------*\
| =========                 |                                                 |
| \\      /  F ield         | OpenFOAM: The Open Source CFD Toolbox           |
|  \\    /   O peration     | Version:  2312                                  |
|   \\  /    A nd           | Website:  www.openfoam.com                      |
|    \\/     M anipulation  |                                                 |
\*---------------------------------------------------------------------------*/
FoamFile
{
    version     2.0;
    format      ascii;
    arch        "LSB;label=32;scalar=64";
    class       volVectorField;
    location    "43.635115880379402";
    object      U;
}
// * * * * * * * * * * * * * * * * * * * * * * * * * * * * * * * * * * * * * //

dimensions      [0 1 -1 0 0 0 0];

internalField   nonuniform List<vector> 
21039
(
(0.913791 0.0474814 0)
(1.02605 0.0665153 0)
(1.00449 0.0294786 0)
(1.00177 0.0189131 0)
(1.00121 0.0139067 0)
(1.0008 0.0105285 0)
(1.00055 0.00820548 0)
(1.0004 0.00656635 0)
(1.0003 0.00535993 0)
(1.00023 0.00444235 0)
(1.00018 0.00372815 0)
(1.00015 0.00316232 0)
(1.00012 0.00270787 0)
(1.00009 0.00233922 0)
(1.00008 0.00203824 0)
(1.00006 0.0017918 0)
(1.00005 0.00159019 0)
(1.00004 0.0014261 0)
(1.00003 0.00129383 0)
(1.00002 0.00118878 0)
(1.00002 0.00110706 0)
(1.00001 0.00104663 0)
(1.00001 0.00100913 0)
(1 0.000975433 0)
(1.00001 0.000950055 0)
(1.00001 0.000929947 0)
(1.00001 0.000910869 0)
(1.00001 0.000882746 0)
(1.00001 0.000823808 0)
(0.794621 0.0730991 0)
(1.07447 0.1217 0)
(1.03987 0.0708176 0)
(1.0181 0.0497239 0)
(1.01128 0.038306 0)
(1.00763 0.0295256 0)
(1.00538 0.0232317 0)
(1.00395 0.0186586 0)
(1.00299 0.0152057 0)
(1.00232 0.0125319 0)
(1.00184 0.0104207 0)
(1.00148 0.00872539 0)
(1.0012 0.00734516 0)
(1.00098 0.00620964 0)
(1.00081 0.00526854 0)
(1.00066 0.00448532 0)
(1.00055 0.00383296 0)
(1.00044 0.00329124 0)
(1.00036 0.00284474 0)
(1.00028 0.00248143 0)
(1.00022 0.00219131 0)
(1.00016 0.00196797 0)
(1.00011 0.00181544 0)
(1.00008 0.00170227 0)
(1.00007 0.00163348 0)
(1.00007 0.00159141 0)
(1.00008 0.0015621 0)
(1.00009 0.00152617 0)
(1.0001 0.00145383 0)
(0.667379 0.0572903 0)
(1.083 0.124803 0)
(1.08433 0.0902687 0)
(1.04627 0.067678 0)
(1.02905 0.0541563 0)
(1.02023 0.0431949 0)
(1.01468 0.03489 0)
(1.01098 0.0285085 0)
(1.00842 0.0234781 0)
(1.00661 0.0194674 0)
(1.00527 0.0162307 0)
(1.00427 0.0135857 0)
(1.0035 0.0114011 0)
(1.00289 0.00958154 0)
(1.0024 0.00805699 0)
(1.002 0.00677551 0)
(1.00166 0.0056982 0)
(1.00137 0.00479568 0)
(1.00112 0.00404557 0)
(1.0009 0.00343063 0)
(1.00071 0.00293676 0)
(1.00053 0.00255362 0)
(1.00038 0.00228708 0)
(1.00028 0.00210103 0)
(1.00022 0.00199508 0)
(1.00019 0.00193488 0)
(1.00019 0.00189684 0)
(1.0002 0.00185585 0)
(1.00021 0.00177873 0)
(0.541075 0.035267 0)
(1.05074 0.110819 0)
(1.11587 0.0969887 0)
(1.07608 0.0762655 0)
(1.04921 0.062097 0)
(1.03525 0.0509832 0)
(1.0264 0.0423038 0)
(1.02024 0.0352689 0)
(1.01582 0.0294765 0)
(1.01258 0.0247013 0)
(1.01017 0.0207387 0)
(1.00832 0.0174248 0)
(1.00688 0.0146354 0)
(1.00573 0.0122751 0)
(1.00479 0.0102709 0)
(1.00402 0.00856678 0)
(1.00336 0.00711984 0)
(1.0028 0.00589714 0)
(1.0023 0.00487336 0)
(1.00186 0.00402903 0)
(1.00147 0.00334848 0)
(1.00111 0.0028191 0)
(1.0008 0.00244822 0)
(1.00057 0.00219797 0)
(1.00042 0.00205996 0)
(1.00034 0.00198459 0)
(1.00032 0.00193989 0)
(1.00032 0.00189592 0)
(1.00033 0.00181428 0)
(0.444262 0.0186684 0)
(0.997744 0.0918609 0)
(1.12896 0.0956185 0)
(1.10139 0.0794363 0)
(1.0682 0.0653792 0)
(1.04974 0.0546886 0)
(1.03825 0.0462871 0)
(1.03004 0.0392327 0)
(1.02396 0.0332376 0)
(1.01938 0.0281524 0)
(1.01588 0.0238183 0)
(1.01314 0.0201076 0)
(1.01097 0.0169201 0)
(1.00922 0.0141757 0)
(1.00778 0.0118101 0)
(1.00657 0.00977253 0)
(1.00553 0.00802332 0)
(1.00463 0.00653132 0)
(1.00383 0.00527238 0)
(1.00311 0.00422789 0)
(1.00246 0.00338313 0)
(1.00187 0.00272527 0)
(1.00133 0.00226353 0)
(1.00092 0.00196018 0)
(1.00066 0.00179817 0)
(1.00051 0.00171431 0)
(1.00044 0.00166954 0)
(1.00043 0.00162923 0)
(1.00042 0.00154728 0)
(0.378733 0.00810367 0)
(0.939743 0.0718315 0)
(1.12694 0.0882511 0)
(1.12077 0.0785641 0)
(1.08547 0.0657927 0)
(1.06305 0.0557823 0)
(1.0493 0.047885 0)
(1.0395 0.0411006 0)
(1.03209 0.0351968 0)
(1.02638 0.0300693 0)
(1.02192 0.0255979 0)
(1.01837 0.0216886 0)
(1.0155 0.0182665 0)
(1.01315 0.0152696 0)
(1.01118 0.0126473 0)
(1.00951 0.0103588 0)
(1.00806 0.00837154 0)
(1.00678 0.00666001 0)
(1.00564 0.00520428 0)
(1.0046 0.00398922 0)
(1.00364 0.00300332 0)
(1.00276 0.00223547 0)
(1.00195 0.00169794 0)
(1.00133 0.00135439 0)
(1.00091 0.0011787 0)
(1.00067 0.00109504 0)
(1.00055 0.00105839 0)
(1.00051 0.00103107 0)
(1.00048 0.000957802 0)
(0.333536 0.00233415 0)
(0.883504 0.0538247 0)
(1.11403 0.0777901 0)
(1.13384 0.0747132 0)
(1.10088 0.0641287 0)
(1.07534 0.0550145 0)
(1.05952 0.0477487 0)
(1.04842 0.0414046 0)
(1.03995 0.0357611 0)
(1.03332 0.0307469 0)
(1.02804 0.0262816 0)
(1.02378 0.0223028 0)
(1.02028 0.0187588 0)
(1.01736 0.0156054 0)
(1.01488 0.0128063 0)
(1.01275 0.010332 0)
(1.01088 0.00815902 0)
(1.00921 0.00626927 0)
(1.00769 0.00464901 0)
(1.00629 0.00328845 0)
(1.00499 0.00218112 0)
(1.00377 0.00131983 0)
(1.00265 0.000719975 0)
(1.00177 0.000347762 0)
(1.00117 0.000167241 0)
(1.00081 8.92568e-05 0)
(1.00062 6.38618e-05 0)
(1.00054 6.22608e-05 0)
(1.00047 3.21047e-05 0)
(0.301261 -0.000194 0)
(0.83184 0.0395568 0)
(1.0939 0.0668747 0)
(1.14059 0.0692455 0)
(1.11392 0.0611641 0)
(1.08661 0.0530215 0)
(1.06898 0.0463893 0)
(1.05678 0.0405456 0)
(1.04746 0.0352466 0)
(1.04008 0.0304341 0)
(1.03412 0.0260616 0)
(1.02924 0.0220945 0)
(1.02518 0.0185019 0)
(1.02175 0.0152563 0)
(1.0188 0.0123354 0)
(1.01622 0.00972111 0)
(1.01393 0.00739952 0)
(1.01185 0.00536072 0)
(1.00995 0.00359828 0)
(1.00817 0.00210891 0)
(1.00649 0.000892342 0)
(1.00489 -5.37911e-05 0)
(1.00341 -0.000709398 0)
(1.00222 -0.0011024 0)
(1.00141 -0.00127711 0)
(1.00091 -0.00133327 0)
(1.00064 -0.00132909 0)
(1.0005 -0.00131426 0)
(1.00037 -0.00135984 0)
(0.278314 -0.000989502 0)
(0.78625 0.029064 0)
(1.06982 0.0568681 0)
(1.14186 0.0632079 0)
(1.1243 0.0575793 0)
(1.09675 0.0503912 0)
(1.07765 0.0442954 0)
(1.06454 0.0389029 0)
(1.05456 0.0339477 0)
(1.04659 0.0293623 0)
(1.04009 0.0251202 0)
(1.0347 0.0212061 0)
(1.03016 0.0176053 0)
(1.02627 0.0143049 0)
(1.02288 0.0112947 0)
(1.01988 0.00856713 0)
(1.01718 0.00611782 0)
(1.0147 0.00394518 0)
(1.01239 0.00205058 0)
(1.01021 0.000437714 0)
(1.00812 -0.000887718 0)
(1.00611 -0.00192033 0)
(1.00422 -0.00263152 0)
(1.0027 -0.00304496 0)
(1.00163 -0.0032132 0)
(1.00095 -0.003246 0)
(1.00056 -0.00320716 0)
(1.00033 -0.00315556 0)
(1.00013 -0.00318327 0)
(0.261904 -0.0010351 0)
(0.747109 0.0216389 0)
(1.04431 0.0481884 0)
(1.13897 0.057167 0)
(1.13219 0.0537669 0)
(1.10582 0.0474998 0)
(1.08565 0.0418322 0)
(1.07175 0.036794 0)
(1.06126 0.0321282 0)
(1.05285 0.0277475 0)
(1.04591 0.0236319 0)
(1.04011 0.0197775 0)
(1.03516 0.0161802 0)
(1.03087 0.0128377 0)
(1.02709 0.00974952 0)
(1.0237 0.00691721 0)
(1.02061 0.00434468 0)
(1.01773 0.00203847 0)
(1.01502 6.89547e-06 0)
(1.01242 -0.00173968 0)
(1.0099 -0.00318676 0)
(1.00745 -0.00432005 0)
(1.0051 -0.00510113 0)
(1.00318 -0.00554782 0)
(1.00182 -0.00571742 0)
(1.00092 -0.00572934 0)
(1.00037 -0.00565475 0)
(1.00002 -0.00556048 0)
(0.9997 -0.00555787 0)
(0.24971 -0.000816819 0)
(0.713912 0.0164926 0)
(1.01898 0.0408573 0)
(1.13314 0.0514074 0)
(1.13791 0.0499166 0)
(1.11394 0.0445285 0)
(1.09313 0.0392109 0)
(1.07854 0.0344326 0)
(1.06763 0.029986 0)
(1.05887 0.0257648 0)
(1.05161 0.0217479 0)
(1.04547 0.0179359 0)
(1.04018 0.0143317 0)
(1.03556 0.0109396 0)
(1.03144 0.00776641 0)
(1.02769 0.00482066 0)
(1.02423 0.00211344 0)
(1.02097 -0.000342818 0)
(1.01785 -0.00253325 0)
(1.01482 -0.00443873 0)
(1.01185 -0.00603571 0)
(1.00892 -0.00730116 0)
(1.00607 -0.00818549 0)
(1.00371 -0.00869567 0)
(1.00199 -0.00888899 0)
(1.00083 -0.00889478 0)
(1.00007 -0.00879231 0)
(0.999544 -0.00865804 0)
(0.999071 -0.00862374 0)
(0.240208 -0.000557604 0)
(0.685816 0.0129392 0)
(0.994738 0.0347506 0)
(1.12534 0.0460736 0)
(1.14179 0.0461357 0)
(1.12122 0.041567 0)
(1.10022 0.0365478 0)
(1.08505 0.0319514 0)
(1.07376 0.0276558 0)
(1.06473 0.0235433 0)
(1.05721 0.0195868 0)
(1.05081 0.0157877 0)
(1.04526 0.012152 0)
(1.04035 0.00868855 0)
(1.03593 0.00540864 0)
(1.03187 0.00232614 0)
(1.02807 -0.000543627 0)
(1.02444 -0.00318295 0)
(1.02093 -0.00556917 0)
(1.01748 -0.00767519 0)
(1.01404 -0.00946934 0)
(1.01059 -0.0109194 0)
(1.00721 -0.011964 0)
(1.00434 -0.012593 0)
(1.00222 -0.0128556 0)
(1.00072 -0.0128896 0)
(0.999692 -0.0127822 0)
(0.998926 -0.0126218 0)
(0.998233 -0.0125617 0)
(0.232522 -0.000347597 0)
(0.661986 0.0104407 0)
(0.972034 0.029687 0)
(1.11632 0.0412219 0)
(1.14412 0.0424932 0)
(1.12772 0.0386703 0)
(1.107 0.033915 0)
(1.09136 0.0294394 0)
(1.07975 0.0252333 0)
(1.0705 0.0211795 0)
(1.06279 0.0172424 0)
(1.05619 0.0134209 0)
(1.05043 0.00972155 0)
(1.04529 0.00615533 0)
(1.04062 0.00273628 0)
(1.03628 -0.000519544 0)
(1.03218 -0.00359358 0)
(1.02822 -0.00646225 0)
(1.02433 -0.00909639 0)
(1.02045 -0.0114622 0)
(1.01653 -0.0135209 0)
(1.01255 -0.0152321 0)
(1.0086 -0.0165229 0)
(1.00519 -0.0173599 0)
(1.00259 -0.0177717 0)
(1.0007 -0.0178993 0)
(0.999314 -0.0178367 0)
(0.998222 -0.017685 0)
(0.997229 -0.0176195 0)
(0.226141 -0.00020508 0)
(0.641689 0.00862222 0)
(0.951079 0.0254801 0)
(1.10662 0.0368504 0)
(1.14521 0.0390288 0)
(1.13354 0.0358738 0)
(1.11353 0.0313603 0)
(1.09757 0.026961 0)
(1.08568 0.0227928 0)
(1.07626 0.018752 0)
(1.06841 0.0147942 0)
(1.06167 0.0109131 0)
(1.05575 0.0071141 0)
(1.05044 0.00340781 0)
(1.04557 -0.000191771 0)
(1.04101 -0.00366799 0)
(1.03665 -0.00699902 0)
(1.03239 -0.0101567 0)
(1.02815 -0.0131068 0)
(1.02386 -0.0158099 0)
(1.01947 -0.0182215 0)
(1.01496 -0.0202948 0)
(1.01041 -0.021949 0)
(1.00642 -0.0231238 0)
(1.00331 -0.0238117 0)
(1.00094 -0.0241463 0)
(0.999101 -0.0242221 0)
(0.997569 -0.024152 0)
(0.996162 -0.0241296 0)
(0.220736 -0.000119966 0)
(0.624312 0.00725276 0)
(0.931914 0.0219939 0)
(1.09662 0.0329582 0)
(1.14527 0.0357779 0)
(1.13868 0.0332009 0)
(1.1198 0.0289105 0)
(1.10368 0.0245577 0)
(1.09155 0.0203882 0)
(1.082 0.0163218 0)
(1.07405 0.0123073 0)
(1.06722 0.00833168 0)
(1.0612 0.00439702 0)
(1.05577 0.000511341 0)
(1.05077 -0.0033137 0)
(1.04604 -0.00706126 0)
(1.04147 -0.0107075 0)
(1.03696 -0.0142214 0)
(1.03241 -0.0175649 0)
(1.02774 -0.0206933 0)
(1.0229 -0.0235573 0)
(1.01787 -0.026107 0)
(1.01275 -0.0282605 0)
(1.00823 -0.0299418 0)
(1.00463 -0.0310978 0)
(1.00177 -0.0318404 0)
(0.999403 -0.0322437 0)
(0.997312 -0.0324121 0)
(0.995352 -0.032535 0)
(0.216469 -6.27791e-05 0)
(0.610441 0.00627246 0)
(0.915798 0.019298 0)
(1.08745 0.0297579 0)
(1.1447 0.0329913 0)
(1.14297 0.0308814 0)
(1.12547 0.0267881 0)
(1.10935 0.0224662 0)
(1.09705 0.0182745 0)
(1.08741 0.014161 0)
(1.07943 0.0100691 0)
(1.07257 0.00597818 0)
(1.06652 0.00188517 0)
(1.06105 -0.00220707 0)
(1.05599 -0.00629056 0)
(1.05118 -0.0103499 0)
(1.04648 -0.0143623 0)
(1.0418 -0.0182965 0)
(1.03701 -0.022112 0)
(1.03204 -0.0257587 0)
(1.02682 -0.0291796 0)
(1.02134 -0.0323174 0)
(1.01573 -0.0350848 0)
(1.01078 -0.0373961 0)
(1.00681 -0.0391771 0)
(1.00357 -0.0405402 0)
(1.00072 -0.0415273 0)
(0.997988 -0.0421849 0)
(0.99527 -0.0426328 0)
(0.213307 -2.88228e-05 0)
(0.600204 0.0056061 0)
(0.90342 0.0173636 0)
(1.07993 0.0273545 0)
(1.14385 0.0308433 0)
(1.14626 0.0290861 0)
(1.1301 0.0251516 0)
(1.1141 0.0208518 0)
(1.10171 0.0166358 0)
(1.09203 0.012476 0)
(1.08405 0.00831015 0)
(1.07722 0.00410974 0)
(1.0712 -0.000134904 0)
(1.06575 -0.00442632 0)
(1.0607 -0.0087614 0)
(1.05588 -0.0131295 0)
(1.05115 -0.0175119 0)
(1.04639 -0.0218809 0)
(1.04148 -0.0261973 0)
(1.03632 -0.0304087 0)
(1.03083 -0.0344497 0)
(1.025 -0.0382499 0)
(1.01902 -0.0416946 0)
(1.01377 -0.0446579 0)
(1.00964 -0.0470631 0)
(1.00631 -0.0491051 0)
(1.00333 -0.0509079 0)
(1.0003 -0.0525041 0)
(0.997113 -0.0537303 0)
(0.210845 1.86704e-05 0)
(0.592325 0.00515298 0)
(0.893611 0.015959 0)
(1.07363 0.0255353 0)
(1.14285 0.029185 0)
(1.14878 0.027704 0)
(1.1339 0.023909 0)
(1.11807 0.0196393 0)
(1.10563 0.0154116 0)
(1.09593 0.0112187 0)
(1.08799 0.00699374 0)
(1.08121 0.0027011 0)
(1.07525 -0.00167481 0)
(1.06987 -0.00614229 0)
(1.06488 -0.0107044 0)
(1.06011 -0.015357 0)
(1.05541 -0.0200889 0)
(1.05065 -0.0248792 0)
(1.0457 -0.0296951 0)
(1.04045 -0.0344871 0)
(1.0348 -0.0391871 0)
(1.02873 -0.0437139 0)
(1.02243 -0.0479098 0)
(1.01691 -0.0515272 0)
(1.01265 -0.0544026 0)
(1.00941 -0.0568002 0)
(1.0068 -0.0590915 0)
(1.00451 -0.0616619 0)
(1.00194 -0.0639484 0)
(0.209253 1.06113e-05 0)
(0.586866 0.00479909 0)
(0.88659 0.014958 0)
(1.06901 0.0242525 0)
(1.14212 0.0280078 0)
(1.15075 0.0266939 0)
(1.1369 0.022975 0)
(1.12127 0.0187245 0)
(1.10883 0.0144977 0)
(1.09916 0.0102878 0)
(1.09127 0.00601958 0)
(1.08457 0.00165205 0)
(1.0787 -0.00283446 0)
(1.07341 -0.00745357 0)
(1.06852 -0.0122153 0)
(1.06385 -0.0171237 0)
(1.05925 -0.022177 0)
(1.05457 -0.0273648 0)
(1.04969 -0.0326648 0)
(1.04446 -0.0380379 0)
(1.0388 -0.0434247 0)
(1.03268 -0.0487553 0)
(1.0263 -0.0538616 0)
(1.0207 -0.0583419 0)
(1.01639 -0.0618077 0)
(1.01319 -0.0643008 0)
(1.01084 -0.0658495 0)
(1.00931 -0.067173 0)
(1.00955 -0.0721501 0)
(1.00002 0.000832633 0)
(1.00001 0.000834005 0)
(1.00001 0.000830313 0)
(1.00001 0.000827513 1.03113e-21)
(1.00001 0.000826711 5.14147e-21)
(1.00001 0.000827728 -9.25067e-21)
(1.00001 0.000830394 5.13708e-21)
(1.00001 0.0008346 -4.0918e-21)
(1 0.000840188 5.23367e-22)
(1 0.000847177 4.08933e-21)
(1 0.000855398 0)
(1 0.000864834 -4.57044e-21)
(0.999999 0.000875374 5.19717e-22)
(0.999998 0.000886886 4.05724e-21)
(0.999997 0.000899355 0)
(0.999996 0.000912614 0)
(0.999994 0.000926623 -4.0172e-21)
(0.999993 0.000941248 4.01973e-21)
(0.999992 0.000956332 0)
(0.999991 0.000971869 -1.99296e-21)
(0.99999 0.000987684 2.11827e-21)
(0.999989 0.00100366 1.85744e-21)
(0.999988 0.00101974 -2.96988e-21)
(0.999988 0.00103576 9.57141e-22)
(0.999987 0.00105162 3.06695e-23)
(0.999986 0.00106725 -6.12992e-23)
(0.999986 0.00108248 8.52611e-22)
(0.999986 0.00109723 -9.74593e-22)
(0.999985 0.00111148 0)
(0.999985 0.00112495 0)
(0.999985 0.00113758 -2.40438e-22)
(0.999985 0.00114944 -2.39423e-22)
(0.999985 0.00116039 -4.04483e-21)
(0.999986 0.0011704 3.32899e-21)
(0.999986 0.00117935 -4.24519e-21)
(0.999986 0.0011872 4.23975e-21)
(0.999987 0.00119393 -3.26968e-21)
(0.999988 0.00119942 3.26835e-21)
(0.999988 0.00120367 4.63709e-22)
(0.999989 0.00120659 4.61466e-22)
(0.99999 0.00120816 -4.5919e-22)
(0.999992 0.00120836 0)
(0.999993 0.00120709 0)
(0.999994 0.00120441 0)
(0.999996 0.0012002 0)
(0.999997 0.00119468 0)
(0.999999 0.00118766 1.7786e-21)
(1 0.00117832 -1.77558e-21)
(1 0.0011626 0)
(1.00009 0.00145992 0)
(1.00008 0.00145951 2.08104e-21)
(1.00006 0.00145598 -2.07355e-21)
(1.00005 0.00145633 -1.03469e-21)
(1.00003 0.00146177 -1.0349e-21)
(1.00002 0.00147167 -3.09395e-21)
(1.00001 0.00148577 5.16504e-21)
(0.999994 0.00150401 0)
(0.999981 0.00152589 -5.13849e-22)
(0.999969 0.00155154 -1.02656e-21)
(0.999958 0.00158049 0)
(0.999947 0.00161261 5.10832e-22)
(0.999936 0.00164775 -4.58227e-21)
(0.999927 0.00168544 4.07613e-21)
(0.999917 0.00172569 0)
(0.999909 0.00176807 1.01364e-21)
(0.999901 0.00181238 0)
(0.999894 0.00185846 0)
(0.999888 0.00190581 0)
(0.999882 0.00195436 -2.00164e-21)
(0.999877 0.00200382 1.87747e-21)
(0.999873 0.0020538 -1.24819e-22)
(0.99987 0.00210416 0)
(0.999867 0.00215459 -4.6345e-22)
(0.999865 0.00220477 4.86735e-22)
(0.999865 0.00225451 9.22772e-23)
(0.999865 0.0023035 1.22524e-22)
(0.999865 0.00235148 0)
(0.999867 0.00239826 -1.94306e-21)
(0.999869 0.00244353 1.94263e-21)
(0.999873 0.00248708 -3.61446e-21)
(0.999876 0.00252869 7.93503e-21)
(0.999881 0.0025681 -3.59906e-21)
(0.999886 0.00260515 4.76781e-22)
(0.999893 0.00263953 4.74741e-22)
(0.999899 0.00267111 4.73085e-22)
(0.999907 0.00269969 -4.70468e-22)
(0.999915 0.002725 4.2082e-21)
(0.999925 0.00274699 -3.26976e-21)
(0.999934 0.00276533 -1.39183e-21)
(0.999945 0.00277995 5.07095e-21)
(0.999956 0.00279067 -3.68161e-21)
(0.999968 0.00279723 -1.82811e-21)
(0.99998 0.0027997 3.63049e-21)
(0.999993 0.00279763 -7.23818e-21)
(1.00001 0.00279125 3.60669e-21)
(1.00002 0.00278034 1.78717e-21)
(1.00004 0.00276409 -4.01106e-24)
(1.00005 0.00273745 0)
(1.00019 0.00177451 3.13182e-21)
(1.00015 0.00177231 -1.04571e-21)
(1.00011 0.0017725 -4.16524e-21)
(1.00007 0.00177942 2.0762e-21)
(1.00003 0.00179434 -2.07569e-21)
(0.999988 0.00181641 0)
(0.99995 0.00184532 -2.06517e-21)
(0.999914 0.00188118 -6.18335e-21)
(0.999879 0.0019229 6.18449e-21)
(0.999847 0.00197092 1.02651e-21)
(0.999816 0.00202429 0)
(0.999786 0.00208288 -6.13578e-21)
(0.999759 0.00214655 1.19495e-23)
(0.999734 0.0022143 4.08064e-21)
(0.999711 0.00228636 0)
(0.999689 0.00236193 -1.01298e-21)
(0.99967 0.00244062 -1.01283e-21)
(0.999653 0.00252242 0)
(0.999638 0.00260625 -1.00743e-21)
(0.999626 0.00269209 -2.00313e-21)
(0.999615 0.00277958 2.00374e-21)
(0.999607 0.00286793 -2.50214e-22)
(0.999601 0.002957 -2.48882e-22)
(0.999597 0.00304632 0)
(0.999595 0.00313528 3.85207e-23)
(0.999596 0.00322363 -2.1547e-22)
(0.999599 0.00331094 0)
(0.999604 0.00339665 0)
(0.999611 0.00348049 -1.9434e-21)
(0.99962 0.00356205 1.94303e-21)
(0.999632 0.00364086 -3.85608e-21)
(0.999645 0.00371659 3.85479e-21)
(0.999661 0.00378886 0)
(0.999678 0.0038573 0)
(0.999698 0.0039215 0)
(0.999719 0.0039812 -9.44949e-22)
(0.999743 0.004036 -1.88281e-21)
(0.999768 0.00408552 0)
(0.999796 0.00412962 -9.31886e-22)
(0.999825 0.00416773 -9.20051e-22)
(0.999856 0.00419978 2.77657e-21)
(0.999888 0.00422536 0)
(0.999923 0.00424408 3.64883e-21)
(0.999959 0.00425598 -5.46147e-21)
(0.999996 0.00426029 0)
(1.00004 0.00425727 0)
(1.00008 0.00424635 0)
(1.00012 0.00422666 -1.78156e-21)
(1.00017 0.00419408 -1.77006e-21)
(1.00028 0.00179991 -2.0925e-21)
(1.00021 0.00180015 4.18778e-21)
(1.00013 0.00180925 4.17973e-21)
(1.00004 0.00182771 6.24755e-21)
(0.999965 0.00185718 -2.08732e-21)
(0.999888 0.00189665 -4.14605e-21)
(0.999815 0.00194584 8.28953e-21)
(0.999744 0.00200505 -4.31102e-24)
(0.999677 0.00207245 -2.06181e-21)
(0.999614 0.00214895 2.06403e-21)
(0.999554 0.00223301 0)
(0.999499 0.00232448 2.04887e-21)
(0.999447 0.00242332 -2.03666e-21)
(0.999399 0.00252786 8.16964e-21)
(0.999355 0.00263862 -8.14952e-21)
(0.999315 0.00275436 6.10744e-21)
(0.99928 0.00287451 -1.01938e-21)
(0.999248 0.00299928 1.01294e-21)
(0.999221 0.00312681 1.00665e-21)
(0.999198 0.00325726 -1.00728e-21)
(0.99918 0.00339019 0)
(0.999166 0.00352428 -1.49599e-21)
(0.999156 0.00365949 1.24967e-21)
(0.999151 0.00379516 9.94324e-22)
(0.99915 0.00393031 4.63422e-23)
(0.999153 0.00406468 9.22007e-23)
(0.999161 0.00419772 1.47221e-21)
(0.999173 0.0043285 -9.80207e-22)
(0.999189 0.00445671 1.94553e-21)
(0.99921 0.00458182 -1.94522e-21)
(0.999234 0.00470305 0)
(0.999263 0.00482003 4.80724e-21)
(0.999295 0.0049322 -3.84193e-21)
(0.999332 0.00503898 3.80954e-21)
(0.999372 0.0051399 -3.80813e-21)
(0.999417 0.0052345 0)
(0.999465 0.00532223 3.75485e-21)
(0.999517 0.0054026 -1.88028e-21)
(0.999572 0.00547536 0)
(0.999631 0.00553972 3.70443e-21)
(0.999694 0.0055956 -3.69981e-21)
(0.99976 0.0056424 1.83676e-21)
(0.99983 0.00567956 1.82768e-21)
(0.999902 0.00570715 5.4524e-21)
(0.999978 0.00572406 6.25864e-24)
(1.00006 0.00573066 3.60488e-21)
(1.00014 0.00572596 1.7855e-21)
(1.00023 0.00570901 1.77344e-21)
(1.00032 0.00567691 1.77146e-21)
(1.00034 0.00152641 0)
(1.00023 0.00153573 -4.19374e-21)
(1.0001 0.00156077 -4.18367e-21)
(0.999963 0.00159788 0)
(0.999832 0.00164938 -4.17129e-21)
(0.999705 0.00171397 1.06344e-23)
(0.999584 0.00179135 8.34013e-21)
(0.999467 0.00188215 -2.08843e-21)
(0.999357 0.00198361 -1.09774e-23)
(0.999253 0.00209729 -6.20669e-21)
(0.999155 0.0022209 0)
(0.999063 0.00235435 -6.17957e-21)
(0.998978 0.0024977 2.06477e-21)
(0.9989 0.00264845 0)
(0.998828 0.00280762 -2.0507e-21)
(0.998763 0.00297332 9.81978e-24)
(0.998705 0.00314486 -2.03263e-21)
(0.998655 0.00332272 7.10265e-21)
(0.998611 0.0035041 -1.30574e-23)
(0.998574 0.00368942 -1.02056e-21)
(0.998545 0.00387814 -1.00611e-21)
(0.998523 0.00406833 2.0009e-21)
(0.998508 0.00426008 -2.00119e-21)
(0.9985 0.00445255 -2.47342e-22)
(0.9985 0.00464431 5.12295e-22)
(0.998507 0.00483511 -2.76497e-22)
(0.998521 0.00502426 9.84348e-22)
(0.998542 0.00521041 -9.82469e-22)
(0.998571 0.00539325 9.78593e-22)
(0.998606 0.00557209 1.9414e-21)
(0.998648 0.00574583 -5.80669e-21)
(0.998697 0.00591406 -9.47229e-22)
(0.998753 0.00607601 5.77083e-21)
(0.998815 0.00623088 1.91366e-21)
(0.998884 0.00637815 -3.79675e-21)
(0.998959 0.00651716 3.79446e-21)
(0.99904 0.00664719 8.56976e-24)
(0.999128 0.00676765 5.6261e-21)
(0.999222 0.00687816 -3.74903e-21)
(0.999322 0.00697774 -9.28956e-21)
(0.999427 0.0070663 3.69385e-21)
(0.999539 0.00714303 1.83723e-21)
(0.999656 0.00720726 7.30097e-21)
(0.999778 0.00725909 -3.64309e-21)
(0.999906 0.00729707 -9.12801e-24)
(1.00004 0.00732173 -9.96143e-24)
(1.00018 0.00733165 0)
(1.00033 0.00732591 -3.55898e-21)
(1.00049 0.00730351 -3.53233e-21)
(1.00036 0.000936444 0)
(1.00019 0.000962477 -6.34299e-21)
(0.999996 0.00101224 6.33296e-21)
(0.999799 0.00107706 0)
(0.999603 0.00116005 0)
(0.999412 0.0012596 -4.18716e-21)
(0.999229 0.00137547 -2.90023e-24)
(0.999054 0.00150862 -4.18608e-21)
(0.998887 0.00165519 -8.25544e-24)
(0.99873 0.00181753 0)
(0.998582 0.00199245 0)
(0.998444 0.00217992 2.0656e-21)
(0.998316 0.00238021 0)
(0.998197 0.00258975 0)
(0.998089 0.0028102 -2.05516e-21)
(0.997992 0.00303894 4.11927e-21)
(0.997905 0.00327509 2.05192e-21)
(0.997828 0.00351952 0)
(0.997763 0.00376826 2.01914e-21)
(0.997708 0.00402212 -5.07623e-21)
(0.997664 0.00428043 -2.02037e-21)
(0.997631 0.00454053 -2.00941e-21)
(0.99761 0.0048027 2.00961e-21)
(0.997599 0.00506587 1.36525e-24)
(0.997599 0.00532809 1.56023e-23)
(0.99761 0.00558915 2.47533e-22)
(0.997632 0.00584821 -4.9489e-22)
(0.997665 0.00610343 0)
(0.997709 0.0063545 -9.77616e-22)
(0.997763 0.00660057 0)
(0.997828 0.00684014 0)
(0.997903 0.00707279 -1.93706e-21)
(0.997988 0.00729753 -7.68865e-21)
(0.998084 0.0075133 2.31029e-23)
(0.998189 0.00771952 1.91123e-21)
(0.998304 0.00791533 0)
(0.998429 0.00809981 -1.88432e-21)
(0.998562 0.00827228 -3.75759e-21)
(0.998705 0.00843224 3.73048e-21)
(0.998858 0.00857847 7.42857e-21)
(0.999018 0.00871094 -7.38756e-21)
(0.999188 0.00882858 1.41425e-24)
(0.999366 0.00893061 -3.65391e-21)
(0.999552 0.00901723 -1.4403e-24)
(0.999746 0.00908657 0)
(0.99995 0.00913941 -3.59352e-21)
(1.00016 0.00917382 -1.7812e-21)
(1.00039 0.00918909 1.77986e-21)
(1.00063 0.00918714 3.53455e-21)
(1.00029 2.28596e-05 0)
(1.00005 5.77468e-05 4.24107e-21)
(0.999787 0.000135979 -1.27409e-20)
(0.999514 0.000239318 0)
(0.999237 0.000366987 0)
(0.998967 0.000514737 -8.45382e-21)
(0.998707 0.000682632 8.42207e-21)
(0.998458 0.000872032 -4.22127e-21)
(0.998221 0.0010779 -8.36707e-24)
(0.997996 0.00130365 4.19362e-21)
(0.997785 0.00154502 0)
(0.997588 0.00180206 0)
(0.997405 0.00207525 4.17683e-21)
(0.997236 0.00235983 0)
(0.997081 0.00265818 0)
(0.996942 0.00296685 -4.12892e-21)
(0.996817 0.00328472 1.54921e-23)
(0.996708 0.00361313 0)
(0.996614 0.00394677 2.03838e-21)
(0.996536 0.00428686 5.09764e-21)
(0.996474 0.00463262 -2.04227e-21)
(0.996427 0.00498054 0)
(0.996396 0.0053311 -1.00648e-21)
(0.996381 0.00568297 1.25737e-21)
(0.996381 0.00603363 -5.48236e-22)
(0.996398 0.00638289 -2.49968e-22)
(0.99643 0.00672971 4.92391e-22)
(0.996478 0.00707173 -9.90003e-22)
(0.996541 0.0074086 0)
(0.996619 0.00773928 -3.9171e-21)
(0.996712 0.00806185 5.84097e-21)
(0.996821 0.00837583 1.91713e-21)
(0.996944 0.00867999 -8.27516e-24)
(0.997081 0.00897297 1.91352e-21)
(0.997232 0.00925409 -1.9222e-21)
(0.997398 0.00952233 -3.78983e-21)
(0.997577 0.00977649 7.5567e-21)
(0.997769 0.0100158 -3.76259e-21)
(0.997974 0.0102396 7.48647e-21)
(0.998192 0.0104464 5.29236e-24)
(0.998422 0.0106364 7.39032e-21)
(0.998664 0.010808 -3.67211e-21)
(0.998918 0.0109605 0)
(0.999184 0.0110942 -1.51199e-24)
(0.999461 0.0112067 7.21616e-21)
(0.99975 0.0112992 0)
(1.00005 0.011369 0)
(1.00037 0.0114159 6.19618e-21)
(1.00071 0.0114462 8.82988e-22)
(1.00012 -0.00135264 1.07152e-21)
(0.999784 -0.00121832 7.53246e-21)
(0.999419 -0.00106269 8.52354e-21)
(0.999044 -0.000926392 -8.5818e-21)
(0.99867 -0.000757866 0)
(0.998311 -0.000549674 -1.12844e-23)
(0.99796 -0.000314637 -4.28555e-21)
(0.99762 -5.22829e-05 -4.27218e-21)
(0.997295 0.000230254 1.27241e-20)
(0.996988 0.000537644 -4.22928e-21)
(0.996698 0.000864189 0)
(0.996427 0.00121012 8.42803e-21)
(0.996175 0.00157617 -8.37736e-21)
(0.995943 0.00195616 2.6659e-23)
(0.99573 0.00235336 8.34533e-21)
(0.995538 0.00276328 -2.09525e-21)
(0.995366 0.00318452 -2.03898e-21)
(0.995216 0.00361896 4.14145e-21)
(0.995086 0.00405978 0)
(0.994978 0.00450864 -2.04553e-21)
(0.994892 0.00496459 2.04676e-21)
(0.994827 0.00542318 2.03443e-21)
(0.994784 0.00588509 -2.03438e-21)
(0.994763 0.00634867 2.53851e-22)
(0.994764 0.00681079 3.135e-23)
(0.994787 0.00727117 7.49795e-22)
(0.994832 0.00772856 -2.73924e-24)
(0.994898 0.00818006 0)
(0.994985 0.00862515 0)
(0.995094 0.00906259 -7.89368e-25)
(0.995223 0.00948999 -1.9424e-21)
(0.995374 0.00990672 3.90324e-21)
(0.995544 0.0103113 -3.87393e-21)
(0.995734 0.010702 3.84108e-21)
(0.995944 0.011078 -7.68043e-21)
(0.996173 0.0114382 1.79573e-23)
(0.99642 0.0117808 3.79632e-21)
(0.996686 0.0121051 3.7548e-21)
(0.996969 0.0124103 -7.50397e-21)
(0.997269 0.0126947 -7.44731e-21)
(0.997586 0.0129583 -3.70753e-21)
(0.997918 0.0131994 -3.68343e-21)
(0.998267 0.0134171 0)
(0.998631 0.0136119 -3.62726e-21)
(0.99901 0.0137809 -7.29658e-24)
(0.999405 0.0139256 7.15617e-21)
(0.999818 0.0140427 -8.88124e-21)
(1.00025 0.0141325 1.75346e-21)
(1.00072 0.0142078 0)
(0.999787 -0.00316726 0)
(0.999351 -0.00299742 -8.61088e-21)
(0.998865 -0.00277678 0)
(0.998364 -0.00253626 8.58951e-21)
(0.997866 -0.00223848 4.30281e-21)
(0.99738 -0.0019339 -8.60082e-21)
(0.99691 -0.00164356 1.28504e-20)
(0.996459 -0.00130334 4.26457e-21)
(0.996033 -0.00092584 -4.25842e-21)
(0.995626 -0.000515608 0)
(0.99524 -8.13578e-05 4.25337e-21)
(0.994878 0.000376947 -8.48347e-21)
(0.99454 0.000860231 4.26086e-21)
(0.994228 0.00136072 -4.20627e-21)
(0.993943 0.00188264 3.04613e-23)
(0.993684 0.00242033 4.20759e-21)
(0.993454 0.00297201 -8.38109e-21)
(0.993251 0.00354008 0)
(0.993076 0.00411609 4.15167e-21)
(0.992931 0.00470215 -4.15167e-21)
(0.992814 0.00529703 -1.02711e-21)
(0.992727 0.00589529 0)
(0.992669 0.00649774 1.02875e-21)
(0.99264 0.00710232 2.54699e-22)
(0.992641 0.00770523 -5.40127e-22)
(0.992672 0.00830601 7.57139e-22)
(0.992733 0.00890312 4.98682e-22)
(0.992822 0.00949305 -1.00195e-21)
(0.992941 0.010075 0)
(0.993088 0.0106474 -1.973e-21)
(0.993263 0.0112074 3.94668e-21)
(0.993467 0.0117541 0)
(0.993697 0.0122857 1.93968e-21)
(0.993955 0.0127999 0)
(0.994238 0.0132957 3.83541e-21)
(0.994547 0.0137719 -7.64121e-21)
(0.994881 0.0142262 3.78418e-21)
(0.995239 0.0146577 -2.27046e-23)
(0.99562 0.0150655 3.71937e-21)
(0.996024 0.0154473 -3.73524e-21)
(0.996448 0.0158036 3.6961e-21)
(0.996895 0.0161321 7.3492e-21)
(0.99736 0.0164318 0)
(0.997846 0.0167034 0)
(0.998351 0.0169434 -7.20428e-21)
(0.998877 0.0171538 -1.42939e-20)
(0.999425 0.0173304 1.41932e-20)
(1 0.0174744 -7.93935e-21)
(1.00061 0.0176075 7.8634e-21)
(0.999244 -0.00551519 0)
(0.998681 -0.00527691 8.77048e-21)
(0.99806 -0.00497547 8.75533e-21)
(0.997417 -0.00464579 1.31113e-20)
(0.99677 -0.00427181 -1.31024e-20)
(0.996128 -0.0038638 -4.34253e-21)
(0.995509 -0.0034254 1.30843e-20)
(0.994916 -0.00292914 -4.32988e-21)
(0.994351 -0.00241988 4.33387e-21)
(0.993815 -0.00190327 0)
(0.993308 -0.0013465 8.67438e-21)
(0.992839 -0.000749857 0)
(0.992395 -0.00012054 -4.26254e-21)
(0.991983 0.000530543 -4.30421e-21)
(0.991606 0.00120888 5.17749e-23)
(0.991264 0.00190715 0)
(0.990958 0.00262295 4.24685e-21)
(0.990689 0.00335912 8.47283e-21)
(0.990456 0.00410558 0)
(0.990263 0.00486478 2.08969e-21)
(0.990107 0.00563506 -2.08904e-21)
(0.98999 0.00640997 -2.07149e-21)
(0.989913 0.00719029 2.08259e-21)
(0.989875 0.00797342 -4.2192e-24)
(0.989876 0.00875489 -5.12951e-22)
(0.989918 0.00953376 -2.25531e-22)
(0.989998 0.0103081 -5.07666e-22)
(0.990117 0.0110738 1.01233e-21)
(0.990276 0.0118295 0)
(0.990473 0.0125732 1.98587e-21)
(0.990707 0.0133014 -3.95707e-21)
(0.990979 0.0140128 0)
(0.991287 0.0147052 0)
(0.991631 0.0153756 3.87201e-21)
(0.992009 0.0160226 -7.71993e-21)
(0.992421 0.016645 3.84901e-21)
(0.992866 0.0172397 3.81913e-21)
(0.993341 0.0178055 0)
(0.993847 0.0183415 1.12604e-20)
(0.994381 0.0188447 -7.45637e-21)
(0.994943 0.019316 -3.69478e-21)
(0.995531 0.0197524 7.14359e-24)
(0.996144 0.0201529 -7.29599e-21)
(0.996782 0.0205184 -7.23287e-21)
(0.997444 0.0208448 -7.18097e-21)
(0.998131 0.0211349 1.56393e-23)
(0.998846 0.0213829 -2.13223e-23)
(0.999594 0.0215917 0)
(1.00039 0.0217945 -1.39351e-20)
(0.998457 -0.00854127 0)
(0.99773 -0.00821047 2.29842e-21)
(0.996936 -0.00780448 -1.09569e-20)
(0.996115 -0.00736331 -8.75911e-21)
(0.995289 -0.00687375 8.74868e-21)
(0.994472 -0.00634061 4.4552e-21)
(0.993678 -0.00576359 -4.33947e-21)
(0.99291 -0.00513507 0)
(0.992171 -0.00447377 0)
(0.99147 -0.00377043 8.80899e-21)
(0.990808 -0.00300299 -8.67989e-21)
(0.990189 -0.00223015 4.35335e-21)
(0.989608 -0.00145097 -4.34991e-21)
(0.98907 -0.000614331 4.34402e-21)
(0.988576 0.000260808 4.34673e-21)
(0.988126 0.00116084 -4.3117e-21)
(0.987724 0.00208315 -4.26362e-21)
(0.987369 0.00303106 -4.24588e-21)
(0.987062 0.0039928 4.24844e-21)
(0.986806 0.00497107 -4.24747e-21)
(0.9866 0.00596354 0)
(0.986445 0.00696281 2.11494e-21)
(0.986342 0.00796935 -2.0812e-21)
(0.986291 0.00897981 1.55886e-21)
(0.986292 0.00998898 0)
(0.986347 0.0109951 1.02884e-21)
(0.986453 0.0119958 0)
(0.986611 0.012986 -1.01117e-21)
(0.986822 0.0139635 1.77568e-23)
(0.987084 0.0149258 1.23221e-23)
(0.987395 0.0158686 4.00481e-21)