/*--------------------------------*- C++ -*----------------------------------*\
| =========                 |                                                 |
| \\      /  F ield         | OpenFOAM: The Open Source CFD Toolbox           |
|  \\    /   O peration     | Version:  2312                                  |
|   \\  /    A nd           | Website:  www.openfoam.com                      |
|    \\/     M anipulation  |                                                 |
\*---------------------------------------------------------------------------*/
FoamFile
{
    version     2.0;
    format      ascii;
    arch        "LSB;label=32;scalar=64";
    class       volScalarField;
    location    "26.932412244397003";
    object      p;
}
// * * * * * * * * * * * * * * * * * * * * * * * * * * * * * * * * * * * * * //

dimensions      [0 2 -2 0 0 0 0];

internalField   nonuniform List<scalar> 
21039
(
0.58983
0.456104
0.413847
0.385592
0.364256
0.348155
0.335692
0.325763
0.317685
0.311009
0.305415
0.300674
0.296615
0.293105
0.290042
0.287342
0.284938
0.282773
0.2808
0.278977
0.277271
0.275649
0.274084
0.272642
0.271387
0.270281
0.269281
0.268354
0.267482
0.4428
0.404914
0.391054
0.372682
0.355898
0.342588
0.331811
0.322932
0.315556
0.309371
0.304135
0.299661
0.295807
0.292458
0.289523
0.286929
0.284613
0.282523
0.280614
0.278847
0.277187
0.275605
0.274072
0.272651
0.271405
0.2703
0.269301
0.268373
0.267501
0.353345
0.350935
0.353087
0.346339
0.337877
0.33006
0.322781
0.316221
0.310451
0.305412
0.301015
0.297174
0.293808
0.290845
0.288222
0.285884
0.283783
0.281876
0.280126
0.278498
0.276961
0.275485
0.274047
0.272699
0.271506
0.270439
0.269469
0.268564
0.267712
0.315218
0.317334
0.321804
0.320718
0.318086
0.31485
0.311025
0.307078
0.303276
0.29972
0.296456
0.293495
0.290823
0.28842
0.286256
0.284301
0.282526
0.280901
0.279398
0.277989
0.276649
0.275351
0.274074
0.272863
0.271774
0.27079
0.269883
0.269028
0.268213
0.290186
0.294157
0.300051
0.301763
0.301961
0.301224
0.299674
0.297723
0.295592
0.293406
0.291261
0.289215
0.287298
0.285523
0.283889
0.282389
0.281008
0.279731
0.278538
0.27741
0.276327
0.275266
0.274209
0.273187
0.272248
0.27138
0.270565
0.269779
0.269016
0.270531
0.275788
0.283147
0.287025
0.289039
0.289848
0.289773
0.289194
0.288293
0.287193
0.285996
0.284774
0.28357
0.282415
0.281324
0.280303
0.27935
0.27846
0.277621
0.27682
0.276042
0.275267
0.27448
0.273693
0.272942
0.272222
0.271522
0.270826
0.270129
0.257743
0.262765
0.269874
0.274838
0.278078
0.280033
0.281061
0.281505
0.281542
0.281303
0.280891
0.280378
0.279816
0.279241
0.278676
0.278136
0.277625
0.277145
0.276691
0.276253
0.27582
0.275376
0.274905
0.2744
0.273877
0.273338
0.272781
0.272195
0.27158
0.250426
0.254525
0.260282
0.265259
0.268994
0.271604
0.273371
0.274562
0.275324
0.275777
0.276018
0.276116
0.276125
0.276083
0.276018
0.275948
0.275882
0.275826
0.275779
0.275734
0.275682
0.275609
0.275503
0.275327
0.275073
0.274752
0.274368
0.273917
0.273403
0.245885
0.249081
0.253469
0.257996
0.261734
0.264574
0.266729
0.268392
0.26967
0.270654
0.271423
0.272039
0.272549
0.272992
0.273395
0.273778
0.274153
0.274528
0.274903
0.275274
0.275636
0.275975
0.276279
0.276481
0.276543
0.276478
0.2763
0.276012
0.275621
0.242461
0.244907
0.248255
0.252258
0.255816
0.258681
0.261011
0.262947
0.264568
0.26594
0.267123
0.268166
0.26911
0.269988
0.270825
0.27164
0.272447
0.273253
0.274061
0.274869
0.275672
0.276459
0.277219
0.277851
0.278275
0.27851
0.278576
0.278483
0.278241
0.239455
0.241298
0.243899
0.247398
0.250727
0.253548
0.255958
0.258059
0.259912
0.261571
0.263079
0.264474
0.265791
0.267056
0.268292
0.269517
0.270744
0.271979
0.273227
0.274488
0.275758
0.277028
0.278288
0.279399
0.280237
0.280817
0.281165
0.281297
0.281238
0.236551
0.237947
0.24002
0.243059
0.246147
0.248895
0.251335
0.253541
0.255562
0.257439
0.259209
0.260899
0.26254
0.264152
0.265758
0.267371
0.269003
0.270664
0.272356
0.274082
0.275838
0.277621
0.279421
0.281062
0.282365
0.283339
0.284014
0.2844
0.284523
0.233591
0.234674
0.236381
0.239024
0.241878
0.244537
0.246976
0.249245
0.251387
0.253436
0.255419
0.257361
0.259285
0.261211
0.263158
0.265138
0.267165
0.269245
0.271384
0.273582
0.275839
0.278151
0.280521
0.282731
0.284545
0.285965
0.287019
0.287716
0.288074
0.230507
0.231373
0.232818
0.235131
0.237769
0.240331
0.242749
0.245053
0.247282
0.249465
0.251623
0.253779
0.255952
0.258161
0.260423
0.262753
0.265163
0.267659
0.270243
0.272917
0.275676
0.278521
0.281462
0.284246
0.286589
0.288484
0.289953
0.290999
0.291633
0.227277
0.227993
0.229232
0.231255
0.233686
0.236146
0.238531
0.240852
0.243142
0.245427
0.247727
0.250062
0.252451
0.254914
0.257468
0.26013
0.262912
0.265817
0.268847
0.271997
0.275257
0.278622
0.282098
0.2854
0.288212
0.290543
0.29242
0.293832
0.294776
0.224175
0.224782
0.225859
0.227666
0.22993
0.232294
0.234639
0.236965
0.239295
0.241654
0.244062
0.246537
0.249103
0.25178
0.25459
0.257551
0.260675
0.263965
0.26742
0.271026
0.274759
0.278584
0.28248
0.286089
0.28909
0.291557
0.293586
0.295203
0.296396
0.221526
0.222061
0.223038
0.224707
0.226845
0.229124
0.231434
0.233765
0.23613
0.238548
0.24104
0.243628
0.246337
0.249195
0.252226
0.255448
0.258878
0.262521
0.266373
0.270412
0.274594
0.278841
0.283059
0.286741
0.289503
0.291492
0.292955
0.29414
0.295256
0.219313
0.219802
0.220709
0.222276
0.224316
0.22654
0.228845
0.231199
0.233604
0.236078
0.238646
0.241335
0.244176
0.247198
0.250429
0.253894
0.257613
0.261598
0.265845
0.270328
0.27499
0.27971
0.284303
0.288027
0.290258
0.291012
0.290535
0.289324
0.288446
0.217515
0.218054
0.218979
0.220446
0.22232
0.224441
0.226741
0.229139
0.231601
0.234138
0.236786
0.239577
0.242548
0.245731
0.249159
0.252862
0.256869
0.261198
0.265852
0.270811
0.276017
0.281339
0.286533
0.290627
0.29259
0.291923
0.288284
0.281103
0.270085
0.266638
0.265788
0.264942
0.2641
0.26326
0.262421
0.261582
0.260742
0.259901
0.259057
0.258211
0.25736
0.256505
0.255644
0.254778
0.253905
0.253026
0.252138
0.251244
0.250341
0.24943
0.248511
0.247584
0.246649
0.245706
0.244755
0.243797
0.242832
0.241861
0.240883
0.239901
0.238914
0.237922
0.236927
0.23593
0.234931
0.233932
0.232932
0.231934
0.230939
0.229946
0.228958
0.227976
0.227
0.226031
0.225071
0.22412
0.223179
0.222248
0.26666
0.265819
0.264984
0.264152
0.263322
0.262493
0.261663
0.260833
0.260001
0.259166
0.258327
0.257485
0.256637
0.255783
0.254922
0.254055
0.253179
0.252296
0.251404
0.250503
0.249593
0.248674
0.247746
0.246809
0.245863
0.244908
0.243946
0.242976
0.241998
0.241014
0.240023
0.239028
0.238027
0.237023
0.236016
0.235006
0.233996
0.232986
0.231976
0.230968
0.229964
0.228963
0.227968
0.226979
0.225997
0.225024
0.22406
0.223107
0.222164
0.266893
0.266077
0.265265
0.264455
0.263647
0.262838
0.262028
0.261216
0.260401
0.259582
0.258757
0.257927
0.257089
0.256244
0.25539
0.254527
0.253655
0.252772
0.251878
0.250974
0.250059
0.249133
0.248196
0.247248
0.246289
0.24532
0.244341
0.243353
0.242356
0.241351
0.240338
0.239318
0.238293
0.237263
0.236229
0.235191
0.234152
0.233112
0.232072
0.231033
0.229997
0.228964
0.227936
0.226914
0.225899
0.224892
0.223895
0.222907
0.221932
0.26743
0.266651
0.265873
0.265096
0.264317
0.263536
0.262752
0.261963
0.261169
0.260368
0.259559
0.258741
0.257914
0.257076
0.256226
0.255365
0.254491
0.253603
0.252702
0.251788
0.25086
0.249918
0.248962
0.247992
0.24701
0.246015
0.245007
0.243988
0.242957
0.241917
0.240867
0.239808
0.238742
0.237669
0.236591
0.235508
0.234422
0.233334
0.232245
0.231156
0.230069
0.228985
0.227904
0.226828
0.225759
0.224697
0.223644
0.222601
0.221569
0.268281
0.267551
0.266817
0.266081
0.26534
0.264593
0.26384
0.263079
0.262309
0.261529
0.260736
0.259932
0.259114
0.258281
0.257433
0.256569
0.255689
0.254791
0.253876
0.252944
0.251995
0.251028
0.250044
0.249043
0.248025
0.246992
0.245943
0.244879
0.243802
0.242712
0.24161
0.240498
0.239375
0.238244
0.237106
0.235961
0.234811
0.233658
0.232502
0.231345
0.230189
0.229033
0.227881
0.226733
0.225591
0.224455
0.223326
0.222207
0.221098
0.269455
0.268786
0.268108
0.267421
0.266727
0.266023
0.265307
0.264579
0.263837
0.26308
0.262306
0.261515
0.260705
0.259876
0.259027
0.258156
0.257265
0.256352
0.255416
0.254459
0.253479
0.252478
0.251455
0.250411
0.249347
0.248263
0.24716
0.246039
0.2449
0.243746
0.242577
0.241394
0.240199
0.238992
0.237776
0.236552
0.23532
0.234084
0.232843
0.231599
0.230355
0.229111
0.227868
0.226628
0.225393
0.224164
0.222941
0.221727
0.220524
0.270982
0.270387
0.269775
0.269149
0.26851
0.267855
0.267183
0.266493
0.265783
0.265052
0.264298
0.263521
0.262719
0.261891
0.261038
0.260157
0.259249
0.258313
0.25735
0.256358
0.25534
0.254294
0.253221
0.252122
0.250998
0.24985
0.248678
0.247484
0.246269
0.245034
0.243781
0.24251
0.241224
0.239925
0.238612
0.23729
0.235957
0.234618
0.233272
0.231923
0.230571
0.229217
0.227864
0.226513
0.225166
0.223823
0.222486
0.221157
0.21984
0.272896
0.272387
0.271852
0.271297
0.270722
0.270125
0.269504
0.268857
0.268182
0.26748
0.266747
0.265984
0.265188
0.26436
0.263498
0.262602
0.261671
0.260706
0.259706
0.258672
0.257604
0.256502
0.255368
0.254201
0.253004
0.251777
0.250521
0.249238
0.247929
0.246597
0.245241
0.243865
0.242469
0.241056
0.239628
0.238186
0.236733
0.235269
0.233798
0.23232
0.230839
0.229354
0.22787
0.226386
0.224904
0.223427
0.221955
0.220491
0.21904
0.27522
0.27481
0.274364
0.273891
0.273391
0.272859
0.272295
0.271697
0.271063
0.270392
0.269682
0.268932
0.268142
0.267311
0.266437
0.265521
0.264562
0.263561
0.262517
0.261431
0.260303
0.259134
0.257926
0.256679
0.255394
0.254073
0.252718
0.251329
0.249909
0.248459
0.246982
0.24548
0.243954
0.242406
0.240839
0.239256
0.237658
0.236047
0.234426
0.232796
0.231161
0.229522
0.227881
0.22624
0.224601
0.222966
0.221335
0.219714
0.218106
0.277968
0.277664
0.277321
0.276944
0.276529
0.276072
0.275574
0.275031
0.274443
0.273807
0.273123
0.27239
0.271605
0.27077
0.269882
0.268943
0.267952
0.266909
0.265815
0.264669
0.263473
0.262228
0.260935
0.259594
0.258209
0.256779
0.255307
0.253796
0.252245
0.250659
0.249039
0.247388
0.245708
0.244001
0.242271
0.24052
0.238749
0.236964
0.235165
0.233355
0.231538
0.229715
0.22789
0.226063
0.224239
0.222418
0.220602
0.218796
0.217009
0.28114
0.280913
0.280711
0.280448
0.280127
0.279756
0.279334
0.278857
0.278323
0.277731
0.277079
0.276366
0.275592
0.274757
0.273858
0.272898
0.271874
0.270788
0.269642
0.268433
0.267164
0.265835
0.264448
0.263005
0.261507
0.259954
0.258351
0.256698
0.254998
0.253254
0.251468
0.249642
0.247781
0.245886
0.243961
0.242011
0.240035
0.238041
0.23603
0.234005
0.23197
0.229927
0.227882
0.225835
0.22379
0.221749
0.219714
0.217692
0.215693
0.284589
0.284597
0.284529
0.284391
0.284129
0.283867
0.283545
0.28315
0.282685
0.28215
0.281544
0.280867
0.280116
0.279293
0.278395
0.277423
0.276376
0.275256
0.274063
0.272794
0.271454
0.270043
0.268559
0.267008
0.265388
0.263702
0.261952
0.260141
0.25827
0.256344
0.254364
0.252333
0.250258
0.248138
0.24598
0.243789
0.241565
0.239317
0.237046
0.234758
0.232458
0.230147
0.227834
0.225518
0.223207
0.220901
0.218603
0.216323
0.214073
0.288322
0.288472
0.288541
0.288548
0.28849
0.288357
0.288143
0.287848
0.287475
0.287027
0.286497
0.285884
0.285186
0.284403
0.283533
0.282578
0.281532
0.2804
0.279181
0.277871
0.276474
0.27499
0.273417
0.271759
0.270016
0.268188
0.266281
0.264294
0.262229
0.260092
0.257885
0.255611
0.253277
0.250883
0.248439
0.24595
0.243417
0.240852
0.238256
0.235638
0.233004
0.230358
0.227708
0.225058
0.222414
0.219781
0.21716
0.214565
0.212011
0.292114
0.292451
0.292698
0.292876
0.292977
0.293001
0.292946
0.292811
0.292594
0.292284
0.291883
0.291413
0.290823
0.290142
0.28936
0.288476
0.287483
0.286384
0.285182
0.283867
0.282445
0.280916
0.279273
0.277523
0.275663
0.273692
0.271617
0.269437
0.26715
0.264767
0.262287
0.259715
0.25706
0.254322
0.251514
0.248642
0.245709
0.24273
0.23971
0.236659
0.233588
0.230501
0.227414
0.224328
0.221257
0.218205
0.215176
0.212187
0.209257
0.295525
0.296074
0.296542
0.296953
0.297297
0.297578
0.297784
0.297911
0.297953
0.297895
0.297732
0.29745
0.297064
0.296614
0.296019
0.295288
0.294426
0.293437
0.292321
0.291064
0.289674
0.288148
0.286475
0.284663
0.282707
0.2806
0.278352
0.27596
0.273419
0.270743
0.26793
0.264985
0.261921
0.258738
0.255452
0.252074
0.248606
0.245073
0.241478
0.23784
0.234174
0.230487
0.226804
0.22313
0.219486
0.215879
0.212317
0.208822
0.205419
0.297393
0.298122
0.29886
0.299643
0.300435
0.301208
0.301919
0.302539
0.303048
0.303422
0.303661
0.303749
0.303688
0.303474
0.303109
0.302684
0.302057
0.301267
0.300324
0.29921
0.297934
0.296486
0.294851
0.293035
0.291026
0.288815
0.286408
0.283799
0.280981
0.27797
0.274761
0.271363
0.267791
0.264047
0.260154
0.256125
0.251967
0.247712
0.243367
0.238957
0.234504
0.230021
0.225544
0.221085
0.216679
0.212346
0.208104
0.203988
0.200032
0.29645
0.297275
0.298468
0.300015
0.301711
0.303406
0.30497
0.306345
0.3075
0.30842
0.309126
0.309618
0.30992
0.310044
0.309982
0.309753
0.309374
0.308902
0.308199
0.307302
0.306223
0.30494
0.303429
0.301692
0.299708
0.297456
0.294942
0.292151
0.289072
0.285723
0.282099
0.278209
0.274077
0.269707
0.265131
0.260369
0.255433
0.250364
0.245172
0.239889
0.234538
0.229137
0.223726
0.218324
0.21298
0.207735
0.202637
0.197763
0.193178
0.288308
0.289598
0.292945
0.297079
0.301061
0.304544
0.307421
0.309733
0.311564
0.312981
0.314075
0.314884
0.31547
0.315865
0.316081
0.316142
0.31602
0.315758
0.315418
0.314815
0.314022
0.313009
0.311731
0.310181
0.308322
0.306116
0.30356
0.300629
0.297305
0.293608
0.289534
0.285099
0.280338
0.275259
0.269913
0.264328
0.258527
0.252566
0.246459
0.240245
0.233947
0.227576
0.221164
0.214709
0.208249
0.201819
0.195502
0.1895
0.184096
0.261815
0.272556
0.284768
0.294703
0.302041
0.307313
0.311085
0.313838
0.315894
0.317449
0.318652
0.319565
0.320272
0.320811
0.321205
0.321495
0.32165
0.32168
0.321614
0.321396
0.320965
0.320307
0.319359
0.318103
0.316487
0.314439
0.311939
0.308945
0.305428
0.301415
0.296907
0.291925
0.286522
0.280719
0.274586
0.268171
0.261508
0.254674
0.247692
0.240617
0.233473
0.226263
0.219003
0.211638
0.204128
0.196379
0.188298
0.17995
0.171972
0.221337
0.220393
0.219364
0.218239
0.216998
0.215631
0.214166
0.212774
0.211588
0.210636
0.209954
0.209579
0.209541
0.209903
0.210709
0.212024
0.213927
0.216515
0.219915
0.224294
0.229876
0.236974
0.246033
0.257731
0.273166
0.293939
0.321736
0.363554
0.496927
0.221238
0.220276
0.219229
0.218078
0.216805
0.215398
0.213887
0.212446
0.211207
0.210202
0.209462
0.209022
0.20892
0.209198
0.209905
0.211098
0.212848
0.21524
0.218383
0.222414
0.227513
0.233917
0.241933
0.251949
0.264595
0.280806
0.298708
0.312119
0.34968
0.220971
0.219972
0.218877
0.217669
0.216326
0.214834
0.213219
0.211661
0.210302
0.209169
0.20829
0.207698
0.207423
0.2075
0.207967
0.208867
0.210251
0.212175
0.214706
0.217917
0.221889
0.226704
0.232416
0.238947
0.246106
0.253987
0.260235
0.257588
0.259687
0.220549
0.219485
0.218314
0.217015
0.215561
0.213936
0.212161
0.210424
0.208878
0.207548
0.206459
0.205634
0.205097
0.204872
0.204983
0.205454
0.20631
0.207571
0.209254
0.211364
0.213882
0.216755
0.219875
0.222968
0.225556
0.227606
0.228164
0.223186
0.2208
0.219999
0.218846
0.217571
0.216148
0.214547
0.212745
0.210757
0.208789
0.207004
0.205424
0.20407
0.202958
0.202104
0.20152
0.201216
0.201199
0.201469
0.20202
0.20283
0.203863
0.20505
0.206287
0.207441
0.208283
0.208391
0.207621
0.20538
0.19901
0.194829
0.219324
0.21806
0.216655
0.215079
0.213295
0.211274
0.209029
0.206782
0.204714
0.202845
0.20119
0.199758
0.198559
0.197595
0.196865
0.19636
0.196068
0.195962
0.196005
0.196142
0.196294
0.196349
0.196174
0.195578
0.194173
0.191612
0.187228
0.17944
0.174026
0.21852
0.217122
0.215559
0.213798
0.211796
0.209516
0.206969
0.2044
0.202013
0.199824
0.197843
0.196075
0.194522
0.193179
0.192036
0.191077
0.190277
0.189603
0.189008
0.18843
0.187787
0.186964
0.185823
0.184177
0.181671
0.177927
0.172499
0.165019
0.159886
0.217577
0.216019
0.214271
0.212291
0.210032
0.207452
0.204559
0.201628
0.19889
0.196358
0.194036
0.191926
0.190023
0.188318
0.186792
0.185425
0.184184
0.183031
0.181915
0.180771
0.179519
0.178051
0.176236
0.173919
0.17082
0.16664
0.161264
0.155204
0.151038
0.216476
0.214731
0.212765
0.210532
0.207976
0.205052
0.201769
0.19844
0.195325
0.192432
0.189765
0.187318
0.185082
0.18304
0.181173
0.179452
0.177842
0.176301
0.17478
0.173216
0.171535
0.16965
0.167455
0.164835
0.161588
0.157487
0.152641
0.148029
0.144797
0.215184
0.21322
0.211002
0.208474
0.205578
0.202264
0.198546
0.194785
0.191272
0.188012
0.185003
0.182235
0.179691
0.177353
0.175193
0.17318
0.171279
0.169446
0.167634
0.165788
0.163845
0.161736
0.15938
0.156692
0.153521
0.1497
0.14547
0.141976
0.139519
0.21364
0.211422
0.20891
0.206043
0.202757
0.199003
0.194808
0.190585
0.186661
0.183035
0.179698
0.176634
0.173821
0.171232
0.168837
0.166602
0.164488
0.162455
0.160457
0.158445
0.156367
0.154167
0.15178
0.149138
0.146131
0.142654
0.139029
0.136354
0.134519
0.21175
0.209233
0.206378
0.203118
0.199387
0.195143
0.190428
0.185721
0.181383
0.177406
0.17377
0.170449
0.167415
0.164633
0.162068
0.159681
0.157435
0.155285
0.15319
0.151106
0.148987
0.146786
0.144451
0.141923
0.139126
0.136018
0.132957
0.130877
0.129506
0.209363
0.206492
0.203235
0.199519
0.195284
0.190497
0.185228
0.18003
0.175296
0.171
0.167111
0.163591
0.160399
0.157494
0.154831
0.15237
0.150067
0.147882
0.145771
0.143694
0.14161
0.13948
0.137259
0.134898
0.132343
0.129604
0.127045
0.125393
0.124348
0.206213
0.20292
0.199191
0.194953
0.190155
0.184788
0.178956
0.173291
0.168206
0.163657
0.159589
0.155949
0.152682
0.149737
0.147062
0.144611
0.142335
0.140194
0.138145
0.136149
0.134169
0.13217
0.130114
0.127957
0.125666
0.123284
0.12116
0.119823
0.119006
0.201888
0.198089
0.193815
0.188993
0.183596
0.177647
0.171291
0.165234
0.159895
0.155196
0.151058
0.147407
0.144173
0.141291
0.138703
0.136355
0.134196
0.132181
0.130271
0.128426
0.126612
0.124795
0.122944
0.121022
0.119011
0.116982
0.115246
0.114157
0.113492
0.19595
0.191612
0.186792
0.18143
0.17553
0.169141
0.162443
0.156187
0.150777
0.1461
0.14205
0.138531
0.135459
0.132759
0.130362
0.128211
0.126253
0.124441
0.122734
0.121093
0.119487
0.117886
0.11626
0.114583
0.112847
0.11113
0.109706
0.108814
0.108255
0.188498
0.183641
0.178408
0.172728
0.166593
0.16005
0.153289
0.147077
0.141798
0.137312
0.13349
0.130222
0.12741
0.12497
0.122832
0.120933
0.119219
0.117642
0.116163
0.114744
0.113353
0.111962
0.11055
0.109102
0.10762
0.106169
0.104982
0.104237
0.103754
0.178892
0.173814
0.168677
0.163168
0.157194
0.15081
0.144238
0.138267
0.133271
0.129094
0.125594
0.122648
0.120151
0.118015
0.116165
0.11454
0.113084
0.111753
0.110505
0.109305
0.10812
0.106923
0.105695
0.104436
0.103169
0.101949
0.100964
0.100348
0.0999282
0.165716
0.161915
0.157999
0.153249
0.14779
0.141795
0.135582
0.129985
0.125367
0.12157
0.118444
0.115855
0.113695
0.111874
0.110318
0.108965
0.107762
0.106666
0.105636
0.104639
0.103641
0.10261
0.101533
0.100449
0.0994318
0.098505
0.097726
0.0971613
0.0967233
0.215673
0.215992
0.216736
0.218227
0.220294
0.22262
0.225048
0.227511
0.23002
0.232619
0.23535
0.238253
0.241363
0.244715
0.248346
0.252293
0.25659
0.261261
0.266317
0.271745
0.277495
0.283433
0.289285
0.293924
0.29597
0.294227
0.287177
0.272473
0.24178
0.213832
0.214273
0.215131
0.216609
0.21859
0.220842
0.223235
0.225709
0.228269
0.230949
0.233788
0.23682
0.240084
0.243617
0.247462
0.251661
0.256256
0.26128
0.266756
0.272694
0.279085
0.285862
0.292838
0.298969
0.302974
0.304098
0.301765
0.297828
0.302187
0.211947
0.21247
0.213412
0.214883
0.216794
0.21897
0.22131
0.22377
0.226356
0.229094
0.232014
0.235151
0.238541
0.24223
0.246263
0.250693
0.255572
0.260952
0.266884
0.273425
0.280657
0.288683
0.29765
0.306952
0.315825
0.324356
0.332869
0.34013
0.356728
0.209992
0.210494
0.21141
0.212864
0.214778
0.216961
0.219298
0.221757
0.224359
0.227134
0.230111
0.233326
0.236819
0.240636
0.244831
0.249465
0.254605
0.260326
0.266713
0.273886
0.28204
0.291489
0.302832
0.315869
0.330233
0.345924
0.363679
0.380167
0.401511
0.20797
0.208437
0.209301
0.210723
0.212636
0.214832
0.217177
0.219642
0.222256
0.225054
0.228072
0.231345
0.234916
0.238836
0.243164
0.24797
0.253333
0.25935
0.26614
0.273883
0.282882
0.293601
0.307097
0.323214
0.341953
0.363049
0.386543
0.410496
0.437181
0.205881
0.20633
0.207161
0.208543
0.210424
0.212599
0.214932
0.21739
0.220004
0.222811
0.22585
0.229158
0.232779
0.236769
0.24119
0.246118
0.251646
0.257884
0.264978
0.273149
0.282785
0.294377
0.309397
0.327277
0.348255
0.372205
0.399643
0.42895
0.45827
0.203721
0.204159
0.204966
0.206305
0.208132
0.210262
0.212559
0.214991
0.217585
0.220381
0.223416
0.226729
0.230366
0.234383
0.238847
0.243837
0.24945
0.255811
0.263069
0.271469
0.281438
0.293383
0.308716
0.328327
0.350619
0.375156
0.401601
0.428928
0.456442
0.201483
0.201909
0.202689
0.20398
0.205744
0.207813
0.210057
0.212444
0.214997
0.217756
0.220758
0.224042
0.227655
0.231652
0.2361
0.241081
0.246687
0.253056
0.260304
0.268711
0.278526
0.290773
0.306313
0.325796
0.347374
0.37032
0.393823
0.417398
0.440859
0.199166
0.199578
0.200329
0.201564
0.203255
0.205249
0.207424
0.209745
0.212235
0.214931
0.217869
0.221088
0.224633
0.228558
0.232928
0.237823
0.243315
0.249574
0.256588
0.264832
0.274576
0.28649
0.301339
0.319281
0.33869
0.358837
0.37898
0.398847
0.417732
0.196767
0.197167
0.197887
0.19906
0.200665
0.202569
0.204656
0.206891
0.209294
0.2119
0.214742
0.217859
0.221292
0.22509
0.229314
0.23405
0.239305
0.245314
0.252137
0.259993
0.269215
0.280242
0.293666
0.309357
0.325888
0.342591
0.358915
0.374882
0.38951
0.194284
0.19467
0.195355
0.196461
0.197972
0.199773
0.201756
0.203885
0.206177
0.208665
0.21138
0.214357
0.217633
0.221253
0.225264
0.229746
0.234763
0.240415
0.24682
0.254084
0.262451
0.272238
0.28383
0.296915
0.310233
0.323187
0.335407
0.347213
0.357758
0.191717
0.19209
0.192739
0.193773
0.195181
0.196865
0.198725
0.200728
0.202887
0.205231
0.207788
0.210589
0.213666
0.217058
0.220812
0.224989
0.229653
0.234853
0.240673
0.247179
0.254513
0.26287
0.272419
0.282725
0.292745
0.302011
0.310319
0.318153
0.32493
0.189071
0.189435
0.19005
0.191007
0.192301
0.193851
0.195569
0.197424
0.199426
0.2016
0.20397
0.206561
0.209401
0.212525
0.215969
0.219778
0.223995
0.228651
0.233785
0.239422
0.245618
0.252441
0.259874
0.267422
0.274313
0.280247
0.285177
0.289629
0.293256
0.186345
0.186695
0.187269
0.188146
0.189321
0.190729
0.192294
0.193984
0.19581
0.197791
0.199948
0.2023
0.20487
0.207683
0.210767
0.214151
0.217859
0.221902
0.226286
0.230987
0.23599
0.24126
0.246642
0.251648
0.25579
0.258936
0.261169
0.263005
0.264291
0.183544
0.183883
0.184416
0.185208
0.186257
0.187513
0.188911
0.190421
0.192051
0.19382
0.195742
0.197831
0.2001
0.20257
0.205254
0.208169
0.211325
0.21471
0.218302
0.222038
0.225848
0.229626
0.233129
0.235931
0.237806
0.238765
0.238984
0.238961
0.238722
0.180674
0.181003
0.181496
0.182201
0.183119
0.184213
0.185431
0.186744
0.188164
0.189705
0.191374
0.193176
0.195121
0.197217
0.19947
0.201885
0.204455
0.207151
0.209929
0.212699
0.215358
0.217753
0.219599
0.220571
0.22067
0.220024
0.218851
0.21764
0.216585
0.17774
0.178057
0.178505
0.179121
0.179906
0.180835
0.181869
0.18297
0.184174
0.185474
0.186873
0.188372
0.189972
0.191674
0.193474
0.195367
0.197331
0.199325
0.201288
0.203116
0.204688
0.205834
0.206263
0.205772
0.204561
0.202832
0.200797
0.198939
0.197611
0.174749
0.175056
0.17546
0.175986
0.176636
0.177395
0.178229
0.179127
0.180101
0.181149
0.182267
0.183452
0.184695
0.18599
0.187325
0.188683
0.190034
0.191327
0.192489
0.193414
0.193977
0.194012
0.19325
0.191632
0.189513
0.187132
0.184643
0.182524
0.181284
0.171711
0.172012
0.172372
0.17281
0.173323
0.173906
0.174539
0.175222
0.175962
0.176753
0.177585
0.178447
0.179327
0.180209
0.181073
0.181894
0.182633
0.183233
0.183617
0.183681
0.183307
0.182351
0.18059
0.178115
0.175405
0.172702
0.170054
0.167942
0.16703
0.168632
0.168926
0.169238
0.169587
0.169966
0.170376
0.170813
0.171281
0.171785
0.172317
0.172861
0.1734
0.173915
0.174384
0.17478
0.17507
0.175209
0.175134
0.174768
0.174012
0.172766
0.170915
0.168299
0.165168
0.162109
0.159337
0.156759
0.154857
0.15445
0.165524
0.165811
0.166078
0.166338
0.166585
0.166829
0.167069
0.167322
0.167595
0.16787
0.168129
0.168349
0.168505
0.16857
0.168509
0.168283
0.167842
0.167119
0.166038
0.164508
0.162446
0.15977
0.156393
0.152732
0.149483
0.146819
0.144478
0.142945
0.1432
0.162394
0.162667
0.162903
0.163085
0.163202
0.163274
0.16332
0.163366
0.163411
0.163436
0.163418
0.163329
0.163137
0.16281
0.16231
0.161591
0.160597
0.15926
0.157504
0.155245
0.152412
0.148956
0.144856
0.140704
0.137322
0.134858
0.132856
0.131813
0.132895
0.159254
0.159519
0.159727
0.159831
0.159819
0.159724
0.159584
0.159429
0.159254
0.15904
0.158756
0.158369
0.157845
0.157146
0.156229
0.155044
0.153531
0.15162
0.149235
0.146294
0.142734
0.138521
0.133687
0.128979
0.125392
0.123092
0.121432
0.120941
0.123025
0.156112
0.156371
0.156543
0.156568
0.156433
0.156184
0.155872
0.155528
0.155149
0.154708
0.154173
0.153506
0.152669
0.15162
0.150314
0.148695
0.146703
0.144266
0.141304
0.137737
0.133501
0.12856
0.122964
0.117576
0.113587
0.11125
0.109769
0.109779
0.112992
0.152979
0.153238
0.153379
0.153329
0.153076
0.152678
0.1522
0.151681
0.151112
0.150463
0.149695
0.148768
0.147641
0.14627
0.144606
0.142594
0.140169
0.137258
0.133782
0.129661
0.124823
0.11921
0.112846
0.106629
0.101932
0.0991446
0.0973923
0.0976428
0.102086
0.149864
0.150114
0.150217
0.150092
0.149729
0.149197
0.148575
0.147904
0.147169
0.146333
0.145352
0.144188
0.142796
0.141133
0.139147
0.136782
0.133973
0.130647
0.126727
0.122135
0.116793
0.110619
0.103578
0.096513
0.0908619
0.0870833
0.0842064
0.0840304
0.0897824
0.146794
0.147089
0.147213
0.147038
0.146541
0.145828
0.145031
0.144204
0.143319
0.142318
0.141152
0.139778
0.138154
0.136234
0.133968
0.131298
0.128159
0.124482
0.120195
0.115229
0.109507
0.102906
0.0952862
0.0873914
0.0806628
0.075533
0.0706557
0.0683724
0.0739618
0.132104
0.112935
0.0862369
0.0517037
0.0121302
-0.0271049
-0.0632874
-0.096051
-0.126651
-0.157975
-0.190537
-0.226659
-0.263774
-0.298449
-0.326419
-0.344989
-0.354306
-0.356812
-0.356433
0.140136
0.125601
0.100266
0.0653206
0.0225557
-0.023098
-0.0687151
-0.113052
-0.156446
-0.202444
-0.248569
-0.29499
-0.339439
-0.378283
-0.408093
-0.427667
-0.438423
-0.443188
-0.444947
0.135703
0.122462
0.0986433
0.0640233
0.019289
-0.0310663
-0.0840107
-0.14033
-0.196684
-0.253091
-0.309206
-0.363847
-0.414099
-0.456423
-0.488245
-0.509305
-0.521576
-0.527926
-0.531067
0.125591
0.112729
0.0909595
0.0570553
0.0103639
-0.0449741
-0.105372
-0.169196
-0.234637
-0.300596
-0.366108
-0.428888
-0.485145
-0.531108
-0.56476
-0.586745
-0.599829
-0.60716
-0.611277
0.112174
0.100421
0.0803945
0.047176
-0.000577769
-0.0589457
-0.124466
-0.194831
-0.268473
-0.343647
-0.417849
-0.487464
-0.548003
-0.595905
-0.630152
-0.65245
-0.666198
-0.674494
-0.679464
0.0939384
0.0829286
0.0645868
0.0328482
-0.0145574
-0.0743202
-0.143351
-0.21945
-0.300269
-0.382988
-0.463817
-0.538078
-0.601042
-0.649852
-0.684597
-0.707742
-0.722955
-0.73304
-0.739685
0.071327
0.0596328
0.0420024
0.0116495
-0.0347616
-0.094899
-0.166019
-0.245839
-0.331251
-0.418369
-0.502307
-0.577597
-0.639672
-0.686666
-0.719742
-0.741931
-0.757005
-0.767332
-0.77424
0.0455479
0.03198
0.0136342
-0.0164105
-0.0620771
-0.121911
-0.193506
-0.274481
-0.361296
-0.449289
-0.532731
-0.605834
-0.66468
-0.708558
-0.739483
-0.76068
-0.775677
-0.786264
-0.793517
0.0175956
0.00163262
-0.0185173
-0.0494754
-0.0950304
-0.154189
-0.22489
-0.304801
-0.39014
-0.475671
-0.555171
-0.623074
-0.676484
-0.715782
-0.74353
-0.762896
-0.777056
-0.787297
-0.794374
-0.0116375
-0.0299764
-0.0524091
-0.0850475
-0.131049
-0.189431
-0.25839
-0.335729
-0.417535
-0.498236
-0.571559
-0.632641
-0.67976
-0.71421
-0.738821
-0.756538
-0.770115
-0.780465
-0.787989
-0.0411706
-0.0615837
-0.0863112
-0.120882
-0.167683
-0.225397
-0.292246
-0.366007
-0.442543
-0.516093
-0.580794
-0.63294
-0.672077
-0.700196
-0.720161
-0.734589
-0.745751
-0.754339
-0.760545
-0.0698565
-0.0918641
-0.118531
-0.15476
-0.202263
-0.259215
-0.323628
-0.393065
-0.463168
-0.528341
-0.583659
-0.626825
-0.658468
-0.680914
-0.696796
-0.708281
-0.717111
-0.723891
-0.728698
-0.0966397
-0.11968
-0.147713
-0.184949
-0.232608
-0.288372
-0.349969
-0.414699
-0.478119
-0.535112
-0.581915
-0.617496
-0.643194
-0.661374
-0.674327
-0.68382
-0.691205
-0.697088
-0.701371
-0.120791
-0.144348
-0.173158
-0.210674
-0.257801
-0.3118
-0.370076
-0.429613
-0.485982
-0.534797
-0.573567
-0.602343
-0.622879
-0.637385
-0.647763
-0.655413
-0.661354
-0.666156
-0.669622
-0.141876
-0.16552
-0.194573
-0.231692
-0.277581
-0.329171
-0.383584
-0.437567
-0.486944
-0.528284
-0.560298
-0.583808
-0.600676
-0.612809
-0.621704
-0.628419
-0.633709
-0.638072
-0.641246
-0.159841
-0.183269
-0.212147
-0.248335
-0.29242
-0.341105
-0.391348
-0.439831
-0.482839
-0.517913
-0.54471
-0.564474
-0.57898
-0.5898
-0.598087
-0.60463
-0.610013
-0.614628
-0.618109
-0.174997
-0.198064
-0.226521
-0.261468
-0.303395
-0.348799
-0.39454
-0.437387
-0.474287
-0.503778
-0.526244
-0.543102
-0.555891
-0.565824
-0.573739
-0.580198
-0.585648
-0.590348
-0.593904
-0.187754
-0.210457
-0.238406
-0.271995
-0.3116
-0.353544
-0.394699
-0.432125
-0.463573
-0.488462
-0.507637
-0.522473
-0.534207
-0.543715
-0.551559
-0.55811
-0.563707
-0.568505
-0.572125
-0.198592
-0.221064
-0.248591
-0.280912
-0.318272
-0.356859
-0.393693
-0.426275
-0.453149
-0.474397
-0.491087
-0.504449
-0.515425
-0.524614
-0.532372
-0.538934
-0.544564
-0.549359
-0.55297
-0.207999
-0.230512
-0.257903
-0.289248
-0.324539
-0.35979
-0.392294
-0.420203
-0.442917
-0.461039
-0.475668
-0.487781
-0.49802
-0.506746
-0.514163
-0.520418
-0.525731
-0.530177
-0.533477
-0.216237
-0.239227
-0.266975
-0.297839
-0.331373
-0.363395
-0.391664
-0.415198
-0.434239
-0.449724
-0.462637
-0.473658
-0.483153
-0.491303
-0.498207
-0.503964
-0.508763
-0.512692
-0.515562
-0.223423
-0.247534
-0.276371
-0.307415
-0.339517
-0.368316
-0.392299