/*--------------------------------*- C++ -*----------------------------------*\
| =========                 |                                                 |
| \\      /  F ield         | OpenFOAM: The Open Source CFD Toolbox           |
|  \\    /   O peration     | Version:  2312                                  |
|   \\  /    A nd           | Website:  www.openfoam.com                      |
|    \\/     M anipulation  |                                                 |
\*---------------------------------------------------------------------------*/
FoamFile
{
    version     2.0;
    format      ascii;
    arch        "LSB;label=32;scalar=64";
    class       volVectorField;
    location    "64.283587538485918";
    object      U;
}
// * * * * * * * * * * * * * * * * * * * * * * * * * * * * * * * * * * * * * //

dimensions      [0 1 -1 0 0 0 0];

internalField   nonuniform List<vector> 
21039
(
(0.913724 0.0473947 0)
(1.02609 0.0664956 0)
(1.00449 0.0295582 0)
(1.00176 0.018937 0)
(1.0012 0.0139385 0)
(1.00079 0.0105683 0)
(1.00055 0.00825081 0)
(1.0004 0.00661737 0)
(1.0003 0.00541721 0)
(1.00023 0.00450644 0)
(1.00018 0.00379959 0)
(1.00014 0.00324165 0)
(1.00012 0.00279562 0)
(1.00009 0.0024359 0)
(1.00007 0.00214435 0)
(1.00006 0.00190781 0)
(1.00005 0.00171653 0)
(1.00004 0.00156314 0)
(1.00003 0.00144193 0)
(1.00002 0.00134824 0)
(1.00001 0.00127813 0)
(1.00001 0.00122946 0)
(1 0.00120351 0)
(1 0.001181 0)
(1 0.00116514 0)
(1.00001 0.00115298 0)
(1.00001 0.00114047 0)
(1.00001 0.00111832 0)
(1.00001 0.00106642 0)
(0.794428 0.0730414 0)
(1.07452 0.121755 0)
(1.03987 0.0709989 0)
(1.01808 0.0498362 0)
(1.01126 0.0384501 0)
(1.00761 0.0296972 0)
(1.00536 0.0234274 0)
(1.00393 0.0188812 0)
(1.00297 0.0154576 0)
(1.0023 0.0128151 0)
(1.00181 0.0107371 0)
(1.00145 0.00907704 0)
(1.00117 0.00773401 0)
(1.00095 0.00663754 0)
(1.00078 0.00573724 0)
(1.00063 0.00499642 0)
(1.00051 0.00438793 0)
(1.00041 0.00389134 0)
(1.00032 0.00349102 0)
(1.00024 0.00317468 0)
(1.00018 0.00293206 0)
(1.00012 0.00275646 0)
(1.00007 0.00265095 0)
(1.00005 0.00258158 0)
(1.00004 0.00254909 0)
(1.00004 0.00253674 0)
(1.00004 0.00253145 0)
(1.00005 0.0025156 0)
(1.00006 0.00246258 0)
(0.667122 0.0572978 0)
(1.08295 0.124938 0)
(1.0843 0.0905292 0)
(1.04621 0.0679054 0)
(1.02898 0.0544373 0)
(1.02017 0.0435261 0)
(1.0146 0.0352707 0)
(1.0109 0.0289446 0)
(1.00834 0.0239737 0)
(1.00652 0.0200264 0)
(1.00518 0.0168569 0)
(1.00417 0.014283 0)
(1.00339 0.0121731 0)
(1.00278 0.0104318 0)
(1.00229 0.00898877 0)
(1.00188 0.0077919 0)
(1.00154 0.00680194 0)
(1.00124 0.00598915 0)
(1.00099 0.00533068 0)
(1.00077 0.00480878 0)
(1.00057 0.00440876 0)
(1.0004 0.00411974 0)
(1.00025 0.00394606 0)
(1.00015 0.00384545 0)
(1.00009 0.00380987 0)
(1.00007 0.00380699 0)
(1.00007 0.00381521 0)
(1.00008 0.00381236 0)
(1.00009 0.0037697 0)
(0.540704 0.0352938 0)
(1.0505 0.110996 0)
(1.11576 0.0973249 0)
(1.07597 0.076622 0)
(1.04907 0.0625218 0)
(1.03509 0.051483 0)
(1.02623 0.0428844 0)
(1.02005 0.0359385 0)
(1.01562 0.0302409 0)
(1.01237 0.0255663 0)
(1.00994 0.0217104 0)
(1.00808 0.0185091 0)
(1.00663 0.0158378 0)
(1.00547 0.0136012 0)
(1.00452 0.0117258 0)
(1.00374 0.0101552 0)
(1.00308 0.00884609 0)
(1.0025 0.00776491 0)
(1.002 0.00688565 0)
(1.00156 0.00618801 0)
(1.00116 0.00565537 0)
(1.00081 0.00527419 0)
(1.00049 0.0050498 0)
(1.00027 0.00493373 0)
(1.00013 0.00490616 0)
(1.00006 0.00492065 0)
(1.00003 0.00494857 0)
(1.00004 0.0049641 0)
(1.00005 0.00493472 0)
(0.44373 0.0186934 0)
(0.997228 0.0920544 0)
(1.12869 0.0960178 0)
(1.10119 0.0799149 0)
(1.06795 0.0659423 0)
(1.04945 0.0553513 0)
(1.03793 0.0470636 0)
(1.0297 0.0401338 0)
(1.02359 0.0342709 0)
(1.01899 0.029326 0)
(1.01546 0.0251406 0)
(1.01271 0.0215865 0)
(1.01052 0.0185635 0)
(1.00874 0.0159911 0)
(1.00728 0.0138046 0)
(1.00605 0.0119529 0)
(1.005 0.0103956 0)
(1.00409 0.00910083 0)
(1.00328 0.00804339 0)
(1.00255 0.00720357 0)
(1.0019 0.00656534 0)
(1.0013 0.00611455 0)
(1.00077 0.00585808 0)
(1.00037 0.0057426 0)
(1.00012 0.00573538 0)
(0.999981 0.00577758 0)
(0.999928 0.00583464 0)
(0.999928 0.00587711 0)
(0.99993 0.00586617 0)
(0.378048 0.00812623 0)
(0.938914 0.0720222 0)
(1.12644 0.0886841 0)
(1.12043 0.0791356 0)
(1.08507 0.0664737 0)
(1.06258 0.0565871 0)
(1.04878 0.0488348 0)
(1.03894 0.0422092 0)
(1.0315 0.0364743 0)
(1.02575 0.0315261 0)
(1.02125 0.0272445 0)
(1.01767 0.0235352 0)
(1.01477 0.0203232 0)
(1.01238 0.0175461 0)
(1.01038 0.015153 0)
(1.00868 0.0131025 0)
(1.00721 0.0113613 0)
(1.00591 0.00990298 0)
(1.00475 0.00870636 0)
(1.0037 0.0077549 0)
(1.00274 0.00703535 0)
(1.00186 0.0065351 0)
(1.00105 0.00626369 0)
(1.00045 0.00616405 0)
(1.00005 0.00618995 0)
(0.999826 0.00627116 0)
(0.999729 0.00636781 0)
(0.999708 0.00644671 0)
(0.999693 0.00646079 0)
(0.332718 0.00235588 0)
(0.882357 0.0539958 0)
(1.11323 0.0782181 0)
(1.13328 0.0753319 0)
(1.10029 0.0648907 0)
(1.07466 0.0559247 0)
(1.05877 0.0488309 0)
(1.0476 0.0426762 0)
(1.03908 0.0372347 0)
(1.03239 0.0324349 0)
(1.02706 0.0281964 0)
(1.02275 0.0244569 0)
(1.0192 0.0211645 0)
(1.01623 0.0182747 0)
(1.01371 0.0157509 0)
(1.01154 0.013563 0)
(1.00963 0.0116869 0)
(1.00792 0.0101032 0)
(1.00638 0.00879683 0)
(1.00497 0.00775639 0)
(1.00366 0.0069732 0)
(1.00244 0.00643801 0)
(1.00133 0.00616428 0)
(1.00047 0.00609227 0)
(0.999899 0.0061619 0)
(0.999565 0.00629215 0)
(0.999408 0.00643824 0)
(0.999353 0.00656307 0)
(0.99931 0.00660943 0)
(0.300326 -0.000173036 0)
(0.830399 0.0396958 0)
(1.09276 0.0672584 0)
(1.13975 0.0698564 0)
(1.1131 0.0619555 0)
(1.08567 0.0539857 0)
(1.06794 0.0475476 0)
(1.05566 0.0419178 0)
(1.04627 0.0368475 0)
(1.03881 0.0322777 0)
(1.03279 0.0281622 0)
(1.02784 0.0244664 0)
(1.02371 0.0211596 0)
(1.02021 0.0182142 0)
(1.01719 0.0156076 0)
(1.01456 0.0133213 0)
(1.01221 0.0113405 0)
(1.01009 0.00965438 0)
(1.00814 0.00825494 0)
(1.00634 0.00713707 0)
(1.00464 0.00629806 0)
(1.00305 0.00573361 0)
(1.00158 0.00546241 0)
(1.00042 0.00542345 0)
(0.999645 0.00554315 0)
(0.999176 0.00572993 0)
(0.998936 0.0059341 0)
(0.99883 0.00611412 0)
(0.99874 0.00620075 0)
(0.277283 -0.000970077 0)
(0.784565 0.029163 0)
(1.06834 0.057174 0)
(1.14071 0.0637545 0)
(1.12321 0.0583385 0)
(1.09553 0.0513469 0)
(1.0763 0.0454618 0)
(1.06308 0.0402996 0)
(1.05302 0.035591 0)
(1.04495 0.0312675 0)
(1.03835 0.0273028 0)
(1.03287 0.0236822 0)
(1.02824 0.0203915 0)
(1.02426 0.0174178 0)
(1.02079 0.0147511 0)
(1.01771 0.0123834 0)
(1.01493 0.0103099 0)
(1.01239 0.00852779 0)
(1.01002 0.00703708 0)
(1.0078 0.0058398 0)
(1.00569 0.00494029 0)
(1.00368 0.00434065 0)
(1.0018 0.00406621 0)
(1.0003 0.00405686 0)
(0.999279 0.00422655 0)
(0.998641 0.00447291 0)
(0.998291 0.00474101 0)
(0.998106 0.00498415 0)
(0.997947 0.00511929 0)
(0.260805 -0.00101908 0)
(0.745254 0.0216929 0)
(1.04253 0.0483909 0)
(1.13747 0.0575976 0)
(1.13078 0.0544292 0)
(1.10429 0.0483779 0)
(1.08398 0.0429312 0)
(1.06994 0.0381304 0)
(1.05934 0.0337183 0)
(1.0508 0.0296073 0)
(1.04375 0.025778 0)
(1.03783 0.0222273 0)
(1.03276 0.0189523 0)
(1.02836 0.0159511 0)
(1.02447 0.0132236 0)
(1.02098 0.0107716 0)
(1.01778 0.00859855 0)
(1.01482 0.00671016 0)
(1.01203 0.00511425 0)
(1.00937 0.00382083 0)
(1.00682 0.00284221 0)
(1.00435 0.00218771 0)
(1.00201 0.00189055 0)
(1.00012 0.0018954 0)
(0.998804 0.00210554 0)
(0.997956 0.00240683 0)
(0.997457 0.00273873 0)
(0.997154 0.00304949 0)
(0.996894 0.00324048 0)
(0.248575 -0.000806836 0)
(0.711971 0.0164983 0)
(1.01697 0.0409404 0)
(1.13131 0.0516803 0)
(1.13617 0.0504208 0)
(1.11209 0.0452585 0)
(1.09112 0.0401641 0)
(1.07638 0.0356198 0)
(1.06533 0.0314221 0)
(1.05643 0.0274657 0)
(1.04902 0.0237306 0)
(1.04273 0.0202194 0)
(1.03731 0.016936 0)
(1.03254 0.0138864 0)
(1.02827 0.0110779 0)
(1.02439 0.00852001 0)
(1.0208 0.00622373 0)
(1.01742 0.00420258 0)
(1.0142 0.0024722 0)
(1.01109 0.00104986 0)
(1.00806 -4.42242e-05 0)
(1.00509 -0.000791809 0)
(1.00225 -0.00114918 0)
(0.999911 -0.00116227 0)
(0.998242 -0.000934867 0)
(0.997133 -0.000594234 0)
(0.996436 -0.000213249 0)
(0.995972 0.000164636 0)
(0.995564 0.000438998 0)
(0.239073 -0.000556182 0)
(0.683877 0.012895 0)
(0.992581 0.0347075 0)
(1.12323 0.04616 0)
(1.13971 0.04643 0)
(1.11905 0.0420825 0)
(1.09788 0.0372787 0)
(1.08255 0.0329017 0)
(1.0711 0.0288371 0)
(1.0619 0.0249709 0)
(1.05421 0.021278 0)
(1.04764 0.0177623 0)
(1.04191 0.014432 0)
(1.03682 0.0112978 0)
(1.03222 0.00837291 0)
(1.02799 0.00567254 0)
(1.02402 0.00321436 0)
(1.02024 0.00101799 0)
(1.01659 -0.000895231 0)
(1.01301 -0.00250011 0)
(1.00948 -0.00376653 0)
(1.00598 -0.00466575 0)
(1.00258 -0.00514251 0)
(0.999735 -0.00522946 0)
(0.997655 -0.00502933 0)
(0.996221 -0.0046776 0)
(0.995262 -0.00425601 0)
(0.994575 -0.00383391 0)
(0.993964 -0.00353403 0)
(0.231429 -0.000356652 0)
(0.660135 0.0103461 0)
(0.969845 0.0295188 0)
(1.114 0.0411063 0)
(1.14175 0.0425384 0)
(1.12525 0.0389136 0)
(1.10436 0.0343533 0)
(1.08855 0.0300704 0)
(1.07676 0.0260643 0)
(1.06733 0.0222242 0)
(1.05942 0.0185182 0)
(1.05261 0.0149482 0)
(1.04663 0.0115243 0)
(1.04128 0.0082602 0)
(1.03639 0.0051727 0)
(1.03183 0.00228148 0)
(1.02752 -0.000392393 0)
(1.02335 -0.00282454 0)
(1.01928 -0.0049856 0)
(1.01523 -0.00684185 0)
(1.01118 -0.00835494 0)
(1.00711 -0.00948636 0)
(1.00311 -0.0101687 0)
(0.999692 -0.0104153 0)
(0.997133 -0.010316 0)
(0.995298 -0.0100119 0)
(0.993989 -0.00958982 0)
(0.992986 -0.00913688 0)
(0.992089 -0.00880939 0)
(0.22513 -0.000225644 0)
(0.640007 0.00847793 0)
(0.948972 0.0251935 0)
(1.1042 0.0365298 0)
(1.14261 0.0388005 0)
(1.1308 0.0357998 0)
(1.11064 0.0314457 0)
(1.09451 0.0271995 0)
(1.08242 0.0231873 0)
(1.07279 0.0193138 0)
(1.06471 0.0155404 0)
(1.05773 0.0118651 0)
(1.05156 0.00829749 0)
(1.04599 0.00485239 0)
(1.04086 0.0015481 0)
(1.03603 -0.00159484 0)
(1.0314 -0.00455173 0)
(1.02688 -0.00729203 0)
(1.02239 -0.00977955 0)
(1.01788 -0.0119733 0)
(1.0133 -0.0138275 0)
(1.00863 -0.0152958 0)
(1.00399 -0.016301 0)
(0.999956 -0.0168333 0)
(0.996852 -0.0169549 0)
(0.994527 -0.016805 0)
(0.992758 -0.0164721 0)
(0.991314 -0.0160539 0)
(0.990005 -0.0157324 0)
(0.219854 -0.000153379 0)
(0.622873 0.00705904 0)
(0.930005 0.021598 0)
(1.09422 0.0324391 0)
(1.14253 0.0352661 0)
(1.13575 0.0327787 0)
(1.11672 0.0285951 0)
(1.10043 0.0243422 0)
(1.0881 0.0202711 0)
(1.07832 0.0163122 0)
(1.07012 0.0124215 0)
(1.06302 0.0085921 0)
(1.05671 0.0048312 0)
(1.05097 0.00115214 0)
(1.04564 -0.00242817 0)
(1.04058 -0.00588814 0)
(1.03568 -0.00919947 0)
(1.03083 -0.0123268 0)
(1.02596 -0.0152285 0)
(1.02099 -0.0178564 0)
(1.01588 -0.0201581 0)
(1.01062 -0.0220815 0)
(1.00533 -0.0235462 0)
(1.00069 -0.0245281 0)
(0.99705 -0.0250532 0)
(0.9942 -0.0252459 0)
(0.991886 -0.0251776 0)
(0.989872 -0.0249387 0)
(0.988005 -0.0247119 0)
(0.215743 -0.000108344 0)
(0.609281 0.00603478 0)
(0.914162 0.0188118 0)
(1.08519 0.0290687 0)
(1.14195 0.0322216 0)
(1.13995 0.0301261 0)
(1.12229 0.0260764 0)
(1.10601 0.0217935 0)
(1.09351 0.0176365 0)
(1.08362 0.0135646 0)
(1.07536 0.00953006 0)
(1.06819 0.0055198 0)
(1.06181 0.00153636 0)
(1.05599 -0.0024106 0)
(1.05054 -0.00630664 0)
(1.04533 -0.0101307 0)
(1.04023 -0.0138534 0)
(1.03514 -0.0174376 0)
(1.02995 -0.0208374 0)
(1.02459 -0.0239974 0)
(1.01901 -0.0268557 0)
(1.0132 -0.0293505 0)
(1.00731 -0.0313934 0)
(1.00216 -0.0329509 0)
(0.998076 -0.0340346 0)
(0.994789 -0.0347749 0)
(0.991946 -0.0352161 0)
(0.989263 -0.0353946 0)
(0.986625 -0.0354312 0)
(0.21274 -8.34522e-05 0)
(0.599313 0.00533488 0)
(0.902072 0.0168115 0)
(1.07787 0.0265363 0)
(1.14118 0.0298661 0)
(1.14324 0.0280493 0)
(1.1269 0.024095 0)
(1.11074 0.0197745 0)
(1.09815 0.0155321 0)
(1.08821 0.0113508 0)
(1.07994 0.00717891 0)
(1.07277 0.00299598 0)
(1.06638 -0.00120044 0)
(1.06053 -0.00540573 0)
(1.05505 -0.00960924 0)
(1.04977 -0.0137926 0)
(1.04457 -0.0179294 0)
(1.03932 -0.0219844 0)
(1.03393 -0.0259115 0)
(1.02829 -0.029651 0)
(1.02234 -0.0331312 0)
(1.01609 -0.0362754 0)
(1.00972 -0.0389672 0)
(1.00417 -0.0411329 0)
(0.999828 -0.0427858 0)
(0.996369 -0.0441404 0)
(0.993326 -0.0453233 0)
(0.990299 -0.0463571 0)
(0.98715 -0.047098 0)
(0.21043 -4.25061e-05 0)
(0.59168 0.00485702 0)
(0.892543 0.0153599 0)
(1.0718 0.0246215 0)
(1.14031 0.028045 0)
(1.14583 0.0264361 0)
(1.13075 0.0225612 0)
(1.11477 0.0182148 0)
(1.10212 0.0139046 0)
(1.09216 0.00963253 0)
(1.0839 0.00534314 0)
(1.07676 0.00100994 0)
(1.07039 -0.00337467 0)
(1.06457 -0.00781102 0)
(1.0591 -0.0122934 0)
(1.05382 -0.0168085 0)
(1.04859 -0.0213362 0)
(1.04327 -0.0258469 0)
(1.03776 -0.0302986 0)
(1.03194 -0.0346332 0)
(1.02574 -0.0387747 0)
(1.01915 -0.042635 0)
(1.01237 -0.0460547 0)
(1.00645 -0.0488423 0)
(1.00188 -0.0509281 0)
(0.998413 -0.0525953 0)
(0.995646 -0.0542109 0)
(0.99325 -0.0561443 0)
(0.990638 -0.0578603 0)
(0.208972 -5.44689e-05 0)
(0.586435 0.00448539 0)
(0.885772 0.0143253 0)
(1.06741 0.0232674 0)
(1.13973 0.0267393 0)
(1.14789 0.0252365 0)
(1.13384 0.0213828 0)
(1.11805 0.0170052 0)
(1.10541 0.0126453 0)
(1.09546 0.00830444 0)
(1.08724 0.00391937 0)
(1.08015 -0.000540504 0)
(1.07385 -0.00508646 0)
(1.06809 -0.00972368 0)
(1.06267 -0.0144519 0)
(1.05744 -0.0192651 0)
(1.05224 -0.0241511 0)
(1.04694 -0.029089 0)
(1.04142 -0.034046 0)
(1.03555 -0.0389724 0)
(1.02925 -0.0437993 0)
(1.02251 -0.0484484 0)
(1.01554 -0.0527501 0)
(1.00944 -0.0563644 0)
(1.00472 -0.0590053 0)
(1.0012 -0.0607424 0)
(0.998599 -0.061622 0)
(0.996903 -0.0623372 0)
(0.996976 -0.0667191 0)
(1.00001 0.00107781 0)
(1.00001 0.00108166 0)
(1.00001 0.00108072 0)
(1.00001 0.00108061 1.03182e-21)
(1.00001 0.0010824 5.14245e-21)
(1.00001 0.00108591 -9.25061e-21)
(1.00001 0.00109096 5.13605e-21)
(1 0.00109746 -4.08837e-21)
(1 0.00110523 5.24241e-22)
(1 0.00111431 4.08449e-21)
(1 0.00112451 0)
(0.999999 0.00113581 -4.56031e-21)
(0.999998 0.00114812 5.19946e-22)
(0.999997 0.00116129 4.04667e-21)
(0.999996 0.0011753 0)
(0.999994 0.00119 0)
(0.999993 0.00120531 -4.00067e-21)
(0.999992 0.00122114 4.00319e-21)
(0.999991 0.00123731 0)
(0.99999 0.00125381 -1.98239e-21)
(0.999989 0.00127048 2.10701e-21)
(0.999989 0.00128719 1.84604e-21)
(0.999988 0.00130388 -2.95129e-21)
(0.999987 0.0013204 9.5089e-22)
(0.999987 0.00133664 3.04431e-23)
(0.999986 0.00135253 -6.08405e-23)
(0.999986 0.00136792 8.45551e-22)
(0.999986 0.00138271 -9.66557e-22)
(0.999985 0.00139683 0)
(0.999985 0.00141017 0)
(0.999985 0.00142263 -2.38131e-22)
(0.999985 0.00143406 -2.37029e-22)
(0.999986 0.0014444 -4.00166e-21)
(0.999986 0.0014537 3.29353e-21)
(0.999986 0.00146179 -4.19603e-21)
(0.999987 0.00146866 4.19044e-21)
(0.999988 0.00147426 -3.2286e-21)
(0.999988 0.00147849 3.2275e-21)
(0.999989 0.00148136 4.57567e-22)
(0.99999 0.00148276 4.55136e-22)
(0.999992 0.00148269 -4.52676e-22)
(0.999993 0.00148111 0)
(0.999994 0.00147792 0)
(0.999996 0.00147321 0)
(0.999997 0.00146688 0)
(0.999999 0.00145901 0)
(1 0.00144946 1.74767e-21)
(1 0.00143766 -1.74464e-21)
(1 0.0014197 0)
(1.00006 0.00248 0)
(1.00004 0.00248956 2.08337e-21)
(1.00003 0.00249633 -2.07475e-21)
(1.00002 0.00250669 -1.03495e-21)
(1 0.00252175 -1.03497e-21)
(0.99999 0.00254093 -3.09263e-21)
(0.999977 0.00256389 5.16306e-21)
(0.999965 0.00259066 0)
(0.999954 0.00262065 -5.13199e-22)
(0.999943 0.00265401 -1.02502e-21)
(0.999933 0.00269028 0)
(0.999924 0.00272926 5.09646e-22)
(0.999915 0.00277086 -4.56935e-21)
(0.999907 0.00281457 4.06456e-21)
(0.999899 0.00286038 0)
(0.999892 0.00290791 1.00987e-21)
(0.999886 0.00295685 0)
(0.99988 0.00300713 0)
(0.999875 0.00305824 0)
(0.999871 0.00311003 -1.99052e-21)
(0.999868 0.00316228 1.86706e-21)
(0.999866 0.00321459 -1.24063e-22)
(0.999864 0.00326676 0)
(0.999863 0.00331854 -4.60093e-22)
(0.999863 0.00336958 4.83217e-22)
(0.999864 0.00341967 9.15521e-23)
(0.999865 0.00346857 1.21505e-22)
(0.999868 0.00351596 0)
(0.999871 0.00356161 -1.92477e-21)
(0.999875 0.00360531 1.92434e-21)
(0.99988 0.00364679 -3.57711e-21)
(0.999885 0.0036858 7.85136e-21)
(0.999892 0.00372215 -3.56035e-21)
(0.999899 0.00375561 4.71319e-22)
(0.999907 0.00378593 4.69083e-22)
(0.999915 0.00381299 4.67205e-22)
(0.999924 0.00383651 -4.64427e-22)
(0.999934 0.00385632 4.15128e-21)
(0.999945 0.00387233 -3.2256e-21)
(0.999956 0.0038842 -1.37196e-21)
(0.999968 0.00389195 4.99537e-21)
(0.999981 0.0038953 -3.62654e-21)
(0.999994 0.00389408 -1.79937e-21)
(1.00001 0.00388831 3.57105e-21)
(1.00002 0.0038776 -7.11798e-21)
(1.00004 0.00386216 3.54596e-21)
(1.00005 0.00384174 1.7554e-21)
(1.00007 0.00381568 -4.51103e-24)
(1.00009 0.00377951 0)
(1.00007 0.00378846 3.13538e-21)
(1.00004 0.00380601 -1.04681e-21)
(0.999998 0.00382626 -4.16783e-21)
(0.999959 0.00385261 2.07635e-21)
(0.999922 0.0038862 -2.07564e-21)
(0.999887 0.00392629 0)
(0.999853 0.00397242 -2.0633e-21)
(0.999821 0.00402482 -6.17574e-21)
(0.999791 0.0040823 6.17613e-21)
(0.999763 0.00414526 1.02452e-21)
(0.999736 0.00421284 0)
(0.999712 0.00428471 -6.11944e-21)
(0.99969 0.00436088 1.34166e-23)
(0.99967 0.00444027 4.06782e-21)
(0.999651 0.00452305 0)
(0.999635 0.00460852 -1.00876e-21)
(0.999621 0.00469611 -1.00838e-21)
(0.99961 0.00478594 0)
(0.9996 0.00487694 -1.00219e-21)
(0.999593 0.0049689 -1.99129e-21)
(0.999588 0.00506163 1.99189e-21)
(0.999585 0.00515428 -2.48629e-22)
(0.999584 0.00524662 -2.47166e-22)
(0.999586 0.00533831 0)
(0.99959 0.00542868 3.8212e-23)
(0.999596 0.00551739 -2.13699e-22)
(0.999604 0.00560416 0)
(0.999615 0.00568838 0)
(0.999627 0.00576966 -1.92426e-21)
(0.999642 0.00584775 1.9239e-21)
(0.999659 0.00592211 -3.81456e-21)
(0.999678 0.00599237 3.8133e-21)
(0.999699 0.00605827 0)
(0.999722 0.00611931 0)
(0.999747 0.00617517 0)
(0.999774 0.00622565 -9.32796e-22)
(0.999803 0.0062702 -1.85761e-21)
(0.999834 0.0063086 0)
(0.999866 0.00634066 -9.18583e-22)
(0.9999 0.0063658 -9.0562e-22)
(0.999936 0.00638406 2.73503e-21)
(0.999973 0.00639492 0)
(1.00001 0.00639811 3.58899e-21)
(1.00005 0.00639365 -5.37092e-21)
(1.00009 0.00638078 0)
(1.00014 0.00635984 0)
(1.00018 0.00633015 0)
(1.00023 0.00629104 -1.74855e-21)
(1.00028 0.00623926 -1.73603e-21)
(1.00001 0.00495698 -2.09409e-21)
(0.999948 0.0049888 4.19105e-21)
(0.999876 0.00502985 4.18172e-21)
(0.999803 0.00507921 6.24693e-21)
(0.999733 0.00513837 -2.08748e-21)
(0.999665 0.00520649 -4.14243e-21)
(0.999601 0.00528305 8.28083e-21)
(0.99954 0.00536855 -4.89585e-24)
(0.999483 0.00546099 -2.05794e-21)
(0.99943 0.00556124 2.06004e-21)
(0.999381 0.00566785 0)
(0.999336 0.00578042 2.04279e-21)
(0.999295 0.0058991 -2.02899e-21)
(0.999258 0.00602209 8.14013e-21)
(0.999226 0.00614985 -8.1169e-21)
(0.999197 0.00628126 6.08167e-21)
(0.999173 0.00641548 -1.01487e-21)
(0.999154 0.00655294 1.0078e-21)
(0.999139 0.00669176 1.00089e-21)
(0.999128 0.00683182 -1.00131e-21)
(0.999121 0.00697294 0)
(0.99912 0.00711373 -1.48525e-21)
(0.999122 0.00725396 1.24112e-21)
(0.999129 0.00739321 9.86798e-22)
(0.99914 0.0075304 4.59548e-23)
(0.999156 0.00766512 9.13857e-23)
(0.999176 0.00779706 1.45855e-21)
(0.9992 0.00792518 -9.71012e-22)
(0.999229 0.00804904 1.92547e-21)
(0.999261 0.00816835 -1.92515e-21)
(0.999298 0.0082822 0)
(0.999339 0.00839017 4.75103e-21)
(0.999384 0.0084919 -3.79682e-21)
(0.999432 0.0085866 3.7611e-21)
(0.999485 0.00867395 -3.75972e-21)
(0.999541 0.00875358 0)
(0.999601 0.00882469 3.70172e-21)
(0.999664 0.00888708 -1.85418e-21)
(0.999731 0.00894039 0)
(0.999801 0.00898383 3.64611e-21)
(0.999874 0.0090175 -3.64184e-21)
(0.999951 0.0090406 1.80641e-21)
(1.00003 0.00905281 1.79692e-21)
(1.00011 0.00905414 5.35718e-21)
(1.0002 0.0090435 6.53548e-24)
(1.00029 0.0090214 3.53946e-21)
(1.00038 0.00898667 1.75133e-21)
(1.00048 0.00893864 1.73798e-21)
(1.00058 0.00887554 1.73653e-21)
(0.999863 0.00589634 0)
(0.999759 0.00595095 -4.19492e-21)
(0.999644 0.00602219 -4.18353e-21)
(0.999527 0.00610387 0)
(0.999412 0.00619803 -4.16851e-21)
(0.999302 0.00630372 1.19991e-23)
(0.999197 0.00642038 8.33186e-21)
(0.999099 0.00654888 -2.08653e-21)
(0.999007 0.00668625 -1.24186e-23)
(0.998921 0.00683398 -6.19289e-21)
(0.998842 0.0069899 0)
(0.99877 0.00715357 -6.16042e-21)
(0.998705 0.00732535 2.0588e-21)
(0.998647 0.00750253 0)
(0.998595 0.00768603 -2.04243e-21)
(0.998551 0.00787415 1.04734e-23)
(0.998515 0.0080658 -2.02177e-21)
(0.998485 0.00826179 7.0638e-21)
(0.998463 0.00845925 -1.47085e-23)
(0.998448 0.00865825 -1.01551e-21)
(0.998441 0.00885862 -9.99554e-22)
(0.998441 0.00905827 1.98595e-21)
(0.998448 0.00925709 -1.98623e-21)
(0.998463 0.00945453 -2.45177e-22)
(0.998485 0.00964901 5.07985e-22)
(0.998514 0.00984012 -2.73847e-22)
(0.998551 0.0100275 9.74836e-22)
(0.998594 0.0102096 -9.72825e-22)
(0.998645 0.0103859 9.68336e-22)
(0.998703 0.0105562 1.91949e-21)
(0.998767 0.0107191 -5.73926e-21)
(0.998838 0.0108741 -9.33873e-22)
(0.998916 0.0110208 5.69951e-21)
(0.999 0.011158 1.8887e-21)
(0.99909 0.0112856 -3.74433e-21)
(0.999187 0.0114028 3.7421e-21)
(0.999289 0.0115087 9.40352e-24)
(0.999397 0.0116031 5.54111e-21)
(0.999512 0.0116855 -3.69217e-21)
(0.999631 0.0117548 -9.1405e-21)
(0.999757 0.0118113 3.63193e-21)
(0.999887 0.0118539 1.80501e-21)
(1.00002 0.0118821 7.17032e-21)
(1.00016 0.0118962 -3.57881e-21)
(1.00031 0.0118945 -1.04228e-23)
(1.00046 0.011878 -1.14499e-23)
(1.00062 0.0118449 0)
(1.00078 0.0117946 -3.48749e-21)
(1.00095 0.0117274 -3.45805e-21)
(0.999592 0.00650446 0)
(0.999442 0.00659242 -6.34722e-21)
(0.999273 0.0067053 6.33577e-21)
(0.9991 0.00683075 0)
(0.99893 0.0069716 0)
(0.998766 0.00712675 -4.18285e-21)
(0.99861 0.00729565 -3.21084e-24)
(0.998463 0.00747962 -4.18042e-21)
(0.998326 0.00767454 -8.75116e-24)
(0.998198 0.00788271 0)
(0.998081 0.00810108 0)
(0.997974 0.00832921 2.05868e-21)
(0.997878 0.00856771 0)
(0.997792 0.00881276 0)
(0.997717 0.00906591 -2.04574e-21)
(0.997653 0.00932475 4.10126e-21)
(0.9976 0.00958791 2.04167e-21)
(0.997558 0.00985667 0)
(0.997527 0.010127 2.00542e-21)
(0.997507 0.0103992 -5.04394e-21)
(0.997499 0.010673 -2.00618e-21)
(0.997502 0.0109457 -1.99383e-21)
(0.997516 0.0112173 1.99402e-21)
(0.997541 0.011487 1.4227e-24)
(0.997577 0.0117527 1.54646e-23)
(0.997625 0.012014 2.45093e-22)
(0.997683 0.0122705 -4.90086e-22)
(0.997752 0.01252 0)
(0.997832 0.0127621 -9.66823e-22)
(0.997922 0.0129964 0)
(0.998022 0.0132211 0)
(0.998133 0.0134357 -1.91281e-21)
(0.998254 0.0136396 -7.58709e-21)
(0.998384 0.0138314 2.4829e-23)
(0.998524 0.0140108 1.88529e-21)
(0.998673 0.014177 0)
(0.998831 0.0143288 -1.85572e-21)
(0.998998 0.0144659 -3.69796e-21)
(0.999174 0.0145878 3.66989e-21)
(0.999358 0.0146931 7.30309e-21)
(0.99955 0.0147823 -7.2587e-21)
(0.99975 0.0148538 2.6279e-25)
(0.999958 0.0149074 -3.58676e-21)
(1.00017 0.0149431 -2.80491e-24)
(1.0004 0.0149592 0)
(1.00063 0.0149567 -3.52175e-21)
(1.00087 0.0149334 -1.74379e-21)
(1.00112 0.0148889 1.74251e-21)
(1.00138 0.0148264 3.45839e-21)
(0.999163 0.00667362 0)
(0.998956 0.00680784 4.24271e-21)
(0.998722 0.00697593 -1.27479e-20)
(0.998481 0.00715879 0)
(0.998242 0.00736046 0)
(0.998011 0.00757956 -8.4489e-21)
(0.997791 0.0078156 8.41254e-21)
(0.997584 0.00807042 -4.21677e-21)
(0.99739 0.00833854 -8.81164e-24)
(0.997209 0.00862329 4.18504e-21)
(0.997044 0.00892054 0)
(0.996893 0.0092299 0)
(0.996757 0.00955226 4.16368e-21)
(0.996636 0.00988251 0)
(0.99653 0.0102229 0)
(0.996441 0.0105703 -4.10919e-21)
(0.996367 0.010923 1.64991e-23)
(0.996309 0.0112827 0)
(0.996266 0.011644 2.02529e-21)
(0.996241 0.0120077 5.06336e-21)
(0.996231 0.0123735 -2.02853e-21)
(0.996237 0.0127375 0)
(0.996259 0.0131001 -9.97995e-22)
(0.996298 0.0134603 1.2466e-21)
(0.996352 0.0138153 -5.43318e-22)
(0.996422 0.0141648 -2.47572e-22)
(0.996508 0.014508 4.87004e-22)
(0.996609 0.0148425 -9.79569e-22)
(0.996726 0.0151677 0)
(0.996858 0.0154829 -3.87007e-21)
(0.997004 0.0157861 5.76764e-21)
(0.997165 0.0160766 1.88991e-21)
(0.997341 0.0163536 -9.27686e-24)
(0.99753 0.0166154 1.8853e-21)
(0.997733 0.0168617 -1.89494e-21)
(0.997949 0.0170915 -3.73068e-21)
(0.998177 0.0173033 7.43659e-21)
(0.998419 0.0174968 -3.70025e-21)
(0.998672 0.0176713 7.3593e-21)
(0.998937 0.0178254 4.08803e-24)
(0.999213 0.0179593 7.25533e-21)
(0.999501 0.0180716 -3.60358e-21)
(0.999799 0.0181617 0)
(1.00011 0.0182299 -3.25644e-24)
(1.00043 0.018274 7.0653e-21)
(1.00076 0.0182953 0)
(1.0011 0.0182912 0)
(1.00145 0.0182616 6.05517e-21)
(1.00183 0.0182138 8.63002e-22)
(0.998536 0.00629432 1.07372e-21)
(0.998258 0.00649006 7.54712e-21)
(0.997945 0.00672877 8.52765e-21)
(0.99762 0.00698477 -8.58909e-21)
(0.997297 0.00726375 0)
(0.996984 0.00756392 -1.21573e-23)
(0.996684 0.00788482 -4.28584e-21)
(0.996401 0.00822891 -4.27022e-21)
(0.996136 0.00858914 1.27068e-20)
(0.99589 0.0089701 -4.22197e-21)
(0.995663 0.00936632 0)
(0.995456 0.00977754 8.40534e-21)
(0.99527 0.0102049 -8.3497e-21)
(0.995104 0.0106419 2.91509e-23)
(0.99496 0.0110916 8.31053e-21)
(0.994837 0.0115498 -2.08709e-21)
(0.994736 0.0120145 -2.02546e-21)
(0.994657 0.0124881 4.11914e-21)
(0.9946 0.0129634 0)
(0.994565 0.0134418 -2.03143e-21)
(0.994553 0.0139228 2.03215e-21)
(0.994562 0.0144016 2.01823e-21)
(0.994595 0.0148786 -2.01816e-21)
(0.994649 0.0153525 2.51677e-22)
(0.994725 0.01582 3.10518e-23)
(0.994824 0.0162806 7.42188e-22)
(0.994944 0.0167335 -2.91795e-24)
(0.995085 0.0171754 0)
(0.995248 0.0176057 0)
(0.995432 0.0180237 -3.27696e-25)
(0.995636 0.0184266 -1.91568e-21)
(0.99586 0.0188137 3.85196e-21)
(0.996104 0.0191842 -3.81945e-21)
(0.996367 0.0195357 3.78352e-21)
(0.996648 0.0198679 -7.56392e-21)
(0.996948 0.0201797 1.85291e-23)
(0.997265 0.0204692 3.73472e-21)
(0.997599 0.0207361 3.68907e-21)
(0.997949 0.0209796 -7.37255e-21)
(0.998314 0.0211978 -7.31172e-21)
(0.998695 0.0213914 -3.63775e-21)
(0.999091 0.0215584 -3.61196e-21)
(0.9995 0.0216983 0)
(0.999923 0.0218115 -3.55204e-21)
(1.00036 0.0218953 -1.20237e-23)
(1.00081 0.0219517 6.99373e-21)
(1.00128 0.0219771 -8.67389e-21)
(1.00176 0.0219721 1.70666e-21)
(1.00227 0.0219496 0)
(0.997665 0.00525353 0)
(0.997299 0.0055284 -8.63665e-21)
(0.996889 0.00585444 0)
(0.996463 0.00620094 8.60097e-21)
(0.996036 0.00657603 4.30621e-21)
(0.995621 0.00697714 -8.60383e-21)
(0.995223 0.0074038 1.28463e-20)
(0.994845 0.0078591 4.26049e-21)
(0.994491 0.00833415 -4.25253e-21)
(0.994161 0.008835 0)
(0.993857 0.00935463 4.24465e-21)
(0.99358 0.00989293 -8.46311e-21)
(0.993329 0.0104513 4.25109e-21)
(0.993106 0.0110215 -4.19088e-21)
(0.992912 0.0116077 3.3286e-23)
(0.992746 0.0122045 4.19062e-21)
(0.99261 0.0128095 -8.34119e-21)
(0.992503 0.0134255 0)
(0.992425 0.014044 4.1262e-21)
(0.992378 0.0146664 -4.12611e-21)
(0.99236 0.0152921 -1.01965e-21)
(0.992372 0.0159152 0)
(0.992415 0.0165363 1.02067e-21)
(0.992488 0.0171537 2.5238e-22)
(0.992591 0.0177634 -5.35241e-22)
(0.992724 0.0183645 7.49502e-22)
(0.992886 0.0189561 4.92942e-22)
(0.993077 0.0195343 -9.91035e-22)
(0.993297 0.0200981 0)
(0.993545 0.0206465 -1.94772e-21)
(0.993821 0.0211763 3.89556e-21)
(0.994124 0.0216867 0)
(0.994453 0.0221762 1.91163e-21)
(0.994808 0.0226423 0)
(0.995187 0.0230843 3.77497e-21)
(0.995591 0.0235011 -7.51496e-21)
(0.996018 0.0238902 3.71779e-21)
(0.996466 0.0242513 -2.49671e-23)
(0.996937 0.0245835 3.64829e-21)
(0.997427 0.0248845 -3.66458e-21)
(0.997937 0.0251552 3.62318e-21)
(0.998466 0.0253932 7.19465e-21)
(0.999013 0.0255979 0)
(0.999576 0.0257702 0)
(1.00016 0.0259066 -7.04288e-21)
(1.00075 0.0260098 -1.39576e-20)
(1.00137 0.0260753 1.38493e-20)
(1.00201 0.0261045 -7.74491e-21)
(1.00268 0.0261181 7.65834e-21)
(0.996511 0.00342983 0)
(0.996036 0.00380393 8.83141e-21)
(0.995504 0.00423485 8.80796e-21)
(0.99495 0.00469105 1.31742e-20)
(0.994395 0.00518334 -1.31544e-20)
(0.993852 0.00570777 -4.35256e-21)
(0.99333 0.00626403 1.31113e-20)
(0.992834 0.00685592 -4.33188e-21)
(0.992366 0.00747254 4.33432e-21)
(0.99193 0.00812149 0)
(0.991527 0.00879393 8.66987e-21)
(0.991159 0.00948991 0)
(0.990825 0.010211 -4.25172e-21)
(0.990528 0.0109471 -4.29547e-21)
(0.990268 0.0117036 5.58268e-23)
(0.990045 0.0124736 0)
(0.989861 0.0132542 4.23038e-21)
(0.989716 0.0140488 8.43526e-21)
(0.989609 0.014847 0)
(0.989543 0.0156506 2.07654e-21)
(0.989517 0.0164586 -2.07585e-21)
(0.98953 0.017264 -2.05585e-21)
(0.989584 0.0180674 2.06747e-21)
(0.989678 0.0188665 -4.50446e-24)
(0.989812 0.0196563 -5.08402e-22)
(0.989986 0.020436 -2.23536e-22)
(0.990199 0.0212038 -5.02486e-22)
(0.990451 0.0219554 1.00112e-21)
(0.990742 0.0226892 0)
(0.99107 0.0234039 1.96005e-21)
(0.991435 0.0240956 -3.90479e-21)
(0.991836 0.024763 0)
(0.992272 0.0254043 0)
(0.992743 0.0260164 3.81025e-21)
(0.993245 0.0265983 -7.59393e-21)
(0.993779 0.0271487 3.78671e-21)
(0.994344 0.0276646 3.7525e-21)
(0.994937 0.0281453 0)
(0.995558 0.02859 1.10386e-20)
(0.996204 0.0289958 -7.30622e-21)
(0.996875 0.029364 -3.61307e-21)
(0.99757 0.0296916 1.09858e-24)
(0.998285 0.029978 -7.12849e-21)
(0.999023 0.0302245 -7.06089e-21)
(0.99978 0.0304269 -7.00429e-21)
(1.00056 0.0305887 2.34484e-23)
(1.00136 0.0307044 -2.95312e-23)
(1.00219 0.0307763 0)
(1.00306 0.0308354 -1.35565e-20)
(0.995034 0.000708077 0)
(0.994407 0.00119006 2.33311e-21)
(0.99372 0.00173398 -1.10488e-20)
(0.993021 0.002317 -8.82203e-21)
(0.992306 0.00294772 8.80232e-21)
(0.991601 0.00362115 4.48772e-21)
(0.990921 0.00433551 -4.35298e-21)
(0.990271 0.00509469 0)
(0.989658 0.00588531 0)
(0.989085 0.00671662 8.82758e-21)
(0.988553 0.00757777 -8.67699e-21)
(0.988066 0.00846902 4.35015e-21)
(0.987623 0.00939193 -4.3465e-21)
(0.987227 0.0103345 4.33857e-21)
(0.986879 0.0113033 4.33934e-21)
(0.986579 0.0122899 -4.30076e-21)
(0.98633 0.0132907 -4.2469e-21)
(0.986132 0.0143097 -4.22667e-21)
(0.985984 0.0153344 4.22712e-21)
(0.985889 0.016367 -4.22602e-21)
(0.985847 0.0174058 0)
(0.985857 0.0184425 2.10161e-21)
(0.985922 0.0194775 -2.06502e-21)
(0.986039 0.0205078 1.54637e-21)
(0.986209 0.0215276 0)
(0.986433 0.0225351 1.01895e-21)
(0.986709 0.0235282 0)
(0.987036 0.0245017 -9.99734e-22)
(0.987416 0.0254532 1.8593e-23)
(0.987844 0.0263806 1.37587e-23)
(0.988322 0.0272794 3.9515e-21)
(0.988848 0.0281475 0)
(0.98942 0.0289828 0)
(0.990037 0.0297811 0)
(0.990696 0.0305409 0)
(0.991396 0.0312609 -7.56e-21)
(0.992136 0.0319371 3.76455e-21)
(0.992912 0.0325686 0)
(0.993723 0.0331543 -3.69011e-21)
(0.994566 0.0336908 -3.66999e-21)