/*--------------------------------*- C++ -*----------------------------------*\
| =========                 |                                                 |
| \\      /  F ield         | OpenFOAM: The Open Source CFD Toolbox           |
|  \\    /   O peration     | Version:  2312                                  |
|   \\  /    A nd           | Website:  www.openfoam.com                      |
|    \\/     M anipulation  |                                                 |
\*---------------------------------------------------------------------------*/
FoamFile
{
    version     2.0;
    format      ascii;
    arch        "LSB;label=32;scalar=64";
    class       volScalarField;
    location    "74.340217999739153";
    object      p;
}
// * * * * * * * * * * * * * * * * * * * * * * * * * * * * * * * * * * * * * //

dimensions      [0 2 -2 0 0 0 0];

internalField   nonuniform List<scalar> 
21039
(
0.599391
0.465643
0.423395
0.395142
0.373813
0.357723
0.345275
0.335368
0.32732
0.320678
0.315128
0.31044
0.306441
0.303002
0.300019
0.297411
0.29511
0.293061
0.291217
0.289536
0.287985
0.286533
0.285151
0.283892
0.282801
0.281838
0.280962
0.280139
0.279357
0.452347
0.414457
0.400598
0.382226
0.365447
0.352147
0.341386
0.332528
0.32518
0.31903
0.313835
0.309412
0.305618
0.302338
0.299484
0.29698
0.294767
0.292792
0.291011
0.289384
0.287879
0.286466
0.285116
0.283879
0.282797
0.281835
0.28096
0.280138
0.279355
0.362886
0.36047
0.362616
0.355866
0.347408
0.339598
0.332333
0.325791
0.320046
0.315039
0.310683
0.30689
0.303581
0.300684
0.298139
0.295889
0.293889
0.292095
0.290471
0.288982
0.287598
0.286291
0.285035
0.283871
0.282842
0.281919
0.281073
0.280275
0.279513
0.324744
0.326853
0.331311
0.33022
0.327587
0.324354
0.320539
0.316607
0.312826
0.309299
0.306071
0.303153
0.300535
0.298194
0.296104
0.294234
0.292555
0.291039
0.289659
0.288387
0.287198
0.286067
0.284972
0.283944
0.283021
0.282181
0.2814
0.280652
0.279929
0.299688
0.303654
0.309531
0.31123
0.311421
0.310683
0.309138
0.307197
0.305083
0.30292
0.300805
0.298797
0.296928
0.295211
0.293644
0.292223
0.290934
0.289761
0.288686
0.287692
0.286757
0.285861
0.284985
0.284146
0.283373
0.282651
0.281962
0.281286
0.280615
0.280002
0.285257
0.292594
0.296451
0.298451
0.299253
0.299176
0.298601
0.297709
0.296626
0.295453
0.294262
0.293099
0.291994
0.290963
0.290014
0.289146
0.288353
0.287627
0.286954
0.28632
0.285707
0.285099
0.284495
0.283911
0.283338
0.282766
0.282181
0.281578
0.267177
0.2722
0.279282
0.284217
0.287434
0.289375
0.290394
0.290834
0.290873
0.290642
0.290245
0.289755
0.289224
0.288689
0.288175
0.287697
0.287263
0.286872
0.286523
0.286206
0.285911
0.285624
0.28533
0.285008
0.284651
0.284261
0.283834
0.283361
0.282843
0.259817
0.263917
0.269648
0.274587
0.278291
0.280878
0.282627
0.283804
0.284559
0.28501
0.285255
0.285364
0.285393
0.28538
0.285354
0.285335
0.285334
0.285356
0.285403
0.28547
0.285549
0.285628
0.285694
0.285698
0.285612
0.28544
0.285188
0.284852
0.284437
0.255227
0.258427
0.262787
0.26727
0.270968
0.273776
0.275903
0.277542
0.278801
0.279771
0.280531
0.281145
0.281661
0.282118
0.282546
0.282965
0.28339
0.283829
0.284285
0.284757
0.285239
0.28572
0.28619
0.28657
0.286799
0.286885
0.286841
0.286669
0.286378
0.251753
0.254203
0.257523
0.261478
0.264988
0.26781
0.270101
0.272002
0.27359
0.274934
0.276094
0.277119
0.278052
0.278926
0.27977
0.280603
0.281441
0.282294
0.283166
0.284058
0.284967
0.285885
0.286802
0.287606
0.288196
0.288581
0.288784
0.288809
0.288667
0.248698
0.250545
0.253119
0.256567
0.259839
0.262608
0.264966
0.267019
0.268825
0.270439
0.271906
0.273265
0.27455
0.275791
0.277012
0.278233
0.279468
0.280727
0.282018
0.283341
0.284697
0.286081
0.287485
0.28876
0.289758
0.290487
0.290972
0.291246
0.291283
0.245753
0.247151
0.249197
0.252182
0.255207
0.257891
0.260268
0.26241
0.264368
0.266183
0.26789
0.269523
0.271108
0.272672
0.274235
0.275817
0.27743
0.279086
0.280792
0.282553
0.28437
0.286242
0.288166
0.289956
0.291413
0.292535
0.293345
0.293859
0.294101
0.242765
0.243849
0.245527
0.248113
0.250897
0.253481
0.255843
0.258032
0.260093
0.262059
0.263958
0.265816
0.267657
0.269505
0.271379
0.273295
0.275267
0.277307
0.279423
0.281621
0.283904
0.286274
0.288738
0.291075
0.293027
0.294583
0.295764
0.296578
0.297043
0.23967
0.240536
0.241951
0.244203
0.246764
0.24924
0.251566
0.253774
0.255901
0.257978
0.260026
0.262069
0.264129
0.266225
0.268378
0.270603
0.272915
0.275326
0.277844
0.280472
0.283213
0.286074
0.28907
0.291948
0.294404
0.29642
0.298009
0.299168
0.299907
0.236455
0.237168
0.238375
0.240333
0.242678
0.245041
0.247319
0.249526
0.251693
0.253847
0.256008
0.258198
0.260439
0.262749
0.265149
0.267659
0.270292
0.273061
0.275969
0.279017
0.282204
0.285529
0.289007
0.292358
0.295251
0.297679
0.29966
0.301174
0.302217
0.233396
0.233997
0.235041
0.236777
0.238949
0.241204
0.243429
0.245622
0.247809
0.250012
0.252252
0.254551
0.25693
0.259412
0.262021
0.264779
0.267701
0.270796
0.274068
0.277509
0.281103
0.284823
0.288656
0.292256
0.295291
0.297819
0.299925
0.301624
0.302901
0.230806
0.231336
0.232277
0.233872
0.235912
0.238074
0.240251
0.242435
0.244637
0.246878
0.249177
0.251559
0.254048
0.256671
0.259457
0.262428
0.265605
0.268997
0.272605
0.276416
0.280393
0.284467
0.288552
0.292161
0.294903
0.296907
0.298407
0.299641
0.300817
0.228663
0.229146
0.230015
0.231507
0.233445
0.235544
0.237706
0.2399
0.242128
0.244406
0.246759
0.249216
0.251805
0.254558
0.257506
0.260677
0.264095
0.267776
0.271723
0.275917
0.280309
0.28479
0.289183
0.292769
0.294924
0.295642
0.295153
0.293939
0.293073
0.226938
0.22747
0.228357
0.229749
0.231517
0.233506
0.235654
0.237882
0.240154
0.24248
0.244895
0.247431
0.250124
0.253008
0.25612
0.259491
0.263154
0.267131
0.271433
0.276046
0.280924
0.285943
0.290873
0.294769
0.296604
0.295857
0.292158
0.284914
0.273778
0.278596
0.277831
0.277071
0.276316
0.275565
0.274816
0.274069
0.273322
0.272575
0.271827
0.271077
0.270325
0.269569
0.268809
0.268044
0.267274
0.266498
0.265716
0.264926
0.26413
0.263326
0.262515
0.261696
0.26087
0.260037
0.259197
0.258349
0.257495
0.256636
0.25577
0.254899
0.254024
0.253144
0.252262
0.251376
0.250489
0.249602
0.248714
0.247827
0.246943
0.246061
0.245183
0.244311
0.243444
0.242584
0.241731
0.240888
0.240053
0.239228
0.278598
0.277842
0.277093
0.276349
0.275608
0.274869
0.274131
0.273394
0.272657
0.271918
0.271177
0.270433
0.269685
0.268932
0.268174
0.26741
0.266639
0.26586
0.265074
0.26428
0.263478
0.262668
0.261849
0.261022
0.260187
0.259344
0.258492
0.257634
0.256769
0.255897
0.255019
0.254136
0.253249
0.252358
0.251463
0.250567
0.249669
0.248771
0.247873
0.246978
0.246084
0.245195
0.24431
0.24343
0.242558
0.241693
0.240837
0.239991
0.239155
0.278778
0.278047
0.277322
0.276601
0.275882
0.275165
0.274449
0.273731
0.273012
0.27229
0.271565
0.270834
0.270098
0.269355
0.268605
0.267847
0.267081
0.266305
0.265519
0.264724
0.263919
0.263103
0.262277
0.261441
0.260595
0.259739
0.258874
0.258
0.257117
0.256226
0.255328
0.254424
0.253514
0.252599
0.251679
0.250757
0.249832
0.248907
0.247981
0.247056
0.246133
0.245213
0.244297
0.243387
0.242482
0.241586
0.240698
0.239819
0.238951
0.27923
0.278538
0.277849
0.277161
0.276474
0.275787
0.275097
0.274405
0.273709
0.273007
0.272299
0.271584
0.27086
0.270127
0.269384
0.26863
0.267865
0.267087
0.266297
0.265495
0.264679
0.26385
0.263009
0.262155
0.261288
0.260409
0.259518
0.258616
0.257703
0.256781
0.255849
0.254909
0.253961
0.253006
0.252046
0.251082
0.250114
0.249143
0.248171
0.247199
0.246229
0.24526
0.244294
0.243333
0.242377
0.241429
0.240487
0.239555
0.238633
0.279967
0.279325
0.278682
0.278037
0.27739
0.276739
0.276084
0.275422
0.274752
0.274074
0.273386
0.272687
0.271975
0.271251
0.270513
0.26976
0.268992
0.268208
0.267408
0.266592
0.265759
0.26491
0.264044
0.263163
0.262265
0.261352
0.260425
0.259483
0.258528
0.25756
0.256581
0.255591
0.254592
0.253583
0.252567
0.251545
0.250518
0.249486
0.248452
0.247416
0.24638
0.245345
0.244312
0.243282
0.242257
0.241238
0.240225
0.23922
0.238225
0.280993
0.280415
0.279829
0.279237
0.278639
0.278034
0.277419
0.276793
0.276155
0.275504
0.274838
0.274156
0.273458
0.272741
0.272006
0.271252
0.270478
0.269683
0.268867
0.268031
0.267173
0.266295
0.265396
0.264477
0.263539
0.262581
0.261605
0.260611
0.2596
0.258574
0.257533
0.256479
0.255412
0.254334
0.253247
0.252151
0.251047
0.249938
0.248824
0.247707
0.246589
0.24547
0.244351
0.243235
0.242123
0.241015
0.239912
0.238817
0.237732
0.282335
0.281833
0.281317
0.280789
0.28025
0.279697
0.27913
0.278546
0.277945
0.277324
0.276683
0.276021
0.275335
0.274626
0.273892
0.273133
0.272348
0.271537
0.270699
0.269836
0.268946
0.268029
0.267088
0.266121
0.26513
0.264115
0.263077
0.262018
0.260938
0.259838
0.258721
0.257586
0.256436
0.255272
0.254096
0.252909
0.251712
0.250507
0.249295
0.248079
0.246859
0.245637
0.244415
0.243194
0.241975
0.24076
0.239549
0.238346
0.237152
0.284022
0.28361
0.283175
0.282722
0.282251
0.28176
0.281248
0.280713
0.280152
0.279566
0.278952
0.278309
0.277637
0.276933
0.276198
0.275431
0.274631
0.273798
0.272932
0.272034
0.271102
0.270139
0.269144
0.268118
0.267062
0.265978
0.264865
0.263726
0.262561
0.261373
0.260163
0.258931
0.257681
0.256413
0.255129
0.253832
0.252522
0.251202
0.249873
0.248537
0.247197
0.245852
0.244506
0.243159
0.241814
0.240472
0.239133
0.237801
0.236481
0.286074
0.285765
0.285423
0.285056
0.284664
0.284244
0.283795
0.283314
0.282801
0.282252
0.281668
0.281047
0.280388
0.279689
0.278951
0.278172
0.277354
0.276494
0.275593
0.274653
0.273672
0.272653
0.271594
0.270498
0.269366
0.268198
0.266997
0.265763
0.264498
0.263205
0.261884
0.260537
0.259168
0.257776
0.256365
0.254937
0.253493
0.252036
0.250567
0.24909
0.247606
0.246116
0.244624
0.243129
0.241636
0.240144
0.238655
0.237174
0.235705
0.288492
0.288298
0.288064
0.287796
0.287495
0.287156
0.286779
0.286361
0.285901
0.285396
0.284846
0.28425
0.283606
0.282913
0.282172
0.281381
0.280541
0.279651
0.278712
0.277724
0.276688
0.275605
0.274474
0.273298
0.272078
0.270815
0.269511
0.268168
0.266786
0.26537
0.26392
0.262438
0.260928
0.25939
0.257829
0.256246
0.254643
0.253024
0.251391
0.249745
0.248091
0.246429
0.244764
0.243095
0.241427
0.23976
0.238096
0.236441
0.234801
0.29125
0.291183
0.291071
0.290917
0.290721
0.290477
0.290185
0.289841
0.289444
0.288992
0.288485
0.287921
0.287298
0.286618
0.285878
0.285079
0.28422
0.283302
0.282325
0.281289
0.280194
0.279043
0.277835
0.276572
0.275256
0.273886
0.272467
0.271
0.269485
0.267927
0.266328
0.264688
0.263013
0.261304
0.259564
0.257798
0.256005
0.254193
0.252362
0.250516
0.248659
0.246791
0.244919
0.243043
0.241167
0.239292
0.237421
0.235561
0.233721
0.294275
0.294385
0.294407
0.294351
0.294285
0.294157
0.293966
0.293712
0.293396
0.293015
0.292567
0.292051
0.291466
0.290813
0.290089
0.289295
0.28843
0.287494
0.286489
0.285412
0.284265
0.28305
0.281765
0.280414
0.278997
0.277513
0.275969
0.274364
0.272698
0.270979
0.269206
0.267382
0.265512
0.263598
0.261644
0.259656
0.257634
0.255587
0.253514
0.251423
0.249317
0.247199
0.245074
0.242945
0.240817
0.238692
0.236572
0.234466
0.232388
0.297401
0.29768
0.297891
0.298038
0.298112
0.298116
0.298035
0.297902
0.297697
0.297414
0.297056
0.296619
0.296104
0.29551
0.294834
0.294076
0.293234
0.292308
0.291299
0.290203
0.289023
0.287759
0.286409
0.284976
0.283461
0.281862
0.280184
0.278429
0.276595
0.274691
0.272715
0.270672
0.268569
0.266405
0.264189
0.261927
0.259618
0.257275
0.2549
0.252499
0.25008
0.247645
0.245204
0.242758
0.240315
0.237879
0.235451
0.233046
0.230677
0.300498
0.300962
0.301344
0.301662
0.301912
0.302097
0.302211
0.302247
0.302202
0.302082
0.301892
0.301601
0.301223
0.300754
0.300186
0.299523
0.298758
0.297893
0.296929
0.295857
0.294682
0.293403
0.292014
0.29052
0.28892
0.28721
0.285396
0.283479
0.281455
0.279335
0.277119
0.274809
0.272414
0.269936
0.267384
0.264767
0.262086
0.259356
0.256582
0.253773
0.250941
0.248088
0.245231
0.242371
0.23952
0.236685
0.233867
0.231084
0.228355
0.303073
0.303749
0.304353
0.30491
0.305412
0.305861
0.306246
0.306562
0.3068
0.306947
0.307001
0.306952
0.306843
0.306617
0.306254
0.305781
0.305182
0.304462
0.30362
0.302643
0.301539
0.300301
0.298922
0.297407
0.29575
0.293944
0.291999
0.289909
0.287672
0.285298
0.282787
0.280142
0.277376
0.274488
0.271495
0.268405
0.265223
0.26197
0.258652
0.255285
0.251885
0.24846
0.245032
0.241608
0.238207
0.234837
0.231506
0.228237
0.225052
0.303998
0.304852
0.305729
0.306664
0.30762
0.308573
0.309477
0.310306
0.311036
0.311645
0.312129
0.312466
0.312661
0.312725
0.312684
0.312558
0.312224
0.311743
0.311119
0.31033
0.309385
0.308274
0.30698
0.305509
0.303848
0.301986
0.299929
0.297671
0.295203
0.29254
0.289679
0.286624
0.283393
0.279985
0.276424
0.272722
0.268886
0.264946
0.26091
0.256803
0.252646
0.248452
0.244256
0.240072
0.235932
0.231858
0.227868
0.223997
0.220277
0.302094
0.303035
0.304364
0.306066
0.307937
0.309824
0.311599
0.313202
0.314602
0.315782
0.316764
0.317544
0.318146
0.318579
0.31883
0.318925
0.318989
0.318813
0.318479
0.317961
0.317264
0.31637
0.315251
0.313911
0.312327
0.310476
0.308364
0.305975
0.303295
0.300343
0.297112
0.293612
0.289864
0.285872
0.281669
0.277272
0.272693
0.267973
0.263122
0.258171
0.253144
0.248056
0.242951
0.237845
0.232787
0.227819
0.22299
0.218376
0.214043
0.29298
0.294379
0.297866
0.302165
0.306336
0.31003
0.31314
0.315703
0.317803
0.319506
0.320903
0.322033
0.322957
0.323707
0.324288
0.324706
0.324956
0.325159
0.325201
0.32503
0.324673
0.324101
0.323269
0.322169
0.320763
0.31901
0.316908
0.314429
0.311554
0.308302
0.304668
0.300666
0.296331
0.29167
0.286734
0.28155
0.27614
0.270559
0.26482
0.258965
0.253014
0.246977
0.24089
0.234747
0.228588
0.222448
0.216412
0.210684
0.205549
0.265366
0.276299
0.288684
0.298815
0.306374
0.311887
0.315915
0.318942
0.321289
0.323153
0.324684
0.325947
0.327022
0.327949
0.328751
0.329458
0.330029
0.3305
0.330944
0.331183
0.33124
0.331078
0.330632
0.329882
0.328775
0.327236
0.325243
0.322754
0.319737
0.316218
0.312197
0.307693
0.30276
0.297416
0.29173
0.28575
0.27951
0.273086
0.266501
0.259808
0.253032
0.246176
0.239255
0.232215
0.225016
0.217562
0.209763
0.201686
0.193975
0.238422
0.237592
0.236699
0.235734
0.234681
0.233535
0.232322
0.231194
0.230258
0.229546
0.229092
0.228928
0.229099
0.22965
0.230634
0.232114
0.23417
0.236899
0.240428
0.244923
0.250611
0.257802
0.266943
0.278712
0.294209
0.315031
0.342869
0.384712
0.518127
0.238334
0.237488
0.236576
0.235587
0.234502
0.233317
0.23206
0.230883
0.229896
0.229132
0.228622
0.228392
0.228495
0.228964
0.229849
0.231207
0.23311
0.235643
0.238914
0.243062
0.248265
0.254763
0.262861
0.272948
0.285655
0.301916
0.319859
0.333301
0.370884
0.238097
0.237214
0.236258
0.235213
0.23406
0.232792
0.231434
0.230142
0.229036
0.228145
0.227496
0.227119
0.227048
0.227315
0.22796
0.229025
0.230561
0.232626
0.235284
0.238611
0.242687
0.247595
0.253388
0.259989
0.267208
0.27514
0.28143
0.278818
0.280936
0.237724
0.236778
0.235748
0.234614
0.233356
0.231958
0.230443
0.228976
0.227686
0.2266
0.225741
0.225133
0.2248
0.224766
0.225054
0.22569
0.226698
0.228098
0.229908
0.232132
0.234753
0.237718
0.240919
0.244082
0.24673
0.248831
0.24943
0.244485
0.242116
0.237239
0.236208
0.235077
0.233825
0.232423
0.230854
0.229132
0.227437
0.225912
0.224579
0.223457
0.222563
0.221913
0.22152
0.221394
0.22154
0.221962
0.22265
0.223586
0.224732
0.226021
0.227349
0.228583
0.229494
0.229661
0.228942
0.226741
0.220402
0.216235
0.23665
0.235512
0.234256
0.232856
0.231277
0.229495
0.227522
0.225553
0.22375
0.222131
0.22071
0.219498
0.218504
0.217731
0.217177
0.216835
0.216692
0.216723
0.21689
0.217139
0.217391
0.217535
0.217438
0.216911
0.215563
0.213052
0.208708
0.200948
0.195547
0.235954
0.234687
0.23328
0.231701
0.229911
0.227878
0.22561
0.223326
0.221208
0.219272
0.217527
0.21598
0.214632
0.213479
0.212511
0.211713
0.211061
0.210521
0.210047
0.209579
0.209034
0.208299
0.207234
0.205655
0.203206
0.199509
0.19412
0.186667
0.181546
0.235146
0.233726
0.23214
0.23035
0.228312
0.225987
0.223381
0.220742
0.218278
0.216001
0.213918
0.212029
0.210331
0.208813
0.207461
0.206251
0.205154
0.204132
0.203134
0.202097
0.20094
0.199556
0.197816
0.195564
0.19252
0.188386
0.183047
0.177014
0.172857
0.23421
0.232611
0.230815
0.22878
0.226455
0.223795
0.220808
0.217778
0.214941
0.212308
0.209879
0.207653
0.205619
0.203763
0.202065
0.200497
0.199027
0.197613
0.196205
0.194743
0.193154
0.191349
0.189225
0.186668
0.183474
0.179418
0.174608
0.17002
0.166797
0.233119
0.23131
0.22927
0.226951
0.224295
0.221255
0.217844
0.214389
0.211158
0.208158
0.205388
0.202837
0.200492
0.198334
0.196338
0.194473
0.192705
0.190992
0.189288
0.187538
0.185681
0.183648
0.181359
0.178729
0.17561
0.171833
0.16764
0.164168
0.161717
0.231821
0.229766
0.227442
0.224794
0.221759
0.218291
0.21441
0.210499
0.20686
0.203494
0.200393
0.197543
0.194922
0.192506
0.190267
0.188171
0.186182
0.18426
0.182362
0.180439
0.17844
0.17631
0.173985
0.171398
0.168439
0.165006
0.161418
0.158763
0.156931
0.230228
0.227885
0.22523
0.222199
0.218731
0.214782
0.210389
0.205998
0.201946
0.198225
0.194819
0.191704
0.188853
0.186234
0.183813
0.181554
0.179422
0.177372
0.175367
0.173362
0.171313
0.169175
0.166896
0.164419
0.161668
0.158602
0.155578
0.153516
0.152145
0.228205
0.225518
0.222472
0.218998
0.215035
0.210553
0.205613
0.200731
0.196278
0.192232
0.188563
0.185236
0.182214
0.179456
0.176923
0.174575
0.172371
0.170272
0.168238
0.166229
0.164205
0.162129
0.159957
0.15764
0.155128
0.152431
0.149906
0.148269
0.147221
0.225501
0.222403
0.218896
0.21491
0.210395
0.205339
0.199837
0.194484
0.189672
0.185359
0.181495
0.17803
0.174913
0.172096
0.169532
0.167174
0.164979
0.162908
0.160919
0.158976
0.157044
0.155088
0.153071
0.150953
0.1487
0.146358
0.144266
0.142941
0.142115
0.221724
0.218131
0.214089
0.209529
0.204422
0.198785
0.192756
0.186999
0.181916
0.177431
0.173474
0.169972
0.166863
0.164083
0.16158
0.159301
0.157201
0.155235
0.153366
0.151557
0.149775
0.147989
0.146168
0.144276
0.142297
0.140304
0.138597
0.137514
0.136838
0.216411
0.212288
0.207707
0.202614
0.197004
0.190924
0.184539
0.178562
0.173382
0.16889
0.164989
0.161589
0.15861
0.155982
0.153641
0.151532
0.149607
0.147819
0.146133
0.14451
0.14292
0.141336
0.139729
0.138073
0.136364
0.134679
0.133278
0.132387
0.131813
0.209589
0.204952
0.199964
0.194554
0.188705
0.18246
0.175992
0.170032
0.164951
0.160617
0.156911
0.153727
0.150975
0.148576
0.146464
0.14458
0.142874
0.1413
0.139821
0.138402
0.137012
0.135626
0.134222
0.132788
0.131328
0.129904
0.128735
0.127985
0.127484
0.200587
0.19574
0.190854
0.185612
0.179917
0.173814
0.167508
0.161757
0.156923
0.152863
0.149443
0.146548
0.144079
0.141953
0.140102
0.138466
0.136996
0.135646
0.134381
0.133165
0.131968
0.130763
0.129534
0.128283
0.127033
0.125835
0.124864
0.124237
0.123796
0.187986
0.184426
0.180765
0.176277
0.171082
0.165346
0.15937
0.153956
0.149466
0.145751
0.14267
0.140099
0.137937
0.136098
0.134515
0.133128
0.131889
0.130757
0.129693
0.128666
0.127644
0.126595
0.125509
0.124427
0.123424
0.122515
0.121744
0.121164
0.120701
0.225175
0.225488
0.226193
0.227604
0.22956
0.231751
0.234023
0.236308
0.238616
0.24099
0.243472
0.2461
0.248908
0.251936
0.25522
0.258799
0.262711
0.266986
0.27164
0.276667
0.282029
0.287602
0.293124
0.297512
0.299383
0.29753
0.290393
0.275565
0.244552
0.223425
0.223858
0.224676
0.226074
0.227943
0.230056
0.232288
0.234577
0.236927
0.239371
0.241945
0.244686
0.247629
0.250814
0.254284
0.258084
0.262257
0.266842
0.271868
0.277352
0.283296
0.289643
0.296216
0.302044
0.305813
0.306807
0.304408
0.300573
0.304978
0.221643
0.222157
0.223058
0.224448
0.226246
0.228281
0.230456
0.232724
0.235092
0.237584
0.240228
0.243057
0.246109
0.249427
0.253059
0.257057
0.261477
0.266375
0.271807
0.277839
0.284564
0.292098
0.300568
0.309536
0.318074
0.326468
0.334928
0.342363
0.359375
0.219803
0.220296
0.221169
0.222542
0.224342
0.226382
0.22855
0.230813
0.23319
0.235709
0.238398
0.241291
0.244426
0.247851
0.251618
0.255788
0.260431
0.265625
0.27146
0.278065
0.285647
0.294553
0.305265
0.318018
0.331854
0.347357
0.365205
0.381616
0.403608
0.217908
0.218366
0.219187
0.220528
0.222326
0.224378
0.226551
0.228816
0.231198
0.233733
0.236451
0.239388
0.242585
0.24609
0.249963
0.254272
0.2591
0.264543
0.270729
0.277843
0.286194
0.296364
0.308998
0.325052
0.342938
0.363565
0.387924
0.411188
0.436883
0.21596
0.216399
0.217187
0.218488
0.220253
0.222285
0.224444
0.226699
0.229077
0.231613
0.234343
0.237302
0.240533
0.244087
0.248027
0.252427
0.25738
0.262998
0.269433
0.276917
0.285804
0.296926
0.310705
0.32908
0.348755
0.372206
0.399176
0.428374
0.457788
0.213952
0.214381
0.215146
0.216404
0.218117
0.220103
0.222227
0.224454
0.226809
0.229328
0.232046
0.234999
0.238231
0.241794
0.245752
0.250183
0.255185
0.260877
0.267422
0.275083
0.284167
0.295809
0.309721
0.328569
0.350497
0.374634
0.400615
0.427948
0.455544
0.211882
0.212298
0.213037
0.214248
0.2159
0.217827
0.219899
0.222081
0.224393
0.226871
0.22955
0.232466
0.235661
0.239186
0.243107
0.247499
0.252459
0.258108
0.264598
0.272201
0.28112
0.292341
0.306978
0.325315
0.346413
0.368899
0.391974
0.415307
0.438631
0.209744
0.210147
0.210858
0.212016
0.213597
0.215453
0.217458
0.219576
0.221824
0.224238
0.22685
0.229694
0.23281
0.236249
0.240072
0.244349
0.249172
0.254646
0.260914
0.268142
0.276829
0.287607
0.301531
0.318302
0.336846
0.356277
0.375817
0.395219
0.413802
0.207539
0.20793
0.208611
0.209711
0.21121
0.21298
0.214901
0.216936
0.2191
0.221424
0.223939
0.226676
0.229673
0.232974
0.236637
0.240722
0.245312
0.250461
0.256369
0.263212
0.271306
0.281122
0.293339
0.307744
0.323145
0.338892
0.354407
0.369718
0.383866
0.205263
0.205641
0.206289
0.207325
0.208736
0.210408
0.212231
0.214165
0.216223
0.218432
0.220821
0.223418
0.226254
0.229367
0.232809
0.236628
0.240893
0.245682
0.251098
0.25729
0.264455
0.272906
0.283039
0.29464
0.306616
0.318403
0.329605
0.340547
0.350396
0.202918
0.203283
0.203897
0.204865
0.20618
0.207741
0.20945
0.211265
0.213196
0.215267
0.217503
0.219927
0.222565
0.225445
0.228612
0.232119
0.235993
0.240301
0.245095
0.250447
0.256475
0.26336
0.271265
0.279874
0.288327
0.296196
0.303259
0.310001
0.315858
0.200507
0.200863
0.201446
0.202343
0.20355
0.204986
0.206561
0.208238
0.210023
0.211933
0.21399
0.216211
0.218616
0.221228
0.224078
0.227206
0.23062
0.234354
0.238422
0.242835
0.247625
0.252852
0.258475
0.264115
0.269203
0.273496
0.276945
0.280079
0.282566
0.198028
0.198372
0.198917
0.199739
0.200836
0.202141
0.203573
0.205098
0.206718
0.208448
0.210302
0.212295
0.214439
0.21675
0.219245
0.221941
0.22484
0.227941
0.231223
0.234647
0.238165
0.241724
0.245134
0.248027
0.250135
0.2514
0.251918
0.252215
0.252147
0.195488
0.19582
0.196328
0.197073
0.198054
0.199217
0.200495
0.201855
0.203294
0.204827
0.206462
0.208207
0.210067
0.212048
0.214155
0.216389
0.218738
0.221173
0.223643
0.226064
0.228328
0.230297
0.231681
0.232178
0.231801
0.230651
0.228932
0.227157
0.22536
0.192891
0.193214
0.193686
0.194352
0.195211
0.196225
0.197338
0.198519
0.199765
0.201089
0.202491
0.203971
0.205527
0.207157
0.208854
0.210606
0.212383
0.214138
0.215792
0.217228
0.218296
0.218806
0.218412
0.216908
0.214558
0.211587
0.208262
0.205098
0.202292
0.190241
0.190554
0.190986
0.19157
0.192307
0.19317
0.194113
0.195107
0.196154
0.197259
0.198417
0.19962
0.200861
0.202127
0.203403
0.204662
0.205863
0.206941
0.207796
0.208294
0.208259
0.207473
0.205572
0.202466
0.198628
0.194377
0.189987
0.185984
0.182722
0.187545
0.187849
0.188241
0.188745
0.18936
0.190066
0.190834
0.191637
0.19248
0.193361
0.194268
0.195189
0.196109
0.197007
0.197859
0.198629
0.199262
0.199681
0.199777
0.199403
0.198375
0.196467
0.193327
0.188992
0.184103
0.179025
0.173994
0.169551
0.166205
0.184812
0.18511
0.185465
0.18589
0.186382
0.186926
0.187514
0.188125
0.188761
0.189414
0.190069
0.190707
0.191306
0.191839
0.192274
0.192564
0.192648
0.192441
0.191824
0.190652
0.188741
0.185877
0.181741
0.1765
0.17092
0.165375
0.160019
0.155422
0.152242
0.182046
0.182338
0.182651
0.182998
0.183374
0.183749
0.184172
0.184591
0.185021
0.185449
0.185854
0.186212
0.186497
0.186675
0.186706
0.186539
0.186103
0.185309
0.184039
0.182146
0.179461
0.175789
0.170863
0.164984
0.159011
0.153298
0.147875
0.143351
0.140534
0.179257
0.179545
0.179817
0.18009
0.180324
0.180587
0.180824
0.181051
0.18128
0.181489
0.181652
0.181741
0.181725
0.181565
0.181216
0.180621
0.179705
0.178377
0.176518
0.17399
0.170636
0.16629
0.160747
0.15444
0.14831
0.142668
0.137393
0.133146
0.130888
0.176453
0.176736
0.176972
0.177165
0.177305
0.177413
0.177475
0.177524
0.177559
0.177557
0.177489
0.177324
0.177025
0.17655
0.175849
0.174863
0.173515
0.171711
0.169337
0.16626
0.16234
0.157436
0.151404
0.144814
0.138688
0.133298
0.128349
0.124571
0.1231
0.173642
0.173917
0.174136
0.174268
0.174294
0.174242
0.174142
0.17402
0.173873
0.173673
0.173389
0.172987
0.172426
0.171662
0.170644
0.169309
0.167581
0.165366
0.162555
0.159022
0.154637
0.149277
0.142852
0.136044
0.129979
0.124926
0.12041
0.117271
0.116858
0.170832
0.171101
0.171295
0.171361
0.171276
0.171085
0.170837
0.170558
0.170241
0.169859
0.169378
0.168759
0.167962
0.16694
0.165641
0.164004
0.161952
0.159399
0.156236
0.152346
0.147608
0.141905
0.135173
0.12817
0.122129
0.117369
0.11327
0.110857
0.111757
0.168032
0.168302
0.168471
0.168474
0.168285
0.167963
0.167573
0.167148
0.166679
0.166135
0.165476
0.164664
0.163657
0.162411
0.160873
0.158983
0.156672
0.153854
0.150433
0.146301
0.141342
0.135435
0.12851
0.121325
0.115185
0.110498
0.106564
0.104803
0.107286
0.165246
0.165511
0.165649
0.165586
0.165301
0.164863
0.164352
0.163805
0.163208
0.162522
0.161709
0.160729
0.159542
0.158105
0.15637
0.154281
0.151772
0.148769
0.145188
0.140936
0.135911
0.129991
0.123082
0.115858
0.109575
0.104655
0.100282
0.0986753
0.102947
0.162501
0.162813
0.162979
0.162878
0.162474
0.161872
0.161205
0.160531
0.15982
0.159017
0.158074
0.156955
0.155621
0.154033
0.152146
0.149909
0.147266
0.144155
0.140509
0.136262
0.131336
0.125599
0.1189
0.111789
0.105394
0.100068
0.0946409
0.0916829
0.0966929
0.15488
0.135833
0.109299
0.0748494
0.0353404
-0.00401467
-0.0401698
-0.0731676
-0.103608
-0.135012
-0.167379
-0.203453
-0.240495
-0.275102
-0.303015
-0.321536
-0.330819
-0.333309
-0.332926
0.163763
0.149584
0.124476
0.0896941
0.0471121
0.00139231
-0.0440417
-0.0887703
-0.131753
-0.177929
-0.224063
-0.27047
-0.314876
-0.353677
-0.383443
-0.402977
-0.413709
-0.418466
-0.420225
0.160216
0.147438
0.123862
0.0894779
0.0450352
-0.0053272
-0.0579175
-0.114355
-0.170734
-0.227221
-0.28333
-0.337958
-0.388183
-0.430476
-0.462262
-0.483292
-0.495549
-0.501901
-0.505047
0.151021
0.138613
0.117127
0.0835973
0.0373048
-0.0177907
-0.0780321
-0.141802
-0.207252
-0.273222
-0.338711
-0.401491
-0.457744
-0.503693
-0.537323
-0.559291
-0.572375
-0.57972
-0.583849
0.138555
0.127309
0.107677
0.074935
0.02765
-0.0303512
-0.0956622
-0.165884
-0.239426
-0.314575
-0.388774
-0.458414
-0.518969
-0.566873
-0.601114
-0.623413
-0.637181
-0.645506
-0.650501
0.121323
0.110901
0.0930696
0.0619082
0.0150626
-0.0442356
-0.112911
-0.188774
-0.26944
-0.352115
-0.432949
-0.507239
-0.570222
-0.619038
-0.653787
-0.67695
-0.692203
-0.702332
-0.70901
0.0997837
0.088743
0.0717156
0.042041
-0.00369886
-0.0632564
-0.133902
-0.213397
-0.298608
-0.385641
-0.469551
-0.544838
-0.606908
-0.6539
-0.68699
-0.709218
-0.724359
-0.734753
-0.741711
0.0751417
0.0622782
0.0446085
0.0153321
-0.0295598
-0.0887062
-0.159736
-0.2403
-0.326842
-0.414677
-0.498024
-0.571061
-0.629856
-0.673709
-0.704646
-0.725894
-0.740976
-0.751645
-0.75896
0.0483827
0.0331709
0.0137593
-0.0163567
-0.0610544
-0.119441
-0.189497
-0.268913
-0.353891
-0.439171
-0.518483
-0.586236
-0.639533
-0.678771
-0.70652
-0.725939
-0.74019
-0.750519
-0.757663
0.0203854
0.00284406
-0.0187919
-0.0505265
-0.0956067
-0.153151
-0.221398
-0.298165
-0.379524
-0.459874
-0.532904
-0.593739
-0.640673
-0.675016
-0.6996
-0.71735
-0.731002
-0.741429
-0.749013
-0.00788913
-0.0274553
-0.0513263
-0.0849379
-0.130766
-0.187594
-0.25368
-0.326803
-0.402808
-0.475902
-0.540204
-0.592017
-0.630912
-0.658893
-0.678815
-0.693265
-0.704489
-0.713142
-0.719399
-0.035317
-0.0564232
-0.0821693
-0.117385
-0.163871
-0.219901
-0.283513
-0.352257
-0.421752
-0.486378
-0.541213
-0.583987
-0.615357
-0.637652
-0.65348
-0.664974
-0.673848
-0.680675
-0.685521
-0.0608657
-0.0829425
-0.109982
-0.146146
-0.192746
-0.24756
-0.308327
-0.372324
-0.435075
-0.491453
-0.537717
-0.572876
-0.598289
-0.616313
-0.629204
-0.638691
-0.6461
-0.65201
-0.656314
-0.0838277
-0.106345
-0.134078
-0.170457
-0.216483
-0.269511
-0.32694
-0.385713
-0.441368
-0.489529
-0.527744
-0.556109
-0.576386
-0.59076
-0.601095
-0.608749
-0.614715
-0.619542
-0.623027
-0.103793
-0.126301
-0.154178
-0.190083
-0.23483
-0.285439
-0.339003
-0.392213
-0.440862
-0.481546
-0.51303
-0.53617
-0.552825
-0.564865
-0.573742
-0.580476
-0.5858
-0.590195
-0.593393
-0.120735
-0.142903
-0.170477
-0.205358
-0.248261
-0.29597
-0.345393
-0.39313
-0.435436
-0.469891
-0.496209
-0.515661
-0.530002
-0.540765
-0.549054
-0.555629
-0.561049
-0.565694
-0.569196
-0.134991
-0.156631
-0.183622
-0.217143
-0.257842
-0.3023
-0.347285
-0.389458
-0.425729
-0.454681
-0.476753
-0.493376
-0.506063
-0.515984
-0.523933
-0.530443
-0.535943
-0.540682
-0.544265
-0.147013
-0.168063
-0.194332
-0.226334
-0.264655
-0.305705
-0.34622
-0.383107
-0.41406
-0.438531
-0.457413
-0.472092
-0.483779
-0.493306
-0.501202
-0.507813
-0.513463
-0.518298
-0.521943
-0.157327
-0.177845
-0.20341
-0.233921
-0.269909
-0.307676
-0.344047
-0.3763
-0.402873
-0.423858
-0.440363
-0.453632
-0.464592
-0.47381
-0.481613
-0.488219
-0.493883
-0.498693
-0.502309
-0.166482
-0.186647
-0.211709
-0.24093
-0.274705
-0.309203
-0.341468
-0.369336
-0.392018
-0.410078
-0.424648
-0.436733
-0.446979
-0.455733
-0.463184
-0.469467
-0.474796
-0.479242
-0.482535
-0.174819
-0.194964
-0.219923
-0.248231
-0.280002
-0.31129
-0.339572
-0.363424
-0.382777
-0.398454
-0.411454
-0.422506
-0.432016
-0.440175
-0.447086
-0.452844
-0.457635
-0.461547
-0.464398
-0.182551
-0.203214
-0.228705
-0.25661