/*--------------------------------*- C++ -*----------------------------------*\
| =========                 |                                                 |
| \\      /  F ield         | OpenFOAM: The Open Source CFD Toolbox           |
|  \\    /   O peration     | Version:  2312                                  |
|   \\  /    A nd           | Website:  www.openfoam.com                      |
|    \\/     M anipulation  |                                                 |
\*---------------------------------------------------------------------------*/
FoamFile
{
    version     2.0;
    format      ascii;
    arch        "LSB;label=32;scalar=64";
    class       surfaceScalarField;
    location    "63.735282706184655";
    object      phi;
}
// * * * * * * * * * * * * * * * * * * * * * * * * * * * * * * * * * * * * * //

dimensions      [0 3 -1 0 0 0 0];

oriented        oriented;

internalField   nonuniform List<scalar> 
41713
(
0.00736703
0.0568794
0.00363045
0.067983
0.00211945
0.0657574
0.00148801
0.0648779
0.00110317
0.0646313
0.000849902
0.0644997
0.000675684
0.0644207
0.000549605
0.0643725
0.000455058
0.064341
0.000382393
0.0643191
0.000325485
0.0643033
0.00028028
0.0642916
0.000244011
0.0642827
0.000214738
0.0642757
0.000191062
0.0642701
0.000171959
0.0642655
0.00015666
0.0642617
0.000144574
0.0642585
0.000135234
0.0642558
0.000128249
0.0642534
0.000123247
0.0642514
0.000119855
0.0642498
0.000117776
0.0642485
0.000116508
0.0548124
0.000115392
0.0456771
0.000114244
0.0380645
0.000113097
0.0317206
0.000111997
0.026434
0.0220284
0.000110938
0.00999818
0.0468812
0.00843612
0.0695451
0.00572632
0.0684672
0.00413496
0.0664692
0.00313705
0.0656292
0.00244862
0.0651881
0.00195384
0.0649154
0.00158726
0.0647391
0.00130858
0.0646197
0.00109202
0.0645357
0.00092064
0.0644747
0.00078305
0.0644292
0.000671404
0.0643944
0.000580159
0.064367
0.000505316
0.064345
0.000443944
0.0643269
0.000393854
0.0643118
0.000353386
0.064299
0.000321253
0.0642879
0.000296429
0.0642782
0.00027807
0.0642698
0.000265428
0.0642625
0.000257747
0.0642562
0.00025418
0.054816
0.000252701
0.0456786
0.000252094
0.0380651
0.000251696
0.031721
0.000251221
0.0264344
0.0220289
0.000250741
0.00860115
0.0382801
0.00971976
0.0684265
0.00748617
0.0707008
0.00572105
0.0682343
0.00453722
0.066813
0.0036568
0.0660686
0.00297942
0.0655928
0.00245349
0.065265
0.00204032
0.0650328
0.00171138
0.0648646
0.00144621
0.0647399
0.0012302
0.0646452
0.00105278
0.0645718
0.000906269
0.0645135
0.000784971
0.0644663
0.000684655
0.0644272
0.000602128
0.0643944
0.000534955
0.0643662
0.00048125
0.0643416
0.000439525
0.06432
0.000408583
0.0643007
0.000387407
0.0642836
0.000374966
0.0642686
0.00036994
0.054821
0.00036877
0.0456797
0.000369213
0.0380646
0.000370019
0.0317202
0.000370649
0.0264338
0.0220284
0.000371125
0.00677948
0.0315006
0.00948766
0.0657183
0.00813984
0.0720486
0.00646573
0.0699085
0.00528092
0.0679978
0.00438224
0.0669672
0.00365795
0.0663171
0.00306862
0.0658544
0.00258712
0.0655143
0.00219141
0.0652603
0.00186423
0.0650671
0.0015922
0.0649173
0.00136502
0.0647989
0.00117479
0.0647037
0.00101546
0.0646256
0.000882393
0.0645603
0.000772018
0.0645047
0.000681571
0.0644566
0.000608894
0.0644143
0.000552282
0.0643766
0.000510367
0.0643427
0.000481985
0.064312
0.000465876
0.0642847
0.000460148
0.0548268
0.000459799
0.0456801
0.000461647
0.0380628
0.000463959
0.0317179
0.00046603
0.0264317
0.0220266
0.000467852
0.00506869
0.0264319
0.00858109
0.0622059
0.00820139
0.0724283
0.00676515
0.0713447
0.00561741
0.0691456
0.0047496
0.067835
0.00404008
0.0670266
0.00344492
0.0664495
0.00294316
0.0660161
0.00251889
0.0656846
0.00215917
0.0654268
0.00185349
0.0652229
0.0015934
0.065059
0.00137214
0.064925
0.00118431
0.0648134
0.00102566
0.0647189
0.000892828
0.0646376
0.000783167
0.0645663
0.000694593
0.0645029
0.000625447
0.0644457
0.000574387
0.0643937
0.000540256
0.0643462
0.000521676
0.0643033
0.000516172
0.0548323
0.000517398
0.0456789
0.000521314
0.0380589
0.000525751
0.0317134
0.000529846
0.0264276
0.0220229
0.000533537
0.00362084
0.0228111
0.00731978
0.0585069
0.00780075
0.0719474
0.00675116
0.0723943
0.00569918
0.0701976
0.00488284
0.0686514
0.00421128
0.0676982
0.00363607
0.0670247
0.00313932
0.0665128
0.00270949
0.0661144
0.00233711
0.0657992
0.00201435
0.0655457
0.00173478
0.0653386
0.00149315
0.0651666
0.00128518
0.0650214
0.00110741
0.0648967
0.000957072
0.0647879
0.000831963
0.0646914
0.000730341
0.0646045
0.000650825
0.0645252
0.000592298
0.0644522
0.000553766
0.0643847
0.000533897
0.0643232
0.000529611
0.0548366
0.000533283
0.0456752
0.00054006
0.0380521
0.000547367
0.0317061
0.000554174
0.0264208
0.0220167
0.000560359
0.00252426
0.0202868
0.00602383
0.0550074
0.00711154
0.0708597
0.00649254
0.0730133
0.00559082
0.0710993
0.00484523
0.069397
0.00422567
0.0683177
0.00368504
0.0675654
0.00320741
0.0669905
0.00278518
0.0665366
0.00241211
0.0661722
0.00208284
0.065875
0.00179286
0.0656286
0.00153843
0.065421
0.00131645
0.0652434
0.00112443
0.0650887
0.000960369
0.064952
0.000822682
0.0648291
0.000710159
0.064717
0.000621871
0.0646135
0.00055709
0.064517
0.00051514
0.0644266
0.000494878
0.0643435
0.000492616
0.0548388
0.0004995
0.0456683
0.000509898
0.0380417
0.000520835
0.0316952
0.000531104
0.0264106
0.0220073
0.0005405
0.00175892
0.0185279
0.00488944
0.0518769
0.00632877
0.0694203
0.00609201
0.07325
0.00535833
0.071833
0.00468824
0.0700671
0.00412333
0.0688827
0.00362336
0.0680653
0.0031723
0.0674415
0.0027651
0.0669438
0.00239832
0.066539
0.00206887
0.0662044
0.00177403
0.0659234
0.0015115
0.0656836
0.0012794
0.0654755
0.00107619
0.0652919
0.000900721
0.0651274
0.000752134
0.0649777
0.000629853
0.0648393
0.000533524
0.0647099
0.000462946
0.0645876
0.000417894
0.0644717
0.000397563
0.0643638
0.000397731
0.0548386
0.000408346
0.0456577
0.000423013
0.038027
0.000438334
0.0316799
0.000452882
0.026396
0.0219939
0.000466294
0.00124709
0.0172808
0.00396531
0.0491586
0.00556738
0.0678183
0.00563409
0.0731833
0.00506278
0.0724043
0.0044623
0.0706675
0.00394421
0.0694007
0.00348167
0.0685279
0.00305754
0.0678657
0.00266745
0.0673339
0.00230971
0.0668968
0.00198293
0.0665312
0.00168589
0.0662205
0.00141756
0.0659519
0.00117713
0.0657159
0.000964046
0.065505
0.000777975
0.0653135
0.000618832
0.0651368
0.000486748
0.0649714
0.00038205
0.0648146
0.000305178
0.0646645
0.000256462
0.0645204
0.000235619
0.0643846
0.000238022
0.0548362
0.000252429
0.0456433
0.000271743
0.0380077
0.00029197
0.0316596
0.000311458
0.0263765
0.0219757
0.000329658
0.000911748
0.016369
0.00323277
0.0468376
0.00487146
0.0661796
0.00516346
0.0728913
0.00474001
0.0728277
0.00420216
0.0712054
0.00372042
0.0698825
0.00328716
0.0689611
0.00288536
0.0682675
0.0025101
0.0677092
0.00216048
0.0672464
0.00183619
0.0668555
0.00153704
0.0665196
0.00126299
0.0662259
0.00101416
0.0659647
0.00079081
0.0657284
0.000593431
0.0655109
0.000422708
0.0653075
0.00027953
0.0651146
0.000164936
0.0649292
8.0081e-05
0.0647493
2.61082e-05
0.0645744
3.12498e-06
0.0644076
6.70168e-06
0.0548327
2.45196e-05
0.0456255
4.8165e-05
0.0379841
7.33634e-05
0.0316344
9.79588e-05
0.0263519
0.0219524
0.000121248
0.000693161
0.0156759
0.00265873
0.044872
0.00425422
0.0645841
0.0047022
0.0724433
0.00440734
0.0731226
0.00392613
0.0716866
0.0034719
0.0703367
0.00305929
0.0693737
0.00267337
0.0686534
0.00230844
0.0680741
0.00196375
0.0675911
0.00163956
0.0671797
0.00133639
0.0668228
0.0010549
0.0665074
0.000795889
0.0662237
0.000560368
0.0659639
0.000349549
0.0657217
0.000164789
0.0654923
7.60904e-06
0.0652717
-0.000120218
0.065057
-0.000216691
0.0648458
-0.000279846
0.0646375
-0.000308462
0.0644362
-0.000306421
0.0548306
-0.000287316
0.0456064
-0.000260156
0.0379569
-0.000230202
0.0316045
-0.000200124
0.0263219
0.0219236
-0.000171328
0.000547801
0.0151281
0.00220919
0.0432107
0.0037157
0.0630776
0.00426287
0.0718962
0.00407492
0.0733105
0.0036443
0.0721172
0.00321067
0.0707703
0.00281096
0.0697734
0.00243439
0.06903
0.00207461
0.0684339
0.00173061
0.0679351
0.00140296
0.0675073
0.00109256
0.0671332
0.000800548
0.0667994
0.000528292
0.066496
0.000277353
0.0662148
4.94362e-05
0.0659496
-0.000153534
0.0656953
-0.000329274
0.0654475
-0.000475112
0.0652028
-0.000588135
0.0649588
-0.000665439
0.0647148
-0.000704936
0.0644757
-0.000708677
0.0548344
-0.000691118
0.0455888
-0.000662413
0.0379282
-0.000628606
0.0315707
-0.0005931
0.0262863
0.0218884
-0.000557897
0.000446485
0.0146816
0.00185395
0.0418032
0.00324924
0.0616823
0.0038522
0.0712932
0.00374985
0.0734129
0.00336353
0.0725035
0.002945
0.0711889
0.00255159
0.0701668
0.00217824
0.0694033
0.00181837
0.0687938
0.00147053
0.0682829
0.00113526
0.0678426
0.000813681
0.0674548
0.000507246
0.0671059
0.000217633
0.0667856
-5.32947e-05
0.0664858
-0.000303391
0.0661997
-0.000530035
0.0659219
-0.000730161
0.0656476
-0.000900338
0.065373
-0.00103682
0.0650953
-0.00113582
0.0648138
-0.00119438
0.0645343
-0.0012114
0.0548514
-0.00120172
0.0455791
-0.00117628
0.0379028
-0.00114202
0.0315364
-0.00110335
0.0262477
0.0218484
-0.00106334
0.000371549
0.0143101
0.00156912
0.0406056
0.0028456
0.0604058
0.00347276
0.0706661
0.00343684
0.0734488
0.00308875
0.0728516
0.00268112
0.0715965
0.0022887
0.0705593
0.00191316
0.0697789
0.00154829
0.0691586
0.00119209
0.0686391
0.000844897
0.0681898
0.000507835
0.0677918
0.000182412
0.0674313
-0.000129627
0.0670976
-0.000426159
0.0667823
-0.000704508
0.0664781
-0.000961461
0.0661788
-0.00119333
0.0658795
-0.00139594
0.0655756
-0.00156481
0.0652642
-0.00169548
0.0649445
-0.00178454
0.0646233
-0.00182619
0.054893
-0.00183486
0.0455878
-0.00182156
0.0378895
-0.00179368
0.0315085
-0.0017567
0.0262107
0.0218069
-0.00171512
0.000312922
0.0139971
0.00133878
0.0395798
0.00249853
0.059246
0.00312685
0.0700378
0.00313964
0.073436
0.00282332
0.073168
0.00242333
0.0719965
0.00202787
0.0709547
0.00164571
0.070161
0.00127153
0.0695328
0.000902829
0.0690078
0.00053956
0.0685531
0.000182638
0.0681487
-0.000166634
0.0677806
-0.000506496
0.0674375
-0.000834537
0.0671103
-0.00114773
0.0667913
-0.00144243
0.0664735
-0.00171434
0.0661514
-0.0019586
0.0658199
-0.00217003
0.0654756
-0.00234388
0.0651184
-0.00247732
0.0647568
-0.00255929
0.054975
-0.00260342
0.0456319
-0.00261929
0.0379053
-0.00261265
0.0315019
-0.00258852
0.0261866
0.021771
-0.00255266
0.000228145
0.013769
0.00098109
0.0388268
0.0018728
0.0583543
0.00239268
0.0695179
0.00243114
0.0733976
0.002185
0.0734141
0.00185204
0.0723295
0.00151447
0.0712923
0.00118493
0.0704906
0.000859849
0.0698579
0.000536707
0.0693309
0.000215041
0.0688747
-0.000104794
0.0684686
-0.000421941
0.0680977
-0.000734958
0.0677505
-0.00104184
0.0674172
-0.00133998
0.0670894
-0.00162606
0.0667596
-0.00189605
0.0664214
-0.00214516
0.066069
-0.00236817
0.0656986
-0.00256042
0.0653106
-0.00271994
0.0649163
-0.00283318
0.0550882
-0.00291334
0.0457121
-0.0029683
0.0379603
-0.0029999
0.0315335
-0.00300852
0.0261952
0.0217605
-0.00299801
0.000169791
0.0135992
0.000730323
0.0382663
0.0014172
0.0576675
0.00184022
0.0690948
0.00188737
0.0733504
0.00169449
0.073607
0.00141916
0.0726048
0.00113432
0.0715771
0.000853879
0.070771
0.000575431
0.0701364
0.000296504
0.0696099
1.62826e-05
0.069155
-0.000265267
0.0687501
-0.000547704
0.0683802
-0.000830056
0.0680329
-0.00111089
0.0676981
-0.0013882
0.0673667
-0.00165928
0.0670307
-0.00192064
0.0666827
-0.00216791
0.0663162
-0.00239592
0.0659266
-0.0025996
0.0655143
-0.00277605
0.0650927
-0.00290859
0.0552208
-0.00301256
0.0458161
-0.00310023
0.0380479
-0.00317681
0.0316101
-0.00324035
0.0262587
0.0217978
-0.00327766
0.000130522
0.0134687
0.000556647
0.0378402
0.00109227
0.0571318
0.00143606
0.0687511
0.00148386
0.0733026
0.00133111
0.0737597
0.00110352
0.0728324
0.000864101
0.0718166
0.000626577
0.0710085
0.000389331
0.0703736
0.000150061
0.0698491
-9.226e-05
0.0693973
-0.000337938
0.0689958
-0.000586841
0.0686291
-0.00083849
0.0682845
-0.00109202
0.0679516
-0.00134606
0.0676207
-0.00159865
0.0672833
-0.00184704
0.0669311
-0.00208761
0.0665568
-0.00231568
0.0661547
-0.00252592
0.0657245
-0.00271319
0.06528
-0.00285383
0.0553614
-0.00296097
0.0459232
-0.00305211
0.0381391
-0.00314185
0.0316998
-0.00324821
0.0263651
0.0219316
-0.00338205
9.97144e-05
0.013369
0.00043171
0.0375082
0.000858058
0.0567055
0.00113977
0.0684693
0.0011831
0.0732593
0.00105865
0.0738842
0.000869152
0.0730219
0.000668335
0.0720174
0.000468159
0.0712087
0.000267111
0.0705747
6.3035e-05
0.0700532
-0.000145098
0.0696054
-0.000357726
0.0692084
-0.000575002
0.0688463
-0.00079684
0.0685064
-0.00102286
0.0681776
-0.00125232
0.0678502
-0.00148396
0.0675149
-0.0017159
0.0671631
-0.00194551
0.0667864
-0.00216936
0.0663785
-0.00238324
0.0659384
-0.00258184
0.0654786
-0.00273406
0.0555136
-0.00284157
0.0460307
-0.00291206
0.0382096
-0.00295589
0.0317436
-0.00299141
0.0264006
-0.0031544
0.0220946
0.000155839
0.0219825
0.000198203
0.021985
0.000231615
0.0219939
0.000262667
0.0219963
0.000287887
0.0220021
0.000308564
0.0220067
0.000326194
0.0220097
0.000337496
0.0220161
0.000346773
0.0220181
0.000351018
0.0220231
0.000352178
0.0220262
0.000350794
0.0220287
0.000344953
0.0220332
0.000337489
0.0220348
0.000326758
0.0220381
0.000313703
0.0220404
0.00029929
0.0220418
0.000281883
0.0220448
0.000263388
0.0220459
0.000243632
0.0220471
0.000222292
0.0220487
0.000200312
0.0220493
0.00017764
0.02205
0.000154437
0.0220506
0.0001311
0.0220507
0.000107797
0.0220507
8.49174e-05
0.0220502
6.24535e-05
0.0220498
4.07284e-05
0.0220491
2.03848e-05
0.0220477
9.18112e-07
0.0220468
-1.68384e-05
0.0220451
-3.25813e-05
0.0220431
-4.70804e-05
0.0220419
-5.82881e-05
0.0220386
-6.75341e-05
0.0220366
-7.45101e-05
0.0220343
-7.7316e-05
0.0220302
-7.8351e-05
0.0220284
-7.47167e-05
0.0220237
-6.79318e-05
0.0220206
-5.80311e-05
0.0220175
-4.23327e-05
0.0220117
-2.44842e-05
0.0220095
8.10804e-08
0.0220028
2.80841e-05
0.0219994
6.08925e-05
0.0219945
0.000100057
0.0219882
0.0219857
0.000141718
0.000295963
0.0219372
0.000338847
0.0219421
0.000372994
0.0219598
0.000404989
0.0219643
0.00043138
0.0219757
0.000453446
0.0219846
0.000472669
0.0219905
0.000485773
0.0220029
0.000497028
0.0220068
0.00050343
0.0220167
0.000506905
0.0220227
0.000507975
0.0220277
0.000504732
0.0220364
0.000499974
0.0220396
0.00049206
0.022046
0.000481912
0.0220506
0.000470472
0.0220532
0.000456118
0.0220591
0.000440716
0.0220613
0.000424085
0.0220637
0.000405903
0.0220669
0.00038708
0.0220682
0.000367559
0.0220695
0.000347498
0.0220706
0.000327262
0.0220709
0.000307013
0.0220709
0.00028714
0.0220701
0.000267602
0.0220694
0.000248717
0.022068
0.000231128
0.0220653
0.000214297
0.0220637
0.000199059
0.0220603
0.000185705
0.0220565
0.000173433
0.0220541
0.000164306
0.0220477
0.000156957
0.022044
0.000151685
0.0220396
0.000150395
0.0220315
0.000150647
0.0220281
0.000155357
0.022019
0.000162974
0.022013
0.000173452
0.022007
0.000189482
0.0219956
0.000207373
0.0219916
0.000231714
0.0219784
0.00025918
0.0219719
0.000291129
0.0219626
0.000329093
0.0219502
0.0219456
0.000369179
0.000417025
0.0218913
0.000460773
0.0218984
0.000496027
0.0219245
0.000529356
0.021931
0.000557314
0.0219478
0.000581169
0.0219608
0.000602384
0.0219693
0.000617689
0.0219876
0.00063132
0.0219932
0.000640278
0.0220078
0.000646465
0.0220165
0.000650387
0.0220237
0.000650139
0.0220367
0.000648484
0.0220412
0.000643784
0.0220507
0.000636941
0.0220574
0.000628872
0.0220613
0.000617968
0.02207
0.000606056
0.0220732
0.000592945
0.0220769
0.000578315
0.0220815
0.000563043
0.0220834
0.000547064
0.0220855
0.000530532
0.0220872
0.000513783
0.0220877
0.00049697
0.0220877
0.00048048
0.0220866
0.000464242
0.0220856
0.000448566
0.0220836
0.000434093
0.0220798
0.000420251
0.0220775
0.000407877
0.0220727
0.000397249
0.0220671
0.000387536
0.0220638
0.000380815
0.0220544
0.000375685
0.0220491
0.000372432
0.0220429
0.000372971
0.0220309
0.000374819
0.0220263
0.000380906
0.0220129
0.000389654
0.0220042
0.000401001
0.0219956
0.000417647
0.021979
0.000435856
0.0219734
0.000460238
0.0219541
0.000487429
0.0219447
0.00051878
0.0219312
0.000555814
0.0219132
0.0219068
0.000594589
0.000515029
0.0218442
0.000560228
0.0218532
0.000597155
0.0218876
0.000632383
0.0218958
0.000662479
0.0219177
0.000688701
0.0219345
0.000712501
0.0219455
0.000730606
0.0219695
0.000747227
0.0219766
0.000759363
0.0219956
0.000768896
0.022007
0.000776314
0.0220163
0.000779709
0.0220333
0.000781815
0.0220391
0.000780991
0.0220515
0.000778119
0.0220603
0.000774095
0.0220653
0.000767313
0.0220768
0.000759566
0.0220809
0.000750652
0.0220858
0.000740248
0.0220919
0.000729198
0.0220945
0.000717432
0.0220973
0.000705094
0.0220995
0.000692492
0.0221003
0.000679771
0.0221004
0.000667312
0.0220991
0.000655013
0.0220979
0.000643177
0.0220955
0.00063244
0.0220905
0.0006222
0.0220877
0.000613292
0.0220816
0.000605981
0.0220744
0.000599406
0.0220704
0.00059566
0.0220582
0.000593307
0.0220514
0.000592621
0.0220435
0.000595524
0.022028
0.000599494
0.0220223
0.000607475
0.0220049
0.000617863
0.0219938
0.00063058
0.0219829
0.000648337
0.0219612
0.000667357
0.0219544
0.00069227
0.0219292
0.000719674
0.0219173
0.000750914
0.0219
0.000787509
0.0218766
0.0218689
0.000825467
0.000582788
0.0217949
0.000630233
0.0218057
0.000669625
0.0218482
0.00070755
0.0218578
0.000740586
0.0218847
0.000769989
0.0219051
0.000797199
0.0219183
0.000818943
0.0219478
0.000839408
0.0219561
0.000855586
0.0219794
0.000869342
0.0219932
0.000881148
0.0220045
0.000889088
0.0220254
0.000895869
0.0220323
0.000899843
0.0220476
0.000901873
0.0220582
0.000902832
0.0220643
0.000901113
0.0220785
0.000898478
0.0220835
0.000894711
0.0220895
0.000889482
0.0220971
0.000883607
0.0221004
0.000877002
0.0221039
0.000869802
0.0221067
0.000862289
0.0221078
0.000854593
0.0221081
0.00084709
0.0221066
0.000839649
0.0221053
0.00083256
0.0221026
0.000826456
0.0220966
0.000820702
0.0220935
0.000816131
0.0220862
0.000812993
0.0220775
0.000810402
0.022073
0.000810458
0.0220581
0.000811694
0.0220502
0.000814374
0.0220409
0.000820425
0.022022
0.000827286
0.0220155
0.000837919
0.0219943
0.000850691
0.021981
0.000865513
0.0219681
0.000885109
0.0219416
0.000905657
0.0219338
0.000931818
0.021903
0.000960151
0.021889
0.000992
0.0218682
0.00102888
0.0218397
0.021831
0.00106675
0.000612655
0.0217426
0.000663341
0.021755
0.000706194
0.0218054
0.00074783
0.0218162
0.000784835
0.0218476
0.000818464
0.0218715
0.000850156
0.0218866
0.000876624
0.0219213
0.000902045
0.0219307
0.000923399
0.0219581
0.000942531
0.0219741
0.000959899
0.0219872
0.000973573
0.0220117
0.000986238
0.0220197
0.000996232
0.0220376
0.0010044
0.0220501
0.00101159
0.0220572
0.00101619
0.0220739
0.00101993
0.0220798
0.00102259
0.0220869
0.0010238
0.0220959
0.00102438
0.0220998
0.00102421
0.0221041
0.00102342
0.0221075
0.00102226
0.022109
0.00102084
0.0221096
0.00101954
0.0221079
0.00101819
0.0221067
0.00101707
0.0221037
0.00101681
0.0220969
0.00101673
0.0220936
0.00101766
0.0220853
0.00101985
0.0220753
0.00102236
0.0220705
0.00102733
0.0220531
0.00103323
0.0220443
0.00104034
0.0220338
0.00105057
0.0220117
0.00106134
0.0220047
0.00107561
0.02198
0.00109173
0.0219649
0.00110961
0.0219502
0.00113197
0.0219193
0.00115496
0.0219109
0.00118326
0.0218747
0.0012134
0.0218588
0.00124672
0.0218348
0.00128474
0.0218017
0.0217924
0.00132336
0.000596996
0.0216861
0.000652115
0.0216999
0.000699644
0.0217578
0.00074624
0.0217696
0.000788487
0.0218054
0.00082765
0.0218323
0.000865164
0.0218491
0.000897726
0.0218888
0.000929511
0.0218989
0.000957475
0.0219301
0.000983453
0.0219481
0.00100788
0.0219627
0.00102882
0.0219907
0.00104892
0.0219996
0.00106651
0.02202
0.00108241
0.0220342
0.00109745
0.0220421
0.00111
0.0220614
0.00112177
0.022068
0.00113249
0.0220762
0.00114182
0.0220866
0.0011505
0.0220911
0.00115843
0.0220961
0.00116571
0.0221002
0.00117255
0.0221021
0.00117907
0.022103
0.0011856
0.0221013
0.00119195
0.0221003
0.0011984
0.0220972
0.00120554
0.0220897
0.00121268
0.0220864
0.00122063
0.0220773
0.00122962
0.0220664
0.0012387
0.0220614
0.00124999
0.0220419
0.00126194
0.0220323
0.00127481
0.0220209
0.00129053
0.021996
0.00130646
0.0219888
0.0013256
0.0219609
0.00134625
0.0219443
0.00136832
0.0219281
0.00139455
0.021893
0.00142104
0.0218844
0.00145251
0.0218432
0.00148546
0.0218259
0.00152121
0.0217991
0.0015613
0.0217616
0.0217521
0.00160157
0.000528312
0.0216241
0.000589224
0.021639
0.000642826
0.0217042
0.000695839
0.0217166
0.00074484
0.0217564
0.0007911
0.0217861
0.000836059
0.0218041
0.000876386
0.0218484
0.000916264
0.021859
0.000952615
0.0218938
0.000987266
0.0219135
0.00102064
0.0219294
0.00105074
0.0219606
0.00108024
0.0219701
0.00110742
0.0219928
0.00113309
0.0220085
0.00115804
0.0220172
0.00118061
0.0220388
0.0012025
0.0220462
0.00122343
0.0220552
0.00124299
0.022067
0.00126193
0.0220722
0.0012801
0.022078
0.00129758
0.0220827
0.00131457
0.0220851
0.00133112
0.0220865
0.00134758
0.0220849
0.00136372
0.0220842
0.00137978
0.0220812
0.00139634
0.0220732
0.00141267
0.0220701
0.00142958
0.0220604
0.00144726
0.0220487
0.00146473
0.0220439
0.00148412
0.0220225
0.00150385
0.0220126
0.00152414
0.0220006
0.00154695
0.0219732
0.00156958
0.0219661
0.00159505
0.0219354
0.00162165
0.0219177
0.00164925
0.0219005
0.00168063
0.0218617
0.00171184
0.0218532
0.00174765
0.0218074
0.00178449
0.021789
0.00182373
0.0217598
0.00186687
0.0217185
0.0217093
0.0019097
0.000398636
0.0215551
0.000466911
0.0215707
0.000528246
0.0216429
0.000589393
0.0216554
0.000646911
0.0216989
0.000702109
0.0217309
0.000756441
0.0217498
0.000806542
0.0217983
0.000856607
0.021809
0.000903515
0.0218469
0.000949084
0.0218679
0.000993709
0.0218847
0.00103537
0.021919
0.00107671
0.0219287
0.00111598
0.0219535
0.00115396
0.0219705
0.00119142
0.0219797
0.00122666
0.0220036
0.00126136
0.0220115
0.00129518
0.0220214
0.0013277
0.0220345
0.00135963
0.0220402
0.00139079
0.0220468
0.00142122
0.0220523
0.00145108
0.0220553
0.0014804
0.0220572
0.00150949
0.0220558
0.00153807
0.0220556
0.00156635
0.0220529
0.0015949
0.0220446
0.00162294
0.0220421
0.00165124
0.0220321
0.00167999
0.0220199
0.00170816
0.0220158
0.00173786
0.0219928
0.00176749
0.021983
0.00179724
0.0219708
0.00182908
0.0219414
0.00186024
0.021935
0.00189379
0.0219019
0.00192797
0.0218835
0.00196265
0.0218659
0.00200063
0.0218237
0.00203789
0.0218159
0.00207927
0.021766
0.00212116
0.0217471
0.00216492
0.0217161
0.00221208
0.0216713
0.021663
0.00225835
0.000198708
0.0214777
0.000276247
0.0214932
0.000346911
0.0215722
0.000417978
0.0215844
0.000486121
0.0216307
0.000552538
0.0216645
0.000618621
0.0216837
0.000680937
0.021736
0.000743739
0.0217462
0.000803854
0.0217867
0.000863101
0.0218087
0.000921851
0.021826
0.00097802
0.0218628
0.00103426
0.0218725
0.00108877
0.021899
0.00114228
0.021917
0.00119556
0.0219264
0.00124682
0.0219523
0.00129773
0.0219605
0.00134792
0.0219712
0.0013969
0.0219855
0.00144535
0.0219918
0.00149304
0.0219991
0.00153996
0.0220054
0.00158622
0.022009
0.00163182
0.0220116
0.001677
0.0220106
0.00172145
0.0220112
0.00176532
0.022009
0.00180916
0.0220008
0.0018521
0.0219991
0.00189492
0.0219893
0.00193775
0.0219771
0.00197949
0.021974
0.00202228
0.02195
0.00206443
0.0219408
0.00210612
0.0219291
0.00214933
0.0218982
0.00219122
0.0218931
0.00223489
0.0218582
0.00227853
0.0218398
0.002322
0.0218224
0.00236814
0.0217775
0.00241288
0.0217712
0.00246111
0.0217178
0.00250916
0.0216991
0.00255843
0.0216668
0.00261045
0.0216193
0.0216126
0.00266086
-8.47748e-05
0.0213911
2.45198e-06
0.021406
8.51443e-05
0.0214896
0.000169424
0.0215001
0.000251259
0.0215489
0.000331926
0.0215838
0.000412497
0.0216031
0.000489991
0.0216585
0.000568715
0.0216674
0.000645369
0.0217101
0.000721761
0.0217323
0.000798235
0.0217495
0.000872642
0.0217884
0.000947647
0.0217975
0.00102136
0.0218253
0.00109451
0.0218439
0.00116781
0.0218531
0.00123941
0.0218807
0.00131094
0.021889
0.00138196
0.0219002
0.00145193
0.0219156
0.00152148
0.0219222
0.00159029
0.0219303
0.00165831
0.0219374
0.00172558
0.0219417
0.00179201
0.0219451
0.00185782
0.0219448
0.00192258
0.0219464
0.00198641
0.0219452
0.00204979
0.0219374
0.00211178
0.0219371
0.00217311
0.021928
0.00223383
0.0219164
0.0022928
0.0219151
0.00235213
0.0218906
0.00241007
0.0218829
0.00246675
0.0218725
0.00252415
0.0218408
0.00257935
0.0218379
0.00263549
0.0218021
0.00269072
0.0217846
0.00274486
0.0217683
0.00280083
0.0217216
0.00285444
0.0217175
0.00291072
0.0216615
0.00296593
0.0216439
0.00302147
0.0216113
0.00307894
0.0215618
0.0215577
0.00313386
-0.00045884
0.021292
-0.000357866
0.021305
-0.000262301
0.021394
-0.000164769
0.0214026
-6.86618e-05
0.0214528
2.74089e-05
0.0214877
0.000125826
0.0215047
0.000222081
0.0215623
0.000320365
0.0215691
0.000417351
0.0216131
0.000514916
0.0216347
0.000613405
0.021651
0.000710602
0.0216912
0.000809188
0.0216989
0.000907168
0.0217273
0.0010052
0.0217458
0.00110395
0.0217544
0.00120147
0.0217832
0.00129934
0.0217912
0.00139702
0.0218025
0.00149392
0.0218187
0.00159056
0.0218256
0.00168655
0.0218343
0.00178174
0.0218422
0.00187608
0.0218474
0.00196938
0.0218518
0.00206178
0.0218524
0.00215274
0.0218554
0.00224228
0.0218557
0.0023308
0.0218489
0.00241725
0.0218507
0.00250227
0.0218429
0.00258587
0.0218328
0.00266673
0.0218342
0.00274703
0.0218103
0.00282484
0.0218051
0.00290026
0.0217971
0.00297528
0.0217657
0.00304685
0.0217663
0.00311819
0.0217307
0.00318734
0.0217155
0.00325414
0.0217015
0.00332158
0.0216541
0.00338536
0.0216538
0.00345066
0.0215962
0.00351365
0.0215809
0.00357581
0.0215491
0.00363879
0.0214988
0.0214985
0.003698
-0.000951709
0.0211804
-0.000836608
0.0211899
-0.000724896
0.0212823
-0.000609334
0.021287
-0.000493739
0.0213372
-0.000376802
0.0213708
-0.000257553
0.0213855
-0.000139314
0.021444
-1.75181e-05
0.0214474
0.000104316
0.0214913
0.000227977
0.021511
0.000353734
0.0215253
0.000479442
0.0215655
0.000607699
0.0215706
0.000736339
0.0215987
0.000865995
0.0216162
0.000997242
0.0216231
0.00112797
0.0216524
0.00125967
0.0216595
0.00139171
0.0216705
0.00152336
0.021687
0.00165505
0.0216939
0.00178625
0.0217031
0.00191671
0.0217117
0.00204621
0.0217179
0.00217446
0.0217236
0.00230145
0.0217254
0.00242647
0.0217304
0.00254941
0.0217327
0.00267056
0.0217277
0.00278866
0.0217326
0.00290427
0.0217273
0.00301727
0.0217198
0.00312615
0.0217253
0.00323309
0.0217034
0.00333599
0.0217022
0.00343483
0.0216982
0.00353167
0.0216689
0.00362324
0.0216747
0.00371286
0.0216411
0.00379849
0.0216298
0.00387992
0.02162
0.00396029
0.0215737
0.00403516
0.0215789
0.00410995
0.0215214
0.00418071
0.0215101
0.00424905
0.0214808
0.00431672
0.0214312
0.0214362
0.00437902
-0.00159089
0.0210562
-0.00146088
0.0210599
-0.00133237
0.0211538
-0.0011978
0.0211524
-0.00106112
0.0212005
-0.000920875
0.0212305
-0.000775517
0.0212401
-0.000628985
0.0212975
-0.000476765
0.0212951
-0.000322633
0.0213371
-0.000164805
0.0213532
-3.19433e-06
0.0213636
0.000159162
0.0214031
0.000325117
0.0214047
0.000492813
0.021431
0.000663044
0.0214459
0.000835993
0.0214502
0.00100948
0.021479
0.00118489
0.021484
0.00136143
0.0214939
0.00153825
0.0215102
0.0017156
0.0215166
0.00189281
0.0215259
0.00206946
0.0215351
0.00224512
0.0215422
0.00241929
0.0215494
0.00259181
0.0215529
0.00276167
0.0215605
0.00292856
0.0215658
0.0030926
0.0215637
0.0032522
0.021573
0.00340779
0.0215717
0.00355904
0.0215685
0.00370415
0.0215802
0.0038453
0.0215622
0.00398009
0.0215674
0.00410839
0.0215699
0.00423227
0.021545
0.00434819
0.0215588
0.0044596
0.0215297
0.00456431
0.0215251
0.00466211
0.0215222
0.00475634
0.0214795
0.00484235
0.0214929
0.00492595
0.0214378
0.00500309
0.021433
0.00507558
0.0214083
0.00514539
0.0213613
0.0213739
0.00520769
-0.00241825
0.0209218
-0.00227437
0.020916
-0.00212909
0.0210085
-0.00197431
0.0209976
-0.00181385
0.0210401
-0.00164599
0.0210627
-0.00146916
0.0210633
-0.0012876
0.0211159
-0.0010969
0.0211044
-0.000901329
0.0211416
-0.000699459
0.0211514
-0.000491542
0.0211557
-0.000280273
0.0211919
-6.3355e-05
0.0211878
0.000156044
0.0212116
0.00037811
0.0212239
0.000605369
0.0212229
0.000834443
0.0212499
0.00106667
0.0212518
0.00130122
0.0212594
0.00153714
0.0212743
0.00177447
0.0212792
0.00201237
0.021288
0.00225022
0.0212972
0.00248726
0.0213052
0.0027227
0.021314
0.0029561
0.0213195
0.00318602
0.0213306
0.00341176
0.0213401
0.0036332
0.0213423
0.00384819
0.021358
0.00405691
0.021363
0.00425872
0.0213667
0.00445135
0.0213876
0.00463695
0.0213766
0.00481269
0.0213917
0.00497826
0.0214043
0.00513574
0.0213875
0.00528119
0.0214134
0.00541828
0.0213926
0.00554459
0.0213988
0.00565987
0.021407
0.00576777
0.0213716
0.00586339
0.0213973
0.00595312
0.0213481
0.00603288
0.0213532
0.00610486
0.0213363
0.00617143
0.0212948
0.0213177
0.00622763
-0.00288744
0.0208112
-0.00276577
0.0207943
-0.00263799
0.0208807
-0.00249471
0.0208544
-0.0023389
0.0208842
-0.00216961
0.0208934
-0.00198656
0.0208802
-0.00179474
0.0209241
-0.00159144
0.0209011
-0.00138134
0.0209315
-0.00116385
0.0209339
-0.000939671
0.0209316
-0.000711638
0.0209638
-0.000477745
0.0209539
-0.000239795
0.0209736
2.63528e-06
0.0209814
0.000246676
0.0209789
0.000493848
0.0210027
0.000745548
0.0210001
0.00100076
0.0210042
0.00125871
0.0210163
0.00151931
0.0210186
0.00178166
0.0210257
0.00204506
0.0210338
0.00230849
0.0210418
0.00257087
0.0210516
0.00283149
0.0210589
0.00308851
0.0210736
0.00334086
0.0210877
0.00358799
0.0210951
0.00382742
0.0211186
0.00405893
0.0211315
0.00428153
0.0211441
0.00449277
0.0211763
0.00469441
0.021175
0.00488357
0.0212025
0.0050598
0.0212281
0.00522497
0.0212224
0.00537532
0.021263
0.00551421
0.0212537
0.00563937
0.0212737
0.00575053
0.0212958
0.00585099
0.0212712
0.00593624
0.021312
0.00601211
0.0212722
0.00607502
0.0212903
0.00612732
0.021284
0.00617183
0.0212503
0.0212847
0.00620485
-0.00318945
0.020723
-0.00309971
0.0207046
-0.0030002
0.0207812
-0.00287448
0.0207287
-0.00272468
0.0207344
-0.00255276
0.0207215
-0.00236202
0.0206895
-0.00215979
0.0207219
-0.00194584
0.0206872
-0.00172553
0.0207112
-0.00149904
0.0207074
-0.00126727
0.0206998
-0.00103264
0.0207292
-0.000793381
0.0207146
-0.000551246
0.0207315
-0.000305549
0.0207358
-5.42671e-05
0.0207276
0.000198738
0.0207497
0.000456656
0.0207422
0.000719175
0.0207417
0.000985834
0.0207497