/*--------------------------------*- C++ -*----------------------------------*\
| =========                 |                                                 |
| \\      /  F ield         | OpenFOAM: The Open Source CFD Toolbox           |
|  \\    /   O peration     | Version:  2312                                  |
|   \\  /    A nd           | Website:  www.openfoam.com                      |
|    \\/     M anipulation  |                                                 |
\*---------------------------------------------------------------------------*/
FoamFile
{
    version     2.0;
    format      ascii;
    arch        "LSB;label=32;scalar=64";
    class       volVectorField;
    location    "78.135136877630373";
    object      U;
}
// * * * * * * * * * * * * * * * * * * * * * * * * * * * * * * * * * * * * * //

dimensions      [0 1 -1 0 0 0 0];

internalField   nonuniform List<vector> 
21039
(
(0.913725 0.0473974 0)
(1.02609 0.066498 0)
(1.00449 0.02956 0)
(1.00176 0.0189417 0)
(1.0012 0.0139446 0)
(1.00079 0.0105759 0)
(1.00055 0.00826007 0)
(1.0004 0.00662842 0)
(1.0003 0.00543013 0)
(1.00023 0.00452131 0)
(1.00018 0.0038165 0)
(1.00014 0.00326069 0)
(1.00011 0.00281689 0)
(1.00009 0.00245948 0)
(1.00007 0.00217032 0)
(1.00006 0.00193626 0)
(1.00005 0.00174753 0)
(1.00004 0.00159676 0)
(1.00003 0.00147821 0)
(1.00002 0.00138722 0)
(1.00001 0.00131982 0)
(1.00001 0.00127386 0)
(1 0.00125061 0)
(1 0.00123051 0)
(1 0.00121662 0)
(1 0.00120605 0)
(1.00001 0.00119481 0)
(1.00001 0.00117362 0)
(1.00001 0.00112239 0)
(0.794431 0.0730454 0)
(1.07451 0.121759 0)
(1.03987 0.0710019 0)
(1.01807 0.0498464 0)
(1.01125 0.0384634 0)
(1.00761 0.0297141 0)
(1.00535 0.0234484 0)
(1.00392 0.0189065 0)
(1.00296 0.0154873 0)
(1.00229 0.0128495 0)
(1.00181 0.0107764 0)
(1.00144 0.00912134 0)
(1.00116 0.00778355 0)
(1.00094 0.00669251 0)
(1.00077 0.00579785 0)
(1.00062 0.00506285 0)
(1.0005 0.00446034 0)
(1.0004 0.00396988 0)
(1.00031 0.00357581 0)
(1.00024 0.00326581 0)
(1.00017 0.00302956 0)
(1.00011 0.00286032 0)
(1.00007 0.00276115 0)
(1.00004 0.00269745 0)
(1.00003 0.00266961 0)
(1.00003 0.00266102 0)
(1.00004 0.00265873 0)
(1.00005 0.00264523 0)
(1.00006 0.00259395 0)
(0.667122 0.0572997 0)
(1.08293 0.12494 0)
(1.08429 0.090531 0)
(1.0462 0.0679161 0)
(1.02897 0.0544519 0)
(1.02015 0.0435456 0)
(1.01459 0.0352957 0)
(1.01089 0.0289751 0)
(1.00833 0.0240099 0)
(1.0065 0.0200685 0)
(1.00516 0.0169053 0)
(1.00416 0.0143377 0)
(1.00338 0.0122345 0)
(1.00277 0.0105 0)
(1.00227 0.00906414 0)
(1.00186 0.00787462 0)
(1.00152 0.00689223 0)
(1.00123 0.00608719 0)
(1.00097 0.00543664 0)
(1.00075 0.00492276 0)
(1.00055 0.00453082 0)
(1.00038 0.00424987 0)
(1.00023 0.00408424 0)
(1.00013 0.00399085 0)
(1.00007 0.00396118 0)
(1.00005 0.00396306 0)
(1.00005 0.0039751 0)
(1.00006 0.00397523 0)
(1.00008 0.00393483 0)
(0.540703 0.035294 0)
(1.05048 0.110994 0)
(1.11574 0.0973222 0)
(1.07595 0.0766277 0)
(1.04905 0.0625321 0)
(1.03507 0.0514983 0)
(1.02621 0.0429053 0)
(1.02003 0.0359648 0)
(1.0156 0.0302728 0)
(1.01235 0.025604 0)
(1.00992 0.021754 0)
(1.00806 0.0185588 0)
(1.0066 0.0158939 0)
(1.00544 0.0136638 0)
(1.0045 0.0117952 0)
(1.00371 0.0102316 0)
(1.00305 0.00892974 0)
(1.00247 0.007856 0)
(1.00197 0.00698435 0)
(1.00153 0.00629446 0)
(1.00113 0.00576964 0)
(1.00078 0.00539629 0)
(1.00046 0.00517974 0)
(1.00024 0.0050707 0)
(1.0001 0.00504889 0)
(1.00003 0.005068 0)
(1.00001 0.00509962 0)
(1.00002 0.00511805 0)
(1.00003 0.0050908 0)
(0.443732 0.0186931 0)
(0.997219 0.0920485 0)
(1.12867 0.0960073 0)
(1.10116 0.0799105 0)
(1.06792 0.0659428 0)
(1.04942 0.0553563 0)
(1.0379 0.0470728 0)
(1.02967 0.040147 0)
(1.02356 0.0342882 0)
(1.01896 0.0293474 0)
(1.01543 0.0251661 0)
(1.01268 0.0216162 0)
(1.01048 0.0185976 0)
(1.00871 0.0160296 0)
(1.00724 0.0138478 0)
(1.00601 0.012001 0)
(1.00496 0.0104488 0)
(1.00405 0.00915921 0)
(1.00324 0.00810718 0)
(1.00251 0.00727294 0)
(1.00186 0.00664038 0)
(1.00126 0.00619533 0)
(1.00073 0.00594467 0)
(1.00033 0.00583439 0)
(1.00008 0.00583144 0)
(0.999945 0.00587706 0)
(0.999893 0.00593684 0)
(0.999895 0.00598141 0)
(0.999898 0.0059719 0)
(0.378057 0.00812597 0)
(0.938919 0.0720126 0)
(1.12642 0.0886641 0)
(1.12039 0.0791175 0)
(1.08504 0.0664597 0)
(1.06254 0.0565762 0)
(1.04875 0.0488259 0)
(1.03891 0.0422017 0)
(1.03146 0.0364679 0)
(1.02572 0.0315208 0)
(1.02122 0.02724 0)
(1.01763 0.0235315 0)
(1.01473 0.0203203 0)
(1.01234 0.0175441 0)
(1.01034 0.0151519 0)
(1.00864 0.0131024 0)
(1.00716 0.0113624 0)
(1.00587 0.00990544 0)
(1.00471 0.00871035 0)
(1.00365 0.00776059 0)
(1.00269 0.00704291 0)
(1.00181 0.00654466 0)
(1.00101 0.00627542 0)
(1.0004 0.00617773 0)
(1.00001 0.00620524 0)
(0.999784 0.00628772 0)
(0.999689 0.00638534 0)
(0.99967 0.00646495 0)
(0.999657 0.00647925 0)
(0.332733 0.00235575 0)
(0.882382 0.0539836 0)
(1.11322 0.0781889 0)
(1.13324 0.0752985 0)
(1.10026 0.064859 0)
(1.07462 0.0558939 0)
(1.05873 0.048799 0)
(1.04757 0.042642 0)
(1.03905 0.0371977 0)
(1.03236 0.0323946 0)
(1.02703 0.0281526 0)
(1.02271 0.0244092 0)
(1.01916 0.0211127 0)
(1.01619 0.0182188 0)
(1.01367 0.0156907 0)
(1.0115 0.0134987 0)
(1.00958 0.0116185 0)
(1.00788 0.0100308 0)
(1.00634 0.00872073 0)
(1.00492 0.00767677 0)
(1.00361 0.00689029 0)
(1.00239 0.00635204 0)
(1.00128 0.00607557 0)
(1.00042 0.0060011 0)
(0.999856 0.00606876 0)
(0.999523 0.00619738 0)
(0.999368 0.0063421 0)
(0.999316 0.00646575 0)
(0.999274 0.00651077 0)
(0.300349 -0.000173102 0)
(0.83045 0.0396823 0)
(1.09277 0.0672222 0)
(1.13972 0.0698086 0)
(1.11306 0.061905 0)
(1.08564 0.053933 0)
(1.06791 0.04749 0)
(1.05563 0.0418534 0)
(1.04624 0.0367754 0)
(1.03879 0.0321972 0)
(1.03276 0.0280727 0)
(1.02781 0.0243674 0)
(1.02368 0.0210506 0)
(1.02018 0.0180951 0)
(1.01717 0.0154781 0)
(1.01453 0.0131814 0)
(1.01218 0.0111903 0)
(1.01005 0.00949394 0)
(1.00811 0.00808449 0)
(1.0063 0.00695688 0)
(1.00461 0.00610847 0)
(1.00301 0.00553497 0)
(1.00154 0.0052552 0)
(1.00038 0.0052086 0)
(0.999609 0.00532213 0)
(0.999141 0.00550389 0)
(0.998904 0.00570397 0)
(0.998799 0.00588066 0)
(0.998711 0.00596425 0)
(0.277314 -0.000970283 0)
(0.784647 0.0291495 0)
(1.06838 0.0571339 0)
(1.14069 0.0636955 0)
(1.12318 0.0582707 0)
(1.09551 0.0512726 0)
(1.07629 0.0453781 0)
(1.06307 0.0402042 0)
(1.05301 0.0354824 0)
(1.04494 0.0311446 0)
(1.03835 0.0271649 0)
(1.03286 0.0235285 0)
(1.02823 0.0202214 0)
(1.02425 0.017231 0)
(1.02078 0.0145472 0)
(1.01769 0.0121623 0)
(1.01492 0.0100715 0)
(1.01237 0.00827237 0)
(1.01001 0.00676479 0)
(1.00778 0.00555102 0)
(1.00567 0.00463552 0)
(1.00366 0.00402043 0)
(1.00178 0.00373121 0)
(1.00028 0.00370872 0)
(0.999258 0.00386782 0)
(0.998622 0.00410549 0)
(0.998273 0.0043665 0)
(0.99809 0.004604 0)
(0.997932 0.00473452 0)
(0.260845 -0.00101961 0)
(0.745366 0.0216806 0)
(1.0426 0.0483509 0)
(1.13748 0.0575322 0)
(1.13077 0.0543478 0)
(1.10429 0.0482845 0)
(1.08398 0.0428235 0)
(1.06995 0.0380057 0)
(1.05935 0.0335747 0)
(1.05082 0.0294434 0)
(1.04377 0.0255928 0)
(1.03785 0.0220199 0)
(1.03279 0.0187219 0)
(1.02838 0.0156971 0)
(1.02449 0.0129456 0)
(1.021 0.0104694 0)
(1.0178 0.00827213 0)
(1.01484 0.00635965 0)
(1.01204 0.00474004 0)
(1.00938 0.00342356 0)
(1.00682 0.00242258 0)
(1.00435 0.00174628 0)
(1.00201 0.00142791 0)
(1.00012 0.00141441 0)
(0.998805 0.00160986 0)
(0.997958 0.00189904 0)
(0.99746 0.00222075 0)
(0.997159 0.00252366 0)
(0.996898 0.00271084 0)
(0.248623 -0.000807742 0)
(0.712112 0.0164884 0)
(1.01708 0.0409045 0)
(1.13136 0.0516146 0)
(1.13618 0.0503317 0)
(1.11211 0.0451508 0)
(1.09115 0.0400369 0)
(1.07642 0.0354702 0)
(1.06537 0.0312479 0)
(1.05648 0.0272653 0)
(1.04907 0.0235029 0)
(1.04279 0.0199631 0)
(1.03737 0.0166504 0)
(1.0326 0.0135706 0)
(1.02833 0.0107315 0)
(1.02445 0.00814266 0)
(1.02086 0.00581545 0)
(1.01748 0.0037636 0)
(1.01425 0.00200287 0)
(1.01114 0.000550561 0)
(1.0081 -0.000572899 0)
(1.00513 -0.00134877 0)
(1.00228 -0.00173332 0)
(0.999946 -0.00177038 0)
(0.998277 -0.00156282 0)
(0.997169 -0.00123798 0)
(0.996473 -0.000868143 0)
(0.996012 -0.00050923 0)
(0.995604 -0.000228674 0)
(0.239129 -0.000557359 0)
(0.684041 0.0128883 0)
(0.992735 0.0346793 0)
(1.12332 0.0461001 0)
(1.13976 0.0463403 0)
(1.11909 0.0419674 0)
(1.09795 0.0371385 0)
(1.08262 0.032734 0)
(1.07119 0.0286396 0)
(1.062 0.0247418 0)
(1.05431 0.0210159 0)
(1.04774 0.017466 0)
(1.04202 0.0141004 0)
(1.03693 0.0109301 0)
(1.03233 0.00796851 0)
(1.0281 0.0052311 0)
(1.02413 0.00273585 0)
(1.02034 0.000502139 0)
(1.01669 -0.00144826 0)
(1.01311 -0.00308963 0)
(1.00957 -0.0043915 0)
(1.00607 -0.00532456 0)
(1.00266 -0.00583325 0)
(0.99981 -0.00594819 0)
(0.997728 -0.00577051 0)
(0.996296 -0.00543611 0)
(0.995337 -0.0050254 0)
(0.994651 -0.00461481 0)
(0.994041 -0.00432866 0)
(0.231489 -0.000357919 0)
(0.660314 0.0103435 0)
(0.970034 0.029501 0)
(1.11413 0.041058 0)
(1.14184 0.0424558 0)
(1.12533 0.0387992 0)
(1.10447 0.0342082 0)
(1.08867 0.0298931 0)
(1.0769 0.0258527 0)
(1.06747 0.0219764 0)
(1.05957 0.0182327 0)
(1.05277 0.0146237 0)
(1.0468 0.0111596 0)
(1.04145 0.00785434 0)
(1.03656 0.00472494 0)
(1.032 0.00179119 0)
(1.02768 -0.000925771 0)
(1.02352 -0.00340122 0)
(1.01944 -0.00560517 0)
(1.01539 -0.00750346 0)
(1.01133 -0.00905728 0)
(1.00725 -0.0102275 0)
(1.00323 -0.0109463 0)
(0.999812 -0.0112248 0)
(0.997249 -0.0111509 0)
(0.995412 -0.0108671 0)
(0.994102 -0.0104606 0)
(0.993095 -0.0100191 0)
(0.992194 -0.00970328 0)
(0.225193 -0.000226849 0)
(0.640192 0.00847983 0)
(0.94919 0.0251882 0)
(1.10438 0.0364982 0)
(1.14275 0.0387325 0)
(1.13093 0.0356948 0)
(1.11079 0.0313051 0)
(1.09468 0.0270227 0)
(1.08261 0.0229725 0)
(1.07299 0.0190593 0)
(1.06492 0.0152446 0)
(1.05795 0.0115266 0)
(1.05179 0.00791502 0)
(1.04622 0.00442476 0)
(1.04109 0.0010741 0)
(1.03626 -0.00211617 0)
(1.03163 -0.00512104 0)
(1.0271 -0.00790942 0)
(1.02261 -0.0104446 0)
(1.01809 -0.012685 0)
(1.0135 -0.0145844 0)
(1.00883 -0.0160958 0)
(1.00416 -0.0171414 0)
(1.00013 -0.017709 0)
(0.997015 -0.0178584 0)
(0.994685 -0.0177305 0)
(0.992912 -0.0174147 0)
(0.991464 -0.0170093 0)
(0.990148 -0.0166973 0)
(0.219916 -0.00015433 0)
(0.623055 0.00706583 0)
(0.93024 0.0216064 0)
(1.09444 0.0324279 0)
(1.14273 0.0352194 0)
(1.13594 0.0326918 0)
(1.11693 0.0284687 0)
(1.10066 0.0241767 0)
(1.08835 0.0200654 0)
(1.07858 0.0160645 0)
(1.07039 0.0121303 0)
(1.0633 0.0082558 0)
(1.057 0.00444826 0)
(1.05127 0.000720994 0)
(1.04594 -0.00290897 0)
(1.04088 -0.00641976 0)
(1.03598 -0.00978267 0)
(1.03113 -0.0129619 0)
(1.02625 -0.015915 0)
(1.02128 -0.0185933 0)
(1.01615 -0.0209438 0)
(1.01088 -0.0229137 0)
(1.00557 -0.0244217 0)
(1.00092 -0.0254414 0)
(0.997264 -0.0259961 0)
(0.994406 -0.0262115 0)
(0.992084 -0.0261606 0)
(0.990062 -0.0259346 0)
(0.988186 -0.025717 0)
(0.215802 -0.000108995 0)
(0.609451 0.00604616 0)
(0.914401 0.018833 0)
(1.08545 0.0290785 0)
(1.1422 0.0321995 0)
(1.1402 0.0300629 0)
(1.12255 0.0259718 0)
(1.10629 0.0216482 0)
(1.09381 0.01745 0)
(1.08394 0.0133353 0)
(1.07569 0.00925643 0)
(1.06854 0.00520006 0)
(1.06217 0.00116866 0)
(1.05635 -0.00282822 0)
(1.05091 -0.00677594 0)
(1.04571 -0.0106531 0)
(1.04061 -0.0144299 0)
(1.03551 -0.0180687 0)
(1.03031 -0.021523 0)
(1.02494 -0.0247366 0)
(1.01934 -0.0276465 0)
(1.01351 -0.0301904 0)
(1.00761 -0.0322789 0)
(1.00244 -0.0338759 0)
(0.998339 -0.0349902 0)
(0.99504 -0.0357538 0)
(0.992185 -0.0362123 0)
(0.98949 -0.0364031 0)
(0.986839 -0.0364479 0)
(0.212793 -8.39507e-05 0)
(0.599466 0.00534991 0)
(0.902307 0.0168433 0)
(1.07815 0.0265647 0)
(1.14147 0.0298675 0)
(1.14353 0.0280109 0)
(1.12721 0.0240146 0)
(1.11107 0.0196532 0)
(1.0985 0.0153697 0)
(1.08858 0.0111461 0)
(1.08032 0.00693012 0)
(1.07317 0.00270108 0)
(1.06679 -0.00154362 0)
(1.06095 -0.00579943 0)
(1.05548 -0.0100556 0)
(1.05021 -0.0142934 0)
(1.04501 -0.0184862 0)
(1.03976 -0.022598 0)
(1.03435 -0.026582 0)
(1.0287 -0.0303776 0)
(1.02273 -0.0339119 0)
(1.01646 -0.0371075 0)
(1.01007 -0.0398467 0)
(1.00449 -0.0420533 0)
(1.00013 -0.0437378 0)
(0.996658 -0.0451163 0)
(0.993599 -0.046317 0)
(0.990555 -0.0473634 0)
(0.987391 -0.0481108 0)
(0.210476 -4.29383e-05 0)
(0.591815 0.00487484 0)
(0.892767 0.0154002 0)
(1.07208 0.0246657 0)
(1.14063 0.0280676 0)
(1.14616 0.0264214 0)
(1.1311 0.0225053 0)
(1.11514 0.0181186 0)
(1.10251 0.0137681 0)
(1.09257 0.00945481 0)
(1.08433 0.00512228 0)
(1.0772 0.000743692 0)
(1.07085 -0.00368885 0)
(1.06504 -0.00817578 0)
(1.05958 -0.0127112 0)
(1.0543 -0.0172818 0)
(1.04907 -0.0218669 0)
(1.04376 -0.0264361 0)
(1.03824 -0.0309469 0)
(1.03241 -0.03534 0)
(1.02619 -0.0395381 0)
(1.01957 -0.0434519 0)
(1.01276 -0.0469208 0)
(1.00681 -0.0497504 0)
(1.00222 -0.0518685 0)
(0.998735 -0.0535605 0)
(0.995948 -0.0551952 0)
(0.993532 -0.057141 0)
(0.990894 -0.0588634 0)
(0.209013 -5.49236e-05 0)
(0.586553 0.00450534 0)
(0.885984 0.0143723 0)
(1.0677 0.0233248 0)
(1.14007 0.0267805 0)
(1.14825 0.0252434 0)
(1.13422 0.0213499 0)
(1.11845 0.016933 0)
(1.10583 0.0125342 0)
(1.0959 0.00815351 0)
(1.0877 0.00372654 0)
(1.08063 -0.000777733 0)
(1.07434 -0.00537096 0)
(1.0686 -0.0100585 0)
(1.06319 -0.01484 0)
(1.05797 -0.0197094 0)
(1.05278 -0.0246541 0)
(1.04748 -0.0296525 0)
(1.04194 -0.0346708 0)
(1.03606 -0.0396582 0)
(1.02973 -0.0445445 0)
(1.02297 -0.0492497 0)
(1.01597 -0.0536029 0)
(1.00984 -0.0572609 0)
(1.00509 -0.0599358 0)
(1.00155 -0.0617001 0)
(0.998927 -0.0626019 0)
(0.997201 -0.063338 0)
(0.99725 -0.0677243 0)
(1.00001 0.00113451 0)
(1.00001 0.00113903 0)
(1.00001 0.0011387 0)
(1.00001 0.00113918 1.03293e-21)
(1.00001 0.00114153 5.14721e-21)
(1.00001 0.00114558 -9.25853e-21)
(1 0.00115115 5.1401e-21)
(1 0.00115814 -4.0907e-21)
(1 0.00116639 5.24993e-22)
(1 0.00117592 4.08634e-21)
(1 0.00118655 0)
(0.999999 0.00119826 -4.56076e-21)
(0.999998 0.00121094 5.20467e-22)
(0.999996 0.00122446 4.04653e-21)
(0.999995 0.0012388 0)
(0.999994 0.0012538 0)
(0.999993 0.00126939 -3.99847e-21)
(0.999992 0.00128546 4.00099e-21)
(0.999991 0.00130186 0)
(0.99999 0.00131855 -1.98051e-21)
(0.999989 0.00133538 2.105e-21)
(0.999989 0.00135223 1.84377e-21)
(0.999988 0.00136903 -2.94754e-21)
(0.999987 0.00138563 9.49593e-22)
(0.999987 0.00140192 3.03929e-23)
(0.999986 0.00141783 -6.07381e-23)
(0.999986 0.00143322 8.43904e-22)
(0.999986 0.00144798 -9.64685e-22)
(0.999985 0.00146205 0)
(0.999985 0.00147528 0)
(0.999985 0.00148765 -2.37554e-22)
(0.999986 0.00149895 -2.36424e-22)
(0.999986 0.0015091 -3.99058e-21)
(0.999986 0.00151819 3.28443e-21)
(0.999987 0.00152605 -4.18316e-21)
(0.999987 0.00153266 4.17751e-21)
(0.999988 0.00153796 -3.21766e-21)
(0.999989 0.00154187 3.21663e-21)
(0.99999 0.00154439 4.55912e-22)
(0.999991 0.00154541 4.53421e-22)
(0.999992 0.00154494 -4.509e-22)
(0.999993 0.00154292 0)
(0.999995 0.00153928 0)
(0.999996 0.00153408 0)
(0.999998 0.00152726 0)
(1 0.00151885 0)
(1 0.00150872 1.739e-21)
(1 0.00149634 -1.73599e-21)
(1.00001 0.00147775 0)
(1.00005 0.00261304 0)
(1.00004 0.00262415 2.08608e-21)
(1.00003 0.00263239 -2.07706e-21)
(1.00001 0.00264417 -1.03597e-21)
(0.999998 0.0026606 -1.03594e-21)
(0.999985 0.0026811 -3.09501e-21)
(0.999973 0.00270533 5.1671e-21)
(0.999961 0.00273332 0)
(0.99995 0.00276449 -5.13449e-22)
(0.99994 0.00279896 -1.02542e-21)
(0.99993 0.00283627 0)
(0.99992 0.00287624 5.0971e-22)
(0.999912 0.00291878 -4.56913e-21)
(0.999904 0.00296336 4.06433e-21)
(0.999896 0.00300998 0)
(0.999889 0.00305824 1.00951e-21)
(0.999883 0.00310785 0)
(0.999878 0.00315874 0)
(0.999874 0.00321039 0)
(0.99987 0.00326264 -1.98857e-21)
(0.999867 0.00331529 1.86524e-21)
(0.999865 0.00336793 -1.23917e-22)
(0.999863 0.00342035 0)
(0.999863 0.00347231 -4.59383e-22)
(0.999863 0.00352346 4.82475e-22)
(0.999864 0.00357358 9.13917e-23)
(0.999866 0.00362244 1.21274e-22)
(0.999868 0.00366973 0)
(0.999872 0.00371519 -1.92041e-21)
(0.999876 0.00375862 1.91998e-21)
(0.999881 0.00379977 -3.56793e-21)
(0.999887 0.00383838 7.83066e-21)
(0.999893 0.00387425 -3.55071e-21)
(0.999901 0.00390716 4.69935e-22)
(0.999909 0.00393686 4.67635e-22)
(0.999918 0.00396324 4.65678e-22)
(0.999927 0.00398601 -4.62852e-22)
(0.999937 0.00400499 4.13626e-21)
(0.999948 0.00402012 -3.21396e-21)
(0.99996 0.00403103 -1.36666e-21)
(0.999972 0.00403776 4.97503e-21)
(0.999985 0.00404004 -3.61171e-21)
(0.999998 0.00403768 -1.79155e-21)
(1.00001 0.00403072 3.5548e-21)
(1.00003 0.00401876 -7.08503e-21)
(1.00004 0.00400202 3.52928e-21)
(1.00006 0.00398023 1.7466e-21)
(1.00007 0.00395276 -4.67167e-24)
(1.00009 0.00391511 0)
(1.00006 0.00395571 3.13984e-21)
(1.00002 0.00397535 -1.04829e-21)
(0.999984 0.0039976 -4.17303e-21)
(0.999947 0.00402588 2.07858e-21)
(0.99991 0.00406135 -2.07775e-21)
(0.999875 0.00410324 0)
(0.999842 0.00415111 -2.06482e-21)
(0.99981 0.00420518 -6.1795e-21)
(0.999781 0.00426426 6.17964e-21)
(0.999753 0.00432874 1.02491e-21)
(0.999727 0.00439776 0)
(0.999704 0.00447098 -6.12016e-21)
(0.999682 0.00454843 1.39329e-23)
(0.999662 0.00462902 4.06766e-21)
(0.999645 0.0047129 0)
(0.999629 0.00479938 -1.00838e-21)
(0.999616 0.00488788 -1.0079e-21)
(0.999605 0.00497854 0)
(0.999596 0.00507026 -1.00143e-21)
(0.999589 0.00516285 -1.98934e-21)
(0.999584 0.00525611 1.98994e-21)
(0.999582 0.00534919 -2.4834e-22)
(0.999582 0.00544185 -2.4684e-22)
(0.999585 0.00553377 0)
(0.999589 0.00562426 3.81479e-23)
(0.999596 0.00571299 -2.13325e-22)
(0.999605 0.00579968 0)
(0.999616 0.0058837 0)
(0.999629 0.00596469 -1.91987e-21)
(0.999645 0.00604238 1.91951e-21)
(0.999662 0.00611624 -3.8047e-21)
(0.999682 0.0061859 3.80344e-21)
(0.999704 0.0062511 0)
(0.999728 0.00631134 0)
(0.999753 0.00636632 0)
(0.999781 0.00641581 -9.29749e-22)
(0.99981 0.00645926 -1.85119e-21)
(0.999841 0.0064965 0)
(0.999874 0.00652729 -9.15155e-22)
(0.999909 0.00655107 -9.01831e-22)
(0.999945 0.0065679 2.72419e-21)
(0.999983 0.00657724 0)
(1.00002 0.00657883 3.5731e-21)
(1.00006 0.00657269 -5.3468e-21)
(1.00011 0.00655806 0)
(1.00015 0.0065353 0)
(1.0002 0.00650371 0)
(1.00024 0.00646264 -1.73958e-21)
(1.00029 0.00640879 -1.72673e-21)
(0.99999 0.00511516 -2.09714e-21)
(0.999926 0.00514932 4.19708e-21)
(0.999854 0.00519257 4.18731e-21)
(0.999782 0.00524405 6.25412e-21)
(0.999712 0.00530527 -2.08999e-21)
(0.999645 0.00537538 -4.14609e-21)
(0.999582 0.00545386 8.28765e-21)
(0.999522 0.0055412 -5.12319e-24)
(0.999466 0.00563541 -2.05908e-21)
(0.999414 0.00573735 2.06107e-21)
(0.999366 0.00584555 0)
(0.999322 0.00595962 2.04316e-21)
(0.999282 0.00607972 -2.02882e-21)
(0.999246 0.00620402 8.1397e-21)
(0.999214 0.006333 -8.11539e-21)
(0.999187 0.00646552 6.08006e-21)
(0.999164 0.00660074 -1.01448e-21)
(0.999145 0.0067391 1.00722e-21)
(0.999131 0.00687871 1.00015e-21)
(0.999122 0.00701945 -1.00046e-21)
(0.999116 0.00716114 0)
(0.999115 0.00730237 -1.48339e-21)
(0.999119 0.00744293 1.23972e-21)
(0.999127 0.0075824 9.85437e-22)
(0.999139 0.00771967 4.5879e-23)
(0.999156 0.00785437 9.1223e-23)
(0.999177 0.00798617 1.4557e-21)
(0.999202 0.00811402 -9.69092e-22)
(0.999232 0.0082375 1.92107e-21)
(0.999266 0.00835631 -1.92076e-21)
(0.999304 0.00846954 0)
(0.999346 0.00857678 4.73802e-21)
(0.999392 0.00867766 -3.78637e-21)
(0.999441 0.0087714 3.74956e-21)
(0.999495 0.00885769 -3.74819e-21)
(0.999552 0.00893614 0)
(0.999613 0.00900597 3.68867e-21)
(0.999677 0.00906698 -1.84781e-21)
(0.999745 0.0091188 0)
(0.999816 0.00916067 3.6313e-21)
(0.99989 0.00919267 -3.62716e-21)
(0.999968 0.00921401 1.79862e-21)
(1.00005 0.00922437 1.78901e-21)
(1.00013 0.00922377 5.33246e-21)
(1.00022 0.00921112 6.61076e-24)
(1.00031 0.00918694 3.52234e-21)
(1.0004 0.00915006 1.74229e-21)
(1.0005 0.00909978 1.72852e-21)
(1.0006 0.00903428 1.72724e-21)
(0.999832 0.00600368 0)
(0.999729 0.00606056 -4.20106e-21)
(0.999615 0.00613388 -4.18919e-21)
(0.999499 0.00621755 0)
(0.999385 0.00631366 -4.17314e-21)
(0.999276 0.00642122 1.25048e-23)
(0.999172 0.00653971 8.34009e-21)
(0.999075 0.00666996 -2.08861e-21)
(0.998984 0.006809 -1.29433e-23)
(0.998899 0.00695834 -6.19653e-21)
(0.998822 0.00711578 0)
(0.998751 0.00728088 -6.16208e-21)
(0.998687 0.00745401 2.05948e-21)
(0.99863 0.00763243 0)
(0.99858 0.00781708 -2.04229e-21)
(0.998537 0.00800626 1.05938e-23)
(0.998502 0.00819885 -2.02076e-21)
(0.998474 0.00839569 7.06011e-21)
(0.998453 0.00859388 -1.52781e-23)
(0.99844 0.0087935 -1.01514e-21)
(0.998434 0.00899437 -9.98721e-22)
(0.998436 0.00919441 1.9836e-21)
(0.998445 0.0093935 -1.98388e-21)
(0.998461 0.00959109 -2.44791e-22)
(0.998484 0.0097856 5.07226e-22)
(0.998515 0.00997663 -2.73339e-22)
(0.998553 0.0101638 9.72972e-22)
(0.998598 0.0103455 -9.70926e-22)
(0.99865 0.0105215 9.66212e-22)
(0.998709 0.0106911 1.91483e-21)
(0.998775 0.0108533 -5.7247e-21)
(0.998848 0.0110076 -9.3077e-22)
(0.998927 0.0111533 5.68362e-21)
(0.999012 0.0112896 1.88299e-21)
(0.999104 0.011416 -3.73218e-21)
(0.999202 0.011532 3.72995e-21)
(0.999306 0.0116366 9.66442e-24)
(0.999416 0.0117295 5.52077e-21)
(0.999531 0.0118104 -3.6785e-21)
(0.999652 0.0118781 -9.10419e-21)
(0.999779 0.0119329 3.61663e-21)
(0.99991 0.0119737 1.79692e-21)
(1.00005 0.0120001 7.13756e-21)
(1.00019 0.0120122 -3.5628e-21)
(1.00034 0.0120085 -1.0849e-23)
(1.00049 0.0119899 -1.19364e-23)
(1.00065 0.0119546 0)
(1.00081 0.0119021 -3.46909e-21)
(1.00098 0.0118325 -3.43874e-21)
(0.999556 0.00652364 0)
(0.999407 0.00661351 -6.35804e-21)
(0.99924 0.00672804 6.34607e-21)
(0.999068 0.00685502 0)
(0.998899 0.00699742 0)
(0.998736 0.00715406 -4.18762e-21)
(0.998581 0.00732442 -3.27359e-24)
(0.998435 0.0075098 -4.18461e-21)
(0.9983 0.00770605 -8.74918e-24)
(0.998173 0.00791553 0)
(0.998058 0.00813511 0)
(0.997952 0.0083644 2.05946e-21)
(0.997857 0.00860399 0)
(0.997773 0.00885004 0)
(0.997699 0.00910413 -2.04554e-21)
(0.997637 0.0093638 4.10116e-21)
(0.997585 0.00962772 2.04117e-21)
(0.997545 0.00989715 0)
(0.997516 0.010168 2.0039e-21)
(0.997498 0.0104407 -5.04061e-21)
(0.997491 0.0107149 -2.00442e-21)
(0.997496 0.0109879 -1.99162e-21)
(0.997512 0.0112596 1.99181e-21)
(0.997539 0.0115293 1.42728e-24)
(0.997577 0.011795 1.54415e-23)
(0.997626 0.0120562 2.44646e-22)
(0.997686 0.0123123 -4.89229e-22)
(0.997757 0.0125615 0)
(0.997838 0.0128031 -9.6474e-22)
(0.99793 0.0130368 0)
(0.998032 0.0132608 0)
(0.998145 0.0134746 -1.90768e-21)
(0.998267 0.0136777 -7.56526e-21)
(0.998399 0.0138685 2.53075e-23)
(0.998541 0.0140468 1.87969e-21)
(0.998692 0.0142118 0)
(0.998851 0.0143624 -1.84924e-21)
(0.99902 0.0144982 -3.68412e-21)
(0.999197 0.0146187 3.65584e-21)
(0.999383 0.0147226 7.2735e-21)
(0.999576 0.0148102 -7.22801e-21)
(0.999778 0.0148801 -1.75176e-25)
(0.999987 0.0149321 -3.57056e-21)
(1.0002 0.0149661 -3.28818e-24)
(1.00043 0.0149804 0)
(1.00066 0.0149761 -3.50403e-21)
(1.0009 0.014951 -1.73443e-21)
(1.00115 0.0149046 1.73316e-21)
(1.00141 0.0148399 3.43922e-21)
(0.999129 0.00657447 0)
(0.998922 0.00671 4.25035e-21)
(0.998689 0.006879 -1.27707e-20)
(0.998449 0.00706267 0)
(0.998211 0.0072652 0)
(0.997981 0.00748515 -8.46072e-21)
(0.997763 0.00772203 8.42315e-21)
(0.997556 0.00797768 -4.22187e-21)
(0.997363 0.00824658 -8.79418e-24)
(0.997184 0.00853212 4.18893e-21)
(0.99702 0.0088301 0)
(0.99687 0.00914017 0)
(0.996736 0.00946319 4.16579e-21)
(0.996617 0.00979403 0)
(0.996513 0.010135 0)
(0.996424 0.0104829 -4.10922e-21)
(0.996352 0.010836 1.66737e-23)
(0.996296 0.0111961 0)
(0.996255 0.0115577 2.0243e-21)
(0.996231 0.0119216 5.06013e-21)
(0.996223 0.0122876 -2.02718e-21)
(0.996231 0.0126517 0)
(0.996256 0.0130143 -9.96816e-22)
(0.996296 0.0133744 1.24507e-21)
(0.996352 0.0137293 -5.42582e-22)
(0.996424 0.0140785 -2.47178e-22)
(0.996512 0.0144214 4.86056e-22)
(0.996615 0.0147555 -9.77751e-22)
(0.996734 0.0150802 0)
(0.996867 0.0153949 -3.861e-21)
(0.997015 0.0156974 5.75323e-21)
(0.997178 0.0159872 1.88426e-21)
(0.997355 0.0162635 -9.6052e-24)
(0.997546 0.0165245 1.87923e-21)
(0.997751 0.0167699 -1.88918e-21)
(0.997968 0.0169987 -3.71776e-21)
(0.998199 0.0172095 7.41016e-21)
(0.998442 0.017402 -3.68625e-21)
(0.998696 0.0175754 7.33053e-21)
(0.998963 0.0177284 3.60204e-24)
(0.999241 0.0178612 7.22412e-21)
(0.999529 0.0179722 -3.58768e-21)
(0.999829 0.0180611 0)
(1.00014 0.0181281 -3.85879e-24)
(1.00046 0.0181709 7.02897e-21)
(1.00079 0.018191 0)
(1.00113 0.0181856 0)
(1.00149 0.0181547 6.02051e-21)
(1.00186 0.0181051 8.58091e-22)
(0.998508 0.0060559 1.07606e-21)
(0.99823 0.0062521 7.564e-21)
(0.997918 0.00649069 8.54391e-21)
(0.997594 0.00674647 -8.60606e-21)
(0.997272 0.00702538 0)
(0.996959 0.00732551 -1.22435e-23)
(0.996661 0.00764642 -4.29272e-21)
(0.996378 0.00799057 -4.2764e-21)
(0.996114 0.00835085 1.27225e-20)
(0.995869 0.0087319 -4.22677e-21)
(0.995643 0.00912819 0)
(0.995437 0.00953951 8.41189e-21)
(0.995252 0.00996699 -8.355e-21)
(0.995088 0.010404 2.9779e-23)
(0.994945 0.0108538 8.31321e-21)
(0.994824 0.011312 -2.08787e-21)
(0.994724 0.0117768 -2.02481e-21)
(0.994647 0.0122503 4.11884e-21)
(0.994591 0.0127257 0)
(0.994558 0.013204 -2.03038e-21)
(0.994547 0.0136849 2.03084e-21)
(0.994558 0.0141635 2.0164e-21)
(0.994592 0.0146403 -2.01634e-21)
(0.994648 0.0151141 2.51389e-22)
(0.994726 0.0155813 3.10097e-23)
(0.994827 0.0160416 7.41012e-22)
(0.994948 0.0164941 -2.95912e-24)
(0.995091 0.0169356 0)
(0.995256 0.0173656 0)
(0.995441 0.017783 -1.20764e-25)
(0.995647 0.0181854 -1.91046e-21)
(0.995873 0.0185721 3.84218e-21)
(0.996118 0.018942 -3.80866e-21)
(0.996383 0.0192929 3.77175e-21)
(0.996666 0.0196245 -7.53983e-21)
(0.996966 0.0199357 1.86154e-23)
(0.997285 0.0202246 3.72165e-21)
(0.99762 0.0204909 3.67471e-21)
(0.997971 0.0207337 -7.3438e-21)
(0.998338 0.0209514 -7.28171e-21)
(0.99872 0.0211443 -3.62209e-21)
(0.999116 0.0213107 -3.59575e-21)
(0.999527 0.02145 0)
(0.999951 0.0215626 -3.53467e-21)
(1.00039 0.0216459 -1.35663e-23)
(1.00084 0.0217018 6.95515e-21)
(1.00131 0.0217268 -8.62432e-21)
(1.00179 0.0217212 1.6951e-21)
(1.0023 0.0216978 0)
(0.997651 0.00486568 0)
(0.997286 0.00514019 -8.65645e-21)
(0.996875 0.00546468 0)
(0.996449 0.00580948 8.61852e-21)
(0.996022 0.00618316 4.31457e-21)
(0.995607 0.00658306 -8.61995e-21)
(0.995209 0.00700867 1.28681e-20)
(0.994832 0.00746305 4.26689e-21)
(0.994478 0.00793723 -4.25832e-21)
(0.994149 0.00843735 0)
(0.993845 0.00895628 4.24921e-21)
(0.993568 0.00949397 -8.47156e-21)
(0.993318 0.0100518 4.25506e-21)
(0.993097 0.0106214 -4.19346e-21)
(0.992903 0.0112072 3.39837e-23)
(0.992738 0.0118034 4.19246e-21)
(0.992603 0.012408 -8.34282e-21)
(0.992497 0.0130236 0)
(0.99242 0.0136416 4.1252e-21)
(0.992374 0.0142637 -4.12512e-21)
(0.992357 0.0148889 -1.0191e-21)
(0.992371 0.0155116 0)
(0.992415 0.0161324 1.01981e-21)
(0.992489 0.0167494 2.52071e-22)
(0.992593 0.0173587 -5.34622e-22)
(0.992727 0.0179595 7.4838e-22)
(0.992891 0.0185507 4.91994e-22)
(0.993083 0.0191285 -9.89324e-22)
(0.993304 0.019692 0)
(0.993553 0.0202401 -1.9432e-21)
(0.99383 0.0207696 3.88627e-21)
(0.994134 0.0212797 0)
(0.994464 0.0217689 1.90629e-21)
(0.99482 0.0222347 0)
(0.995201 0.0226765 3.76292e-21)
(0.995605 0.0230931 -7.48898e-21)
(0.996033 0.0234822 3.70379e-21)
(0.996483 0.0238431 -2.56546e-23)
(0.996954 0.0241753 3.6329e-21)
(0.997445 0.0244763 -3.64922e-21)
(0.997955 0.024747 3.60718e-21)
(0.998485 0.0249852 7.15977e-21)
(0.999031 0.0251901 0)
(0.999596 0.0253626 0)
(1.00018 0.0254994 -7.00594e-21)
(1.00077 0.0256031 -1.38795e-20)
(1.00139 0.0256691 1.37688e-20)
(1.00203 0.0256988 -7.69926e-21)
(1.00271 0.0257123 7.60943e-21)
(0.996517 0.00289563 0)
(0.996045 0.00326602 8.85625e-21)
(0.995511 0.00369282 8.83181e-21)
(0.994956 0.00414536 1.32075e-20)
(0.9944 0.00463516 -1.31864e-20)
(0.993856 0.00515743 -4.36169e-21)
(0.993333 0.00571153 1.31394e-20)
(0.992835 0.00630139 -4.33969e-21)
(0.992368 0.0069161 4.34214e-21)
(0.991931 0.0075634 0)
(0.991528 0.00823428 8.68317e-21)
(0.991159 0.00892886 0)
(0.990826 0.00964866 -4.25596e-21)
(0.990528 0.0103835 -4.29985e-21)
(0.990268 0.0111389 5.66089e-23)
(0.990046 0.0119078 0)
(0.989862 0.0126874 4.23248e-21)
(0.989717 0.0134812 8.43773e-21)
(0.989611 0.0142785 0)
(0.989545 0.0150814 2.076e-21)
(0.989519 0.0158887 -2.07532e-21)
(0.989533 0.0166934 -2.05453e-21)
(0.989587 0.0174961 2.06621e-21)
(0.989681 0.0182946 -4.56669e-24)
(0.989816 0.019084 -5.0787e-22)
(0.98999 0.0198632 -2.23287e-22)
(0.990204 0.0206307 -5.01757e-22)
(0.990456 0.0213819 9.99346e-22)
(0.990748 0.0221155 0)
(0.991076 0.02283 1.95554e-21)
(0.991442 0.0235216 -3.89566e-21)
(0.991843 0.0241889 0)
(0.99228 0.0248303 0)
(0.99275 0.0254426 3.79812e-21)
(0.993253 0.0260246 -7.5689e-21)
(0.993787 0.0265753 3.77449e-21)
(0.994352 0.0270917 3.73885e-21)
(0.994945 0.0275729 0)
(0.995565 0.0280182 1.09908e-20)
(0.996212 0.0284247 -7.27377e-21)
(0.996882 0.0287937 -3.59475e-21)
(0.997576 0.0291223 -8.7804e-25)
(0.998292 0.0294098 -7.09069e-21)
(0.999028 0.0296575 -7.02171e-21)
(0.999785 0.0298613 -6.9637e-21)
(1.00056 0.0300245 2.58024e-23)
(1.00136 0.0301418 -3.19677e-23)
(1.00219 0.0302154 0)
(1.00306 0.0302755 -1.34675e-20)
(0.995071 5.93373e-05 0)
(0.994442 0.000525327 2.34258e-21)
(0.99375 0.00104625 -1.10797e-20)
(0.993034 0.00162323 -8.84545e-21)
(0.992329 0.00225234 8.82444e-21)
(0.991624 0.00292229 4.50111e-21)
(0.990943 0.00363333 -4.36174e-21)
(0.990292 0.00438974 0)
(0.989677 0.0051779 0)
(0.989103 0.00600705 8.84559e-21)
(0.988569 0.00686608 -8.69083e-21)
(0.988081 0.00775535 4.35646e-21)
(0.987637 0.00867639 -4.35281e-21)
(0.98724 0.00961716 4.3442e-21)
(0.986891 0.0105843 4.34407e-21)
(0.98659 0.0115692 -4.30464e-21)
(0.986341 0.0125686 -4.24917e-21)
(0.986142 0.0135862 -4.22814e-21)
(0.985993 0.0146095 4.22764e-21)
(0.985898 0.015641 -4.22654e-21)
(0.985855 0.0166787 0)
(0.985865 0.0177144 2.1009e-21)
(0.985929 0.0187486 -2.06362e-21)
(0.986046 0.0197781 1.5452e-21)
(0.986215 0.0207973 0)
(0.986439 0.0218043 1.01767e-21)
(0.986714 0.022797 0)
(0.987041 0.0237701 -9.98027e-22)
(0.98742 0.0247215 1.87535e-23)
(0.987848 0.0256488 1.41936e-23)
(0.988325 0.0265477 3.94212e-21)
(0.98885 0.0274161 0)
(0.989421 0.0282517 0)
(0.990037 0.0290505 0)
(0.990696 0.0298109 0)
(0.991395 0.0305317 -7.53172e-21)
(0.992133 0.0312089 3.75043e-21)
(0.992908 0.0318414 0)
(0.993718 0.0324285 -3.67526e-21)
(0.99456 0.0329664 -3.65344e-21)
(0.995432 0.033457 7.20454e-21)