/*--------------------------------*- C++ -*----------------------------------*\
| =========                 |                                                 |
| \\      /  F ield         | OpenFOAM: The Open Source CFD Toolbox           |
|  \\    /   O peration     | Version:  2312                                  |
|   \\  /    A nd           | Website:  www.openfoam.com                      |
|    \\/     M anipulation  |                                                 |
\*---------------------------------------------------------------------------*/
FoamFile
{
    version     2.0;
    format      ascii;
    arch        "LSB;label=32;scalar=64";
    class       volScalarField;
    location    "99.86375514763877";
    object      p;
}
// * * * * * * * * * * * * * * * * * * * * * * * * * * * * * * * * * * * * * //

dimensions      [0 2 -2 0 0 0 0];

internalField   nonuniform List<scalar> 
21039
(
0.606997
0.473085
0.430974
0.402704
0.381365
0.365266
0.352803
0.342874
0.334797
0.328122
0.322532
0.317796
0.313745
0.310246
0.307198
0.304517
0.302137
0.300002
0.298065
0.296285
0.294628
0.293064
0.291564
0.290189
0.288994
0.287938
0.286978
0.28608
0.285228
0.459825
0.421992
0.408182
0.389786
0.373007
0.359702
0.348925
0.340046
0.33267
0.326486
0.321251
0.316782
0.312934
0.309596
0.306675
0.3041
0.301807
0.299746
0.297872
0.296147
0.294536
0.293009
0.291541
0.290186
0.288998
0.287943
0.286984
0.286086
0.285233
0.370415
0.368051
0.370215
0.363449
0.354996
0.34718
0.339898
0.333335
0.327563
0.322523
0.318126
0.314287
0.310926
0.307971
0.30536
0.303038
0.300959
0.29908
0.297363
0.295774
0.294284
0.292863
0.291486
0.290204
0.289067
0.288049
0.287117
0.286242
0.285409
0.332337
0.334458
0.338933
0.337843
0.335215
0.331975
0.328143
0.32419
0.320383
0.316822
0.313554
0.310591
0.307921
0.305523
0.303367
0.301426
0.299669
0.298068
0.296595
0.295223
0.293927
0.292682
0.291464
0.290315
0.289283
0.288346
0.287478
0.286652
0.285856
0.307318
0.311286
0.317185
0.318898
0.319094
0.318349
0.316789
0.314828
0.312687
0.310491
0.308338
0.306286
0.304367
0.302592
0.300963
0.299471
0.298105
0.296847
0.295681
0.294586
0.293544
0.292532
0.291532
0.29057
0.289685
0.288865
0.288087
0.287331
0.286586
0.287684
0.292935
0.300295
0.304168
0.306173
0.306969
0.306879
0.306284
0.305367
0.304253
0.303043
0.30181
0.300598
0.299439
0.298347
0.29733
0.296387
0.295512
0.294695
0.293923
0.29318
0.29245
0.291716
0.290988
0.290289
0.289614
0.288952
0.288285
0.287607
0.274929
0.279944
0.287041
0.291989
0.29521
0.297145
0.29815
0.298572
0.298588
0.298328
0.297897
0.297368
0.296792
0.296206
0.295635
0.295093
0.294587
0.294117
0.293678
0.293264
0.292862
0.292457
0.292036
0.291585
0.291111
0.290613
0.290089
0.289535
0.288945
0.267649
0.27174
0.277476
0.282419
0.286123
0.288702
0.290438
0.291598
0.292331
0.292756
0.29297
0.293045
0.293034
0.292975
0.292897
0.292819
0.292751
0.292699
0.292661
0.292633
0.292606
0.292568
0.292506
0.292379
0.29217
0.291887
0.291534
0.291108
0.29062
0.263143
0.266335
0.270691
0.275167
0.278857
0.281653
0.283766
0.285388
0.286627
0.287574
0.28831
0.288894
0.289376
0.289795
0.290178
0.290546
0.290911
0.291282
0.291659
0.292041
0.292421
0.292788
0.293128
0.293373
0.293474
0.293444
0.293294
0.293023
0.29264
0.25975
0.262196
0.265505
0.269441
0.272931
0.275736
0.278011
0.279895
0.281466
0.282792
0.283932
0.284935
0.285842
0.286687
0.287496
0.288287
0.289076
0.28987
0.290673
0.291483
0.292297
0.293105
0.293895
0.294563
0.295023
0.295286
0.295374
0.29529
0.295045
0.256769
0.258616
0.261173
0.26459
0.267832
0.270576
0.272916
0.274952
0.276744
0.278345
0.279799
0.281144
0.282415
0.283638
0.284837
0.286029
0.287228
0.288442
0.289677
0.290931
0.292203
0.293485
0.29477
0.295913
0.296782
0.297387
0.297755
0.297892
0.297813
0.253881
0.255284
0.257313
0.260258
0.26324
0.265893
0.268248
0.270374
0.272321
0.274129
0.275832
0.277462
0.279045
0.280605
0.282163
0.283733
0.285328
0.286958
0.288627
0.290336
0.292085
0.293868
0.295684
0.297349
0.298678
0.299675
0.300368
0.300765
0.300882
0.25093
0.252023
0.253685
0.256226
0.258958
0.261504
0.263841
0.266016
0.26807
0.270036
0.271941
0.273809
0.275664
0.277526
0.279413
0.28134
0.283318
0.285357
0.28746
0.289629
0.291864
0.294164
0.296534
0.298755
0.300585
0.302019
0.303082
0.30378
0.304128
0.247848
0.248727
0.250128
0.252333
0.254836
0.257268
0.259567
0.261762
0.263889
0.265974
0.26804
0.270109
0.2722
0.274332
0.276523
0.278787
0.281136
0.283576
0.286111
0.28874
0.29146
0.294274
0.297193
0.299967
0.302305
0.304197
0.305661
0.306693
0.307305
0.244619
0.245348
0.246546
0.248456
0.250741
0.253055
0.255306
0.257502
0.259675
0.261847
0.26404
0.266273
0.268567
0.270938
0.273407
0.275989
0.278696
0.281532
0.284497
0.287585
0.290788
0.294097
0.297523
0.300781
0.303555
0.305854
0.3077
0.309077
0.30998
0.241524
0.242145
0.243184
0.244875
0.246985
0.249191
0.251388
0.253574
0.255773
0.258005
0.260291
0.262651
0.265107
0.267676
0.270388
0.273255
0.276291
0.279499
0.282876
0.286406
0.290063
0.293809
0.29762
0.301139
0.30405
0.306432
0.308382
0.309921
0.311039
0.238893
0.239445
0.240387
0.241943
0.243923
0.246034
0.248185
0.250365
0.252586
0.254865
0.257223
0.259684
0.26227
0.265008
0.267926
0.271043
0.274375
0.277926
0.281692
0.285647
0.289742
0.293893
0.297995
0.301536
0.30414
0.305961
0.307257
0.308282
0.309263
0.23671
0.237218
0.238094
0.239552
0.241434
0.243484
0.245619
0.247814
0.250066
0.252392
0.254816
0.257366
0.260071
0.262963
0.266072
0.269424
0.273038
0.276927
0.281084
0.285482
0.290055
0.294674
0.299135
0.302677
0.304677
0.305154
0.304369
0.30283
0.301653
0.234949
0.235509
0.236409
0.237774
0.239491
0.241432
0.243555
0.245788
0.248089
0.250471
0.252967
0.25561
0.258437
0.261482
0.264782
0.268367
0.272266
0.276498
0.281066
0.285946
0.291073
0.296302
0.30137
0.30527
0.306952
0.305901
0.301764
0.293943
0.282124
0.284401
0.283568
0.28274
0.281917
0.281097
0.280279
0.279462
0.278645
0.277828
0.277009
0.276189
0.275365
0.274538
0.273706
0.27287
0.272028
0.271179
0.270325
0.269463
0.268595
0.267719
0.266836
0.265945
0.265047
0.264142
0.26323
0.262311
0.261386
0.260455
0.259519
0.258578
0.257633
0.256684
0.255732
0.254778
0.253823
0.252867
0.251912
0.250959
0.250008
0.249061
0.248118
0.247181
0.24625
0.245327
0.244412
0.243506
0.242611
0.241725
0.284408
0.283584
0.282767
0.281954
0.281143
0.280335
0.279528
0.27872
0.277912
0.277102
0.27629
0.275474
0.274655
0.27383
0.273
0.272163
0.271319
0.270469
0.26961
0.268744
0.267869
0.266987
0.266096
0.265196
0.264289
0.263374
0.262451
0.261521
0.260585
0.259642
0.258694
0.257741
0.256784
0.255823
0.25486
0.253895
0.252929
0.251963
0.250999
0.250036
0.249077
0.248122
0.247173
0.246229
0.245293
0.244366
0.243448
0.24254
0.241643
0.284606
0.283806
0.283012
0.282221
0.281433
0.280645
0.279858
0.279069
0.278278
0.277484
0.276686
0.275883
0.275074
0.274259
0.273436
0.272604
0.271765
0.270915
0.270056
0.269188
0.268309
0.26742
0.266521
0.265611
0.264692
0.263764
0.262826
0.261879
0.260924
0.259962
0.258992
0.258017
0.257036
0.256051
0.255062
0.25407
0.253077
0.252083
0.251089
0.250097
0.249107
0.248122
0.24714
0.246165
0.245197
0.244237
0.243287
0.242346
0.241416
0.285089
0.284326
0.283566
0.282807
0.282049
0.281289
0.280528
0.279763
0.278993
0.278218
0.277436
0.276647
0.275849
0.275041
0.274223
0.273394
0.272554
0.271701
0.270836
0.269958
0.269067
0.268164
0.267247
0.266318
0.265377
0.264423
0.263458
0.262482
0.261496
0.2605
0.259495
0.258482
0.257463
0.256437
0.255406
0.25437
0.253332
0.252292
0.251252
0.250212
0.249173
0.248137
0.247106
0.246079
0.245059
0.244046
0.243042
0.242047
0.241063
0.285867
0.285152
0.284436
0.283718
0.282998
0.282273
0.281543
0.280806
0.280061
0.279307
0.278543
0.277767
0.276979
0.276178
0.275363
0.274533
0.273687
0.272826
0.271948
0.271055
0.270144
0.269218
0.268275
0.267316
0.266342
0.265352
0.264348
0.26333
0.2623
0.261257
0.260203
0.259138
0.258065
0.256983
0.255894
0.2548
0.253701
0.252598
0.251494
0.250388
0.249283
0.24818
0.24708
0.245983
0.244892
0.243808
0.242731
0.241663
0.240605
0.286946
0.286291
0.28563
0.284963
0.284288
0.283605
0.282913
0.282209
0.281493
0.280763
0.280019
0.279258
0.27848
0.277684
0.276869
0.276034
0.275179
0.274304
0.273408
0.272491
0.271553
0.270595
0.269616
0.268617
0.267598
0.266561
0.265506
0.264433
0.263344
0.26224
0.261122
0.259991
0.258848
0.257694
0.256532
0.255361
0.254184
0.253002
0.251816
0.250628
0.249439
0.24825
0.247062
0.245878
0.244698
0.243524
0.242356
0.241197
0.240047
0.288352
0.287774
0.287176
0.286567
0.285947
0.285313
0.284665
0.284
0.283317
0.282614
0.281891
0.281146
0.280377
0.279585
0.278767
0.277924
0.277056
0.27616
0.275239
0.274291
0.273317
0.272317
0.271292
0.270241
0.269167
0.268069
0.266949
0.265808
0.264646
0.263466
0.262268
0.261054
0.259825
0.258583
0.257329
0.256064
0.254791
0.253511
0.252225
0.250935
0.249643
0.248349
0.247056
0.245765
0.244478
0.243195
0.241917
0.240647
0.239389
0.290148
0.28967
0.289064
0.288542
0.287997
0.287422
0.286825
0.286205
0.285561
0.284889
0.284189
0.28346
0.282701
0.28191
0.281087
0.280232
0.279344
0.278423
0.277469
0.276482
0.275463
0.274411
0.273328
0.272215
0.271072
0.269901
0.268702
0.267477
0.266227
0.264954
0.26366
0.262345
0.261013
0.259663
0.258299
0.256921
0.255532
0.254134
0.252728
0.251317
0.249901
0.248482
0.247063
0.245645
0.244229
0.242817
0.24141
0.240011
0.238624
0.292254
0.291865
0.291451
0.291014
0.290547
0.289943
0.289419
0.288858
0.288255
0.287616
0.286941
0.286229
0.285478
0.284687
0.283857
0.282985
0.282073
0.28112
0.280126
0.279092
0.278019
0.276906
0.275755
0.274567
0.273343
0.272083
0.270791
0.269468
0.268113
0.266731
0.265322
0.263888
0.262432
0.260955
0.25946
0.257948
0.256422
0.254884
0.253336
0.251779
0.250217
0.248651
0.247083
0.245514
0.243948
0.242385
0.240826
0.239275
0.237739
0.294779
0.294494
0.294166
0.293805
0.293415
0.292993
0.29253
0.292017
0.291416
0.290815
0.290171
0.289474
0.28873
0.287939
0.287099
0.286209
0.285269
0.28428
0.283241
0.282154
0.281019
0.279836
0.278607
0.277334
0.276016
0.274656
0.273257
0.271818
0.270342
0.268832
0.26729
0.265716
0.264115
0.262488
0.260838
0.259168
0.257479
0.255775
0.254058
0.25233
0.250595
0.248853
0.247109
0.245364
0.24362
0.241879
0.240143
0.238416
0.236708
0.29769
0.297534
0.29732
0.29706
0.296756
0.296404
0.296004
0.295556
0.29506
0.29451
0.293905
0.293177
0.292458
0.291676
0.29083
0.289924
0.288959
0.287934
0.28685
0.285708
0.284508
0.283251
0.281938
0.280571
0.279151
0.277679
0.276158
0.274589
0.272975
0.271318
0.26962
0.267883
0.266113
0.264308
0.262475
0.260617
0.258734
0.256832
0.254913
0.25298
0.251038
0.249087
0.247133
0.245176
0.243222
0.241271
0.239324
0.237391
0.23548
0.300927
0.300914
0.300831
0.300691
0.300494
0.300237
0.29992
0.29954
0.299098
0.298591
0.298024
0.297392
0.29669
0.295917
0.295075
0.294166
0.293185
0.292134
0.291013
0.289822
0.288561
0.287233
0.285835
0.284372
0.282844
0.281251
0.279598
0.277885
0.276113
0.274288
0.27241
0.270483
0.268511
0.266496
0.264444
0.262358
0.260239
0.258097
0.255931
0.253748
0.251553
0.249346
0.247135
0.244922
0.242711
0.240506
0.238307
0.236126
0.233974
0.304366
0.304515
0.304582
0.304582
0.304514
0.304378
0.30417
0.30389
0.303538
0.303111
0.302611
0.302035
0.301382
0.300651
0.299839
0.298978
0.298007
0.296956
0.295823
0.294604
0.293301
0.291915
0.290443
0.288891
0.287257
0.285539
0.283745
0.281874
0.279926
0.277908
0.275821
0.273667
0.271454
0.269182
0.26686
0.264493
0.262081
0.259636
0.257161
0.254662
0.252147
0.249617
0.247084
0.244548
0.242018
0.239497
0.236986
0.234501
0.232057
0.307767
0.308097
0.308337
0.308509
0.308606
0.308632
0.308582
0.308454
0.30825
0.307964
0.307596
0.307142
0.306602
0.305974
0.305251
0.304435
0.303535
0.30255
0.301454
0.300248
0.29894
0.297529
0.296009
0.294386
0.292657
0.290819
0.28888
0.286838
0.284691
0.282449
0.280111
0.277681
0.275169
0.272573
0.269907
0.267176
0.264383
0.261543
0.25866
0.255745
0.252808
0.249854
0.246897
0.24394
0.240996
0.238069
0.235162
0.232295
0.229487
0.310694
0.311219
0.311667
0.312061
0.312396
0.312673
0.312884
0.313022
0.313082
0.313051
0.312929
0.312705
0.312379
0.31195
0.31141
0.31076
0.309987
0.309104
0.308162
0.307034
0.305782
0.3044
0.302878
0.301222
0.299425
0.297481
0.295398
0.293173
0.290801
0.288294
0.285651
0.282875
0.279979
0.276963
0.273843
0.270628
0.267322
0.263948
0.26051
0.257027
0.253512
0.249975
0.246438
0.242907
0.239403
0.235934
0.232507
0.229146
0.225877
0.311973
0.312651
0.313345
0.314095
0.314865
0.31563
0.316346
0.316983
0.317521
0.317933
0.318221
0.318369
0.318385
0.318268
0.318014
0.317632
0.317105
0.316431
0.315618
0.314728
0.313615
0.312342
0.310893
0.309269
0.307457
0.305444
0.303239
0.300834
0.29822
0.295412
0.292406
0.289208
0.285835
0.282286
0.278585
0.274744
0.27077
0.266695
0.262526
0.258289
0.254004
0.249686
0.24537
0.241068
0.236816
0.232633
0.228537
0.224566
0.220754
0.31035
0.311079
0.312199
0.313702
0.315381
0.317079
0.318664
0.320072
0.321273
0.322249
0.323022
0.323589
0.323978
0.324203
0.324266
0.324187
0.323953
0.323571
0.32303
0.322318
0.321474
0.320406
0.319119
0.317613
0.315866
0.313853
0.311581
0.309034
0.306198
0.303089
0.299704
0.296048
0.292145
0.287998
0.283639
0.279088
0.274356
0.269484
0.264482
0.259384
0.254214
0.248988
0.24375
0.238517
0.23334
0.228257
0.223318
0.218599
0.214167
0.301261
0.302393
0.305694
0.309849
0.313881
0.317427
0.32037
0.322749
0.324647
0.326136
0.327309
0.328207
0.328892
0.329401
0.329745
0.329958
0.330026
0.329966
0.329766
0.329378
0.328845
0.3281
0.327085
0.325806
0.324227
0.322305
0.320037
0.317396
0.314358
0.310945
0.307149
0.302984
0.298484
0.293657
0.288552
0.283198
0.277618
0.271866
0.265957
0.259934
0.253819
0.247624
0.241385
0.235102
0.228816
0.222564
0.216427
0.210602
0.205366
0.273077
0.283918
0.296394
0.306582
0.314122
0.319547
0.323433
0.326276
0.328409
0.330038
0.331317
0.332318
0.333126
0.333783
0.334314
0.334759
0.335103
0.335368
0.335537
0.335539
0.335359
0.335085
0.334414
0.333456
0.332152
0.330432
0.328265
0.325606
0.322419
0.318731
0.314537
0.309858
0.304745
0.299217
0.293343
0.287172
0.280738
0.274117
0.267335
0.260445
0.253476
0.246431
0.239331
0.232128
0.22479
0.217236
0.209389
0.201319
0.193631
0.24086
0.239968
0.239007
0.237967
0.236829
0.235588
0.234271
0.233036
0.232001
0.231196
0.230654
0.230412
0.230508
0.230992
0.231914
0.233339
0.235344
0.238029
0.24152
0.245984
0.251645
0.258815
0.267941
0.279701
0.295194
0.316024
0.343886
0.385619
0.519237
0.240763
0.239854
0.238874
0.237809
0.236639
0.235359
0.233997
0.232712
0.231626
0.230768
0.23017
0.229865
0.229893
0.230294
0.231117
0.23242
0.234273
0.236763
0.239996
0.244111
0.249288
0.255765
0.263848
0.273926
0.286626
0.302887
0.320865
0.334291
0.371855
0.240503
0.239557
0.238531
0.237409
0.236171
0.234807
0.233342
0.231943
0.230738
0.229753
0.229018
0.228563
0.228418
0.228618
0.229201
0.230212
0.231699
0.23372
0.236341
0.239636
0.243686
0.248573
0.254352
0.260944
0.268158
0.276089
0.282413
0.279832
0.281934
0.240093
0.239083
0.237983
0.236772
0.235427
0.233932
0.23231
0.230735
0.229346
0.228167
0.227223
0.226536
0.22613
0.22603
0.226258
0.22684
0.2278
0.229158
0.230931
0.233123
0.235718
0.238663
0.241849
0.245005
0.247652
0.249755
0.250382
0.245479
0.243125
0.239558
0.238462
0.23726
0.235929
0.23444
0.232773
0.230943
0.229141
0.227516
0.226091
0.224885
0.223914
0.223193
0.222735
0.22255
0.222645
0.223019
0.223667
0.224567
0.225683
0.226946
0.228255
0.229475
0.230379
0.230546
0.229833
0.227655
0.221348
0.217188
0.238904
0.2377
0.236372
0.234892
0.233225
0.231344
0.229263
0.227187
0.225285
0.223575
0.222072
0.220786
0.219723
0.218887
0.218277
0.217886
0.217698
0.21769
0.217824
0.218044
0.218272
0.218398
0.218288
0.217753
0.216405
0.213901
0.209577
0.20184
0.196436
0.238129
0.236795
0.235314
0.233655
0.231775
0.229642
0.227266
0.224875
0.22266
0.220636
0.218812
0.217193
0.21578
0.214569
0.21355
0.212705
0.212012
0.211437
0.210933
0.210438
0.209871
0.209119
0.208042
0.206455
0.204004
0.200314
0.19494
0.187504
0.182375
0.237226
0.235737
0.234076
0.232205
0.230076
0.227651
0.224937
0.222194
0.219635
0.217274
0.215115
0.213159
0.211402
0.209832
0.208433
0.207183
0.206051
0.204998
0.203973
0.202913
0.201737
0.200338
0.198586
0.196325
0.193278
0.189147
0.183816
0.177791
0.173626
0.23618
0.23451
0.232639
0.230521
0.228104
0.225344
0.222251
0.219119
0.216191
0.213478
0.21098
0.208694
0.206607
0.204708
0.20297
0.201369
0.19987
0.198431
0.197002
0.195521
0.193916
0.192098
0.189963
0.187397
0.184196
0.180136
0.175323
0.170735
0.167504
0.234961
0.233079
0.230963
0.22856
0.225812
0.222673
0.219157
0.215604
0.212289
0.209217
0.206385
0.203784
0.201397
0.199203
0.197178
0.195289
0.1935
0.19177
0.190051
0.188288
0.186419
0.184374
0.182074
0.179434
0.176302
0.172511
0.168303
0.164823
0.162368
0.233513
0.231384
0.228983
0.22625
0.223123
0.219557
0.215576
0.211573
0.207858
0.20443
0.201279
0.198389
0.195739
0.1933
0.191043
0.188934
0.186935
0.185005
0.183099
0.181169
0.179162
0.177023
0.174688
0.172086
0.169109
0.165651
0.162036
0.159368
0.157537
0.231746
0.229326
0.226591
0.223476
0.219916
0.215872
0.211385
0.206911
0.202795
0.199025
0.195584
0.192446
0.18958
0.186954
0.18453
0.182272
0.180141
0.178094
0.17609
0.174085
0.172034
0.169889
0.167598
0.165104
0.162327
0.159226
0.156166
0.154089
0.152723
0.229513
0.226748
0.223621
0.220061
0.216009
0.211436
0.20641
0.201459
0.196958
0.192882
0.189198
0.185867
0.18285
0.180104
0.177586
0.175255
0.173068
0.170984
0.168961
0.16696
0.164938
0.162858
0.160674
0.158337
0.155791
0.153049
0.150484
0.148832
0.147792
0.226556
0.223378
0.219789
0.215717
0.211116
0.205975
0.200401
0.194997
0.190159
0.18584
0.181987
0.178544
0.175458
0.172676
0.170148
0.167826
0.165665
0.163622
0.161657
0.15973
0.157806
0.155849
0.153821
0.151679
0.149386
0.146992
0.144856
0.143518
0.142705
0.222468
0.218793
0.214666
0.210022
0.204833
0.199123
0.193039
0.187259
0.182181
0.177725
0.173811
0.170365
0.167316
0.164601
0.162159
0.159939
0.15789
0.15597
0.154136
0.152353
0.150585
0.148801
0.146969
0.14505
0.143027
0.140977
0.139225
0.138133
0.137472
0.216801
0.212591
0.207924
0.202746
0.197061
0.190921
0.184508
0.178544
0.173409
0.168987
0.165171
0.161864
0.158981
0.156447
0.154195
0.152168
0.150314
0.148587
0.146948
0.14536
0.143791
0.142211
0.140594
0.138909
0.137152
0.135407
0.133963
0.133067
0.132512
0.209622
0.204893
0.199812
0.194313
0.188393
0.182105
0.175641
0.169736
0.164746
0.160526
0.156947
0.153895
0.151273
0.148998
0.147001
0.14522
0.143602
0.142103
0.140682
0.139305
0.137941
0.136562
0.135148
0.133683
0.132172
0.130688
0.12948
0.12873
0.12825
0.200294
0.195333
0.19033
0.184987
0.179223
0.173099
0.166836
0.161189
0.156496
0.152596
0.149346
0.146621
0.144315
0.142341
0.140628
0.139113
0.137747
0.136483
0.135285
0.134117
0.13295
0.131755
0.130516
0.129232
0.127929
0.126673
0.125666
0.125044
0.124627
0.187506
0.183716
0.179861
0.175246
0.169986
0.16426
0.158375
0.153121
0.148824
0.145318
0.142448
0.140084
0.138115
0.136455
0.13503
0.133782
0.13266
0.131624
0.130635
0.129662
0.128672
0.127636
0.12654
0.125425
0.124366
0.123401
0.122599
0.122027
0.121591
0.233152
0.233494
0.234214
0.235603
0.237514
0.239662
0.241912
0.244205
0.246549
0.248985
0.251557
0.254303
0.257261
0.260469
0.263965
0.267789
0.271976
0.276552
0.281526
0.286882
0.292564
0.298424
0.304162
0.30861
0.310342
0.308134
0.300408
0.284782
0.252735
0.231363
0.231827
0.232664
0.234046
0.235876
0.237951
0.240165
0.242465
0.244856
0.247369
0.250043
0.252915
0.256024
0.259411
0.263119
0.267195
0.271682
0.276616
0.282021
0.287904
0.29425
0.300979
0.307883
0.313889
0.317636
0.318407
0.315578
0.310977
0.315111
0.229536
0.230084
0.231007
0.232386
0.234151
0.236152
0.238312
0.240595
0.243008
0.245575
0.248327
0.251299
0.254532
0.258071
0.261966
0.266273
0.271048
0.276346
0.282222
0.288734
0.295961
0.304
0.312981
0.322346
0.331142
0.339654
0.348199
0.355298
0.372041
0.227648
0.228174
0.229071
0.230439
0.232211
0.23422
0.236376
0.238656
0.241081
0.24368
0.246485
0.24953
0.252859
0.256522
0.260575
0.265085
0.270123
0.27577
0.282117
0.289291
0.297489
0.307033
0.318483
0.331889
0.346328
0.362335
0.380715
0.397496
0.419296
0.225699
0.226191
0.227038
0.228376
0.230151
0.232176
0.23434
0.236623
0.239056
0.241674
0.244512
0.247609
0.25101
0.254768
0.258949
0.263626
0.268887
0.274835
0.281602
0.289377
0.298469
0.309382
0.323022
0.339945
0.358746
0.380308
0.40525
0.429522
0.456764
0.223691
0.224166
0.224981
0.226283
0.228028
0.230036
0.232187
0.234462
0.236891
0.239513
0.242366
0.24549
0.248933
0.252752
0.257017
0.261811
0.267233
0.273405
0.280487
0.288721
0.298501
0.310396
0.3255
0.344859
0.365608
0.390275
0.418495
0.448924
0.479383
0.221621
0.222085
0.222878
0.22414
0.225837
0.227801
0.229918
0.232164
0.23457
0.237175
0.240017
0.243137
0.246586
0.250422
0.254719
0.259564
0.265066
0.271355
0.278606
0.287094
0.29728
0.309607
0.325219
0.345092
0.368468
0.393961
0.421235
0.449738
0.478426
0.219483
0.219935
0.220703
0.22192
0.223558
0.225466
0.22753
0.229729
0.23209
0.234652
0.237453
0.240535
0.243948
0.24775
0.252017
0.256838
0.262322
0.268604
0.275849
0.284332
0.294636
0.306567
0.322689
0.342596
0.365333
0.389285
0.413695
0.438246
0.462716
0.217275
0.217714
0.218454
0.219619
0.221189
0.223026
0.225022
0.227154
0.229448
0.23194
0.234669
0.237675
0.241005
0.244719
0.248889
0.253601
0.258962
0.265102
0.272144
0.280337
0.290109
0.302271
0.317651
0.336203
0.356477
0.37748
0.398456
0.419144
0.438872
0.214996
0.215423
0.216133
0.21724
0.21873
0.220481
0.222392
0.224438
0.22664
0.229036
0.231659
0.234549
0.237751
0.241319
0.24532
0.249836
0.254963
0.260833
0.267451
0.275244
0.284508
0.295867
0.309749
0.326037
0.343257
0.360687
0.37774
0.394417
0.409752
0.212644
0.213057
0.213733
0.214777
0.21618
0.217833
0.219643
0.221582
0.223671
0.225942
0.228427
0.231163
0.234188
0.237553
0.241318
0.245553
0.250334
0.255765
0.261972
0.269136
0.277545
0.287519
0.299464
0.31306
0.326979
0.340575
0.353426
0.365838
0.376967
0.210221
0.210621
0.211262
0.212238
0.213544
0.215087
0.216779
0.218592
0.220545
0.222665
0.224981
0.227524
0.23033
0.233439
0.236903
0.240778
0.245134
0.25006
0.255647
0.261985
0.269266
0.277672
0.287455
0.298164
0.308687
0.318497
0.327335
0.335676
0.34294
0.207731
0.208121
0.208729
0.209635
0.210834
0.21225
0.213804
0.215472
0.217266
0.21921
0.221327
0.223643
0.226186
0.228989
0.232094
0.235547
0.239401
0.243718
0.248534
0.253899
0.259914
0.266658
0.274187
0.281999
0.289258
0.295617
0.300977
0.305855
0.309903
0.205175
0.205551
0.206119
0.206949
0.208037
0.209321
0.210729
0.212236
0.213852
0.215596
0.217488
0.219545
0.221788
0.224243
0.226941
0.229914
0.233193
0.236811
0.240769
0.245077
0.249754
0.254791
0.26009
0.265176
0.269518
0.272954
0.275521
0.277718
0.279384
0.202559
0.202922
0.203451
0.204201
0.205174
0.206316
0.207564
0.208896
0.210318
0.211844
0.213488
0.215261
0.217176
0.219249
0.221499
0.223944
0.226592
0.229453
0.232501
0.235703
0.239018
0.242367
0.245558
0.248204
0.250072
0.251161
0.251603
0.251876
0.251985
0.19989
0.200241
0.200731
0.201401
0.202252
0.203244
0.204323
0.205468
0.206681
0.207973
0.209352
0.210821
0.212384
0.214047
0.215816
0.217694
0.219672
0.221736
0.223838
0.225912
0.227873
0.229598
0.230849
0.231364
0.23119
0.230458
0.229359
0.228348
0.227588
0.197173
0.19751
0.197958
0.198545
0.199275
0.200116
0.201019
0.20197
0.202965
0.204013
0.205115
0.206265
0.207458
0.208691
0.209956
0.211242
0.212527
0.213772
0.214912
0.215858
0.216499
0.216688
0.216174
0.214845
0.213004
0.210889
0.208703
0.206878
0.205734
0.194418
0.194742
0.195147
0.195651
0.196259
0.196949
0.19767
0.198421
0.199193
0.199994
0.200811
0.201633
0.202446
0.203237
0.203987
0.204671
0.20525
0.205671
0.205852
0.205687
0.205052
0.203797
0.201675
0.198737
0.195518
0.192333
0.189355
0.186989
0.185711
0.191633
0.191947
0.192312
0.192735
0.193221
0.19376
0.194289
0.194838
0.195393
0.195941
0.19647
0.196959
0.19739
0.197736
0.197969
0.198049
0.197925
0.197527
0.19676
0.19551
0.193644
0.191016
0.1874
0.183014
0.178598
0.174523
0.1709
0.168108
0.166779
0.188829
0.18913
0.189452
0.189793
0.19016
0.190563
0.190882
0.191257
0.191589
0.191886
0.192129
0.192291
0.192343
0.192251
0.191973
0.19146
0.190646
0.189447
0.187757
0.185451
0.182393
0.178442
0.173399
0.167647
0.162123
0.157237
0.153017
0.149818
0.148426
0.186014
0.186305
0.186584
0.186846
0.187095
0.187325
0.187531
0.187695
0.187806
0.187861
0.187827
0.187672
0.187359
0.186843
0.186074
0.18499
0.183513
0.181545
0.178969
0.175647
0.171436
0.166198
0.159755
0.152648
0.146017
0.140312
0.135464
0.131815
0.130306
0.183199
0.183482
0.183721
0.183905
0.184041
0.18414
0.184186
0.184161
0.184069
0.183893
0.183597
0.183141
0.182481
0.181564
0.180331
0.17871
0.176608
0.173917
0.170503
0.166215
0.160895
0.154394
0.146539
0.138019
0.130193
0.123577
0.118004
0.113825
0.112153
0.180397
0.180676
0.180882
0.18098
0.181033
0.180997
0.180873
0.180676
0.180397
0.180008
0.179467
0.178732
0.177749
0.176462
0.174801
0.172683
0.170008
0.16665
0.162461
0.157271
0.150897
0.143158
0.133863
0.12381
0.114605
0.10688
0.1004
0.0955769
0.0937366
0.177614
0.177885
0.178042
0.178109
0.178055
0.177885
0.177616
0.177266
0.176817
0.176233
0.175471
0.174482
0.173208
0.171585
0.169539
0.166977
0.163787
0.159834
0.154949
0.148942
0.141593
0.132672
0.121926
0.11021
0.0993725
0.0902286
0.0825259
0.0768599
0.0748643
0.174861
0.175124
0.175265
0.175278
0.175121
0.174828
0.174431
0.173945
0.173345
0.172592
0.171635
0.170422
0.168892
0.166977
0.164596
0.16165
0.158019
0.153555
0.148075
0.141364
0.133164
0.123176
0.111048
0.0976007
0.0848687
0.0738812
0.0644331
0.057533
0.0554332
0.172147
0.172398
0.172513
0.17246
0.172215
0.171822
0.171323
0.170729
0.170008
0.169113
0.167992
0.166589
0.164842
0.162682
0.160022
0.15676
0.152768
0.14789
0.141932
0.134656
0.12577
0.114907
0.101597
0.0865474
0.0718378
0.0586282
0.046704
0.037734
0.0354643
0.1695
0.169793
0.169934
0.169844
0.169493
0.168957
0.168324
0.16762
0.166798
0.165793
0.164542
0.162988
0.161071
0.158719
0.155845
0.152343
0.148083
0.142903
0.136602
0.128931
0.119577
0.108112
0.0939428
0.077616
0.06113
0.0456307
0.030672
0.0179297
0.0139171
0.155675
0.138862
0.115675
0.086402
0.0541077
0.0228846
-0.00456682
-0.0300828
-0.0532476
-0.0788787
-0.105096
-0.136441
-0.168938
-0.199541
-0.224338
-0.240785
-0.248906
-0.250846
-0.250226
0.162278
0.149258
0.126876
0.0965487
0.0605794
0.0226866
-0.0137062
-0.0509257
-0.0854315
-0.124136
-0.163675
-0.204203
-0.243359
-0.277878
-0.304499
-0.321992
-0.33153
-0.335635
-0.337055
0.156708
0.144699
0.123607
0.0931225
0.054731
0.0118473
-0.0315638
-0.0792177
-0.126935
-0.175546
-0.224519
-0.272722
-0.31742
-0.355343
-0.38398
-0.402959
-0.41397
-0.419597
-0.422338
0.145609
0.133956
0.114589
0.0846511
0.0440291
-0.00395126
-0.0559781
-0.110829
-0.16745
-0.225122
-0.282836
-0.338653
-0.389013
-0.430375
-0.460757
-0.480629
-0.492414
-0.498975
-0.502643
0.132121
0.121137
0.102726
0.0726995
0.0302387
-0.0212877
-0.0789269
-0.140515
-0.205071
-0.271422
-0.337273
-0.399458
-0.453796
-0.49695
-0.527872
-0.548015
-0.560393
-0.567842
-0.572305
0.114162
0.103379
0.0859029
0.0564536
0.0133231
-0.0404028
-0.101929
-0.169485
-0.241174
-0.314798
-0.386984
-0.45357
-0.510208
-0.554227
-0.585613
-0.606527
-0.620242
-0.62935
-0.635374
0.0920085
0.0801746
0.0628521
0.0340211
-0.00906311
-0.0640416
-0.128319
-0.200066
-0.276651
-0.35481
-0.4302
-0.497943
-0.553875
-0.596254
-0.62607
-0.646032
-0.659531
-0.668796
-0.675013
0.0668728
0.0529993
0.0346026
0.00548276
-0.0376791
-0.0932427
-0.158882
-0.232556
-0.311192
-0.390748
-0.466125
-0.532159
-0.585311
-0.624918
-0.652778
-0.671808
-0.685192
-0.694659
-0.701161
0.0397173
0.0233994
0.00299766
-0.0274699
-0.0712167
-0.12696
-0.192658
-0.266219
-0.344284
-0.422227
-0.494496
-0.556135
-0.604555
-0.64011
-0.665123
-0.68249
-0.695099
-0.704239
-0.710566
0.0113923
-0.00732602
-0.0301239
-0.0625718
-0.107326
-0.163057
-0.227935
-0.29993
-0.37551
-0.449686
-0.516851
-0.572686
-0.615688
-0.647056
-0.669382
-0.685378
-0.697563
-0.706888
-0.71368
-0.0171257
-0.0379768
-0.063168
-0.0977759
-0.143772
-0.199485
-0.263085
-0.332484
-0.403899
-0.472127
-0.531919
-0.579999
-0.616017
-0.641822
-0.660061
-0.67317
-0.683248
-0.691032
-0.696663
-0.0446632
-0.0672331
-0.094515
-0.13103
-0.178138
-0.233668
-0.295585
-0.361583
-0.427649
-0.488707
-0.540351
-0.580573
-0.610012
-0.630842
-0.645518
-0.656082
-0.664165
-0.670399
-0.674826
-0.0701041
-0.093916
-0.122813
-0.160688
-0.208433
-0.263375
-0.323203
-0.38536
-0.445744
-0.499712
-0.54391
-0.577479
-0.601709
-0.618827
-0.63099
-0.639881
-0.646785
-0.652313
-0.656346
-0.0926148
-0.117247
-0.147292
-0.185948
-0.23378
-0.287646
-0.34491
-0.402716
-0.456984
-0.503749
-0.540816
-0.568318
-0.587933
-0.601762
-0.611628
-0.618883
-0.624513
-0.629081
-0.632384
-0.111614
-0.136738
-0.167525
-0.206459
-0.253854
-0.306141
-0.360374
-0.413477
-0.461619
-0.501734
-0.532744
-0.555494
-0.571786
-0.58346
-0.591977
-0.59838
-0.603414
-0.607567
-0.610587
-0.126866
-0.152275
-0.183514
-0.222382
-0.268986
-0.319375
-0.370377
-0.418844
-0.461404
-0.495923
-0.52222
-0.541559
-0.555683
-0.566145
-0.574094
-0.580331
-0.585442
-0.589815
-0.593107
-0.138465
-0.164099
-0.195664
-0.234356
-0.280054
-0.328386
-0.375969
-0.419717
-0.456916
-0.486407
-0.508735
-0.525361
-0.537843
-0.54742
-0.554963
-0.561064
-0.56618
-0.57058
-0.573898
-0.146602
-0.172514
-0.20441
-0.243015
-0.287918
-0.334277
-0.378535
-0.417843
-0.450284
-0.475609
-0.494872
-0.509564
-0.520998
-0.530116
-0.537538
-0.543679
-0.548893
-0.553347
-0.556697
-0.151561
-0.177887
-0.210244
-0.249048
-0.293544
-0.33836
-0.379791
-0.415315
-0.443825
-0.465833
-0.482736
-0.495976
-0.506638
-0.515418
-0.522746
-0.528901
-0.534165
-0.53864
-0.542007
-0.153684
-0.18062
-0.213689
-0.253147
-0.297759
-0.341476
-0.380413
-0.4125
-0.437504
-0.456626
-0.471491
-0.483431
-0.493302
-0.501591
-0.508574
-0.514439
-0.519414
-0.523576
-0.526662
-0.153173
-0.180944
-0.215056
-0.255749
-0.301149
-0.34439
-0.381383
-0.410589
-0.432635
-0.449311
-0.462405
-0.473142
-0.482192
-0.489883
-0.49638
-0.501798
-0.506326
-0.510036
-0.512747
-0.150208
-0.17906