/*--------------------------------*- C++ -*----------------------------------*\
| =========                 |                                                 |
| \\      /  F ield         | OpenFOAM: The Open Source CFD Toolbox           |
|  \\    /   O peration     | Version:  2312                                  |
|   \\  /    A nd           | Website:  www.openfoam.com                      |
|    \\/     M anipulation  |                                                 |
\*---------------------------------------------------------------------------*/
FoamFile
{
    version     2.0;
    format      ascii;
    arch        "LSB;label=32;scalar=64";
    class       volScalarField;
    location    "100";
    object      div(phi);
}
// * * * * * * * * * * * * * * * * * * * * * * * * * * * * * * * * * * * * * //

dimensions      [0 0 -1 0 0 0 0];

internalField   nonuniform List<scalar> 
10720
(
0.000399553
-0.00449429
-0.00036384
0.000462255
0.00288545
0.00194309
0.00035328
-0.000829608
-0.001605
-0.00228322
-0.00273818
-0.00287069
-0.00259368
-0.00142056
0.000796856
0.00372137
0.00553761
0.00453562
0.000417764
-0.00648593
-0.0138589
-0.0114744
0.000880096
0.0111234
-0.00271192
-0.01249
0.0027776
0.00280609
-0.00336389
-0.00593955
-0.000576978
0.028744
-0.00834701
-0.0359514
-0.00557177
0.308381
0.00831607
-0.135498
-0.0117841
-0.00472084
-0.00347522
0.00472763
0.00564871
0.00335946
0.00204969
-0.000222563
-0.00184606
-0.00137414
0.000801637
0.000293936
0.000155069
0.000678708
0.000801254
0.000193878
-0.000607085
-0.00141993
-0.00251073
-0.00371728
-0.00452213
-0.00437857
-0.00315291
-0.00193174
-0.00157128
-0.00243447
-0.00253803
0.00057151
0.0029347
-0.000772436
-0.00165069
0.00246092
0.00130343
5.46995e-06
-0.00234441
0.0019602
0.00270841
-0.00181433
-0.000896871
0.000594988
0.00128177
-0.00326402
-0.00556857
-0.0121582
-0.0104778
-0.0102281
-0.00963342
-0.00769038
-0.00523291
-0.00243499
0.000108254
0.00234417
0.00462291
0.00722214
0.00956592
0.00904291
0.00330537
-0.00830193
-0.0225645
-0.0296397
-0.0182835
-0.00263385
0.00102874
-0.00369785
0.00305316
-0.00456048
-0.000558247
-0.00126984
-0.00342277
0.0138886
-0.00631056
-0.00811273
-0.0103141
0.0319647
0.0224935
-0.242014
-0.0254436
-0.0437442
-0.0025039
0.000690606
-0.00374075
-0.0086214
-0.00431255
-0.00218617
-0.00178396
0.00385517
0.00567632
0.000905825
-0.000709557
-0.00114186
-0.00110386
-0.00173756
-0.00289215
-0.00400093
-0.00505189
-0.006455
-0.00758973
-0.00831727
-0.00790668
-0.0065044
-0.0050372
-0.00419394
-0.00372224
-0.0014254
0.000814321
0.000149866
0.00164216
0.00198032
-0.00040425
0.00260095
-0.000806502
0.00202393
0.000594431
-0.000281853
0.000502893
-0.000115238
0.000333191
-0.000585411
-0.00281274
0.000745975
0.00211199
0.00195143
0.00105217
-0.000563287
-0.00215742
-0.00328503
-0.00392781
-0.00417533
-0.00384433
-0.002788
-0.000929428
0.00196647
0.00504955
0.00623427
0.00381221
-0.00251244
-0.010562
-0.0148472
-0.0123359
-0.00209464
5.09932e-05
-0.0021875
0.00241728
-0.00167528
0.000316282
0.000885912
-0.00393228
0.00595529
-0.00465046
-0.00110059
-0.00767474
0.00635692
0.00154982
-0.0402873
-0.0156801
-0.00845072
0.0208992
-0.00408205
0.00430872
0.00190591
0.000513354
-0.000397333
-0.000892481
-0.00154914
0.000884233
5.45045e-05
-0.000387276
0.000296819
0.00071269
0.000289987
-0.000552078
-0.00145018
-0.00257028
-0.0039854
-0.00552716
-0.00625815
-0.00582972
-0.00468933
-0.00364823
-0.00342601
-0.00319371
-0.00103359
0.000890671
-5.93643e-05
0.00136672
0.00178481
-0.000486872
0.00254857
-0.000409876
0.00167762
6.57877e-05
0.000307774
0.00111149
-0.000929027
0.000219252
-0.00053029
-0.00406623
-0.00583935
-0.0054688
-0.00494004
-0.00556456
-0.00563813
-0.0049695
-0.00375736
-0.00229734
-0.00114728
-0.000268499
0.000795787
0.00244955
0.00480862
0.00674237
0.00684951
0.0034067
-0.00476083
-0.0156033
-0.0201075
-0.00947677
0.00137853
0.00353055
0.00290704
0.00184386
-0.00195695
0.00219216
0.0046899
-0.00743331
0.00267276
-0.0054989
0.00774467
-0.00790213
-0.00115979
-0.00182271
-0.0149232
0.00230461
0.052145
0.0157211
-0.00361158
-0.00299124
0.00091081
0.00142013
0.000277851
0.00197009
0.00024061
7.09609e-05
0.000256767
0.000306193
0.000192468
-0.000233415
-0.000801647
-0.00141872
-0.00199452
-0.00304119
-0.00430451
-0.00560365
-0.00626522
-0.00592562
-0.00441134
-0.00304246
-0.00307092
-0.00314172
-0.0010774
0.000968589
-5.65411e-05
0.00129687
0.00201149
-0.000332879
0.00250046
-0.000411554
0.0017105
0.000184406
0.000226721
0.00104123
-0.000805539
-0.000121122
-0.000298568
0.000751493
-0.001986
-0.000354149
-0.00134178
-0.00240065
-0.00319662
-0.0036057
-0.00358746
-0.00337133
-0.00310316
-0.00265719
-0.00162735
0.000366618
0.00301036
0.00520079
0.00543495
0.0025231
-0.00453811
-0.0142878
-0.0190038
-0.0104024
0.000329124
0.00528856
0.00541964
0.00115018
-0.00459193
0.00357401
0.0079829
-0.0106782
0.010869
-0.00756543
0.00801114
-0.00754
-0.00345349
-0.00296586
-0.00477595
0.00733394
0.0424504
0.00744956
-0.00225805
-0.00059841
0.000741508
0.000362006
-0.000548554
-9.98571e-05
-0.00019169
-1.70534e-05
0.000183698
0.000203646
3.03197e-06
-0.000325746
-0.000623134
-0.000932031
-0.00144311
-0.00240971
-0.00369747
-0.0049171
-0.00557271
-0.00530143
-0.0042162
-0.00318141
-0.00311413
-0.00316012
-0.00110057
0.000960558
-0.000201349
0.000949435
0.00182873
-0.000429856
0.00234669
-0.000395107
0.00163634
0.000193634
0.000138043
0.000999871
-0.0006775
-0.00060604
-0.000223566
-0.00051828
-0.0015694
-0.00198281
-0.00326108
-0.00363166
-0.00373481
-0.00359615
-0.00305471
-0.00234853
-0.00156636
-0.000730431
0.000417984
0.00241003
0.00493094
0.00683356
0.00667878
0.00337329
-0.00426237
-0.014343
-0.0180021
-0.00889966
0.00477517
0.00483146
0.00393239
0.00289558
-0.000735231
-0.000276671
0.00393153
-0.0103675
0.0146853
-0.00810946
0.00514301
-0.00639548
-0.00358302
-0.00325399
-0.00243785
0.00512778
0.02634
-0.0075913
-0.0023918
0.000403006
-0.000394459
-0.000662103
-0.000164628
0.000309872
0.000361281
0.000269128
0.000103077
-0.00012798
-0.000377224
-0.000597451
-0.000838666
-0.00110462
-0.0017275
-0.00268176
-0.00398462
-0.00507736
-0.00563563
-0.00528664
-0.00416141
-0.00312245
-0.00308782
-0.00317552
-0.00111211
0.00105461
-0.00015722
0.000799739
0.00186247
-0.000360285
0.00221576
-0.000400809
0.0015565
0.000220235
1.46854e-05
0.000920532
-0.000493677
-0.000833528
-0.000456053
-0.00133261
-0.00143501
-0.00219916
-0.00269772
-0.00290154
-0.00302489
-0.00310383
-0.0029412
-0.00265264
-0.00230517
-0.00188508
-0.00103881
0.000766147
0.00327948
0.00513804
0.00513077
0.00201643
-0.00543209
-0.0149449
-0.0172461
-0.0084235
0.00558928
0.00322593
-0.00145018
0.00370146
-0.00312955
-0.00102659
0.00399843
-0.00971918
0.0121557
-0.007494
0.00530208
-0.00537811
-0.00323791
-0.00358887
-0.00286002
0.00283942
0.0193361
-0.0248574
-0.00169002
0.000264925
-0.000525671
-0.000415831
0.000290684
0.000532736
0.000317241
3.81126e-05
-0.000151312
-0.000250271
-0.000294988
-0.000317546
-0.000462087
-0.000709245
-0.0013625
-0.00228922
-0.00351119
-0.00451818
-0.00501349
-0.00465952
-0.00360345
-0.00271138
-0.00277354
-0.00292433
-0.000931541
0.00121678
-8.69107e-05
0.000660672
0.001862
-0.000335504
0.00204099
-0.000399369
0.00147257
0.000279537
-4.76341e-05
0.000883704
-0.000171484
-0.000231815
-0.0012611
-0.00122804
-0.00226765
-0.00229024
-0.00256838
-0.00281992
-0.00292688
-0.00299373
-0.00282072
-0.00247292
-0.00204972
-0.00154143
-0.000572369
0.00131334
0.00386768
0.00565062
0.00548462
0.00211023
-0.00574211
-0.0150189
-0.0168133
-0.00708368
0.00728926
0.00440325
-0.00648356
0.0052233
-0.00320256
-0.00141087
0.00430756
-0.00899804
0.0101822
-0.00699294
0.00550347
-0.00445256
-0.00251915
-0.00383621
-0.00335817
0.00247476
0.0111158
-0.023358
-0.00121793
-0.000590468
-0.000363804
-6.4355e-05
0.000347664
0.000328442
0.000103111
-0.000118559
-0.00020774
-0.000186431
-0.00014975
-0.000162215
-0.000344286
-0.000687007
-0.0013749
-0.00229521
-0.00340041
-0.00429925
-0.00470646
-0.00433277
-0.00330732
-0.00249937
-0.0026324
-0.0028135
-0.000870991
0.00127447
-6.15192e-05
0.000518307
0.001844
-0.000293666
0.00191528
-0.000329419
0.00141911
0.000349167
-0.000106913
0.000815268
0.000123532
0.000425666
-0.00235004
-0.000744183
-0.00198813
-0.00136359
-0.00186309
-0.00216222
-0.00226126
-0.00233055
-0.00216826
-0.0018451
-0.00147188
-0.00103971
-0.000190889
0.00151409
0.0037864
0.00531367
0.00493152
0.00137667
-0.00664394
-0.0153595
-0.0167492
-0.00580004
0.00867171
0.00486762
-0.00935389
0.00613114
-0.00095606
-0.00192625
0.00452792
-0.00830314
0.0085157
-0.00655679
0.00558361
-0.00351704
-0.00142451
-0.00375015
-0.00311458
0.00286951
0.00344633
-0.00860106
-0.00155691
-0.000952452
-7.3556e-05
0.000137
0.000258723
8.78514e-05
-0.000104785
-0.00024138
-0.000274466
-0.000236909
-0.00021737
-0.000277465
-0.000486006
-0.000868114
-0.00151471
-0.00237064
-0.00333601
-0.00411023
-0.00442415
-0.00402909
-0.00304343
-0.00230638
-0.00250833
-0.00271943
-0.000819436
0.00132073
-4.14079e-05
0.000378114
0.00182166
-0.000261478
0.00176906
-0.000284603
0.00134067
0.000401478
-0.000177059
0.000738442
0.000380124
0.00113351
-0.0029815
-0.000743243
-0.00151674
-0.00105703
-0.00177462
-0.00204475
-0.00212409
-0.00217071
-0.00196701
-0.00161279
-0.00120333
-0.000728456
0.000114112
0.00175621
0.00388209
0.00531406
0.00489953
0.00120654
-0.00696904
-0.0153696
-0.0165417
-0.00460919
0.0101058
0.00535489
-0.00912459
0.0060754
0.00140925
-0.00227185
0.00476513
-0.0075729
0.00707071
-0.00616015
0.00546893
-0.00256877
-0.000189784
-0.00334773
-0.00234818
0.00321496
-0.00134688
0.00303244
-0.00178305
-0.000591463
0.000155059
0.000176317
0.000120348
-6.90688e-05
-0.000204047
-0.000280887
-0.000299445
-0.000291085
-0.000317274
-0.000426616
-0.000651638
-0.00104472
-0.00165166
-0.00245225
-0.00332652
-0.00402317
-0.00427999
-0.00387484
-0.00293202
-0.00224446
-0.00248495
-0.00270163
-0.000818501
0.00133605
-3.76967e-05
0.000227547
0.00180434
-0.000206962
0.0016243
-0.000234169
0.00128654
0.000488446
-0.000248235
0.000632601
0.000581986
0.00164021
-0.00232712
-0.000846381
-0.00124692
-0.00127694
-0.00195208
-0.0021201
-0.00216709
-0.00219139
-0.00196806
-0.00160054
-0.00116557
-0.000648226
0.000196637
0.00176298
0.00373289
0.00504359
0.00458475
0.000793011
-0.00740235
-0.0155819
-0.0164951
-0.00389099
0.0112098
0.00563727
-0.00840892
0.00554041
0.00302268
-0.00255349
0.00495048
-0.00685703
0.00576077
-0.00576998
0.00512586
-0.00164702
0.000937023
-0.00274421
-0.00145344
0.00315803
-0.0042561
0.00898444
-0.00151493
-0.000113014
0.000156201
8.41334e-05
-2.14397e-06
-0.000126465
-0.000184131
-0.000213538
-0.000229561
-0.000250314
-0.000312801
-0.000450408
-0.000682715
-0.00107333
-0.00165336
-0.00240969
-0.0032194
-0.00386003
-0.00408182
-0.00367336
-0.00277653
-0.0021378
-0.0024022
-0.00261822
-0.000760042
0.00139638
1.89149e-05
0.000124976
0.0018166
-0.000111502
0.00149492
-0.000168009
0.00123282
0.000578977
-0.00032405
0.000492251
0.000696043
0.00170195
-0.000750484
-0.000800963
-0.00119046
-0.00150115
-0.00198977
-0.00207866
-0.00211486
-0.00214551
-0.00195488
-0.00161191
-0.00117857
-0.000635939
0.000216005
0.00170491
0.00353128
0.00475104
0.00428836
0.000493804
-0.00757521
-0.01558
-0.0162076
-0.00337052
0.0119302
0.00584303
-0.00782297
0.00515964
0.00412545
-0.00287608
0.00503415
-0.00614084
0.00457684
-0.00535527
0.00455923
-0.000809862
0.00176367
-0.00206394
-0.000603991
0.00276346
-0.00552815
0.00994699
-0.00107587
-3.74595e-05
-1.81435e-05
-8.6952e-05
-0.000108035
-0.000125553
-0.000122202
-0.000126195
-0.000140193
-0.000172106
-0.000248865
-0.000390633
-0.000617802
-0.000998298
-0.00156237
-0.00228952
-0.00305716
-0.00365701
-0.00385438
-0.00345125
-0.00260236
-0.00201361
-0.00229246
-0.00250333
-0.000683968
0.00145844
9.1547e-05
4.2057e-05
0.00182626
-6.49743e-06
0.00137018
-8.76232e-05
0.00117567
0.00066884
-0.00038443
0.00034566
0.000683514
0.00141227
0.000642115
-0.000662052
-0.00125559
-0.00145774
-0.00176596
-0.00180813
-0.00184767
-0.00190114
-0.00176878
-0.00148259
-0.00108733
-0.000558957
0.000269615
0.0016493
0.00329344
0.00438014
0.00388457
0.000138466
-0.00766038
-0.015412
-0.0157821
-0.0030144
0.0122228
0.00605467
-0.00739024
0.00485769
0.00479394
-0.00328328
0.00503354
-0.00537293
0.00353424
-0.00491728
0.00377896
-0.000121821
0.00216605
-0.00140558
0.000162429
0.00222255
-0.0055977
0.008254
-0.000887563
-0.000316012
-0.000225861
-0.000230219
-0.000174838
-0.00012582
-9.94572e-05
-0.00010514
-0.000124988
-0.00016023
-0.000238906
-0.000375606
-0.000592691
-0.000956691
-0.00149778
-0.00218907
-0.00291098
-0.00346626
-0.00363582
-0.00323754
-0.00243363
-0.00189423
-0.00218185
-0.00238311
-0.0006145
0.00149981
0.000158067
-3.9011e-05
0.00181409
8.62076e-05
0.0012385
-8.18247e-06
0.00110213
0.000742758
-0.000423868
0.000217621
0.00053371
0.00104118
0.00143768
-0.000548551
-0.00129558
-0.00122029
-0.00141276
-0.00143027
-0.00147206
-0.00154369
-0.00146398
-0.00123948
-0.000893761
-0.00039403
0.000395532
0.00165183
0.00309468
0.0040073
0.00343943
-0.000229901
-0.00766708
-0.0151082
-0.0152824
-0.00275151
0.012165
0.0062482
-0.00707529
0.00447684
0.00513076
-0.00373498
0.00496837
-0.00454526
0.00262316
-0.00447457
0.00281974
0.000382752
0.00210476
-0.000826445
0.000800524
0.00166714
-0.00489984
0.00559674
-0.00102795
-0.00057693
-0.000344783
-0.00027036
-0.000169085
-0.000115122
-0.000106527
-0.000133528
-0.000170007
-0.000212733
-0.000292672
-0.000423951
-0.00063031
-0.000976186
-0.00148928
-0.00213544
-0.00280251
-0.00330468
-0.00343879
-0.00304213
-0.00227972
-0.00178939
-0.00208289
-0.00227169
-0.000559923
0.00151562
0.00020742
-0.000130943
0.00177674
0.00016668
0.00109724
6.47419e-05
0.00102073
0.000812335
-0.000433886
0.000122585
0.000280916
0.000690317
0.00169217
-0.000597118
-0.00125602
-0.00100433
-0.00114138
-0.00114501
-0.00117472
-0.00124444
-0.00118906
-0.00100401
-0.000690968
-0.000204375
0.000561221
0.00171212
0.00296464
0.00368399
0.0030091
-0.00057512
-0.00762873
-0.014736
-0.0147678
-0.00262528
0.011761
0.00630428
-0.00683577
0.00396371
0.00522736
-0.00418707
0.00481134
-0.00369472
0.00183035
-0.00403285
0.00176284
0.000710878
0.00162461
-0.000360782
0.00122681
0.00112133
-0.00381944
0.00285966
-0.00123412
-0.000608816
-0.000319219
-0.000193881
-9.64341e-05
-7.9294e-05
-0.000106878
-0.000161718
-0.000218079
-0.000272544
-0.000359356
-0.000492119
-0.000694222
-0.0010267
-0.00151232
-0.00211189
-0.0027194
-0.00316315
-0.00325772
-0.00286168
-0.00213995
-0.00169684
-0.00199299
-0.00216461
-0.000513535
0.00151301
0.000245388
-0.000228733
0.00171997
0.000244332
0.000950892
0.000130067
0.000933904
0.000880161
-0.000409941
6.55755e-05
-2.90652e-05
0.000391308
0.00154207
-0.000735076
-0.00118705
-0.000907259
-0.00103405
-0.00103164
-0.00104015
-0.00109222
-0.00103907
-0.000871231
-0.000571454
-8.00979e-05
0.000683319
0.00176296
0.00286083
0.00340435
0.00261403
-0.000873459
-0.00753833
-0.0142701
-0.0141992
-0.00258154
0.0111039
0.00618664
-0.00660533
0.00335169
0.00514587
-0.00461073
0.00453884
-0.00285562
0.00116261
-0.00357732
0.000718257
0.000892376
0.000827103
-2.98895e-05
0.00137463
0.000539189
-0.00265949
0.000385629
-0.00123499
-0.000484571
-0.00020032
-6.7221e-05
-8.61689e-06
-3.60845e-05
-9.45524e-05
-0.000170124
-0.000240754
-0.000305027
-0.000400286
-0.000538577
-0.000741672
-0.00106649
-0.00152793
-0.0020812
-0.00263012
-0.00301417
-0.00306967
-0.00267556
-0.00199622
-0.00159884
-0.00189357
-0.00204415
-0.00045829
0.00150633
0.000286795
-0.000315104
0.00165076
0.000322509
0.00080842
0.000192251
0.000839931
0.000939614
-0.000344817
5.33042e-05
-0.000347018
0.000154574
0.00113126
-0.000798085
-0.00107948
-0.000866823
-0.0010123
-0.00100837
-0.000997697
-0.00103166
-0.000976292
-0.000819575
-0.000528956
-2.99663e-05
0.000739171
0.0017728
0.00275408
0.00315193
0.00226127
-0.00111207
-0.00738183
-0.0137046
-0.0135324
-0.00252591
0.010299
0.00592579
-0.00633973
0.00269766
0.00493211
-0.00497744
0.00415034
-0.00204218
0.000640166
-0.00309267
-0.000206882
0.000958502
-0.00015997
0.000158874
0.00123503
-0.000116244
-0.00161977
-0.00168008
-0.00104777
-0.000327002
-7.60621e-05
2.52654e-05
4.00437e-05
-1.75989e-05
-9.2638e-05
-0.000176698
-0.000252044
-0.000321104
-0.000422129
-0.000566103
-0.000773443
-0.00109519
-0.00153662
-0.00204844
-0.00254136
-0.00286911
-0.00288703
-0.00249687
-0.00185953
-0.00150338
-0.00178978
-0.00191362
-0.000394288
0.00149859
0.000335369
-0.000382502
0.00157308
0.000401426
0.000677301
0.000254015
0.000738234
0.000986557
-0.000237972
8.63354e-05
-0.000624257
-2.19186e-05
0.000596166
-0.000726393
-0.000932041
-0.000814531
-0.000981083
-0.00097386
-0.000949739
-0.000971156
-0.000918062
-0.000777034
-0.000503718
-9.87135e-06
0.000755751
0.00174969
0.00264128
0.00292411
0.00195916
-0.00127798
-0.00713899
-0.0129967
-0.0127203
-0.00243616
0.00942236
0.00558097
-0.00600168
0.00206774
0.0046361
-0.00525695
0.00366636
-0.00127061
0.000266662
-0.00258339
-0.000930085
0.000939291
-0.0011942
0.000225394
0.000869107
-0.000804662
-0.000792821
-0.003207
-0.000818064
-0.000200906
1.8157e-06
5.80952e-05
4.21114e-05
-2.69439e-05
-0.000104483
-0.000186128
-0.000258482
-0.000327768
-0.00043121
-0.000579653
-0.000792367
-0.00111382
-0.00153902
-0.00201482
-0.0024572
-0.00273417
-0.00271934
-0.00233566
-0.00174088
-0.00142127
-0.00169199
-0.00178261
-0.000329045
0.00148543
0.000387188
-0.000431649
0.00148638
0.00047644
0.000560448
0.000316652
0.000625005
0.00101312
-9.60206e-05
0.000157496
-0.000817415
-0.000146976
5.37605e-05
-0.000589385
-0.000786336
-0.00074763
-0.000912945
-0.000896994
-0.000864239
-0.000876359
-0.000829863
-0.000710363
-0.000464144
6.41838e-06
0.000748449
0.00169575
0.00250916
0.00270341
0.0016943
-0.00138314
-0.00681946
-0.0121691
-0.0118145
-0.00234281
0.00851966
0.00519984
-0.00556791
0.00152242
0.00430496
-0.00542711
0.0031047
-0.000570986
2.47669e-05
-0.00207208
-0.00140142
0.000869203
-0.0021332
0.000223918
0.000382965
-0.0014096
-0.000181614
-0.00406887
-0.000633274
-0.000120616
2.48431e-05
4.47175e-05
1.58854e-05
-4.80012e-05
-0.000116657
-0.000188213
-0.000252693
-0.000318707
-0.000421844
-0.000573432
-0.000791608
-0.00111337
-0.00152543
-0.00197003
-0.00236842
-0.00260142
-0.00256129
-0.0021886
-0.00163748
-0.00135165
-0.00160149
-0.00165499
-0.000264414
0.00146729
0.000440268
-0.000463255
0.00139219
0.00054672
0.000461327
0.000379892
0.000501173
0.00101277
6.88457e-05
0.000253028
-0.000896119
-0.000231701
-0.000403282
-0.000465674
-0.000680299
-0.000679637
-0.000817815
-0.000790621
-0.000750178
-0.000753325
-0.000714168
-0.00061722
-0.000403665
2.86484e-05
0.000727355
0.00161474
0.00235319
0.00247618
0.00145197
-0.00144544
-0.00644353
-0.0112747
-0.0108662
-0.00223641
0.00762417
0.00481559
-0.00503333
0.00109712
0.00397621
-0.00547862
0.00247855
2.02215e-05
-0.000121308
-0.00158388
-0.0015974
0.000786904
-0.00285299
0.000228337
-0.000107358
-0.00179185
0.000259565
-0.00420206
-0.000511718
-9.54528e-05
1.52881e-06
2.16775e-06
-2.43127e-05
-7.23402e-05
-0.000125915
-0.000184631
-0.000239628
-0.000300709
-0.00040241
-0.000556132
-0.00077777
-0.00109851
-0.00149701
-0.00191262
-0.00227165
-0.00246674
-0.00240757
-0.00205157
-0.00154592
-0.00129198
-0.00151749
-0.00153158
-0.000202566
0.00144371
0.000492025
-0.000480031
0.00129119
0.00061163
0.000382551
0.000440027
0.000371149
0.000984881
0.000241241
0.00035605
-0.000848041
-0.000286547
-0.000714276
-0.000384634
-0.000621062
-0.000609001
-0.000710141
-0.000670518
-0.000622492
-0.000615086
-0.000581529
-0.000503865
-0.000322638
6.3674e-05
0.000704807
0.0015191
0.00217908
0.0022405
0.00122241
-0.00148273
-0.00603714
-0.0103568
-0.00990835
-0.00211042
0.00676218
0.00444728
-0.00441803
0.000801948
0.00367124
-0.00541117
0.00180676
0.000477409
-0.000205398
-0.00114188
-0.00152578
0.000727236
-0.00326857
0.000305112
-0.000507507
-0.00185147
0.000580259
-0.0036498
-0.000452493
-0.000127774
-5.14768e-05
-5.52127e-05
-7.00293e-05
-9.87891e-05
-0.000137519
-0.000185417
-0.000232882
-0.000290003
-0.000390956
-0.00054614
-0.000768371
-0.00108419
-0.00146584
-0.00185048
-0.00217126
-0.00233183
-0.00225751
-0.00192097
-0.00146097
-0.00123727
-0.00143604
-0.00141026
-0.000142412
0.00141534
0.000542165
-0.000480897
0.00118434
0.000668671
0.000327181
0.000499424
0.000237933
0.000929467
0.000403397
0.000451431
-0.000679176
-0.000319327
-0.000850894
-0.000345616
-0.000591198
-0.000537576
-0.000605559
-0.00055477
-0.000498124
-0.000479736
-0.000447629
-0.000382938
-0.000228525
0.000112007
0.000689297
0.00142186
0.00199922
0.00200487
0.00100542
-0.00150232
-0.00561887
-0.0094442
-0.00896607
-0.0019736
0.00594173
0.00409927
-0.00375308
0.000633486
0.00340349
-0.00522744
0.00112124
0.000788742
-0.000260976
-0.000766299
-0.00122749
0.000706167
-0.00335396
0.000488043
-0.000764532
-0.00156618
0.000801989
-0.00256413
-0.000451868
-0.000195162
-0.000113441
-0.000113209
-0.000113251
-0.000125523
-0.000154029
-0.000195999
-0.000240145
-0.000296442
-0.00039878
-0.000555312
-0.000775974
-0.00108336
-0.00144427
-0.0017959
-0.00207784
-0.00220469
-0.00211774
-0.00180078
-0.00138455
-0.00118737
-0.00135729
-0.00129229
-8.58949e-05
0.00138087
0.000588389
-0.000468117
0.00107093
0.00071369
0.000295392
0.000559402
0.00010568
0.00084793
0.000535937
0.000525824
-0.000413227
-0.000334005
-0.000815668
-0.000339755
-0.000573113
-0.000475538
-0.000521131
-0.000460681
-0.000395815
-0.000366876
-0.000332021
-0.000272861
-0.000136756
0.000165334
0.000681558
0.0013324
0.00182747
0.00178262
0.000811377
-0.00149989
-0.00519331
-0.00855318
-0.00805837
-0.00184239
0.00516631
0.00376541
-0.00306476
0.00057969
0.00318211
-0.00493361
0.000454008
0.000959883
-0.000313576
-0.000475382
-0.000774201
0.000718593
-0.00314085
0.000766071
-0.000873009
-0.000994822
0.000912566
-0.00117428
-0.000488044
-0.000262061
-0.000164134
-0.000156384
-0.000143834
-0.000145937
-0.000169874
-0.000210548
-0.000255271
-0.000313884
-0.000419742
-0.000578502
-0.000796982
-0.00109461
-0.00143314
-0.00175106
-0.00199538
-0.00209071
-0.00199247
-0.00169463
-0.00131924
-0.00114407
-0.00128331
-0.0011808
-3.60158e-05
0.00133846
0.000627191
-0.00044629
0.000949453
0.00074126
0.000284598
0.000620046
-2.04474e-05
0.000744876
0.000621157
0.000568868
-8.8567e-05
-0.000330201
-0.000637733
-0.000354032
-0.000558149
-0.000433006
-0.000465591
-0.000399231
-0.000328596
-0.000291707
-0.000251853
-0.000192859
-6.69163e-05
0.000206473
0.000669826
0.00124557
0.00166572
0.001579
0.000644956
-0.00147319
-0.00476633
-0.0076949
-0.00720576
-0.0017174
0.00443968
0.00343303
-0.00238733
0.000619444
0.00301493
-0.00453479
-0.000158075
0.00100218
-0.000385124
-0.000286774
-0.000257154
0.000734093
-0.00271212
0.00109041
-0.000868078
-0.000255723
0.000880854
0.000258773
-0.000524989
-0.000300978
-0.000189897
-0.000174114
-0.000154213
-0.000152552
-0.000175699
-0.00021743
-0.000264487
-0.00032688
-0.000436906
-0.000598306
-0.000815012
-0.00110294
-0.00142045
-0.00170749
-0.00191755
-0.00198547
-0.0018788
-0.00160023
-0.00126218
-0.00110499
-0.0012124
-0.00107469
7.78071e-06
0.00128975
0.000658064
-0.000416392
0.000820651
0.000748793
0.000291509
0.000682165
-0.000133603
0.000628687
0.0006468
0.000575027
0.00024841
-0.000305407
-0.000363727
-0.000371668
-0.000539772
-0.000407863
-0.000434496
-0.000366924
-0.000295015
-0.000254255
-0.000210454
-0.000149639
-2.89416e-05
0.000223646
0.000643254
0.00115437
0.00151084
0.00139459
0.000507124
-0.0014212
-0.0043408
-0.00688185
-0.00640603
-0.00161325
0.00375601
0.00309078
-0.00175933
0.000725416
0.00289686
-0.00404109
-0.000678539
0.000938652
-0.00049108
-0.000210892
0.000232502
0.000719925
-0.00217463
0.00139055
-0.000809064
0.000506458
0.000678823
0.00148765
-0.000535115
-0.000304448
-0.000188387
-0.00016605
-0.000144693
-0.000143988
-0.000168042
-0.000210821
-0.000259969
-0.000325509
-0.00043872
-0.000602261
-0.000817514
-0.00109659
-0.00139532
-0.00165541
-0.0018372
-0.00188334
-0.00177222
-0.00151371
-0.00121017
-0.00106689
-0.00114182
-0.000972532
4.78584e-05
0.00123695
0.000682691
-0.000381267
0.000686749
0.00073379
0.000312369
0.000744421
-0.000225282
0.000509124
0.000608929
0.000543819
0.000550495
-0.000257265
-4.91741e-05
-0.000377109
-0.000512419
-0.00038843
-0.000413683
-0.000349583
-0.000280731
-0.000240308
-0.000195463
-0.000134148
-1.75564e-05
0.000218408
0.000601068
0.00105701
0.00136159
0.00122923
0.000398305
-0.0013438
-0.00391545
-0.00611065
-0.0056642
-0.00153435
0.00310599
0.00273009
-0.001202
0.000867125
0.00281791
-0.00347311
-0.00108176
0.000800585
-0.000632162
-0.00024588
0.000616227
0.000642633
-0.00163845
0.00159527
-0.000760729
0.00115507
0.000301951
0.00232518
-0.000510954
-0.000280123
-0.000166358
-0.000140598
-0.000122274
-0.000124971
-0.000150245
-0.000193425
-0.000243539
-0.000310817
-0.00042548
-0.000589713
-0.000802644
-0.00107298
-0.00135491
-0.00159222
-0.00175078
-0.00178132
-0.00167054
-0.00143244
-0.00116044
-0.00102749
-0.00107061
-0.000872678
8.54538e-05
0.00118369
0.000702944
-0.000339608
0.000552038
0.000697938
0.0003428
0.000805753
-0.000288056
0.000397622
0.000511559
0.000479491
0.000777349
-0.000186842
0.00025061
-0.00036411
-0.000472854
-0.000364868
-0.000391185
-0.000333573
-0.000270738
-0.000233748
-0.000191191
-0.000132146
-2.13359e-05
0.000198425
0.000547708
0.000955873
0.00121915
0.00108185
0.000316595
-0.00124312
-0.00349502
-0.00538326
-0.00498576
-0.00147136
0.00249124
0.00235256
-0.000740713
0.00101539
0.00276218
-0.00285574
-0.00135296
0.000619639
-0.000793309
-0.000371631
0.000850615
0.000489093
-0.00118794
0.00165572
-0.000771604
0.00158986
-0.000218772
0.00267438
-0.000461216
-0.000239767
-0.000133778
-0.000108183
-9.53344e-05
-0.000102334
-0.000128723
-0.000171526
-0.000221565
-0.000289271
-0.000403742
-0.000567013
-0.000776111
-0.00103698
-0.00130312
-0.00152046
-0.00166078
-0.00168079
-0.00157383
-0.001357
-0.00111365
-0.000987533
-0.000998427
-0.000775756
0.000121639
0.00113211
0.000720401
-0.000290197
0.000420272
0.000641678
0.00037755
0.000865032
-0.000314777
0.000305551
0.000367192
0.000389856
0.000900958
-9.96554e-05
0.000488317
-0.000335188
-0.000422888
-0.00033428
-0.000362098
-0.000311882
-0.000256281
-0.000224221
-0.000186385
-0.00013238
-2.99526e-05
0.000172117
0.000488953
0.000854085
0.0010835
0.000951283
0.000258065
-0.00112426
-0.00308176
-0.00470218
-0.00436687
-0.00142169
0.00191827
0.00196227
-0.000384745
0.00114323
0.00271302
-0.00221746
-0.00148312
0.000428992
-0.000954624
-0.000558677
0.000922594
0.000264397
-0.000874195
0.00155371
-0.000861369
0.00176512
-0.000815842
0.00254311
-0.000398261
-0.000193608
-9.94901e-05
-7.69116e-05
-7.03145e-05
-8.14267e-05
-0.000108653
-0.000150628
-0.000199969
-0.000267241
-0.000380308
-0.000541074
-0.000744774
-0.000994749
-0.00124508
-0.00144484
-0.00157007
-0.00158396
-0.00148369
-0.0012885
-0.00107043
-0.000948149
-0.000927791
-0.000683325
0.000154646
0.0010813
0.000735658
-0.00023572
0.000295123
0.000565578
0.000409941
0.000918351
-0.000301124
0.000241789
0.000195687
0.000284971
0.000910291
-6.84588e-06
0.00063146
-0.000296455
-0.000366932
-0.000298435
-0.000326294
-0.000283037
-0.000234648
-0.000207561
-0.00017568
-0.000128601
-3.68697e-05
0.000145394
0.000429781
0.000754315
0.000955997
0.00083454
0.000217961
-0.000993438
-0.00268203
-0.00406778
-0.00380427
-0.00137967
0.00139532
0.00156868
-0.000135504
0.00122914
0.00265158
-0.00159198
-0.00148304
0.000258598
-0.00108725
-0.000763944
0.000855756
-1.56501e-06
-0.000703138
0.00131095
-0.00101509
0.00169123
-0.00139565
0.00203903
-0.000331645
-0.000148492
-6.89619e-05
-5.10857e-05
-5.05171e-05
-6.49754e-05
-9.25658e-05
-0.000133433
-0.000181739
-0.000248063
-0.000359041
-0.000515969
-0.000712794
-0.000950919
-0.00118511
-0.00136839
-0.00148153
-0.00149186
-0.00140098
-0.00122677
-0.00103159
-0.000910622
-0.000860262
-0.000597633
0.00018342
0.00103186
0.000748083
-0.000175825
0.000179775
0.000473878
0.000433215
0.000961489
-0.000247668
0.000212662
1.87689e-05
0.000177439
0.00081143
7.78557e-05
0.000665652
-0.000253458
-0.000310604
-0.000260221
-0.000286038
-0.000248506
-0.000206518
-0.000183661
-0.000157764
-0.000118369
-3.8629e-05
0.000122431
0.000373913
0.000660065
0.000836807
0.000730063
0.000190589
-0.000857969
-0.00230227
-0.00348423
-0.00329552
-0.00133775
0.000928413
0.00118314
1.28794e-05
0.00125928
0.00256231
-0.00100645
-0.00136978
0.00013014
-0.0011667
-0.000944971
0.000695727
-0.000266521
-0.000645951
0.000977823
-0.00118951
0.00143043
-0.0018583
0.00133531
-0.000267809
-0.00010906
-4.49332e-05
-3.24191e-05
-3.6989e-05
-5.36809e-05
-8.11228e-05
-0.000120701
-0.000167843
-0.000232975
-0.00034137
-0.000493888
-0.000682546
-0.000907892
-0.00112598
-0.0012939
-0.0013965
-0.00140591
-0.0013254
-0.00117159
-0.000996339
-0.000874912
-0.00079682
-0.000519553
0.000207247
0.00098336
0.000758071
-0.000112741
7.73906e-05
0.00036801
0.000441053
0.000988722
-0.000159405
0.000219514
-0.000140118
7.90814e-05
0.000627841
0.000140261
0.000595352
-0.000210624
-0.000257997
-0.000221882
-0.000243803
-0.000210656
-0.000173796
-0.000153928
-0.00013329
-0.00010129
-3.36704e-05
0.00010569
0.000324808
0.000573941
0.000728163
0.000636977
0.000172501
-0.000724684
-0.00194907
-0.00295242
-0.0028354
-0.00129041
0.000524455
0.000818802
7.36591e-05
0.00122831
0.00243415
-0.000489332
-0.00117013
5.55095e-05
-0.00117427
-0.00106743
0.000496288
-0.000486125
-0.000652158
0.000620881
-0.00132802
0.0010711
-0.00212069
0.000623824
-0.000211207
-7.80869e-05
-2.8295e-05
-2.10657e-05
-2.95782e-05
-4.73978e-05
-7.42365e-05
-0.000112501
-0.000158517
-0.000222395
-0.000328191
-0.00047569
-0.000655463
-0.000867205
-0.00106917
-0.00122231
-0.00131622
-0.00132579
-0.00125617
-0.00112164
-0.000964075
-0.000841224
-0.000737861
-0.00044951
0.000225779
0.000935834
0.000765133
-4.71624e-05
-9.10279e-06
0.00025447
0.00042829
0.000994558
-4.64965e-05
0.00025968
-0.000259379
1.83346e-06
0.000393694
0.000170421
0.000441348
-0.000171129
-0.000211627
-0.000185301
-0.000202206
-0.000172132
-0.000139146
-0.000120994
-0.000104423
-7.87954e-05