/*--------------------------------*- C++ -*----------------------------------*\
| =========                 |                                                 |
| \\      /  F ield         | OpenFOAM: The Open Source CFD Toolbox           |
|  \\    /   O peration     | Version:  2312                                  |
|   \\  /    A nd           | Website:  www.openfoam.com                      |
|    \\/     M anipulation  |                                                 |
\*---------------------------------------------------------------------------*/
FoamFile
{
    version     2.0;
    format      ascii;
    arch        "LSB;label=32;scalar=64";
    class       volScalarField;
    location    "100";
    object      p;
}
// * * * * * * * * * * * * * * * * * * * * * * * * * * * * * * * * * * * * * //

dimensions      [0 2 -2 0 0 0 0];

internalField   nonuniform List<scalar> 
10720
(
19.4026
-45.7261
-122.723
-200.162
-273.626
-349.211
-417.828
-477.162
-529.896
-572.813
-607.297
-634.325
-654.396
-668.69
-677.877
-681.524
-680.508
-673.778
-661.736
-642.046
-614.424
-577.64
-535.193
-491.166
-451.111
-415.783
-387.121
-336.196
-279.224
-245.072
-217.456
-183.166
-143.571
-101.157
-68.6473
-56.3778
-68.9361
-39.9331
5.39977
82.9789
140.255
199.131
252.587
296.28
325.629
337.867
338.577
328.983
308.659
283.413
257.502
232.386
208.853
187.457
167.642
149.275
131.83
115.009
98.2761
81.5482
64.4909
47.2634
30.2619
15.4847
4.17559
-4.76912
-11.9658
-17.5883
-21.5502
-23.8802
-24.7547
-24.2282
-22.4599
-19.6155
-15.7064
-11.1635
-3.53416
11.6432
97.3011
48.1009
-7.65616
-67.6855
-130.146
-194.793
-258.39
-318.895
-375.514
-426.519
-471.434
-510.066
-542.471
-568.784
-588.939
-602.658
-610.076
-610.87
-605.282
-591.965
-569.746
-538.302
-500.66
-462.582
-428.597
-390.953
-354.987
-322.991
-291.28
-256.724
-221.067
-183.593
-143.47
-101.3
-68.8013
-56.3
-69.3806
-40.8809
3.41049
141.094
182.259
222.511
260.316
292.246
315.385
327.392
329.069
320.98
304.774
283.969
261.361
238.407
216.023
194.835
174.831
155.965
137.964
120.576
103.435
86.4404
69.3402
52.2251
35.555
20.8966
9.15915
-0.474681
-8.34675
-14.4523
-18.7744
-21.4276
-22.6249
-22.4147
-20.9497
-18.3798
-14.6806
-10.342
-1.61466
13.5832
105.683
61.6616
11.4865
-44.3855
-103.076
-164.035
-225.666
-285.506
-342.035
-394.175
-440.669
-481.081
-515.117
-542.483
-563.258
-577.8
-586.363
-588.619
-584.443
-572.824
-553.008
-523.82
-488.133
-450.667
-416.247
-382.967
-348.972
-319.938
-290.12
-255.286
-219.061
-181.741
-142.607
-101.835
-69.7703
-56.1382
-69.8853
-40.871
3.03091
144.933
182.342
218.782
252.449
280.348
300.704
312.248
315.103
309.516
296.822
279.271
259.055
237.722
216.324
195.592
175.792
156.963
138.975
121.613
104.57
87.7007
70.8653
54.0851
37.7492
23.107
11.0734
1.20611
-6.8185
-13.0555
-17.539
-20.3739
-21.7364
-21.6598
-20.3
-17.7943
-14.1264
-9.55387
-0.738814
14.6872
118.504
81.524
38.8625
-8.51998
-58.8013
-111.977
-166.456
-220.569
-273.09
-322.871
-368.81
-410.193
-446.462
-477.252
-502.372
-521.882
-535.769
-543.461
-544.555
-538.323
-524.045
-501.668
-473.58
-440.791
-405.348
-379.864
-347.798
-317.794
-287.075
-252.848
-217.247
-180.426
-142.074
-102.589
-71.1895
-56.5916
-69.8683
-39.8342
4.92246
151.318
182.364
212.953
241.729
265.922
284.155
295.359
299.221
295.787
286.107
271.8
254.562
235.713
216.239
196.857
177.94
159.634
141.929
124.701
107.749
90.9636
74.2514
57.6405
41.5168
26.9057
14.6616
4.54814
-3.74714
-10.2908
-15.102
-18.2554
-19.9048
-20.0859
-18.9594
-16.6541
-13.126
-8.563
0.222957
15.905
119.581
86.7377
48.6772
6.15621
-39.0691
-87.416
-137.564
-188.032
-237.897
-286.037
-331.355
-373.049
-410.415
-442.895
-470.09
-491.811
-507.655
-517.306
-520.304
-516.144
-504.279
-484.951
-459.37
-430.101
-399.005
-373.739
-342.763
-312.934
-282.755
-249.642
-214.971
-178.929
-141.453
-103.159
-72.5113
-57.4153
-68.7732
-37.8394
7.06458
148.777
176.258
203.446
229.078
250.711
267.401
278.311
282.948
281.269
274.088
262.576
248.03
231.516
213.915
195.922
177.967
160.288
142.982
126.019
109.295
92.7248
76.2554
59.9453
44.1323
29.648
17.2688
6.93715
-1.59306
-8.37924
-13.434
-16.8122
-18.6689
-19.0338
-18.0672
-15.8865
-12.431
-7.8292
0.895155
15.9175
118.573
89.4648
55.5943
17.7795
-22.4095
-65.6557
-110.753
-156.521
-202.29
-247.053
-289.881
-330.026
-366.743
-399.4
-427.502
-450.671
-468.477
-480.654
-486.647
-485.869
-477.813
-462.65
-441.667
-417.861
-392.039
-364.873
-335.388
-306.732
-277.673
-245.811
-212.165
-177.021
-140.589
-103.531
-73.6736
-58.1502
-66.9523
-35.536
8.21573
144.469
168.78
193.028
216.069
235.645
251.131
261.761
266.934
266.624
261.447
252.291
240.172
225.934
210.318
193.954
177.265
160.53
143.91
127.451
111.123
94.8851
78.728
62.7285
47.1984
32.8413
20.3638
9.83964
1.09734
-5.9179
-11.219
-14.8499
-16.9542
-17.5519
-16.7973
-14.7956
-11.4737
-6.89817
1.72294
15.4784
114.974
88.7238
58.1042
23.9085
-12.3408
-51.5302
-92.5958
-134.51
-176.833
-218.675
-259.241
-297.867
-333.808
-366.407
-395.106
-419.402
-438.806
-452.817
-460.857
-462.312
-456.795
-444.55
-426.774
-405.809
-382.213
-355.427
-328.129
-300.902
-272.784
-241.98
-209.307
-175.075
-139.713
-103.894
-74.7762
-58.7576
-64.9453
-33.2773
9.45178
138.356
160.252
182.225
203.216
221.156
235.66
246.003
251.534
252.274
248.694
241.488
231.465
219.288
205.562
190.828
175.472
159.78
143.956
128.104
112.257
96.4254
80.637
64.9877
49.7714
35.5914
23.0856
12.4192
3.49623
-3.7279
-9.26332
-13.1376
-15.4712
-16.2761
-15.7031
-13.8502
-10.6311
-6.06672
2.43214
15.3831
110.333
86.5026
58.6578
27.5934
-5.22815
-40.802
-78.157
-116.399
-155.244
-193.939
-231.797
-268.267
-302.67
-334.37
-362.786
-387.366
-407.544
-422.777
-432.519
-436.171
-433.327
-424.187
-409.725
-391.651
-370.78
-346.116
-320.868
-294.862
-267.607
-237.88
-206.252
-173.005
-138.765
-104.227
-75.8308
-59.2972
-62.913
-31.1334
11.0717
131.598
151.48
171.56
190.851
207.435
221.1
231.145
236.906
238.439
236.119
230.509
222.268
211.923
199.959
186.829
172.859
158.323
143.436
128.337
113.103
97.7862
82.448
67.2027
52.3305
38.3655
25.8858
15.1199
6.04545
-1.36495
-7.11712
-11.2209
-13.7802
-14.8011
-14.428
-12.7482
-9.66185
-5.14647
3.17326
15.6024
105.028
83.2141
57.7011
29.2632
-0.676238
-33.1632
-67.3209
-102.345
-138.083
-173.878
-209.16
-243.485
-276.241
-306.841
-334.724
-359.314
-380.009
-396.239
-407.371
-412.795
-412.073
-405.407
-393.63
-377.996
-359.193
-336.831
-313.307
-288.479
-262.202
-233.615
-203.07
-170.84
-137.733
-104.477
-76.8157
-59.7699
-60.9006
-29.1693
12.4772
124.528
142.743
161.243
179.102
194.536
207.468
217.209
223.108
225.232
223.905
219.593
212.849
204.099
193.731
182.112
169.509
156.164
142.284
128.02
113.479
98.7494
83.9188
69.1175
54.6187
40.9044
28.503
17.6838
8.4903
0.917297
-5.03502
-9.36027
-12.1412
-13.375
-13.1954
-11.6807
-8.71975
-4.25631
3.86837
15.9498
99.4558
79.3694
55.8649
29.6995
2.25191
-27.5417
-58.8674
-90.9996
-123.878
-156.925
-189.675
-221.772
-252.677
-281.881
-308.851
-333.014
-353.775
-370.527
-382.633
-389.507
-390.683
-386.318
-377.087
-363.87
-347.215
-327.168
-305.343
-281.826
-256.656
-229.232
-199.784
-168.599
-136.629
-104.626
-77.7067
-60.1634
-58.9465
-27.419
13.3267
117.447
134.24
151.388
168.012
182.46
194.73
204.166
210.129
212.691
212.144
208.886
203.39
196.013
187.064
176.842
165.555
153.405
140.576
127.217
113.45
99.383
85.1255
70.8207
56.7349
43.3141
31.046
20.2241
10.9486
3.24108
-2.89032
-7.42219
-10.4156
-11.8589
-11.8756
-10.5342
-7.71273
-3.32597
4.57972
16.3321
93.8154
75.2231
53.4613
29.269
3.9878
-23.4534
-52.2912
-81.8642
-112.164
-142.691
-173.064
-203.008
-232.053
-259.758
-285.643
-309.168
-329.747
-346.776
-359.59
-367.622
-370.366
-367.929
-360.884
-349.844
-335.222
-317.279
-297.136
-274.982
-250.958
-224.695
-196.364
-166.264
-135.443
-104.66
-78.4738
-60.4787
-57.0743
-25.8669
13.7305
110.499
126.066
142.041
157.588
171.174
182.842
191.965
197.938
200.819
200.883
198.477
194.019
187.814
180.113
171.158
161.108
150.121
138.352
125.936
112.995
99.6485
86.0177
72.2531
58.6154
45.5264
33.4405
22.6635
13.3424
5.52797
-0.761456
-5.48594
-8.68401
-10.3331
-10.544
-9.37521
-6.69555
-2.39763
5.2818
16.692
88.2422
70.9607
50.7318
28.2768
4.89714
-20.4691
-47.0999
-74.3834
-102.355
-130.571
-158.717
-186.589
-213.782
-239.925
-264.589
-287.273
-307.425
-324.454
-337.692
-346.588
-350.634
-349.875
-344.785
-335.773
-323.09
-307.115
-288.671
-267.907
-245.061
-219.977
-192.802
-163.83
-134.166
-104.571
-79.0972
-60.7196
-55.2937
-24.4936
13.7709
103.783
118.277
133.219
147.814
160.636
171.747
180.557
186.496
189.603
190.144
188.428
184.831
179.619
173.004
165.185
156.278
146.4
135.676
124.217
112.139
99.5585
86.6023
73.4211
60.2705
47.5534
35.6988
25.0164
15.69
7.80048
1.37797
-3.52094
-6.91153
-8.75961
-9.16308
-8.16966
-5.6402
-1.44996
5.9882
17.0192
82.8192
66.6954
47.8259
26.9111
5.21416
-18.3102
-42.9768
-68.2111
-94.0829
-120.196
-146.284
-172.201
-197.603
-222.179
-245.558
-267.286
-286.85
-303.681
-317.129
-326.646
-331.743
-332.393
-328.989
-321.794
-310.915
-296.776
-279.995
-260.619
-238.977
-215.098
-189.107
-161.296
-132.793
-104.353
-79.5708
-60.8855
-53.6084
-23.2998
13.4931
97.3456
110.896
124.916
138.661
150.792
161.389
169.892
175.758
179.022
179.932
178.775
175.889
171.519
165.845
159.032
151.164
142.326
132.611
122.105
110.905
99.1199
86.8732
74.312
61.6842
49.3768
37.798
27.257
17.9654
10.0324
3.5023
-1.55218
-5.12292
-7.16273
-7.75558
-6.93782
-4.56364
-0.496333
6.68891
17.3072
77.5952
62.5031
44.8491
25.3109
5.11496
-16.7639
-39.673
-63.0664
-87.0419
-111.238
-135.429
-159.515
-183.205
-206.242
-228.311
-249.007
-267.854
-284.321
-297.783
-307.699
-313.617
-315.443
-313.497
-307.93
-298.73
-286.306
-271.125
-253.131
-232.721
-210.07
-185.282
-158.654
-131.311
-103.999
-79.8929
-60.9751
-52.0193
-22.3042
12.9508
91.2151
103.922
117.118
130.094
141.597
151.714
159.914
165.683
169.045
170.242
169.536
167.24
163.579
158.715
152.787
145.857
137.98
129.223
119.646
109.323
98.3495
86.8378
74.9274
62.8549
50.9926
39.7323
29.3786
20.1627
12.2201
5.61039
0.421861
-3.31383
-5.53596
-6.31397
-5.67234
-3.4601
0.467359
7.38575
17.5594
72.5992
58.4363
41.8763
23.5773
4.72769
-15.6734
-36.9993
-58.7352
-80.9924
-103.44
-125.887
-148.27
-170.344
-191.899
-212.665
-232.289
-250.337
-266.316
-279.639
-289.774
-296.306
-299.091
-298.385
-294.251
-286.588
-275.748
-262.092
-245.469
-226.31
-204.897
-181.323
-155.894
-129.71
-103.504
-80.0641
-60.9918
-50.5265
-21.5278
12.1849
85.4027
97.3501
109.798
122.075
133.001
142.666
150.571
156.222
159.639
161.055
160.712
158.904
155.843
151.676
146.523
140.431
133.435
125.575
116.888
107.426
97.2651
86.5039
75.2678
63.7778
52.3925
41.4898
31.3666
22.267
14.3495
7.68909
2.3894
-1.49477
-3.88879
-4.84663
-4.38047
-2.33573
1.43625
8.07435
17.778
67.8458
54.5271
38.959
21.783
4.14806
-14.9163
-34.8102
-55.0459
-75.7427
-96.5951
-117.443
-138.25
-158.806
-178.942
-198.436
-216.974
-234.171
-249.572
-262.63
-272.829
-279.794
-283.348
-283.681
-280.799
-274.524
-265.144
-252.935
-237.66
-219.756
-199.584
-177.227
-153.008
-127.982
-102.864
-80.0879
-60.9423
-49.1363
-20.9736
11.2182
79.9088
91.1668
102.931
114.568
124.958
134.197
141.816
147.335
150.771
152.351
152.303
150.898
148.343
144.773
140.297
134.95
128.751
121.721
113.876
105.248
95.8901
85.8832
75.3359
64.4512
53.5723
43.0626
33.2106
24.2673
16.4101
9.72951
4.34356
0.329457
-2.22419
-3.35496
-3.06279
-1.19098
2.41012
8.75403
17.9669
63.3417
50.7927
36.129
19.9775
3.4443
-14.4051
-32.9997
-51.8714
-71.1475
-90.546
-109.926
-129.272
-148.409
-167.202
-185.465
-202.929
-219.247
-234.006
-246.701
-256.84
-264.081
-268.233
-269.426
-267.619
-262.585
-254.542
-243.692
-229.73
-213.072
-194.134
-172.995
-149.993
-126.124
-102.082
-79.9695
-60.8327
-47.8588
-20.6232
10.0752
74.7273
85.3558
96.4904
107.537
117.431
126.264
133.603
138.981
142.409
144.111
144.297
143.227
141.099
138.041
134.154
129.465
123.984
117.716
110.66
102.827
94.2517
84.9934
75.1412
64.8778
54.5287
44.4435
34.9002
26.1516
18.3901
11.7206
6.27454
2.15055
-0.549093
-1.84454
-1.72389
-0.0296719
3.38634
9.42268
18.1293
59.0853
47.2415
33.4096
18.1941
2.66863
-14.0741
-31.482
-49.1112
-67.09
-85.1574
-103.189
-121.188
-139.004
-156.532
-173.618
-190.029
-205.459
-219.534
-231.79
-241.769
-249.15
-253.751
-255.641
-254.748
-250.813
-243.986
-234.402
-221.704
-206.273
-188.558
-168.633
-146.849
-124.135
-101.155
-79.7123
-60.6646
-46.704
-20.4474
8.7871
69.8477
79.8974
90.4513
100.951
110.379
118.829
125.895
131.123
134.524
136.311
136.686
135.893
134.126
131.507
128.131
124.022
119.182
113.608
107.283
100.202
92.3794
83.855
74.6964
65.0635
55.2626
45.6285
36.4274
27.9099
20.2789
13.6522
8.17331
3.96103
1.1304
-0.31995
-0.36728
1.14547
4.36315
10.0793
18.2693
55.0707
43.8773
30.8112
16.4596
1.85646
-13.87
-30.1918
-46.6827
-63.4759
-80.3234
-97.117
-113.872
-130.461
-146.801
-162.768
-178.159
-192.707
-206.075
-217.84
-227.578
-234.987
-239.905
-242.347
-242.218
-239.244
-233.513
-225.101
-213.612
-199.379
-182.868
-164.149
-143.579
-122.014
-100.084
-79.3175
-60.4368
-45.6761
-20.4194
7.38057
65.2575
74.7724
84.7885
94.7782
103.769
111.855
118.656
123.73
127.086
128.93
129.454
128.892
127.429
125.187
122.255
118.656
114.389
109.441
103.788
97.4098
90.3043
82.4907
74.0159
65.0166
55.7775
46.6162
37.7865
29.5335
22.0665
15.514
10.0304
5.75249
2.80722
1.21305
1.00241
2.33073
5.33846
10.7227
18.3904
51.291
40.7
28.3431
14.7899
1.03786
-13.7542
-29.0764
-44.524
-60.2286
-75.9562
-91.6097
-107.217
-122.666
-137.894
-152.803
-167.216
-180.9
-193.552
-204.789
-214.223
-221.57
-226.691
-229.556
-230.055
-227.913
-223.161
-215.826
-205.483
-192.412
-177.079
-159.55
-140.183
-119.759
-98.8654
-78.787
-60.1473
-44.7729
-20.5201
5.87399
60.9431
69.9625
79.4782
88.9913
97.5696
105.309
111.852
116.77
120.068
121.948
122.59
122.218
121.013
119.094
116.548
113.397
109.637
105.253
100.213
94.4872
88.0576
80.9261
73.1189
64.7495
56.0786
47.4063
38.9728
31.0144
23.7432
17.2963
11.8363
7.51625
4.474
2.74834
2.38017
3.52238
6.31015
11.3521
18.4959
47.7372
37.7065
26.0096
13.198
0.232589
-13.6956
-28.0967
-42.5833
-57.2859
-71.9828
-86.5879
-101.134
-115.528
-129.719
-143.629
-157.11
-169.953
-181.892
-192.578
-201.661
-208.874
-214.101
-217.275
-218.282
-216.849
-212.966
-206.612
-197.348
-185.395
-171.209
-154.848
-136.666
-117.371
-97.4994
-78.1234
-59.7953
-43.9867
-20.7367
4.28066
56.892
65.4495
74.4978
83.5631
91.7526
99.1621
105.455
110.217
113.447
115.343
116.077
115.863
114.877
113.235
111.024
108.264
104.955
101.076
96.5939
91.4677
85.6698
79.1867
72.0254
64.2753
56.1734
48.0011
39.9835
32.3463
25.3005
18.9891
13.5811
9.24318
6.12274
4.27898
3.76029
4.71607
7.27591
11.9671
18.5894
44.4002
34.8923
23.8106
11.6902
-0.544589
-13.6724
-27.2208
-40.8204
-54.5969
-68.3439
-81.9813
-95.5493
-108.963
-122.188
-135.163
-147.756
-159.791
-171.026
-181.151
-189.849
-196.871
-202.121
-205.509
-206.913
-206.078
-202.958
-197.492
-189.236
-178.352
-165.274
-150.053
-133.033
-114.85
-95.9875
-77.3307
-59.3813
-43.3079
-21.0579
2.61397
53.0901
61.2163
69.826
78.4698
86.2916
93.3872
99.4383
104.042
107.198
109.095
109.901
109.817
109.017
107.614
105.693
103.278
100.366
96.939
92.9593
88.3822
83.1707
77.2984
70.7555
63.6089
56.0717
48.4052
40.8186
33.5248
26.731
20.5835
15.2553
10.924
7.74504
5.79754
5.13648
5.90712
8.23314
12.5673
18.6739
41.2704
32.2509
21.7454
10.2708
-1.28541
-13.6679
-26.4256
-39.2031
-52.1244
-64.9918
-77.7353
-90.397
-102.903
-115.229
-127.326
-139.083
-150.342
-160.893
-170.455
-178.745
-185.533
-190.737
-194.256
-195.964
-195.624
-193.165
-188.498
-181.176
-171.308
-159.293
-145.179
-129.291
-112.202
-94.3328
-76.4137
-58.9059
-42.7254
-21.4719
0.889425
49.5242
57.2477
65.4448
73.6902
81.1642
87.96
93.7768
98.2242
101.299
103.188
104.047
104.071
103.429
102.232
100.564
98.4491
95.8886
92.8638
89.3362
85.2589
80.5882
75.2871
69.3316
62.7684
55.786
48.6254
41.4797
34.5471
28.0285
22.0715
16.85
12.5495
9.3324
7.29627
6.50205
7.09043
9.1791
13.1524
18.7521
38.3377
29.7763
19.8107
8.94118
-1.98137
-13.6698
-25.6917
-37.7062
-49.8336
-61.8881
-73.8037
-85.6263
-97.2897
-108.778
-120.055
-131.022
-141.545
-151.432
-160.438
-168.307
-174.829
-179.932
-183.511
-185.441
-185.502
-183.613
-179.658
-173.197
-164.286
-153.286
-140.241
-125.451
-109.431
-92.5408
-75.3775
-58.3698
-42.2272
-21.9641
-0.874579
46.1823
53.5272
61.3361
69.2053
76.3488
82.8575
88.4476
92.7404
95.732
97.6025
98.5017
98.6139
98.1062
97.0876
95.639
93.7887
91.5379
88.8705
85.7484
82.1237
77.9484
73.1781
67.7766
61.772
55.3301
48.6706
41.9704
35.4128
29.1892
23.4461
18.3568
14.1112
10.8761
8.76701
7.84999
8.26065
10.1107
13.7222
18.8263
35.5922
27.4617
18.0035
7.70138
-2.62797
-13.6682
-25.0035
-36.3078
-47.6982
-58.9978
-70.1458
-81.1896
-92.0712
-102.781
-113.29
-123.516
-133.339
-142.591
-151.052
-158.494
-164.73
-169.687
-173.268
-175.347
-175.729
-174.325
-170.998
-165.325
-157.311
-147.274
-135.254
-121.525
-106.547
-90.6174
-74.2283
-57.7734
-41.8022
-22.5195
-2.65994
43.0519
50.0405
57.4827
64.995
71.8241
78.0584
83.43
87.5715
90.4776
92.3225
93.2497
93.4357
93.043
92.1784
90.9216
89.3028
87.3252
84.9746
82.2148
78.9982
75.2748
70.9943
66.1115
60.6386
54.7184
48.5512
42.2967
36.1228
30.2101
24.7021
19.7682
15.6002
12.3678
10.2018
9.17296
9.41212
11.0244
14.2765
18.8983
33.0244
25.3
16.3192
6.55047
-3.22281
-13.6562
-24.3498
-34.9918
-45.6959
-56.2933
-66.7288
-77.0494
-87.204
-97.1894
-106.982
-116.512
-125.674
-134.319
-142.252
-149.269
-155.203
-159.982
-163.518
-165.686
-166.316
-165.317
-162.542
-157.584
-150.404
-141.277
-130.236
-117.526
-103.558
-88.5723
-72.9713
-57.1183
-41.4377
-23.1225
-4.44942
40.1213
46.7734
53.8687
61.0418
67.5713
73.5437
78.7039
82.6978
85.5174
87.3318
88.2779
88.5248
88.2306
87.4997
86.4106
84.9947
83.2579
81.188
78.7514
75.9018
72.5884
68.7574
64.3572
59.3858
53.9664
48.2785
42.4657
36.6798
31.09
25.8346
21.0775
17.0088
13.7993
11.5924
10.4635
10.5389
11.9167
14.8147
18.9695
30.6251
23.2832
14.7532
5.48664
-3.76422
-13.6282
-23.721
-33.7441
-43.808
-53.7512
-63.5241
-73.1726
-82.652
-91.962
-101.087
-109.964
-118.502
-126.571
-133.994
-140.594
-146.217
-150.794
-154.247
-156.453
-157.269
-156.606
-154.311
-149.996
-143.589
-135.315
-125.203
-113.468
-100.475
-86.4138
-71.6147
-56.405
-41.1218
-23.7591
-6.22653
37.3787
43.7128
50.4793
57.3302
63.5736
69.2954
74.2519
78.1015
80.8345
82.6146
83.5725
83.8697
83.66
83.0456
82.1036
80.8663
79.342
77.5206
75.3714
72.8505
69.9077
66.4876
62.5337
58.0334
53.0902
47.865
42.4856
37.0884
31.8293
26.8406
22.2788
18.3297
15.1625
12.931
11.7144
11.635
12.7838
15.336
19.0407
28.3845
21.4047
13.2998
4.50753
-4.25229
-13.5809
-23.1099
-32.5545
-42.0196
-51.3531
-60.5085
-69.5322
-78.3824
-87.0641
-95.5646
-103.83
-111.783
-119.305
-126.241
-132.432
-137.742
-142.102
-145.442
-147.645
-148.592
-148.203
-146.32
-142.583
-136.885
-129.408
-120.173
-109.367
-97.3128
-84.1537
-70.1641
-55.6347
-40.8416
-24.4131
-7.97539
34.8132
40.8463
47.3011
53.8448
59.8151
65.2971
70.0571
73.7662
76.4132
78.1563
79.1203
79.4592
79.3228
78.8102
77.9972
76.9172
75.5801
73.9787
72.0851
69.8578
67.2486
64.2028
60.6599
56.5985
52.1055
47.3238
42.3662
37.354
32.4297
27.7184
23.3679
19.5562
16.45
14.2097
12.9183
12.6945
13.6215
15.8394
19.1124
26.2938
19.6565
11.9538
3.60967
-4.68753
-13.5126
-22.5116
-31.4134
-40.3185
-49.0825
-57.6615
-66.1029
-74.3679
-82.4633
-90.3817
-98.0763
-105.478
-112.483
-118.955
-124.751
-129.749
-133.882
-137.087
-139.255
-140.288
-140.116
-138.586
-135.361
-130.311
-123.575
-115.165
-105.239
-94.0834
-81.8041
-68.6271
-54.8076
-40.5814
-25.0695
-9.67906
32.4147
38.1622
44.3204
50.5712
56.2809
61.5329
66.1041
69.6764
72.2384
73.9427
74.9081
75.2817
75.2088
74.7858
74.0863
73.1451
71.9736
70.5668
68.9
66.935
64.626
61.9188
58.7522
55.098
51.0279
46.6682
42.1181
37.4838
32.8947
28.4678
24.341
20.683
17.6551
15.4213
14.0684
13.7114
14.426
16.3233
19.1844
24.3445
18.0314
10.7099
2.78945
-5.07114
-13.4213
-21.9218
-30.3136
-38.6938
-46.9248
-54.9663
-62.8641
-70.5835
-78.1329
-85.508
-92.6684
-99.5539
-106.072
-112.103
-117.52
-122.211
-126.112
-129.166
-131.272
-132.354
-132.351
-131.119
-128.345
-123.884
-117.832
-110.194
-101.102
-90.8026
-79.3763
-67.0107
-53.9235
-40.3275
-25.7113
-11.32
30.173
35.6492
41.5253
47.497
52.9575
57.989
62.3783
65.818
68.2964
69.9605
70.9236
71.3262
71.3082
70.9646
70.3656
69.5473
68.5224
67.2879
65.8223
64.091
62.0508
59.6497
56.8265
53.5479
49.8727
45.9121
41.7523
37.4857
33.2287
29.0897
25.1962
21.7053
18.7716
16.559
15.158
14.68
15.1931
16.786
19.2562
22.528
16.5227
9.56243
2.0434
-5.40489
-13.307
-21.3379
-29.2504
-37.138
-44.8701
-52.4085
-59.7989
-67.0094
-74.0493
-80.9175
-87.5787
-93.9809
-100.042
-105.655
-110.708
-115.101
-118.768
-121.662
-123.687
-124.786
-124.911
-123.927
-121.549
-117.62
-112.197
-105.278
-96.9694
-87.4848
-76.8837
-65.3212
-52.982
-40.064
-26.3224
-12.881
28.0788
33.2972
38.9045
44.6099
49.8321
54.6523
58.8662
62.178
64.5745
66.1976
67.1553
67.5817
67.6122
67.3383
66.8287
66.1194
65.2246
64.1428
62.856
61.3328
59.5332
57.4077
54.8965
51.9629
48.6546
45.0689
41.2803
37.3687
33.4374
29.5864
25.9323
22.6197
19.7944
17.6172
16.1814
15.595
15.9191
17.2251
19.3268
20.8367
15.1235
8.5062
1.36761
-5.69093
-13.1698
-20.7579
-28.2197
-35.6447
-42.9086
-49.9766
-56.8925
-63.6277
-70.192
-76.5872
-82.7824
-88.7318
-94.3635
-99.5826
-104.29
-108.394
-111.831
-114.558
-116.487
-117.579
-117.797
-117.017
-114.982
-111.53
-106.684
-100.433
-92.8591
-84.1454
-74.3383
-63.5658
-51.9826
-39.776
-26.8865
-14.3451
26.1232
31.0967
36.4477
41.8984
46.893
51.5106
55.556
58.7439
61.0602
62.642
63.5921
64.0384
64.1111
63.899
63.4689
62.8567
62.0773
61.1315
60.0034
58.6654
57.0808
55.2031
52.9747
50.3566
47.3873
44.1517
40.7139
37.1419
33.5273
29.9612
26.5498
23.4237
20.719
18.5906
17.1332
16.4513
16.6002
17.6385
19.3951
19.2629
13.8273
7.5359
0.758199
-5.93145
-13.0103
-20.1803
-27.2174
-34.2075
-41.0321
-47.6596
-54.1318
-60.4228
-66.5437
-72.497
-78.2568
-83.7829
-89.0123
-93.8605
-98.2388
-102.065
-105.277
-107.835
-109.66
-110.726
-111.006
-110.392
-108.653
-105.626
-101.306
-95.6718
-88.785
-80.7993
-71.7528
-61.7519
-50.924
-39.4495
-27.3883
-15.6969
24.2979
29.0381
34.1448
39.3523
44.1293
48.5528
52.4364
55.5043
57.7427
59.2831
60.2235
60.6857
60.7954
60.6386
60.2793
59.7536
59.0772
58.2519
57.2653
56.0921
54.6996
53.0442
51.0711
48.7406
46.0832
43.1729
40.0644
36.8153
33.5057
30.2187
27.0498
24.1159
21.542
19.4746
18.0086
17.2446
17.233
18.0235
19.4596
17.7993
12.6278
6.6463
0.211289
-6.12884
-12.8294
-19.6046
-26.2417
-32.8221
-39.2343
-45.4486
-51.5055
-57.3812
-63.0876
-68.6289
-73.9822
-79.1129
-83.9657
-88.4651
-92.5327
-96.0932
-99.0866
-101.476
-103.192
-104.216
-104.537
-104.055
-102.569
-99.9178
-96.0742
-91.0084
-84.762
-77.461
-69.1401
-59.887
-49.8074
-39.0721
-27.8139
-16.9247
22.5948
27.1128
31.9865
36.9619
41.5307
45.7684
49.4963
52.4488
54.6113
56.1104
57.0395
57.5146
57.6565
57.5487
57.2529
56.8045
56.2197
55.5022
54.6411
53.6149
52.3937
50.9376
49.1945
47.1253
44.7538
42.1443
39.3431
36.3987
33.3809
30.3644
27.435
24.6962
22.2611
20.2655
18.8035
17.9709
17.8145
18.3778
19.5183
16.4391
11.5189
5.83237
-0.277058
-6.28591
-12.6283
-19.0306
-25.2901
-31.4854
-37.5099
-43.3366
-49.0046
-54.492
-59.811
-64.9672
-69.941
-74.7022
-79.2024
-83.3749
-87.1493
-90.4568
-93.2403
-95.4642
-97.068
-98.0419
-98.3822
-98.0051
-96.7331
-94.4132
-90.9995
-86.4549
-80.8031
-74.1447
-66.5129
-57.9799
-48.6337
-38.6348
-28.1529
-18.0196
21.0064
25.3126
29.964
34.7175
39.0874
43.1472
46.7258
49.5673
51.6561
53.1143
54.031
54.5161
54.6864
54.6223
54.383
54.0033
53.5004
52.8789
52.1297
51.2344
50.166
48.8883
47.3523
45.5197
43.4094
41.0766
38.5607
35.9021
33.1609
30.4045
27.7091
25.1656
22.8749
20.9609
19.5146
18.6269
18.3422
18.699
19.5695
15.1758
10.4949
5.08915
-0.710676
-6.40522
-12.4083
-18.4577
-24.3612
-30.1937
-35.8538
-41.3168
-46.6204
-51.7443
-56.7015
-61.4981
-66.1176
-70.5336
-74.7042
-78.5702
-82.0686
-85.1364
-87.7191
-89.7826
-91.2743
-92.1909
-92.5365
-92.2404
-91.1485
-89.1182
-86.0904
-82.0219
-76.9205
-70.8637
-63.8833
-56.0396
-47.4058
-38.1313
-28.3968
-18.9766
19.5255
23.6299
28.069
32.6107
36.7904
40.6799
44.1152
46.8498
48.8677
50.2858
51.1892
51.682
51.877
51.8513
51.6624
51.3442
50.9144
50.3781
49.7288
48.95
48.0179
46.8995
45.5498
43.9314
42.0586
39.9796
37.7274
35.3351
32.8546
30.3459
27.8768
25.5262
23.3833
21.5588
20.1393
19.2102
18.8136
18.9848
19.611
14.003
9.55026
4.4119
-1.09345
-6.48959
-12.171
-17.8867
-23.454
-28.9445
-34.262
-39.3834
-44.3456
-49.1294
-53.7481
-58.2089
-62.4977
-66.5917
-70.4542
-74.0332
-77.2724
-80.1136
-82.5052
-84.4145
-85.7965
-86.652
-86.9915
-86.757
-85.8158
-84.0373
-81.3547
-77.7191
-73.1252
-67.6299
-61.2633
-54.0753
-46.1281
-37.5577
-28.5409
-19.7937
18.1455
22.0573
26.2938
30.633
34.6309
38.3573
41.6554
44.2874
46.2368
47.6158
48.5052
49.004
49.2204
49.229
49.0847
48.8213
48.4563
47.996
47.4354
46.7603
45.9497
44.9739
43.791
42.3659
40.7089
38.8618
36.8521
34.707
32.4705
30.1959
27.9434
25.7814
23.7872
22.0585
20.676
19.7186
19.2269
19.2333
19.6405
12.9152
8.67984
3.79615
-1.4289
-6.54174
-11.9181
-17.3178
-22.5674
-27.7352
-32.7304
-37.5315
-42.1735
-46.6392
-50.9416
-55.0889
-59.0687
-62.8622
-66.4373
-69.7478
-72.7434
-75.3713
-77.582
-79.3444
-80.62
-81.4125
-81.7384
-81.5499
-80.7341
-79.1734
-76.7978
-73.5544
-69.4271
-64.4545
-58.6636
-52.0965
-44.806
-36.9136
-28.5831
-20.4717
16.8598
20.5883
24.631
28.7768
32.6009
36.1713
39.3377
41.8714
43.7548
45.0957
45.9708
46.4739
46.709
46.7479
46.6433
46.4286
46.1212
45.7283
45.2463
44.6633
43.9609
43.1121
42.0787
40.8277
39.3663
37.7305
35.9433
34.0263
32.017
29.9623
27.9154
25.9353
24.0888
22.4602
21.1237
20.1506
19.5804
19.4425
19.6556
11.907
7.8786
3.23769
-1.72059
-6.56446
-11.6511
-16.7516
-21.7009
-26.5646
-31.2564
-35.7564
-40.0983
-44.2662
-48.2733
-52.1277
-55.8195
-59.3327
-62.6394
-65.699
-68.4665
-70.8934
-72.9335
-74.5568
-75.7303
-76.4603
-76.7672
-76.6124
-75.9007
-74.5281
-72.4242
-69.5345
-65.8346
-61.3469
-56.0945
-50.1122
-43.4452
-36.2005
-28.5238
-21.0133
15.663
19.2164
23.0742
27.0349
30.6927
34.1137
37.1539
39.593
41.4131
42.7172
43.5779
44.0841
44.3355
44.4012
44.3319
44.1602
43.9039
43.5705
43.1582
42.6567
42.0502
41.3145
40.415
39.3204
38.0358
36.592
35.008
33.301
31.5021
29.6525
27.7992
25.993
24.2911
22.7653
21.4822
20.5054
19.8727
19.6108
19.6538
10.9733
7.14221
2.73248
-1.97189
-6.56013
-11.372
-16.1888
-20.8542
-25.4307
-29.8368
-34.0539
-38.1145
-42.0037
-45.7348
-49.3161
-52.7394
-55.9915
-59.0479
-61.8732
-64.4271
-66.6653
-68.545
-70.0372
-71.1139
-71.7829
-72.0672
-71.9368
-71.3116
-70.1008
-68.2367
-65.6649
-62.3545
-58.315
-53.5643
-48.1303
-42.0519
-35.4215
-28.3648
-21.4222
14.5494
17.9359
21.617
25.4009
28.8995
32.1773
35.0965
37.4447
39.2039
40.4721
41.3184
41.8267
42.0924
42.182
42.1441
42.0106
41.7993
41.5185
41.1675
40.7381
40.2164
39.581
38.8007
37.8463
36.7211
35.4514
34.0526
32.538
30.9332
29.2741
27.6018
25.9604
24.3983
22.9761
21.7524
20.7828
20.1028
19.7366
19.6324
10.1095
6.4664
2.27693
-2.18585
-6.53135
-11.0824
-15.6303
-20.0273
-24.3326
-28.4695
-32.4208
-36.2175
-39.8459
-43.3191
-46.6456
-49.8187
-52.8274
-55.6508
-58.2577
-60.612
-62.6736
-64.4026
-65.7718
-66.7569
-67.3674
-67.6276
-67.5146
-66.9612
-65.8897
-64.2365
-61.9489
-58.9924
-55.3654
-51.0801
-46.1582
-40.6323
-34.5806
-28.1091
-21.7026
13.5141
16.7412
20.2537
23.8682
27.2146
30.355
33.1579
35.419
37.1194
38.353
39.1849
39.6943
39.9726
40.0835
40.0736
39.9739
39.8024
39.5679
39.2708
38.9046
38.4576
37.9109
37.2364
36.4074
35.4255
34.313
33.0824
31.7434
30.3172
28.8341
27.3302
25.8436
24.4154
23.096
21.9361
20.9833
20.2704
19.8185
19.5891
9.3111
5.84725
1.86758
-2.36532
-6.48018
-10.7838
-15.0769
-19.2199
-23.2693
-27.1525
-30.8538
-34.4029
-37.7872
-41.0194
-44.1084
-47.0485
-49.8307
-52.4372
-54.8407
-57.0088
-58.9053
-60.4931
-61.7473
-62.6467
-63.2016
-63.4372
-63.3365
-62.8432
-61.8913
-60.4232
-58.3891
-55.7523
-52.5034
-48.648
-44.202
-39.192
-33.6824
-27.7607
-21.8596
12.5522
15.6272
18.9782
22.431
25.6314
28.6401
31.3315
33.5087
35.1525
36.3523
37.1698
37.6796
37.969
38.0989
38.1139
38.0443
37.9081
37.7143
37.4645
37.1536
36.772
36.3034
35.7224
35.0049
34.1513
33.1803
32.1019
30.9229
29.6602
28.3392
26.9913
25.6493
24.3481
23.1292
22.0359
21.1082
20.3754
19.8555
19.5215
8.57402
5.28093
1.50124
-2.51304
-6.40868
-10.4776
-14.5295
-18.4322
-22.2398
-25.8839
-29.3501
-32.6669
-35.8226
-38.8297
-41.6971
-44.4203
-46.9922
-49.3971
-51.6111
-53.6059
-55.3483
-56.8045
-57.9513
-58.7707
-59.2732
-59.4846
-59.3925
-58.9499
-58.1012
-56.7954
-54.9864
-52.6376
-49.733
-46.2729
-42.2671
-37.7361
-32.7319
-27.3245
-21.8984
11.6591
14.5888
17.7854
21.0833
24.1439
27.0264
29.6105
31.7069
33.2961
34.4631
35.2662
35.7755
36.0745
36.2214
36.2587
36.216
36.111
35.9531
35.7446
35.4823
35.1579
34.7575
34.2589
33.6401
32.9007
32.0566
31.1152
30.0813
28.9677
27.7955
26.5915
25.3839
24.2022
23.0806
22.0554
21.1596
20.4187
19.8472
19.4279
7.89418
4.76393
1.17469
-2.63149
-6.31908
-10.1652
-13.9885
-17.664
-21.2435
-24.6623
-27.9074
-31.0061
-33.9479
-36.7447
-39.4054
-41.9267
-44.3028
-46.5204
-48.5587
-50.3922
-51.9911
-53.3249
-54.3718
-55.1169
-55.5707
-55.7588
-55.6726
-55.2734
-54.5141
-53.3503
-51.7408
-49.6498
-47.0574
-43.9588
-40.3582
-36.2699
-31.7346
-26.8062
-21.8257
10.8303
13.6212
16.67
19.8195
22.7462
25.5075
27.9886
30.0074
31.5437
32.6787
33.4672
33.9753
34.2825
34.4445
34.5018
34.4831
34.4058
34.2795
34.1074
33.8874
33.6129
33.2721
32.8456
32.3138
31.6756
30.9444
30.126
29.223
28.2449
27.2088
26.137
25.0538
23.984
22.9558
21.999
21.1405
20.4017
19.7936
19.3072
7.2677
4.29274
0.884944
-2.72319
-6.21319
-9.84787
-13.4546
-16.9153
-20.2794
-23.486
-26.5232
-29.4173
-32.1588
-34.7591
-37.2273
-39.5606
-41.7549
-43.7986
-45.6735
-47.3574
-48.8232
-50.0432
-50.9976
-51.6738
-52.0824
-52.2487
-52.167
-51.8049
-51.1233
-50.0841
-48.6509
-46.7899
-44.4792
-41.7094
-38.4798
-34.7989