/*--------------------------------*- C++ -*----------------------------------*\
| =========                 |                                                 |
| \\      /  F ield         | OpenFOAM: The Open Source CFD Toolbox           |
|  \\    /   O peration     | Version:  2312                                  |
|   \\  /    A nd           | Website:  www.openfoam.com                      |
|    \\/     M anipulation  |                                                 |
\*---------------------------------------------------------------------------*/
FoamFile
{
    version     2.0;
    format      ascii;
    arch        "LSB;label=32;scalar=64";
    class       surfaceScalarField;
    location    "100";
    object      phi;
}
// * * * * * * * * * * * * * * * * * * * * * * * * * * * * * * * * * * * * * //

dimensions      [0 3 -1 0 0 0 0];

oriented        oriented;

internalField   nonuniform List<scalar> 
21254
(
-0.207795
0.22776
-0.0199642
0.249993
-0.0222375
0.269593
-0.0196008
0.287331
-0.0177375
0.304213
-0.0168786
0.318071
-0.0138549
0.329308
-0.0112365
0.338614
-0.00930735
0.345077
-0.00646612
0.34963
-0.00455706
0.352448
-0.00282425
0.353303
-0.000861835
0.352381
0.000915713
0.34937
0.00300686
0.344035
0.00533745
0.336641
0.00740686
0.327212
0.00944924
0.316478
0.0107526
0.305784
0.0106966
0.29763
0.00812194
0.294437
0.00311695
0.298039
-0.00367036
0.303998
-0.00595352
0.307253
-0.00317471
0.306379
0.000852296
0.302591
0.00367866
0.294337
0.00828098
0.28469
0.00967639
0.276052
0.00859964
0.265904
0.0100713
0.250454
0.0154421
0.225331
0.0255682
0.178918
0.0462702
0.0998542
0.0783912
0.00644236
0.0932971
0.019303
-0.005876
-0.0533685
0.0728787
-0.0938496
0.036768
0.0492407
-0.143445
-0.184718
-0.0230806
-0.160635
-0.0240869
-0.131438
-0.0291918
-0.0996955
-0.0317361
-0.066489
-0.0332023
-0.0325695
-0.0339167
0.000172815
-0.0327426
0.0305832
-0.0304134
0.0584671
-0.0278863
0.0828588
-0.0243902
0.103615
-0.0207552
0.121035
-0.0174198
0.135522
-0.0144853
0.147496
-0.0119717
0.157697
-0.0102006
0.166417
-0.00872241
0.174129
-0.00771656
0.181059
-0.00694082
0.187494
-0.00645089
0.193562
-0.00609045
0.199436
-0.00589692
0.205085
-0.00566825
0.210431
-0.00535832
0.214775
-0.00435529
0.217914
-0.0031581
0.220135
-0.00224264
0.221428
-0.00128736
0.221682
-0.000224081
0.220467
0.00120681
0.217614
0.0028321
0.2131
0.00454769
0.206846
0.00627372
0.198884
0.00796228
0.189019
0.00982216
0.176948
0.0121103
0.16254
0.0144686
0.147697
0.014799
0.157816
-0.0101435
0.181574
-0.0237401
-0.189453
0.210791
-0.0413001
0.232689
-0.0441402
0.255676
-0.0425942
0.277227
-0.0393045
0.29836
-0.0380269
0.318131
-0.0336425
0.336109
-0.0292304
0.352557
-0.0257698
0.36711
-0.0210299
0.379837
-0.0172893
0.390799
-0.0137864
0.400173
-0.0102289
0.40841
-0.00730867
0.415899
-0.00445959
0.422627
-0.00135883
0.428154
0.00191372
0.432087
0.00552878
0.433863
0.00894056
0.43184
0.0126104
0.424895
0.0149088
0.410954
0.0169514
0.389256
0.0180108
0.36578
0.0175298
0.348409
0.0141677
0.336416
0.0128708
0.326952
0.013101
0.317241
0.0179858
0.306726
0.0201777
0.296042
0.019241
0.285951
0.0203501
0.276729
0.0245703
0.269629
0.0325354
0.260377
0.0553375
0.221686
0.117714
0.131167
0.184306
0.00147118
0.11803
-0.049157
0.122837
-0.0337459
0.0200906
0.0536174
-0.230888
-0.167717
-0.0448164
-0.144434
-0.047374
-0.117199
-0.0564375
-0.0884581
-0.0604831
-0.0579856
-0.063678
-0.0261556
-0.0657496
0.0057694
-0.0646608
0.0357509
-0.0603842
0.0626283
-0.0547618
0.0865029
-0.0482663
0.107213
-0.0414677
0.125153
-0.0353631
0.140711
-0.0300478
0.154096
-0.0253653
0.165781
-0.0218991
0.176071
-0.0190299
0.185248
-0.0169187
0.193604
-0.0153304
0.201401
-0.0142866
0.208766
-0.0134962
0.215858
-0.0130257
0.222725
-0.0125673
0.229278
-0.0119401
0.235037
-0.0101423
0.239747
-0.00788047
0.243644
-0.00613213
0.246701
-0.0043422
0.249213
-0.00271777
0.251567
-0.00112315
0.253868
0.000525625
0.256142
0.00231108
0.25822
0.00418323
0.259959
0.00625884
0.261112
0.00868106
0.261465
0.011751
0.260071
0.0158745
0.258704
0.0161629
0.242706
0.0058638
0.219283
-0.000335272
-0.184137
0.205845
-0.0630121
0.22779
-0.0660837
0.251527
-0.0663284
0.273309
-0.0610834
0.294132
-0.0588481
0.314127
-0.0536391
0.332015
-0.0471221
0.348173
-0.0419345
0.362165
-0.035031
0.374219
-0.0293532
0.38435
-0.0239279
0.39269
-0.0185768
0.399029
-0.0136505
0.403797
-0.00922127
0.406733
-0.00427571
0.40863
4.1166e-05
0.409433
0.00474274
0.409712
0.00864914
0.40927
0.0129971
0.407936
0.0161588
0.405328
0.0194824
0.400205
0.0231191
0.390271
0.0274648
0.376336
0.028085
0.362365
0.0268632
0.350067
0.025382
0.338955
0.0291011
0.327598
0.0315459
0.31535
0.0314373
0.30326
0.0325253
0.291561
0.0361965
0.280243
0.0438343
0.272628
0.062806
0.264849
0.125626
0.220097
0.229094
0.080773
0.256336
-0.0034977
0.206672
-0.000992665
0.0173272
0.0547335
-0.285913
-0.16233
-0.0666279
-0.138558
-0.0711405
-0.110192
-0.0848003
-0.0807671
-0.0899073
-0.0500896
-0.0943562
-0.0183368
-0.0975042
0.0129624
-0.0959632
0.0420268
-0.0894467
0.0684967
-0.0812316
0.0923486
-0.0721191
0.113258
-0.0623763
0.131465
-0.053568
0.147348
-0.0459305
0.161182
-0.0392012
0.173286
-0.0340078
0.184011
-0.0297644
0.193624
-0.0265491
0.202399
-0.0241303
0.210547
-0.022466
0.218214
-0.0211951
0.225602
-0.0204415
0.232727
-0.0197171
0.239474
-0.0187117
0.245527
-0.016221
0.250602
-0.0129644
0.25482
-0.0103415
0.258216
-0.00773921
0.260853
-0.00533893
0.262817
-0.00306408
0.264117
-0.000780991
0.264965
0.00150286
0.265365
0.00377577
0.265557
0.00609798
0.265605
0.00863469
0.265814
0.0115487
0.26602
0.0156961
0.26601
0.0161475
0.256388
0.0154927
0.239292
0.016743
-0.177755
0.200353
-0.0856165
0.223097
-0.0888373
0.248153
-0.0913934
0.271067
-0.0840069
0.293356
-0.0811477
0.3148
-0.0750954
0.334548
-0.0668815
0.352464
-0.0598589
0.368732
-0.0513046
0.383132
-0.0437562
0.395785
-0.0365817
0.406687
-0.0294771
0.415875
-0.0228302
0.42341
-0.0167379
0.429629
-0.0104685
0.434224
-0.00452443
0.437176
0.00180675
0.438146
0.00765534
0.437283
0.0137724
0.434353
0.0189664
0.429464
0.0243083
0.423349
0.0292438
0.414438
0.0364041
0.400922
0.0416258
0.387348
0.0404545
0.374611
0.038099
0.362469
0.0412687
0.350381
0.0436927
0.337514
0.0442014
0.3242
0.0458795
0.310053
0.050252
0.295349
0.0586805
0.280816
0.0771795
0.27581
0.130607
0.265929
0.238931
0.187344
0.334522
0.107083
0.287002
0.0690541
0.0570395
0.0620198
-0.278321
-0.155427
-0.0889606
-0.131551
-0.0950217
-0.102606
-0.113744
-0.0729466
-0.119564
-0.0420876
-0.125215
-0.0100798
-0.129508
0.0212055
-0.127248
0.0500265
-0.118267
0.076221
-0.107425
0.0998424
-0.0957397
0.120583
-0.0831164
0.138747
-0.0717325
0.154767
-0.0619533
0.16889
-0.0533292
0.181448
-0.0465731
0.19266
-0.0409893
0.20284
-0.0367485
0.212163
-0.03348
0.220871
-0.0312074
0.229094
-0.0294527
0.236946
-0.0283222
0.244499
-0.0272916
0.251676
-0.0259128
0.258141
-0.0227128
0.263658
-0.0184911
0.268299
-0.0149729
0.272088
-0.0115291
0.275103
-0.00833774
0.277384
-0.00531764
0.278964
-0.00236581
0.279945
0.000563402
0.280283
0.00342986
0.280091
0.00632386
0.279384
0.00934613
0.278249
0.0126885
0.276705
0.0172674
0.274389
0.0184409
0.266925
0.0229522
0.254096
0.0295623
-0.174578
0.198035
-0.109072
0.221681
-0.112487
0.248136
-0.117849
0.271812
-0.107686
0.295074
-0.104415
0.317549
-0.0975782
0.338109
-0.0874504
0.356888
-0.0786476
0.374148
-0.0685743
0.389262
-0.0588789
0.402599
-0.0499276
0.414093
-0.0409771
0.424001
-0.0327369
0.432011
-0.0247356
0.438301
-0.0167357
0.44284
-0.00903861
0.445748
-0.00108819
0.447068
0.00631039
0.446505
0.0142495
0.444222
0.0211248
0.440048
0.0284081
0.434301
0.0349934
0.428011
0.0427392
0.420311
0.0493751
0.411988
0.0487892
0.402372
0.0476645
0.392513
0.0511707
0.381523
0.054789
0.369032
0.0565372
0.355728
0.0593574
0.34068
0.0651664
0.324002
0.0755141
0.304273
0.0967481
0.289439
0.14536
0.285628
0.242667
0.258026
0.36199
0.217461
0.327794
0.159374
0.116574
0.0799937
-0.198662
-0.151208
-0.112335
-0.126601
-0.119629
-0.0964016
-0.143942
-0.0658734
-0.150091
-0.0342705
-0.156819
-0.00158667
-0.162192
0.0301836
-0.159019
0.05915
-0.147234
0.0853095
-0.133584
0.108853
-0.119282
0.129487
-0.103751
0.147602
-0.0898486
0.163695
-0.0780489
0.177983
-0.0676199
0.190791
-0.0593877
0.20239
-0.0525982
0.212959
-0.0473357
0.22269
-0.0432362
0.231787
-0.0403365
0.240392
-0.0380903
0.2486
-0.036559
0.256453
-0.0351683
0.263902
-0.0333878
0.270665
-0.0295039
0.276494
-0.024331
0.281433
-0.0199014
0.285485
-0.0155841
0.288728
-0.0115681
0.291197
-0.00776014
0.292894
-0.00406931
0.29395
-0.000452556
0.294369
0.00300408
0.294255
0.00647146
0.293582
0.0100239
0.292425
0.0138487
0.290732
0.0189882
0.287789
0.0213639
0.280754
0.0299662
0.268894
0.0414141
-0.172081
0.19655
-0.133542
0.221475
-0.137416
0.249284
-0.145664
0.274117
-0.132526
0.29836
-0.128668
0.32213
-0.121359
0.343601
-0.108932
0.363574
-0.0986301
0.381757
-0.0867644
0.398022
-0.0751493
0.412603
-0.0645115
0.425324
-0.0536963
0.436396
-0.0437992
0.44581
-0.0341279
0.453443
-0.0243369
0.459582
-0.0151437
0.463874
-0.00536154
0.46631
0.00384906
0.466895
0.0135723
0.465353
0.0225401
0.461696
0.031996
0.456207
0.0405223
0.449494
0.0494965
0.442254
0.0566537
0.434608
0.056466
0.425663
0.0566009
0.41651
0.0603199
0.406682
0.0646725
0.395432
0.0676274
0.383297
0.0717413
0.369406
0.0789061
0.353756
0.0912694
0.33471
0.11565
0.314407
0.165575
0.303111
0.253875
0.293388
0.37164
0.275157
0.346193
0.223863
0.168817
0.0999317
-0.0750306
-0.147738
-0.136683
-0.122294
-0.145073
-0.0907623
-0.175474
-0.0590723
-0.181783
-0.026423
-0.189469
0.00721488
-0.195829
0.0397551
-0.191558
0.0691775
-0.176656
0.0955335
-0.15994
0.119123
-0.142872
0.139718
-0.124347
0.157744
-0.107877
0.173801
-0.0941094
0.188156
-0.0819796
0.201116
-0.0723546
0.212942
-0.064437
0.223802
-0.0582165
0.233905
-0.0533675
0.243382
-0.0498476
0.252372
-0.0471143
0.26097
-0.0451876
0.269199
-0.0434223
0.276995
-0.0412108
0.284169
-0.0367085
0.290404
-0.030578
0.295701
-0.0251855
0.300116
-0.0200009
0.303669
-0.0151108
0.306423
-0.0104852
0.308372
-0.00602452
0.309647
-0.0016874
0.310211
0.00243243
0.31018
0.00653682
0.309582
0.0106272
0.308395
0.0150366
0.306647
0.0207625
0.303573
0.0244219
0.296745
0.0367652
0.284889
0.0532519
-0.170718
0.196503
-0.15933
0.222483
-0.163399
0.251845
-0.175032
0.277926
-0.158615
0.30339
-0.15414
0.328211
-0.146189
0.350797
-0.131528
0.371577
-0.11942
0.390737
-0.105934
0.407867
-0.092288
0.423203
-0.0798553
0.436875
-0.0673724
0.448761
-0.0556816
0.458929
-0.0442807
0.467435
-0.0328163
0.474099
-0.0217796
0.479036
-0.0102861
0.482075
0.000774631
0.483195
0.0123484
0.482297
0.0233075
0.479442
0.0347814
0.474841
0.0451738
0.468895
0.0554728
0.462427
0.063107
0.45539
0.063545
0.44695
0.0650019
0.43797
0.0692854
0.428486
0.074217
0.417757
0.0781963
0.406282
0.0834356
0.393309
0.0917306
0.379003
0.105691
0.36245
0.132076
0.343466
0.184474
0.327071
0.270167
0.315969
0.382652
0.303762
0.358497
0.260692
0.212624
0.121256
0.0633688
-0.145167
-0.162237
-0.118614
-0.171625
-0.0856124
-0.208478
-0.0525919
-0.214805
-0.0187048
-0.223355
0.0161975
-0.230729
0.0497626
-0.225122
0.0799106
-0.206803
0.106692
-0.186721
0.130519
-0.166701
0.151158
-0.144987
0.169149
-0.125869
0.18517
-0.110132
0.199525
-0.0963374
0.212546
-0.0853829
0.224517
-0.0764193
0.235621
-0.0693396
0.246003
-0.063776
0.255807
-0.0596838
0.265134
-0.0564743
0.274065
-0.0541464
0.282614
-0.0519944
0.290752
-0.0493739
0.298225
-0.0442121
0.304831
-0.0371945
0.310497
-0.0308362
0.315211
-0.0247159
0.319053
-0.0189429
0.32204
-0.0134419
0.324196
-0.00818723
0.325615
-0.00306676
0.326296
0.00174314
0.326366
0.00650139
0.325786
0.0112149
0.324632
0.0161888
0.322833
0.0225893
0.319665
0.027584
0.313353
0.0430687
0.30187
0.0646825
-0.169979
0.197097
-0.186451
0.224489
-0.190798
0.255517
-0.206067
0.282789
-0.185897
0.309516
-0.180877
0.335556
-0.172239
0.359126
-0.155109
0.381056
-0.141362
0.400991
-0.125879
0.418996
-0.110301
0.43531
-0.0961766
0.449785
-0.0818496
0.462496
-0.0683859
0.473564
-0.0553291
0.482926
-0.0421467
0.490529
-0.0293495
0.496366
-0.0161099
0.500313
-0.00321206
0.502217
0.010331
0.502052
0.0233362
0.499926
0.0368446
0.495959
0.0492109
0.490442
0.0610354
0.483958
0.0695186
0.476383
0.0711833
0.468003
0.0733393
0.459018
0.0782497
0.449558
0.0837457
0.438869
0.0887291
0.427512
0.0949858
0.414797
0.1043
0.401101
0.119512
0.38604
0.147025
0.370277
0.200168
0.354424
0.285904
0.340236
0.396728
0.326619
0.372205
0.283738
0.255952
0.137686
0.208393
-0.143192
-0.189028
-0.115474
-0.199345
-0.0807579
-0.243195
-0.0462061
-0.249357
-0.0108691
-0.25869
0.0254448
-0.267041
0.0602775
-0.259954
0.0913396
-0.237866
0.118724
-0.214107
0.142927
-0.190905
0.163727
-0.165787
0.181733
-0.143877
0.197723
-0.126124
0.212045
-0.110662
0.225067
-0.0984114
0.237142
-0.0885071
0.248384
-0.0806014
0.258984
-0.0744029
0.269045
-0.0697779
0.278674
-0.0661357
0.287908
-0.0634076
0.296797
-0.0609055
0.305267
-0.0578702
0.313114
-0.0520891
0.320094
-0.0441846
0.326132
-0.0368579
0.331204
-0.0297892
0.335371
-0.0231013
0.338645
-0.0166845
0.341028
-0.0105756
0.342663
-0.00466243
0.343491
0.000907148
0.343666
0.0063616
0.343156
0.0117344
0.341969
0.0173728
0.340101
0.0244841
0.336752
0.0309373
0.330806
0.0490313
0.318978
0.0764086
-0.169978
0.198467
-0.214942
0.227299
-0.219637
0.260019
-0.238793
0.288668
-0.214552
0.316835
-0.209053
0.344205
-0.199619
0.368961
-0.179874
0.391754
-0.164164
0.41275
-0.146883
0.431545
-0.129103
0.448524
-0.113161
0.463759
-0.0970854
0.477268
-0.0818874
0.489075
-0.0671144
0.499177
-0.0522162
0.50758
-0.0377208
0.514126
-0.0226462
0.51871
-0.00784536
0.521256
0.0076608
0.521723
0.0227218
0.52026
0.0382531
0.516992
0.0525675
0.512105
0.0659757
0.505849
0.0756637
0.498299
0.0788123
0.489907
0.081718
0.480765
0.0873621
0.471118
0.0934685
0.460284
0.0994102
0.448726
0.106715
0.435887
0.116995
0.422237
0.133298
0.407616
0.161552
0.393784
0.213959
0.380746
0.298822
0.367512
0.409854
0.352309
0.387518
0.303984
0.304423
0.158154
0.353823
-0.141719
-0.217292
-0.11265
-0.228416
-0.0761485
-0.279697
-0.040008
-0.285497
-0.00300527
-0.295692
0.034928
-0.304974
0.0712597
-0.296286
0.103415
-0.270023
0.13157
-0.242263
0.156301
-0.215638
0.177374
-0.186862
0.195485
-0.161989
0.211484
-0.142125
0.225775
-0.124958
0.238782
-0.111427
0.250861
-0.1006
0.26221
-0.091971
0.272954
-0.0851749
0.283216
-0.0800718
0.293095
-0.0760474
0.302638
-0.0729768
0.311808
-0.0700975
0.320589
-0.0666777
0.328786
-0.060317
0.336153
-0.0515623
0.342542
-0.0432283
0.347966
-0.0352141
0.352427
-0.0275555
0.355999
-0.0202235
0.358631
-0.0132131
0.360452
-0.00644461
0.361439
-8.65655e-05
0.361705
0.00613021
0.361256
0.0121948
0.360089
0.0185343
0.35818
0.0264188
0.354653
0.0344786
0.348913
0.0548193
0.336565
0.0886197
-0.170371
0.200459
-0.245032
0.230831
-0.250015
0.265429
-0.273396
0.295526
-0.244657
0.324977
-0.238514
0.353795
-0.228446
0.379698
-0.205788
0.403598
-0.188074
0.425545
-0.168838
0.445179
-0.148743
0.462968
-0.130954
0.479025
-0.113141
0.493194
-0.0960457
0.505668
-0.079564
0.51657
-0.0630827
0.525622
-0.046739
0.53288
-0.0298949
0.538153
-0.0131749
0.541436
0.00424381
0.542649
0.0213527
0.541801
0.0390538
0.539201
0.0552789
0.53485
0.0703889
0.528968
0.0814304
0.521734
0.0861297
0.513372
0.0901008
0.504136
0.096561
0.494262
0.103428
0.483073
0.110451
0.471129
0.118811
0.457878
0.130102
0.44387
0.147446
0.42905
0.1763
0.415624
0.227379
0.40468
0.309652
0.3945
0.419947
0.379551
0.402598
0.326325
0.357588
0.197028
0.483269
-0.140729
-0.246941
-0.110189
-0.258958
-0.0717133
-0.318173
-0.0337023
-0.323507
0.0050086
-0.334402
0.0447928
-0.344759
0.0827016
-0.334196
0.116128
-0.303451
0.145223
-0.271359
0.17064
-0.241057
0.192097
-0.20832
0.210378
-0.180272
0.22644
-0.158191
0.240711
-0.139234
0.253683
-0.124409
0.26576
-0.112693
0.277132
-0.103365
0.287964
-0.0960352
0.298397
-0.090539
0.308479
-0.0861614
0.318228
-0.0827533
0.327694
-0.0795868
0.336791
-0.0758016
0.345322
-0.0688816
0.353042
-0.0592933
0.359821
-0.0499876
0.36558
-0.0409739
0.370387
-0.0323582
0.374248
-0.0240506
0.37714
-0.016109
0.379195
-0.00846245
0.380337
-0.00123445
0.38074
0.00576267
0.380371
0.0125786
0.379207
0.0196903
0.377225
0.0284237
0.3736
0.0381274
0.367814
0.0606776
0.355462
0.100859
-0.171307
0.202971
-0.2767
0.234924
-0.281973
0.271444
-0.309922
0.303199
-0.276422
0.334247
-0.269572
0.36452
-0.258732
0.391559
-0.232838
0.416656
-0.213181
0.439608
-0.1918
0.460148
-0.16929
0.478693
-0.149503
0.495351
-0.129798
0.510268
-0.110952
0.523528
-0.0927981
0.534971
-0.0744892
0.544736
-0.0564686
0.552647
-0.0377995
0.558631
-0.0192239
0.562498
0.000229856
0.564319
0.0193637
0.564159
0.0391717
0.562141
0.0574279
0.558333
0.0742678
0.552885
0.0867648
0.546074
0.0930216
0.538008
0.0982147
0.528833
0.105692
0.518818
0.113536
0.507452
0.121676
0.49511
0.131283
0.481387
0.143682
0.466877
0.162094
0.451579
0.191549
0.437625
0.241363
0.427154
0.320026
0.419329
0.427715
0.405381
0.416682
0.352535
0.410233
0.246428
0.589841
-0.139992
-0.278262
-0.107929
-0.291022
-0.0673705
-0.35873
-0.0274142
-0.363463
0.013264
-0.375081
0.054941
-0.386437
0.0946432
-0.373899
0.129494
-0.338303
0.159686
-0.301553
0.185871
-0.267243
0.207842
-0.230293
0.226386
-0.198819
0.242576
-0.174386
0.256861
-0.153525
0.269804
-0.137364
0.281844
-0.124749
0.293217
-0.114761
0.304106
-0.106954
0.314617
-0.101084
0.324851
-0.0964281
0.334838
-0.0927681
0.34455
-0.0893211
0.353913
-0.0851938
0.362782
-0.077785
0.370859
-0.0673807
0.377996
-0.0571032
0.384127
-0.0471047
0.389257
-0.0374853
0.39344
-0.0281963
0.396598
-0.0192694
0.398856
-0.0106847
0.400203
-0.00258548
0.400725
0.00527626
0.400441
0.0128809
0.39929
0.0208302
0.397268
0.0304654
0.393535
0.0418894
0.387606
0.0666859
0.375713
0.112715
-0.172511
0.205969
-0.310163
0.239677
-0.315687
0.27823
-0.348483
0.311587
-0.30979
0.344235
-0.302233
0.376076
-0.290585
0.404591
-0.261366
0.430806
-0.239408
0.454807
-0.215811
0.476222
-0.190712
0.495626
-0.168912
0.513105
-0.147275
0.528602
-0.126437
0.542442
-0.106611
0.554601
-0.0866107
0.564995
-0.066827
0.573504
-0.0463041
0.580055
-0.0258466
0.584541
-0.00441588
0.586999
0.0167285
0.587489
0.0386427
0.58613
0.0589365
0.582868
0.0776082
0.577844
0.091676
0.571421
0.0995251
0.563636
0.106069
0.554581
0.114694
0.544599
0.123619
0.533118
0.133023
0.520571
0.143939
0.50651
0.157603
0.491527
0.177207
0.475734
0.207317
0.460941
0.256217
0.449771
0.331119
0.442517
0.434943
0.428903
0.430422
0.381433
0.457426
0.298625
0.673194
-0.13955
-0.311228
-0.105763
-0.324809
-0.063063
-0.40143
-0.0210117
-0.405514
0.0217249
-0.417818
0.0654734
-0.430186
0.10714
-0.415567
0.143522
-0.374686
0.174923
-0.332954
0.202044
-0.294365
0.224628
-0.252878
0.243532
-0.217727
0.259884
-0.190742
0.274228
-0.167876
0.287157
-0.150303
0.299168
-0.136777
0.310504
-0.12612
0.3214
-0.117881
0.331989
-0.111707
0.342329
-0.106801
0.352471
-0.102938
0.362389
-0.0992621
0.372047
-0.0948809
0.381227
-0.0870007
0.389653
-0.0758168
0.397154
-0.0645796
0.403631
-0.0535802
0.409113
-0.042966
0.413586
-0.0326306
0.417036
-0.0227198
0.419539
-0.0131516
0.421066
-0.00411546
0.421749
0.00463002
0.421538
0.0131147
0.420425
0.021929
0.418342
0.0325618
0.414518
0.0457451
0.4085
0.0727728
0.397113
0.124136
-0.174161
0.209341
-0.345346
0.244903
-0.351257
0.285606
-0.389196
0.320804
-0.344999
0.355193
-0.336633
0.388663
-0.324068
0.41858
-0.291297
0.446106
-0.266946
0.471151
-0.240866
0.493525
-0.213094
0.513737
-0.189128
0.531922
-0.165458
0.548194
-0.142696
0.562694
-0.121083
0.575423
-0.099302
0.586362
-0.0777299
0.59548
-0.0554208
0.602648
-0.0330948
0.607733
-0.00967084
0.610708
0.0135673
0.611795
0.0375182
0.611009
0.0598867
0.608281
0.0804238
0.60374
0.0961032
0.597795
0.105551
0.590313
0.113637
0.581426
0.123517
0.571474
0.133679
0.55996
0.144411
0.547289
0.1567
0.53304
0.171716
0.517755
0.192607
0.501559
0.223509
0.486011
0.271843
0.473661
0.343413
0.46556
0.443051
0.451039
0.44505
0.410559
0.497609
0.348273
0.735957
-0.139297
-0.346096
-0.103839
-0.36027
-0.0587756
-0.446495
-0.0145226
-0.449769
0.0304687
-0.462811
0.076499
-0.476218
0.120162
-0.459231
0.158268
-0.412793
0.190998
-0.365685
0.219157
-0.322525
0.242451
-0.276174
0.261797
-0.237076
0.278413
-0.207362
0.292869
-0.182339
0.305804
-0.16325
0.317782
-0.148773
0.329081
-0.137444
0.339959
-0.128789
0.350559
-0.122342
0.36098
-0.117255
0.371244
-0.113229
0.381361
-0.109402
0.391251
-0.1048
0.400742
-0.0965269
0.409496
-0.0845813
0.417349
-0.0724062
0.424181
-0.0604086
0.429977
-0.048763
0.434785
-0.0373977
0.438524
-0.026456
0.44128
-0.0158741
0.443027
-0.00586294
0.443854
0.00383982
0.443753
0.0132417
0.442663
0.0230022
0.440558
0.0346762
0.436656
0.0496725
0.430503
0.0789805
0.419626
0.135096
-0.176037
0.213158
-0.38247
0.250678
-0.388786
0.293672
-0.4322
0.330752
-0.382088
0.366915
-0.372808
0.402131
-0.359295
0.433579
-0.322757
0.462405
-0.295783
0.488659
-0.267129
0.512007
-0.23645
0.533155
-0.210279
0.552096
-0.184396
0.569046
-0.159632
0.584181
-0.136191
0.597414
-0.112497
0.608981
-0.0892619
0.618663
-0.0651058
0.626364
-0.0408814
0.632032
-0.0155198
0.635614
0.00979023
0.637247
0.0358486
0.637053
0.0602564
0.63487
0.0827037
0.63078
0.100077
0.625233
0.111176
0.61808
0.120888
0.609387
0.132133
0.599527
0.143651
0.588013
0.155813
0.57524
0.169543
0.56084
0.185985
0.545357
0.208179
0.528906
0.239974
0.51285
0.28798
0.499368
0.35686
0.489804
0.452652
0.473261
0.461678
0.438531
0.532064
0.392132
0.782697
-0.139383
-0.382756
-0.101897
-0.39776
-0.0544397
-0.493955
-0.00780617
-0.496405
0.0395217
-0.51014
0.0879063
-0.524603
0.133845
-0.505171
0.173766
-0.452715
0.207988
-0.399908
0.237284
-0.351824
0.261391
-0.300283
0.281245
-0.256933
0.298182
-0.224303
0.312783
-0.196948
0.325755
-0.176234
0.337727
-0.160762
0.348991
-0.148734
0.359811
-0.13964
0.370405
-0.13297
0.380872
-0.127755
0.391232
-0.123617
0.401493
-0.119686
0.411613
-0.11495
0.421377
-0.106327
0.430445
-0.093659
0.438635
-0.0805682
0.445812
-0.0675816
0.451959
-0.0549127
0.457092
-0.0424877
0.461127
-0.0304862
0.464136
-0.0188509
0.46609
-0.00781474
0.467088
0.00287668
0.467098
0.0132622
0.466056
0.0240267
0.463916
0.0368213
0.459952
0.0536508
0.45376
0.0852111
0.443313
0.145645
-0.1782
0.217418
-0.421693
0.25696
-0.428338
0.302359
-0.477607
0.34139
-0.421129
0.379477
-0.410904
0.416628
-0.396457
0.449595
-0.355735
0.479848
-0.326046
0.507435
-0.294726
0.531865
-0.260885
0.553881
-0.232297
0.573644
-0.204153
0.591203
-0.177174
0.606979
-0.151938
0.620919
-0.126399
0.633009
-0.101318
0.643241
-0.0753441
0.651455
-0.0491891
0.657555
-0.0218109
0.661653
0.00548907
0.663857
0.0336062
0.66416
0.0601369
0.662499
0.084469
0.65888
0.103576
0.653773
0.116358
0.64702
0.127748
0.638499
0.140561
0.628748
0.153517
0.617298
0.167166
0.604449
0.182445
0.589942
0.200366
0.57427
0.223912
0.557681
0.256589
0.54126
0.304468
0.526875
0.371228
0.515845
0.463742
0.496933
0.480651
0.465551
0.56322
0.429944
0.818489
-0.139544
-0.421421
-0.100162
-0.437146
-0.0500444
-0.544075
-0.000914167
-0.545537
0.0489174
-0.559972
0.0998829
-0.57557
0.148138
-0.553427
0.190055
-0.494634
0.225831
-0.435687
0.256415
-0.38241
0.28141
-0.325282
0.301895
-0.277423
0.319217
-0.241631
0.33403
-0.211771
0.347088
-0.189306
0.359049
-0.172743
0.370265
-0.159975
0.381055
-0.150463
0.391616
-0.143565
0.40208
-0.138253
0.412502
-0.134066
0.422902
-0.13011
0.433214
-0.125293
0.443226
-0.116374
0.452609
-0.103051
0.461119
-0.0890486
0.468631
-0.0750885
0.475098
-0.0613844
0.480556
-0.0479015
0.48488
-0.034803
0.488161
-0.022103
0.49036
-0.0100093
0.491515
0.00175562
0.491662
0.0131503
0.490683
0.0249884
0.488521
0.0389856
0.484509
0.0576616
0.478241
0.0915018
0.468229
0.155755
-0.180695
0.222071
-0.463076
0.263742
-0.470019
0.311651
-0.525525
0.352744
-0.462231
0.392934
-0.451104
0.43203
-0.435563
0.466689
-0.390404
0.498483
-0.357851
0.527352
-0.323603
0.552861
-0.2864
0.575851
-0.255288
0.596467
-0.224762
0.614864
-0.195553
0.631244
-0.168287
0.645737
-0.140853
0.658367
-0.113918
0.669101
-0.0860888
0.677819
-0.0580069
0.684506
-0.0286985
0.689071
0.000712359
0.691733
0.0309034
0.692588
0.0594679
0.691394
0.0857733
0.688225
0.106621
0.683522
0.121128
0.677132
0.134249
0.66888
0.148705
0.65927
0.163242
0.647871
0.178486
0.634977
0.195374
0.620391
0.214833
0.604575
0.239754
0.587803
0.273396
0.571078
0.321229
0.556027
0.386278
0.5438
0.47604
0.522733
0.501748
0.492667
0.593119
0.463419
0.847763
-0.139877
-0.462249
-0.0983477
-0.47868
-0.0455159
-0.596909
0.00625006
-0.597303
0.0587375
-0.61246
0.112407
-0.62924
0.16318
-0.6042
0.207194
-0.53865
0.244691
-0.473187
0.276622
-0.414345
0.302635
-0.351299
0.323793
-0.298586
0.341564
-0.259409
0.356641
-0.226858
0.369822
-0.202501
0.381813
-0.184755
0.392998
-0.171186
0.403731
-0.161229
0.414248
-0.154118
0.424704
-0.148742
0.435153
-0.144542
0.445636
-0.140617
0.456119
-0.135806
0.46639
-0.126682
0.476039
-0.112709
0.48485
-0.0978271
0.492683
-0.0829145
0.499473
-0.0681828
0.505253
-0.0536363
0.509894
-0.0394342
0.513444
-0.0256267
0.515858
-0.012417
0.517222
0.000424471
0.517492
0.0129202
0.516587
0.0258775
0.514422
0.0411528
0.510363
0.0617016
0.504085
0.0977897
0.4945
0.165415
-0.183386
0.226986
-0.506684
0.270981
-0.514024
0.321562
-0.576117
0.364883
-0.505563
0.407223
-0.493456
0.448346
-0.476698
0.484845
-0.426915
0.518234
-0.391251
0.548471
-0.353849
0.575194
-0.313129
0.599292
-0.279386
0.620744
-0.246206
0.639884
-0.214672
0.656963
-0.185333
0.672022
-0.155873
0.685211
-0.127077
0.696439
-0.0973319
0.705668
-0.0673428
0.71277
-0.036009
0.717845
-0.00457998
0.720971
0.027734
0.722261
0.0583637
0.721565
0.0865826
0.71883
0.109228
0.71457
0.125445
0.708538
0.140395
0.70054
0.156579
0.691102
0.172793
0.679791
0.189738
0.666907
0.208278
0.652264
0.229369
0.636311
0.255698
0.61939
0.290357
0.602356
0.338255
0.586715
0.401928
0.573449
0.489374
0.550858
0.524332
0.520921
0.622949
0.494823
0.87374
-0.140343
-0.505301
-0.0965977
-0.522428
-0.0408914
-0.652616
0.0137119
-0.651906
0.0689866
-0.667734
0.125483
-0.685737
0.178975
-0.657693
0.2252
-0.584877
0.264549
-0.512539
0.297947
-0.447747
0.325033
-0.37839
0.346954
-0.320513
0.365261
-0.277724
0.380657
-0.242266
0.393996
-0.215856
0.406062
-0.196843
0.417236
-0.182389
0.427927
-0.171953
0.438389
-0.164617
0.448803
-0.15919
0.459273
-0.155039
0.46982
-0.151188
0.480445
-0.146462
0.490911
-0.137185
0.500814
-0.12262
0.509926
-0.106906
0.518062
-0.0910422
0.525179
-0.0753092
0.531262
-0.0596737
0.536208
-0.044368
0.54003
-0.0294256
0.542709
-0.015086
0.544253
-0.00108891
0.544658
0.0125594
0.543845
0.0266784
0.541681
0.0433213
0.537621
0.0657244
0.531324
0.104085
0.522097
0.174685
-0.186378
0.232378
-0.552691
0.278808
-0.560464
0.33208
-0.629399
0.377849
-0.551342
0.422358
-0.537977
0.465734
-0.520085
0.504073
-0.465265
0.539164
-0.426353
0.570923
-0.385618
0.598935
-0.341146
0.624006
-0.304457
0.646469
-0.268659
0.666353
-0.234534
0.684122
-0.203067
0.699878
-0.171589
0.71357
-0.140742
0.725329
-0.10911
0.735013
-0.0771387
0.742613
-0.0438232
0.748098
-0.0102872
0.751655
0.0241322
0.753428
0.0567734
0.753118
0.0870071
0.75081
0.111407
0.746928
0.129374
0.741264
0.146173
0.733558
0.164145
0.724318
0.182138
0.713179
0.200837
0.700312
0.221154
0.685651
0.243934
0.669581
0.27173
0.65251
0.307469
0.635176
0.355531
0.61889
0.418226
0.604717
0.503597
0.581184
0.547814
0.550932
0.653145
0.526103
0.898326
-0.140992
-0.550696
-0.0948651
-0.568557
-0.0360744
-0.711407
0.0214474
-0.709427
0.0797217
-0.726008
0.139246
-0.745262
0.195502
-0.713951
0.244166
-0.633544
0.285448
-0.553824
0.320457
-0.482761
0.348726
-0.406664
0.371493
-0.343288
0.390385
-0.296625
0.406151
-0.258045
0.419709
-0.229431
0.431849
-0.209007
0.443054
-0.193623
0.453694
-0.182628
0.464102
-0.175061
0.47447
-0.169591
0.484926
-0.165521
0.495519
-0.161806
0.506268
-0.157243
0.516927
-0.14788
0.527069
-0.132771
0.536436
-0.116237
0.544856
-0.099452
0.552259
-0.0827238
0.558662
-0.0660315
0.563899
-0.0495892
0.56801
-0.033516
0.57092
-0.0179837
0.572683
-0.00282407
0.573261
0.0120292
0.572514
0.0274207
0.57041
0.0454343
0.566324
0.0697586
0.560089
0.110311
0.551218
0.183559
-0.189593
0.23812
-0.601225
0.287024
-0.609378
0.343346
-0.685732
0.391431
-0.59944
0.438443
-0.585002
0.484079
-0.565733
0.524506
-0.505705
0.56132
-0.463178
0.594647
-0.418955
0.623976
-0.370482
0.650301
-0.330782
0.673679
-0.292027
0.694476
-0.255308
0.712975
-0.221529
0.729331
-0.187905
0.743606
-0.15499
0.755842
-0.121368
0.765965
-0.0873776
0.773952
-0.0520291
0.779875
-0.0164334
0.783885
0.0200762
0.785992
0.0548439
0.786096
0.0870176
0.784208
0.113166
0.780707
0.132913
0.775446
0.151547
0.768029
0.171409
0.75899
0.191272
0.747991
0.211818
0.735212
0.233934
0.720573
0.258491
0.704426
0.287817
0.687232
0.324704
0.669582
0.373072
0.652706
0.435115
0.637563
0.518763
0.613526
0.571756
0.583076
0.683582
0.558626
0.922449
-0.141737
-0.59856
-0.0931042
-0.617191
-0.0310927
-0.773418
0.0295099
-0.770029
0.0909346
-0.787432
0.153661
-0.807989
0.212938
-0.773231
0.264101
-0.68471
0.307474
-0.597201
0.34416
-0.519452
0.373715
-0.436225
0.397415
-0.366996
0.416958
-0.316179
0.433167
-0.274268
0.446981
-0.243264
0.459259
-0.22131
0.470488
-0.204883
0.481112
-0.193286
0.491465
-0.18545
0.501805
-0.179964
0.512218
-0.175961
0.522849
-0.17246
0.533684
-0.16811
0.544513
-0.158746
0.554871
-0.143135
0.564467
-0.125794
0.573174
-0.108147
0.580859
-0.0904229
0.587534
-0.0726604
0.593095
-0.0551305
0.597469
-0.0378722
0.600643
-0.0211423
0.602592
-0.0047494
0.603331
0.0113413
0.602719
0.0280357
0.600641
0.0475283
0.596596
0.0737438
0.59039
0.1165
0.581867
0.19205
-0.193083
0.244231
-0.652379
0.295804
-0.660961
0.355176
-0.745115
0.405968
-0.650244
0.455421
-0.634467
0.50357
-0.613893
0.54601
-0.548157
0.584759
-0.501938
0.619768
-0.453974
0.650562
-0.401281
0.678049
-0.358269
0.702555
-0.316521
0.724215
-0.276943
0.743484
-0.24076
0.760457
-0.204837
0.775337
-0.169846
0.788047
-0.134103
0.798614
-0.0980645
0.807063
-0.0606981
0.813355
-0.0229481
0.817712
0.0156713
0.820205
0.0525231
0.820674