/*--------------------------------*- C++ -*----------------------------------*\
| =========                 |                                                 |
| \\      /  F ield         | OpenFOAM: The Open Source CFD Toolbox           |
|  \\    /   O peration     | Version:  2312                                  |
|   \\  /    A nd           | Website:  www.openfoam.com                      |
|    \\/     M anipulation  |                                                 |
\*---------------------------------------------------------------------------*/
FoamFile
{
    version     2.0;
    format      ascii;
    arch        "LSB;label=32;scalar=64";
    class       volScalarField;
    location    "100";
    object      turbulenceProperties:nut;
}
// * * * * * * * * * * * * * * * * * * * * * * * * * * * * * * * * * * * * * //

dimensions      [0 2 -1 0 0 0 0];

internalField   nonuniform List<scalar> 
10720
(
0.000200332
0.000205007
0.000242493
0.000257508
0.000271818
0.000303666
0.00035112
0.000412926
0.000495165
0.000610158
0.000779647
0.00104496
0.00148461
0.0022327
0.00377398
0.00701923
0.0134425
0.0289645
0.0580953
0.0938592
0.142473
0.222271
0.328445
0.477735
0.678728
0.89501
1.55649
2.39014
1.58941
0.546065
0.152185
0.0140135
0.00311715
0.000270457
1.50244e-18
1.93947e-18
3.07008e-18
0.00159041
0.0877746
0.00031651
0.000332826
0.000232977
0.00022442
0.000245876
0.000452694
0.000621885
0.000653496
0.000628749
0.00057389
0.000554327
0.0005832
0.000679455
0.000874065
0.00125475
0.00188992
0.00303437
0.00450675
0.00649907
0.00798729
0.00935225
0.0113609
0.0147472
0.0202376
0.0274358
0.0359598
0.033193
0.0197919
0.00831954
0.00246676
0.000432054
2.6148e-05
6.7305e-06
2.64547e-06
2.29853e-06
0.000107884
1.90663e-06
0.00566655
0.354791
0.000416825
0.000532845
0.000376491
0.000280602
0.000230695
0.000216196
0.000215468
0.000217977
0.000225009
0.00023739
0.000255468
0.000279272
0.000331458
0.000506711
0.00105864
0.0026668
0.00655102
0.016579
0.0400649
0.0872173
0.156039
0.32346
0.744798
0.974665
1.17888
1.12864
2.00783
1.76449
1.40409
1.81816
1.0572
0.25083
0.0600699
0.00501251
8.04615e-05
4.48695e-18
6.24675e-05
0.00786178
0.169841
6.18608e-05
0.000138266
0.0001861
0.000363619
0.000472519
0.000385315
0.00025583
0.00027975
0.000331292
0.000395804
0.00049945
0.000576533
0.000575837
0.000494358
0.000865641
0.00423601
0.00826539
0.0142429
0.0229388
0.00125581
0.00132736
0.00295493
0.00612318
0.000145409
0.000316264
0.000821758
0.00172124
0.00200126
0.00151263
0.00112057
0.00061109
0.000286296
0.00011672
4.21588e-05
1.02137e-05
1.74513e-05
3.14155e-07
0.00457975
0.303669
0.000126535
9.25749e-05
0.000104468
0.000105068
0.000113354
0.000126005
0.000141075
0.000157827
0.000175704
0.000193973
0.000212094
0.000229442
0.000249553
0.000249275
0.000294842
0.000161891
0.0012282
0.00313925
0.0084943
0.0222133
0.0500317
0.0162504
0.51147
1.63899
2.41294
2.94137
2.08488
1.2576
0.685299
0.50017
0.43085
0.274473
0.0692286
0.00922014
0.000704282
1.73863e-05
3.30087e-05
0.0038171
0.253717
0.000237492
0.000589561
0.000635397
0.000460187
0.00018635
9.14345e-05
0.000102456
0.000111197
0.000126271
0.000150946
0.000173391
0.000235373
0.000323989
0.000434051
0.00056387
0.00079037
0.000900638
0.00109108
0.000136695
0.00234908
0.00284565
0.00164216
0.00317406
0.00166664
0.00303888
0.00646572
0.0111144
0.0108915
0.00756637
0.00517648
0.00296935
0.000121537
0.00030286
0.000421351
0.000465833
0.000970059
1.97445e-05
0.0132378
1.04467
0.000565655
0.00057505
0.000581926
0.00057312
0.000589635
0.000613157
0.000640133
0.000673231
0.000713689
0.000763
0.000822182
0.000891931
0.000975536
0.00108155
0.00120977
0.00137846
0.00154152
0.00147798
0.00084236
0.000991403
2.31793e-16
0.00637453
0.151537
0.659928
4.06336
9.75687e-09
1.81099e-11
4.59765e-11
1.44069e-10
1.08558e-09
6.49212e-08
6.50941e-05
0.017055
0.0169901
0.00527818
0.000172936
0.000275209
0.00444252
0.188829
0.000793285
0.000578532
0.000263483
0.000211825
0.000208392
0.000221764
0.000239417
0.000261925
0.00029209
0.000333063
0.000387709
0.000457319
0.000542612
0.000645737
0.000767535
0.000915721
9.04632e-05
0.000220001
0.000344502
0.000443217
0.000512249
0.000689395
0.000891971
0.000925217
0.000936532
0.00100217
0.00105908
0.00108482
0.00108078
0.00106884
0.00102928
0.000998328
0.000983803
0.00101667
0.000889386
0.00185229
3.55803e-05
0.0158604
3.2728
0.000860596
0.00077552
0.000762643
0.00075465
0.000752405
0.000761571
0.00078174
0.000813426
0.000857831
0.000914894
0.000984474
0.00106617
0.00115062
0.00125247
0.00138062
0.00148617
0.00158818
0.00172158
0.00184377
0.00163134
0.00104528
0.000524686
2.24314e-16
0.19737
3.04678
7.54276e-09
1.18884e-15
1.61736e-15
5.64384e-15
3.98737e-14
9.79174e-13
1.89342e-10
3.00823e-05
1.02713e-12
0.00673898
0.00407751
0.00172418
0.0019251
0.0850566
0.00051872
0.0004371
0.000439405
0.00022326
0.000516117
0.00066455
0.000720348
0.000782645
0.000860405
0.000959032
0.00108473
0.00124352
0.00144269
0.00169308
0.00200373
0.00239319
0.00287033
0.00342611
0.00406436
0.00475844
0.00527008
0.00511932
0.00498169
0.00483218
0.00468602
0.00454901
0.00441794
0.00429602
0.0041867
0.00436458
0.00424252
0.00374372
0.0035651
0.00342043
0.00306621
0.00336904
0.000476334
0.0223251
2.96314
0.000787083
0.000798298
0.000802287
0.000811925
0.000828992
0.000850659
0.000784927
0.000681028
0.000634442
0.000639516
0.000689473
0.000782903
0.000918264
0.00108602
0.00131168
0.00161209
0.00189476
0.00225075
0.00266121
0.003202
0.00377531
0.0027325
0.000158321
0.0511688
1.28689
4.37555e-09
9.72936e-16
4.73889e-27
7.99241e-27
1.92802e-26
5.97438e-26
2.40295e-25
1.19329e-24
1.16039e-14
2.97691e-15
2.58542e-13
2.61871e-11
1.61193e-12
5.31795e-05
0.000791108
0.000840286
0.000891118
0.00102678
0.00110613
0.00116001
0.00123239
0.00132866
0.00145542
0.00161644
0.00182013
0.00207385
0.00238605
0.00276811
0.0032261
0.00378252
0.00443949
0.00516108
0.00595514
0.00678878
0.00764191
0.00774409
0.00759997
0.00744471
0.00727175
0.00708527
0.0069055
0.00673147
0.00657086
0.00643589
0.00631951
0.00617674
0.00597466
0.0057334
0.00530258
0.00515694
0.00178162
0.0148163
1.50656
0.00102182
0.000811878
0.000801943
0.000762659
0.00076699
0.000785077
0.000794498
0.000815498
0.000841163
0.00086852
0.000903321
0.000942734
0.000992521
5.16946e-05
0.000162179
0.000293992
0.000374202
0.00041984
0.000672644
0.00123036
0.00166954
0.00370566
0.000813125
0.0150371
0.305917
2.83028e-09
9.87222e-16
6.33211e-27
7.27078e-27
1.27979e-26
3.00484e-26
8.44287e-26
2.36758e-25
5.98144e-25
6.00063e-17
2.06757e-15
6.28336e-14
3.35902e-23
1.64294e-22
0.00147969
0.00161966
0.00166148
0.00165921
0.00165182
0.00171059
0.00180611
0.00193299
0.00210014
0.00231212
0.00257787
0.00290663
0.00331086
0.00380837
0.00438494
0.00461493
0.00481765
0.00495316
0.00500611
0.00501231
0.00498236
0.0049251
0.00484675
0.00475307
0.00464443
0.0045297
0.00442372
0.00432348
0.00423424
0.00416055
0.00410704
0.00410161
0.00407859
0.0041333
0.0042729
0.00456585
0.00269319
0.00953042
0.62107
0.00242328
0.00243889
0.00244699
0.00246942
0.00248898
0.00251857
0.00256621
0.00263411
0.00272644
0.00284517
0.00299391
0.00317547
0.00339425
0.00365861
0.00397788
0.00436403
0.0048295
0.00541966
0.00542348
0.00460101
0.00411698
0.00435962
0.00321389
0.00252553
0.0267101
9.88367e-10
3.98577e-16
9.77089e-27
8.1126e-27
1.07954e-26
1.99544e-26
4.41048e-26
9.56961e-26
1.74682e-25
2.71531e-25
5.6331e-25
1.52366e-24
3.46346e-24
1.32659e-23
0.00263296
0.0025975
0.00256133
0.000590511
0.000568871
0.000381285
0.000396908
0.000411378
0.000435383
0.000465536
0.00049765
0.000535953
0.00058287
0.000651494
0.000148152
0.000402885
0.000576432
0.000678784
0.000734911
0.000760688
0.000765339
0.000755906
0.000737671
0.000717226
0.000699175
0.000684265
0.000673925
0.000668603
0.000669763
0.000676051
0.000685867
0.000727419
0.000846782
0.00101642
0.00121868
0.00162395
0.00170226
0.0041512
0.2307
0.00399565
0.00394091
0.00392195
0.00391907
0.00391396
0.00393391
0.00398337
0.00406455
0.00418136
0.00433562
0.00453078
0.0047713
0.00506439
0.00542334
0.00586129
0.00639255
0.00637967
0.00649646
0.0066916
0.00647131
0.0060817
0.00551767
0.00583828
0.00115648
0.00871422
4.50296e-10
5.76754e-26
1.65977e-26
1.03497e-26
1.06951e-26
1.58869e-26
2.88668e-26
5.29047e-26
8.60618e-26
1.24188e-25
2.1091e-25
4.55045e-25
9.14023e-25
2.55583e-24
0.00399734
0.00110569
0.000575082
0.000243288
0.000337117
0.000352215
0.000355681
0.000352069
0.000347033
0.000342316
0.000334705
0.000327159
0.00032121
0.000315262
0.000333142
0.000370488
0.000396966
0.000414863
0.000427375
0.000436151
0.000441847
0.000445149
0.000446132
0.000445424
0.00044401
0.000442681
0.000442144
0.0004425
0.000444268
0.000447098
0.000450602
0.000461299
0.000479429
0.000502513
0.000531036
0.000614538
0.000266516
0.000964718
0.0497443
0.00323917
0.00327624
0.0028265
0.0025882
0.00243398
0.00230098
0.00219647
0.00211413
0.00206388
0.00205091
0.00206156
0.00209805
0.00218271
0.00231093
0.00244411
0.00258223
0.00280159
0.00310113
0.00351998
0.00400293
0.00441371
0.00454471
0.004901
0.0044877
0.00071327
2.20265e-11
1.07109e-17
3.02388e-26
1.45985e-26
1.19865e-26
1.45244e-26
2.21464e-26
3.5428e-26
5.29372e-26
7.27267e-26
1.09651e-25
2.0571e-25
3.73041e-25
7.49703e-25
0.00108474
0.000243197
0.00054892
0.0012608
0.00252087
0.00254969
0.00253758
0.0025227
0.00249501
0.0024579
0.00241221
0.0023577
0.0022962
0.00222817
0.00215494
0.00208195
0.0020118
0.00195179
0.00189974
0.00185358
0.00181157
0.00177188
0.00173101
0.00168994
0.00165197
0.00161637
0.00158358
0.00155288
0.00152479
0.00149848
0.00147377
0.00145016
0.00137505
0.00126706
0.00114811
0.00102986
0.00102001
0.000395503
0.0019667
0.00040048
0.000413876
0.000383257
0.000353091
0.00037049
0.000381106
0.000384191
0.000391919
0.0004019
0.000413148
0.000428392
0.000446044
0.000470838
0.000504002
0.000537568
0.000588355
0.00063017
0.000671733
0.000790208
0.000397194
0.00103279
0.00169084
0.00224455
0.00290584
0.00296909
6.44604e-09
3.38723e-15
5.83072e-26
2.23658e-26
1.48698e-26
1.4898e-26
1.92981e-26
2.73302e-26
3.78971e-26
5.01871e-26
7.05154e-26
1.20196e-25
2.00939e-25
3.27603e-25
0.000344322
0.000916445
0.00311283
0.00389025
0.00412475
0.00411908
0.00409863
0.00409131
0.0040851
0.00407512
0.0040594
0.00403561
0.00399824
0.0039449
0.00387868
0.00380727
0.00374315
0.00368412
0.00362798
0.00357279
0.00351679
0.00345621
0.00338979
0.00332187
0.00325653
0.00319417
0.00313586
0.00308001
0.00302796
0.00297845
0.00293268
0.0028933
0.00280876
0.00271602
0.00263145
0.00242093
0.00210632
0.00155159
0.000773567
0.000581567
0.00033276
0.000388031
7.43005e-05
0.000312058
0.000465944
0.000598073
0.000706295
0.00079402
0.000859827
0.000907608
0.000938641
0.000960067
0.000976195
0.000979925
0.00107985
0.00101811
0.00085672
0.000828514
0.000753291
0.000788058
0.0010009
0.00133436
0.00157129
0.00277637
3.97825e-08
2.24177e-14
1.18085e-25
3.67365e-26
2.01169e-26
1.68873e-26
1.87708e-26
2.37067e-26
3.06003e-26
3.86159e-26
5.17683e-26
8.19109e-26
1.27681e-25
1.82089e-25
0.0019286
0.00352386
0.00347484
0.00269423
0.00222239
0.00222015
0.00221131
0.00221587
0.00223351
0.00225674
0.00227959
0.00229887
0.00230133
0.00229426
0.00228185
0.00226903
0.00225467
0.00223787
0.00221782
0.00219385
0.00216505
0.00213129
0.00209432
0.00205749
0.00202273
0.00198979
0.00195896
0.0019296
0.001903
0.00187822
0.00185569
0.00184076
0.0018512
0.00188004
0.00191315
0.00191831
0.00189348
0.0019054
0.00119476
0.00276757
0.00269882
0.00287027
0.00300198
0.00314733
0.00328029
0.00338328
0.00346073
0.0035145
0.00354523
0.00356021
0.00356541
0.00356283
0.00355386
0.00353803
0.00351178
0.00349361
0.00347072
0.00342941
0.0034087
0.00306379
0.00254824
0.00235617
0.00202402
0.0027197
2.29672e-07
1.37782e-13
2.50047e-25
6.41446e-26
2.93642e-26
2.09178e-26
2.01458e-26
2.2811e-26
2.74151e-26
3.31706e-26
4.22716e-26
6.19786e-26
9.0022e-26
1.17688e-25
0.00353541
0.00253087
0.00110599
9.52777e-05
0.000335424
0.000334378
0.000336781
0.0003345
0.000334337
0.000336465
0.000336354
0.000336961
0.000339691
1.23524e-05
2.44384e-05
3.5769e-05
4.5698e-05
5.39282e-05
6.0126e-05
6.4279e-05
6.63377e-05
6.67578e-05
6.6186e-05
6.60024e-05
6.70116e-05
6.89496e-05
7.17695e-05
7.55012e-05
8.03868e-05
8.6459e-05
9.25212e-05
9.79474e-05
0.000133007
0.000219979
0.000353185
0.000528149
0.000738256
0.00100776
0.000997026
0.00307744
0.00272531
0.0026221
0.00260675
0.00258103
0.00255363
0.00254549
0.00255644
0.00257424
0.00259416
0.00262143
0.0026595
0.00270751
0.0027654
0.00283181
0.00290705
0.00298612
0.00306196
0.00314878
0.00323085
0.00329056
0.00324065
0.00303569
0.0026115
0.00287549
1.30657e-06
7.14252e-18
3.54804e-20
1.18396e-25
4.58873e-26
2.80645e-26
2.36406e-26
2.41163e-26
2.69868e-26
3.13164e-26
3.79193e-26
5.13453e-26
8.14225e-26
1.0216e-25
0.0015864
0.000136845
0.000175306
9.86646e-05
9.27115e-05
9.44174e-05
9.53005e-05
9.39836e-05
9.24131e-05
9.10889e-05
8.88526e-05
8.67201e-05
8.54875e-05
8.64147e-05
8.79391e-05
9.01731e-05
9.26856e-05
9.5472e-05
9.83547e-05
0.0001012
0.000103914
0.000106504
0.000108995
0.000111385
0.000113561
0.000115586
0.000117645
0.000119725
0.000121931
0.000124316
0.000126511
0.000128169
0.000134186
0.000146837
0.000166012
0.000199636
0.000228923
8.11059e-05
0.000397737
0.000733639
0.000838228
0.000648362
0.000542124
0.000456513
0.000379581
0.000333738
0.000326604
0.000336726
0.000354616
0.000388145
0.000436495
0.000497209
0.000569726
0.00065098
0.000740058
0.000839202
0.00094771
0.00105528
0.0012251
0.00155992
0.00191327
0.00215535
0.00217174
0.00248869
5.90627e-06
2.33161e-16
9.99166e-19
2.30152e-25
7.63363e-26
4.04973e-26
3.00993e-26
2.77976e-26
2.89785e-26
3.21535e-26
3.71538e-26
5.92935e-26
6.92555e-25
1.20224e-23
0.000296137
0.000112915
7.95347e-06
0.000615319
0.000657062
0.000650657
0.000651357
0.000651629
0.000650611
0.00064916
0.000646435
0.000642438
0.000638262
0.000634019
0.000629597
0.000625235
0.000620957
0.000616763
0.000612687
0.000608629
0.000604563
0.000600469
0.000596318
0.000592203
0.000588072
0.000583487
0.000578507
0.000573046
0.000567343
0.00056167
0.000555445
0.000547702
0.00052811
0.000481312
0.000412406
0.000364687
0.000242823
0.000125597
0.000273557
0.000111852
0.0001395
0.000141529
0.00013711
0.000139909
0.000141954
0.000139858
0.000142477
0.00014645
0.000149849
0.0001563
0.000165074
0.00017617
0.000190179
0.00020618
0.000224377
0.000245324
0.000268724
0.000292452
0.000339541
0.000398899
0.000146092
0.000554415
0.000893526
0.00134802
1.69166e-05
2.47167e-15
9.22865e-18
4.70132e-25
1.34651e-25
6.25056e-26
4.1308e-26
3.47032e-26
3.3736e-26
3.57046e-26
4.01242e-26
4.59471e-24
7.77427e-19
3.97416e-17
0.000261253
0.000752198
0.00170332
0.00200424
0.00200205
0.00197809
0.00196285
0.00195534
0.00195092
0.00194793
0.00194531
0.00194219
0.00193881
0.00193493
0.00193003
0.00192412
0.00191704
0.00190859
0.00189871
0.00188732
0.00187456
0.00186054
0.00184528
0.00182916
0.00181261
0.00179506
0.00177677
0.00175754
0.00173804
0.00171908
0.00169891
0.0016789
0.00165521
0.00160135
0.00151428
0.00138597
0.00120334
0.000991946
0.000771385
0.00011378
0.000200981
0.000345166
0.000460395
0.000556833
0.000635541
0.000679596
0.00070364
0.000719225
0.000727519
0.000731762
0.000734136
0.000735554
0.000736648
0.000736538
0.000736004
0.000736382
0.000735935
0.000731928
0.000802283
0.000676176
0.000478978
0.000497839
0.000609005
0.000808347
4.42399e-05
2.38329e-14
7.81554e-17
1.00787e-24
2.51168e-25
1.02763e-25
6.07801e-26
4.66428e-26
4.23413e-26
4.26943e-26
1.11313e-25
2.0544e-19
4.331e-17
1.67685e-16
0.00137266
0.00210354
0.00188408
0.00145196
0.00144078
0.00142759
0.00141334
0.00140604
0.00140303
0.00140208
0.00140314
0.0014052
0.00140732
0.0014092
0.00141047
0.00141064
0.00140965
0.00140729
0.00140343
0.00139791
0.00139078
0.00138218
0.00137206
0.00136089
0.00134933
0.00133732
0.00132498
0.00131218
0.00129939
0.00128732
0.00127494
0.00126286
0.00125966
0.00127188
0.00127968
0.00126647
0.00124966
0.00117755
0.00096499
0.00177127
0.00172412
0.00180906
0.00189513
0.00194852
0.00198519
0.00199934
0.00199971
0.00199843
0.00199707
0.00199587
0.0019942
0.00199464
0.00199646
0.00199675
0.00199651
0.00199664
0.00199513
0.00199027
0.00198366
0.00189718
0.00172402
0.00156149
0.00133721
0.00108923
0.000140833
2.59851e-13
7.53429e-16
2.26631e-24
4.94599e-25
1.79409e-25
9.54712e-26
6.71444e-26
5.6979e-26
5.46994e-26
9.33658e-26
2.88765e-20
3.51371e-17
2.70547e-17
0.00215559
0.0014614
0.000609096
0.000188973
0.000187041
0.000194634
0.000192175
0.000188023
0.000185282
0.000183891
0.000183528
0.000184057
0.000185231
0.000186942
0.000188979
0.000191213
0.000193497
0.000195763
0.000197864
0.000199726
0.000201264
0.000202529
0.000203569
0.000204623
0.000205796
0.000207044
0.00020834
0.000209662
0.000211086
0.00021279
0.000214695
0.000215687
0.000218723
0.00026071
0.000334033
0.000431801
0.000573221
0.000710655
0.000719603
0.0017779
0.00157402
0.00148631
0.00143857
0.00138019
0.00132973
0.00128808
0.00125499
0.00123865
0.00123427
0.00123706
0.00124188
0.00125324
0.00127113
0.00128905
0.00130879
0.00133136
0.00135592
0.00138215
0.00142668
0.00150434
0.00154934
0.00155142
0.00150453
0.00130805
0.000387873
2.5859e-12
6.66666e-15
5.34426e-24
1.02691e-24
3.31828e-25
1.59532e-25
1.03066e-25
8.17944e-26
7.46345e-26
1.00829e-25
6.47719e-21
1.95581e-19
1.03739e-16
0.000913605
0.000107701
0.000103592
2.8415e-05
2.86989e-05
3.06946e-05
3.05419e-05
2.94331e-05
2.85174e-05
2.79099e-05
2.71546e-05
2.65709e-05
2.63523e-05
2.62843e-05
2.6474e-05
2.69759e-05
2.76601e-05
2.85578e-05
2.96233e-05
3.0818e-05
3.20836e-05
3.34232e-05
3.48213e-05
3.61943e-05
3.74128e-05
3.85702e-05
3.97366e-05
4.09062e-05
4.2085e-05
4.33042e-05
4.45607e-05
4.5608e-05
4.70747e-05
5.70459e-05
7.51397e-05
9.735e-05
0.000135291
0.000132257
0.000320638
0.000404839
0.000406937
0.000271845
0.000192645
0.000132241
8.32891e-05
5.18732e-05
3.38934e-05
2.64637e-05
2.7091e-05
3.26606e-05
4.13994e-05
5.16701e-05
6.40426e-05
7.92192e-05
9.76493e-05
0.000119493
0.000145133
0.000173085
0.000208407
0.000297552
0.000458046
0.000657474
0.000852134
0.000897202
0.000635783
2.11209e-11
4.86412e-14
1.32141e-23
2.24605e-24
6.48931e-25
2.82744e-25
1.68045e-25
1.24678e-25
1.07903e-25
1.22507e-25
1.90099e-21
2.2317e-15
1.68848e-16
0.000170798
3.1358e-05
9.49136e-05
0.000117153
0.000119158
0.000120926
0.000121176
0.000119086
0.000116907
0.000115098
0.000111847
0.000108593
0.000106451
0.000104532
0.00010345
0.000103506
0.000104237
0.000105785
0.000108042
0.000110871
0.000114079
0.000117679
0.00012155
0.000125174
0.00012795
0.000130239
0.000132395
0.000134403
0.000136247
0.000137969
0.000139578
0.000141011
0.000142305
0.00014097
4.60016e-06
0.00012115
0.000100228
0.00011211
8.02371e-05
5.54489e-05
5.66421e-05
4.04645e-05
3.14487e-05
2.88727e-05
2.76738e-05
2.69971e-05
2.70864e-05
2.76999e-05
2.86615e-05
3.02223e-05
3.20667e-05
3.40294e-05
3.63821e-05
3.92098e-05
4.26957e-05
4.68799e-05
5.18288e-05
5.7296e-05
6.39884e-05
7.78957e-05
0.000104703
0.000136294
8.58624e-05
0.00023966
0.000504569
1.32835e-10
2.7433e-13
3.42493e-23
5.16965e-24
1.33941e-24
5.30088e-25
2.90017e-25
2.00987e-25
1.64543e-25
1.65665e-25
6.927e-22
3.02722e-17
6.08453e-17
6.89092e-05
0.000126788
0.000654216
0.000805426
0.000804156
0.000795449
0.000793007
0.000794178
0.00079634
0.000798795
0.000801164
0.000802947
0.000804276
0.000805225
0.000805697
0.000805769
0.000805498
0.000804843
0.000803807
0.000802338
0.000800436
0.000798121
0.000795352
0.000792162
0.000788671
0.000784677
0.000780183
0.000775251
0.000769843
0.000764275
0.000758711
0.000752843
0.000746961
0.000727075
0.00068452
0.000606273
0.000495474
0.000386216
0.0003047
0.000139811
0.000100089
0.000117495
2.80707e-05
6.97756e-05
0.000109514
0.000140775
0.00016066
0.000173325
0.00018141
0.000186825
0.000190678
0.000193282
0.000194955
0.000196219
0.000197415
0.000198524
0.000199432
0.000199963
0.000199282
0.000185923
0.000175323
0.000101199
4.65916e-05
5.74044e-05
0.000310041
9.76567e-10
1.81524e-12
9.30246e-23
1.25101e-23
2.9127e-24
1.04859e-24
5.28119e-25
3.41355e-25
2.63543e-25
2.41839e-25
2.95678e-22
8.83788e-18
1.29058e-16
0.000417256
0.000930569
0.00099437
0.000962461
0.000961061
0.000946243
0.000936094
0.000931491
0.000929608
0.000928969
0.00092932
0.000930026
0.000930775
0.000931537
0.000932134
0.000932434
0.000932436
0.000932066
0.000931207
0.00092979
0.00092779
0.000925246
0.000922071
0.000918291
0.000914177
0.00090963
0.000904594
0.000899138
0.000893223
0.000887123
0.000881108
0.000875186
0.000871539
0.000868894
0.000857613
0.000829824
0.000778037
0.000675404
0.000530576
0.000695239
0.000743553
0.000795307
0.000830966
0.000861181
0.000888116
0.00090992
0.000921939
0.000928428
0.00093278
0.000935532
0.000937408
0.000938715
0.00093895
0.000939162
0.000939955
0.0009411
0.000941811
0.000941315
0.000940228
0.000935547
0.000886399
0.000788301
0.000670273
0.000547505
0.00053483
1.63677e-08
2.8007e-11
2.64656e-22
3.17905e-23
6.66326e-24
2.18368e-24
1.01183e-24
6.08598e-25
4.41663e-25
3.74898e-25
1.42972e-22
8.15154e-19
2.21898e-17
0.0010338
0.000814503
0.000401285
0.000294447
0.000292786
0.000287044
0.000278737
0.000272513
0.000268209
0.000264944
0.000262678
0.00026116
0.000260086
0.000259386
0.000258919
0.000258528
0.000258187
0.000257814
0.000257324
0.000256689
0.000255893
0.000254937
0.000253848
0.000252736
0.000251689
0.000250691
0.000249763
0.000248837
0.000247975
0.000247248
0.000246696
0.00024625
0.000247072
0.000260324
0.000295076
0.000346442
0.000405329
0.000451129
0.00044484
0.000978542
0.000906055
0.000889279
0.0008758
0.000862732
0.000850988
0.000842577
0.00083173
0.000820864
0.000814123
0.00080907
0.000805463
0.000803397
0.000801163
0.000800913
0.000803525
0.000806819
0.000810628
0.000814457
0.000819267
0.000836021
0.000857208
0.000852309
0.000829142
0.000749378
0.000701413
2.46582e-07
1.07191e-11
4.24901e-14
8.47653e-23
1.60161e-23
4.77691e-24
2.03462e-24
1.13588e-24
7.72194e-25
6.0991e-25
7.65591e-23
1.42433e-19
3.72511e-18
0.000648206
0.00016473
8.00321e-05
4.54862e-05
4.60163e-05
4.62205e-05
4.50661e-05
4.31783e-05
4.15465e-05
4.02108e-05
3.8509e-05
3.69272e-05
3.58146e-05
3.48216e-05
3.41675e-05
3.39634e-05
3.40244e-05
3.44201e-05
3.51001e-05
3.60188e-05
3.71193e-05
3.83901e-05
3.98103e-05
4.1169e-05
4.22312e-05
4.31542e-05
4.40945e-05
4.50302e-05
4.59625e-05
4.68977e-05
4.78416e-05
4.87785e-05
4.99491e-05
5.36661e-05
6.19733e-05
7.40585e-05
9.25839e-05
0.000111043
0.000205984
0.000348022
0.00029799
0.000266757
0.000246649
0.000227776
0.000210826
0.000195835
0.000185891
0.000178886
0.000173854
0.000170132
0.000167792
0.000166936
0.000167419
0.00016869
0.000171112
0.000174916
0.000180136
0.000186696
0.000193645
0.000207346
0.000260979
0.000341997
0.000424087
0.000469583
0.000547609
1.98263e-06
3.07629e-10
1.11569e-12
2.37079e-22
4.04005e-23
1.09642e-23
4.28537e-24
2.21417e-24
1.40507e-24
1.03394e-24
4.49067e-23
3.01813e-20
7.52404e-19
0.000129618
2.31265e-05
3.02292e-05
3.37196e-05
3.38642e-05
3.44017e-05
3.45058e-05
3.38337e-05
3.3095e-05
3.2463e-05
3.13345e-05
3.01402e-05
2.92522e-05
2.83921e-05
2.77722e-05
2.75224e-05
2.74917e-05
2.77575e-05
2.82974e-05
2.90762e-05
3.00526e-05
3.1224e-05
3.25832e-05
3.39082e-05
3.49324e-05
3.58e-05
3.66521e-05
3.74793e-05
3.82686e-05
3.90087e-05
3.97089e-05
4.03705e-05
4.09317e-05
4.08159e-05
3.76347e-05
3.16172e-05
2.57446e-05
3.85378e-05
3.48604e-06
4.90063e-05
4.25166e-05
4.06686e-05
3.60486e-05
3.36103e-05
3.14821e-05
2.86784e-05
2.70988e-05
2.59523e-05
2.49186e-05
2.43243e-05
2.39504e-05
2.38283e-05
2.40341e-05
2.4401e-05
2.50141e-05
2.58968e-05
2.70495e-05
2.84612e-05
2.99786e-05
3.25802e-05
4.15532e-05
5.51029e-05
7.71598e-05
8.90386e-05
0.000206776
7.59672e-06
4.68272e-09
1.55522e-11
6.94873e-22
1.06899e-22
2.63685e-23
9.44309e-24
4.50309e-24
2.65651e-24
1.81959e-24
2.9036e-23
7.39241e-21
2.77658e-17
1.93711e-05
7.73058e-05
0.000202383
0.000225435
0.000222507
0.000220676
0.000220706
0.000221287
0.000222044
0.000223028
0.000223892
0.00022451
0.000225041
0.000225484
0.000225823
0.000226131
0.000226435
0.000226737
0.000227049
0.000227369
0.000227708
0.000228084
0.000228504
0.000228938
0.000229312
0.000229535
0.000229561
0.000229401
0.000229025
0.000228419
0.000227642
0.000226723
0.000225382
0.000220514
0.000199622
0.000164734
0.000131846
7.09036e-05
4.52298e-05
5.14729e-05
3.55933e-05
4.00837e-05
4.08866e-05
4.32582e-05
4.52243e-05
4.52752e-05
4.56608e-05
4.58257e-05
4.55133e-05
4.55475e-05
4.55575e-05
4.55963e-05
4.58571e-05
4.616e-05
4.65836e-05
4.71015e-05
4.76714e-05
4.82387e-05
4.88031e-05
4.94075e-05
4.78549e-05
4.2718e-05
3.56218e-05
4.46919e-05
6.44315e-05
1.21449e-05
3.55381e-08
1.21468e-10
2.13247e-21
2.96407e-22
6.64247e-23
2.17534e-23
9.54509e-24
5.21668e-24
3.318e-24
2.13471e-23
2.12909e-21
2.23022e-18
0.000143782
0.000422321
0.00051925
0.000523228
0.0005163
0.000509921
0.000506517
0.000505346
0.000505288
0.000505967
0.000506989
0.000507962
0.000508934
0.000509829
0.000510522
0.000511132
0.000511695
0.000512177
0.000512603
0.000512955
0.000513236
0.000513464
0.000513668
0.000513816
0.000513769
0.000513367
0.000512614
0.000511598
0.000510267
0.000508563
0.00050658
0.000504339
0.000501891
0.000499039
0.000485771
0.000459413
0.000416769
0.000344179
0.000260931
0.000260568
0.000257514
0.000271531
0.000289456
0.000303633
0.000314113
0.00032148
0.000326531
0.000330283
0.000333139
0.000335291
0.000336986
0.000338278
0.000339222
0.000339861
0.00034035
0.000340816
0.000341109
0.000341039
0.000340829
0.000341083
0.000327304
0.000289908
0.00024058
0.000201674
0.000139045
5.15807e-05
4.99776e-07
2.8306e-10
1.58027e-12
8.6042e-22
1.75037e-22
5.23564e-23
2.10806e-23
1.06365e-23
6.26578e-24
1.88137e-23
7.59671e-22
3.5036e-19
0.000528915
0.000463997
0.000329735
0.000322148
0.000320263
0.000316891
0.000314059
0.000312542
0.000311825
0.000311501
0.000311694
0.00031219
0.000312701
0.00031324
0.000313747
0.000314141
0.000314452
0.000314691
0.000314793
0.000314784
0.000314633
0.000314349
0.000313943
0.000313356
0.000312696
0.000311997
0.0003112
0.000310303
0.000309323
0.000308215
0.000307078
0.000305832
0.000304506
0.000305598
0.000314869
0.000328151
0.000337236
0.000334719
0.000298548
0.000517095
0.000478357
0.000484728
0.000490643
0.000491994
0.000490759
0.000488937
0.000486797
0.00048506
0.000483873
0.000482973
0.000482357
0.000481935
0.00048161
0.000481377
0.000481389
0.000481748
0.000482194
0.000482387
0.000482625
0.000485122
0.000486419
0.00047302
0.000446215
0.000408284
0.000340492
0.000206701
5.68336e-06
1.29552e-08
6.99715e-11
2.61096e-21
4.82058e-22
1.31481e-22
4.84952e-23
2.25167e-23
1.22516e-23
2.05773e-23
3.50467e-22
7.45924e-20
0.000364413
0.00014607
1.70451e-05
1.17855e-05
1.43236e-05
1.52752e-05
1.46454e-05
1.33885e-05
1.21122e-05
1.08746e-05
9.70754e-06
8.68117e-06
7.77059e-06
6.96496e-06
6.27463e-06
5.65212e-06
5.10012e-06
4.60148e-06
4.16203e-06
3.7779e-06
3.46908e-06
3.24543e-06
3.12558e-06
3.10524e-06
3.17804e-06
3.34597e-06
3.59637e-06
3.90192e-06
4.25579e-06
4.6597e-06
5.09771e-06
5.53892e-06
5.47067e-06
5.72636e-06
2.00624e-05
4.86685e-05
9.11734e-05
0.000145983
0.000174972
0.000266599
0.000264608
0.000245082
0.000233808
0.000223243
0.000213419
0.000205944
0.000200375
0.000196309
0.000193492
0.000191487
0.000190134
0.000189288
0.000188824
0.000188737
0.000189059
0.000189832
0.000190993
0.000192393
0.000194009
0.000197193
0.000210074
0.000235051
0.000261101
0.000280558
0.000286256
0.000253589
2.84189e-05
1.8655e-07
6.30943e-11
5.23363e-13
1.38531e-21
3.44138e-22
1.16037e-22
4.94662e-23
2.47952e-23
2.73976e-23
2.09741e-22
2.08291e-20
3.12502e-05
2.44236e-05
3.63153e-06
3.39867e-06
3.91193e-06
4.26365e-06
4.30802e-06
4.09584e-06
3.83873e-06
3.60174e-06
3.30034e-06
2.99498e-06
2.74445e-06
2.51217e-06
2.3183e-06
2.17573e-06
2.06666e-06
1.99537e-06
1.96022e-06
1.95921e-06
1.99201e-06
2.06135e-06
2.17754e-06
2.32608e-06
2.46829e-06
2.60384e-06
2.7522e-06
2.91123e-06
3.08068e-06
3.25933e-06
3.4446e-06
3.62967e-06
3.7058e-06
3.75285e-06
5.75143e-06
9.83199e-06
1.86797e-05
3.23749e-05
3.7765e-05
3.84039e-05
3.85769e-05
3.81541e-05
3.48434e-05
3.35618e-05
3.2435e-05
3.06105e-05
2.95607e-05
2.87192e-05
2.78371e-05
2.7362e-05
2.6995e-05
2.67475e-05
2.67157e-05
2.67819e-05
2.6998e-05
2.73356e-05
2.77833e-05
2.83009e-05
2.88606e-05
2.96372e-05
3.18206e-05
3.70606e-05
1.21231e-05
5.72559e-05
0.000104988
0.000141417
6.52558e-05
1.33581e-06
2.62967e-09
2.03182e-11
4.14328e-21
9.36802e-22
2.88424e-22
1.1263e-22
5.18932e-23
4.24122e-23
1.60719e-22
7.50927e-21
7.98875e-06
2.41093e-05
6.16729e-06
1.01185e-05
1.04373e-05
1.10877e-05
1.19638e-05
1.25478e-05
1.29034e-05
1.32585e-05
1.34301e-05
1.33829e-05
1.33052e-05
1.31814e-05
1.30022e-05
1.28486e-05
1.27222e-05
1.26292e-05
1.2585e-05
1.2602e-05
1.26917e-05
1.2848e-05
1.3123e-05
1.35307e-05
1.39551e-05
1.42938e-05
1.45881e-05
1.48541e-05
1.50947e-05
1.5304e-05
1.54842e-05
1.56276e-05
1.56629e-05
1.51785e-05
1.01541e-05
3.74755e-07
3.23777e-05
2.6295e-05
2.80986e-05
1.56167e-05
1.10232e-05
1.18033e-05
1.161e-05
1.21631e-05
1.2835e-05
1.29969e-05
1.32878e-05
1.3523e-05
1.35742e-05
1.37137e-05
1.38199e-05
1.39032e-05
1.40417e-05
1.41742e-05
1.43341e-05
1.45109e-05
1.46965e-05
1.48693e-05
1.50242e-05
1.51266e-05
1.49087e-05
1.31636e-05
1.2379e-05
1.70606e-05
2.21158e-05
4.52539e-06
3.64897e-05
4.21821e-06
3.35517e-08
2.76061e-10
1.28731e-20
2.6461e-21
7.43117e-22
2.65375e-22
1.12188e-22
7.31867e-23
1.55477e-22
3.46584e-21
2.57436e-05
0.000170588
0.000218579
0.0002208
0.000219268
0.000218074
0.000217745
0.000217949
0.000218307
0.0002188
0.000219371
0.000219848
0.00022026
0.000220631
0.000220919
0.000221161
0.000221384
0.000221578
0.000221757
0.000221917
0.000222056
0.000222173
0.000222289
0.000222404
0.000222468
0.000222415
0.000222244
0.000221985
0.000221651
0.000221209
0.000220693
0.000220081
0.000219419
0.000218888
0.000213603
0.000200037
0.000175573
0.000139658
0.000106032
9.26819e-05
7.86477e-05
7.89488e-05
8.13204e-05
8.45836e-05
8.84088e-05
9.16987e-05
9.4596e-05
9.72336e-05
9.94556e-05
0.000101393
0.00010309
0.000104511
0.000105695
0.000106669
0.00010749
0.0001082
0.000108779
0.000109174
0.00010939
0.000109315