/*--------------------------------*- C++ -*----------------------------------*\
| =========                 |                                                 |
| \\      /  F ield         | OpenFOAM: The Open Source CFD Toolbox           |
|  \\    /   O peration     | Version:  2312                                  |
|   \\  /    A nd           | Website:  www.openfoam.com                      |
|    \\/     M anipulation  |                                                 |
\*---------------------------------------------------------------------------*/
FoamFile
{
    version     2.0;
    format      ascii;
    arch        "LSB;label=32;scalar=64";
    class       volScalarField;
    location    "100";
    object      turbulenceProperties:L;
}
// * * * * * * * * * * * * * * * * * * * * * * * * * * * * * * * * * * * * * //

dimensions      [0 1 0 0 0 0 0];

internalField   nonuniform List<scalar> 
10720
(
0.013689
0.0100711
0.00931559
0.0094429
0.0106195
0.0124314
0.0144825
0.0166646
0.0187568
0.0207636
0.0228496
0.0253269
0.0286279
0.0331201
0.0396981
0.0466738
0.0497137
0.0473596
0.0365888
0.0335274
0.038923
0.0518247
0.0685169
0.0883062
0.107628
0.12793
0.310131
0.286171
0.0938159
0.0506101
0.0262656
0.00739382
0.00341766
0.00107251
8.53192e-11
1.09613e-10
1.71404e-10
0.00579946
0.0607796
0.0259037
0.0479425
0.0500703
0.00814744
0.02607
0.0253613
0.0215151
0.0182652
0.0171322
0.0166445
0.016535
0.0168073
0.017771
0.0194164
0.0206494
0.0195512
0.0157095
0.00984155
0.00844156
0.00884778
0.00997595
0.0115489
0.0134562
0.0152867
0.0165208
0.01691
0.0148087
0.0107363
0.00664993
0.00353579
0.00148167
0.000373665
0.000198036
0.000131435
0.000130533
0.000955189
0.000135103
0.00782553
0.0758734
0.0152083
0.0149418
0.0179621
0.0226268
0.0296422
0.0386194
0.0481087
0.0573598
0.0658997
0.0736958
0.0811325
0.0883937
0.0993362
0.126138
0.186338
0.301845
0.483073
0.852441
0.968502
0.414081
0.212059
0.178518
0.193628
0.190966
0.180244
0.149186
0.182028
0.124376
0.112583
0.193536
0.168066
0.067895
0.0326911
0.00942275
0.00108786
2.46752e-10
0.001122
0.0171311
0.0943335
0.00796375
0.212521
0.293267
0.0513084
0.108771
0.111724
0.0887084
0.0908471
0.0953793
0.0990202
0.106174
0.110168
0.108131
0.100331
0.138123
0.34142
0.628689
1.60308
209.702
0.00785837
0.00796603
0.333372
0.100744
0.00126119
0.00210153
0.00356002
0.00572671
0.0065126
0.00561412
0.00510013
0.00371032
0.00252734
0.00162091
0.00099238
0.000501673
0.000680022
9.55859e-05
0.0122464
0.0948287
0.0502156
0.0296999
0.0370086
0.0368807
0.0388909
0.0410874
0.0426608
0.0438708
0.0448146
0.0456036
0.0462481
0.0467575
0.0477519
0.0463083
0.0506154
0.0125585
0.102877
0.16138
0.249802
0.425542
2.11833
0.128313
0.387183
0.544124
0.547573
0.557706
0.27322
0.131416
0.079967
0.0716922
0.0833057
0.0780986
0.0338126
0.0107144
0.00282304
0.000470893
0.000788721
0.0113398
0.19463
0.0591823
0.119792
0.114834
0.0863227
0.0538596
0.0139012
0.0253422
0.0250633
0.0258994
0.0270825
0.0173773
0.027612
0.0323538
0.033986
0.0337661
0.0372457
0.031048
0.028173
0.00950313
0.045141
0.0461732
0.0313873
0.0428041
0.0303414
0.0427751
0.0668156
0.0828272
0.0748881
0.0587808
0.048725
0.0365825
0.00662252
0.00969318
0.0108833
0.0111756
0.0162866
0.00252566
0.215619
0.533704
0.0923433
0.0934061
0.0944219
0.09335
0.0942176
0.0950432
0.095571
0.0959414
0.0961592
0.0961923
0.0960019
0.0955766
0.0949955
0.094397
0.0935516
0.0926839
0.0897216
0.07925
0.0307972
0.0283254
3.74288e-09
0.189074
11.5243
7.74853
118.981
1.18216e-07
1.08239e-09
2.14197e-09
6.03361e-09
3.20674e-08
8.23201e-07
0.000190024
0.0203994
0.0218009
0.0115106
0.0022273
0.00323913
0.0149205
0.305252
0.10573
0.096631
0.058268
0.039185
0.0288708
0.0278792
0.0280931
0.0283527
0.0284943
0.0285542
0.0293263
0.0305982
0.0314684
0.0318652
0.0318788
0.0328701
0.00836636
0.0129234
0.0159998
0.0179347
0.0190754
0.021912
0.0246852
0.0248927
0.0247749
0.025321
0.0257129
0.0256986
0.0253232
0.024885
0.0242085
0.0236659
0.023317
0.0235335
0.0218546
0.0314068
0.00448563
0.151203
5.07634
0.102667
0.0962591
0.0944447
0.0924864
0.0905859
0.0886866
0.0871475
0.0858702
0.0848374
0.0840696
0.0835167
0.0831609
0.0825039
0.0825201
0.0835795
0.0834842
0.0830397
0.0831931
0.0815767
0.0629338
0.0271368
0.0191624
3.7083e-09
0.887435
17.6047
1.48671e-07
9.09907e-14
1.61644e-13
5.0357e-13
2.4934e-12
2.61288e-11
1.15689e-09
7.49337e-05
5.68214e-10
0.0210465
0.0166108
0.00973735
0.0107611
0.199997
0.0671452
0.0405342
0.0288618
0.0138015
0.0577364
0.075682
0.0763469
0.0761867
0.075648
0.0748014
0.073781
0.0726969
0.0715603
0.0703993
0.0691544
0.0680878
0.0670483
0.065516
0.0637274
0.0621159
0.0606523
0.0593848
0.0582304
0.0570392
0.0558931
0.0547928
0.0537582
0.0528477
0.0521096
0.053195
0.0524948
0.049436
0.0484417
0.0477636
0.0455939
0.0483219
0.0184687
0.129086
14.5172
0.0384879
0.0475936
0.0405063
0.0357854
0.0317277
0.0283107
0.0256886
0.0238688
0.0229738
0.0229922
0.0237866
0.0252416
0.0272068
0.0294273
0.0321397
0.035376
0.0380429
0.0411712
0.045921
0.0496139
0.0514367
0.0431491
0.0102786
0.256094
1.29694
1.16319e-07
1.22209e-13
2.736e-19
4.61442e-19
1.11315e-18
3.44931e-18
1.38735e-17
6.88944e-17
1.33239e-11
1.04716e-11
2.75043e-10
1.09997e-08
5.04511e-09
7.63586e-05
0.0302787
0.0329439
0.0601088
0.0793878
0.0832783
0.082567
0.0824209
0.0825082
0.0825606
0.0823944
0.082116
0.0817937
0.0814417
0.0810612
0.0804684
0.0801513
0.0798239
0.0784151
0.0766828
0.0754716
0.0743755
0.0733316
0.07229
0.0712301
0.0700767
0.0688504
0.0677335
0.0667123
0.0658558
0.065278
0.0648995
0.0644577
0.0637171
0.0627772
0.0606879
0.0601305
0.035367
0.100692
1.32104
0.0298926
0.0265604
0.0262869
0.0255561
0.0255631
0.0258241
0.0259367
0.0262252
0.0265685
0.0269132
0.0273442
0.0278123
0.0283949
0.00644351
0.0113391
0.0151538
0.0169538
0.0177923
0.0222875
0.0297807
0.0342219
0.0502953
0.0232893
0.136386
0.592404
1.1465e-07
1.85273e-13
3.65585e-19
4.19779e-19
7.38886e-19
1.73485e-18
4.87449e-18
1.36692e-17
3.45338e-17
4.37757e-13
4.54217e-12
5.42892e-11
1.93933e-15
9.48552e-15
0.0433783
0.0755587
0.082749
0.0732337
0.0560408
0.0480767
0.0484606
0.0490699
0.0501249
0.0513249
0.0526183
0.0540291
0.0555479
0.057137
0.0585494
0.0596125
0.0603983
0.0606727
0.0604942
0.0601394
0.0596437
0.059032
0.0583213
0.0575244
0.0566111
0.0556715
0.0548657
0.0541473
0.0535738
0.053202
0.0530549
0.0533151
0.0535312
0.0543501
0.0557621
0.0582063
0.0450099
0.0842771
0.727311
0.0638663
0.0621218
0.0631745
0.0641609
0.0653971
0.066743
0.0678385
0.0686489
0.0691927
0.0694745
0.069534
0.069405
0.0691127
0.0686674
0.0680638
0.0672953
0.0662359
0.0668741
0.0636975
0.057935
0.0540341
0.0549353
0.0466381
0.0408956
0.165405
9.79411e-08
1.79468e-13
5.64122e-19
4.68381e-19
6.23273e-19
1.15207e-18
2.54639e-18
5.52502e-18
1.00853e-17
1.56768e-17
3.25227e-17
8.79687e-17
1.99963e-16
7.65909e-16
0.0838997
0.0788077
0.0533068
0.0225852
0.0221766
0.0181474
0.0184838
0.018764
0.0192348
0.0198089
0.0203878
0.0210524
0.0218349
0.0229459
0.0108695
0.0177918
0.0211057
0.0226973
0.023455
0.0237346
0.0237035
0.023469
0.0231039
0.0226901
0.0223066
0.0219915
0.0217758
0.0216634
0.0216895
0.0218348
0.0220722
0.0228517
0.0248198
0.0274247
0.0303168
0.035384
0.0365899
0.0575659
0.43472
0.0840369
0.0790141
0.0778703
0.0769861
0.0763835
0.0758886
0.0754297
0.0749129
0.0744043
0.0739501
0.0735367
0.0731699
0.0728713
0.0726296
0.0723322
0.0719297
0.071188
0.0711621
0.07144
0.0693654
0.0664633
0.0626005
0.0636648
0.0280264
0.0762127
9.88127e-08
3.32989e-18
9.58266e-19
5.97542e-19
6.17483e-19
9.17229e-19
1.66662e-18
3.05445e-18
4.96878e-18
7.17002e-18
1.21769e-17
2.6272e-17
5.27711e-17
1.47561e-16
0.0693206
0.0311971
0.0224339
0.0146171
0.0172249
0.0176006
0.0176591
0.0175248
0.0173448
0.0171641
0.016901
0.0166301
0.0163912
0.0161431
0.0164861
0.0172588
0.0177212
0.0179829
0.0181489
0.0182529
0.0183055
0.0183161
0.0182753
0.0181888
0.0180908
0.0180111
0.0179675
0.0179612
0.0180097
0.0181058
0.0182421
0.018551
0.0190312
0.0196412
0.0203756
0.0221552
0.0147428
0.0284173
0.203732
0.0536374
0.0539982
0.0501239
0.0479903
0.0465626
0.0452648
0.0441843
0.0432802
0.0426733
0.0424313
0.0424159
0.0426425
0.0433189
0.0443543
0.0453421
0.046277
0.0478092
0.0498273
0.0525074
0.0553952
0.057595
0.0578368
0.0594117
0.0562304
0.0221941
3.3281e-08
7.08004e-14
1.74584e-18
8.42844e-19
6.92039e-19
8.38569e-19
1.27862e-18
2.04544e-18
3.05633e-18
4.19888e-18
6.33069e-18
1.18767e-17
2.15375e-17
4.32841e-17
0.0311276
0.0147164
0.0221236
0.0336189
0.0475831
0.0478486
0.0476849
0.047455
0.0470722
0.0465677
0.0459472
0.0452128
0.0443845
0.0434652
0.0424668
0.0414426
0.0404464
0.0396183
0.0389171
0.0383069
0.0377591
0.037241
0.0366851
0.0361114
0.0355929
0.0351249
0.0347221
0.0343736
0.0340957
0.0338749
0.0337131
0.0336016
0.0329109
0.0318275
0.0305541
0.0292282
0.0293774
0.0185627
0.0411613
0.0190675
0.0193856
0.0186639
0.0179375
0.0183883
0.0186541
0.0187207
0.0188898
0.0191024
0.0193314
0.0196361
0.0199735
0.0204412
0.0210456
0.0216039
0.0224407
0.0230342
0.0235593
0.0253053
0.0177899
0.0284366
0.0360434
0.041119
0.0462867
0.0462964
8.80778e-07
1.9876e-12
3.36637e-18
1.29129e-18
8.58506e-19
8.60138e-19
1.11418e-18
1.57791e-18
2.18799e-18
2.89756e-18
4.07121e-18
6.93951e-18
1.16012e-17
1.89142e-17
0.0176911
0.0288273
0.0533569
0.0598044
0.0616507
0.0616315
0.0614496
0.0613056
0.061115
0.0608438
0.0604811
0.0600204
0.059428
0.0586859
0.0578234
0.0569248
0.0561614
0.0554956
0.0548928
0.0543235
0.0537611
0.0531485
0.0524666
0.05178
0.0511469
0.0505741
0.050079
0.0496401
0.049283
0.0489868
0.0487748
0.0486577
0.0481918
0.0477036
0.0473113
0.0457874
0.0430907
0.0375155
0.0262796
0.0232408
0.0175723
0.0190076
0.00833031
0.0170899
0.0208938
0.0236696
0.0257087
0.0272299
0.028286
0.0289871
0.0293803
0.029592
0.0296883
0.0295611
0.0308108
0.0296805
0.0270134
0.0263734
0.0249724
0.0253544
0.0283571
0.0324635
0.0348812
0.0458831
3.43801e-06
8.16997e-12
6.81764e-18
2.12098e-18
1.16145e-18
9.74989e-19
1.08373e-18
1.36871e-18
1.76671e-18
2.22949e-18
2.98885e-18
4.72913e-18
7.37164e-18
1.05129e-17
0.0422692
0.0573383
0.0571729
0.0504364
0.0458602
0.0458567
0.04574
0.0457119
0.0457754
0.0458574
0.0459006
0.0458816
0.0456732
0.0453578
0.0450011
0.044688
0.0443953
0.0441045
0.043799
0.0434628
0.0430757
0.0426289
0.0421503
0.0416925
0.0412845
0.0409211
0.0406062
0.0403282
0.0401134
0.0399438
0.0398355
0.0398358
0.0401371
0.0406877
0.0413222
0.0417103
0.0417696
0.0424637
0.0332863
0.051188
0.0505202
0.0522005
0.0534688
0.0548122
0.0559967
0.0568785
0.0575038
0.0578814
0.0580146
0.0579685
0.0578015
0.0575361
0.0571784
0.0567213
0.0561629
0.0557044
0.0552238
0.0545821
0.0541146
0.0510333
0.0462781
0.0441919
0.0406039
0.046604
1.31865e-05
3.2769e-11
1.44365e-17
3.70339e-18
1.69534e-18
1.20769e-18
1.16312e-18
1.317e-18
1.58281e-18
1.91511e-18
2.44055e-18
3.57833e-18
5.19742e-18
6.79473e-18
0.057897
0.0492839
0.0326108
0.00957993
0.0179963
0.0179731
0.0180207
0.0179241
0.0178708
0.0178677
0.0177985
0.0177452
0.0177449
0.00337187
0.00472887
0.0057067
0.00643628
0.00697848
0.00735537
0.00759103
0.00769685
0.00770779
0.00766405
0.00764653
0.00770243
0.00781425
0.00797747
0.0081907
0.0084665
0.00880237
0.00913507
0.00943507
0.0110424
0.0142771
0.0182012
0.0224192
0.0266975
0.031579
0.0310397
0.0544352
0.0512117
0.0503274
0.0502717
0.0500934
0.0498756
0.0498204
0.0499174
0.0500365
0.0501324
0.0502624
0.0504689
0.0507475
0.0511049
0.051525
0.052022
0.0525492
0.0530174
0.053544
0.0540238
0.0542998
0.0536283
0.0515805
0.0474514
0.0493119
5.10158e-05
3.86733e-13
8.08047e-15
6.83558e-18
2.64931e-18
1.6203e-18
1.36489e-18
1.39236e-18
1.55808e-18
1.80805e-18
2.18927e-18
2.96442e-18
4.70093e-18
5.89821e-18
0.0392367
0.0115748
0.0130849
0.00982402
0.00953673
0.00963069
0.00967139
0.00959171
0.00949336
0.00940333
0.00926574
0.00913424
0.00905133
0.00908407
0.00914898
0.0092504
0.00936502
0.00949215
0.00962084
0.00974504
0.00986315
0.00997603
0.0100849
0.0101912
0.0102915
0.0103878
0.0104886
0.0105932
0.0107093
0.0108409
0.0109688
0.011081
0.0113843
0.011968
0.0127971
0.0141268
0.0152289
0.00916762
0.0200485
0.0268594
0.0287521
0.0253472
0.0232279
0.021347
0.0194871
0.018284
0.0180853
0.0183473
0.0188009
0.0196335
0.0207809
0.0221405
0.0236584
0.0252364
0.0268512
0.0285384
0.0302607
0.0318459
0.034219
0.0384983
0.0424632
0.0448114
0.0446337
0.0473299
0.000178731
3.67236e-12
6.50165e-14
1.32878e-17
4.40728e-18
2.33812e-18
1.73778e-18
1.60489e-18
1.67307e-18
1.85638e-18
2.14507e-18
3.42331e-18
3.99847e-17
6.94111e-16
0.0171484
0.0106086
0.00281419
0.0248089
0.0256831
0.0255843
0.0256008
0.0255941
0.0255541
0.0255003
0.0254186
0.025312
0.0252038
0.0250962
0.0249864
0.024877
0.0247686
0.0246627
0.0245601
0.0244577
0.0243564
0.0242574
0.0241608
0.0240721
0.0239937
0.023914
0.0238341
0.0237504
0.0236739
0.0236146
0.0235517
0.0234723
0.0231407
0.0221971
0.0206569
0.0195476
0.016054
0.0116673
0.0170196
0.0106364
0.0119095
0.0120256
0.0118605
0.0119961
0.0120949
0.0120086
0.0121133
0.0122689
0.0123972
0.0126484
0.0129883
0.0134107
0.0139259
0.0144869
0.0150977
0.0157724
0.0164869
0.0171689
0.018466
0.0199793
0.0120587
0.0233897
0.0295032
0.0359374
0.00050568
2.01673e-11
3.05653e-13
2.71431e-17
7.77408e-18
3.60877e-18
2.38492e-18
2.00359e-18
1.94775e-18
2.0614e-18
2.31657e-18
2.65276e-16
4.45004e-11
1.59165e-09
0.016319
0.027714
0.0417418
0.0454081
0.0454556
0.0452072
0.0450277
0.0449277
0.0448606
0.0448071
0.044757
0.0447023
0.0446469
0.0445875
0.0445161
0.0444312
0.0443304
0.0442116
0.0440739
0.0439166
0.0437447
0.0435627
0.0433722
0.0431835
0.0430079
0.0428334
0.0426626
0.0424903
0.0423347
0.0422143
0.0420901
0.0419963
0.0418667
0.041374
0.0404449
0.0389316
0.0365111
0.0334798
0.0292418
0.010876
0.0144772
0.0190089
0.0219922
0.0242111
0.0258771
0.0267548
0.0272087
0.0274951
0.0276483
0.0277308
0.0277839
0.027823
0.0278509
0.0278428
0.0278231
0.0278239
0.0278016
0.0276989
0.0289705
0.0265753
0.0223372
0.0227132
0.0250088
0.0286298
0.00138001
1.07316e-10
1.40399e-12
5.81894e-17
1.45012e-17
5.93301e-18
3.50914e-18
2.69292e-18
2.44458e-18
2.46496e-18
6.42668e-18
1.18341e-11
1.68814e-09
3.38133e-09
0.0378585
0.0469318
0.0444799
0.039122
0.0390033
0.0388308
0.038635
0.0385363
0.0384984
0.0384872
0.0385025
0.0385321
0.0385632
0.0385911
0.0386093
0.0386103
0.0385939
0.0385578
0.0385004
0.0384196
0.0383182
0.0382007
0.0380666
0.0379268
0.0377954
0.0376679
0.0375457
0.037425
0.0373205
0.0372514
0.0371896
0.0371534
0.0372569
0.0376113
0.0379202
0.0379498
0.0379401
0.0371791
0.0334095
0.0433133
0.0427532
0.0438812
0.0449987
0.0456788
0.0461306
0.0463051
0.0463197
0.0463308
0.0463558
0.0463878
0.0464152
0.046465
0.0465168
0.0465272
0.0465266
0.0465406
0.0465282
0.0464587
0.0463689
0.0453477
0.0432121
0.041069
0.0378981
0.0340549
0.00412918
6.17615e-10
7.02396e-12
1.30845e-16
2.85557e-17
1.03582e-17
5.51203e-18
3.87659e-18
3.28969e-18
3.15807e-18
5.39047e-18
1.66665e-12
1.45902e-09
1.20098e-09
0.0478534
0.0395231
0.025553
0.0142497
0.0141858
0.0144771
0.014392
0.0142439
0.0141481
0.0141018
0.0140935
0.0141191
0.014169
0.014239
0.0143204
0.0144083
0.0144974
0.0145857
0.0146677
0.0147407
0.0148024
0.0148556
0.0149022
0.0149522
0.0150116
0.0150776
0.0151494
0.015226
0.0153126
0.0154195
0.0155423
0.0156403
0.015816
0.0173477
0.0197355
0.0225691
0.0261682
0.0293981
0.0294208
0.0436759
0.0411136
0.0400505
0.0394906
0.0387357
0.0380617
0.0375011
0.0370625
0.0368767
0.0368714
0.036968
0.0370881
0.0372996
0.0375951
0.0378723
0.0381738
0.0385274
0.0389061
0.0392934
0.0399364
0.0410397
0.0416644
0.0416738
0.0409747
0.0381002
0.0109745
3.45726e-09
3.43834e-11
3.08551e-16
5.92889e-17
1.91581e-17
9.21056e-18
5.95053e-18
4.7224e-18
4.30902e-18
5.82136e-18
3.73934e-13
1.12674e-11
2.78231e-09
0.031384
0.0108244
0.0106278
0.00557174
0.00560436
0.00580124
0.00579267
0.00569273
0.00560925
0.00555402
0.00548244
0.0054269
0.00540793
0.0054041
0.00542648
0.00548044
0.00555232
0.00564475
0.00575243
0.00587088
0.00599428
0.00612299
0.00625536
0.00638434
0.00649987
0.00661032
0.00672196
0.00683454
0.00694939
0.00707094
0.00719931
0.00731382
0.00746314
0.00825479
0.00952233
0.0109013
0.0129322
0.0128955
0.020001
0.0209683
0.0210426
0.0172478
0.0145567
0.0120827
0.00960614
0.00759545
0.00615182
0.005447
0.00552164
0.00607231
0.00684559
0.00765665
0.00853194
0.00949446
0.0105479
0.0116806
0.0128874
0.0140859
0.0154708
0.0185116
0.0229909
0.0275526
0.0313475
0.0321159
0.0200789
1.7864e-08
1.56143e-10
7.62915e-16
1.29676e-16
3.74661e-17
1.63243e-17
9.70209e-18
7.19829e-18
6.22976e-18
7.07297e-18
1.09752e-13
4.99473e-09
3.38948e-09
0.0136771
0.00588907
0.0102518
0.0114018
0.0115126
0.0116128
0.0116407
0.0115559
0.0114648
0.011389
0.0112389
0.0110851
0.0109853
0.0108953
0.0108478
0.0108592
0.0109061
0.0109957
0.0111217
0.0112762
0.0114487
0.0116401
0.0118436
0.0120347
0.0121871
0.0123184
0.0124457
0.012569
0.0126884
0.0128094
0.0129336
0.0130557
0.0131757
0.0131783
0.00239306
0.0123527
0.0113074
0.0120581
0.0101772
0.00781457
0.00790949
0.00670513
0.00592763
0.00569245
0.00558589
0.00553013
0.00555156
0.00562566
0.00573279
0.00589548
0.00608048
0.00627151
0.00649182
0.00674521
0.00704571
0.00739374
0.00778638
0.00819743
0.00867487
0.00958914
0.0111347
0.0127152
0.0100935
0.0168527
0.0219092
8.25763e-08
6.37035e-10
1.97738e-15
2.9847e-16
7.73306e-17
3.06047e-17
1.67442e-17
1.1604e-17
9.4999e-18
9.56466e-18
3.99927e-14
1.30786e-09
2.09593e-09
0.00876229
0.0119375
0.0271232
0.0301302
0.0301472
0.0300251
0.0300215
0.0300878
0.0301721
0.0302595
0.0303434
0.0304152
0.0304772
0.030531
0.0305743
0.0306089
0.0306364
0.0306566
0.0306696
0.0306744
0.0306721
0.0306653
0.0306536
0.0306393
0.0306281
0.0306145
0.0305973
0.030579
0.0305598
0.0305518
0.0305624
0.0305794
0.0306058
0.0303494
0.0296069
0.0280291
0.025504
0.0227011
0.0201465
0.0125078
0.0105987
0.0115172
0.00564617
0.00892436
0.0112083
0.0127375
0.0136352
0.0141882
0.0145385
0.0147741
0.0149455
0.0150685
0.0151548
0.0152229
0.0152906
0.0153619
0.0154268
0.015473
0.0154733
0.0149788
0.0145744
0.0110881
0.00752913
0.00835825
0.0187726
4.20906e-07
2.87728e-09
5.37077e-15
7.22268e-16
1.68165e-16
6.05402e-17
3.04909e-17
1.97081e-17
1.52157e-17
1.39626e-17
1.70709e-14
4.64629e-10
3.06131e-09
0.0217497
0.0325998
0.0337036
0.0331986
0.033217
0.0329996
0.0328637
0.0328286
0.0328429
0.0328792
0.0329335
0.0329943
0.0330556
0.0331167
0.0331736
0.0332239
0.0332678
0.0333043
0.0333313
0.0333475
0.0333541
0.0333547
0.0333491
0.0333394
0.0333342
0.0333297
0.0333233
0.0333173
0.0333116
0.0333158
0.0333403
0.0333822
0.0334799
0.0336054
0.0335724
0.0332241
0.0323843
0.0304165
0.026972
0.028119
0.0291151
0.0301993
0.0309657
0.0316067
0.0321735
0.0326337
0.0329059
0.0330737
0.0332002
0.0332963
0.0333799
0.03346
0.0335231
0.0335824
0.0336563
0.0337499
0.0338379
0.0338947
0.033943
0.0339428
0.033116
0.0312849
0.0288824
0.0261214
0.0255801
3.30528e-06
2.02831e-08
1.52799e-14
1.83543e-15
3.84703e-16
1.26075e-16
5.84182e-17
3.51374e-17
2.54994e-17
2.16447e-17
8.25446e-15
4.66405e-11
1.02774e-09
0.0345137
0.0307359
0.0215789
0.0185052
0.0184719
0.0183066
0.018059
0.0178795
0.0177635
0.0176819
0.0176342
0.017612
0.0176047
0.0176099
0.0176224
0.0176367
0.0176519
0.0176655
0.0176743
0.0176775
0.0176754
0.0176701
0.0176633
0.01766
0.0176648
0.0176765
0.0176947
0.0177175
0.0177472
0.017788
0.0178445
0.0179149
0.0180389
0.0186173
0.0199343
0.0217326
0.0236653
0.0251655
0.0250295
0.0336114
0.0323703
0.0321657
0.032025
0.0318677
0.031718
0.0316183
0.0314632
0.0313045
0.0312241
0.0311773
0.0311634
0.0311863
0.0312082
0.0312658
0.0313823
0.0315228
0.0316747
0.0318182
0.0319832
0.0323968
0.0328904
0.0328638
0.0324636
0.0308958
0.0298377
2.51097e-05
2.30163e-08
3.34187e-10
4.89392e-15
9.24689e-16
2.75795e-16
1.17469e-16
6.55802e-17
4.45827e-17
3.52132e-17
4.42014e-15
8.21039e-12
2.06521e-10
0.0275278
0.0139237
0.00970844
0.00732568
0.00737362
0.00739507
0.00730918
0.00716379
0.00703779
0.00693511
0.00679865
0.00666956
0.00658026
0.00650012
0.00645017
0.00644193
0.00645855
0.0065067
0.00658125
0.00667738
0.00678961
0.00691707
0.00705791
0.00719365
0.00730506
0.00740628
0.00751044
0.00761593
0.00772287
0.00783229
0.00794608
0.0080638
0.00820433
0.00855181
0.00924359
0.0101676
0.0114454
0.0126326
0.0172475
0.020179
0.0186843
0.0177341
0.0171093
0.0164827
0.0158891
0.0153402
0.0149694
0.0147092
0.0145268
0.014398
0.0143286
0.0143249
0.0143793
0.0144664
0.0146037
0.0148039
0.0150629
0.0153709
0.0156925
0.0162861
0.0183239
0.0210247
0.023454
0.0247132
0.0266977
0.000142049
2.31187e-07
3.02438e-09
1.36877e-14
2.33252e-15
6.33018e-16
2.47416e-16
1.27835e-16
8.11216e-17
5.96947e-17
2.59269e-15
1.74193e-12
4.30799e-11
0.01239
0.00525253
0.00600719
0.00634851
0.00636534
0.00641964
0.00643591
0.00638209
0.00632272
0.00627364
0.00617571
0.006069
0.00599083
0.00591364
0.00585981
0.00584411
0.00585138
0.00589004
0.00595751
0.00604955
0.00616145
0.00629288
0.00644287
0.00658935
0.00670765
0.00681246
0.00691705
0.00702085
0.00712262
0.00722163
0.00732
0.0074187
0.00751199
0.00754451
0.00728764
0.00672148
0.00610636
0.0075282
0.0022711
0.0076182
0.00710044
0.00696775
0.00658199
0.00637101
0.00617827
0.00590754
0.00575293
0.00564094
0.00553917
0.00548495
0.00545551
0.00545514
0.00549239
0.00554755
0.00563085
0.00574528
0.00588829
0.00605546
0.0062312
0.00651642
0.00738232
0.008523
0.0101057
0.0108724
0.0165854
0.000561882
1.72888e-06
2.04035e-08
4.01182e-14
6.1718e-15
1.52238e-15
5.45197e-16
2.59986e-16
1.53373e-16
1.05054e-16
1.67639e-15
4.26766e-13
1.2251e-09
0.00481922
0.0096646
0.0156407
0.0165139
0.0164133
0.0163574
0.0163785
0.0164277
0.016488
0.0165597
0.0166286
0.0166889
0.0167451
0.0167969
0.0168435
0.0168877
0.0169312
0.0169746
0.0170186
0.0170634
0.0171106
0.0171627
0.0172218
0.0172869
0.017356
0.0174253
0.0174913
0.0175548
0.0176144
0.0176693
0.0177239
0.0177812
0.0178303
0.0177407
0.0169815
0.0155236
0.0139819
0.0103299
0.00827876
0.0078534
0.00653593
0.00696035
0.00705349
0.00727328
0.00745276
0.0074725
0.0075202
0.00755105
0.00754362
0.00756536
0.00758557
0.00760861
0.00765009
0.00769469
0.00775027
0.0078161
0.0078868
0.00795558
0.00802476
0.0081013
0.00799997
0.00757978
0.00693693
0.00778334
0.00935687
0.0014154
9.32981e-06
1.05405e-07
1.23115e-13
1.7113e-14
3.83503e-15
1.25593e-15
5.51086e-16
3.01185e-16
1.91565e-16
1.23248e-15
1.2292e-13
1.25648e-10
0.0132102
0.0227292
0.0252045
0.0253077
0.0251518
0.0250193
0.0249736
0.0249945
0.02505
0.025128
0.0252168
0.0253039
0.0253888
0.0254688
0.0255408
0.0256085
0.025674
0.0257376
0.0258008
0.0258637
0.0259281
0.0259974
0.0260743
0.0261583
0.0262464
0.0263335
0.0264173
0.026501
0.0265831
0.0266613
0.026741
0.0268247
0.0269159
0.0270017
0.0268047
0.0262332
0.0251554
0.0230271
0.0201244
0.0177766
0.0176906
0.0182319
0.0188896
0.0193985
0.0197784
0.020057
0.0202633
0.0204322
0.0205756
0.0206978
0.020806
0.0209019
0.0209863
0.0210607
0.021134
0.0212138
0.0212906
0.0213521
0.0214107
0.021494
0.0211315
0.019949
0.018217
0.0167106
0.013894
0.00523447
6.99629e-05
3.04158e-07
6.00636e-09
4.96759e-14
1.01057e-14
3.0228e-15
1.21709e-15
6.14097e-16
3.61755e-16
1.08621e-15
4.38593e-14
2.01496e-11
0.0254985
0.0239741
0.02021
0.0199816
0.0199362
0.0198552
0.0198028
0.0198008
0.0198295
0.0198738
0.0199357
0.020006
0.0200744
0.0201406
0.0202028
0.0202592
0.020312
0.0203628
0.0204101
0.0204558
0.0204999
0.0205449
0.0205926
0.020641
0.0206933
0.0207501
0.0208076
0.0208667
0.0209282
0.0209899
0.0210574
0.021129
0.0212084
0.0213782
0.0218368
0.0224365
0.0229
0.0229794
0.0217887
0.0252031
0.0242706
0.0245239
0.0247639
0.0248712
0.0249082
0.0249291
0.0249416
0.0249668
0.0250077
0.0250557
0.0251101
0.0251684
0.025228
0.0252898
0.0253633
0.0254553
0.0255534
0.025641
0.0257307
0.0258917
0.0260251
0.0257492
0.0250757
0.0240361
0.0219824
0.0147854
0.000478358
3.97557e-06
7.32226e-08
1.50739e-13
2.78315e-14
7.59105e-15
2.79987e-15
1.3e-15
7.07346e-16
1.18803e-15
2.02341e-14
4.30303e-12
0.0213066
0.01354
0.00462563
0.00384787
0.00424585
0.00439127
0.00430905
0.00413083
0.00394035
0.0037449
0.00354903
0.00336602
0.0031934
0.00303114
0.00288391
0.00274334
0.00261171
0.00248628
0.00236998
0.00226335
0.0021744
0.00210905
0.00207623
0.0020766
0.00210861
0.00217218
0.00226132
0.00236568
0.00248203
0.0026097
0.0027437
0.00287576
0.00287518
0.00296026
0.00557653
0.00874263
0.0120485
0.0153561
0.0168842
0.0182193
0.0181755
0.0175613
0.0172207
0.0168822
0.0165568
0.0163121
0.0161363
0.0160186
0.0159506
0.0159149
0.0159051
0.0159153
0.0159404
0.0159817
0.0160441
0.0161321
0.0162395
0.0163552
0.0164802
0.0166777
0.0172821
0.0183448
0.0193905
0.0201458
0.0203825
0.0185706
0.00214384
2.97518e-05
1.30119e-07
3.79832e-09
7.99795e-14
1.98687e-14
6.69942e-15
2.85593e-15
1.43155e-15
1.5818e-15
1.21094e-14
1.20229e-12
0.00628287
0.00557553
0.00215055
0.00208177
0.00223602
0.00233852
0.00235632
0.00230418
0.00223765
0.00217448
0.00208823
0.00199542
0.00191567
0.00183776
0.00176985
0.00171865
0.0016789
0.00165353
0.00164282
0.0016465
0.00166465
0.00169833
0.0017512
0.00181638
0.00187819
0.00193683
0.00199956
0.00206554
0.0021347
0.00220646
0.00228018
0.0023537
0.00239266
0.00242336
0.00301967
0.0039746
0.00551673
0.00731577
0.0079384
0.00696363
0.00698911
0.00697992
0.00669911
0.00659832
0.00650789
0.00634187
0.00625076
0.00617971
0.00610273
0.00606915
0.00604692
0.00603742
0.00605178
0.00607738
0.0061215
0.00618191
0.00625601
0.00633721
0.00642271
0.00653375
0.00679774
0.00736302
0.00422417
0.00920274
0.0124842
0.0144146
0.00590877
0.000159782
1.60415e-06
4.298e-08
2.39202e-13
5.40857e-14
1.66521e-14
6.50266e-15
2.99605e-15
2.44867e-15
9.27911e-15
4.33512e-13
0.00319965
0.00558117
0.00282439
0.0036209
0.00368251
0.00380293
0.00396061
0.00406857
0.00413941
0.0042102
0.0042516
0.00425768
0.00425799
0.00424997
0.00423199
0.00421735
0.0042067
0.00420148
0.00420453
0.00421825
0.00424487
0.00428369
0.00434363
0.0044265
0.00451267
0.00458559
0.00465198
0.00471484
0.00477511
0.00483178
0.0048858
0.00493603
0.00497168
0.00492628
0.00405609
0.000784551
0.00734417
0.00666757
0.00692759
0.0044728
0.00376336
0.00391183
0.00389788
0.00400501
0.00412836
0.00416774
0.004227
0.00427736
0.00429896
0.00433498
0.004366
0.00439338
0.00442923
0.00446427
0.00450465
0.0045495
0.00459677
0.00464166
0.00468344
0.00471792
0.00470329
0.00443617
0.00431583
0.00508002
0.00579538
0.00262292
0.00635085
0.000573015
1.11522e-05
2.93294e-07
7.43122e-13
1.52768e-13
4.29035e-14
1.53214e-14
6.47714e-15
4.22543e-15
8.97643e-15
2.00093e-13
0.00578722
0.0149645
0.0169528
0.0170568
0.0170227
0.0170112
0.0170447
0.0171075
0.0171802
0.0172599
0.0173423
0.0174182
0.0174882
0.0175533
0.0176122
0.0176673
0.0177207
0.0177731
0.0178258
0.0178795
0.017935
0.0179939
0.0180586
0.0181288
0.0182014
0.018273
0.0183428
0.0184128
0.0184853
0.0185583
0.0186352
0.018715
0.018801
0.0189028
0.0187994
0.0183192
0.0172861
0.0155334
0.0136092
0.0109782
0.0101288
0.0101974
0.0104014
0.0106509
0.0109281
0.0111666
0.0113771
0.0115709
0.0117405
0.0118945
0.0120355
0.0121604
0.0122707
0.0123689
0.0124609
0.0125512
0.012637
0.0127115
0.0127744
0.0128214
0.0127546
0.0120189
0.0108085
0.00962039
0.00765814
0.00594241
0.00638929
0.00187311
7.0223e-05
9.13897e-07
3.42023e-08
4.46812e-13
1.14323e-13
3.72847e-14
1.44397e-14
7.88755e-15
1.0647e-14
1.16331e-13
0.0183088
0.0193421
0.0180234
0.0178534
0.0177468
0.0176822
0.0176706
0.017705
0.0177613
0.0178289
0.0179057
0.0179825
0.0180557
0.0181054
0.0181508
0.0181961
0.0182434
0.0182928
0.0183439
0.0183966
0.0184511
0.0185087
0.0185702
0.0186349
0.0187021
0.0187705
0.0188381
0.018906
0.018977
0.0190499
0.0191278
0.0192104
0.0193029
0.019452
0.0196428
0.0197474
0.0195724
0.0189118
0.0175613
0.0191235
0.0182265
0.0181426
0.0182561
0.0183698
0.0185006
0.0186339
0.0187578
0.0188825
0.0190051
0.0191275
0.0192505
0.0193668
0.0194741
0.0195741
0.0196739
0.0197809
0.019891
0.0199933
0.0200838
0.0201675
0.0202591
0.0200173
0.019436
0.0185276
0.0172291
0.0158986
0.0139139
0.00659956
0.000426208
1.24284e-05
7.2406e-08
3.52691e-09
3.14432e-13
9.35405e-14
3.31482e-14
1.56126e-14
1.48539e-14
8.33727e-14
0.0186243
0.0131298
0.00910795
0.00849988
0.00837613
0.00829077
0.00821567
0.00816733
0.0081423
0.00812882
0.00812685
0.00813314
0.00814566
0.00826399
0.0084501
0.00862676
0.00878102
0.00891244
0.00902696
0.00912811
0.00922184
0.00930982
0.00939595
0.00948268
0.00956743
0.00964883
0.00972415
0.00979556
0.0098659
0.00993437
0.0100021
0.0100698
0.0101349
0.0102402
0.0107058
0.01169
0.0130041
0.0142949
0.0146367
0.0163287
0.0159564
0.0156403
0.0155073
0.0154041
0.015313
0.015262
0.0152208
0.0151922
0.0151845
0.0151906
0.0152106
0.0152396
0.0152719
0.0153077
0.015352
0.015411
0.0154828
0.0155595
0.0156375
0.0157147
0.0159133
0.0163819
0.0167973
0.0170032
0.016957
0.0166297
0.0158098
0.0121766
0.0018748
8.62938e-05
2.05666e-06
9.21852e-08
8.91343e-13
2.41574e-13
7.82314e-14
3.23626e-14
2.34193e-14
7.25959e-14
0.0100616
0.00607099
0.00368807
0.00343958
0.00341521
0.0034186
0.00339053
0.00333007
0.00327304
0.00322254
0.00314735
0.00306742
0.0030023
0.00297089
0.00297129
0.00298766
0.00300739
0.00304013
0.00308869
0.00315397
0.00323527
0.00333435
0.0034513
0.00356614
0.00365415
0.003729
0.00380435
0.0038805
0.00395835
0.00403693
0.00411639
0.00419707
0.00427771
0.00437642
0.00463303
0.00512287
0.00584738
0.00386086
0.00811624
0.0058434
0.00658297
0.00575946
0.00518746
0.00474671
0.00431495
0.00389375
0.00347726
0.00304053
0.00259986
0.00214619
0.00165426
0.00108187
0.00578725
0.00578717
0.00581088
0.00584614
0.0058915
0.00594178
0.00599354
0.00604091
0.00626443
0.00399371
0.00668343
0.00886449
0.0108001
0.0122843
0.0131191
0.0127163
0.00534173
0.000415671
1.68808e-05
7.79441e-07
2.60208e-12
6.41844e-13
1.89638e-13
6.97036e-14
4.0446e-14
7.58334e-14
0.00433949
0.00309767
0.00358773
0.00351003
0.00345132
0.00345822
0.00347
0.00344996
0.00342268
0.00339574
0.00333506
0.00326218
0.00319928
0.00308462
0.00300038
0.00294675
0.00290994
0.00289641
0.00290558
0.00293646
0.00298503
0.0030532
0.00313901
0.00322252
0.00328019
0.00332636
0.00337567
0.00342744
0.00348201
0.00353841
0.0035972
0.00365823
0.00372205
0.00378824
0.00379815