/*--------------------------------*- C++ -*----------------------------------*\
| =========                 |                                                 |
| \\      /  F ield         | OpenFOAM: The Open Source CFD Toolbox           |
|  \\    /   O peration     | Version:  2312                                  |
|   \\  /    A nd           | Website:  www.openfoam.com                      |
|    \\/     M anipulation  |                                                 |
\*---------------------------------------------------------------------------*/
FoamFile
{
    version     2.0;
    format      ascii;
    arch        "LSB;label=32;scalar=64";
    class       volScalarField;
    location    "100";
    object      turbulenceProperties:epsilon;
}
// * * * * * * * * * * * * * * * * * * * * * * * * * * * * * * * * * * * * * //

dimensions      [0 2 -3 0 0 0 0];

internalField   nonuniform List<scalar> 
10720
(
0.247544
0.364909
0.540768
0.67524
0.775284
0.899189
1.06329
1.27718
1.59512
2.0872
2.86817
4.16438
6.41928
10.4387
19.3752
42.0051
104.189
341.883
1232.06
2687.7
4195.44
5936.41
7803.86
10347.5
14072.8
17489.9
15945.3
31225.6
51832.3
24819
7405.65
920.793
222.003
14.9517
5.99025e-14
4.64045e-14
2.93152e-14
3.55611
49.5536
0.228162
0.117233
0.0542755
0.19659
0.0711409
0.133081
0.185034
0.207299
0.241353
0.283301
0.355079
0.474888
0.681205
1.05659
1.92702
4.15127
11.4047
32.7529
62.0508
89.3643
114.961
146.363
197.066
290.553
438.038
657.23
760.443
583.509
294.462
96.0356
16.7343
0.91704
0.198228
0.0620386
0.0418277
1.5084
0.0208036
52.7991
3684.41
0.0459705
0.065349
0.0509141
0.0399455
0.0290276
0.0204453
0.0149904
0.0113927
0.00911175
0.00759809
0.0065479
0.00583136
0.00570342
0.00726543
0.0129142
0.028826
0.0684314
0.170221
0.650025
5.5628
27.8924
92.4726
293.929
696.205
1552.29
2902.38
7372.72
22956.9
17230.4
4284.01
1480.99
742.659
189.781
15.9755
0.371933
2.00582e-14
0.153813
5.64187
61.868
0.00077045
0.00205006
0.00218952
0.0313911
0.0194979
0.0119091
0.00679404
0.00638727
0.00651783
0.00665071
0.00706332
0.00677275
0.00551463
0.00377108
0.00506689
0.0178559
0.0214506
0.015731
0.00020636
0.519328
0.580758
0.00436892
0.041367
1.21523
1.62182
3.45481
4.74139
4.45548
3.48397
2.07965
1.20413
0.575163
0.230356
0.0772596
0.0168213
0.0248536
0.000371413
4.27059
346.291
0.00358708
0.00164182
0.00239808
0.0022717
0.0024654
0.00274139
0.00301718
0.00330514
0.00360412
0.00391956
0.00424598
0.00457356
0.00502028
0.00495617
0.0062149
0.000402539
0.0284338
0.0733709
0.203069
0.450778
0.245498
0.462004
9.97382
50.2271
156.267
263.044
1626.26
6668.59
7870.4
4736.59
1660.66
555.809
253.83
59.4752
5.50008
0.106889
0.0929377
3.36345
53.6506
0.00850563
0.0168701
0.0196571
0.0157407
0.00585576
0.000364222
0.00115583
0.00111127
0.00120692
0.00137616
0.000599949
0.00161513
0.00237033
0.00279452
0.00294751
0.00383847
0.00286265
0.00253963
0.00031318
0.00771668
0.0088887
0.00456275
0.00952589
0.00546237
0.00838255
0.0189546
0.0340258
0.0410785
0.0362844
0.024609
0.0146181
0.000933321
0.00314673
0.00533192
0.00648047
0.012974
0.000189165
0.0596759
14.0518
0.0154438
0.0157274
0.0157452
0.0153518
0.0154801
0.0156521
0.0157849
0.0158829
0.0159837
0.0160991
0.016226
0.0163587
0.0165184
0.0167552
0.0170007
0.0173524
0.0170172
0.0139576
0.00223066
0.00202981
3.88277e-16
0.0275085
0.041572
0.448161
0.295777
4755.88
4327.27
4616.93
2256.31
1209.85
595.848
211.538
28.6477
21.7113
8.37639
0.210156
0.189354
1.76913
27.5017
0.0222311
0.0147337
0.00535373
0.00243537
0.00132065
0.00124512
0.00127615
0.00131528
0.00134734
0.00137602
0.00148151
0.00165325
0.0018013
0.00191275
0.00199259
0.00221658
0.000151102
0.000381734
0.000623911
0.000841534
0.0010152
0.00142126
0.00191119
0.00206272
0.00218032
0.00244854
0.00271762
0.00292705
0.00306997
0.00318408
0.00317492
0.00317198
0.00322134
0.00342603
0.0030839
0.00653182
0.000111259
0.0490835
0.791174
0.0164277
0.0144598
0.0140346
0.0136049
0.0131585
0.0128266
0.012591
0.0124421
0.0123891
0.0124357
0.0125701
0.0127952
0.0129638
0.0133939
0.0142505
0.0148286
0.015386
0.016273
0.016578
0.0105279
0.00210604
0.00107127
4.01223e-16
0.743747
0.822847
878.386
2.45122e+07
6.19703e+06
2.79565e+06
1.64019e+06
2.01421e+06
3.78947e+06
863.425
10.395
1.55977
0.890481
0.570143
0.532032
14.3033
0.00722694
0.00265078
0.00137676
0.000306711
0.00538589
0.00936928
0.00970451
0.00987894
0.0099829
0.0100269
0.0100481
0.0100763
0.0101154
0.0101761
0.0102427
0.0103998
0.0106118
0.01072
0.0107953
0.0108383
0.0108159
0.0107879
0.010753
0.0106595
0.0105434
0.0104438
0.0103247
0.0101647
0.00995276
0.0103835
0.0100556
0.00878487
0.00822879
0.00768872
0.00667077
0.00701363
0.000928941
0.0400742
0.179129
0.00224636
0.00345698
0.00256869
0.00204471
0.00164175
0.00132984
0.00111053
0.000973139
0.000916737
0.000935905
0.00102381
0.0011821
0.00141316
0.0017081
0.00211503
0.00267506
0.00324764
0.00401284
0.00529942
0.00662118
0.00768719
0.00588562
0.000355531
0.214587
3.68886
457.609
4.12893e+06
1.89918e-05
1.12607e-05
4.66799e-06
1.50643e-06
3.74539e-07
7.5422e-08
49.5779
2.19407
3.01991
1.22671
0.00646483
4423.87
0.00139645
0.00177408
0.00578119
0.0101582
0.0113212
0.0112688
0.0113949
0.0116372
0.0119254
0.0122006
0.0124899
0.0128096
0.0131634
0.0135572
0.0139338
0.0144751
0.0151027
0.0154142
0.0156299
0.0158559
0.0159913
0.0160601
0.016074
0.0160284
0.0159449
0.0158287
0.0156449
0.0153995
0.0150831
0.0146811
0.014226
0.0136515
0.0129394
0.0121346
0.0109914
0.0104905
0.00361454
0.0316399
1.12278
0.00133619
0.00107531
0.00108013
0.00103994
0.00105661
0.00108802
0.00110819
0.00114655
0.00119446
0.00124876
0.00131844
0.00140029
0.00150403
8.01397e-05
0.00025803
0.000481863
0.000634233
0.000738444
0.00123342
0.00236785
0.00339293
0.0079522
0.00182745
0.0665411
1.26395
131.218
816571
1.42133e-05
1.23783e-05
7.03241e-06
2.99516e-06
1.06599e-06
3.80136e-07
1.50465e-07
5.88381
20.7647
28.5577
2.67935e-09
5.47797e-10
0.00296472
0.00922818
0.0107623
0.00858156
0.00506066
0.00375062
0.0038554
0.00402457
0.00429727
0.00462725
0.00500983
0.00545475
0.0059689
0.00655751
0.00717467
0.00778301
0.00840246
0.00896753
0.00936801
0.00962674
0.00977343
0.00983777
0.00984111
0.0098065
0.00975418
0.00967558
0.00955342
0.00940145
0.00921547
0.00898961
0.00874351
0.00854011
0.00826234
0.00809263
0.00806891
0.00829247
0.00475954
0.0171592
0.856136
0.00604042
0.00584904
0.00611273
0.00639204
0.00667843
0.00698419
0.00726982
0.00752694
0.00776421
0.00798205
0.00818333
0.0083713
0.00855059
0.00872962
0.00891491
0.00911095
0.00928371
0.0100147
0.00969048
0.0086456
0.00818589
0.00909785
0.00701667
0.00575908
0.0993356
10.4929
61036.7
9.21104e-06
1.10939e-05
8.33689e-06
4.51029e-06
2.04059e-06
9.40477e-07
5.15221e-07
3.31454e-07
1.5977e-07
5.90682e-08
2.59856e-08
6.7843e-09
0.0110115
0.0095164
0.00438329
0.000791381
0.000761143
0.000511083
0.000535682
0.000561597
0.000602926
0.000655263
0.000713334
0.000783748
0.000871179
0.000997501
0.000232965
0.000652633
0.00096526
0.00117842
0.00131148
0.00138705
0.00142008
0.00142373
0.00140879
0.00139195
0.00138047
0.00136979
0.00136126
0.00135706
0.00135758
0.00135939
0.00135936
0.0014115
0.00160001
0.00185629
0.00214259
0.00273207
0.00275187
0.00651418
0.343798
0.010446
0.00924973
0.00902627
0.00886762
0.00872112
0.008628
0.0085825
0.00855956
0.00857419
0.00863098
0.00872077
0.00884507
0.0090143
0.00924095
0.00951168
0.00982166
0.0101104
0.0106914
0.0115034
0.0117059
0.0115278
0.0109384
0.0121131
0.00250695
0.0196145
0.957729
1.56046e-06
5.42245e-06
8.69588e-06
8.41505e-06
5.66506e-06
3.11777e-06
1.70117e-06
1.04576e-06
7.24705e-07
4.26722e-07
1.97783e-07
9.84658e-08
3.52136e-08
0.00716285
0.00142706
0.000750885
0.000315436
0.000435222
0.000455314
0.000462705
0.000462671
0.000461779
0.000462162
0.000459555
0.000457821
0.000459118
0.000461384
0.000500518
0.000573162
0.000634289
0.000682774
0.000719492
0.00074745
0.000768236
0.000783764
0.00079603
0.000807427
0.00081723
0.000824348
0.000829359
0.000832531
0.000833502
0.000831641
0.000826192
0.000828861
0.000840062
0.000852648
0.000868821
0.000963266
0.000400726
0.00137681
0.0714482
0.00410608
0.00413627
0.00357738
0.00326872
0.00306762
0.002902
0.0027804
0.00269299
0.00265111
0.0026613
0.00270693
0.00279301
0.00295312
0.0031887
0.00345429
0.00375427
0.00420891
0.00483824
0.0057377
0.00681155
0.00781399
0.00838886
0.00944862
0.0090404
0.0014956
0.00871072
48.9032
2.9763e-06
6.16502e-06
7.50847e-06
6.19645e-06
4.06387e-06
2.54036e-06
1.70013e-06
1.23751e-06
8.20788e-07
4.37509e-07
2.4126e-07
1.20048e-07
0.00135955
0.000306666
0.000690406
0.00156894
0.00312492
0.00316218
0.00316034
0.00316568
0.00316343
0.00315757
0.00314925
0.00313632
0.00311963
0.0030994
0.00307688
0.00305928
0.00304256
0.00301797
0.00298894
0.0029575
0.00292468
0.00289213
0.0028638
0.00283816
0.002809
0.00277434
0.00273209
0.00268233
0.00262319
0.00255527
0.00247793
0.00239226
0.00221615
0.00198235
0.0017365
0.00149666
0.00142484
0.000521062
0.00265006
0.000485919
0.000501988
0.000463943
0.000425216
0.000444795
0.000457127
0.000461688
0.000472798
0.000487535
0.000504972
0.000528821
0.000557591
0.000597844
0.00065261
0.000713137
0.00080311
0.000888959
0.000983878
0.0012033
0.00062562
0.00168472
0.0028642
0.00395567
0.00534548
0.00569746
0.445055
2490.11
1.54355e-06
4.024e-06
6.05255e-06
6.04107e-06
4.66366e-06
3.29306e-06
2.37485e-06
1.79329e-06
1.27632e-06
7.48778e-07
4.47897e-07
2.74723e-07
0.000416749
0.00111457
0.00372137
0.00460255
0.00485783
0.00484383
0.00482883
0.00484827
0.00488671
0.00493805
0.0049993
0.00506445
0.00512438
0.00517573
0.00521961
0.00525578
0.00527181
0.00527192
0.00525934
0.00523687
0.00520674
0.00517411
0.00514027
0.00509918
0.00504649
0.00498155
0.00490284
0.00481197
0.00470609
0.00458835
0.00445666
0.00432087
0.00410821
0.00386898
0.00363685
0.00322822
0.00271045
0.00188578
0.000970547
0.00067421
0.000386436
0.000447601
8.51789e-05
0.000356247
0.000530801
0.000681554
0.000806567
0.000910564
0.000992994
0.00105895
0.00110987
0.00115401
0.00119748
0.00123225
0.00139728
0.00135987
0.00118087
0.00117552
0.00109912
0.00118431
0.00155069
0.00213915
0.00262061
0.00482857
0.450658
2528.66
7.62163e-07
2.44988e-06
4.47385e-06
5.32945e-06
4.79469e-06
3.79639e-06
2.94115e-06
2.33064e-06
1.73851e-06
1.09876e-06
7.04884e-07
4.94265e-07
0.00224712
0.00404836
0.00392685
0.00302223
0.00248152
0.00247477
0.0024704
0.00249181
0.00253764
0.00259902
0.00266868
0.00274151
0.00280086
0.00285314
0.00289716
0.00292923
0.00295052
0.0029619
0.0029643
0.00295906
0.00294764
0.00293166
0.0029102
0.00288258
0.00284883
0.00280954
0.00276507
0.00271626
0.00266167
0.00260278
0.00253769
0.00247682
0.00244443
0.00242464
0.00240167
0.00233231
0.00223018
0.00212759
0.00138926
0.00308761
0.0030176
0.0031847
0.00330993
0.00345396
0.00358996
0.00370016
0.00379068
0.00386752
0.00393354
0.00399632
0.00406042
0.0041269
0.00419926
0.00427855
0.00435297
0.0044286
0.00449524
0.0045442
0.00461858
0.00423995
0.00360758
0.00342962
0.00305051
0.00426453
0.400691
2268.41
3.59932e-07
1.40308e-06
3.06496e-06
4.30255e-06
4.46742e-06
3.94546e-06
3.28287e-06
2.71325e-06
2.12909e-06
1.45211e-06
9.99756e-07
7.64732e-07
0.00393272
0.00274785
0.00119622
0.000102689
0.00035979
0.000358284
0.000362206
0.000362609
0.000366419
0.000373722
0.000379192
0.000385846
0.00039533
1.45804e-05
2.91869e-05
4.31498e-05
5.56099e-05
6.6131e-05
7.42623e-05
7.99843e-05
8.31819e-05
8.42918e-05
8.40359e-05
8.41051e-05
8.54944e-05
8.79119e-05
9.12765e-05
9.56265e-05
0.000101097
0.000107655
0.00011373
0.000118577
0.000158258
0.0002562
0.000401425
0.00058316
0.000792025
0.00102914
0.0010677
0.00331934
0.00294286
0.00281015
0.00277335
0.00273059
0.00269103
0.00267722
0.00269092
0.00272145
0.00276387
0.00282254
0.00289937
0.00299263
0.00310045
0.00322197
0.00335438
0.00349187
0.0036335
0.00379824
0.00395924
0.00409841
0.00411455
0.00395213
0.00351298
0.00402097
0.329292
0.0162896
0.0104766
7.60162e-07
1.96133e-06
3.2069e-06
3.80701e-06
3.73191e-06
3.33497e-06
2.8739e-06
2.37346e-06
1.75284e-06
1.10535e-06
8.80972e-07
0.0016845
0.000142766
0.000183783
0.000103116
9.6339e-05
9.78422e-05
9.89305e-05
9.8078e-05
9.71672e-05
9.6665e-05
9.51679e-05
9.36849e-05
9.30804e-05
9.47633e-05
9.70636e-05
0.000100136
0.000103515
0.000107194
0.000111054
0.000114924
0.000118564
0.000121974
0.000125181
0.000128109
0.000130547
0.000132626
0.000134536
0.000136286
0.000137815
0.000139097
0.000139878
0.00013965
0.000143845
0.000154319
0.000170599
0.000199775
0.000223049
7.55319e-05
0.000389458
0.000758683
0.0008618
0.000660286
0.000547337
0.000458158
0.000379254
0.000332605
0.00032566
0.000336935
0.000356912
0.000393545
0.000445947
0.000511523
0.000590276
0.000680132
0.000779721
0.00089101
0.0010151
0.0011426
0.00134104
0.00172798
0.00215415
0.00248311
0.00258091
0.00307164
0.201902
0.0696927
0.0558238
3.91046e-07
1.17899e-06
2.22237e-06
2.99011e-06
3.23769e-06
3.10575e-06
2.79908e-06
2.42237e-06
1.51787e-06
1.29954e-07
7.48605e-09
0.000300322
0.000113666
8.02148e-06
0.000614992
0.000651974
0.000642927
0.000643343
0.000644824
0.00064584
0.000646958
0.000647094
0.000645935
0.000644366
0.000642499
0.000640284
0.000638177
0.000636182
0.000634147
0.000632117
0.00063008
0.000627872
0.000625305
0.00062228
0.000618526
0.000613618
0.00060741
0.000599975
0.000591409
0.000581379
0.000569796
0.000556974
0.000541264
0.000513647
0.000459303
0.000385228
0.000332191
0.000215545
0.000106918
0.000243977
0.000109336
0.000134941
0.000135556
0.000130255
0.000132242
0.000133668
0.000131554
0.000134331
0.000138628
0.000142453
0.000149188
0.000158063
0.000169043
0.00018289
0.000198995
0.000217414
0.000238578
0.000262645
0.000287872
0.000336657
0.000398352
0.000147461
0.000569384
0.000941556
0.00146859
0.0740343
0.0912802
0.0900538
1.91435e-07
6.68394e-07
1.43987e-06
2.17876e-06
2.59342e-06
2.66777e-06
2.52068e-06
2.24304e-06
1.95878e-08
1.15766e-13
2.26463e-15
0.000251424
0.000721435
0.00162782
0.00189374
0.00187962
0.00185315
0.00183969
0.0018349
0.00183341
0.00183371
0.00183454
0.00183467
0.00183417
0.00183291
0.00183073
0.00182786
0.00182424
0.00181966
0.00181407
0.00180727
0.00179887
0.00178838
0.00177558
0.00175989
0.00174068
0.00171834
0.00169319
0.00166555
0.00163454
0.00159973
0.0015624
0.00152136
0.00147601
0.00140135
0.00129768
0.00115892
0.000980539
0.000776846
0.000627765
0.000105275
0.000184808
0.000314961
0.000417172
0.000502478
0.000572493
0.000612552
0.000635658
0.000650985
0.000658957
0.000662611
0.000663985
0.000664092
0.000664393
0.00066486
0.000665301
0.000666247
0.000667177
0.000666125
0.00073309
0.000619827
0.000441396
0.000463612
0.000577419
0.000786183
0.0238737
0.102062
0.122863
8.92972e-08
3.58325e-07
8.75804e-07
1.48075e-06
1.92956e-06
2.12558e-06
2.10801e-06
8.08528e-07
4.38083e-13
2.07804e-15
5.3672e-16
0.00125902
0.0019186
0.00170861
0.00130671
0.00129236
0.00127969
0.00126711
0.00126042
0.00125729
0.00125619
0.00125702
0.00125871
0.00126033
0.00126174
0.00126276
0.0012631
0.00126259
0.00126097
0.0012581
0.00125381
0.00124784
0.00123997
0.0012301
0.00121811
0.00120392
0.00118801
0.00117056
0.00115168
0.00113091
0.00110789
0.00108337
0.00105699
0.00103736
0.00102817
0.00101349
0.000979372
0.000941855
0.00085456
0.000721258
0.00157895
0.001534
0.00159677
0.00166003
0.00169925
0.00172761
0.00173838
0.00173715
0.00173217
0.0017249
0.00171703
0.00170871
0.00170251
0.00169958
0.0016988
0.00169828
0.00169656
0.00169452
0.00169227
0.00168849
0.00161475
0.00146963
0.00133834
0.00115911
0.000960817
0.00960851
0.120587
0.175711
3.97121e-08
1.81966e-07
5.01648e-07
9.42692e-07
1.34039e-06
1.57953e-06
1.64536e-06
9.63951e-07
3.11673e-12
2.56139e-15
3.32659e-15
0.00191006
0.00127909
0.000530022
0.000163676
0.000161582
0.000167853
0.000165428
0.000161478
0.000158748
0.000157249
0.000156684
0.000156903
0.000157683
0.000158931
0.000160479
0.000162219
0.000164004
0.000165762
0.000167362
0.000168746
0.000169813
0.000170569
0.000171054
0.000171413
0.000171636
0.000171732
0.000171685
0.00017148
0.000171075
0.00017044
0.00016959
0.000167682
0.000167224
0.000195661
0.000245681
0.00031031
0.000401673
0.000480504
0.000497353
0.00154438
0.00136486
0.00127615
0.00122411
0.0011678
0.0011203
0.00108057
0.00104757
0.00102764
0.00101735
0.00101361
0.00101229
0.00101692
0.00102813
0.00104117
0.00105572
0.00107104
0.001088
0.0011076
0.00114157
0.0012001
0.00123419
0.00123803
0.00120821
0.00106211
0.00402282
0.121034
0.211998
1.68405e-08
8.76412e-08
2.71225e-07
5.64151e-07
8.73225e-07
1.10032e-06
1.20588e-06
8.92602e-07
1.38949e-11
4.60168e-13
8.67566e-16
0.000786031
9.1001e-05
8.71389e-05
2.38056e-05
2.39603e-05
2.5533e-05
2.53031e-05
2.42787e-05
2.34268e-05
2.28479e-05
2.21632e-05
2.16278e-05
2.1396e-05
2.1291e-05
2.13985e-05
2.17604e-05
2.22671e-05
2.29402e-05
2.37409e-05
2.46378e-05
2.55801e-05
2.65638e-05
2.75757e-05
2.85403e-05
2.93389e-05
3.00513e-05
3.07319e-05
3.13711e-05
3.19591e-05
3.24849e-05
3.29375e-05
3.31548e-05
3.36261e-05
3.99807e-05
5.15984e-05
6.53281e-05
8.85361e-05
8.36587e-05
0.000205988
0.000343241
0.000343705
0.000227002
0.00015923
0.000108502
6.7853e-05
4.19388e-05
2.7185e-05
2.10535e-05
2.13897e-05
2.56246e-05
3.23102e-05
4.01386e-05
4.95698e-05
6.11801e-05
7.52227e-05
9.16566e-05
0.000110824
0.000131718
0.00015801
0.000224345
0.000343959
0.000493162
0.000640788
0.000678877
0.00158112
0.0925168
0.193609
6.81091e-09
4.00703e-08
1.3869e-07
3.18309e-07
5.3557e-07
7.21859e-07
8.34085e-07
7.34649e-07
4.73437e-11
4.0328e-17
5.33024e-16
0.000142386
2.56365e-05
7.74065e-05
9.51382e-05
9.63098e-05
9.72335e-05
9.69041e-05
9.47025e-05
9.2482e-05
9.0627e-05
8.76976e-05
8.4812e-05
8.28322e-05
8.10558e-05
7.99531e-05
7.97445e-05
8.0055e-05
8.09806e-05
8.24309e-05
8.42963e-05
8.64152e-05
8.87723e-05
9.12709e-05
9.3497e-05
9.49544e-05
9.59398e-05
9.67246e-05
9.72803e-05
9.75759e-05
9.75502e-05
9.71791e-05
9.65076e-05
9.56242e-05
9.28845e-05
2.96825e-06
7.63706e-05
6.15913e-05
6.66536e-05
4.81511e-05
4.57151e-05
4.64328e-05
3.27787e-05
2.51932e-05
2.29226e-05
2.17688e-05
2.10383e-05
2.09216e-05
2.12198e-05
2.17987e-05
2.28509e-05
2.4122e-05
2.54727e-05
2.71143e-05
2.91207e-05
3.1583e-05
3.44748e-05
3.78767e-05
4.16547e-05
4.6265e-05
5.59014e-05
7.46748e-05
9.68604e-05
6.09888e-05
0.000170652
0.000557514
0.0504096
0.125361
2.62779e-09
1.74093e-08
6.7194e-08
1.69783e-07
3.10326e-07
4.4779e-07
5.46969e-07
5.43266e-07
1.29926e-10
2.97302e-15
1.47916e-15
5.55087e-05
0.000100365
0.00051737
0.000633973
0.000629556
0.000619302
0.000613906
0.000611211
0.000609361
0.000607941
0.000606603
0.000604919
0.000602993
0.000600882
0.000598531
0.000595995
0.000593257
0.000590251
0.000586979
0.000583404
0.000579439
0.000574938
0.000569836
0.000564064
0.00055745
0.000550003
0.000541822
0.000532883
0.000523122
0.00051239
0.000500585
0.000487973
0.000474986
0.000453042
0.000417434
0.00036105
0.000287493
0.000216921
0.00017172
0.000111662
7.94581e-05
9.21862e-05
2.17643e-05
5.35555e-05
8.3224e-05
0.000105985
0.000119973
0.000128493
0.000133632
0.000136866
0.000138951
0.000140053
0.000140476
0.000140679
0.000140746
0.000140494
0.00014005
0.000139494
0.000138063
0.000127672
0.000119442
6.85632e-05
3.14735e-05
3.87592e-05
0.000239972
0.0296734
0.0872723
9.67486e-10
7.19421e-09
3.08991e-08
8.58298e-08
1.70416e-07
2.63655e-07
3.415e-07
3.72149e-07
3.04385e-10
1.01834e-14
6.97361e-16
0.000324637
0.00071349
0.000761974
0.000733953
0.000729136
0.00071445
0.000703223
0.000695872
0.000690452
0.000685987
0.000682252
0.000678781
0.000675386
0.000672067
0.000668747
0.000665354
0.000661852
0.000658169
0.000654232
0.000649983
0.000645288
0.000639947
0.000633805
0.000626772
0.000618773
0.000609911
0.000600303
0.000589928
0.000578758
0.000566696
0.000553617
0.000539808
0.000526897
0.000514353
0.000496528
0.000468971
0.000428215
0.000359961
0.000282223
0.000537533
0.00057209
0.000604804
0.000624062
0.000639976
0.000653759
0.000664268
0.000668365
0.000668827
0.000667995
0.000666185
0.000663509
0.000659932
0.00065547
0.000651293
0.000647223
0.000642414
0.000637201
0.000631945
0.000626182
0.000616885
0.000579075
0.000511371
0.000432733
0.000352516
0.000357303
0.0367394
0.129797
3.40063e-10
2.83103e-09
1.35069e-08
4.12148e-08
8.89475e-08
1.47881e-07
2.03775e-07
2.40065e-07
6.29495e-10
1.10409e-13
4.05592e-15
0.000778656
0.000605472
0.000298017
0.000217696
0.000215579
0.00021058
0.000203616
0.000198033
0.000193781
0.000190259
0.000187433
0.000185135
0.000183161
0.000181472
0.000179982
0.00017859
0.000177269
0.000175962
0.000174612
0.000173198
0.00017167
0.00016996
0.000168047
0.000165975
0.00016374
0.000161371
0.000158932
0.000156363
0.000153711
0.000150969
0.00014807
0.000144967
0.00014244
0.000146851
0.000162704
0.0001864
0.000212311
0.000228919
0.000224287
0.00073416
0.00067745
0.000656965
0.000638642
0.000622625
0.000608903
0.000598516
0.000587132
0.000575955
0.00056769
0.000560536
0.000554057
0.000548196
0.000542112
0.000537622
0.000534886
0.000531902
0.000529194
0.000527115
0.00052552
0.000530448
0.00053825
0.000530784
0.000513217
0.000461857
0.000435373
0.037715
0.00438868
0.00615045
1.06176e-09
5.61935e-09
1.88406e-08
4.42343e-08
7.92336e-08
1.16551e-07
1.47563e-07
1.17556e-09
6.31875e-13
2.41604e-14
0.000474298
0.000118932
5.77024e-05
3.26773e-05
3.29619e-05
3.3017e-05
3.20682e-05
3.0565e-05
2.92321e-05
2.81069e-05
2.67299e-05
2.54478e-05
2.45024e-05
2.36515e-05
2.30439e-05
2.27494e-05
2.26376e-05
2.27505e-05
2.30511e-05
2.3505e-05
2.40669e-05
2.47155e-05
2.54262e-05
2.60563e-05
2.64487e-05
2.67097e-05
2.69459e-05
2.71406e-05
2.72958e-05
2.74094e-05
2.74666e-05
2.7449e-05
2.75049e-05
2.88979e-05
3.26025e-05
3.80064e-05
4.62474e-05
5.37657e-05
9.87617e-05
0.000254226
0.00021712
0.000191915
0.000175109
0.000160106
0.00014702
0.000135627
0.000127924
0.000122287
0.000117998
0.000114591
0.000112071
0.000110482
0.000109765
0.000109605
0.00011015
0.000111426
0.000113546
0.000116576
0.000119742
0.000126715
0.000157671
0.000204713
0.000252056
0.0002776
0.000323231
0.0191414
0.0101912
0.0165993
3.79621e-10
2.22769e-09
8.20853e-09
2.10017e-08
4.06472e-08
6.40539e-08
8.70455e-08
2.00416e-09
2.98198e-12
1.19617e-13
9.24082e-05
1.62502e-05
2.12127e-05
2.36027e-05
2.36558e-05
2.39717e-05
2.39461e-05
2.33453e-05
2.26815e-05
2.20846e-05
2.11506e-05
2.01823e-05
1.94324e-05
1.87142e-05
1.81676e-05
1.78725e-05
1.77245e-05
1.77692e-05
1.79878e-05
1.83536e-05
1.88328e-05
1.94118e-05
2.00753e-05
2.06797e-05
2.10575e-05
2.13026e-05
2.15086e-05
2.16679e-05
2.17755e-05
2.18245e-05
2.18083e-05
2.17211e-05
2.15357e-05
2.09877e-05
1.88981e-05
1.5485e-05
1.22724e-05
1.78195e-05
1.59241e-06
3.49419e-05
3.02366e-05
2.85371e-05
2.49594e-05
2.30454e-05
2.14154e-05
1.93659e-05
1.81674e-05
1.72632e-05
1.64357e-05
1.59012e-05
1.55095e-05
1.52776e-05
1.5256e-05
1.53397e-05
1.5569e-05
1.59402e-05
1.64634e-05
1.71463e-05
1.7871e-05
1.91789e-05
2.41571e-05
3.17069e-05
4.40467e-05
5.05157e-05
0.000116841
0.00439842
0.0114931
0.0217045
1.2952e-10
8.41918e-10
3.41317e-09
9.53078e-09
1.99863e-08
3.38791e-08
4.94616e-08
3.09961e-09
1.21746e-11
3.2414e-15
1.34759e-05
5.29542e-05
0.000138516
0.00015405
0.00015179
0.00015011
0.000149398
0.000148787
0.000148131
0.000147528
0.000146787
0.000145882
0.000144956
0.000144021
0.000143081
0.000142167
0.000141279
0.0001404
0.00013953
0.000138654
0.000137746
0.000136752
0.000135635
0.000134366
0.000132886
0.000131168
0.000129243
0.000127117
0.00012479
0.000122271
0.00011954
0.000116586
0.000113273
0.000108251
9.56571e-05
7.69806e-05
5.99707e-05
3.13057e-05
1.96975e-05
3.58514e-05
2.47102e-05
2.74396e-05
2.76139e-05
2.89256e-05
2.99811e-05
2.97657e-05
2.97655e-05
2.96004e-05
2.91136e-05
2.88453e-05
2.85579e-05
2.82858e-05
2.81548e-05
2.80564e-05
2.80176e-05
2.79991e-05
2.80008e-05
2.8022e-05
2.80294e-05
2.80001e-05
2.67563e-05
2.3616e-05
1.952e-05
2.43232e-05
3.48957e-05
0.000446333
0.00592368
0.014519
4.22046e-11
3.03637e-10
1.35492e-09
4.13729e-09
9.42893e-09
1.72524e-08
2.71248e-08
4.21603e-09
4.22717e-11
4.03548e-14
9.7604e-05
0.000282222
0.000346907
0.000349191
0.000343898
0.000338381
0.000334088
0.000330668
0.000327634
0.000324887
0.00032228
0.0003197
0.000317263
0.000314946
0.000312683
0.000310503
0.000308361
0.000306187
0.000303958
0.000301633
0.000299136
0.000296355
0.000293223
0.000289722
0.000285777
0.000281354
0.000276577
0.000271478
0.000266053
0.000260322
0.000254234
0.00024776
0.000240876
0.000233796
0.00022205
0.000204739
0.000180784
0.000145009
0.000108315
0.000177161
0.000174354
0.000181188
0.000190482
0.000197687
0.000202533
0.000205303
0.000206505
0.000206728
0.000206286
0.000205386
0.000204211
0.000202806
0.000201238
0.00019953
0.000197628
0.000195473
0.000193166
0.00019083
0.000188402
0.000185912
0.000175846
0.00015385
0.000126436
0.000105193
7.21379e-05
0.000182797
0.00521022
0.00264994
0.00303215
1.046e-10
5.14177e-10
1.71899e-09
4.26934e-09
8.46146e-09
1.43637e-08
4.78374e-09
1.18472e-10
2.56878e-13
0.000350026
0.000302398
0.000214895
0.000209723
0.000207947
0.000204754
0.000201433
0.000198606
0.000196103
0.000193757
0.000191717
0.000189937
0.000188287
0.000186785
0.000185393
0.000184029
0.000182663
0.000181262
0.000179759
0.000178145
0.000176362
0.000174349
0.000172069
0.000169507
0.000166742
0.000163823
0.000160778
0.000157595
0.000154279
0.000150842
0.000147274
0.000143527
0.000139559
0.000136635
0.000137288
0.000139444
0.000139463
0.000134489
0.000118063
0.000342686
0.000315454
0.000314872
0.000314066
0.000311241
0.000307069
0.000302645
0.000298091
0.000293721
0.000289667
0.000285855
0.000282302
0.000278961
0.000275778
0.000272693
0.000269568
0.000266285
0.000262947
0.000259687
0.000256463
0.000254044
0.000250876
0.00024076
0.00022471
0.000203906
0.000169054
0.000184797
0.00350593
0.00870441
0.0119175
3.44701e-11
1.867e-10
6.84509e-10
1.85585e-09
3.99703e-09
7.34598e-09
4.37376e-09
2.568e-10
1.20656e-12
0.000234817
9.2728e-05
1.08173e-05
7.46725e-06
9.04271e-06
9.58518e-06
9.11115e-06
8.24219e-06
7.37101e-06
6.5384e-06
5.76616e-06
5.09644e-06
4.51179e-06
4.00252e-06
3.57139e-06
3.18799e-06
2.85128e-06
2.54974e-06
2.28527e-06
2.05467e-06
1.8676e-06
1.72772e-06
1.6432e-06
1.6102e-06
1.62364e-06
1.6826e-06
1.77888e-06
1.89675e-06
2.031e-06
2.18128e-06
2.33764e-06
2.48464e-06
2.39586e-06
2.44521e-06
8.35008e-06
1.97322e-05
3.59644e-05
5.59484e-05
6.59154e-05
0.000171968
0.00016977
0.000154779
0.000145335
0.000136966
0.000129357
0.000123369
0.000118663
0.000114901
0.000111912
0.000109446
0.000107408
0.000105709
0.000104273
0.000103057
0.000101984
0.000101007
0.000100175
9.95278e-05
9.89943e-05
9.91113e-05
0.000103927
0.000114665
0.000125914
0.000134069
0.000135905
0.000137114
0.00108656
0.00828581
0.000876218
0.000688719
6.49675e-11
2.61523e-10
7.75611e-10
1.81942e-09
3.62974e-09
3.28496e-09
4.29101e-10
4.32087e-12
1.95851e-05
1.5076e-05
2.23909e-06
2.09022e-06
2.39478e-06
2.59168e-06
2.59354e-06
2.43759e-06
2.25629e-06
2.08984e-06
1.89042e-06
1.69449e-06
1.53492e-06
1.38994e-06
1.26987e-06
1.18051e-06
1.11099e-06
1.06273e-06
1.03408e-06
1.02328e-06
1.02939e-06
1.05287e-06
1.09788e-06
1.15626e-06
1.20845e-06
1.25452e-06
1.30407e-06
1.35548e-06
1.40796e-06
1.46084e-06
1.51197e-06
1.55811e-06
1.55282e-06
1.53255e-06
2.28819e-06
3.80847e-06
7.03694e-06
1.18464e-05
1.35624e-05
2.40869e-05
2.406e-05
2.34003e-05
2.10036e-05
1.99435e-05
1.90231e-05
1.77313e-05
1.69205e-05
1.62422e-05
1.55516e-05
1.50985e-05
1.47133e-05
1.44026e-05
1.42158e-05
1.40819e-05
1.4014e-05
1.3986e-05
1.40011e-05
1.40543e-05
1.41268e-05
1.42844e-05
1.50892e-05
1.73186e-05
5.596e-06
2.61693e-05
4.76406e-05
6.55077e-05
0.000227966
0.00365704
0.00274614
0.00245802
2.17219e-11
9.60715e-11
3.1204e-10
7.9908e-10
1.73433e-09
2.12203e-09
5.59983e-10
1.19852e-11
4.86438e-06
1.44428e-05
3.68623e-06
6.02668e-06
6.18279e-06
6.51698e-06
6.95931e-06
7.20996e-06
7.3174e-06
7.41782e-06
7.41363e-06
7.29386e-06
7.16545e-06
7.01998e-06
6.85279e-06
6.70521e-06
6.57532e-06
6.46435e-06
6.37808e-06
6.32101e-06
6.29661e-06
6.29845e-06
6.3488e-06
6.45235e-06
6.55332e-06
6.60486e-06
6.62891e-06
6.63236e-06
6.6151e-06
6.57643e-06
6.51511e-06
6.42933e-06
6.28938e-06
5.93763e-06
3.86805e-06
1.38918e-07
1.16672e-05
9.19923e-06
9.63218e-06
9.51594e-06
6.67757e-06
7.02244e-06
6.77918e-06
6.99388e-06
7.27909e-06
7.27645e-06
7.34909e-06
7.38786e-06
7.32291e-06
7.30328e-06
7.26402e-06
7.21363e-06
7.19354e-06
7.16967e-06
7.15265e-06
7.13231e-06
7.10945e-06
7.08243e-06
7.04887e-06
6.98593e-06
6.77192e-06
5.88973e-06
5.46765e-06
7.45624e-06
9.58916e-06
1.95806e-06
2.98664e-05
0.000696182
0.00244177
0.00284316
6.99132e-12
3.40123e-11
1.21111e-10
3.39143e-10
8.02228e-10
1.22973e-09
5.78866e-10
2.59677e-11
1.521e-05
9.89912e-05
0.000126432
0.000127178
0.000125549
0.000123842
0.000122316
0.00012087
0.000119422
0.000118029
0.00011671
0.000115439
0.000114243
0.000113126
0.000112058
0.000111033
0.000110032
0.000109026
0.000108003
0.000106943
0.000105823
0.000104609
0.000103281
0.000101847
0.000100318
9.86848e-05
9.69682e-05
9.5168e-05
9.32615e-05
9.1256e-05
8.91313e-05
8.68932e-05
8.45471e-05
8.21414e-05
7.80273e-05
7.10731e-05
6.0616e-05
4.67876e-05
3.47522e-05
5.48093e-05
4.62191e-05
4.55065e-05
4.59437e-05
4.70227e-05
4.84515e-05
4.95915e-05
5.05233e-05
5.12838e-05
5.17779e-05
5.20762e-05
5.22146e-05
5.22029e-05
5.20808e-05
5.18544e-05
5.1512e-05
5.10434e-05
5.04725e-05
4.98388e-05
4.91557e-05
4.83386e-05
4.66383e-05
4.04666e-05
3.20768e-05
2.49913e-05
1.56329e-05
9.3171e-06
1.33596e-05
0.000138044
0.00161358
0.000614431
0.000443936
1.16284e-11
4.54504e-11
1.39363e-10
3.5985e-10
6.58778e-10
4.88038e-10
4.4666e-11
0.000145129
0.000157264
0.000135808
0.000132362
0.000129608
0.000127052
0.000124768
0.000122787
0.000120976
0.000119288
0.000117769
0.000116395
0.000115134
0.000113721
0.000112388
0.000111153
0.000109995
0.000108883
0.000107783
0.000106669
0.000105509
0.000104266
0.000102893
0.000101387
9.97866e-05
9.81062e-05
9.6352e-05
9.45143e-05
9.25765e-05
9.05499e-05
8.84141e-05
8.61783e-05
8.38772e-05
8.1836e-05
8.01067e-05
7.76207e-05
7.30062e-05
6.51192e-05
5.42206e-05
0.000158637
0.000142643
0.000137028
0.000134439
0.000132762
0.000131726
0.000130919
0.000130134
0.000129335
0.000128399
0.000127317