/*--------------------------------*- C++ -*----------------------------------*\
| =========                 |                                                 |
| \\      /  F ield         | OpenFOAM: The Open Source CFD Toolbox           |
|  \\    /   O peration     | Version:  2312                                  |
|   \\  /    A nd           | Website:  www.openfoam.com                      |
|    \\/     M anipulation  |                                                 |
\*---------------------------------------------------------------------------*/
FoamFile
{
    version     2.0;
    format      ascii;
    arch        "LSB;label=32;scalar=64";
    class       volScalarField;
    location    "100";
    object      turbulenceProperties:k;
}
// * * * * * * * * * * * * * * * * * * * * * * * * * * * * * * * * * * * * * //

dimensions      [0 2 -2 0 0 0 0];

internalField   nonuniform List<scalar> 
10720
(
0.0752019
0.0793816
0.097955
0.114618
0.135911
0.166645
0.206321
0.256002
0.321253
0.411266
0.541835
0.744103
1.07745
1.64199
2.79827
5.2215
9.97881
21.3339
42.2214
66.9986
99.5867
151.91
219.592
313.881
439.627
570.231
967.528
1435.39
956.746
388.055
111.904
11.9738
2.77292
0.21197
1e-15
1e-15
1e-15
0.25068
6.95186
0.108964
0.105372
0.0649134
0.0456317
0.0503175
0.0750015
0.083729
0.0809765
0.085873
0.0937328
0.108484
0.133128
0.17574
0.249802
0.388514
0.624859
1.05936
1.56707
2.166
2.85022
3.65216
4.72998
6.38607
9.00684
12.4712
16.6004
16.7469
11.3278
5.21727
1.6224
0.283434
0.0163227
0.00385022
0.0013504
0.00103356
0.0425222
0.000663868
1.84915
142.512
0.0262574
0.0328076
0.0314058
0.0311606
0.0301551
0.028476
0.0268063
0.0251016
0.0237248
0.0226452
0.0218647
0.0214292
0.0228231
0.0314498
0.0598582
0.141012
0.34334
0.920443
2.44849
5.81386
10.902
21.6111
49.3196
86.831
142.594
190.78
405.561
670.881
518.471
294.185
131.897
45.495
11.2547
0.943266
0.018235
1e-15
0.0103324
0.702022
10.8052
0.00111717
0.0191568
0.0248096
0.0458011
0.0550233
0.0403238
0.0237834
0.0231898
0.0242801
0.0252313
0.0275146
0.0274215
0.0236152
0.0174373
0.0262754
0.11124
0.188855
0.286651
0.410864
0.0851259
0.0925486
0.04283
0.0863234
0.0443103
0.0754927
0.177608
0.301129
0.314759
0.241982
0.160914
0.0904206
0.0427742
0.0172843
0.00601588
0.00138166
0.00219526
3.60064e-05
0.466169
34.1822
0.0106316
0.00444903
0.00663219
0.00638232
0.0069829
0.00777438
0.00849765
0.00920002
0.00988609
0.0105772
0.0112614
0.0119202
0.0128635
0.0124954
0.0154178
0.000981843
0.0681785
0.173165
0.456778
1.1087
2.15563
0.506783
8.20472
30.2437
64.727
92.7189
194.095
305.258
244.803
162.245
89.1624
41.171
13.9731
2.4684
0.207461
0.0045441
0.00583833
0.377692
15.9246
0.0210933
0.0532812
0.0573595
0.0408926
0.0154446
0.000982856
0.00316742
0.00306279
0.00330768
0.0037192
0.00159078
0.00419195
0.00601683
0.00693879
0.00715873
0.00911385
0.00663865
0.00574489
0.000689689
0.0165024
0.018409
0.00912429
0.018329
0.0100575
0.0168238
0.0390188
0.0665068
0.0705067
0.055231
0.0376221
0.0219611
0.00112266
0.00325409
0.00499623
0.00579158
0.0118254
0.000203715
0.183036
12.7713
0.042233
0.0430758
0.0434203
0.0423704
0.0428695
0.0434384
0.0438454
0.0441403
0.0443939
0.0446176
0.0447926
0.0449034
0.0450118
0.0452499
0.0454176
0.0457567
0.0441979
0.0356521
0.00559124
0.00496554
1e-15
0.100064
2.04091
7.64388
35.7964
0.0227065
0.000933135
0.00153576
0.00190048
0.00382012
0.0207319
0.391151
2.32997
2.02451
0.700889
0.0200952
0.0240629
0.295511
13.7686
0.0589275
0.0421855
0.0153322
0.00696095
0.0037761
0.00354709
0.0036242
0.00372067
0.00379345
0.00385249
0.00411959
0.00455933
0.00491873
0.00516253
0.00530672
0.0058148
0.000389717
0.000965987
0.00154538
0.00203574
0.00240378
0.00329952
0.00435217
0.00460491
0.00476321
0.00522161
0.00565507
0.0059398
0.00607176
0.00614932
0.00602577
0.00593172
0.00593405
0.00622105
0.00552044
0.0115945
0.000209725
0.126826
8.42223
0.0472299
0.0415543
0.0402219
0.0388503
0.0374735
0.0363238
0.0354614
0.0348366
0.0344584
0.0343362
0.0344312
0.0347421
0.0348619
0.0356333
0.037454
0.0384311
0.0392481
0.0407926
0.0407641
0.0253336
0.00494572
0.00249907
1e-15
2.52689
19.8081
0.00857999
0.000569026
0.000333713
0.000418704
0.000852452
0.00468124
0.0892877
0.537213
1.08919e-05
0.341748
0.200858
0.104511
0.106678
6.71717
0.0205838
0.0075337
0.00388149
0.000872265
0.0152997
0.026506
0.0272932
0.0275807
0.0276428
0.0275168
0.0273043
0.0270867
0.0268729
0.0266877
0.0264872
0.0264815
0.0265662
0.0263375
0.0259768
0.0256048
0.0251663
0.0247716
0.0243968
0.0239231
0.0234299
0.0229756
0.0225127
0.0220272
0.0215172
0.0224399
0.0217718
0.0191161
0.0180544
0.0170941
0.0150753
0.0162033
0.00221732
0.099703
6.30345
0.0065175
0.0100087
0.00737398
0.00583136
0.00464917
0.00374438
0.00311213
0.00271362
0.00254213
0.00257882
0.00280058
0.00320671
0.00379715
0.00453999
0.00555203
0.00692213
0.00826875
0.0100363
0.0129929
0.0158698
0.0179572
0.0133676
0.000790836
0.481815
9.46427
0.00471675
0.000211271
1e-15
1e-15
1e-15
1e-15
1e-15
1e-15
2.52827e-06
2.69393e-07
2.94538e-06
1.88927e-05
3.40276e-07
1.61678
0.00404564
0.00502009
0.0164759
0.0288797
0.03205
0.0317689
0.0319677
0.0324421
0.0329895
0.0334502
0.0339003
0.0343861
0.0349158
0.0354977
0.0359757
0.0368044
0.0377575
0.0378232
0.037611
0.0375717
0.0374186
0.0371738
0.0368423
0.0364122
0.035893
0.0353004
0.0346467
0.033938
0.0331845
0.0324013
0.0316055
0.0306089
0.0293085
0.0278034
0.0254478
0.0245173
0.00845888
0.0721716
4.3353
0.00389492
0.00311452
0.00310233
0.00296858
0.00300076
0.00308073
0.00312776
0.00322319
0.00334121
0.00347143
0.00363773
0.00382986
0.00407265
0.000214548
0.000681885
0.00125461
0.00162389
0.001856
0.00303617
0.00568946
0.00793349
0.0180949
0.00406331
0.145028
2.74859
0.00203138
9.46418e-05
1e-15
1e-15
1e-15
1e-15
1e-15
1e-15
1e-15
6.26334e-08
6.90671e-07
4.46515e-06
1e-15
1e-15
0.00849277
0.0262107
0.030855
0.0244567
0.0143886
0.0106391
0.0108939
0.0113041
0.0119778
0.0127834
0.0137041
0.0147621
0.0159681
0.017324
0.0186966
0.0199772
0.021208
0.0222155
0.0228272
0.0231546
0.0232605
0.0232025
0.0230211
0.0227574
0.0224357
0.0220674
0.0216697
0.0212517
0.0208221
0.0203857
0.019975
0.0197282
0.0193502
0.0192785
0.0195726
0.0205108
0.0119342
0.0426269
2.43064
0.0176646
0.0169732
0.0176765
0.0184
0.0191882
0.0200398
0.0208071
0.0214641
0.0220284
0.0224994
0.0228892
0.0232096
0.0234737
0.0236979
0.023891
0.0240572
0.024104
0.0255158
0.0241652
0.0210234
0.0193509
0.0209929
0.0158292
0.0127125
0.215434
0.000339458
1.64411e-05
1e-15
1e-15
1e-15
1e-15
1e-15
1e-15
1e-15
1e-15
1e-15
1e-15
1e-15
1e-15
0.0316192
0.0275152
0.0126454
0.00227869
0.0021934
0.00147146
0.00153701
0.00160218
0.00170784
0.00184104
0.00198604
0.00216038
0.0023753
0.00268714
0.000619268
0.00170924
0.00248642
0.00298123
0.00327248
0.00342395
0.00347506
0.00345801
0.00339808
0.00333056
0.0032748
0.00322714
0.00319267
0.00317513
0.00317849
0.00319552
0.0032186
0.00337763
0.00387995
0.00457865
0.00538633
0.00702119
0.00721448
0.0173339
0.93876
0.0305603
0.0270459
0.0263511
0.0258439
0.0254249
0.0251345
0.024945
0.0247866
0.0247024
0.0247103
0.0247886
0.0249403
0.0251886
0.0255524
0.0259779
0.0264408
0.0267708
0.0277801
0.0292453
0.029012
0.0279103
0.0258961
0.0280317
0.00567571
0.0435795
6.92228e-05
1e-15
1e-15
1e-15
1e-15
1e-15
1e-15
1e-15
1e-15
1e-15
1e-15
1e-15
1e-15
1e-15
0.0209015
0.00418713
0.00219044
0.000923411
0.0012768
0.00133487
0.00135226
0.00134533
0.00133439
0.00132583
0.00130731
0.00129005
0.00128008
0.00127129
0.00136114
0.00153605
0.00167263
0.00177407
0.0018484
0.00190322
0.00194206
0.0019689
0.00198644
0.00199902
0.00200793
0.00201363
0.00201851
0.00202319
0.0020284
0.00203258
0.00203383
0.00206116
0.00211542
0.00218191
0.00226415
0.00256464
0.00108934
0.00384163
0.198722
0.0121565
0.0122707
0.0105995
0.00969541
0.0091083
0.00861358
0.0082375
0.00795355
0.00779713
0.00778752
0.00787437
0.00806905
0.00846287
0.00904854
0.00968543
0.0103786
0.0114463
0.0129117
0.0149802
0.0174057
0.0195757
0.0205818
0.0226833
0.0212317
0.00344281
1.46009e-06
7.62888e-08
1e-15
1e-15
1e-15
1e-15
1e-15
1e-15
1e-15
1e-15
1e-15
1e-15
1e-15
1e-15
0.00404799
0.000910312
0.00205204
0.00468819
0.00935564
0.00946489
0.00943964
0.00941986
0.0093647
0.00928618
0.00918733
0.00906428
0.00892144
0.00875975
0.00858324
0.00841246
0.00824691
0.00809009
0.00794299
0.00780453
0.00767265
0.00754579
0.00742165
0.00730017
0.0071805
0.00705877
0.00693339
0.00680304
0.00666651
0.00652263
0.00636997
0.00620857
0.00581885
0.00528285
0.00470661
0.00413837
0.00401851
0.00151321
0.00760984
0.00147045
0.00151936
0.00140558
0.0012916
0.00135315
0.0013913
0.00140387
0.00143488
0.0014755
0.00152253
0.00158655
0.00166236
0.00176851
0.00191171
0.00206387
0.00229132
0.00249487
0.00270986
0.0032504
0.00166163
0.00439692
0.00733553
0.00993238
0.0131373
0.0137098
0.000178539
9.68079e-06
1e-15
1e-15
1e-15
1e-15
1e-15
1e-15
1e-15
1e-15
1e-15
1e-15
1e-15
1e-15
0.0012627
0.00336887
0.0113451
0.0141048
0.014921
0.0148893
0.0148293
0.0148458
0.0148932
0.0149529
0.0150163
0.0150695
0.0150881
0.015062
0.0149982
0.0149109
0.0148073
0.0146903
0.0145605
0.0144184
0.0142638
0.014096
0.0139142
0.0137189
0.013513
0.0132966
0.0130702
0.0128326
0.012583
0.0123226
0.0120508
0.0117859
0.011323
0.0108055
0.0103119
0.00931862
0.00796456
0.00570181
0.00288826
0.00208726
0.00119532
0.00138918
0.00026518
0.0011114
0.00165772
0.00212817
0.00251589
0.00283433
0.00308005
0.00326788
0.00340224
0.0035086
0.00360396
0.0036629
0.00409451
0.00392216
0.00335273
0.00328961
0.00303307
0.00322025
0.00415275
0.00563166
0.00676407
0.0122047
0.000446322
2.50968e-05
1e-15
1e-15
1e-15
1e-15
1e-15
1e-15
1e-15
1e-15
1e-15
1e-15
1e-15
1e-15
0.00693926
0.0125901
0.0123131
0.00951173
0.00782796
0.00781336
0.00779091
0.00783263
0.00793574
0.0080728
0.00822158
0.00836819
0.0084628
0.0085283
0.00857056
0.00859361
0.00859745
0.00858186
0.00854678
0.00849296
0.00842073
0.00833215
0.00822927
0.0081178
0.00800167
0.00788135
0.0077579
0.0076313
0.00750197
0.00737004
0.00723355
0.00711744
0.00709078
0.00711682
0.00714513
0.00705069
0.00684982
0.00671145
0.00429449
0.00974404
0.00951255
0.010078
0.0105073
0.0109903
0.0114388
0.0117939
0.0120732
0.0122893
0.0124478
0.0125732
0.0126829
0.0127817
0.012877
0.012969
0.0130327
0.0131114
0.0131663
0.0131588
0.013226
0.012014
0.0101066
0.00947556
0.0082827
0.0113521
0.0010112
5.89299e-05
1e-15
1e-15
1e-15
1e-15
1e-15
1e-15
1e-15
1e-15
1e-15
1e-15
1e-15
1e-15
0.0124292
0.00879044
0.00383408
0.000329713
0.00115798
0.00115375
0.00116421
0.0011609
0.0011667
0.00118202
0.00119044
0.00120192
0.00122152
4.47343e-05
8.90245e-05
0.000130955
0.000168036
0.000199063
0.000222738
0.00023901
0.000247613
0.000250047
0.000248596
0.000248353
0.000252303
0.000259519
0.000269791
0.000283234
0.000300498
0.000321588
0.00034193
0.000359232
0.000483615
0.000791333
0.00125511
0.00184991
0.00254889
0.00339464
0.0034392
0.0106537
0.00944
0.00904832
0.00896255
0.00884918
0.00873809
0.00870175
0.00874273
0.00882275
0.00892556
0.00906709
0.00925615
0.00948834
0.00976046
0.0100687
0.0104091
0.0107637
0.0111184
0.0115276
0.0119218
0.0122411
0.0121718
0.0115458
0.0100963
0.0113344
0.00218643
1.137e-09
6.42662e-11
1e-15
1e-15
1e-15
1e-15
1e-15
1e-15
1e-15
1e-15
1e-15
1e-15
1e-15
0.00544905
0.000465913
0.000598316
0.00033622
0.000315026
0.000320382
0.000323662
0.00032003
0.000315868
0.000312785
0.00030652
0.000300451
0.000297344
0.000301642
0.000307963
0.000316746
0.000326502
0.000337211
0.000348372
0.00035948
0.000369992
0.000379922
0.000389359
0.000398182
0.000405861
0.00041271
0.000419357
0.000425791
0.000432101
0.00043833
0.000443422
0.000445954
0.000463104
0.000501772
0.000560966
0.000665685
0.000753224
0.000260898
0.00131192
0.00248685
0.00283311
0.00218099
0.00181575
0.00152445
0.00126473
0.00111057
0.0010871
0.00112277
0.00118588
0.00130279
0.00147065
0.00168105
0.00193303
0.00221799
0.0025321
0.00288239
0.00326943
0.00366026
0.00427252
0.00547267
0.00676712
0.00771143
0.00789167
0.00921614
0.00364004
1.34369e-08
7.87241e-10
1e-15
1e-15
1e-15
1e-15
1e-15
1e-15
1e-15
1e-15
1e-15
1e-15
1e-15
0.000994073
0.000377633
2.66247e-05
0.00205052
0.00218171
0.00215594
0.00215779
0.00216072
0.00216074
0.00216019
0.00215588
0.00214728
0.00213769
0.00212748
0.00211639
0.00210558
0.00209508
0.00208465
0.00207442
0.00206421
0.00205369
0.00204254
0.00203053
0.00201741
0.00200236
0.00198443
0.00196381
0.00194052
0.00191439
0.00188573
0.00185403
0.00181491
0.00173609
0.00156726
0.00132862
0.0011602
0.000762592
0.000386273
0.000861147
0.000368624
0.000457339
0.000461702
0.000445462
0.000453405
0.000459161
0.000452142
0.000461147
0.000474952
0.000487013
0.00050901
0.000538435
0.000575233
0.000621663
0.000675186
0.000736227
0.000806425
0.000885557
0.000967177
0.00112699
0.00132875
0.000489249
0.00187283
0.00305742
0.00469004
0.00373037
5.00682e-08
3.03878e-09
1e-15
1e-15
1e-15
1e-15
1e-15
1e-15
1e-15
1e-15
1e-15
1e-15
1e-15
0.000854304
0.00245552
0.00555048
0.00649402
0.00646623
0.006382
0.00633425
0.00631387
0.00630417
0.00629986
0.00629705
0.00629222
0.00628588
0.00627743
0.00626575
0.00625125
0.00623354
0.00621197
0.00618636
0.00615622
0.00612109
0.00608034
0.00603364
0.00598064
0.00592094
0.00585426
0.00578159
0.0057031
0.00561832
0.00552776
0.00543074
0.00532731
0.00521015
0.00499339
0.00467267
0.00422457
0.0036208
0.00292611
0.0023196
0.000364816
0.000642416
0.00109906
0.00146084
0.00176319
0.00201065
0.00215068
0.00222929
0.00228085
0.00230797
0.0023211
0.00232727
0.0023297
0.00233196
0.00233261
0.00233253
0.00233479
0.00233571
0.00232751
0.00255636
0.00215796
0.00153268
0.0016014
0.00197667
0.00265729
0.00342567
1.64399e-07
1.03293e-08
1e-15
1e-15
1e-15
1e-15
1e-15
1e-15
1e-15
1e-15
1e-15
1e-15
1e-15
0.00438204
0.00669648
0.00598067
0.0045914
0.00454852
0.00450541
0.00446077
0.00443747
0.00442721
0.00442378
0.00442691
0.00443313
0.00443933
0.00444477
0.00444858
0.00444944
0.00444698
0.00444041
0.00442927
0.004413
0.00439124
0.00436382
0.00433047
0.00429175
0.0042485
0.00420151
0.00415126
0.00409772
0.00404077
0.0039808
0.00391753
0.00385116
0.0038104
0.00381184
0.00379612
0.00371236
0.00361632
0.00334379
0.0027809
0.00557449
0.00542093
0.00566535
0.0059123
0.00606541
0.00617309
0.00621433
0.0062127
0.00620181
0.00618668
0.00617069
0.00615315
0.00614265
0.00614017
0.0061392
0.00613789
0.00613499
0.00612897
0.00611744
0.00610045
0.00583427
0.00530583
0.00481872
0.00414994
0.00341004
0.00387756
5.90052e-07
3.83529e-08
1e-15
1e-15
1e-15
1e-15
1e-15
1e-15
1e-15
1e-15
1e-15
1e-15
1e-15
0.00676371
0.00455736
0.00189395
0.000586234
0.000579488
0.000602493
0.000594336
0.000580819
0.000571676
0.000566831
0.000565252
0.000566462
0.000569676
0.000574561
0.00058049
0.000587067
0.000593804
0.000600464
0.000606583
0.000611945
0.000616235
0.000619543
0.000622015
0.000624279
0.000626471
0.000628544
0.000630422
0.000632042
0.000633435
0.000634805
0.000636048
0.000633919
0.000637494
0.000752852
0.000954903
0.00122016
0.00159947
0.00194786
0.00199415
0.00552343
0.00488571
0.00459076
0.0044234
0.00423187
0.00406843
0.00393257
0.00382201
0.00376075
0.00373524
0.00373258
0.00373742
0.00376305
0.00381064
0.00386166
0.00391822
0.00398041
0.00404864
0.00412427
0.00425394
0.00447878
0.00460938
0.00461964
0.00449418
0.00392894
0.00416379
1.86483e-06
1.25314e-07
1e-15
1e-15
1e-15
1e-15
1e-15
1e-15
1e-15
1e-15
1e-15
1e-15
1e-15
0.00282473
0.000329998
0.0003167
8.66945e-05
8.74092e-05
9.33169e-05
9.26645e-05
8.91064e-05
8.6157e-05
8.41746e-05
8.17742e-05
7.99077e-05
7.91506e-05
7.88542e-05
7.93378e-05
8.07606e-05
8.27252e-05
8.53178e-05
8.83983e-05
9.18506e-05
9.54929e-05
9.93226e-05
0.000103292
0.000107134
0.000110436
0.000113484
0.000116485
0.000119409
0.000122247
0.000125021
0.000127703
0.00012962
0.000132621
0.00015919
0.000207554
0.000265826
0.000364815
0.000350626
0.000856658
0.00124257
0.00124662
0.000828045
0.000583807
0.000399282
0.000250586
0.000155474
0.000101182
7.86804e-05
8.02405e-05
9.64315e-05
0.000121912
0.000151803
0.000187811
0.000232059
0.000285685
0.000348844
0.000422747
0.000503306
0.000604891
0.000861228
0.00132308
0.00189807
0.00246314
0.00260147
0.00334208
4.65956e-06
3.23477e-07
1e-15
1e-15
1e-15
1e-15
1e-15
1e-15
1e-15
1e-15
1e-15
1e-15
1e-15
0.000519821
9.45109e-05
0.000285714
0.00035191
0.000357088
0.000361449
0.000361209
0.000353988
0.000346599
0.000340441
0.00033013
0.000319896
0.000313006
0.000306828
0.000303153
0.000302839
0.000304497
0.000308518
0.000314572
0.000322249
0.000330961
0.000340696
0.000351093
0.000360608
0.000367415
0.000372604
0.000377211
0.000381149
0.000384338
0.000386708
0.000388217
0.000388853
0.000388841
0.000381428
1.23173e-05
0.00032063
0.000261898
0.000288146
0.00020719
0.000167824
0.000170947
0.000121398
9.38257e-05
8.57541e-05
8.18145e-05
7.94406e-05
7.93508e-05
8.08143e-05
8.3319e-05
8.7598e-05
9.2707e-05
9.81393e-05
0.000104694
0.000112636
0.000122405
0.000134006
0.00014769
0.000162844
0.000181366
0.000219962
0.000294745
0.000382993
0.000241216
0.000674113
0.00176794
8.62565e-06
6.18155e-07
1e-15
1e-15
1e-15
1e-15
1e-15
1e-15
1e-15
1e-15
1e-15
1e-15
1e-15
0.000206157
0.000376018
0.00193928
0.00238192
0.00237173
0.00233957
0.00232578
0.00232238
0.00232202
0.00232288
0.00232376
0.00232312
0.00232133
0.00231863
0.00231477
0.00230996
0.00230427
0.00229748
0.00228963
0.00228056
0.00227011
0.002258
0.00224405
0.00222818
0.00221019
0.00218981
0.00216723
0.00214247
0.00211535
0.00208595
0.00205426
0.00202036
0.00198549
0.0019131
0.00178183
0.00155954
0.00125806
0.000964816
0.000762474
0.000416487
0.000297262
0.000346914
8.23906e-05
0.000203766
0.000318228
0.000407159
0.000462781
0.000497449
0.000518996
0.000533019
0.000542575
0.000548431
0.000551629
0.000553813
0.00055563
0.000556691
0.00055708
0.000556713
0.000552906
0.000513562
0.000482366
0.000277659
0.000127645
0.000157231
0.000909219
1.79438e-05
1.32674e-06
1e-15
1e-15
1e-15
1e-15
1e-15
1e-15
1e-15
1e-15
1e-15
1e-15
1e-15
0.00122682
0.00271611
0.0029015
0.00280159
0.00279035
0.00274073
0.00270449
0.00268369
0.00267052
0.00266095
0.0026542
0.00264845
0.00264288
0.00263745
0.00263178
0.00262551
0.0026186
0.00261078
0.00260176
0.00259133
0.00257917
0.00256495
0.00254823
0.00252885
0.00250703
0.00248282
0.00245635
0.00242768
0.00239667
0.00236345
0.00232808
0.00229112
0.00225884
0.0022284
0.00217519
0.00207943
0.00192402
0.00164357
0.00128988
0.00203774
0.00217404
0.00231182
0.0024004
0.00247462
0.00253993
0.00259151
0.0026166
0.0026267
0.00263121
0.00263151
0.00262885
0.00262358
0.00261503
0.00260698
0.00259992
0.00259182
0.00258225
0.0025709
0.00255768
0.00253229
0.00238815
0.00211637
0.00179521
0.00146441
0.00145715
8.17408e-05
6.35542e-06
1e-15
1e-15
1e-15
1e-15
1e-15
1e-15
1e-15
1e-15
1e-15
1e-15
1e-15
0.00299068
0.00234084
0.00115272
0.000843932
0.000837447
0.000819525
0.000794112
0.000774358
0.000759925
0.000748389
0.000739629
0.000732953
0.000727535
0.000723196
0.000719574
0.000716245
0.00071312
0.000709973
0.000706572
0.000702835
0.000698642
0.000693855
0.000688463
0.000682706
0.000676687
0.00067044
0.000664123
0.000657511
0.00065078
0.000644004
0.00063708
0.000629798
0.000625326
0.00065174
0.000730373
0.000847064
0.000977843
0.0010712
0.00105289
0.0028253
0.00261153
0.00254782
0.00249293
0.00244304
0.00239947
0.00236713
0.00232937
0.00229197
0.0022661
0.00224478
0.00222679
0.00221214
0.00219677
0.00218731
0.00218529
0.00218365
0.00218322
0.00218406
0.00218719
0.00221977
0.0022642
0.002242
0.00217442
0.00196102
0.00184203
0.000321452
7.22979e-07
5.3886e-08
1e-15
1e-15
1e-15
1e-15
1e-15
1e-15
1e-15
1e-15
1e-15
1e-15
0.00184825
0.000466568
0.000226521
0.000128511
0.00012982
0.000130216
0.000126719
0.000121094
0.000116165
0.000112061
0.000106945
0.000102183
9.87446e-05
9.56605e-05
9.35326e-05
9.26552e-05
9.25102e-05
9.32783e-05
9.48155e-05
9.69892e-05
9.96296e-05
0.000102677
0.000106052
0.000109174
0.000111403
0.000113168
0.000114899
0.000116531
0.000118067
0.00011951
0.000120833
0.000121971
0.000123552
0.000131269
0.000149833
0.000176846
0.000218117
0.00025756
0.000475433
0.000991499
0.000847871
0.000754207
0.000692744
0.000636554
0.000586853
0.000543246
0.000514024
0.000493013
0.000477429
0.000465421
0.000457098
0.000452688
0.000451869
0.000453252
0.000457627
0.000465358
0.000476723
0.000491757
0.00050758
0.000540307
0.000676173
0.000881987
0.00108982
0.0012035
0.0014024
0.000649361
5.90207e-06
4.53624e-07
1e-15
1e-15
1e-15
1e-15
1e-15
1e-15
1e-15
1e-15
1e-15
1e-15
0.000364809
6.46195e-05
8.44093e-05
9.40374e-05
9.43447e-05
9.57234e-05
9.5817e-05
9.36815e-05
9.13262e-05
8.9252e-05
8.58126e-05
8.22124e-05
7.94734e-05
7.68358e-05
7.48743e-05
7.39288e-05
7.35813e-05
7.40291e-05
7.5204e-05
7.70032e-05
7.93008e-05
8.20645e-05
8.52524e-05
8.82679e-05
9.04058e-05
9.20526e-05
9.35909e-05
9.49911e-05
9.62242e-05
9.72594e-05
9.8092e-05
9.87077e-05
9.89664e-05
9.75609e-05
8.88959e-05
7.37559e-05
5.92498e-05
8.73515e-05
7.85367e-06
0.000137936
0.000119516
0.000113557
9.99862e-05
9.27699e-05
8.65513e-05
7.85552e-05
7.39605e-05
7.0555e-05
6.74582e-05
6.55561e-05
6.42443e-05
6.35995e-05
6.38284e-05
6.44899e-05
6.57811e-05
6.77249e-05
7.03427e-05
7.36361e-05
7.7154e-05
8.33236e-05
0.00010561
0.000139329
0.000194326
0.000223553
0.000518115
0.000609313
2.44538e-05
1.93664e-06
1e-15
1e-15
1e-15
1e-15
1e-15
1e-15
1e-15
1e-15
1e-15
1e-15
5.38561e-05
0.000213273
0.000558105
0.000621185
0.000612594
0.000606682
0.000605281
0.000604839
0.000604534
0.000604638
0.000604285
0.00060325
0.000602043
0.000600689
0.000599175
0.000597665
0.000596195
0.000594736
0.000593298
0.00059185
0.000590348
0.000588699
0.000586829
0.000584632
0.000581877
0.000578385
0.000574158
0.000569219
0.000563523
0.000557067
0.000549872
0.00054194
0.0005326
0.000515006
0.000460618
0.000375371
0.000296403
0.000157045
9.9494e-05
0.000143193
9.88557e-05
0.000110548
0.000112004
0.000117911
0.000122741
0.000122368
0.000122887
0.000122767
0.000121338
0.000120823
0.000120233
0.000119709
0.000119773
0.000119957
0.000120423
0.000121051
0.000121785
0.000122554
0.000123285
0.000123981
0.000119276
0.000105874
8.78975e-05
0.000109902
0.000158057
0.000245417
4.83639e-05
4.42669e-06
1e-15
1e-15
1e-15
1e-15
1e-15
1e-15
1e-15
1e-15
1e-15
1e-15
0.000394879
0.00115079
0.00141473
0.00142481
0.00140457
0.00138463
0.00137122
0.0013626
0.00135626
0.00135147
0.00134739
0.00134328
0.00133943
0.0013357
0.0013318
0.00132794
0.00132408
0.00132002
0.00131576
0.00131117
0.00130609
0.00130029
0.00129366
0.0012861
0.00127725
0.00126683
0.00125511
0.00124225
0.00122818
0.00121285
0.00119624
0.0011783
0.00115899
0.00113858
0.00109476
0.00102231
0.000914969
0.000744677
0.000560384
0.000716182
0.000706309
0.000739355
0.000782703
0.000816663
0.000840755
0.000856355
0.000865579
0.000871006
0.000873829
0.000874732
0.000874428
0.000873084
0.000870914
0.000868028
0.000864502
0.000860364
0.000855638
0.000850363
0.000844675
0.000839387
0.000799688
0.000703976
0.000581358
0.000485508
0.00033384
0.000323673
0.000170096
2.88693e-06
2.30738e-07
1e-15
1e-15
1e-15
1e-15
1e-15
1e-15
1e-15
1e-15
1e-15
0.00143424
0.00124861
0.000887307
0.000866421
0.000860218
0.000849082
0.000838396
0.000830481
0.000824283
0.000818911
0.000814841
0.000811695
0.000808823
0.000806284
0.000803924
0.000801465
0.00079888
0.000796111
0.000792932
0.000789354
0.000785207
0.00078036
0.000774739
0.000768231
0.000761136
0.0007536
0.000745611
0.000737129
0.000728179
0.000718731
0.000708868
0.000698371
0.000687155
0.000681138
0.000693044
0.000713042
0.000722896
0.000707233
0.000625812
0.00140318
0.00129486
0.00130225
0.00130849
0.00130439
0.00129399
0.00128225
0.00126977
0.00125818
0.00124794
0.00123855
0.00123004
0.00122221
0.0012148
0.0012077
0.00120077
0.00119388
0.00118693
0.00117978
0.00117272
0.0011702
0.00116443
0.00112489
0.00105551
0.000961778
0.000799732
0.000651474
0.000470525
3.53974e-05
3.04391e-06
1e-15
1e-15
1e-15
1e-15
1e-15
1e-15
1e-15
1e-15
1e-15
0.00097508
0.00038794
4.52624e-05
3.12703e-05
3.79362e-05
4.03341e-05
3.85048e-05
3.50159e-05
3.14959e-05
2.81074e-05
2.49389e-05
2.21718e-05
1.97369e-05
1.75997e-05
1.57794e-05
1.41496e-05
1.27113e-05
1.14176e-05
1.02802e-05
9.287e-06
8.48453e-06
7.89316e-06
7.55421e-06
7.4536e-06
7.57186e-06
7.90915e-06
8.4311e-06
9.06825e-06
9.79995e-06
1.06271e-05
1.15068e-05
1.23658e-05
1.20678e-05
1.24731e-05
4.31435e-05
0.000103298
0.000190875
0.000301248
0.000357978
0.000713727
0.000706497
0.000649218
0.000614459
0.000582872
0.000553848
0.000531319
0.000513994
0.000500624
0.00049051
0.000482558
0.000476351
0.000471516
0.000467728
0.000464885
0.000462854
0.000461573
0.000461072
0.00046126
0.00046195
0.000466
0.000492527
0.000547238
0.000604392
0.00064648
0.000657467
0.000621562
0.000585747
0.000131052
7.83754e-07
6.32851e-08
1e-15
1e-15
1e-15
1e-15
1e-15
1e-15
1e-15
1e-15
8.24647e-05
6.39627e-05
9.50516e-06
8.88441e-06
1.02025e-05
1.10805e-05
1.1142e-05
1.05325e-05
9.81001e-06
9.14515e-06
8.32601e-06
7.50923e-06
6.84146e-06
6.22875e-06
5.7193e-06
5.34216e-06
5.0509e-06
4.85402e-06
4.74579e-06
4.71972e-06
4.77325e-06
4.91069e-06
5.15393e-06
5.46662e-06
5.75695e-06
6.02456e-06
6.31493e-06
6.62161e-06
6.94219e-06
7.27351e-06
7.60712e-06
7.92705e-06
7.99614e-06
7.99404e-06
1.20924e-05
2.03974e-05
3.82169e-05
6.52792e-05
7.54381e-05
0.000101381
0.000101552
9.96002e-05
9.01751e-05
8.62388e-05
8.27993e-05
7.76575e-05
7.45492e-05
7.19924e-05
6.9355e-05
6.77516e-05
6.64318e-05
6.54246e-05
6.49603e-05
6.47336e-05
6.48373e-05
6.51764e-05
6.57432e-05
6.64788e-05
6.73058e-05
6.85849e-05
7.30407e-05
8.44485e-05
2.74552e-05
0.000129028
0.000235742
0.000320831
0.000406559
0.000232979
8.95758e-06
7.44927e-07
1e-15
1e-15
1e-15
1e-15
1e-15
1e-15
1e-15
1e-15
2.07793e-05
6.2201e-05
1.58934e-05
2.60301e-05
2.67772e-05
2.83349e-05
3.04157e-05
3.17051e-05
3.23899e-05
3.30571e-05
3.32609e-05
3.29331e-05
3.2547e-05
3.20647e-05
3.14644e-05
3.09395e-05
3.04872e-05
3.01182e-05
2.98642e-05
2.97503e-05
2.97984e-05
2.99856e-05
3.04258e-05
3.11457e-05
3.18768e-05
3.2388e-05
3.27792e-05
3.30853e-05
3.33088e-05
3.34408e-05
3.34799e-05
3.34124e-05
3.30841e-05
3.16447e-05
2.08903e-05
7.60556e-07
6.47867e-05
5.18432e-05
5.48382e-05
4.06349e-05
2.85984e-05
3.03476e-05
2.95721e-05
3.0744e-05
3.22192e-05
3.24159e-05
3.29399e-05
3.33177e-05
3.32336e-05
3.33592e-05
3.33979e-05
3.33821e-05
3.35011e-05
3.3603e-05
3.37519e-05
3.39111e-05
3.40725e-05
3.42071e-05
3.43032e-05
3.42659e-05
3.3493e-05
2.93504e-05
2.74234e-05
3.75955e-05
4.85423e-05
9.92248e-06
0.000110041
0.000180636
3.01709e-05
2.95312e-06
1e-15
1e-15
1e-15
1e-15
1e-15
1e-15
1e-15
1e-15
6.59596e-05
0.000433163
0.00055413
0.000558578
0.000553061
0.000547791
0.000543995
0.000541023
0.000538214
0.000535669
0.000533363
0.000531026
0.000528762
0.000526614
0.000524464
0.000522347
0.000520248
0.000518093
0.000515864
0.000513512
0.000510975
0.000508171
0.000505065
0.000501678
0.000497968
0.000493839
0.000489337
0.000484491
0.000479253
0.000473599
0.000467507
0.000460959
0.000454009
0.000446962
0.000430334
0.000397454
0.000343876
0.00026945
0.000202343
0.000237576
0.000200971
0.000199797
0.000203747
0.000210221
0.000218162
0.000224783
0.000230442
0.000235384
0.000239203
0.000242216
0.000244559
0.000246211
0.000247311
0.000247908
0.000248037
0.00024772
0.000246989
0.000245879
0.00024443
0.000242307
0.000235768
0.000206152
0.000164507
0.000128884
8.09692e-05
4.84218e-05
6.46214e-05
0.00013529
7.80535e-05
2.26878e-06
2.04391e-07
1e-15
1e-15
1e-15
1e-15
1e-15
1e-15
1e-15
0.000639474
0.000699787
0.000605415
0.000591383
0.000580827
0.000571775
0.000564655
0.000559387
0.000555044
0.000551263
0.000548143
0.000545423
0.000542947
0.000539482
0.000536154
0.000533102
0.000530311
0.00052768
0.000525099
0.000522471
0.000519702
0.000516682
0.000513271
0.000509432
0.000505267
0.000500795
0.000495995
0.000490844
0.000485323
0.000479437
0.000473155
0.000466482
0.000459611
0.000454448
0.000450948
0.000443136
0.000422878
0.000382978
0.000322621
0.000698542
0.000630252
0.000611718
0.000606504
0.000603946
0.000603647
0.000604065
0.000604313
0.0006045
0.00060418
0.000603356
0.000602177
0.000600512
0.000598449
0.000596023
0.000593204
0.000590023
0.000586471
0.000582548
0.000578248
0.00057356
0.000568902
0.000546756
0.000508434
0.000456686
0.000391287
0.000330515
0.000259105
0.00021756
0.000181223
3.09964e-05
8.25682e-08
6.81807e-09
1e-15
1e-15
1e-15
1e-15
1e-15
1e-15
0.000639616
0.000311339
0.00014931
0.000129481
0.000125
0.000121434
0.000117883
0.00011492
0.000112563
0.000110528
0.000108853
0.000107502
0.000106422
0.000108189
0.000111809
0.000115247
0.000118123
0.000120396
0.000122199
0.000123605
0.000124748
0.000125625
0.00012629
0.000126795
0.000127102
0.000127194
0.000127021
0.000126625
0.000126039
0.000125261
0.000124272
0.000123101
0.000121673
0.000120934
0.000128598
0.000149046
0.000179134
0.000209937
0.000214791
0.000492499
0.000466856
0.000438924
0.000422218
0.000409595
0.000398713
0.000390507
0.000383263
0.000376741
0.000371131
0.000365968
0.000361286
0.00035704
0.000353118
0.000349496
0.000346141
0.00034306
0.00034023
0.00033762
0.000335233
0.000332878
0.000335436
0.000349856
0.000362691
0.00036719
0.000361624
0.0003448
0.000311069
0.000265797
0.000240435
0.00010387
5.62377e-06
4.78485e-07
1e-15
1e-15
1e-15
1e-15
1e-15
1e-15
0.000180051
6.41748e-05
2.36215e-05
2.0468e-05
2.0066e-05
1.99359e-05
1.93811e-05
1.84353e-05
1.75428e-05
1.67439e-05
1.57276e-05
1.47214e-05
1.39103e-05
1.34461e-05
1.32881e-05
1.32815e-05
1.33091e-05
1.34535e-05
1.37377e-05
1.41696e-05
1.47436e-05
1.54757e-05
1.6366e-05
1.72251e-05
1.78097e-05
1.8247e-05
1.86702e-05
1.90792e-05
1.94759e-05
1.98511e-05
2.01975e-05
2.0517e-05
2.07942e-05
2.11899e-05
2.31005e-05
2.74514e-05
3.47343e-05
1.46869e-05
6.32971e-05
6.08551e-05
7.66341e-05
5.73543e-05
4.55057e-05
3.74477e-05
3.04692e-05
2.44501e-05
1.92302e-05
1.44991e-05
1.04481e-05
7.01143e-06
4.09899e-06
1.72481e-06
4.85743e-05
4.78224e-05
4.74581e-05
4.72315e-05
4.71164e-05
4.70654e-05
4.70486e-05
4.6971e-05
4.96234e-05
1.98438e-05
5.47829e-05
9.51825e-05
0.000139825
0.000179239
0.000203003
0.000205818
0.000208369
0.000162355
3.00304e-05
3.30071e-06
1e-15
1e-15
1e-15
1e-15
1e-15
1e-15
3.22343e-05
1.60852e-05
2.15416e-05