/*--------------------------------*- C++ -*----------------------------------*\
| =========                 |                                                 |
| \\      /  F ield         | OpenFOAM: The Open Source CFD Toolbox           |
|  \\    /   O peration     | Version:  2312                                  |
|   \\  /    A nd           | Website:  www.openfoam.com                      |
|    \\/     M anipulation  |                                                 |
\*---------------------------------------------------------------------------*/
FoamFile
{
    version     2.0;
    format      ascii;
    arch        "LSB;label=32;scalar=64";
    class       volScalarField;
    location    "100";
    object      turbulenceProperties:I;
}
// * * * * * * * * * * * * * * * * * * * * * * * * * * * * * * * * * * * * * //

dimensions      [0 0 0 0 0 0 0];

internalField   nonuniform List<scalar> 
10720
(
0.00906719
0.00849531
0.0086532
0.00871655
0.00892629
0.00937993
0.0100118
0.0107978
0.0118036
0.0131309
0.0149112
0.0173729
0.0208939
0.0259337
0.0342666
0.0476898
0.0676537
0.102147
0.149036
0.194289
0.242544
0.299815
0.353097
0.415737
0.49077
0.564159
0.748666
0.941602
0.79544
0.52346
0.29369
0.103676
0.0574521
0.0224212
4.69574e-09
3.23899e-08
3.71174e-09
0.0341663
0.447916
0.0121088
0.0135277
0.0125099
0.013209
0.0190905
0.037198
0.0730802
0.0785969
0.0453875
0.0307327
0.0251019
0.0231415
0.0233414
0.0252715
0.0292697
0.0349965
0.0434093
0.0506587
0.0574239
0.063734
0.0699715
0.0773727
0.0875135
0.101484
0.117271
0.133657
0.133251
0.109183
0.0742495
0.0417895
0.0177673
0.00437364
0.00219879
0.00136181
0.00126274
0.00872746
0.0012045
0.0695365
0.486908
0.0058809
0.00598939
0.00536732
0.00493144
0.00451176
0.00410746
0.0037631
0.003465
0.00322776
0.00304125
0.00289869
0.00279785
0.00282645
0.00325629
0.00441815
0.00668582
0.0103189
0.0167854
0.0273748
0.0426143
0.0597404
0.0879166
0.141972
0.199597
0.266122
0.316841
0.475207
0.631309
0.574927
0.448557
0.310954
0.188258
0.0956168
0.0289908
0.00552593
3.18715e-09
0.00758361
0.20855
1
0.0013417
0.00624749
0.00825352
0.0135943
0.0190873
0.0221427
0.0225769
0.02357
0.0192917
0.014951
0.0125305
0.0105989
0.00866482
0.00674382
0.00764997
0.0147556
0.0182129
0.0214175
0.0246121
0.0107943
0.0108742
0.00716352
0.00986856
0.00688098
0.00878003
0.0132295
0.0169881
0.0171851
0.0149262
0.0120603
0.00895905
0.00610928
0.00385469
0.00226106
0.00108052
0.00136188
0.000176677
0.0199982
0.197966
0.00392216
0.00233298
0.00262476
0.00238363
0.0023254
0.00230281
0.00227512
0.00225365
0.00223948
0.00223513
0.00223914
0.00224911
0.00229283
0.00222815
0.00245115
0.000614891
0.0051072
0.00812961
0.0132078
0.0206178
0.0288885
0.0141208
0.0578536
0.115
0.17507
0.217121
0.324594
0.4206
0.390352
0.330639
0.254943
0.180191
0.109243
0.046363
0.0141811
0.00297734
0.0144283
0.430664
1
0.00604272
0.0106373
0.0125288
0.0123593
0.00910676
0.00278964
0.00586667
0.00604719
0.00573855
0.00518916
0.00289111
0.00408922
0.00437308
0.00427942
0.0040273
0.00426452
0.00344902
0.00306269
0.00101835
0.00479936
0.00489837
0.00334013
0.00459487
0.00331266
0.00418706
0.00625966
0.00805301
0.00819661
0.00719197
0.0059
0.00449008
0.00101294
0.00172289
0.00213406
0.00229766
0.00327688
0.000430843
0.0128699
0.116431
0.00794633
0.00743147
0.00691337
0.00634874
0.00597112
0.00564667
0.0053595
0.00511158
0.00490124
0.0047247
0.00457682
0.00445271
0.00435208
0.00427818
0.00421888
0.00418287
0.00407619
0.00364473
0.00144325
0.00136608
6.1863e-10
0.00627183
0.0287732
0.0572533
0.128827
0.00334619
0.000701735
0.000930917
0.00107226
0.0015806
0.00384401
0.0174881
0.0449274
0.0438469
0.0255197
0.00468502
0.012298
0.0518981
0.489398
0.0101699
0.00940339
0.006305
0.00481449
0.00406238
0.00450197
0.00505178
0.00533264
0.00518457
0.00476086
0.00440065
0.00415196
0.0039126
0.00368487
0.00347672
0.00342202
0.000840003
0.00126228
0.00153162
0.00169291
0.00177691
0.00201584
0.00224685
0.00224906
0.00223445
0.0022951
0.00235191
0.00238094
0.00238455
0.00238333
0.00234872
0.00232509
0.00232521
0.00238478
0.00225442
0.00328152
0.000444848
0.011019
0.0941144
0.00846037
0.00741191
0.00680352
0.00625069
0.00576544
0.00534893
0.00500277
0.00471839
0.00448793
0.0043065
0.00416651
0.00406313
0.00396961
0.00393145
0.00396491
0.0039666
0.00397452
0.00403261
0.00402697
0.00318394
0.0014169
0.00101903
6.54029e-10
0.0333848
0.0955325
0.00202811
0.00053526
0.000421235
0.000486451
0.000718781
0.00175342
0.00802223
0.0207782
0.000100277
0.0182973
0.0138313
0.0131144
0.0143365
0.18875
0.00599028
0.00390837
0.00306475
0.00160698
0.00747116
0.0108557
0.0118969
0.0124001
0.0122388
0.0115543
0.0106523
0.00976104
0.00897075
0.00830509
0.00774824
0.00731104
0.00695704
0.00661855
0.00630928
0.00603452
0.00578041
0.00555471
0.00535161
0.00515844
0.00498685
0.00484336
0.00471943
0.00460988
0.00451213
0.00457548
0.00448604
0.0041933
0.00407354
0.00396914
0.00373938
0.00389442
0.00145244
0.00984418
0.081258
0.00313048
0.0036496
0.00294123
0.00245828
0.00207063
0.00175702
0.00152003
0.00135278
0.00125315
0.00121333
0.0012209
0.00126687
0.00134244
0.00143523
0.00155792
0.001714
0.00185261
0.00202608
0.00229756
0.00254156
0.00271831
0.00236895
0.00058425
0.0146591
0.0660332
0.00150233
0.000324888
7.23319e-10
7.42081e-10
7.64292e-10
7.90809e-10
8.23006e-10
8.62731e-10
4.61477e-05
1.60714e-05
5.29332e-05
0.000147703
2.0673e-05
0.0634976
0.00262303
0.00311814
0.00608631
0.00875545
0.0100239
0.0107804
0.0114898
0.0119536
0.0120235
0.0117121
0.0111766
0.0105689
0.00997799
0.00944696
0.00896971
0.00860035
0.00829903
0.0079494
0.00761618
0.00733751
0.00707754
0.00683447
0.0066067
0.00639402
0.00620053
0.00602872
0.00587662
0.00574074
0.00561901
0.00551062
0.00541473
0.00531332
0.00519516
0.00506544
0.00486052
0.00479202
0.00283739
0.00837395
0.0672268
0.00240125
0.00203365
0.00191711
0.00177195
0.00168828
0.00162348
0.00155687
0.00150965
0.00147329
0.0014449
0.00142866
0.00142129
0.00142649
0.000319875
0.000559214
0.000746602
0.000839141
0.000889624
0.00113271
0.00154984
0.0018369
0.00279598
0.00133988
0.00812366
0.0358316
0.000991542
0.000218309
7.24827e-10
7.41982e-10
7.61974e-10
7.85406e-10
8.13049e-10
8.46129e-10
8.87259e-10
7.46895e-06
2.54562e-05
6.9067e-05
1.05428e-09
1.36271e-09
0.00374298
0.00695533
0.0080415
0.00767515
0.00630269
0.00577062
0.00613819
0.00643564
0.00664837
0.00673384
0.00671795
0.00664949
0.00656455
0.00648528
0.00640093
0.00630422
0.00620951
0.00609599
0.00594576
0.00577786
0.0056012
0.00542272
0.00524717
0.00508035
0.00492724
0.00479013
0.0046691
0.0045624
0.00446874
0.00438702
0.00431913
0.00427882
0.00423322
0.00422886
0.00427267
0.0043925
0.00337673
0.00644635
0.0502193
0.00506009
0.00472447
0.00457825
0.00443482
0.00431004
0.00419544
0.00408099
0.0039688
0.00386087
0.00375893
0.00366468
0.0035788
0.0035023
0.00343611
0.00338041
0.00333522
0.00329404
0.00335615
0.00324658
0.00302207
0.00290546
0.00304496
0.00266979
0.00242351
0.0101181
0.000408573
9.16173e-05
7.29088e-10
7.45535e-10
7.64519e-10
7.86536e-10
8.11967e-10
8.41419e-10
8.74606e-10
9.15243e-10
9.47008e-10
1.01309e-09
1.03032e-09
1.31111e-09
0.00710233
0.00695824
0.00498321
0.0022448
0.00233237
0.00201354
0.00214696
0.00224987
0.00233885
0.00240092
0.00242992
0.00244548
0.0024602
0.00250418
0.00115018
0.00183025
0.0021183
0.00223082
0.00225306
0.00222649
0.00217149
0.00210116
0.00202438
0.0019523
0.00189113
0.00183998
0.00179967
0.00177027
0.001752
0.00174226
0.00173843
0.00177461
0.0018994
0.00206449
0.00224483
0.00257372
0.00262863
0.00411772
0.0311546
0.00657912
0.00592444
0.00557932
0.00526904
0.00499341
0.00474555
0.00452666
0.00433145
0.00416062
0.00401495
0.00389115
0.00378757
0.0037049
0.00364328
0.00359785
0.00356656
0.00353809
0.00356566
0.00363264
0.00360634
0.00353958
0.00342497
0.00359215
0.00163426
0.00459101
0.000185975
7.19704e-10
7.33998e-10
7.50132e-10
7.68639e-10
7.89994e-10
8.14426e-10
8.42069e-10
8.72057e-10
9.02053e-10
9.26051e-10
9.85896e-10
1.00885e-09
1.3009e-09
0.00567837
0.00265364
0.00201359
0.00137641
0.00170005
0.00181848
0.00189882
0.00193938
0.00194812
0.00193035
0.00188249
0.00182035
0.00175473
0.00168641
0.00168035
0.00171859
0.00172776
0.00171642
0.00169257
0.00166189
0.0016271
0.00159053
0.00155375
0.00151901
0.00148751
0.00145995
0.00143712
0.00141881
0.00140481
0.00139426
0.00138617
0.00139012
0.00140597
0.00142833
0.00145832
0.00155842
0.00102305
0.00194216
0.0143255
0.00410039
0.00396006
0.00352614
0.0032286
0.0030007
0.00279827
0.00262772
0.00248472
0.00237206
0.00229106
0.00223206
0.00219457
0.00218869
0.00220997
0.00223903
0.00227648
0.00235546
0.00247293
0.0026422
0.00283551
0.00300514
0.00309089
0.00326617
0.00319037
0.00130082
2.71959e-05
6.3243e-06
7.38086e-10
7.54032e-10
7.72345e-10
7.93464e-10
8.17541e-10
8.44384e-10
8.73182e-10
8.99237e-10
9.1452e-10
9.61516e-10
9.88256e-10
1.28153e-09
0.00245853
0.00121146
0.00189758
0.00300073
0.00442444
0.00462873
0.00477487
0.00487444
0.00490618
0.00487384
0.00478734
0.00465932
0.00450369
0.00433166
0.0041528
0.00397755
0.00380921
0.00365068
0.00350299
0.00336604
0.00323921
0.0031219
0.00301348
0.00291427
0.0028249
0.0027452
0.00267461
0.00261199
0.00255613
0.00250602
0.00246059
0.00241914
0.0023374
0.0022272
0.00210653
0.00198308
0.00196795
0.00122081
0.00280298
0.00140946
0.00138225
0.00127838
0.00117731
0.00115927
0.00113063
0.00109354
0.00106643
0.00104485
0.00102755
0.00101769
0.00101286
0.0010181
0.00103406
0.00105226
0.0010888
0.00111893
0.00115203
0.00125054
0.000889301
0.00144402
0.00186844
0.00218536
0.00253407
0.0026176
0.000302849
7.16643e-05
7.41831e-10
7.57356e-10
7.75318e-10
7.9615e-10
8.19974e-10
8.46465e-10
8.74751e-10
9.00539e-10
9.11631e-10
9.47767e-10
9.7457e-10
1.23197e-09
0.00135204
0.00228562
0.00435567
0.00505527
0.00539998
0.00558518
0.00573758
0.00585644
0.00592338
0.00593497
0.00589647
0.00581638
0.00570091
0.00555841
0.00539897
0.00523138
0.00506164
0.00489372
0.00472996
0.00457184
0.00442021
0.00427557
0.0041383
0.00400941
0.00389072
0.00378333
0.00368727
0.00360152
0.00352479
0.00345629
0.00339494
0.00334247
0.00326882
0.00319248
0.00312436
0.00298132
0.00277517
0.00237332
0.00172674
0.00166035
0.00121605
0.00126462
0.000532478
0.00105177
0.00123889
0.001355
0.00142437
0.00146365
0.00147973
0.00148094
0.00147092
0.00145697
0.00144336
0.00142553
0.00148014
0.00142641
0.00130228
0.00127772
0.00121924
0.00125275
0.00142341
0.00166401
0.00183633
0.002491
0.000482341
0.0001161
7.45687e-10
7.60633e-10
7.78029e-10
7.98318e-10
8.21633e-10
8.47682e-10
8.7553e-10
9.02112e-10
9.13228e-10
9.43627e-10
9.69952e-10
1.16673e-09
0.00312391
0.0043402
0.00444032
0.00404536
0.00379607
0.00391237
0.00401001
0.00409552
0.00416305
0.00420528
0.0042194
0.00420722
0.00416192
0.00409501
0.00401302
0.00392065
0.00382111
0.00371704
0.00361049
0.00350323
0.00339655
0.00329184
0.0031903
0.00309403
0.00300498
0.00292418
0.00285202
0.00278805
0.00273162
0.00268212
0.00263851
0.00260484
0.00259335
0.00259679
0.00260604
0.0025981
0.00257795
0.00257861
0.0021055
0.00354897
0.00340306
0.00338853
0.00334374
0.00330817
0.00326331
0.00320607
0.00314288
0.00307578
0.00300724
0.00294093
0.00287876
0.00282157
0.00277021
0.0027248
0.00268301
0.00264966
0.00262122
0.00259435
0.00258296
0.00245262
0.0022484
0.0021829
0.00205259
0.00242372
0.000731561
0.000179061
7.49793e-10
7.64116e-10
7.80855e-10
8.00438e-10
8.22994e-10
8.48296e-10
8.7545e-10
9.02517e-10
9.15721e-10
9.4451e-10
9.72524e-10
1.10966e-09
0.00412473
0.00356772
0.0024297
0.000736005
0.00142199
0.00145982
0.0015016
0.00152531
0.00154399
0.00155812
0.00155788
0.0015515
0.00154371
0.00029059
0.000402192
0.000477604
0.000528882
0.000562112
0.000580211
0.000586274
0.000582068
0.000570712
0.000555564
0.000542679
0.000535386
0.000532582
0.000533881
0.000539148
0.00054869
0.000562177
0.000575467
0.000586885
0.000679029
0.000867928
0.00109452
0.00133334
0.00157524
0.00183652
0.00188429
0.00367343
0.00336387
0.00319398
0.00307971
0.00296739
0.00285768
0.00276518
0.00269081
0.00262682
0.00257093
0.00252509
0.00248963
0.00246355
0.00244601
0.00243629
0.00243397
0.00243722
0.00244504
0.00246398
0.00248705
0.00250887
0.00249819
0.00243702
0.00228941
0.00244381
0.00108421
7.91863e-07
1.9118e-07
7.67828e-10
7.83897e-10
8.02737e-10
8.24441e-10
8.48797e-10
8.74985e-10
9.0184e-10
9.17317e-10
9.46447e-10
9.78588e-10
1.07047e-09
0.00269704
0.000809144
0.000942949
0.000728023
0.000724476
0.000749506
0.000769846
0.000777774
0.000780025
0.00077877
0.000769255
0.000756487
0.000744712
0.00073998
0.000735817
0.000732879
0.000729536
0.000725958
0.000721787
0.000716738
0.000710567
0.000703611
0.000696258
0.000688754
0.000681084
0.000673925
0.00066803
0.000663472
0.000660313
0.000658564
0.000657407
0.0006558
0.000666225
0.000692766
0.000733287
0.000801375
0.000857768
0.000509853
0.0011639
0.00175797
0.00182924
0.00156003
0.00138215
0.00123067
0.00108862
0.000991127
0.000953759
0.000943549
0.000945076
0.000966644
0.00100346
0.00104964
0.0011028
0.0011592
0.00121751
0.00127941
0.00134499
0.00140815
0.00150938
0.00169957
0.0018857
0.00201433
0.00204501
0.00222401
0.0014103
2.74138e-06
6.73168e-07
7.71744e-10
7.8714e-10
8.0524e-10
8.26096e-10
8.49472e-10
8.74595e-10
9.00729e-10
9.17789e-10
9.47436e-10
9.84613e-10
1.0473e-09
0.00113867
0.000718534
0.00019574
0.00176476
0.00186693
0.00189974
0.00193884
0.0019691
0.00198717
0.00199437
0.00199029
0.00197627
0.00195535
0.00192902
0.00189829
0.00186446
0.00182823
0.00179017
0.00175092
0.00171096
0.00167077
0.00163076
0.0015914
0.00155325
0.00151681
0.00148243
0.00145058
0.0014214
0.00139474
0.00137057
0.00134853
0.00132687
0.00129339
0.00122731
0.00113096
0.00106003
0.000864566
0.000621238
0.00094313
0.000670838
0.000729813
0.000714187
0.000682548
0.000670463
0.0006565
0.000634111
0.00062394
0.0006174
0.000610224
0.000609613
0.000613338
0.000620896
0.000632979
0.000647786
0.00066528
0.000685988
0.000709642
0.000733757
0.000785579
0.000848233
0.000513208
0.00100394
0.00128611
0.00160142
0.00143956
5.33023e-06
1.33088e-06
7.75848e-10
7.90562e-10
8.0792e-10
8.27943e-10
8.5037e-10
8.74467e-10
8.99708e-10
9.17658e-10
9.47164e-10
9.88411e-10
1.03469e-09
0.00104433
0.00180934
0.00278515
0.00308822
0.00315398
0.00320142
0.00324874
0.0032887
0.00331517
0.00332739
0.00332593
0.00331212
0.00328822
0.00325584
0.00321625
0.00317053
0.00311949
0.00306384
0.00300436
0.00294182
0.00287705
0.00281088
0.00274423
0.0026782
0.0026142
0.00255346
0.00249695
0.00244502
0.00239752
0.00235439
0.00231529
0.00227999
0.00224668
0.00219607
0.00212564
0.00202678
0.00188713
0.00171216
0.00154821
0.000661861
0.000859272
0.00109661
0.00123235
0.00132055
0.00137453
0.00138606
0.00137711
0.00136022
0.00133741
0.0013123
0.00128696
0.00126244
0.00123973
0.00121848
0.00119906
0.00118237
0.00116768
0.00115327
0.00119851
0.00109457
0.000919252
0.000938806
0.00104489
0.00121684
0.00139123
9.73086e-06
2.46965e-06
7.80136e-10
7.94156e-10
8.10761e-10
8.29951e-10
8.51457e-10
8.74595e-10
8.98968e-10
9.17447e-10
9.46157e-10
9.89355e-10
1.02765e-09
0.0023419
0.00295366
0.00285276
0.00255744
0.00260058
0.0026401
0.00267228
0.00270006
0.00271974
0.00273007
0.00273213
0.00272649
0.00271367
0.00269469
0.00267031
0.00264076
0.00260646
0.00256775
0.002525
0.00247866
0.00242931
0.00237769
0.00232453
0.00227099
0.00221858
0.00216868
0.00212209
0.00207917
0.00203995
0.00200449
0.00197261
0.00194425
0.00192656
0.00192351
0.00192021
0.00190376
0.00188922
0.00183273
0.00169559
0.00256736
0.00248066
0.0024784
0.00247199
0.00244606
0.00240917
0.00236047
0.00230662
0.00225364
0.00220302
0.00215542
0.00211038
0.00206945
0.00203267
0.00199892
0.00196808
0.00194017
0.00191527
0.00189335
0.0018747
0.00182184
0.00173052
0.00164669
0.00152974
0.00139162
0.00149291
1.85764e-05
4.79068e-06
7.84604e-10
7.97921e-10
8.13764e-10
8.32114e-10
8.52708e-10
8.74929e-10
8.98485e-10
9.17381e-10
9.4502e-10
9.87934e-10
1.02279e-09
0.00288302
0.00241097
0.00158592
0.000901256
0.000914009
0.00094928
0.000957951
0.000958581
0.0009587
0.000958688
0.000958175
0.000957299
0.000955853
0.000953889
0.000951136
0.000947388
0.000942347
0.000935931
0.000927883
0.00091819
0.000906828
0.000894115
0.000880438
0.000866609
0.000853206
0.000840653
0.000829209
0.00081903
0.000810235
0.000803001
0.000797296
0.000791126
0.000790164
0.000856969
0.00096525
0.00109363
0.00125859
0.00140062
0.00143623
0.00253736
0.0023414
0.00222139
0.0021322
0.00204043
0.00195609
0.00188071
0.00181452
0.00176244
0.00172126
0.00168761
0.00165758
0.00163401
0.00161685
0.00160198
0.00158996
0.00158096
0.00157528
0.00157346
0.00158445
0.00161527
0.00163158
0.00163009
0.00160842
0.00150807
0.00156053
3.32824e-05
8.71909e-06
7.89246e-10
8.01855e-10
8.16929e-10
8.34434e-10
8.54119e-10
8.75442e-10
8.98197e-10
9.17442e-10
9.44075e-10
9.85075e-10
1.01828e-09
0.00184745
0.000642478
0.000641322
0.000342227
0.000350028
0.000367906
0.000372102
0.000369082
0.000365726
0.000363033
0.000358247
0.000353653
0.000350751
0.00034826
0.000346967
0.000347212
0.00034808
0.000349694
0.000351686
0.000353768
0.000355576
0.000357132
0.0003584
0.000359045
0.000358621
0.000357873
0.000357304
0.000356995
0.000357013
0.000357455
0.000358334
0.000358777
0.000361382
0.000395055
0.000451037
0.000511493
0.000602107
0.000594999
0.000941626
0.00119551
0.00117633
0.000939604
0.000772539
0.000625918
0.000485473
0.000374458
0.000296013
0.000255911
0.000253553
0.000272926
0.000301529
0.000330871
0.000362194
0.000396563
0.000433823
0.00047318
0.000514828
0.00055605
0.000604451
0.0007165
0.000884
0.00105621
0.00120298
0.00123889
0.00141039
5.30275e-05
1.4107e-05
7.94048e-10
8.0595e-10
8.20253e-10
8.36913e-10
8.55694e-10
8.76133e-10
8.98079e-10
9.17548e-10
9.43347e-10
9.8163e-10
1.01344e-09
0.000786351
0.000340758
0.000602936
0.000681565
0.000698458
0.000714016
0.000723764
0.000724243
0.000721926
0.000718501
0.000708556
0.000696876
0.000687418
0.000677635
0.000669717
0.000664706
0.000661076
0.000659205
0.000658638
0.000658843
0.000659163
0.000659583
0.000659792
0.000658532
0.000654591
0.000649455
0.000644359
0.000639454
0.000634823
0.000630526
0.000626626
0.000623196
0.000620472
0.00061305
0.000110127
0.000562891
0.000511025
0.000540055
0.000463229
0.000436664
0.000433414
0.000358402
0.000308919
0.000289695
0.000277384
0.000267985
0.000262765
0.000260273
0.000259568
0.000261602
0.000264698
0.000268057
0.000272706
0.000278826
0.000286771
0.00029633
0.000307596
0.000319805
0.000334698
0.000366157
0.000421825
0.000479501
0.000380283
0.000636677
0.00103486
7.27273e-05
1.96408e-05
7.99e-10
8.10197e-10
8.23731e-10
8.3955e-10
8.57436e-10
8.77002e-10
8.98129e-10
9.17654e-10
9.4273e-10
9.78142e-10
1.00826e-09
0.000491644
0.000674088
0.0015561
0.00175447
0.00177904
0.0017935
0.00181165
0.00182878
0.00184149
0.00184946
0.0018528
0.00185163
0.00184684
0.00183908
0.00182865
0.00181586
0.00180084
0.00178357
0.00176411
0.00174244
0.00171861
0.00169273
0.00166499
0.00163585
0.00160604
0.00157633
0.00154737
0.00151962
0.00149327
0.00146855
0.00144558
0.00142451
0.00140583
0.0013764
0.00132758
0.00124394
0.00112191
0.000989414
0.000888923
0.000683976
0.000568862
0.000603714
0.000288793
0.000446004
0.000547016
0.00060734
0.000635945
0.000647839
0.000650602
0.000648705
0.000644332
0.000638165
0.000630926
0.000623618
0.000616674
0.000609941
0.000603563
0.000597595
0.000590702
0.000565546
0.000545408
0.000412532
0.000279408
0.000310401
0.000748698
0.000105745
2.89831e-05
8.04088e-10
8.14587e-10
8.27356e-10
8.4234e-10
8.59342e-10
8.78045e-10
8.98351e-10
9.17763e-10
9.42117e-10
9.74842e-10
1.00299e-09
0.00119135
0.00179792
0.00188697
0.00188429
0.00190898
0.00191858
0.00192932
0.00194037
0.00194856
0.00195295
0.00195386
0.00195137
0.00194593
0.00193806
0.00192803
0.00191591
0.00190175
0.00188551
0.00186708
0.00184637
0.00182334
0.001798
0.00177041
0.00174095
0.00171049
0.00167993
0.00164993
0.00162098
0.00159337
0.00156735
0.00154316
0.00152113
0.00150345
0.00148919
0.00147014
0.00143929
0.00138974
0.00129289
0.00115657
0.00150493
0.00153172
0.00155332
0.00155532
0.00155244
0.00154525
0.00153372
0.00151519
0.00149314
0.00147073
0.00144845
0.0014265
0.00140505
0.0013839
0.00136404
0.00134569
0.0013284
0.00131222
0.00129725
0.00128365
0.00126895
0.00122618
0.00115055
0.00105817
0.000956196
0.000956177
0.00022753
6.39002e-05
8.09298e-10
8.1911e-10
8.31124e-10
8.45281e-10
8.61409e-10
8.79258e-10
8.98741e-10
9.17896e-10
9.4146e-10
9.71771e-10
9.97899e-10
0.00184863
0.00165737
0.0011799
0.00102494
0.00103549
0.0010379
0.00103351
0.00102985
0.00102671
0.00102291
0.00101875
0.0010142
0.00100907
0.00100353
0.000997533
0.000990868
0.000983517
0.000975337
0.000966148
0.000955875
0.000944441
0.000931788
0.000917978
0.000903355
0.000888363
0.00087344
0.000859001
0.000845141
0.000832149
0.000820209
0.000809379
0.000799638
0.000793087
0.00080733
0.000853806
0.000920443
0.00099237
0.00104495
0.00104528
0.00176337
0.00167201
0.00162567
0.00158173
0.00154082
0.00150177
0.00146714
0.00143227
0.00139867
0.00136995
0.00134392
0.00132001
0.00129821
0.00127725
0.00125903
0.00124399
0.00123014
0.00121785
0.00120729
0.00119887
0.00120005
0.00120597
0.00119598
0.00117585
0.00111679
0.00108449
0.000454882
2.17117e-05
5.97986e-06
8.23756e-10
8.35024e-10
8.48367e-10
8.63633e-10
8.80634e-10
8.99291e-10
9.18072e-10
9.40763e-10
9.68902e-10
9.93115e-10
0.00144497
0.000735123
0.000519197
0.000396659
0.000403993
0.000409639
0.000408511
0.000402771
0.000396888
0.000391307
0.000382982
0.000374451
0.000367714
0.000361172
0.000356077
0.000353073
0.000351199
0.000350782
0.000351489
0.000352996
0.00035492
0.000357092
0.000359324
0.00036066
0.00036022
0.000358936
0.000357645
0.000356352
0.00035516
0.000354152
0.000353371
0.000352801
0.000353413
0.000363192
0.00038757
0.000421393
0.00046944
0.000512953
0.000702636
0.00103988
0.000949138
0.000881969
0.0008322
0.000785712
0.000742639
0.000703438
0.000673997
0.000650402
0.000631003
0.00061458
0.00060111
0.000590713
0.000583095
0.000577284
0.000573748
0.000572662
0.000574148
0.000578177
0.000583049
0.000597805
0.000665461
0.000757383
0.000840328
0.000882879
0.000954488
0.00065177
6.24953e-05
1.74653e-05
8.28511e-10
8.3905e-10
8.51592e-10
8.66012e-10
8.82169e-10
8.99995e-10
9.18303e-10
9.40055e-10
9.66206e-10
9.8869e-10
0.000638571
0.000271935
0.000314783
0.000336724
0.000341509
0.000348022
0.000351777
0.000350663
0.000348233
0.000345532
0.00033945
0.000332386
0.000326547
0.000320528
0.000315617
0.000312608
0.000310654
0.000310164
0.000310943
0.000312703
0.000315104
0.000318003
0.000321243
0.000323689
0.000324205
0.000323705
0.000323006
0.000322159
0.000321203
0.000320169
0.000319134
0.000318153
0.000317072
0.00031384
0.000299178
0.000272661
0.000245052
0.000299045
9.03365e-05
0.000386233
0.000355116
0.000341325
0.000315603
0.000299672
0.000285185
0.000267712
0.000256086
0.000246658
0.000237969
0.000231592
0.000226439
0.000222638
0.000220511
0.000219247
0.00021915
0.00022021
0.000222414
0.000225714
0.000229396
0.000236951
0.000265472
0.000303855
0.000358123
0.000383927
0.00058514
0.000636446
0.000128154
3.63284e-05
8.33362e-10
8.4319e-10
8.5495e-10
8.68538e-10
8.83858e-10
9.00848e-10
9.18596e-10
9.39366e-10
9.63679e-10
9.84618e-10
0.000244153
0.000491276
0.000804327
0.000859329
0.000863465
0.000868774
0.000876212
0.00088264
0.000887293
0.000890548
0.00089198
0.00089168
0.000890286
0.000888019
0.000885011
0.000881455
0.000877404
0.000872832
0.000867717
0.000861987
0.000855568
0.000848356
0.000840276
0.000831313
0.000821543
0.000811147
0.000800375
0.00078945
0.000778518
0.000767727
0.000757243
0.000747205
0.000737272
0.000722703
0.000682458
0.000616269
0.00054893
0.000401382
0.000321635
0.000391993
0.000321932
0.000335953
0.000333487
0.000337564
0.000339605
0.000334393
0.000330617
0.000326134
0.000320149
0.000315615
0.000311184
0.000307046
0.000303844
0.000300965
0.000298613
0.000296645
0.00029501
0.000293653
0.000292516
0.000291631
0.000284692
0.000267286
0.000243024
0.000271556
0.00032592
0.000407148
0.000181562
5.52923e-05
8.38292e-10
8.47432e-10
8.58428e-10
8.71204e-10
8.85694e-10
9.01843e-10
9.18959e-10
9.38721e-10
9.61326e-10
9.8088e-10
0.000658114
0.0011353
0.00127313
0.00129295
0.00129807
0.00130225
0.00130785
0.00131326
0.00131711
0.00131933
0.00131983
0.00131863
0.00131623
0.00131287
0.00130859
0.0013036
0.00129792
0.00129145
0.00128414
0.00127586
0.00126646
0.00125578
0.00124369
0.00123021
0.00121549
0.00119978
0.00118356
0.00116718
0.00115085
0.00113477
0.00111915
0.00110417
0.00109002
0.00107692
0.00105427
0.00101887
0.00096587
0.000874895
0.000763555
0.000873497
0.000857968
0.000866868
0.000880263
0.000887715
0.000888834
0.000885293
0.000878789
0.000870646
0.000861691
0.000852322
0.000842831
0.00083333
0.000823902
0.000814593
0.000805465
0.000796569
0.000787974
0.00077977
0.00077209
0.000765361
0.000743619
0.0006953
0.000630477
0.000575666
0.000477601
0.00047127
0.000343002
4.49517e-05
1.28096e-05
8.5176e-10
8.62017e-10
8.73999e-10
8.8767e-10
9.02978e-10
9.19398e-10
9.38141e-10
9.59163e-10
9.77461e-10
0.00124896
0.00117691
0.00100281
0.00100214
0.00100908
0.0010124
0.00101477
0.00101698
0.00101827
0.00101833
0.00101771
0.00101645
0.00101441
0.00101186
0.00100884
0.00100525
0.00100111
0.000996388
0.000990897
0.000984597
0.000977327
0.000968949
0.000959365
0.000948527
0.000936824
0.000924629
0.000912161
0.000899593
0.000887116
0.000874873
0.000863083
0.000851779
0.000841068
0.000834681
0.000840478
0.00085241
0.000859742
0.000853414
0.000807132
0.00121858
0.00115849
0.00114809
0.0011366
0.00112116
0.00110274
0.00108413
0.00106594
0.00104867
0.00103267
0.00101772
0.00100373
0.000990615
0.000978225
0.000966479
0.00095535
0.000944808
0.000934868
0.000925557
0.000917055
0.00091116
0.000904896
0.000886408
0.000856749
0.000817016
0.000745226
0.0006738
0.000574638
0.000158455
4.68034e-05
8.5616e-10
8.65702e-10
8.76914e-10
8.89775e-10
9.04243e-10
9.1992e-10
9.37643e-10
9.57197e-10
9.74349e-10
0.0010258
0.000653102
0.000225356
0.000189314
0.000210597
0.000219176
0.000215915
0.000207257
0.000197507
0.000187181
0.000176643
0.00016668
0.000157246
0.000148376
0.000140313
0.000132639
0.000125445
0.000118583
0.000112177
0.000106239
0.000101122
9.70623e-05
9.44242e-05
9.31962e-05
9.32765e-05
9.463e-05
9.69677e-05
9.98106e-05
0.000103003
0.000106521
0.000110143
0.000113554
0.000111679
0.000113174
0.000210095
0.000324986
0.000442376
0.000557476
0.000610617
0.00086641
0.000853568
0.000809096
0.000777917
0.000749025
0.000721514
0.000698402
0.000679153
0.000662863
0.000649178
0.000637365
0.000627075
0.000618056
0.000610056
0.000602982
0.000596748
0.000591321
0.000586744
0.000582995
0.000579991
0.000579553
0.000593294
0.000623337
0.000653646
0.000675294
0.000681071
0.000663178
0.000645763
0.000306915
2.38912e-05
6.84638e-06
8.69471e-10
8.79934e-10
8.92001e-10
9.05634e-10
9.2053e-10
9.3724e-10
9.55437e-10
9.71538e-10
0.00029724
0.000264102
0.000102791
0.000100383
0.000108587
0.000114162
0.000115374
0.000112876
0.000109435
0.00010599
0.000101317
9.62956e-05
9.19149e-05
8.76501e-05
8.3899e-05
8.09656e-05
7.85813e-05
7.68622e-05
7.57992e-05
7.53553e-05
7.55051e-05
7.62586e-05
7.77378e-05
7.96067e-05
8.11806e-05
8.2493e-05
8.38782e-05
8.52987e-05
8.67487e-05
8.82215e-05
8.96845e-05
9.10705e-05
9.10723e-05
9.077e-05
0.000111425
0.000144642
0.000198199
0.000259726
0.000280378
0.000325608
0.000322861
0.000316358
0.000297678
0.000287968
0.000279011
0.000267211
0.000259009
0.000251873
0.000244741
0.00023958
0.000235053
0.000231211
0.000228446
0.000226205
0.000224644
0.000223593
0.000223038
0.000222885
0.000223015
0.000224032
0.000230258
0.000246808
0.000140423
0.000304073
0.000410987
0.000480026
0.000541811
0.000411907
8.12497e-05
2.36119e-05
8.7331e-10
8.83048e-10
8.94335e-10
9.07142e-10
9.21235e-10
9.36945e-10
9.53883e-10
9.69017e-10
0.000148708
0.000259446
0.000132343
0.00017099
0.000174976
0.0001815
0.000189442
0.000194569
0.000197519
0.00020014
0.000201117
0.00020029
0.000199133
0.000197561
0.000195528
0.000193647
0.000191919
0.000190386
0.000189147
0.000188275
0.000187828
0.000187714
0.000188261
0.000189514
0.000190648
0.000191016
0.000190969
0.000190649
0.000190099
0.000189332
0.000188382
0.000187254
0.000185557
0.000180906
0.000146696
2.79719e-05
0.000258369
0.000231639
0.000239105
0.000205598
0.000170965
0.00017435
0.000170298
0.000171865
0.000174077
0.000172774
0.000172403
0.000171679
0.000169841
0.000168625
0.000167259
0.000165833
0.000164809
0.000163805
0.000162979
0.000162244
0.00016159
0.000160958
0.000160333
0.000159509
0.000157092
0.000146613
0.000141421
0.000165393
0.000187903
8.50355e-05
0.000283841
0.000365051
0.000149996
4.72586e-05
8.77204e-10
8.86243e-10
8.9677e-10
9.08762e-10
9.22036e-10
9.36769e-10
9.52536e-10
9.66775e-10
0.000264125
0.000682234
0.00077831
0.000788517
0.000791257
0.000793727
0.000796553
0.000798879
0.000800135
0.000800541
0.000800226
0.000799158
0.000797594
0.000795702
0.000793493
0.000791045
0.000788377
0.000785435
0.00078219
0.000778573
0.000774496
0.000769848
0.000764542
0.000758563
0.000751961
0.000744798
0.000737218
0.000729344
0.000721242
0.000712992
0.000704689
0.000696441
0.000688418
0.000680956
0.000666831
0.000640329
0.000595916
0.000528467
0.000459384
0.00049592
0.00045232
0.000446709
0.000446607
0.000449256
0.000453073
0.000455325
0.000456609
0.000457178
0.000456755
0.000455707
0.000454163
0.000452134
0.000449757
0.00044708
0.000444152
0.000441012
0.000437711
0.000434311
0.000430875
0.000427134
0.000419793
0.000391413
0.000348942
0.000308501
0.000244455
0.000189189
0.000218996
0.000317943
0.000242671
4.16385e-05
1.25972e-05
8.89505e-10
8.99294e-10
9.10487e-10
9.2294e-10
9.36717e-10
9.51395e-10
9.64801e-10
0.000820036
0.000864294
0.000810495
0.000807937
0.000807122
0.000806839
0.000807175
0.00080774
0.000807816
0.000807295
0.000806399
0.000805104
0.000803471
0.000800715
0.000797765
0.000794777
0.00079177
0.000788677
0.000785401
0.000781841
0.00077789
0.000773418
0.000768258
0.000762351
0.000755838
0.000748851
0.000741472
0.000733768
0.000725818
0.000717716
0.000709539
0.000701401
0.000693576
0.000687611
0.000683573
0.000676992
0.000661514
0.000630451
0.000580163
0.000848455
0.000799554
0.000780609