/*--------------------------------*- C++ -*----------------------------------*\
| =========                 |                                                 |
| \\      /  F ield         | OpenFOAM: The Open Source CFD Toolbox           |
|  \\    /   O peration     | Version:  2312                                  |
|   \\  /    A nd           | Website:  www.openfoam.com                      |
|    \\/     M anipulation  |                                                 |
\*---------------------------------------------------------------------------*/
FoamFile
{
    version     2.0;
    format      ascii;
    arch        "LSB;label=32;scalar=64";
    class       volSymmTensorField;
    location    "100";
    object      turbulenceProperties:R;
}
// * * * * * * * * * * * * * * * * * * * * * * * * * * * * * * * * * * * * * //

dimensions      [0 2 -2 0 0 0 0];

internalField   nonuniform List<symmTensor> 
10720
(
(0.0593485 0.021303 -2.54998e-20 0.0402618 -3.28694e-19 0.0507935)
(0.0650325 0.0227222 2.07016e-20 0.0403762 3.04345e-19 0.0533544)
(0.0841486 0.0267971 6.67426e-20 0.0455086 2.86024e-19 0.0662528)
(0.101556 0.0283986 4.57495e-19 0.050159 2.89112e-18 0.0775215)
(0.122752 0.0286156 -1.34245e-18 0.0573544 -5.02801e-18 0.0917162)
(0.153637 0.028692 -1.49759e-18 0.0670091 -3.0025e-18 0.112645)
(0.194016 0.0281884 4.4694e-19 0.0792074 2.98453e-20 0.139417)
(0.244641 0.025538 2.4082e-19 0.094496 3.80779e-19 0.172867)
(0.310344 0.0194757 6.34454e-19 0.115193 -5.12488e-19 0.216968)
(0.399535 0.0090614 -1.04877e-19 0.145402 -1.05222e-19 0.277594)
(0.526671 -0.00876659 1.26228e-17 0.191443 5.29555e-18 0.365557)
(0.720323 -0.0394375 -3.15598e-18 0.266095 -2.42364e-18 0.501789)
(1.03454 -0.094416 7.22568e-18 0.394202 -1.08439e-17 0.726152)
(1.55803 -0.197014 4.04767e-18 0.619956 8.8704e-18 1.106)
(2.61483 -0.419931 8.55074e-18 1.09774 -1.51596e-17 1.88397)
(4.79037 -0.927403 2.79594e-18 2.13889 7.29211e-17 3.51375)
(8.95944 -2.0241 5.03691e-16 4.28444 2.5236e-16 6.71374)
(18.6932 -4.81033 -1.5117e-16 9.62403 2.52134e-16 14.3506)
(35.9793 -10.3845 -1.21374e-16 20.0632 -1.59655e-15 28.4002)
(55.3463 -17.6857 1.39354e-16 33.5976 5.90397e-18 45.0532)
(79.4747 -27.8162 -2.54982e-15 52.7449 -1.21313e-15 66.9537)
(116.943 -44.2522 4.66027e-15 84.8173 4.20039e-15 102.059)
(163.438 -65.7659 -1.6231e-15 128.405 -3.15165e-15 147.342)
(227.052 -95.5503 1.18979e-15 190.415 2.50623e-16 210.293)
(310.336 -135.112 -3.26659e-16 274.799 -1.58911e-17 294.118)
(393.994 -176.148 1.25157e-16 364.721 -2.13629e-15 381.747)
(654.348 -299.697 6.03047e-16 632.502 -1.91199e-16 648.206)
(946.854 -444.868 8.25232e-16 965.052 1.4216e-15 958.873)
(614.802 -285.33 1.69612e-14 662.635 4.71919e-16 636.055)
(246.757 -94.6733 8.87524e-15 271.339 4.46642e-15 258.014)
(70.5171 -25.2839 -2.68899e-15 78.7911 -6.50401e-16 74.5001)
(7.56089 -2.19737 -3.94624e-16 8.40883 -1.9204e-16 7.97793)
(1.75334 -0.45053 -2.17857e-17 1.94423 -8.15862e-17 1.84827)
(0.134321 -0.0328693 -9.47596e-18 0.148314 -1.18012e-17 0.141305)
(6.45162e-16 -1.04701e-16 1.64382e-32 6.87317e-16 5.46831e-32 6.67522e-16)
(6.58244e-16 -4.69756e-17 9.50763e-33 6.76633e-16 8.56846e-32 6.65123e-16)
(7.32276e-16 1.41917e-16 -4.40035e-32 6.05049e-16 6.5115e-33 6.62676e-16)
(0.186972 0.0680805 -3.41401e-17 0.154506 -2.76804e-16 0.159882)
(4.30185 1.71288 9.57396e-16 5.19858 -9.89271e-16 4.40328)
(0.0827492 0.0321628 1.77038e-20 0.0621379 -4.74966e-20 0.0730405)
(0.0776599 0.0316936 -1.21686e-19 0.0620294 1.33109e-19 0.0710548)
(0.046151 0.0198897 -4.11541e-19 0.040103 -3.04451e-19 0.0435728)
(0.0315293 0.0168597 5.9528e-19 0.0290888 -7.0752e-19 0.0306452)
(0.0338796 0.0155931 -1.01321e-18 0.0331174 3.33009e-20 0.0336379)
(0.0510016 0.0232287 -8.85481e-18 0.0494112 1.15968e-17 0.0495901)
(0.0603062 0.025582 8.50057e-18 0.0529089 1.23626e-17 0.0542428)
(0.0636416 0.0233612 4.25633e-18 0.0458226 -2.00387e-17 0.0524889)
(0.0723566 0.0220528 6.33813e-18 0.0425578 -6.68988e-19 0.0568316)
(0.0816761 0.0217597 -3.2388e-18 0.0431586 -9.84975e-19 0.062631)
(0.0954631 0.0242518 2.24967e-18 0.0488681 5.38489e-18 0.0726368)
(0.116753 0.0301237 4.01433e-18 0.0603424 -1.95823e-18 0.0891609)
(0.152477 0.0412275 -4.0219e-18 0.0812688 -4.57854e-19 0.117735)
(0.21369 0.0610904 1.23266e-18 0.118545 7.57348e-19 0.167368)
(0.327499 0.0986429 1.3562e-17 0.189339 1.29303e-18 0.26019)
(0.518766 0.163971 1.41281e-17 0.312578 -3.23279e-18 0.418373)
(0.866814 0.285724 6.5396e-18 0.542905 8.53657e-18 0.708996)
(1.2757 0.454861 3.2666e-18 0.809766 9.59862e-18 1.04867)
(1.7645 0.696349 4.68446e-18 1.11813 -2.60753e-18 1.44938)
(2.27562 0.902599 6.98598e-18 1.51815 3.88187e-19 1.90666)
(2.84969 1.10863 -8.12372e-18 2.01236 -4.90498e-17 2.44227)
(3.62095 1.40775 -2.34091e-17 2.67639 -5.69502e-20 3.16263)
(4.80638 1.90434 1.72084e-17 3.69558 2.34939e-17 4.27017)
(6.65405 2.71373 7.63305e-18 5.33484 -2.0877e-19 6.02481)
(9.02708 3.79685 2.95808e-16 7.57079 -4.1509e-17 8.34448)
(11.7701 5.09495 3.77189e-19 10.3243 -9.25034e-18 11.1064)
(11.5945 4.78301 -6.60438e-20 10.7003 -2.43417e-18 11.199)
(7.67948 2.88411 -2.21288e-19 7.40523 6.79845e-21 7.57091)
(3.47976 1.21924 3.34151e-19 3.46899 4.52528e-21 3.48578)
(1.0674 0.361548 8.83489e-18 1.0936 -6.01556e-19 1.0838)
(0.18406 0.0629889 -8.96629e-20 0.193474 -4.47313e-21 0.189334)
(0.0104511 0.0037715 -1.51508e-20 0.0112903 4.22295e-20 0.010904)
(0.0024247 0.000955055 -1.47095e-19 0.0027035 -1.99852e-20 0.00257224)
(0.00083362 0.0003671 -9.97507e-20 0.000964923 2.12466e-20 0.000902248)
(0.000623182 0.000309558 7.93691e-20 0.000753317 3.65277e-21 0.000690623)
(0.0249504 0.0139824 -1.54282e-20 0.0316767 -3.02209e-19 0.0284173)
(0.00037788 0.000233785 -7.71876e-22 0.000506329 7.34884e-21 0.000443526)
(1.02144 0.665463 2.37013e-19 1.43449 -1.10484e-17 1.24237)
(79.1873 41.2903 -1.43605e-14 110.604 -2.22537e-15 95.2323)
(0.0330019 -0.0113021 -1.02483e-19 0.0033743 -3.03217e-19 0.0161387)
(0.0390314 -0.0176835 1.90493e-19 0.00674394 5.32565e-19 0.0198398)
(0.0303072 -0.0145409 2.1412e-20 0.0133273 8.08032e-21 0.019177)
(0.0256259 -0.0115511 2.35441e-19 0.0174509 3.00297e-20 0.0192445)
(0.0223468 -0.00955377 2.22781e-19 0.0192597 1.29901e-18 0.0187036)
(0.0195116 -0.00859812 9.65894e-19 0.0199043 1.73249e-18 0.017536)
(0.0171643 -0.00783398 -4.27479e-19 0.0201401 7.02827e-20 0.0163082)
(0.0151413 -0.00695862 -3.8295e-19 0.0199933 -1.10234e-19 0.0150685)
(0.0136134 -0.00611177 -2.48941e-18 0.0198033 -2.71835e-18 0.0140328)
(0.0125644 -0.00536535 -8.32317e-19 0.0195494 -2.95311e-19 0.0131766)
(0.0119158 -0.00475067 -8.21303e-18 0.0193128 -7.92247e-18 0.0125008)
(0.0116537 -0.00430927 -1.07991e-19 0.0191723 1.3607e-18 0.0120324)
(0.0125863 -0.00438555 -5.11247e-18 0.0204558 8.9373e-20 0.0126041)
(0.017851 -0.00604504 4.98081e-18 0.0279209 2.94595e-18 0.0171277)
(0.0355264 -0.0120564 -2.01261e-17 0.0519342 -5.86008e-18 0.0322558)
(0.0888563 -0.0308373 1.04988e-16 0.11748 2.4847e-17 0.0756885)
(0.231578 -0.082523 -2.30899e-16 0.269228 -1.91986e-16 0.185873)
(0.658947 -0.238044 -5.37145e-16 0.67309 -1.85456e-16 0.508849)
(1.83123 -0.661675 -1.38747e-15 1.6759 5.60796e-16 1.38985)
(4.46794 -1.60594 3.3396e-16 3.77846 2.59532e-18 3.38131)
(8.51214 -3.03042 3.08766e-15 6.85427 2.92008e-15 6.43768)
(17.1647 -5.96973 -6.72702e-15 13.1817 -8.18107e-15 12.8757)
(38.0746 -11.0597 1.15145e-15 30.3873 1.0104e-14 30.1772)
(61.5952 -9.91852 6.81235e-17 56.7461 -1.61547e-15 55.3207)
(97.1758 -7.14297 -0 94.9975 -0 93.0141)
(127.394 -4.13819 -6.90778e-17 129.344 1.5328e-15 124.822)
(269.45 -4.79097 -1.48529e-15 276.102 2.38729e-16 265.569)
(448.655 -4.14567 -1.02944e-16 447.602 -9.67908e-16 445.504)
(349.733 -3.49621 -1.31491e-14 339.611 -5.72842e-15 347.599)
(201.419 -3.71371 -6.98153e-16 187.824 -2.21491e-14 199.127)
(89.8997 -2.48463 9.47817e-16 84.9053 1.3613e-14 88.9881)
(30.4514 -1.2695 2.29084e-16 30.0446 6.14037e-15 30.494)
(7.4053 -0.70454 -1.10679e-15 7.58368 1.02845e-15 7.52038)
(0.606268 -0.149417 2.07783e-16 0.652014 3.46277e-16 0.628251)
(0.0114114 -0.00448359 -1.82071e-19 0.0129027 -2.21348e-18 0.0121558)
(6.44041e-16 -2.14898e-16 1.25433e-31 6.92212e-16 -7.98034e-32 6.63748e-16)
(0.00701443 -0.00046619 9.96046e-20 0.00675263 1.84036e-20 0.00689779)
(0.357852 -0.235156 3.57635e-16 0.56284 2.31355e-15 0.483353)
(5.19663 -2.64352 -3.32064e-16 9.00559 6.64663e-16 7.40822)
(0.00326542 -0.00120317 1.94519e-20 -0.00161017 5.14956e-20 0.000579097)
(0.0186334 -0.00160417 -1.16456e-20 0.00724111 -6.77541e-19 0.0124392)
(0.0243663 -0.000424049 -5.9071e-19 0.00903881 -1.17665e-18 0.0162141)
(0.0446387 0.00278265 3.60953e-19 0.0168154 4.29311e-18 0.0301481)
(0.0519475 0.00775229 3.62785e-18 0.0215631 -3.34804e-18 0.0365361)
(0.0358399 0.00867529 -1.11282e-18 0.0178417 -3.56374e-18 0.0269661)
(0.0194547 0.00638812 -2.55566e-19 0.0121062 -5.61474e-18 0.0160059)
(0.0173121 0.006908 -4.60841e-18 0.0133878 -7.54043e-20 0.0156797)
(0.0161065 0.00752163 -2.49001e-18 0.0160808 5.43604e-18 0.0163729)
(0.0145612 0.00749266 -1.35008e-18 0.0190499 -1.399e-20 0.0168515)
(0.0139981 0.00726457 -8.05724e-19 0.0229123 -4.29998e-18 0.0181188)
(0.0126986 0.00614118 1.1179e-19 0.0243594 -2.2847e-18 0.017785)
(0.0102809 0.00437212 1.7275e-18 0.0218595 4.44662e-18 0.01509)
(0.00734154 0.00266029 -1.59929e-18 0.0165523 -7.88341e-19 0.0109808)
(0.0109305 0.00338101 -1.38916e-18 0.0253058 -4.83279e-18 0.0163145)
(0.0463507 0.0125826 -3.0879e-17 0.10798 -5.40173e-18 0.0681487)
(0.0794568 0.0199034 -8.56442e-18 0.18394 5.36162e-19 0.114314)
(0.122423 0.029875 -8.83625e-19 0.279263 -8.36041e-18 0.171617)
(0.178218 0.0439972 -2.20305e-17 0.399638 1.28663e-17 0.243872)
(0.0521175 0.00230302 1.90963e-18 0.0629858 -6.18963e-19 0.0551485)
(0.0572955 0.00239294 -1.55885e-17 0.0677785 8.86968e-18 0.0600233)
(0.0196015 0.00524585 -6.826e-18 0.0412518 1.28141e-18 0.0248067)
(0.0403232 0.0106852 1.36515e-18 0.0829034 -9.86768e-18 0.0494203)
(0.0291595 0.000254854 1.68155e-18 0.0301314 -1.98517e-20 0.0293297)
(0.0495676 0.000611464 -3.30853e-18 0.0515904 2.95749e-19 0.0498273)
(0.116626 0.00187609 -7.85585e-18 0.121528 8.88084e-19 0.117063)
(0.197463 0.0046918 -7.25666e-20 0.206725 1.15532e-19 0.19807)
(0.206328 0.00645868 1.21812e-21 0.216251 6.37334e-20 0.20694)
(0.15865 0.00597979 -5.309e-21 0.166076 -7.21401e-23 0.159238)
(0.10513 0.00560552 1.33429e-19 0.110927 6.4549e-19 0.105771)
(0.058946 0.00392612 1.42076e-20 0.0624189 -2.78865e-19 0.0594763)
(0.0277799 0.00236236 1.57568e-19 0.0296164 -4.35971e-19 0.0281521)
(0.0111604 0.00122602 4.86972e-18 0.0120253 2.33766e-19 0.0113828)
(0.00384935 0.000557893 1.52167e-18 0.0042183 -5.01966e-19 0.00396411)
(0.000872069 0.000168846 -3.2794e-19 0.000980122 2.35584e-20 0.00091112)
(0.00135693 0.000359332 5.63025e-19 0.00158549 6.99625e-20 0.00144811)
(2.15577e-05 7.88542e-06 -1.82362e-20 2.66202e-05 -2.57397e-21 2.3835e-05)
(0.263068 0.131597 -2.42779e-16 0.367923 -3.05411e-17 0.301347)
(21.5409 3.99231 -1.42617e-14 24.2118 -3.03241e-15 22.6116)
(0.00976507 -0.00214491 -1.08883e-20 0.00424794 -2.65231e-20 0.00725016)
(0.00453417 -0.00191401 -1.95035e-19 0.00125085 -4.15256e-19 0.00311304)
(0.00561034 -0.00244693 1.5925e-19 0.00303533 3.20802e-19 0.0046187)
(0.00479131 -0.00257785 2.15583e-19 0.0034747 3.7648e-19 0.00449864)
(0.0045279 -0.00273223 4.23908e-19 0.00448003 6.07061e-19 0.00495787)
(0.00429236 -0.00277883 -1.42488e-18 0.00569288 -2.35614e-18 0.00556351)
(0.00395556 -0.00262279 1.10294e-18 0.00689448 2.05224e-18 0.00614526)
(0.00363106 -0.00225108 1.59819e-18 0.00804893 1.45313e-18 0.00672006)
(0.00338524 -0.00165805 -1.02551e-19 0.00909513 2.04271e-19 0.00729181)
(0.00330883 -0.000896103 1.25136e-18 0.00997315 2.0802e-18 0.00787238)
(0.00343721 -3.5195e-05 -2.79933e-18 0.0106448 -1.96445e-19 0.00844079)
(0.00377112 0.0008572 4.17316e-18 0.0110866 4.4956e-18 0.00898261)
(0.00441795 0.00173495 2.12451e-18 0.0115989 9.03882e-19 0.00971012)
(0.00461541 0.00236724 1.01276e-18 0.0109334 -9.59872e-19 0.00944194)
(0.00640721 0.00338873 3.54383e-18 0.012885 3.4537e-18 0.0115434)
(-0.00120413 0.00210422 -4.89186e-18 0.00185646 -4.94238e-18 0.00131135)
(0.0332405 0.0173316 9.29898e-18 0.0530216 1.3852e-17 0.0500948)
(0.0890647 0.0466465 2.02267e-16 0.130906 5.78109e-17 0.126359)
(0.247513 0.128579 1.64957e-16 0.334715 1.1973e-16 0.331328)
(0.634999 0.322797 -1.34082e-16 0.781602 -8.34141e-18 0.800805)
(1.32163 0.639727 3.27452e-16 1.42885 -7.34921e-16 1.56078)
(0.343164 0.14822 1.30003e-17 0.300826 1.41054e-16 0.369577)
(6.95432 1.66915 9.1149e-15 3.45765 -1.7077e-15 5.99747)
(26.6894 -1.05905 -1.5166e-14 12.9485 -4.27668e-15 20.8496)
(51.8009 -3.6354 3.13135e-16 33.7722 1.22914e-16 43.8809)
(69.8228 -5.21459 -1.90221e-14 53.3712 2.88746e-15 62.2438)
(134.118 -3.24652 1.8041e-15 124.31 2.07746e-16 129.762)
(205.858 -2.07033 -4.375e-16 201.117 4.16198e-18 203.542)
(164.128 -1.18451 -6.24363e-15 162.515 3.50788e-15 162.964)
(108.698 -0.710272 -7.10256e-15 107.853 2.72159e-16 107.938)
(59.8532 -0.360566 1.20468e-14 59.1982 -3.3339e-15 59.2734)
(27.7165 0.0706788 6.41168e-15 27.2848 2.50284e-15 27.3406)
(9.39167 0.155925 2.21566e-16 9.25405 1.26744e-15 9.30052)
(1.65722 0.0160656 3.17027e-16 1.63446 -1.60449e-16 1.64512)
(0.137138 -0.0126838 2.03762e-17 0.13941 -6.05303e-18 0.138374)
(0.00296011 -0.000748573 -6.33646e-19 0.00311469 -6.5756e-19 0.00301341)
(0.0034752 -0.00170286 4.92677e-20 0.0043084 -6.33208e-19 0.00389306)
(0.207658 -0.103362 -4.1274e-17 0.288407 -3.60148e-16 0.259319)
(8.02736 -4.26466 -3.80331e-15 12.9327 3.80052e-15 10.8891)
(0.0198795 -0.00291696 -1.18348e-19 0.00797279 -2.52762e-19 0.0143343)
(0.0511875 -0.00431274 -2.11513e-19 0.0193368 6.15092e-20 0.0360382)
(0.0557843 -0.000815217 2.7167e-18 0.0202805 3.52997e-18 0.0386542)
(0.039636 0.00232818 -1.26306e-18 0.0147174 -1.32336e-19 0.0274318)
(0.0147862 0.00208112 9.13826e-20 0.00577717 3.77881e-19 0.0103257)
(0.00241452 0.00145977 -1.88402e-20 -0.00110341 8.63437e-19 0.000654612)
(0.00345986 0.00191864 -1.44994e-20 0.000759933 6.51249e-19 0.00211504)
(0.00282112 0.00217497 2.47563e-18 0.00125248 1.42476e-18 0.00205197)
(0.00238653 0.00234952 5.24775e-19 0.00201808 -4.74529e-19 0.00221073)
(0.00204186 0.00241513 1.48122e-18 0.00290901 1.71826e-19 0.00248753)
(0.000102371 0.00218588 -1.65144e-18 0.00199632 -7.40727e-19 0.00108286)
(0.00122441 0.00218371 -1.41411e-18 0.00430963 2.07233e-18 0.00284985)
(0.00180175 0.0020789 2.6824e-18 0.00610684 -1.2582e-18 0.00412507)
(0.00186365 0.00180202 2.11191e-18 0.00718471 -1.14172e-20 0.00482921)
(0.00160086 0.00140465 -2.73275e-18 0.00762899 2.12467e-18 0.00508761)
(0.00226854 0.00104094 -2.29456e-18 0.00938251 4.81237e-18 0.00657665)
(0.000763826 0.000473724 7.27288e-18 0.00747584 -3.78014e-18 0.00503765)
(9.72008e-05 -4.38701e-06 7.31472e-18 0.0067896 -1.37576e-18 0.00460298)
(6.2636e-05 -4.72669e-05 3.4265e-19 0.000760668 -3.89677e-20 0.000556073)
(0.00518731 -0.0014188 -2.00363e-18 0.0151524 6.13696e-18 0.012665)
(0.00621876 -0.00232232 3.54224e-17 0.0163165 1.73749e-18 0.0142827)
(0.00308039 -0.00166004 6.001e-19 0.00793322 -2.75722e-18 0.00723498)
(0.00739352 -0.003849 -1.0243e-19 0.0148053 -3.12145e-19 0.0144592)
(0.00483079 -0.00230598 -3.0556e-19 0.00735281 -1.49624e-18 0.00793138)
(0.00925941 -0.00437491 -1.60872e-19 0.0107444 1.46366e-18 0.0136438)
(0.0246602 -0.00882498 1.21082e-16 0.0218812 -7.14558e-18 0.0314963)
(0.0455403 -0.0136457 -1.84526e-18 0.0336255 1.21186e-19 0.0538478)
(0.050614 -0.0114607 -2.1373e-17 0.0343186 1.15859e-19 0.0560807)
(0.0405902 -0.00738874 -1.9138e-19 0.0269518 1.67921e-20 0.0429199)
(0.0283918 -0.00548589 -1.68769e-17 0.0176994 -5.69027e-19 0.029153)
(0.0169156 -0.00386424 1.79364e-17 0.0100958 1.83102e-18 0.0169108)
(0.000856817 -0.000203474 -3.25101e-20 0.000550942 -6.77611e-22 0.000837561)
(0.00247664 -0.000643199 -6.24626e-18 0.00165418 8.30846e-19 0.00237736)
(0.0038076 -0.00109099 -2.20234e-20 0.00259199 1.08467e-18 0.00359288)
(0.00442278 -0.00139154 1.79024e-19 0.00304976 -1.64303e-18 0.00411062)
(0.00914589 -0.00314849 -1.25821e-18 0.00618525 4.43222e-18 0.00831962)
(0.000156478 -5.74848e-05 5.35292e-20 0.000111079 -1.76316e-19 0.000139873)
(0.152524 -0.0441817 6.61832e-16 0.0845043 1.01049e-16 0.129043)
(8.60887 3.13396 8.40319e-14 8.26841 1.68419e-14 8.66529)
(0.0387671 -0.00797034 -2.4214e-19 0.0177918 -3.85835e-19 0.0279072)
(0.0379909 -0.00983868 -4.81702e-19 0.0197286 -8.04983e-19 0.0284322)
(0.036223 -0.0115091 9.90048e-19 0.0220502 1.33679e-18 0.0285674)
(0.0330454 -0.0123754 1.14585e-18 0.0239047 1.3315e-18 0.0277906)
(0.0309612 -0.0131644 1.49318e-19 0.0267652 -3.61242e-20 0.0280126)
(0.0287487 -0.0134739 -3.90614e-19 0.0298804 1.07504e-18 0.0282478)
(0.0264629 -0.0132042 1.07814e-17 0.0328711 1.07675e-17 0.0283567)
(0.0243123 -0.0124259 -1.0665e-17 0.0355994 -1.36181e-17 0.0283688)
(0.0224156 -0.0112271 2.77297e-18 0.0380569 7.26544e-19 0.0283153)
(0.0208799 -0.00974325 1.57339e-17 0.0401331 1.1625e-17 0.0282223)
(0.019718 -0.00807065 1.35708e-17 0.0418046 1.34615e-17 0.0280626)
(0.0189182 -0.00630679 1.5795e-17 0.0430578 4.81569e-18 0.0278309)
(0.0184877 -0.00455631 -1.90767e-17 0.0439692 -1.43075e-17 0.0275668)
(0.0184217 -0.00287446 -1.35557e-17 0.0447126 -1.30539e-17 0.0273654)
(0.0185952 -0.00128455 1.51592e-18 0.0451358 -4.82503e-18 0.0271044)
(0.0190741 0.000227745 -4.07291e-17 0.0455152 2.63773e-18 0.0269241)
(0.0189085 0.00184981 -1.27973e-17 0.0438213 -1.58582e-17 0.025666)
(0.0157208 0.0030279 -6.95023e-17 0.0351855 -5.34838e-17 0.0203979)
(0.000220532 0.00236873 4.30511e-18 0.00896035 -5.8367e-18 0.0020016)
(0.000341601 0.00349167 2.28765e-18 0.00803915 -5.39061e-18 0.00155034)
(2.28596e-16 9.42474e-16 -5.75408e-30 1.44621e-15 7.1228e-32 3.25191e-16)
(0.0612701 0.0280891 2.76289e-17 0.0787184 5.57135e-18 0.0601394)
(1.4943 0.618423 -2.9533e-15 1.28012 -3.25731e-16 1.3074)
(6.92414 1.47736 -4.47594e-15 3.22139 2.78958e-15 5.14224)
(35.0576 1.31931 4.2817e-15 13.0508 2.77283e-16 23.4844)
(0.0151377 -1.32235e-08 5.52122e-23 0.0151376 1.14533e-23 0.0151376)
(0.00062209 -4.2361e-11 -5.31781e-27 0.00062209 7.91714e-27 0.00062209)
(0.00102384 -1.34279e-10 2.73599e-26 0.00102384 2.09522e-27 0.00102384)
(0.00126699 -4.88772e-10 1.19289e-24 0.00126698 -2.59351e-25 0.00126699)
(0.00254675 -4.10813e-09 -9.24662e-25 0.00254674 4.0305e-24 0.00254675)
(0.0138214 -2.40392e-07 -8.23806e-22 0.0138212 -4.43284e-22 0.0138213)
(0.260834 -0.000205942 1.50487e-18 0.260697 -1.3177e-18 0.260771)
(1.56954 -0.0373068 2.98601e-16 1.53612 -2.52676e-17 1.55427)
(1.36758 0.0289291 -1.08529e-16 1.33088 -5.64775e-16 1.35056)
(0.471861 -0.000513549 -1.66207e-16 0.461998 -2.81766e-17 0.467919)
(0.0132554 -0.00345877 2.93323e-19 0.0135853 2.56413e-18 0.0133497)
(0.0117956 -0.0155662 -8.43543e-18 0.0202263 3.97157e-19 0.0161038)
(0.136576 -0.187274 -7.93616e-17 0.245923 -2.45014e-16 0.208522)
(7.6727 -4.02191 2.47026e-15 10.3767 -1.40552e-15 9.48782)
(0.0557048 -0.00826096 -1.62244e-19 0.0230804 -2.18902e-20 0.0390697)
(0.0407506 -0.00380708 4.05456e-19 0.0156281 2.12737e-18 0.0279923)
(0.0160428 -0.000506412 6.15348e-19 0.0044191 1.17073e-18 0.0102024)
(0.00914466 0.000621739 6.52746e-19 0.000138557 -3.34637e-19 0.00463868)
(0.00649751 0.00158037 -1.25719e-18 -0.00146874 -9.03233e-19 0.00252342)
(0.00584125 0.00253354 -2.47973e-19 -0.00110901 -1.46527e-18 0.00236194)
(0.0051509 0.00335595 -2.20972e-18 -0.00031661 -1.74828e-18 0.00241412)
(0.00428188 0.00397533 -3.04698e-18 0.000671241 5.43757e-20 0.00248822)
(0.00327192 0.00434503 -6.86799e-19 0.00177056 -5.85653e-19 0.00254442)
(0.00221501 0.00444602 1.38743e-18 0.0029023 -9.13497e-19 0.00258766)
(0.00135564 0.00431608 1.27834e-18 0.00412248 2.92859e-18 0.00276107)
(0.000726941 0.00400984 3.53585e-18 0.00535527 -1.39797e-18 0.00303645)
(0.000187085 0.00357601 -3.52595e-18 0.00640572 -3.03648e-18 0.00324465)
(-0.000281499 0.0030719 -3.76046e-19 0.00724466 1.38246e-18 0.00336191)
(-0.000671477 0.00255528 4.88785e-18 0.00789004 -1.18701e-18 0.00339487)
(-0.000733708 0.00207529 1.13336e-17 0.00870734 -1.12446e-18 0.00365596)
(-0.000150772 0.000136149 -7.58154e-19 0.000696491 -1.2071e-19 0.000233715)
(-0.000249648 0.000212818 -4.31154e-19 0.00160887 -6.15446e-19 0.000572751)
(-0.000224354 0.000199077 -3.0009e-19 0.00240524 1.7518e-19 0.000909877)
(-9.55197e-05 0.000123158 5.38767e-18 0.00297113 -1.84432e-18 0.00119587)
(8.3092e-05 1.41899e-05 9.32846e-19 0.00331403 -1.20939e-18 0.00141044)
(0.000347322 -0.000143559 -8.0746e-18 0.00431347 2.02396e-18 0.00193824)
(0.000753108 -0.000402598 -3.25087e-19 0.00538796 1.07981e-18 0.00256328)
(0.0011407 -0.000633987 -1.25543e-19 0.00534542 -6.57821e-19 0.0027237)
(0.00154977 -0.000776593 6.98918e-20 0.00516205 -5.95051e-21 0.00281461)
(0.00204504 -0.00086907 -8.74518e-18 0.00534076 -3.65066e-19 0.0030574)
(0.0025088 -0.000900704 -5.08009e-20 0.0055196 7.69674e-21 0.00328173)
(0.00288601 -0.00087242 2.03909e-18 0.0055607 -7.30319e-20 0.0034329)
(0.00316673 -0.000796757 -9.09736e-20 0.00546304 -1.24649e-21 0.00351374)
(0.00338436 -0.000703542 3.80572e-21 0.00534184 -3.4678e-19 0.00357244)
(0.00345797 -0.00060487 -5.70727e-18 0.00507092 2.43002e-19 0.00352265)
(0.00351939 -0.000543441 -1.13735e-19 0.00485239 -6.71373e-21 0.00349167)
(0.0036249 -0.000539479 1.93358e-19 0.00472001 -5.27988e-19 0.00352319)
(0.00391412 -0.000638934 1.70015e-17 0.00479664 2.94918e-18 0.00373135)
(0.00358899 -0.000713095 -6.69793e-20 0.00409695 -9.46719e-21 0.00335494)
(0.00790902 -0.00220628 -5.15108e-17 0.00815721 -2.94463e-18 0.00712267)
(0.000152097 -5.5399e-05 3.59816e-18 0.000136232 5.05363e-19 0.000131121)
(0.100027 -0.036466 -4.21813e-18 0.0725888 5.43956e-18 0.0810371)
(7.17206 2.13882 7.83892e-16 4.21451 -4.36484e-15 5.45789)
(0.0434636 -0.00921378 -3.94938e-19 0.0194007 -5.06128e-19 0.0315956)
(0.0368357 -0.0100436 -7.00495e-19 0.0184184 -9.59354e-19 0.0278544)
(0.0336384 -0.0113577 2.3416e-18 0.0198223 2.9774e-18 0.0269832)
(0.0301854 -0.0121963 -9.72458e-18 0.0213951 -1.23732e-17 0.0261201)
(0.0266423 -0.0125063 2.40317e-18 0.0230454 3.15878e-18 0.0252593)
(0.023198 -0.0123602 5.2363e-18 0.0249006 5.35581e-18 0.024549)
(0.0200214 -0.011732 -4.7081e-18 0.0268456 -7.04315e-18 0.0240559)
(0.0171777 -0.0106347 -2.70701e-18 0.0287562 3.76371e-19 0.0237392)
(0.0147329 -0.00909456 -2.01177e-17 0.0305802 -1.84894e-17 0.0236038)
(0.0127809 -0.00716794 -3.45084e-18 0.0322185 -7.85325e-18 0.023673)
(0.0113697 -0.00490376 5.87204e-19 0.0335801 -1.92506e-18 0.0239127)
(0.010562 -0.00237661 -1.27594e-17 0.0345947 -1.54219e-17 0.0243275)
(0.010234 0.000314454 6.58126e-18 0.0348506 7.56493e-18 0.0246391)
(0.0107813 0.0030419 -2.88605e-17 0.0350642 -1.47503e-17 0.025421)
(0.0123896 0.00578101 6.59408e-18 0.035577 3.67062e-18 0.0269413)
(0.0141817 0.00827335 3.27667e-17 0.034812 2.66598e-17 0.0278685)
(0.0162769 0.0103559 -4.74097e-17 0.0336292 -1.32384e-17 0.0285903)
(0.0189662 0.0121648 -9.47712e-18 0.0328971 4.22717e-17 0.029722)
(0.0209915 0.0133637 -3.46018e-18 0.0308631 -5.72835e-18 0.0296736)
(0.0136349 0.0116095 -3.57465e-17 0.0181659 -5.24328e-18 0.0188663)
(0.00251552 0.00698431 2.37716e-17 0.00299281 1.43518e-17 0.00438311)
(0.00176959 0.0031534 3.24647e-19 0.00112471 -5.78652e-19 0.00210383)
(7.8388e-16 1.18612e-15 3.76173e-30 4.49533e-16 8.17944e-31 7.66587e-16)
(1.88743 0.752454 2.42229e-15 1.45783 5.50503e-16 1.70852)
(17.8289 3.9889 -2.76307e-15 8.49555 -1.41963e-16 13.2918)
(0.00572 -1.27566e-09 6.8993e-25 0.00571998 4.17324e-24 0.00571999)
(0.00037935 -1.6838e-15 1.57566e-30 0.00037935 -3.99166e-31 0.00037935)
(0.000222476 -3.82898e-15 -9.86611e-31 0.000222476 -1.39523e-30 0.000222476)
(0.000279136 -1.78852e-14 -4.73992e-29 0.000279136 -5.34398e-31 0.000279136)
(0.000568301 -1.57085e-13 3.16013e-29 0.000568301 1.78841e-30 0.000568301)
(0.00312083 -4.48214e-12 -1.44175e-27 0.00312083 5.10613e-28 0.00312083)
(0.0595251 -9.37967e-10 -4.43076e-24 0.0595251 -3.27495e-24 0.0595251)
(0.358162 -0.000154754 -6.22026e-20 0.358121 -2.40127e-19 0.358144)
(7.26128e-06 -4.04283e-12 -6.6555e-26 7.26128e-06 4.65725e-27 7.26128e-06)
(0.231427 0.0051215 2.78915e-17 0.223873 7.91297e-17 0.228196)
(0.136843 -0.0181719 6.33022e-20 0.131024 -1.16843e-20 0.133849)
(0.0550862 -0.0523013 -9.16808e-18 0.0837465 6.75021e-17 0.070189)
(0.052972 -0.0614566 1.09692e-17 0.0871978 5.18104e-17 0.0731856)
(3.98372 -2.02881 -3.42464e-15 4.87094 5.30998e-16 4.57968)
(0.0217875 -0.00416493 4.61319e-19 0.00558733 1.71431e-19 0.0137928)
(0.0122827 -0.00227669 -1.12065e-18 -0.00226631 -1.56929e-18 0.00505099)
(0.0100879 -0.000787185 -8.01097e-19 -0.00494378 1.21631e-18 0.00261884)
(0.0043061 0.000411816 1.58791e-18 -0.00315033 7.40014e-19 0.000588761)
(0.0180854 0.00278688 -1.07975e-18 0.00230807 -6.28963e-18 0.010206)
(0.0262444 0.00561437 -3.11601e-18 0.00911497 3.27428e-18 0.0176527)
(0.0252769 0.00769734 8.1209e-18 0.0111287 6.1663e-18 0.0181809)
(0.0234052 0.00932108 -3.27636e-18 0.0133679 -7.0332e-18 0.0183883)
(0.0210381 0.0103596 -7.4698e-18 0.015811 -2.8671e-18 0.0184365)
(0.0184296 0.0107547 -6.25417e-18 0.0182486 2.53965e-18 0.0183554)
(0.0158798 0.0105729 8.49475e-18 0.0205127 -2.45015e-19 0.018216)
(0.0135842 0.00995137 -6.27222e-18 0.0225128 -4.01505e-18 0.0180765)
(0.0115968 0.00902724 -7.86122e-18 0.0241994 5.70701e-18 0.0179496)
(0.00992849 0.00791945 8.8221e-18 0.0255906 3.01513e-18 0.0178563)
(0.00853762 0.00672367 -1.67004e-17 0.0266675 3.27669e-18 0.0177692)
(0.00747821 0.0055182 -3.41243e-18 0.0276476 -1.1665e-17 0.0178372)
(0.00664023 0.00431827 5.49084e-18 0.0284971 7.00439e-18 0.0179951)
(0.00576489 0.00309817 -2.97801e-17 0.0289358 2.3094e-18 0.0179743)
(0.0049099 0.00184437 1.37369e-17 0.0291531 -6.87771e-19 0.0178905)
(0.00420138 0.000493757 -6.30655e-17 0.0291896 6.04479e-18 0.0178187)
(0.00415402 -0.000957718 -7.23947e-18 0.028504 2.02088e-18 0.0176745)
(0.00569921 -0.00221853 5.4095e-17 0.026406 1.5807e-18 0.0174379)
(0.00712717 -0.00333054 4.89494e-17 0.02448 -9.63558e-18 0.0171864)
(0.0086037 -0.00422918 -4.09843e-17 0.0223728 3.2698e-18 0.0168697)
(0.0101505 -0.00469181 -4.86453e-19 0.0201532 1.97049e-19 0.016556)
(0.011552 -0.00469102 -3.65665e-17 0.018132 6.01605e-18 0.0162672)
(0.0126701 -0.00443122 -3.23618e-19 0.0163461 1.09615e-20 0.0160093)
(0.0134996 -0.00405219 2.37161e-21 0.0147981 1.24111e-19 0.0157566)
(0.0140665 -0.00361015 7.66608e-20 0.0134958 -9.52165e-21 0.0154722)
(0.0153988 -0.00335486 1.27819e-17 0.0132832 7.65576e-19 0.0161979)
(0.0154742 -0.00284874 -3.24995e-22 0.0123222 -1.60386e-18 0.0157472)
(0.0139193 -0.00215202 -5.98755e-19 0.0104908 -8.72154e-20 0.0138221)
(0.0133588 -0.00171292 -6.36608e-17 0.00971659 -8.98904e-18 0.0130333)
(0.012776 -0.00134896 -5.50238e-17 0.00911084 -3.90033e-18 0.0123013)
(0.0113208 -0.000980725 -6.6711e-20 0.00802958 5.2724e-20 0.0108003)
(0.012254 -0.00100163 -8.77053e-17 0.00863889 -2.26284e-17 0.0115137)
(0.00170116 -0.000128804 -5.82607e-19 0.00116201 4.18846e-18 0.00157147)
(0.0830436 -0.00835749 8.69907e-19 0.0455797 1.30532e-19 0.0707826)
(5.63517 1.35336 -1.11217e-13 2.8202 -1.75083e-14 4.15153)
(0.0133043 -0.00689852 7.86253e-19 -0.00457561 8.04601e-19 0.00430631)
(0.0145016 -0.00844018 -5.80917e-19 -0.00112192 -5.6756e-19 0.0066376)
(0.0110839 -0.00978837 -1.79635e-20 -0.00119315 -6.4756e-20 0.00485718)
(0.00812906 -0.0108616 -1.78154e-19 -0.00028263 1.01799e-19 0.00381629)
(0.00523532 -0.0115872 7.53818e-18 0.0010509 7.71025e-18 0.00301212)
(0.00233257 -0.0118836 -4.96735e-18 0.00278105 -5.85477e-18 0.00237513)
(-0.000155687 -0.0104747 -2.74234e-19 0.0044438 1.11142e-18 0.00193615)
(-0.00172569 -0.00828175 1.34213e-17 0.00549176 1.24482e-17 0.00166116)
(-0.00282886 -0.00667603 -2.56923e-18 0.00638967 2.66867e-19 0.00152345)
(-0.00375389 -0.00549473 -1.41346e-17 0.00740016 -9.37392e-18 0.00151136)
(-0.00464519 -0.00449364 4.71618e-18 0.00864681 3.84875e-18 0.00159953)
(-0.00554599 -0.00347715 -1.40864e-17 0.0101796 -4.62283e-18 0.00177976)
(-0.00639642 -0.00228958 -6.18817e-18 0.0119451 -2.36357e-18 0.00204561)
(-0.00701969 -0.000827009 -1.21843e-17 0.0137319 6.41641e-18 0.00236776)
(-0.0074409 0.000920178 1.23603e-18 0.0157458 6.84446e-19 0.00279915)
(-0.00755465 0.00301593 1.34646e-17 0.0180246 2.96875e-18 0.00337429)
(-0.00673599 0.005215 2.21938e-17 0.0193552 3.15374e-17 0.00391834)
(-0.00517471 0.00764259 9.72663e-17 0.0204968 2.60266e-17 0.00475063)
(-0.00206426 0.0101595 -4.54048e-17 0.0216202 -1.79086e-18 0.00642983)
(0.0016152 0.0128362 4.95219e-17 0.0220442 2.15636e-17 0.00808023)
(0.00584072 0.0149441 8.59896e-18 0.0207165 -2.56222e-17 0.00935721)
(0.007237 0.00990382 -6.29986e-18 0.0122428 1.1499e-17 0.00725552)
(0.000554409 0.000497577 -2.14082e-18 0.000574166 -1.17301e-18 0.000453098)
(0.357302 0.145317 1.86725e-17 0.29516 2.54721e-17 0.311168)
(7.86003 2.46225 1.1216e-15 4.67843 -1.49405e-16 6.39009)
(0.0031445 6.53191e-09 2.17084e-23 0.00314449 -6.08927e-24 0.0031445)
(0.000140847 8.60173e-16 -1.57774e-30 0.000140847 -5.62254e-31 0.000140847)
(6.66667e-16 1.07983e-27 -7.36378e-42 6.66667e-16 -4.03557e-43 6.66667e-16)
(6.66667e-16 -3.77824e-27 6.50047e-41 6.66667e-16 2.81849e-41 6.66667e-16)
(6.66667e-16 -2.37332e-26 -2.31706e-41 6.66667e-16 -9.55978e-41 6.66667e-16)
(6.66667e-16 -1.21218e-25 -8.23975e-40 6.66667e-16 3.03314e-40 6.66667e-16)
(6.66667e-16 -6.94572e-25 -4.49032e-39 6.66667e-16 4.32678e-39 6.66667e-16)
(6.66667e-16 -4.60375e-24 3.70223e-40 6.66667e-16 -6.85763e-39 6.66667e-16)
(1.68552e-06 -5.90547e-14 2.20886e-29 1.68552e-06 2.34161e-28 1.68552e-06)
(1.79596e-07 -8.66491e-15 8.02643e-29 1.79596e-07 -2.04131e-29 1.79596e-07)
(1.96359e-06 -1.427e-13 -6.58948e-30 1.96359e-06 -1.83996e-27 1.96359e-06)
(1.25951e-05 -2.62155e-10 2.02201e-24 1.25952e-05 -3.85893e-25 1.25951e-05)
(2.26847e-07 -2.0196e-11 -2.97873e-27 2.26854e-07 7.38804e-28 2.26851e-07)
(1.07774 -0.000947891 1.94166e-18 1.07794 -6.72394e-19 1.07788)
(0.0126472 -0.00525612 -5.90321e-19 -0.00724819 -5.21219e-19 0.00269225)
(0.0145636 -0.00372102 1.94281e-18 -0.0078535 8.93882e-19 0.0033301)