/*--------------------------------*- C++ -*----------------------------------*\
| =========                 |                                                 |
| \\      /  F ield         | OpenFOAM: The Open Source CFD Toolbox           |
|  \\    /   O peration     | Version:  2312                                  |
|   \\  /    A nd           | Website:  www.openfoam.com                      |
|    \\/     M anipulation  |                                                 |
\*---------------------------------------------------------------------------*/
FoamFile
{
    version     2.0;
    format      ascii;
    arch        "LSB;label=32;scalar=64";
    class       volVectorField;
    location    "100";
    object      U;
}
// * * * * * * * * * * * * * * * * * * * * * * * * * * * * * * * * * * * * * //

dimensions      [0 1 -1 0 0 0 0];

internalField   nonuniform List<vector> 
10720
(
(0.696721 24.6844 1.95987e-18)
(2.23719 26.9866 -1.7851e-18)
(4.20856 29.2304 0)
(6.5101 31.0376 -3.01759e-16)
(9.08347 32.4754 3.37367e-16)
(11.8658 33.4949 2.62927e-16)
(14.7104 33.9976 3.85327e-16)
(17.5238 34.0106 0)
(20.2234 33.5886 0)
(22.7279 32.7659 0)
(24.9994 31.6172 1.12873e-16)
(27.0153 30.2286 0)
(28.7398 28.6253 2.246e-15)
(30.1412 26.8165 0)
(31.1907 24.8172 0)
(31.8877 22.666 0)
(32.2206 20.3788 -4.01943e-15)
(32.2316 18.006 -6.14897e-15)
(32.0245 15.5456 5.53723e-15)
(31.828 13.0474 0)
(31.8597 10.655 4.37041e-15)
(32.5179 8.32091 -7.67129e-15)
(33.7277 6.05213 3.14388e-15)
(34.5328 4.26458 -8.04185e-17)
(34.7603 2.92744 0)
(34.4905 2.19706 8.23648e-16)
(33.891 1.47921 8.81187e-18)
(32.8527 -0.0423974 -2.00823e-16)
(31.6892 -1.966 -8.11863e-16)
(30.6054 -2.7292 -3.17722e-15)
(29.27 -2.86083 1.97288e-15)
(27.0962 -2.90578 5.67589e-15)
(23.5197 -2.62377 5.65188e-15)
(16.6636 -1.85106 2.15386e-14)
(5.47361 -0.523405 -1.29055e-14)
(0.720526 -0.341034 -7.02566e-16)
(-6.85486 1.18348 2.32611e-16)
(-11.9386 0.795933 8.55237e-14)
(-4.78584 -0.442681 2.40875e-15)
(-0.481685 22.2532 -7.5909e-18)
(-1.38676 19.5435 -2.88671e-17)
(-1.94351 16.5151 9.42707e-17)
(-2.03679 13.0463 -2.52613e-16)
(-1.50779 9.47473 -8.35351e-16)
(-0.363073 6.00034 1.49413e-15)
(1.20454 3.00012 9.32102e-15)
(2.90777 0.532711 3.21703e-15)
(4.96104 -1.78279 0)
(7.26697 -3.65399 0)
(9.51169 -4.93019 1.65276e-15)
(11.543 -5.69979 6.13204e-16)
(13.3355 -6.09983 -1.04118e-15)
(14.8932 -6.24116 8.60491e-16)
(16.2382 -6.21679 1.42469e-15)
(17.4076 -6.09128 9.1961e-16)
(18.4375 -5.90289 1.15423e-15)
(19.36 -5.68121 7.59892e-16)
(20.2086 -5.43338 0)
(20.999 -5.17921 0)
(21.7532 -4.90886 -9.81792e-16)
(22.4844 -4.60323 -4.08734e-17)
(23.1899 -4.25704 5.75382e-16)
(23.8382 -3.84253 -3.35511e-16)
(24.3574 -3.35775 2.85723e-17)
(24.7302 -2.81402 0)
(24.9776 -2.21474 -2.52475e-17)
(25.1175 -1.61426 0)
(25.0956 -1.05599 0)
(24.8806 -0.547091 -1.09654e-16)
(24.4656 -0.079504 0)
(23.8485 0.351545 5.65507e-16)
(23.0296 0.744617 1.07242e-15)
(22.0056 1.09143 5.32585e-15)
(20.7416 1.38477 -1.92218e-15)
(19.2256 1.59787 7.48264e-18)
(17.3657 1.86683 0)
(15.9102 1.34767 -8.30785e-16)
(19.7263 3.40812 8.64719e-16)
(6.89804 21.414 -1.5494e-17)
(8.58799 23.1506 8.13553e-18)
(10.6776 24.7542 0)
(13.1132 26.1201 0)
(15.7681 27.1837 -9.88689e-17)
(18.6451 27.8852 -2.52087e-16)
(21.6377 28.1744 0)
(24.6214 28.0641 0)
(27.5421 27.56 5.8477e-16)
(30.3161 26.7051 0)
(32.8914 25.553 2.24635e-15)
(35.2411 24.1471 0)
(37.3557 22.564 8.25946e-16)
(39.2563 20.8872 -8.1097e-16)
(40.9625 19.1418 1.65717e-15)
(42.4525 17.3456 -3.33398e-15)
(43.6928 15.5101 3.5764e-15)
(44.6301 13.6406 3.25856e-15)
(45.1771 11.7166 3.1698e-15)
(45.1603 9.74073 1.89765e-16)
(44.4664 7.69532 -3.21346e-15)
(42.7836 5.79238 2.76376e-15)
(40.155 4.34085 -1.22791e-16)
(37.9863 3.17436 0)
(36.5755 2.1276 0)
(35.5755 1.15458 0)
(34.6007 0.277985 3.59153e-17)
(33.4964 -0.43364 -7.67286e-18)
(32.3224 -0.981734 5.64902e-16)
(31.1815 -1.56978 -2.07596e-17)
(30.0814 -2.12211 4.81462e-18)
(29.143 -2.54384 -3.9122e-17)
(28.5056 -2.84836 3.79084e-15)
(27.2128 -2.76967 -5.68113e-15)
(19.8669 -1.84792 -3.05601e-17)
(8.06992 -0.711783 -1.53546e-14)
(-10.7146 2.22936 0)
(-3.2721 -0.232411 -2.58697e-14)
(-1.5843 -1.18744 6.30209e-16)
(5.50355 19.5816 2.13574e-17)
(4.32121 17.5651 -7.23118e-17)
(3.33739 15.2205 -8.08949e-16)
(2.65093 12.5776 1.01592e-15)
(2.44649 9.73139 0)
(2.80671 6.85211 -2.12882e-15)
(3.71712 4.1581 -1.55012e-15)
(4.99248 1.70392 -8.9411e-15)
(6.58022 -0.439676 2.17095e-15)
(8.4209 -2.08293 -1.6079e-15)
(10.3234 -3.20189 2.04002e-15)
(12.1471 -3.89648 -5.7995e-16)
(13.8349 -4.27627 0)
(15.3625 -4.42736 -3.75364e-16)
(16.7235 -4.43256 6.40999e-17)
(17.9376 -4.34151 -8.17598e-16)
(19.0243 -4.19909 0)
(20.0105 -4.02341 0)
(20.9156 -3.83611 -8.02812e-17)
(21.7713 -3.61559 7.84248e-17)
(22.5931 -3.36551 -8.92288e-16)
(23.388 -3.06988 -9.08649e-17)
(24.1583 -2.70165 3.90039e-17)
(24.8789 -2.2217 3.66912e-16)
(25.499 -1.63258 -1.82642e-16)
(25.9903 -1.01407 -9.26839e-17)
(26.3714 -0.410879 0)
(26.6552 0.173421 0)
(26.8986 0.743296 0)
(27.1267 1.29801 9.60861e-18)
(27.3438 1.82629 0)
(27.5437 2.31842 0)
(27.7099 2.76809 -1.65222e-15)
(27.8285 3.17081 -1.56109e-15)
(27.8663 3.52174 1.34942e-15)
(27.8264 3.84251 -1.01181e-15)
(27.4316 4.0632 1.40383e-15)
(27.4566 4.81917 1.74435e-16)
(23.7069 4.41034 -5.50337e-16)
(8.39551 19.7549 -3.89517e-18)
(9.5922 21.2823 -2.8886e-17)
(11.0708 22.7864 1.96529e-17)
(12.7913 24.1921 -1.32397e-17)
(14.7101 25.3872 -1.21138e-16)
(16.8262 26.3485 4.54612e-16)
(19.0704 27.033 -3.2625e-16)
(21.3726 27.401 -4.13285e-16)
(23.6781 27.4496 1.23092e-17)
(25.9301 27.1865 -5.69875e-16)
(28.0761 26.6298 5.47717e-16)
(30.0819 25.8079 -1.44382e-15)
(31.9173 24.7498 -6.9741e-16)
(33.5665 23.4776 0)
(35.0114 22.0222 -1.71619e-15)
(36.2579 20.4105 3.5117e-15)
(37.3516 18.6394 0)
(38.2945 16.7415 -6.75466e-15)
(39.0966 14.7339 -3.39123e-15)
(39.7335 12.6495 3.9348e-16)
(40.1392 10.5281 -3.82322e-16)
(40.2931 8.41744 -1.57659e-16)
(39.9523 6.1671 -1.74416e-15)
(38.8314 4.08602 5.47536e-16)
(37.4266 2.67242 0)
(36.1797 1.49715 3.46875e-16)
(35.0404 0.541821 -4.15017e-17)
(33.9161 -0.252299 0)
(32.7136 -0.936403 8.36168e-16)
(31.4135 -1.60936 1.43108e-15)
(30.1635 -2.16898 -2.9271e-15)
(28.9593 -2.58892 -3.44544e-15)
(27.7963 -2.81731 -8.10275e-17)
(27.5364 -2.70422 -4.94929e-15)
(26.1304 -2.22245 -3.08169e-15)
(18.4253 -1.50005 6.01173e-15)
(-4.02287 1.58537 0)
(0.0111539 -1.1651 -2.3096e-14)
(1.63624 -2.21077 -1.01102e-15)
(7.43986 18.1593 -2.45763e-17)
(6.62045 16.4343 -7.84422e-17)
(5.97359 14.4197 3.31357e-16)
(5.49223 12.1781 0)
(5.32372 9.78831 5.76033e-16)
(5.5051 7.3411 0)
(6.0564 4.96713 3.94505e-15)
(6.94396 2.76008 1.87373e-15)
(8.14212 0.817167 1.53359e-15)
(9.56379 -0.783331 0)
(11.081 -2.02214 -2.15775e-15)
(12.5911 -2.93089 -4.5156e-16)
(14.0376 -3.56325 2.04116e-15)
(15.3884 -3.97386 0)
(16.6277 -4.21555 -9.22061e-16)
(17.7578 -4.33064 -2.77391e-16)
(18.7902 -4.35575 1.12025e-15)
(19.7409 -4.31284 5.73414e-16)
(20.6295 -4.21835 1.51509e-16)
(21.4715 -4.07465 -8.48635e-17)
(22.2801 -3.8838 8.20392e-16)
(23.0655 -3.63501 0)
(23.8284 -3.31228 0)
(24.5485 -2.8944 2.79436e-17)
(25.1792 -2.40084 0)
(25.6968 -1.88295 2.13547e-16)
(26.1122 -1.35633 -1.82848e-18)
(26.4378 -0.822547 1.21737e-17)
(26.6792 -0.286762 0)
(26.8415 0.237836 8.28007e-17)
(26.9377 0.745473 -1.74697e-16)
(26.9801 1.23225 0)
(26.9807 1.69833 7.82289e-16)
(26.9588 2.14412 0)
(26.9208 2.57542 0)
(26.9293 2.99894 5.26862e-17)
(26.8252 3.47002 -1.24856e-16)
(26.8493 3.97796 -1.52985e-16)
(24.6786 4.36328 4.14653e-16)
(10.8447 18.1186 -1.94899e-17)
(11.9577 19.4165 -2.20819e-17)
(13.3142 20.6974 2.10479e-17)
(14.8934 21.8858 1.109e-17)
(16.6568 22.8939 0)
(18.611 23.7036 0)
(20.7043 24.2683 -5.49722e-16)
(22.8806 24.5505 6.88663e-16)
(25.0956 24.5406 0)
(27.2962 24.2367 -8.9895e-16)
(29.4327 23.6492 -1.17551e-15)
(31.4671 22.7968 -1.12084e-15)
(33.3649 21.7048 1.36336e-15)
(35.0985 20.4033 1.29374e-15)
(36.6457 18.9268 0)
(38.0008 17.3033 2.09991e-15)
(39.1228 15.5817 7.31673e-16)
(39.9837 13.803 5.98192e-15)
(40.5669 11.9932 3.64283e-16)
(40.8697 10.176 -3.61556e-16)
(40.8841 8.39568 3.07162e-15)
(40.6253 6.7439 -4.91962e-16)
(40.1773 5.40645 2.31626e-15)
(39.2059 4.18388 6.20554e-16)
(37.8025 2.98083 -1.45604e-17)
(36.7266 1.76003 -5.31116e-16)
(35.5341 0.794101 4.53842e-18)
(34.372 -0.0584732 -5.38316e-18)
(33.1849 -0.860457 -1.41008e-15)
(31.8907 -1.54375 -3.87145e-17)
(30.5119 -2.09453 2.47589e-15)
(29.0922 -2.50782 -4.34101e-15)
(27.6076 -2.71497 -3.49646e-15)
(26.3746 -2.52974 -7.63317e-17)
(26.7023 -2.1119 2.71201e-15)
(24.6388 -1.81048 0)
(10.2942 -0.313881 7.48912e-15)
(8.3605 -1.80167 1.17223e-14)
(5.54225 -2.75824 5.24457e-16)
(9.9294 16.7702 -3.61241e-17)
(9.12623 15.3221 1.11622e-16)
(8.45585 13.6243 4.44693e-16)
(7.92804 11.7197 0)
(7.66708 9.6829 -4.97199e-16)
(7.69826 7.57702 0)
(8.03353 5.48969 -2.81998e-15)
(8.65521 3.50902 -9.63512e-17)
(9.54477 1.72679 1.14475e-15)
(10.6429 0.20492 9.83597e-16)
(11.8646 -1.02445 2.91141e-17)
(13.1324 -1.96512 1.64134e-15)
(14.3939 -2.64988 -1.03048e-15)
(15.6122 -3.1191 3.29571e-16)
(16.764 -3.41335 1.10481e-15)
(17.8404 -3.57206 1.19984e-15)
(18.8426 -3.62845 -1.05913e-15)
(19.7777 -3.60816 1.0407e-17)
(20.6573 -3.52939 0)
(21.494 -3.39954 1.04924e-15)
(22.2975 -3.21939 4.87667e-17)
(23.0741 -2.9822 -7.36225e-16)
(23.8237 -2.67699 0)
(24.5295 -2.2844 2.82386e-17)
(25.1545 -1.80754 0)
(25.6751 -1.28403 -1.10983e-16)
(26.0964 -0.737298 0)
(26.429 -0.18088 -1.16776e-17)
(26.6786 0.372432 1.07543e-18)
(26.8493 0.911253 -8.46334e-19)
(26.9477 1.42603 1.61063e-16)
(26.9789 1.90682 5.05341e-18)
(26.9477 2.35001 0)
(26.864 2.75281 -6.08726e-16)
(26.7282 3.11891 -9.23774e-18)
(26.5689 3.44973 8.84767e-16)
(26.3066 3.80821 -2.2831e-15)
(26.0543 4.18673 -2.09299e-18)
(24.8025 4.32885 0)
(12.432 16.8919 -2.59636e-17)
(13.3707 18.0415 -1.31596e-17)
(14.5197 19.1958 3.59236e-17)
(15.8489 20.2906 -1.87419e-17)
(17.325 21.2465 -1.27119e-17)
(18.9678 22.0592 -1.19114e-16)
(20.7341 22.6868 2.28884e-16)
(22.5806 23.093 0)
(24.4784 23.2669 1.00342e-15)
(26.3831 23.1993 4.89486e-16)
(28.255 22.8892 0)
(30.0606 22.3453 1.07414e-15)
(31.7662 21.5828 -5.79042e-16)
(33.3429 20.6203 1.61333e-15)
(34.7684 19.4804 0)
(36.0232 18.1852 -2.75434e-15)
(37.0919 16.7502 2.66312e-15)
(37.9753 15.172 -1.6741e-16)
(38.6593 13.4644 0)
(39.1146 11.6639 2.94912e-15)
(39.3182 9.81856 -2.99554e-15)
(39.2432 8.02311 -1.52719e-16)
(38.9669 6.33289 -2.24058e-15)
(38.5853 4.7581 -1.60705e-15)
(37.9006 3.23748 0)
(37.2293 2.14608 0)
(36.3682 1.19376 -2.32071e-16)
(35.4081 0.284224 -2.5976e-17)
(34.3404 -0.586742 1.62826e-15)
(33.1393 -1.32895 -4.26801e-17)
(31.8024 -1.92031 4.36333e-17)
(30.3212 -2.3579 4.37817e-15)
(28.6847 -2.59477 0)
(26.7597 -2.45617 9.21838e-15)
(26.0117 -1.9766 -2.54693e-17)
(26.3986 -1.7521 0)
(20.0672 -1.55557 -1.13471e-16)
(18.359 -2.99396 0)
(10.7553 -3.16537 -1.40932e-15)
(11.6534 15.7041 4.00218e-17)
(10.9664 14.4407 -2.32986e-16)
(10.3729 12.9576 -4.69786e-17)
(9.87903 11.2955 9.78356e-16)
(9.59345 9.52356 -1.53706e-15)
(9.53669 7.681 -1.97635e-15)
(9.72602 5.82762 2.13623e-15)
(10.1588 4.04711 -1.98977e-15)
(10.824 2.42277 -8.73207e-16)
(11.6795 0.999096 -7.64999e-16)
(12.664 -0.195534 1.46889e-15)
(13.7184 -1.15474 -1.38957e-15)
(14.7993 -1.89783 -5.99017e-16)
(15.8725 -2.45189 5.84334e-16)
(16.9128 -2.84371 -1.24219e-15)
(17.9069 -3.10351 2.31572e-16)
(18.8497 -3.2574 0)
(19.7424 -3.32652 -8.33525e-16)
(20.5909 -3.32594 2.91359e-16)
(21.4034 -3.26324 -1.10695e-15)
(22.187 -3.14042 0)
(22.9457 -2.9536 6.42221e-16)
(23.6781 -2.6926 4.84858e-16)
(24.3693 -2.34513 -3.26055e-16)
(24.9884 -1.91774 0)
(25.5121 -1.44371 -1.53239e-16)
(25.9411 -0.947995 0)
(26.2835 -0.442788 0)
(26.5439 0.0625805 0)
(26.726 0.558059 -5.05731e-17)
(26.8359 1.03536 0)
(26.8799 1.49375 0)
(26.863 1.93051 5.89412e-16)
(26.7933 2.34283 5.90212e-16)
(26.67 2.73191 0)
(26.507 3.10171 7.44451e-16)
(26.2398 3.49059 1.04256e-16)
(25.9039 3.8576 0)
(24.863 4.27399 -1.39712e-16)
(13.8984 15.8179 3.33533e-17)
(14.7485 16.8354 -2.37504e-17)
(15.7853 17.8632 0)
(16.9801 18.8409 1.0699e-17)
(18.3002 19.6978 -2.78176e-17)
(19.7737 20.4353 1.11404e-16)
(21.3635 21.0136 4.37302e-17)
(23.0349 21.3999 -5.83598e-16)
(24.7684 21.5806 -8.28601e-17)
(26.5277 21.5426 9.76341e-16)
(28.2794 21.2797 -3.5162e-16)
(29.9943 20.7929 8.19068e-16)
(31.64 20.0895 4.13086e-16)
(33.1879 19.1805 2.9526e-16)
(34.6129 18.0818 0)
(35.8916 16.8112 -5.94856e-16)
(37.0051 15.3869 -1.33296e-15)
(37.9241 13.8456 -4.98089e-15)
(38.6179 12.2289 1.47738e-15)
(39.0666 10.5675 -1.89114e-15)
(39.2538 8.90328 -2.95772e-16)
(39.1766 7.29374 0)
(38.8699 5.80207 2.06159e-15)
(38.3976 4.51655 1.2066e-16)
(37.8908 3.36161 -2.45853e-17)
(37.2581 2.25119 -8.05503e-16)
(36.5084 1.23242 1.87968e-16)
(35.695 0.310665 3.91525e-16)
(34.7898 -0.537714 -1.47186e-15)
(33.7589 -1.26896 -7.67684e-17)
(32.5967 -1.86404 2.42986e-15)
(31.2873 -2.31194 3.78475e-15)
(29.8192 -2.55011 0)
(28.0256 -2.45618 4.33782e-17)
(26.2959 -1.96297 -2.62261e-15)
(26.4212 -1.64953 0)
(23.9391 -2.0615 -9.26623e-15)
(22.7825 -3.42927 0)
(15.9783 -3.46729 2.28185e-15)
(13.1858 14.7694 -3.91836e-17)
(12.5538 13.6608 9.35941e-17)
(11.9945 12.3552 -2.26517e-16)
(11.5145 10.8892 0)
(11.2082 9.32879 6.44938e-16)
(11.0904 7.69694 3.06645e-15)
(11.18 6.03668 0)
(11.4781 4.42908 -1.45278e-15)
(11.9768 2.94754 -1.37346e-15)
(12.6464 1.62385 1.36212e-15)
(13.442 0.483532 -5.24293e-17)
(14.3183 -0.460851 5.84061e-16)
(15.2418 -1.21968 3.57993e-17)
(16.1831 -1.81047 1.502e-15)
(17.1183 -2.25019 1.32675e-15)
(18.0323 -2.56095 -1.23382e-15)
(18.9167 -2.76294 1.70307e-16)
(19.7677 -2.87408 -3.15191e-16)
(20.5865 -2.90829 1.45118e-16)
(21.377 -2.87418 8.23142e-16)
(22.1427 -2.77522 1.05141e-16)
(22.8857 -2.60948 -7.06922e-17)
(23.6028 -2.37019 -4.08663e-16)
(24.2808 -2.04886 0)
(24.8931 -1.64964 1.29168e-17)
(25.4177 -1.19839 2.97223e-16)
(25.8518 -0.718135 -6.78566e-19)
(26.2008 -0.221059 6.79352e-19)
(26.469 0.283125 0)
(26.6593 0.783485 4.7782e-17)
(26.7775 1.2711 0)
(26.829 1.73585 0)
(26.8185 2.17085 -5.51047e-16)
(26.754 2.57266 -4.99174e-16)
(26.6354 2.94382 0)
(26.4763 3.28389 -7.0555e-16)
(26.2148 3.63906 1.6433e-15)
(25.8937 3.95697 -2.39446e-18)
(24.9332 4.22346 2.28011e-16)
(15.1028 14.9076 2.44671e-18)
(15.8671 15.8205 -2.15624e-17)
(16.7984 16.7494 3.12015e-17)
(17.8664 17.6381 -3.02168e-17)
(19.0381 18.4231 2.47141e-17)
(20.3464 19.1118 0)
(21.7575 19.6693 -2.40901e-16)
(23.2423 20.0661 -2.33983e-18)
(24.7889 20.2908 -2.85976e-16)
(26.3668 20.3301 -5.86735e-16)
(27.949 20.1752 0)
(29.512 19.8238 -1.48035e-15)
(31.0262 19.2783 -1.29567e-15)
(32.4651 18.5448 -3.18631e-15)
(33.8037 17.6345 0)
(35.0174 16.5618 -2.00436e-15)
(36.0826 15.3451 -2.12322e-15)
(36.9782 14.0011 2.34914e-15)
(37.6877 12.5392 -2.32217e-15)
(38.1889 10.9861 2.15674e-15)
(38.4635 9.38291 2.65625e-16)
(38.5019 7.79148 -2.28639e-15)
(38.3327 6.28381 0)
(37.9604 4.90662 -1.91904e-15)
(37.6082 3.58146 8.13599e-17)
(37.0357 2.41002 8.5065e-16)
(36.3585 1.39124 0)
(35.6188 0.485083 -2.88622e-17)
(34.7967 -0.355647 6.15319e-17)
(33.8678 -1.09674 2.34321e-15)
(32.83 -1.71048 -2.11234e-15)
(31.6819 -2.18036 -3.48565e-15)
(30.4173 -2.4431 2.68867e-15)
(29.0014 -2.40205 1.29037e-17)
(27.2865 -1.98803 2.42343e-15)
(26.6071 -1.6151 3.3174e-15)
(24.8879 -2.15012 4.29166e-15)
(24.254 -3.39606 -4.19777e-17)
(18.6447 -3.37318 1.4105e-17)
(14.4569 13.9689 1.5659e-17)
(13.8805 12.9821 1.73669e-16)
(13.3583 11.8175 2.21785e-16)
(12.8978 10.5084 -4.37222e-16)
(12.5829 9.11863 -1.68412e-15)
(12.4239 7.65779 5.20268e-16)
(12.4427 6.15925 1.1984e-15)
(12.6432 4.7014 2.97352e-15)
(13.0172 3.34794 1.17654e-15)
(13.5441 2.12163 -1.09775e-15)
(14.1896 1.0448 -2.89933e-17)
(14.9184 0.131284 -5.1438e-16)
(15.7048 -0.625352 0)
(16.5248 -1.23671 -2.22046e-17)
(17.3575 -1.71333 -8.17051e-16)
(18.1884 -2.07103 3.51315e-16)
(19.0074 -2.32461 -3.45325e-16)
(19.808 -2.48775 0)
(20.5879 -2.57158 5.06836e-16)
(21.3476 -2.5837 -8.6418e-16)
(22.0881 -2.52715 0)
(22.8093 -2.40098 6.04016e-16)
(23.507 -2.20035 0)
(24.1689 -1.91954 -1.93796e-17)
(24.7718 -1.56251 1.93472e-17)
(25.295 -1.1506 -1.51893e-16)
(25.7326 -0.705653 -3.12966e-18)
(26.0879 -0.240818 -9.20369e-19)
(26.3642 0.23341 -3.60727e-19)
(26.564 0.705686 3.03558e-17)
(26.6924 1.16575 8.98164e-17)
(26.7541 1.6077 -2.07873e-16)
(26.7535 2.0284 -7.17084e-18)
(26.6982 2.42528 3.37797e-17)
(26.588 2.79915 0)
(26.4345 3.14999 -7.36724e-18)
(26.1805 3.51411 -7.14066e-16)
(25.8685 3.83113 -8.78409e-18)
(25.0051 4.15547 4.55141e-16)
(16.1531 14.1072 6.00579e-18)
(16.8532 14.9306 3.32533e-17)
(17.705 15.772 0)
(18.6778 16.5783 -2.31071e-17)
(19.7384 17.292 -1.51998e-17)
(20.922 17.9243 0)
(22.1981 18.4429 -8.84939e-17)
(23.5412 18.8219 7.51508e-16)
(24.9451 19.051 -1.09402e-15)
(26.3845 19.1164 3.47059e-16)
(27.8374 19.0082 5.00684e-16)
(29.2851 18.721 1.86954e-15)
(30.7023 18.2529 1.35873e-15)
(32.0648 17.605 1.64572e-15)
(33.3487 16.7832 4.41029e-16)
(34.5291 15.7968 1.47057e-15)
(35.5819 14.6585 2.03054e-15)
(36.484 13.3836 1.98961e-15)
(37.2074 12.0018 -1.4773e-15)
(37.7281 10.5458 -4.54182e-15)
(38.0292 9.0546 0)
(38.1056 7.57702 8.71336e-17)
(37.9798 6.16916 1.76822e-15)
(37.6747 4.85445 1.84808e-15)
(37.2796 3.62349 -9.83696e-17)
(36.7336 2.5129 -7.65767e-16)
(36.1038 1.53018 5.44311e-18)
(35.4082 0.637045 -3.8471e-16)
(34.6321 -0.1982 4.05526e-17)
(33.7597 -0.939306 -4.36194e-15)
(32.7904 -1.55608 -9.47689e-18)
(31.7343 -2.03059 -5.55839e-17)
(30.5993 -2.30714 -2.53887e-15)
(29.432 -2.29995 1.00091e-17)
(28.1416 -1.97688 -2.32175e-15)
(27.2166 -1.61856 -6.3124e-15)
(25.3951 -2.1534 3.75735e-15)
(24.8503 -3.2361 2.16536e-15)
(19.4778 -2.90432 2.0575e-15)
(15.5568 13.2617 -6.45787e-17)
(15.0226 12.3768 -2.32929e-16)
(14.5299 11.3301 -1.61717e-16)
(14.0861 10.1513 -4.08389e-16)
(13.7678 8.90222 9.3088e-16)
(13.5813 7.58329 -6.40805e-17)
(13.5493 6.22217 -2.95855e-15)
(13.677 4.89383 -1.00799e-15)
(13.9566 3.65393 2.21303e-17)
(14.3727 2.51879 0)
(14.8985 1.50804 -9.26363e-16)
(15.5057 0.635197 8.56804e-16)
(16.1746 -0.104387 -8.18219e-16)
(16.8866 -0.718637 -4.16169e-16)
(17.6239 -1.21362 3.41993e-16)
(18.3741 -1.60036 3.40665e-16)
(19.127 -1.8889 1.20192e-15)
(19.8748 -2.08876 -2.83157e-16)
(20.6131 -2.20826 -4.71597e-16)
(21.3397 -2.25372 0)
(22.0533 -2.22795 -6.94514e-16)
(22.7516 -2.13073 -4.99872e-16)
(23.4297 -1.95867 -1.28384e-17)
(24.0756 -1.70824 -5.08271e-17)
(24.6685 -1.38305 -1.36959e-17)
(25.1889 -1.00022 1.97487e-16)
(25.6287 -0.579651 -2.2874e-18)
(25.9891 -0.134633 1.4618e-17)
(26.2722 0.324356 -3.29355e-19)
(26.4801 0.786093 -2.81672e-17)
(26.6169 1.24069 -1.31758e-17)
(26.6869 1.68069 3.932e-16)
(26.6939 2.0988 3.76266e-16)
(26.6453 2.49073 4.10054e-16)
(26.541 2.85686 1.04338e-17)
(26.3899 3.19558 -4.65581e-18)
(26.1443 3.54246 4.94818e-16)
(25.824 3.82913 -3.55253e-16)
(25.0594 4.10097 -8.24537e-16)
(17.0629 13.3993 -1.86048e-17)
(17.7082 14.1466 -1.36968e-17)
(18.4919 14.9128 -5.62808e-17)
(19.3833 15.6486 1.48028e-16)
(20.3489 16.3006 -1.87586e-17)
(21.4248 16.883 -7.15915e-17)
(22.5827 17.3669 3.15423e-16)
(23.8001 17.729 0)
(25.0742 17.9615 3.31138e-16)
(26.3836 18.0513 1.53491e-17)
(27.7103 17.9887 -4.25759e-16)
(29.0402 17.7674 -1.71691e-15)
(30.3512 17.3833 -7.12379e-16)
(31.6222 16.8351 0)
(32.8312 16.1253 0)
(33.9541 15.2599 0)
(34.9668 14.2492 0)
(35.8447 13.1084 -1.90533e-15)
(36.5646 11.8532 1.92852e-15)
(37.1045 10.5071 1.8931e-15)
(37.4469 9.10366 -1.52249e-15)
(37.5848 7.68919 1.33698e-15)
(37.5283 6.31662 -1.37504e-15)
(37.3035 5.01817 -1.00683e-16)
(36.9326 3.79172 -4.54284e-17)
(36.4287 2.68919 7.71703e-16)
(35.8354 1.69949 1.65267e-16)
(35.1681 0.795349 0)
(34.4204 -0.0408784 0)
(33.5826 -0.780327 3.7821e-17)
(32.6538 -1.39745 0)
(31.6478 -1.87369 2.97141e-15)
(30.5862 -2.16034 -2.40723e-15)
(29.5276 -2.18056 -3.29056e-15)
(28.5588 -1.92232 4.36935e-15)
(27.8349 -1.61498 3.03212e-15)
(26.0996 -2.16531 -3.51204e-15)
(25.4117 -3.04516 -3.61698e-15)
(19.718 -2.26558 -1.44357e-15)
(16.5094 12.6331 0)
(16.0116 11.8337 6.54841e-17)
(15.5454 10.8859 3.07113e-16)
(15.1187 9.81667 -1.31333e-15)
(14.8015 8.68525 1.1471e-15)
(14.5969 7.48604 -8.53861e-16)
(14.5279 6.24304 1.57376e-17)
(14.6008 5.02741 7.82332e-16)
(14.8081 3.88839 8.14264e-16)
(15.1378 2.83785 0)
(15.5677 1.89267 3.8208e-16)
(16.075 1.0655 -1.1643e-15)
(16.6443 0.352115 1.82385e-15)
(17.2611 -0.253479 3.27938e-16)
(17.9111 -0.754963 -6.63459e-16)
(18.5841 -1.15981 -6.11619e-16)
(19.2709 -1.47453 -5.5608e-16)
(19.9635 -1.70545 0)
(20.6565 -1.85819 0)
(21.3459 -1.93728 0)
(22.0285 -1.94479 6.50538e-16)
(22.7007 -1.88047 0)
(23.3564 -1.74172 -3.9805e-16)
(23.9842 -1.5264 -4.94712e-17)
(24.5651 -1.2378 -2.68001e-16)
(25.0804 -0.889886 -1.73398e-16)
(25.5207 -0.500557 0)
(25.8848 -0.0831926 -1.16612e-17)
(26.1742 0.351472 2.98847e-19)
(26.39 0.792079 -1.97041e-19)
(26.5356 1.22816 -1.24171e-16)
(26.6148 1.65182 -2.25151e-17)
(26.6307 2.05741 -3.65991e-16)
(26.5902 2.44116 3.20049e-16)
(26.4934 2.8029 0)
(26.3463 3.14061 5.18287e-18)
(26.11 3.4839 -9.55904e-17)
(25.7839 3.76335 3.45103e-16)
(25.0866 4.02736 -5.7043e-18)
(17.8621 12.7659 1.97959e-17)
(18.4615 13.4468 0)
(19.1882 14.1469 1.16883e-16)
(20.0115 14.8195 -8.55441e-17)
(20.8983 15.4155 8.28611e-19)
(21.8846 15.9505 6.6758e-17)
(22.9439 16.3983 -1.37098e-16)
(24.0556 16.7385 -1.84988e-16)
(25.2197 16.9645 0)
(26.4175 17.0646 -3.65269e-16)
(27.6349 17.0293 -4.00685e-16)
(28.861 16.852 3.96944e-16)
(30.077 16.527 1.52308e-15)
(31.2651 16.0507 6.24482e-16)
(32.4057 15.4225 -1.89799e-15)
(33.4758 14.6455 -1.38401e-15)
(34.4524 13.7263 1.09867e-15)
(35.3112 12.676 8.19543e-16)
(36.0282 11.5107 -4.18102e-16)
(36.5792 10.2566 4.19145e-16)
(36.9467 8.94608 1.06659e-15)
(37.1239 7.61908 1.98073e-16)
(37.1162 6.31926 -1.85602e-16)
(36.9438 5.07796 -1.23454e-15)
(36.6225 3.89789 0)
(36.1679 2.82173 -6.4857e-16)
(35.6116 1.84191 -3.08571e-16)
(34.9695 0.943652 -2.82902e-16)
(34.2422 0.117042 -1.03906e-15)
(33.4248 -0.616313 3.8334e-15)
(32.5174 -1.23254 1.53394e-15)
(31.536 -1.71029 9.90515e-18)
(30.5126 -2.00541 1.83642e-17)
(29.4985 -2.05353 0)
(28.6539 -1.84229 -2.10505e-15)
(28.1886 -1.58782 0)
(26.7658 -2.16562 0)
(25.9743 -2.81811 1.52566e-15)
(20.0796 -1.65493 -5.93995e-18)
(17.3447 12.0679 -6.58289e-17)
(16.8786 11.3411 2.14237e-16)
(16.4362 10.4773 1.49775e-17)
(16.0257 9.5017 2.93464e-16)
(15.7118 8.47075 -1.01028e-15)
(15.4961 7.37433 6.91408e-16)
(15.3999 6.23406 2.49515e-17)
(15.431 5.11734 -6.50923e-16)
(15.5826 4.06807 -6.3113e-16)
(15.8442 3.09501 -6.67294e-16)
(16.1972 2.21298 -1.30564e-15)
(16.6223 1.43347 0)
(17.1074 0.751979 -6.59134e-16)
(17.6412 0.16334 -2.25804e-17)
(18.2123 -0.334613 0)
(18.813 -0.747307 -5.41221e-16)
(19.4356 -1.0785 -2.57098e-16)
(20.0726 -1.33191 -2.3937e-16)
(20.7184 -1.51083 8.11727e-16)
(21.3681 -1.61789 7.14563e-16)
(22.0174 -1.65396 -7.17847e-17)
(22.6612 -1.61862 5.32784e-16)
(23.293 -1.50969 9.76194e-17)
(23.9014 -1.32571 -4.79357e-17)
(24.4689 -1.06973 2.38255e-16)
(24.9774 -0.753168 1.40884e-17)
(25.4165 -0.391741 0)
(25.7831 0.00146571 0)
(26.0775 0.415672 -3.01693e-20)
(26.3003 0.839641 -9.50704e-19)
(26.4539 1.26281 9.46848e-17)
(26.5414 1.6772 -2.20374e-17)
(26.5656 2.0755 -2.83956e-16)
(26.5326 2.45289 -3.05564e-16)
(26.4427 2.80827 -6.98879e-18)
(26.3002 3.13879 2.66793e-18)
(26.0712 3.46939 -6.26006e-16)
(25.7477 3.73339 -4.55061e-16)
(25.0995 3.96707 6.6309e-18)
(18.5681 12.1938 7.71321e-18)
(19.1277 12.817 0)
(19.8051 13.4588 -6.09238e-17)
(20.5697 14.0754 0)
(21.3886 14.6213 -1.99236e-17)
(22.2977 15.113 1.92455e-17)
(23.2717 15.5268 1.01171e-16)
(24.2915 15.8446 1.73812e-16)
(25.3587 16.0613 0)
(26.457 16.1664 -2.31407e-16)
(27.5751 16.1515 4.0955e-16)
(28.7049 16.0098 -8.48532e-16)
(29.8306 15.7354 -4.80179e-16)
(30.937 15.3235 -4.94108e-16)
(32.0068 14.7716 1.20796e-15)
(33.0194 14.0805 1.31923e-15)
(33.9528 13.2544 -1.4255e-15)
(34.7834 12.3019 -1.42575e-15)
(35.4878 11.2368 0)
(36.0434 10.0784 3.83251e-16)
(36.4327 8.85491 -7.41593e-16)
(36.6473 7.60239 1.82889e-16)
(36.6882 6.36065 4.29988e-18)
(36.5683 5.16264 2.90309e-15)
(36.3011 4.02053 -1.58786e-16)
(35.9021 2.96375 9.70427e-17)
(35.3932 1.99321 2.84294e-16)
(34.7882 1.10142 2.99051e-16)
(34.091 0.281849 8.90992e-16)
(33.2993 -0.44822 -1.75529e-15)
(32.4135 -1.06503 -1.40062e-15)
(31.4507 -1.54494 -5.23035e-15)
(30.4472 -1.84774 4.15084e-15)
(29.4542 -1.92245 -5.42075e-17)
(28.618 -1.75286 2.08035e-15)
(28.2808 -1.53997 -6.79865e-17)
(27.1595 -2.1299 4.60682e-17)
(26.3698 -2.55882 -5.14796e-18)
(20.921 -1.24771 -1.12246e-15)
(18.0828 11.5546 3.3529e-17)
(17.6445 10.89 -1.08483e-16)
(17.224 10.0994 2.09446e-16)
(16.8287 9.20556 0)
(16.5191 8.26143 5.72851e-16)
(16.2968 7.25401 0)
(16.1809 6.20402 0)
(16.18 5.17441 0)
(16.288 4.2051 1.16503e-15)
(16.4955 3.30267 -5.67386e-16)
(16.7863 2.48022 6.41763e-16)
(17.1437 1.74822 0)
(17.5579 1.1016 0)
(18.0199 0.535322 -5.62716e-16)
(18.5209 0.0479491 0)
(19.0551 -0.364619 5.02522e-16)
(19.6165 -0.704679 1.06959e-17)
(20.1988 -0.973876 0)
(20.7967 -1.17351 -5.78934e-16)
(21.4051 -1.30461 -8.45186e-16)
(22.0188 -1.367 -5.78754e-16)
(22.6322 -1.35962 -4.89452e-16)
(23.2383 -1.28021 8.14931e-16)
(23.8258 -1.12762 0)
(24.3782 -0.904557 2.48285e-16)
(24.878 -0.620268 2.09834e-16)
(25.3141 -0.288511 6.79165e-17)
(25.6818 0.0781543 0)
(25.9802 0.468972 -2.40806e-18)
(26.2092 0.872793 -8.19318e-19)
(26.3706 1.27898 -6.5546e-17)
(26.4664 1.67904 -2.11567e-17)
(26.499 2.06583 2.58058e-16)
(26.474 2.43447 -2.16895e-16)
(26.3913 2.78321 -1.36407e-18)
(26.2542 3.10876 -5.74851e-18)
(26.0319 3.43056 4.30603e-16)
(25.715 3.68679 4.21562e-16)
(25.111 3.90187 2.69673e-15)
(19.1969 11.6722 4.46097e-18)
(19.7216 12.2447 -2.32219e-17)
(20.356 12.8346 0)
(21.0696 13.401 -5.70542e-17)
(21.8298 13.9015 0)
(22.6721 14.3532 0)
(23.572 14.7347 2.05899e-17)
(24.5117 15.0296 1.55077e-16)
(25.4942 15.234 3.69554e-16)
(26.5048 15.3389 9.87508e-16)
(27.5342 15.3368 5.7504e-16)
(28.5768 15.2214 6.78758e-16)
(29.6192 14.9864 0)
(30.649 14.6264 1.36639e-15)
(31.6511 14.1376 -4.86421e-16)
(32.6068 13.519 0)
(33.4961 12.7725 1.18222e-15)
(34.2965 11.904 1.36182e-15)
(34.9855 10.9249 0)
(35.541 9.85256 1.35482e-15)
(35.945 8.71309 -1.32362e-15)
(36.1883 7.53831 0)
(36.2689 6.36297 -1.56346e-16)
(36.1943 5.21826 2.87092e-17)
(35.9762 4.11983 7.44688e-17)
(35.6285 3.08985 1.11397e-15)
(35.1669 2.13577 -3.88536e-18)
(34.6029 1.25474 -2.9192e-17)
(33.9424 0.443805 -2.3837e-17)
(33.1851 -0.281406 5.3284e-17)
(32.3304 -0.897176 1.39786e-15)
(31.3948 -1.37859 4.69846e-15)
(30.4125 -1.68917 4.77378e-17)
(29.4363 -1.78855 -2.84102e-15)
(28.5734 -1.66073 -1.90853e-15)
(28.2345 -1.47971 -2.77177e-15)
(27.2849 -2.05837 -2.61834e-15)
(26.5209 -2.29189 3.14629e-17)
(22.1058 -1.03706 9.63214e-16)
(18.7397 11.0848 -7.22828e-17)
(18.3259 10.4754 -2.57223e-16)
(17.9247 9.74914 5.01184e-16)
(17.544 8.92706 0)
(17.2398 8.05863 9.04969e-16)
(17.014 7.12937 0)
(16.8839 6.15911 -4.62544e-16)
(16.8583 5.20676 1.84747e-15)
(16.9321 4.30894 -1.41743e-15)
(17.0962 3.4709 0)
(17.3365 2.70413 1.03207e-15)
(17.6381 2.0181 9.895e-16)
(17.9926 1.40733 0)
(18.3928 0.866766 -9.61102e-16)
(18.8318 0.395134 2.29673e-16)
(19.3056 -0.011269 -2.30003e-16)
(19.8098 -0.353699 2.21563e-16)
(20.3394 -0.632456 3.8406e-16)
(20.8897 -0.847364 -1.64269e-17)
(21.4559 -0.998011 4.52815e-16)
(22.0327 -1.08309 1.28543e-16)
(22.6142 -1.10084 -1.25305e-16)
(23.1931 -1.04875 -3.86126e-16)
(23.7586 -0.925548 3.21936e-16)
(24.2944 -0.733389 -2.18916e-16)
(24.7839 -0.479802 -2.1222e-16)
(25.2152 -0.176601 -6.40009e-17)
(25.5826 0.1644 -5.0522e-19)
(25.8839 0.532617 2.78419e-18)
(26.1183 0.917162 7.74216e-19)
(26.2866 1.3074 1.10726e-17)
(26.3902 1.69469 -2.03532e-17)
(26.4309 2.07133 -1.81566e-16)
(26.4136 2.43173 2.20241e-16)
(26.3381 2.7733 -4.77116e-18)
(26.2067 3.092 2.24899e-16)
(25.9914 3.40267 -1.63446e-16)
(25.6827 3.64756 0)
(25.1208 3.84178 -2.56266e-15)
(19.7595 11.1944 1.2516e-17)
(20.2535 11.7216 0)
(20.8497 12.265 0)
(21.5182 12.7862 8.45447e-17)
(22.2269 13.2457 -2.05142e-17)
(23.0104 13.6608 0)
(23.8452 14.0118 0)
(24.7145 14.2842 -4.85992e-16)
(25.6219 14.4753 -2.71565e-17)
(26.5544 14.5771 -3.4408e-17)
(27.5041 14.5831 -1.32831e-15)
(28.4673 14.4874 -3.58098e-16)
(29.4327 14.2843 6.86491e-16)
(30.39 13.9681 -6.12376e-17)
(31.3265 13.5342 0)
(32.2257 12.9801 0)
(33.0693 12.3063 -3.22836e-15)
(33.8362 11.5166 -5.99484e-16)
(34.5049 10.6202 6.15347e-16)
(35.0549 9.63131 -1.3105e-15)
(35.4683 8.57228 2.48454e-15)
(35.735 7.47123 1.17328e-15)
(35.8506 6.35931 -1.13334e-15)
(35.8174 5.26629 -1.27821e-15)
(35.6452 4.21044 2.02045e-16)
(35.3459 3.20977 -1.08978e-15)
(34.9303 2.2744 -1.22476e-16)
(34.4073 1.40553 2.6941e-17)
(33.7851 0.604174 -2.69735e-17)
(33.066 -0.114492 8.74699e-17)
(32.249 -0.727706 -3.74939e-17)
(31.3498 -1.21023 -2.30194e-15)
(30.3989 -1.52916 -6.90957e-17)
(29.447 -1.65181 5.52467e-17)
(28.5659 -1.56607 0)
(28.1608 -1.41317 2.62823e-15)
(27.2663 -1.96229 2.46222e-15)
(26.4709 -2.03927 0)
(23.2498 -0.929169 0)
(19.3273 10.6533 0)
(18.9351 10.0928 2.28284e-16)
(18.5519 9.42368 -7.42208e-16)
(18.1851 8.66472 -3.51677e-16)
(17.8873 7.86292 -8.17129e-16)
(17.6604 7.00294 0)
(17.5203 6.10365 0)
(17.4757 5.22036 -8.25119e-16)
(17.5222 4.38692 8.54026e-16)
(17.6514 3.60747 0)
(17.8503 2.89226 -4.34076e-16)
(18.1056 2.25011 -4.64567e-16)
(18.4098 1.67523 4.36007e-16)
(18.7569 1.16218 4.48443e-16)
(19.1415 0.709502 -8.29539e-16)
(19.561 0.313806 0)
(20.0123 -0.025799 -1.83302e-16)
(20.4916 -0.308819 1.33392e-17)
(20.9954 -0.534134 8.01608e-16)
(21.5195 -0.700195 -1.43698e-16)
(22.0586 -0.804649 1.37646e-16)
(22.6071 -0.845027 -1.02037e-16)
(23.1578 -0.818416 1.43457e-16)
(23.6998 -0.723207 -6.54886e-16)
(24.2176 -0.560836 -2.23197e-16)
(24.6952 -0.337268 1.77587e-16)
(25.1202 -0.0625995 -1.0385e-17)
(25.4857 0.252269 0)
(25.7888 0.597068 -3.59506e-18)
(26.0277 0.961188 1.17119e-17)
(26.2024 1.33409 1.38461e-17)
(26.3134 1.70696 -6.545e-17)
(26.362 2.07181 3.10975e-16)
(26.3525 2.4228 -3.04277e-16)