/*--------------------------------*- C++ -*----------------------------------*\
| =========                 |                                                 |
| \\      /  F ield         | OpenFOAM: The Open Source CFD Toolbox           |
|  \\    /   O peration     | Version:  2312                                  |
|   \\  /    A nd           | Website:  www.openfoam.com                      |
|    \\/     M anipulation  |                                                 |
\*---------------------------------------------------------------------------*/
FoamFile
{
    version     2.0;
    format      ascii;
    arch        "LSB;label=32;scalar=64";
    class       volVectorField;
    location    "43.365843151236454";
    object      U;
}
// * * * * * * * * * * * * * * * * * * * * * * * * * * * * * * * * * * * * * //

dimensions      [0 1 -1 0 0 0 0];

internalField   nonuniform List<vector> 
21039
(
(0.913796 0.0474866 0)
(1.02605 0.0665135 0)
(1.00449 0.0294669 0)
(1.00177 0.018903 0)
(1.00121 0.0138934 0)
(1.0008 0.0105119 0)
(1.00055 0.0081856 0)
(1.0004 0.006543 0)
(1.0003 0.00533293 0)
(1.00023 0.00441153 0)
(1.00018 0.00369334 0)
(1.00015 0.00312335 0)
(1.00012 0.00266455 0)
(1.0001 0.00229139 0)
(1.00008 0.00198574 0)
(1.00006 0.00173448 0)
(1.00005 0.00152793 0)
(1.00004 0.00135878 0)
(1.00003 0.00122138 0)
(1.00002 0.00111115 0)
(1.00002 0.00102423 0)
(1.00001 0.000958601 0)
(1.00001 0.000915978 0)
(1.00001 0.000877669 0)
(1.00001 0.000848518 0)
(1.00001 0.000825343 0)
(1.00001 0.000803838 0)
(1.00001 0.000773862 0)
(1.00002 0.000713429 0)
(0.794638 0.0731004 0)
(1.07448 0.12169 0)
(1.03988 0.0707933 0)
(1.01811 0.0496967 0)
(1.01129 0.0382704 0)
(1.00764 0.0294814 0)
(1.00539 0.0231786 0)
(1.00396 0.018596 0)
(1.003 0.0151332 0)
(1.00233 0.012449 0)
(1.00185 0.0103269 0)
(1.00149 0.00862026 0)
(1.00121 0.00722823 0)
(1.001 0.00608046 0)
(1.00082 0.00512669 0)
(1.00068 0.0043304 0)
(1.00056 0.00366462 0)
(1.00046 0.00310918 0)
(1.00037 0.00264875 0)
(1.0003 0.00227136 0)
(1.00023 0.00196714 0)
(1.00017 0.00172972 0)
(1.00013 0.00156326 0)
(1.0001 0.00143756 0)
(1.00009 0.00135851 0)
(1.00009 0.00130812 0)
(1.00009 0.00127217 0)
(1.0001 0.00123109 0)
(1.00011 0.0011546 0)
(0.667404 0.0572872 0)
(1.08302 0.124788 0)
(1.08435 0.0902394 0)
(1.04629 0.067639 0)
(1.02907 0.0541055 0)
(1.02026 0.0431314 0)
(1.0147 0.034813 0)
(1.01101 0.0284173 0)
(1.00845 0.023372 0)
(1.00664 0.0193458 0)
(1.00531 0.0160929 0)
(1.00431 0.0134309 0)
(1.00354 0.0112287 0)
(1.00293 0.00939079 0)
(1.00244 0.00784728 0)
(1.00204 0.00654622 0)
(1.0017 0.0054488 0)
(1.00141 0.0045257 0)
(1.00116 0.00375465 0)
(1.00094 0.00311853 0)
(1.00075 0.0026034 0)
(1.00057 0.00219907 0)
(1.00042 0.00191153 0)
(1.00032 0.00170659 0)
(1.00026 0.0015852 0)
(1.00023 0.0015125 0)
(1.00023 0.00146447 0)
(1.00024 0.00141567 0)
(1.00025 0.00133225 0)
(0.541112 0.0352642 0)
(1.05079 0.110805 0)
(1.11591 0.0969598 0)
(1.07612 0.0762217 0)
(1.04925 0.062039 0)
(1.03529 0.0509098 0)
(1.02645 0.0422138 0)
(1.02029 0.0351615 0)
(1.01587 0.029351 0)
(1.01264 0.0245567 0)
(1.01023 0.0205743 0)
(1.00838 0.0172397 0)
(1.00694 0.0144287 0)
(1.00579 0.0120461 0)
(1.00486 0.0100186 0)
(1.00409 0.00829048 0)
(1.00344 0.00681878 0)
(1.00287 0.0055707 0)
(1.00238 0.00452104 0)
(1.00194 0.00365047 0)
(1.00155 0.00294353 0)
(1.00119 0.00238778 0)
(1.00087 0.00199074 0)
(1.00064 0.00171696 0)
(1.00049 0.00155973 0)
(1.00041 0.00146875 0)
(1.00038 0.00141158 0)
(1.00038 0.00135788 0)
(1.00039 0.00126857 0)
(0.44431 0.0186664 0)
(0.997808 0.0918515 0)
(1.12902 0.0955959 0)
(1.10145 0.0793964 0)
(1.06827 0.0653232 0)
(1.04981 0.0546157 0)
(1.03832 0.0461962 0)
(1.03012 0.0391231 0)
(1.02404 0.0331086 0)
(1.01947 0.0280029 0)
(1.01597 0.0236476 0)
(1.01324 0.0199146 0)
(1.01107 0.0167039 0)
(1.00932 0.0139353 0)
(1.00788 0.0115445 0)
(1.00667 0.00948083 0)
(1.00564 0.0077046 0)
(1.00474 0.0061848 0)
(1.00395 0.00489737 0)
(1.00323 0.00382389 0)
(1.00258 0.00294984 0)
(1.00198 0.00226258 0)
(1.00144 0.00177155 0)
(1.00103 0.0014419 0)
(1.00076 0.00125843 0)
(1.00061 0.00115697 0)
(1.00054 0.00109797 0)
(1.00053 0.00104679 0)
(1.00051 0.00095694 0)
(0.378788 0.00810183 0)
(0.939817 0.0718279 0)
(1.12702 0.0882401 0)
(1.12086 0.0785366 0)
(1.08556 0.065748 0)
(1.06315 0.0557203 0)
(1.0494 0.0478057 0)
(1.0396 0.0410032 0)
(1.0322 0.0350807 0)
(1.0265 0.0299337 0)
(1.02204 0.0254418 0)
(1.0185 0.0215111 0)
(1.01564 0.0180666 0)
(1.01329 0.0150462 0)
(1.01132 0.0123993 0)
(1.00966 0.0100851 0)
(1.00821 0.00807107 0)
(1.00694 0.00633179 0)
(1.0058 0.00484743 0)
(1.00476 0.00360303 0)
(1.00381 0.00258727 0)
(1.00292 0.00178917 0)
(1.00211 0.00122109 0)
(1.00148 0.00085045 0)
(1.00106 0.000653008 0)
(1.00081 0.000550989 0)
(1.00069 0.000498398 0)
(1.00064 0.000459106 0)
(1.00061 0.000381054 0)
(0.333593 0.00233219 0)
(0.883578 0.0538271 0)
(1.11413 0.0777938 0)
(1.13395 0.074705 0)
(1.101 0.0641037 0)
(1.07547 0.0549734 0)
(1.05965 0.0476923 0)
(1.04855 0.0413328 0)
(1.04009 0.0356734 0)
(1.03346 0.0306427 0)
(1.02819 0.0261601 0)
(1.02393 0.0221631 0)
(1.02044 0.0185998 0)
(1.01753 0.015426 0)
(1.01506 0.0126053 0)
(1.01293 0.0101081 0)
(1.01107 0.0079111 0)
(1.0094 0.00599606 0)
(1.00789 0.00434939 0)
(1.0065 0.00296142 0)
(1.0052 0.00182591 0)
(1.00398 0.000935996 0)
(1.00285 0.000303167 0)
(1.00196 -9.50061e-05 0)
(1.00136 -0.000292501 0)
(1.00099 -0.000385522 0)
(1.0008 -0.000423196 0)
(1.00071 -0.000449362 0)
(1.00064 -0.000518639 0)
(0.301317 -0.000195944 0)
(0.831902 0.0395642 0)
(1.094 0.0668937 0)
(1.14072 0.0692603 0)
(1.11406 0.0611654 0)
(1.08675 0.0530091 0)
(1.06912 0.0463653 0)
(1.05693 0.0405105 0)
(1.04762 0.0352005 0)
(1.04024 0.0303765 0)
(1.03429 0.0259919 0)
(1.02942 0.0220118 0)
(1.02537 0.0184052 0)
(1.02195 0.0151446 0)
(1.01901 0.0122073 0)
(1.01644 0.00957522 0)
(1.01415 0.0072344 0)
(1.01208 0.00517487 0)
(1.01018 0.00339025 0)
(1.00841 0.0018773 0)
(1.00673 0.000635786 0)
(1.00514 -0.000335999 0)
(1.00365 -0.00101975 0)
(1.00246 -0.00143696 0)
(1.00165 -0.00163019 0)
(1.00113 -0.00170325 0)
(1.00085 -0.00171211 0)
(1.0007 -0.00170957 0)
(1.00057 -0.0017707 0)
(0.278366 -0.000991032 0)
(0.786288 0.0290755 0)
(1.06991 0.0569007 0)
(1.142 0.0632464 0)
(1.12446 0.0576106 0)
(1.09691 0.0504131 0)
(1.07781 0.0443106 0)
(1.0647 0.038913 0)
(1.05473 0.0339531 0)
(1.04677 0.0293631 0)
(1.04028 0.0251158 0)
(1.0349 0.0211958 0)
(1.03036 0.0175883 0)
(1.02649 0.0142799 0)
(1.02311 0.0112603 0)
(1.02012 0.00852187 0)
(1.01743 0.00605994 0)
(1.01496 0.00387285 0)
(1.01265 0.00196189 0)
(1.01048 0.000330861 0)
(1.0084 -0.00101431 0)
(1.00639 -0.00206855 0)
(1.0045 -0.0028022 0)
(1.00297 -0.00323727 0)
(1.0019 -0.0034238 0)
(1.00121 -0.00347174 0)
(1.00081 -0.00344528 0)
(1.00057 -0.00340359 0)
(1.00036 -0.00343974 0)
(0.261949 -0.00103576 0)
(0.747115 0.0216531 0)
(1.04437 0.0482312 0)
(1.1391 0.0572269 0)
(1.13236 0.0538287 0)
(1.10598 0.0475586 0)
(1.08581 0.0418906 0)
(1.07192 0.0368545 0)
(1.06144 0.0321918 0)
(1.05303 0.0278145 0)
(1.0461 0.0237021 0)
(1.04031 0.0198503 0)
(1.03537 0.0162548 0)
(1.0311 0.0129129 0)
(1.02733 0.00982375 0)
(1.02395 0.00698873 0)
(1.02087 0.00441148 0)
(1.01801 0.00209827 0)
(1.0153 5.75619e-05 0)
(1.01271 -0.00170044 0)
(1.0102 -0.0031611 0)
(1.00775 -0.00431077 0)
(1.00541 -0.00510997 0)
(1.00349 -0.00557495 0)
(1.00212 -0.00576073 0)
(1.00121 -0.00578617 0)
(1.00065 -0.00572317 0)
(1.00029 -0.00563859 0)
(0.999966 -0.0056437 0)
(0.249745 -0.000816315 0)
(0.713882 0.0165084 0)
(1.01901 0.0409062 0)
(1.13325 0.051484 0)
(1.13807 0.0500062 0)
(1.1141 0.0446237 0)
(1.09328 0.0393132 0)
(1.0787 0.0345451 0)
(1.06779 0.0301105 0)
(1.05904 0.0259017 0)
(1.05178 0.0218973 0)
(1.04566 0.0180975 0)
(1.04039 0.0145044 0)
(1.03578 0.0111224 0)
(1.03167 0.00795754 0)
(1.02794 0.00501813 0)
(1.02449 0.00231482 0)
(1.02125 -0.000139896 0)
(1.01814 -0.00233135 0)
(1.01513 -0.0042411 0)
(1.01217 -0.00584539 0)
(1.00925 -0.00712164 0)
(1.00641 -0.00802002 0)
(1.00404 -0.00854551 0)
(1.00232 -0.00875317 0)
(1.00115 -0.0087715 0)
(1.00038 -0.00867994 0)
(0.999847 -0.00855524 0)
(0.999366 -0.00852894 0)
(0.240231 -0.000555837 0)
(0.685749 0.0129554 0)
(0.994711 0.0348011 0)
(1.12542 0.0461606 0)
(1.14193 0.0462476 0)
(1.12136 0.0416951 0)
(1.10035 0.0366919 0)
(1.08518 0.0321146 0)
(1.0739 0.0278402 0)
(1.06488 0.0237499 0)
(1.05737 0.0198157 0)
(1.05098 0.0160386 0)
(1.04544 0.0124241 0)
(1.04055 0.00898054 0)
(1.03615 0.0057187 0)
(1.0321 0.00265194 0)
(1.02832 -0.00020448 0)
(1.02472 -0.00283324 0)
(1.02123 -0.00521251 0)
(1.01779 -0.00731563 0)
(1.01437 -0.00911108 0)
(1.01093 -0.010567 0)
(1.00756 -0.0116222 0)
(1.0047 -0.0122644 0)
(1.00257 -0.0125406 0)
(1.00107 -0.0125871 0)
(1.00003 -0.012491 0)
(0.999258 -0.0123408 0)
(0.99856 -0.0122898 0)
(0.232533 -0.000344635 0)
(0.661883 0.0104565 0)
(0.971953 0.029735 0)
(1.11634 0.0413124 0)
(1.14422 0.0426201 0)
(1.12784 0.0388252 0)
(1.1071 0.0340959 0)
(1.09146 0.0296488 0)
(1.07985 0.0254734 0)
(1.07061 0.0214516 0)
(1.0629 0.0175468 0)
(1.05632 0.0137573 0)
(1.05057 0.0100893 0)
(1.04545 0.00655289 0)
(1.0408 0.00316168 0)
(1.03649 -6.84926e-05 0)
(1.03241 -0.00311963 0)
(1.02847 -0.00596917 0)
(1.02461 -0.00858869 0)
(1.02076 -0.0109449 0)
(1.01686 -0.0129995 0)
(1.01291 -0.0147127 0)
(1.00897 -0.0160118 0)
(1.00557 -0.0168616 0)
(1.00297 -0.0172878 0)
(1.00108 -0.0174293 0)
(0.999686 -0.0173797 0)
(0.998589 -0.0172404 0)
(0.997592 -0.0171864 0)
(0.226138 -0.00020103 0)
(0.641557 0.00863673 0)
(0.950944 0.0255224 0)
(1.10658 0.0369379 0)
(1.14526 0.0391626 0)
(1.13361 0.0360475 0)
(1.11359 0.0315708 0)
(1.09762 0.0272095 0)
(1.08573 0.0230817 0)
(1.07631 0.0190825 0)
(1.06847 0.0151668 0)
(1.06174 0.0113276 0)
(1.05584 0.00756963 0)
(1.05055 0.003903 0)
(1.0457 0.000341302 0)
(1.04117 -0.00309952 0)
(1.03684 -0.0063987 0)
(1.03261 -0.00952907 0)
(1.02841 -0.0124573 0)
(1.02416 -0.0151447 0)
(1.0198 -0.0175476 0)
(1.01532 -0.0196202 0)
(1.0108 -0.0212821 0)
(1.00683 -0.0224712 0)
(1.00372 -0.0231762 0)
(1.00136 -0.0235282 0)
(0.999514 -0.0236209 0)
(0.99798 -0.0235671 0)
(0.996572 -0.0235604 0)
(0.220719 -0.000114969 0)
(0.624155 0.00726553 0)
(0.931729 0.0220282 0)
(1.09651 0.033037 0)
(1.14525 0.0359102 0)
(1.13868 0.0333844 0)
(1.1198 0.0291415 0)
(1.10367 0.0248364 0)
(1.09153 0.0207164 0)
(1.08198 0.0167009 0)
(1.07404 0.0127377 0)
(1.06723 0.00881343 0)
(1.06123 0.00492921 0)
(1.05582 0.00109288 0)
(1.05084 -0.00268458 0)
(1.04615 -0.00638759 0)
(1.04162 -0.00999341 0)
(1.03714 -0.0134721 0)
(1.03264 -0.0167867 0)
(1.02801 -0.0198938 0)
(1.02322 -0.0227454 0)
(1.01823 -0.0252928 0)
(1.01316 -0.0274549 0)
(1.00867 -0.0291537 0)
(1.00508 -0.0303319 0)
(1.00223 -0.0310979 0)
(0.999872 -0.0315243 0)
(0.997784 -0.0317155 0)
(0.995827 -0.0318606 0)
(0.21644 -5.697e-05 0)
(0.610269 0.00628336 0)
(0.915573 0.0193236 0)
(1.08728 0.0298244 0)
(1.1446 0.0331152 0)
(1.14291 0.0310654 0)
(1.12539 0.027029 0)
(1.10926 0.0227633 0)
(1.09696 0.0186289 0)
(1.08732 0.0145741 0)
(1.07935 0.0105416 0)
(1.07251 0.00651028 0)
(1.06648 0.00247585 0)
(1.06103 -0.00155845 0)
(1.056 -0.00558569 0)
(1.05122 -0.00959241 0)
(1.04657 -0.0135566 0)
(1.04193 -0.0174481 0)
(1.0372 -0.0212283 0)
(1.03229 -0.0248487 0)
(1.02713 -0.0282538 0)
(1.0217 -0.0313881 0)
(1.01615 -0.0341656 0)
(1.01125 -0.0364987 0)
(1.00731 -0.0383081 0)
(1.0041 -0.0397019 0)
(1.00126 -0.0407201 0)
(0.998539 -0.0414088 0)
(0.995831 -0.0418871 0)
(0.213268 -2.22921e-05 0)
(0.600025 0.00561541 0)
(0.903168 0.0173812 0)
(1.0797 0.0274081 0)
(1.14368 0.0309553 0)
(1.14612 0.0292641 0)
(1.12996 0.0253937 0)
(1.11394 0.0211567 0)
(1.10155 0.0170041 0)
(1.09187 0.0129089 0)
(1.0839 0.00880865 0)
(1.07708 0.00467415 0)
(1.07108 0.000494943 0)
(1.06566 -0.00373158 0)
(1.06065 -0.00800353 0)
(1.05587 -0.012312 0)
(1.05119 -0.0166393 0)
(1.04648 -0.0209591 0)
(1.04163 -0.0252345 0)
(1.03654 -0.0294148 0)
(1.03112 -0.0334369 0)
(1.02537 -0.0372322 0)
(1.01946 -0.0406882 0)
(1.01428 -0.0436769 0)
(1.0102 -0.046116 0)
(1.0069 -0.0481953 0)
(1.00395 -0.0500365 0)
(1.00094 -0.0516718 0)
(0.99777 -0.0529379 0)
(0.210798 2.57931e-05 0)
(0.592143 0.005161 0)
(0.893342 0.0159697 0)
(1.07336 0.0255766 0)
(1.14262 0.029284 0)
(1.14858 0.0278723 0)
(1.1337 0.0241468 0)
(1.11786 0.0199448 0)
(1.10541 0.0157851 0)
(1.09571 0.0116614 0)
(1.08777 0.00750661 0)
(1.08101 0.0032849 0)
(1.07507 -0.00102003 0)
(1.06972 -0.005417 0)
(1.06476 -0.00991022 0)
(1.06004 -0.0144972 0)
(1.05539 -0.0191676 0)
(1.0507 -0.0239029 0)
(1.04582 -0.0286723 0)
(1.04064 -0.0334287 0)
(1.03508 -0.0381063 0)
(1.0291 -0.0426265 0)
(1.02289 -0.046834 0)
(1.01745 -0.0504796 0)
(1.01326 -0.0533933 0)
(1.01006 -0.0558335 0)
(1.00749 -0.0581686 0)
(1.00524 -0.0607863 0)
(1.00271 -0.0631212 0)
(0.2092 1.81983e-05 0)
(0.586684 0.00480608 0)
(0.886311 0.014963 0)
(1.06871 0.0242829 0)
(1.14184 0.028094 0)
(1.15049 0.0268515 0)
(1.13665 0.0232058 0)
(1.121 0.0190266 0)
(1.10855 0.0148712 0)
(1.09888 0.0107339 0)
(1.091 0.00653963 0)
(1.08431 0.00224698 0)
(1.07846 -0.00216416 0)
(1.07321 -0.00670801 0)
(1.06835 -0.0113958 0)
(1.06373 -0.016233 0)
(1.05918 -0.0212193 0)
(1.05458 -0.0263465 0)
(1.04977 -0.0315948 0)
(1.04463 -0.0369277 0)
(1.03907 -0.0422885 0)
(1.03305 -0.0476102 0)
(1.02678 -0.0527275 0)
(1.02128 -0.0572376 0)
(1.01704 -0.0607443 0)
(1.01391 -0.0632819 0)
(1.01161 -0.0648739 0)
(1.01013 -0.0662351 0)
(1.01041 -0.0712624 0)
(1.00002 0.000720931 0)
(1.00002 0.000721099 0)
(1.00001 0.000716287 0)
(1.00001 0.000712425 1.02039e-21)
(1.00001 0.000710603 5.08924e-21)
(1.00001 0.000710641 -9.15771e-21)
(1.00001 0.000712376 5.086e-21)
(1.00001 0.000715692 -4.05255e-21)
(1.00001 0.000720441 5.17625e-22)
(1 0.000726635 4.05087e-21)
(1 0.000734108 0)
(1 0.00074285 -4.53004e-21)
(1 0.000752742 5.14374e-22)
(0.999999 0.000763659 4.02223e-21)
(0.999997 0.000775583 0)
(0.999996 0.000788349 0)
(0.999995 0.00080192 -3.98581e-21)
(0.999994 0.000816159 3.98832e-21)
(0.999992 0.000830909 0)
(0.999991 0.00084617 -1.97865e-21)
(0.99999 0.000861761 2.10307e-21)
(0.999989 0.000877567 1.84491e-21)
(0.999989 0.000893538 -2.95004e-21)
(0.999988 0.000909496 9.50883e-22)
(0.999987 0.000925348 3.04826e-23)
(0.999986 0.000941027 -6.0929e-23)
(0.999986 0.000956359 8.47807e-22)
(0.999986 0.000971289 -9.69086e-22)
(0.999985 0.000985712 0)
(0.999985 0.000999399 0)
(0.999985 0.00101238 -2.39246e-22)
(0.999985 0.00102464 -2.38292e-22)
(0.999985 0.00103604 -4.02704e-21)
(0.999985 0.00104656 3.31432e-21)
(0.999985 0.00105608 -4.22845e-21)
(0.999986 0.00106457 4.22314e-21)
(0.999986 0.00107198 -3.25838e-21)
(0.999987 0.0010782 3.25694e-21)
(0.999988 0.00108323 4.62265e-22)
(0.999989 0.00108697 4.60135e-22)
(0.99999 0.0010894 -4.57971e-22)
(0.999991 0.00109049 0)
(0.999992 0.00109016 0)
(0.999993 0.00108848 0)
(0.999995 0.00108533 0)
(0.999996 0.00108088 0)
(0.999998 0.00107506 1.77657e-21)
(0.999999 0.00106696 -1.77363e-21)
(1 0.00105247 0)
(1.00011 0.00115715 0)
(1.00009 0.00115353 2.0587e-21)
(1.00008 0.00114692 -2.0519e-21)
(1.00006 0.00114432 -1.02409e-21)
(1.00004 0.00114691 -1.02438e-21)
(1.00003 0.00115407 -3.06337e-21)
(1.00002 0.00116555 5.11387e-21)
(1 0.0011813 0)
(0.999989 0.0012008 -5.09001e-22)
(0.999977 0.00122422 -1.01703e-21)
(0.999965 0.00125104 0)
(0.999953 0.0012812 5.06307e-22)
(0.999942 0.0013145 -4.54295e-21)
(0.999932 0.0013505 4.0412e-21)
(0.999922 0.0013892 0)
(0.999913 0.00143017 1.00545e-21)
(0.999905 0.00147323 0)
(0.999897 0.00151821 0)
(0.999891 0.0015646 0)
(0.999884 0.00161235 -1.98741e-21)
(0.999879 0.00166117 1.86411e-21)
(0.999874 0.00171066 -1.23971e-22)
(0.999871 0.0017607 0)
(0.999867 0.00181095 -4.60563e-22)
(0.999865 0.0018611 4.83699e-22)
(0.999864 0.00191099 9.17327e-23)
(0.999863 0.00196028 1.21828e-22)
(0.999864 0.00200872 0)
(0.999865 0.00205612 -1.93313e-21)
(0.999867 0.00210216 1.93269e-21)
(0.999869 0.00214664 -3.59765e-21)
(0.999873 0.00218933 7.89897e-21)
(0.999877 0.00222997 -3.58309e-21)
(0.999881 0.00226839 4.7483e-22)
(0.999887 0.0023043 4.72906e-22)
(0.999893 0.00233753 4.71395e-22)
(0.999901 0.00236789 -4.68852e-22)
(0.999908 0.00239515 4.19509e-21)
(0.999917 0.00241925 -3.25954e-21)
(0.999926 0.00244015 -1.38806e-21)
(0.999937 0.00245725 5.05885e-21)
(0.999947 0.00247025 -3.67292e-21)
(0.999959 0.00247946 -1.8245e-21)
(0.999971 0.00248471 3.62442e-21)
(0.999983 0.00248555 -7.22689e-21)
(0.999996 0.00248218 3.60148e-21)
(1.00001 0.00247442 1.7854e-21)
(1.00002 0.00246141 -3.7219e-24)
(1.00004 0.00243808 0)
(1.00022 0.00132274 3.0977e-21)
(1.00018 0.00131552 -1.03432e-21)
(1.00014 0.00131089 -4.12104e-21)
(1.0001 0.00131318 2.05474e-21)
(1.00005 0.00132364 -2.05443e-21)
(1.00001 0.00134141 0)
(0.999975 0.00136622 -2.04495e-21)
(0.999937 0.00139815 -6.12408e-21)
(0.999902 0.00143613 6.12562e-21)
(0.999868 0.00148062 1.01705e-21)
(0.999835 0.00153066 0)
(0.999805 0.00158613 -6.08182e-21)
(0.999776 0.00164689 1.10197e-23)
(0.99975 0.00171197 4.04577e-21)
(0.999725 0.00178157 0)
(0.999702 0.0018549 -1.00487e-21)
(0.999682 0.00193161 -1.00489e-21)
(0.999663 0.00201165 0)
(0.999647 0.00209395 -9.99973e-22)
(0.999633 0.00217852 -1.98899e-21)
(0.999621 0.00226497 1.98959e-21)
(0.999611 0.00235253 -2.48527e-22)
(0.999603 0.00244106 -2.47262e-22)
(0.999598 0.00253008 0)
(0.999595 0.00261899 3.82909e-23)
(0.999594 0.00270755 -2.14211e-22)
(0.999595 0.00279532 0)
(0.999599 0.00288173 0)
(0.999604 0.00296653 -1.93363e-21)
(0.999612 0.00304928 1.93326e-21)
(0.999622 0.00312953 -3.83848e-21)
(0.999634 0.00320694 3.8372e-21)
(0.999648 0.00328113 0)
(0.999664 0.00335172 0)
(0.999683 0.00341832 0)
(0.999703 0.00348064 -9.41608e-22)
(0.999725 0.00353829 -1.87671e-21)
(0.999749 0.00359091 0)
(0.999775 0.0036383 -9.2924e-22)
(0.999802 0.00367995 -9.18051e-22)
(0.999832 0.00371573 2.76966e-21)
(0.999863 0.00374523 0)
(0.999896 0.00376807 3.64223e-21)
(0.999931 0.00378428 -5.45218e-21)
(0.999968 0.00379309 0)
(1.00001 0.00379474 0)
(1.00005 0.00378866 0)
(1.00009 0.00377398 -1.78018e-21)
(1.00013 0.00374653 -1.76931e-21)
(1.00034 0.00124768 -2.06968e-21)
(1.00026 0.00124122 4.14226e-21)
(1.00018 0.00124388 4.13498e-21)
(1.0001 0.0012562 6.18255e-21)
(1.00002 0.00127978 -2.06543e-21)
(0.999937 0.00131358 -4.10471e-21)
(0.999861 0.00135734 8.20768e-21)
(0.999789 0.00141136 -3.90174e-24)
(0.999719 0.00147384 -2.04234e-21)
(0.999654 0.00154566 2.04476e-21)
(0.999592 0.00162533 0)
(0.999533 0.00171269 2.03075e-21)
(0.999479 0.00180769 -2.01952e-21)
(0.999429 0.00190868 8.10055e-21)
(0.999382 0.0020162 -8.08233e-21)
(0.99934 0.00212898 6.05791e-21)
(0.999301 0.0022465 -1.01134e-21)
(0.999267 0.00236893 1.00522e-21)
(0.999237 0.00249444 9.99248e-22)
(0.999212 0.00262321 -1.00007e-21)
(0.99919 0.00275476 0)
(0.999173 0.00288781 -1.48619e-21)
(0.999161 0.0030223 1.24124e-21)
(0.999153 0.00315759 9.88008e-22)
(0.999149 0.00329268 4.60676e-23)
(0.999149 0.00342733 9.16713e-23)
(0.999154 0.00356098 1.46418e-21)
(0.999163 0.00369269 -9.74893e-22)
(0.999177 0.00382217 1.93591e-21)
(0.999195 0.00394887 -1.93559e-21)
(0.999216 0.00407201 0)
(0.999242 0.00419123 4.78681e-21)
(0.999272 0.00430595 -3.82566e-21)
(0.999306 0.00441559 3.79523e-21)
(0.999344 0.00451968 -3.79383e-21)
(0.999385 0.00461775 0)
(0.999431 0.00470925 3.74329e-21)
(0.99948 0.00479369 -1.87424e-21)
(0.999533 0.00487078 0)
(0.999589 0.00493977 3.69608e-21)
(0.99965 0.00500054 -3.69125e-21)
(0.999713 0.00505249 1.83331e-21)
(0.999781 0.00509506 1.82443e-21)
(0.999851 0.00512829 5.44454e-21)
(0.999925 0.00515109 6.14296e-24)
(1 0.00516378 3.60083e-21)
(1.00008 0.0051654 1.78433e-21)
(1.00017 0.00515499 1.77306e-21)
(1.00026 0.00512965 1.77078e-21)
(1.00043 0.0009292 0)
(1.00031 0.000930236 -4.14821e-21)
(1.00018 0.000947184 -4.139e-21)
(1.00005 0.000976705 0)
(0.999911 0.00102098 -4.12843e-21)
(0.999781 0.00107867 9.72044e-24)
(0.999656 0.00114949 8.25616e-21)
(0.999537 0.001234 -2.0674e-21)
(0.999423 0.00132952 -1.00302e-23)
(0.999315 0.00143755 -6.14822e-21)
(0.999213 0.00155585 0)
(0.999118 0.00168433 -6.1246e-21)
(0.999028 0.00182304 2.04622e-21)
(0.998946 0.00196951 0)
(0.99887 0.00212475 -2.03361e-21)
(0.998801 0.00228689 9.60216e-24)
(0.998739 0.00245524 -2.01708e-21)
(0.998684 0.00263027 7.04852e-21)
(0.998636 0.00280921 -1.20335e-23)
(0.998595 0.00299249 -1.01254e-21)
(0.998561 0.00317955 -9.9892e-22)
(0.998535 0.00336848 1.98775e-21)
(0.998515 0.00355937 -1.98804e-21)
(0.998503 0.00375137 -2.45864e-22)
(0.998499 0.00394306 5.09178e-22)
(0.998501 0.00413421 -2.74965e-22)
(0.998511 0.0043241 9.79008e-22)
(0.998528 0.00451139 -9.77193e-22)
(0.998551 0.00469578 9.73723e-22)
(0.998582 0.00487656 1.9324e-21)
(0.99862 0.00505263 -5.78073e-21)
(0.998665 0.00522357 -9.44114e-22)
(0.998716 0.00538862 5.74727e-21)
(0.998774 0.00554697 1.90656e-21)
(0.998839 0.00569809 -3.78386e-21)
(0.99891 0.0058413 3.78157e-21)
(0.998987 0.00597588 8.10593e-24)
(0.999071 0.00610125 5.61061e-21)
(0.999161 0.00621699 -3.73894e-21)
(0.999257 0.00632214 -9.26815e-21)
(0.999358 0.00641657 3.68671e-21)
(0.999466 0.00649948 1.83446e-21)
(0.99958 0.00657018 7.2906e-21)
(0.999699 0.00662877 -3.63724e-21)
(0.999824 0.00667377 -8.35537e-24)
(0.999954 0.0067057 -9.07594e-24)
(1.00009 0.00672315 0)
(1.00024 0.00672522 -3.5575e-21)
(1.00039 0.00671096 -3.53254e-21)
(1.00048 0.000353592 0)
(1.00031 0.000368443 -6.27196e-21)
(1.00012 0.000408131 6.26295e-21)
(0.999914 0.000463885 0)
(0.999713 0.000538611 0)
(0.999518 0.0006303 -4.14425e-21)
(0.99933 0.000738656 -2.78938e-24)
(0.99915 0.000864639 -4.1442e-21)
(0.998979 0.00100444 -8.25826e-24)
(0.998816 0.00116034 0)
(0.998663 0.00132921 0)
(0.99852 0.00151101 2.04699e-21)
(0.998386 0.00170598 0)
(0.998262 0.00191064 0)
(0.998148 0.00212659 -2.03832e-21)
(0.998045 0.00235125 4.08505e-21)
(0.997952 0.00258374 2.03559e-21)
(0.997869 0.00282493 0)
(0.997798 0.00307089 2.00467e-21)
(0.997737 0.00332239 -5.03917e-21)
(0.997687 0.00357879 -2.00631e-21)
(0.997648 0.00383744 -1.99617e-21)
(0.99762 0.00409861 1.99637e-21)
(0.997603 0.00436123 1.3575e-24)
(0.997597 0.00462338 1.55093e-23)
(0.997602 0.00488483 2.46184e-22)
(0.997618 0.00514474 -4.92125e-22)
(0.997644 0.00540127 0)
(0.997682 0.0056541 -9.7275e-22)
(0.99773 0.00590239 0)
(0.997789 0.00614463 0)
(0.997858 0.0063804 -1.92907e-21)
(0.997937 0.00660869 -7.65903e-21)
(0.998027 0.00682843 2.22593e-23)
(0.998126 0.00703905 1.90408e-21)
(0.998235 0.00723967 0)
(0.998354 0.00742934 -1.87875e-21)
(0.998483 0.00760741 -3.7481e-21)
(0.99862 0.00777332 3.72136e-21)
(0.998767 0.00792588 7.41304e-21)
(0.998923 0.00806502 -7.37403e-21)
(0.999087 0.00818966 2.2374e-24)
(0.99926 0.00829902 -3.64868e-21)
(0.999442 0.00839326 -5.33033e-25)
(0.999632 0.00847054 0)
(0.999831 0.00853157 -3.59107e-21)
(1.00004 0.00857444 -1.78087e-21)
(1.00026 0.00859849 1.77954e-21)
(1.0005 0.00860584 3.53474e-21)
(1.00045 -0.00049354 0)
(1.00021 -0.000440357 4.19314e-21)
(0.999931 -0.000404879 -1.25983e-20)
(0.99966 -0.00031248 0)
(0.999379 -0.0001933 0)
(0.999103 -5.42529e-05 -8.36436e-21)
(0.998837 0.000105495 8.33476e-21)
(0.998581 0.000287197 -4.178e-21)
(0.998338 0.000485782 -8.39814e-24)
(0.998107 0.000704577 4.15251e-21)
(0.99789 0.000939391 0)
(0.997686 0.00119026 0)
(0.997495 0.00145766 4.13894e-21)
(0.997319 0.00173689 0)
(0.997157 0.00203031 0)
(0.99701 0.0023345 -4.09475e-21)
(0.996878 0.00264833 1.51794e-23)
(0.996761 0.00297315 0)
(0.99666 0.00330372 2.0231e-21)
(0.996574 0.00364119 5.06079e-21)
(0.996503 0.00398483 -2.02764e-21)
(0.996448 0.00433113 0)
(0.996409 0.00468057 -1.00007e-21)
(0.996386 0.00503183 1.24946e-21)
(0.996379 0.0053824 -5.44895e-22)
(0.996387 0.00573207 -2.48546e-22)
(0.996411 0.00607982 4.8983e-22)
(0.99645 0.00642328 -9.84747e-22)
(0.996506 0.00676209 0)
(0.996576 0.00709522 -3.89931e-21)
(0.996661 0.00742074 5.81574e-21)
(0.996762 0.00773814 1.91023e-21)
(0.996877 0.00804623 -7.68345e-24)
(0.997007 0.00834358 1.9074e-21)
(0.997151 0.00862955 -1.91553e-21)
(0.997309 0.00890309 -3.77899e-21)
(0.997481 0.00916296 7.53611e-21)
(0.997666 0.00940841 -3.75373e-21)
(0.997864 0.00963875 7.47014e-21)
(0.998075 0.00985254 6.21255e-24)
(0.998299 0.0100498 7.37838e-21)
(0.998535 0.0102291 -3.66666e-21)
(0.998783 0.0103896 0)
(0.999042 0.0105316 -3.76435e-25)
(0.999314 0.0106527 7.21352e-21)
(0.999598 0.0107541 0)
(0.999895 0.010833 0)
(1.00021 0.0108895 6.19908e-21)
(1.00054 0.0109301 8.83324e-22)
(1.00032 -0.00176927 1.05846e-21)
(0.999973 -0.00166375 7.44011e-21)
(0.999601 -0.00148838 8.42587e-21)
(0.999221 -0.00133428 -8.48296e-21)
(0.99884 -0.00120547 0)
(0.99847 -0.00100952 -1.11442e-23)
(0.998116 -0.000782431 -4.23931e-21)
(0.997769 -0.000528756 -4.22723e-21)
(0.997438 -0.000254359 1.25942e-20)
(0.997123 4.54011e-05 -4.18678e-21)
(0.996825 0.000364867 0)
(0.996546 0.000704151 8.34852e-21)
(0.996286 0.00106396 -8.30012e-21)
(0.996044 0.00143821 2.55334e-23)
(0.995823 0.00183007 8.27281e-21)
(0.995622 0.00223515 -2.07693e-21)
(0.995441 0.00265203 -2.02322e-21)
(0.995281 0.00308257 4.10815e-21)
(0.995142 0.00352006 0)
(0.995024 0.00396607 -2.03051e-21)
(0.994928 0.0044197 2.03222e-21)
(0.994853 0.00487653 2.02081e-21)
(0.994801 0.00533721 -2.02077e-21)
(0.99477 0.00580012 2.52258e-22)
(0.994761 0.00626213 3.11617e-23)
(0.994774 0.00672293 7.45576e-22)
(0.994808 0.00718133 -2.6668e-24)
(0.994864 0.00763439 0)
(0.994942 0.00808157 0)
(0.995041 0.00852167 -1.16946e-24)
(0.99516 0.00895226 -1.93492e-21)
(0.995301 0.0093727 3.88707e-21)
(0.995462 0.00978157 -3.8596e-21)
(0.995643 0.010177 3.82852e-21)
(0.995843 0.0105582 -7.6563e-21)
(0.996063 0.0109241 1.78382e-23)
(0.996302 0.0112729 3.78611e-21)
(0.996559 0.0116039 3.74689e-21)
(0.996834 0.0119161 -7.48828e-21)
(0.997126 0.0122079 -7.43382e-21)
(0.997434 0.0124793 -3.70201e-21)
(0.99776 0.0127286 -3.67887e-21)
(0.998101 0.0129549 0)
(0.998458 0.0131585 -3.62477e-21)
(0.99883 0.0133367 -4.37669e-24)
(0.999219 0.0134909 7.15825e-21)
(0.999626 0.0136176 -8.88624e-21)
(1.00005 0.0137175 1.75755e-21)
(1.00051 0.0138039 0)
(1.00002 -0.00343116 0)
(0.999575 -0.00327671 -8.50588e-21)
(0.999087 -0.0030602 0)
(0.998572 -0.00282837 8.48856e-21)
(0.998066 -0.00256452 4.25348e-21)
(0.997572 -0.00224934 -8.50419e-21)
(0.997095 -0.00194595 1.27104e-20)
(0.996635 -0.00163134 4.21938e-21)
(0.996201 -0.00126472 -4.21434e-21)
(0.995785 -0.000862505 0)
(0.99539 -0.000436308 4.21153e-21)
(0.995018 1.46882e-05 -8.401e-21)
(0.994671 0.000491217 4.22013e-21)
(0.994349 0.000985486 -4.16803e-21)
(0.994053 0.00150162 2.9211e-23)
(0.993784 0.00203406 4.17069e-21)
(0.993543 0.002581 -8.31101e-21)
(0.993328 0.00314482 0)
(0.993142 0.00371721 4.11992e-21)
(0.992985 0.00430015 -4.11993e-21)
(0.992857 0.00489251 -1.01973e-21)
(0.992758 0.00548886 0)
(0.992688 0.00608995 1.02192e-21)
(0.992648 0.0066938 2.53163e-22)
(0.992637 0.0072966 -5.36794e-22)
(0.992656 0.00789783 7.52885e-22)
(0.992704 0.00849604 4.96205e-22)
(0.992782 0.00908766 -9.96662e-22)
(0.992889 0.00967186 0)
(0.993024 0.0102472 -1.96442e-21)
(0.993188 0.0108106 3.93e-21)
(0.99338 0.0113613 0)
(0.993599 0.0118975 1.93257e-21)
(0.993846 0.0124168 0)
(0.994119 0.0129183 3.82365e-21)
(0.994417 0.0134006 -7.62117e-21)
(0.994741 0.0138616 3.77598e-21)
(0.995089 0.0143002 -2.14734e-23)
(0.99546 0.0147155 3.71364e-21)
(0.995854 0.0151053 -3.72948e-21)
(0.99627 0.01547 3.69146e-21)
(0.996707 0.0158072 7.34531e-21)
(0.997165 0.0161159 0)
(0.997643 0.0163968 0)
(0.99814 0.0166465 -7.20384e-21)
(0.998658 0.0168668 -1.4301e-20)
(0.999199 0.0170535 1.42046e-20)
(0.999768 0.0172081 -7.9462e-21)
(1.00037 0.017353 7.8763e-21)
(0.999502 -0.00560703 0)
(0.998933 -0.00538038 8.65708e-21)
(0.998306 -0.00508951 8.64423e-21)
(0.997654 -0.00476988 1.29497e-20)
(0.997001 -0.00440773 -1.2943e-20)
(0.996355 -0.00400734 -4.29213e-21)
(0.995723 -0.00357682 1.29318e-20)
(0.995121 -0.00309504 -4.28208e-21)
(0.994547 -0.00259384 4.2862e-21)
(0.994 -0.00208266 0)
(0.993483 -0.00153411 8.58368e-21)
(0.993002 -0.00094512 0)
(0.992547 -0.000323554 -4.22149e-21)
(0.992123 0.000320762 -4.26291e-21)
(0.991734 0.00099277 5.03671e-23)
(0.991379 0.00168528 0)
(0.991061 0.00239589 4.20972e-21)
(0.990779 0.00312743 8.40176e-21)
(0.990533 0.00386995 0)
(0.990326 0.00462577 2.07402e-21)
(0.990157 0.00539331 -2.07337e-21)
(0.990027 0.00616617 -2.05726e-21)
(0.989936 0.00694503 2.06827e-21)
(0.989884 0.0077274 -4.11154e-24)
(0.989871 0.00850878 -5.09763e-22)
(0.989898 0.00928819 -2.24169e-22)
(0.989965 0.0100638 -5.04835e-22)
(0.99007 0.0108314 1.00725e-21)
(0.990215 0.0115895 0)
(0.990398 0.0123365 1.97744e-21)
(0.990619 0.0130685 -3.94041e-21)
(0.990878 0.0137843 0)
(0.991173 0.0144817 0)
(0.991504 0.0151577 3.86078e-21)
(0.99187 0.015811 -7.69885e-21)
(0.99227 0.01644 3.83791e-21)
(0.992702 0.0170419 3.81064e-21)
(0.993166 0.0176154 0)
(0.993661 0.0181595 1.12474e-20)
(0.994185 0.0186714 -7.44865e-21)
(0.994737 0.0191517 -3.69483e-21)
(0.995315 0.0195974 1.09527e-23)
(0.995919 0.0200076 -7.298e-21)
(0.996549 0.020383 -7.23739e-21)
(0.997202 0.0207196 -7.18796e-21)
(0.997881 0.0210201 1.11476e-23)
(0.998588 0.0212787 -1.66822e-23)
(0.99933 0.0214986 0)
(1.00012 0.021714 -1.39627e-20)
(0.998746 -0.0084517 0)
(0.998013 -0.00813302 2.26371e-21)
(0.997212 -0.00773826 -1.08178e-20)
(0.996384 -0.00730787 -8.65073e-21)
(0.99555 -0.0068288 8.64259e-21)
(0.994725 -0.00630674 4.39845e-21)
(0.993921 -0.00574024 -4.29057e-21)
(0.993143 -0.00512034 0)
(0.992394 -0.00446907 0)
(0.991681 -0.00377458 8.71068e-21)
(0.991009 -0.0030196 -8.58878e-21)
(0.990376 -0.00225857 4.30866e-21)
(0.989783 -0.00148368 -4.30523e-21)
(0.989231 -0.000652943 4.30065e-21)
(0.988723 0.000215284 4.30498e-21)
(0.98826 0.00110894 -4.2715e-21)
(0.987843 0.00202552 -4.22636e-21)
(0.987473 0.00296826 -4.21011e-21)
(0.987151 0.00392564 4.21443e-21)
(0.986879 0.00490017 -4.21349e-21)
(0.986657 0.00588965 0)
(0.986486 0.0068867 2.09976e-21)
(0.986368 0.0078917 -2.06723e-21)
(0.9863 0.0089014 1.54862e-21)
(0.986286 0.00991056 0)
(0.986324 0.0109174 1.02293e-21)
(0.986414 0.0119195 0)
(0.986556 0.012912 -1.00603e-21)
(0.986751 0.0138924 1.7504e-23)
(0.986997 0.0148584 1.1536e-23)