/*--------------------------------*- C++ -*----------------------------------*\
| =========                 |                                                 |
| \\      /  F ield         | OpenFOAM: The Open Source CFD Toolbox           |
|  \\    /   O peration     | Version:  2312                                  |
|   \\  /    A nd           | Website:  www.openfoam.com                      |
|    \\/     M anipulation  |                                                 |
\*---------------------------------------------------------------------------*/
FoamFile
{
    version     2.0;
    format      ascii;
    arch        "LSB;label=32;scalar=64";
    class       volVectorField;
    location    "32.235135870277666";
    object      U;
}
// * * * * * * * * * * * * * * * * * * * * * * * * * * * * * * * * * * * * * //

dimensions      [0 1 -1 0 0 0 0];

internalField   nonuniform List<vector> 
21039
(
(0.913743 0.0474107 0)
(1.02608 0.0664877 0)
(1.00449 0.0295198 0)
(1.00177 0.0189056 0)
(1.00121 0.0138987 0)
(1.0008 0.0105198 0)
(1.00055 0.00819373 0)
(1.0004 0.00655134 0)
(1.0003 0.0053418 0)
(1.00024 0.00442121 0)
(1.00019 0.00370408 0)
(1.00015 0.00313543 0)
(1.00012 0.00267824 0)
(1.0001 0.00230693 0)
(1.00008 0.00200338 0)
(1.00006 0.00175445 0)
(1.00005 0.00155046 0)
(1.00004 0.00138407 0)
(1.00003 0.00124964 0)
(1.00002 0.00114259 0)
(1.00002 0.00105906 0)
(1.00001 0.000996993 0)
(1.00001 0.00095785 0)
(1.00001 0.000923333 0)
(1.00001 0.000897591 0)
(1.00001 0.000877394 0)
(1.00001 0.000858455 0)
(1.00001 0.000831163 0)
(1.00002 0.000774697 0)
(0.794493 0.0730401 0)
(1.07453 0.121709 0)
(1.03989 0.0709087 0)
(1.0181 0.0497417 0)
(1.01128 0.0383312 0)
(1.00764 0.0295536 0)
(1.00538 0.0232585 0)
(1.00396 0.0186856 0)
(1.003 0.0152341 0)
(1.00233 0.0125624 0)
(1.00184 0.0104541 0)
(1.00148 0.00876238 0)
(1.0012 0.00738648 0)
(1.00099 0.00625595 0)
(1.00081 0.00532046 0)
(1.00067 0.00454341 0)
(1.00055 0.00389777 0)
(1.00045 0.00336327 0)
(1.00036 0.00292446 0)
(1.00028 0.0025693 0)
(1.00022 0.00228778 0)
(1.00016 0.00207346 0)
(1.00011 0.00192977 0)
(1.00008 0.00182588 0)
(1.00007 0.00176516 0)
(1.00007 0.00173002 0)
(1.00008 0.0017065 0)
(1.00009 0.0016761 0)
(1.00009 0.0016108 0)
(0.667237 0.0572816 0)
(1.08302 0.124865 0)
(1.08436 0.0904015 0)
(1.04627 0.0677554 0)
(1.02905 0.0542512 0)
(1.02024 0.0433015 0)
(1.01468 0.0350059 0)
(1.01098 0.0286374 0)
(1.00842 0.0236224 0)
(1.0066 0.019629 0)
(1.00527 0.0164116 0)
(1.00426 0.0137878 0)
(1.00349 0.0116261 0)
(1.00288 0.00983115 0)
(1.00239 0.00833278 0)
(1.00198 0.00707891 0)
(1.00164 0.00603053 0)
(1.00135 0.00515811 0)
(1.0011 0.00443912 0)
(1.00088 0.00385616 0)
(1.00068 0.00339497 0)
(1.00051 0.0030451 0)
(1.00036 0.00281143 0)
(1.00025 0.0026567 0)
(1.00019 0.00257693 0)
(1.00016 0.00253847 0)
(1.00016 0.0025182 0)
(1.00017 0.00249247 0)
(1.00018 0.00243069 0)
(0.540889 0.0352766 0)
(1.05067 0.110913 0)
(1.11588 0.0971727 0)
(1.07608 0.0764295 0)
(1.0492 0.0622857 0)
(1.03522 0.0511981 0)
(1.02637 0.0425473 0)
(1.0202 0.0355468 0)
(1.01578 0.0297923 0)
(1.01254 0.0250585 0)
(1.01011 0.0211409 0)
(1.00826 0.0178755 0)
(1.00681 0.0151378 0)
(1.00566 0.0128323 0)
(1.00472 0.0108858 0)
(1.00394 0.00924201 0)
(1.00328 0.00785777 0)
(1.00271 0.00669987 0)
(1.00222 0.00574267 0)
(1.00177 0.00496632 0)
(1.00138 0.00435474 0)
(1.00102 0.00389503 0)
(1.0007 0.00359315 0)
(1.00047 0.00340717 0)
(1.00032 0.0033225 0)
(1.00024 0.00329102 0)
(1.00022 0.00328209 0)
(1.00022 0.00326791 0)
(1.00023 0.0032138 0)
(0.443987 0.0186786 0)
(0.997513 0.0919742 0)
(1.1289 0.0958575 0)
(1.10137 0.0796984 0)
(1.06815 0.0656757 0)
(1.04966 0.0550291 0)
(1.03815 0.0466814 0)
(1.02993 0.0396887 0)
(1.02384 0.0337606 0)
(1.01925 0.0287478 0)
(1.01573 0.0244918 0)
(1.01299 0.0208644 0)
(1.01081 0.0177653 0)
(1.00905 0.0151141 0)
(1.00759 0.0128461 0)
(1.00637 0.0109104 0)
(1.00533 0.00926672 0)
(1.00442 0.00788354 0)
(1.00362 0.00673614 0)
(1.00289 0.00580529 0)
(1.00224 0.00507557 0)
(1.00164 0.00453361 0)
(1.0011 0.00418702 0)
(1.00069 0.00399008 0)
(1.00043 0.00391625 0)
(1.00028 0.00390479 0)
(1.00022 0.00391878 0)
(1.00021 0.00392646 0)
(1.0002 0.00388671 0)
(0.378367 0.00811212 0)
(0.939308 0.0719513 0)
(1.12675 0.0885325 0)
(1.12069 0.0789163 0)
(1.08535 0.0661977 0)
(1.06288 0.0562518 0)
(1.0491 0.0484359 0)
(1.03928 0.0417439 0)
(1.03185 0.0359401 0)
(1.02612 0.0309205 0)
(1.02163 0.0265647 0)
(1.01806 0.0227783 0)
(1.01518 0.0194862 0)
(1.0128 0.0166261 0)
(1.01082 0.0141469 0)
(1.00913 0.0120074 0)
(1.00767 0.0101745 0)
(1.00638 0.00862203 0)
(1.00523 0.00732923 0)
(1.00418 0.0062801 0)
(1.00322 0.00546204 0)
(1.00233 0.00486327 0)
(1.00152 0.00449415 0)
(1.0009 0.00430595 0)
(1.00049 0.00425924 0)
(1.00025 0.00428189 0)
(1.00014 0.00433149 0)
(1.0001 0.00437232 0)
(1.00007 0.00435501 0)
(0.333091 0.00234131 0)
(0.882845 0.0539369 0)
(1.11364 0.0780875 0)
(1.13364 0.0751295 0)
(1.10066 0.0646264 0)
(1.07505 0.0556001 0)
(1.05918 0.0484436 0)
(1.04804 0.0422237 0)
(1.03953 0.0367147 0)
(1.03286 0.0318452 0)
(1.02755 0.0275345 0)
(1.02326 0.0237198 0)
(1.01973 0.0203492 0)
(1.01678 0.0173782 0)
(1.01428 0.0147697 0)
(1.01212 0.012494 0)
(1.01022 0.0105268 0)
(1.00853 0.00884909 0)
(1.007 0.00744619 0)
(1.00559 0.00630709 0)
(1.00428 0.00542378 0)
(1.00306 0.00478788 0)
(1.00194 0.00441371 0)
(1.00106 0.0042502 0)
(1.00047 0.00424454 0)
(1.00012 0.00431394 0)
(0.999943 0.00441103 0)
(0.99987 0.0044961 0)
(0.99981 0.00450983 0)
(0.300747 -0.000187915 0)
(0.830961 0.0396482 0)
(1.09328 0.0671552 0)
(1.14021 0.0696855 0)
(1.11356 0.0617217 0)
(1.08616 0.0536937 0)
(1.06844 0.0471976 0)
(1.05618 0.0415085 0)
(1.04682 0.0363774 0)
(1.03938 0.031745 0)
(1.03338 0.0275646 0)
(1.02845 0.0238014 0)
(1.02435 0.020424 0)
(1.02087 0.0174049 0)
(1.01788 0.014721 0)
(1.01526 0.0123537 0)
(1.01294 0.0102883 0)
(1.01083 0.00851395 0)
(1.0089 0.00702297 0)
(1.0071 0.00581062 0)
(1.00541 0.00487478 0)
(1.00382 0.00421199 0)
(1.00233 0.0038418 0)
(1.00116 0.00371192 0)
(1.00036 0.00375634 0)
(0.999864 0.003882 0)
(0.999601 0.00403682 0)
(0.999472 0.00417662 0)
(0.999362 0.0042304 0)
(0.277745 -0.000984209 0)
(0.78518 0.0291245 0)
(1.06893 0.0570985 0)
(1.14126 0.0636229 0)
(1.12375 0.0581492 0)
(1.0961 0.0511052 0)
(1.07689 0.0451706 0)
(1.06369 0.0399597 0)
(1.05364 0.0352016 0)
(1.0456 0.0308276 0)
(1.03903 0.0268107 0)
(1.03358 0.0231355 0)
(1.02897 0.0197872 0)
(1.02502 0.0167527 0)
(1.02158 0.0140212 0)
(1.01852 0.0115848 0)
(1.01577 0.00943806 0)
(1.01325 0.00757846 0)
(1.01091 0.00600592 0)
(1.0087 0.00472276 0)
(1.0066 0.00373373 0)
(1.00459 0.00304165 0)
(1.0027 0.00267272 0)
(1.00118 0.00257543 0)
(1.00013 0.00267154 0)
(0.999463 0.00285776 0)
(0.999085 0.00307704 0)
(0.998873 0.00328018 0)
(0.998691 0.00338298 0)
(0.261301 -0.00103112 0)
(0.745903 0.0216606 0)
(1.04318 0.0483383 0)
(1.1381 0.0575056 0)
(1.1314 0.0542914 0)
(1.10492 0.0481981 0)
(1.08462 0.0427145 0)
(1.07061 0.0378794 0)
(1.06003 0.0334339 0)
(1.05152 0.0292889 0)
(1.0445 0.0254245 0)
(1.03861 0.0218366 0)
(1.03357 0.0185216 0)
(1.02921 0.0154769 0)
(1.02535 0.0127019 0)
(1.02189 0.0101975 0)
(1.01873 0.00796707 0)
(1.01579 0.00601582 0)
(1.01303 0.00435139 0)
(1.01039 0.00298373 0)
(1.00785 0.00192548 0)
(1.00538 0.00118658 0)
(1.00304 0.000800945 0)
(1.00113 0.000721591 0)
(0.999786 0.000860166 0)
(0.998909 0.00110229 0)
(0.998378 0.0013858 0)
(0.998047 0.00165664 0)
(0.997759 0.00181615 0)
(0.249099 -0.000815734 0)
(0.712643 0.0164692 0)
(1.01765 0.0409023 0)
(1.13199 0.0516213 0)
(1.13684 0.050334 0)
(1.11277 0.0451455 0)
(1.09181 0.0400306 0)
(1.07709 0.0354702 0)
(1.06605 0.0312585 0)
(1.05718 0.0272885 0)
(1.0498 0.0235392 0)
(1.04355 0.0200119 0)
(1.03816 0.0167098 0)
(1.03343 0.0136377 0)
(1.02921 0.0108023 0)
(1.02537 0.00821188 0)
(1.02182 0.00587695 0)
(1.01848 0.00381024 0)
(1.01529 0.00202689 0)
(1.01221 0.000543764 0)
(1.0092 -0.000618799 0)
(1.00625 -0.00144208 0)
(1.0034 -0.0018819 0)
(1.00105 -0.0019766 0)
(0.999357 -0.00182043 0)
(0.998218 -0.00153984 0)
(0.997488 -0.00120687 0)
(0.996994 -0.000873954 0)
(0.996558 -0.0006293 0)
(0.239622 -0.000561421 0)
(0.684569 0.0128658 0)
(0.993273 0.0346735 0)
(1.12393 0.0461219 0)
(1.14041 0.0463859 0)
(1.11974 0.0420333 0)
(1.09858 0.0372295 0)
(1.08326 0.0328577 0)
(1.07183 0.0288016 0)
(1.06266 0.024945 0)
(1.055 0.0212615 0)
(1.04847 0.0177536 0)
(1.04278 0.0144284 0)
(1.03774 0.0112954 0)
(1.03319 0.00836656 0)
(1.029 0.00565578 0)
(1.02509 0.00317955 0)
(1.02136 0.000957006 0)
(1.01775 -0.000991786 0)
(1.01422 -0.00264246 0)
(1.01072 -0.00396518 0)
(1.00725 -0.00493158 0)
(1.00386 -0.00548579 0)
(1.001 -0.00565281 0)
(0.998902 -0.0055241 0)
(0.997439 -0.00523371 0)
(0.996447 -0.00486366 0)
(0.995728 -0.00448552 0)
(0.995089 -0.00422159 0)
(0.231997 -0.000358217 0)
(0.660853 0.0103143 0)
(0.97054 0.029478 0)
(1.11468 0.0410737 0)
(1.14243 0.0425227 0)
(1.12593 0.0389182 0)
(1.10504 0.0343818 0)
(1.08924 0.0301279 0)
(1.07746 0.0261548 0)
(1.06805 0.0223494 0)
(1.06017 0.0186782 0)
(1.05341 0.0151417 0)
(1.04748 0.0117484 0)
(1.04218 0.0085107 0)
(1.03735 0.00544374 0)
(1.03285 0.00256564 0)
(1.0286 -0.000103745 0)
(1.0245 -0.00254127 0)
(1.02049 -0.00471948 0)
(1.0165 -0.006606 0)
(1.0125 -0.00816365 0)
(1.00848 -0.00935496 0)
(1.0045 -0.0101125 0)
(1.00109 -0.0104415 0)
(0.99852 -0.0104192 0)
(0.996659 -0.0101835 0)
(0.99532 -0.00982175 0)
(0.994286 -0.00942212 0)
(0.99336 -0.00914233 0)
(0.225718 -0.000223722 0)
(0.640763 0.00844131 0)
(0.94967 0.0251363 0)
(1.10485 0.0364862 0)
(1.14325 0.0387948 0)
(1.13143 0.0358417 0)
(1.11126 0.0315384 0)
(1.09513 0.0273469 0)
(1.08305 0.0233932 0)
(1.07344 0.0195804 0)
(1.0654 0.015868 0)
(1.05847 0.0122525 0)
(1.05235 0.00874181 0)
(1.04684 0.00534917 0)
(1.04177 0.00209108 0)
(1.03701 -0.0010138 0)
(1.03246 -0.00394261 0)
(1.02802 -0.00666691 0)
(1.02362 -0.00915289 0)
(1.01919 -0.0113616 0)
(1.01469 -0.0132496 0)
(1.01009 -0.0147722 0)
(1.0055 -0.0158531 0)
(1.0015 -0.0164742 0)
(0.998396 -0.0166835 0)
(0.996057 -0.0166144 0)
(0.994265 -0.016354 0)
(0.992797 -0.0160021 0)
(0.991465 -0.0157418 0)
(0.220461 -0.000148223 0)
(0.623687 0.00701607 0)
(0.930717 0.0215168 0)
(1.09482 0.0323685 0)
(1.14309 0.0352495 0)
(1.13629 0.0328365 0)
(1.11725 0.0287318 0)
(1.10095 0.0245603 0)
(1.08863 0.0205737 0)
(1.07886 0.0167013 0)
(1.0707 0.0128978 0)
(1.06364 0.00915438 0)
(1.05739 0.0054766 0)
(1.05172 0.00187737 0)
(1.04647 -0.00163049 0)
(1.0415 -0.00502784 0)
(1.03669 -0.00828686 0)
(1.03195 -0.0113763 0)
(1.02719 -0.0142575 0)
(1.02233 -0.0168853 0)
(1.01733 -0.0192105 0)
(1.01217 -0.021184 0)
(1.00697 -0.0227275 0)
(1.0024 -0.0238088 0)
(0.998782 -0.0244377 0)
(0.995938 -0.0247298 0)
(0.993618 -0.0247533 0)
(0.991592 -0.0246004 0)
(0.989712 -0.024454 0)
(0.21637 -0.000100114 0)
(0.610169 0.00598522 0)
(0.914905 0.018703 0)
(1.08575 0.0289604 0)
(1.14241 0.0321762 0)
(1.14037 0.0301771 0)
(1.12269 0.0262318 0)
(1.1064 0.0220545 0)
(1.0939 0.0180052 0)
(1.08404 0.0140428 0)
(1.07581 0.0101188 0)
(1.06869 0.00621815 0)
(1.06237 0.00234209 0)
(1.05662 -0.00150122 0)
(1.05127 -0.0053009 0)
(1.04616 -0.00903835 0)
(1.04118 -0.0126864 0)
(1.0362 -0.0162122 0)
(1.03115 -0.0195736 0)
(1.02594 -0.0227193 0)
(1.0205 -0.0255916 0)
(1.01483 -0.0281328 0)
(1.00908 -0.0302584 0)
(1.00403 -0.0319268 0)
(1.00001 -0.0331322 0)
(0.996766 -0.0339942 0)
(0.993943 -0.0345519 0)
(0.99127 -0.0348421 0)
(0.988635 -0.0349835 0)
(0.213384 -7.23576e-05 0)
(0.60028 0.00527983 0)
(0.902862 0.0166769 0)
(1.07839 0.0263879 0)
(1.14154 0.0297826 0)
(1.14354 0.0280775 0)
(1.12718 0.0242476 0)
(1.11101 0.0200524 0)
(1.09842 0.0159362 0)
(1.0885 0.0118829 0)
(1.08025 0.00784006 0)
(1.07313 0.00378604 0)
(1.06681 -0.000283139 0)
(1.06104 -0.00436507 0)
(1.05566 -0.00845196 0)
(1.0505 -0.0125283 0)
(1.04543 -0.0165711 0)
(1.04033 -0.0205495 0)
(1.03509 -0.0244221 0)
(1.02963 -0.0281343 0)
(1.02386 -0.0316195 0)
(1.01779 -0.0348066 0)
(1.0116 -0.0375833 0)
(1.0062 -0.0398689 0)
(1.00197 -0.0416575 0)
(0.998589 -0.0431525 0)
(0.995605 -0.0444749 0)
(0.992618 -0.0456476 0)
(0.989494 -0.0465227 0)
(0.21109 -2.88215e-05 0)
(0.592725 0.00479761 0)
(0.893388 0.0152024 0)
(1.0723 0.0244346 0)
(1.14059 0.0279203 0)
(1.14601 0.0264327 0)
(1.1309 0.0226973 0)
(1.11491 0.0184916 0)
(1.10226 0.0143222 0)
(1.09232 0.0101924 0)
(1.08409 0.00604679 0)
(1.077 0.00185781 0)
(1.0707 -0.00238346 0)
(1.06496 -0.00667973 0)
(1.0596 -0.0110282 0)
(1.05444 -0.0154188 0)
(1.04935 -0.0198353 0)
(1.04421 -0.0242528 0)
(1.03888 -0.0286351 0)
(1.03326 -0.0329301 0)
(1.02728 -0.0370679 0)
(1.02091 -0.0409667 0)
(1.01436 -0.0444725 0)
(1.00862 -0.0473857 0)
(1.00421 -0.0496153 0)
(1.00086 -0.0514327 0)
(0.998196 -0.0532012 0)
(0.995891 -0.0552991 0)
(0.993364 -0.057179 0)
(0.209648 -3.85928e-05 0)
(0.587554 0.00442267 0)
(0.886675 0.0141486 0)
(1.0679 0.0230456 0)
(1.13994 0.0265742 0)
(1.14797 0.0251983 0)
(1.13387 0.0214956 0)
(1.11807 0.0172708 0)
(1.10543 0.013063 0)
(1.0955 0.00887564 0)
(1.08731 0.00464612 0)
(1.08027 0.000342921 0)
(1.07404 -0.00404654 0)
(1.06837 -0.00852961 0)
(1.06306 -0.013109 0)
(1.05796 -0.0177822 0)
(1.05292 -0.0225416 0)
(1.04781 -0.0273714 0)
(1.04249 -0.0322451 0)
(1.03685 -0.0371203 0)
(1.0308 -0.041935 0)
(1.02432 -0.0466187 0)
(1.01762 -0.051008 0)
(1.01175 -0.0547534 0)
(1.00722 -0.0575427 0)
(1.00386 -0.0594284 0)
(1.00141 -0.060446 0)
(0.999863 -0.0612913 0)
(1.00006 -0.0658624 0)
(1.00002 0.000782834 0)
(1.00002 0.000783731 0)
(1.00001 0.000779941 0)
(1.00001 0.000777123 1.03438e-21)
(1.00001 0.000776315 5.15925e-21)
(1.00001 0.000777342 -9.28388e-21)
(1.00001 0.000780036 5.15619e-21)
(1.00001 0.000784292 -4.10876e-21)
(1 0.000789953 5.24664e-22)
(1 0.000797033 4.1072e-21)
(1 0.000805368 0)
(1 0.000814937 -4.59351e-21)
(0.999999 0.000825633 5.21458e-22)
(0.999998 0.000837324 4.07872e-21)
(0.999997 0.00084999 0)
(0.999995 0.000863473 0)
(0.999994 0.000877721 -4.04228e-21)
(0.999993 0.000892613 4.04483e-21)
(0.999992 0.000907988 0)
(0.999991 0.000923835 -2.00685e-21)
(0.99999 0.000939986 2.13304e-21)
(0.999989 0.000956323 1.8713e-21)
(0.999988 0.000972788 -2.99226e-21)
(0.999987 0.000989216 9.64506e-22)
(0.999987 0.00100551 3.09207e-23)
(0.999986 0.0010216 -6.18054e-23)
(0.999986 0.00103732 8.60028e-22)
(0.999985 0.00105258 -9.83057e-22)
(0.999985 0.00106736 0)
(0.999985 0.0010814 0)
(0.999985 0.00109463 -2.42732e-22)
(0.999985 0.00110709 -2.41767e-22)
(0.999985 0.00111866 -4.08584e-21)
(0.999985 0.0011293 3.3627e-21)
(0.999985 0.00113889 -4.29029e-21)
(0.999986 0.0011474 4.28491e-21)
(0.999986 0.0011548 -3.30611e-21)
(0.999987 0.00116096 3.30465e-21)
(0.999988 0.00116591 4.69046e-22)
(0.999989 0.00116953 4.66889e-22)
(0.99999 0.00117181 -4.64699e-22)
(0.999991 0.00117272 0)
(0.999992 0.00117217 0)
(0.999993 0.0011702 0)
(0.999995 0.00116672 0)
(0.999996 0.00116192 0)
(0.999998 0.00115561 1.80267e-21)
(0.999999 0.00114703 -1.79961e-21)
(1 0.00113238 0)
(1.00009 0.00161896 0)
(1.00007 0.00162029 2.08654e-21)
(1.00006 0.00161899 -2.07973e-21)
(1.00004 0.00162159 -1.03808e-21)
(1.00003 0.0016292 -1.03832e-21)
(1.00001 0.00164125 -3.10531e-21)
(1 0.00165744 5.18389e-21)
(0.999988 0.00167775 0)
(0.999975 0.00170166 -5.16003e-22)
(0.999963 0.00172929 -1.03109e-21)
(0.999952 0.00176018 0)
(0.999941 0.00179418 5.13325e-22)
(0.999931 0.00183118 -4.60619e-21)
(0.999921 0.00187067 4.09746e-21)
(0.999912 0.00191267 0)
(0.999904 0.00195676 1.01955e-21)
(0.999896 0.00200272 0)
(0.999889 0.00205041 0)
(0.999883 0.00209933 0)
(0.999877 0.00214938 -2.01548e-21)
(0.999873 0.00220031 1.89043e-21)
(0.999869 0.00225171 -1.25732e-22)
(0.999866 0.00230343 0)
(0.999863 0.00235518 -4.6711e-22)
(0.999862 0.00240663 4.90574e-22)
(0.999861 0.00245757 9.30405e-23)
(0.999861 0.00250774 1.23565e-22)
(0.999862 0.00255684 0)
(0.999864 0.00260467 -1.9608e-21)
(0.999867 0.00265096 1.96036e-21)
(0.99987 0.00269545 -3.64926e-21)
(0.999874 0.00273792 8.01234e-21)
(0.999879 0.00277815 -3.63455e-21)
(0.999885 0.00281592 4.81656e-22)
(0.999891 0.00285096 4.79712e-22)
(0.999898 0.00288313 4.78203e-22)
(0.999906 0.00291221 -4.75626e-22)
(0.999914 0.00293795 4.25587e-21)
(0.999924 0.0029603 -3.30675e-21)
(0.999934 0.0029789 -1.40816e-21)
(0.999944 0.00299373 5.13203e-21)
(0.999956 0.00300457 -3.72606e-21)
(0.999968 0.00301117 -1.85093e-21)
(0.99998 0.00301358 3.67692e-21)
(0.999993 0.00301137 -7.3316e-21)
(1.00001 0.00300477 3.65367e-21)
(1.00002 0.00299351 1.81128e-21)
(1.00004 0.00297689 -3.763e-24)
(1.00005 0.00295029 0)
(1.00016 0.00243484 3.13871e-21)
(1.00012 0.00243917 -1.04791e-21)
(1.00008 0.00244645 -4.17583e-21)
(1.00004 0.00246035 2.08209e-21)
(0.999996 0.002482 -2.08197e-21)
(0.999957 0.00251063 0)
(0.99992 0.00254588 -2.0724e-21)
(0.999884 0.00258791 -6.20678e-21)
(0.999851 0.0026356 6.20839e-21)
(0.999819 0.00268935 1.03081e-21)
(0.999789 0.00274829 0)
(0.999761 0.00281218 -6.16475e-21)
(0.999735 0.00288095 1.10323e-23)
(0.99971 0.0029536 4.10103e-21)
(0.999688 0.00303029 0)
(0.999668 0.00311031 -1.01864e-21)
(0.99965 0.00319316 -1.01875e-21)
(0.999634 0.00327891 0)
(0.999621 0.00336649 -1.01382e-21)
(0.999609 0.00345578 -2.01653e-21)
(0.9996 0.00354651 2.01714e-21)
(0.999593 0.00363787 -2.51997e-22)
(0.999588 0.00372966 -2.50708e-22)
(0.999585 0.00382149 0)
(0.999585 0.00391272 3.8825e-23)
(0.999587 0.00400305 -2.17205e-22)
(0.999591 0.00409213 0)
(0.999597 0.00417937 0)
(0.999605 0.00426442 -1.96075e-21)
(0.999616 0.00434698 1.96037e-21)
(0.999629 0.00442652 -3.89243e-21)
(0.999644 0.00450268 3.89114e-21)
(0.999661 0.00457514 0)
(0.99968 0.00464345 0)
(0.9997 0.00470727 0)
(0.999723 0.00476634 -9.54884e-22)
(0.999748 0.00482017 -1.90326e-21)
(0.999775 0.00486849 0)
(0.999803 0.00491108 -9.42372e-22)
(0.999833 0.00494739 -9.31032e-22)
(0.999866 0.0049774 2.80888e-21)
(0.999899 0.00500061 0)
(0.999935 0.00501672 3.69382e-21)
(0.999972 0.00502571 -5.52951e-21)
(1.00001 0.00502683 0)
(1.00005 0.00502037 0)
(1.00009 0.00500567 0)
(1.00014 0.00498205 -1.80545e-21)
(1.00018 0.004946 -1.79447e-21)
(1.00018 0.00321705 -2.09633e-21)
(1.00011 0.00323108 4.19603e-21)
(1.00003 0.00325474 4.18872e-21)
(0.999951 0.00328742 6.26309e-21)
(0.999874 0.00333059 -2.09237e-21)
(0.9998 0.00338337 -4.15853e-21)
(0.999729 0.00344535 8.31542e-21)
(0.999661 0.00351694 -3.84394e-24)
(0.999598 0.00359628 -2.06922e-21)
(0.999538 0.00368419 2.07189e-21)
(0.999481 0.00377924 0)
(0.999429 0.00388111 2.05766e-21)
(0.999381 0.00398991 -2.04639e-21)
(0.999336 0.00410389 8.20863e-21)
(0.999296 0.00422354 -8.19039e-21)
(0.99926 0.0043477 6.13909e-21)
(0.999228 0.00447565 -1.02503e-21)
(0.9992 0.00460772 1.01879e-21)
(0.999177 0.00474208 1.01268e-21)
(0.999158 0.00487869 -1.0136e-21)
(0.999143 0.00501729 0)
(0.999133 0.00515653 -1.50635e-21)
(0.999127 0.00529622 1.25803e-21)
(0.999126 0.00543589 1.00141e-21)
(0.999129 0.00557448 4.66947e-23)
(0.999136 0.00571163 9.29158e-23)
(0.999148 0.00584696 1.48416e-21)
(0.999164 0.00597946 -9.88187e-22)
(0.999184 0.00610871 1.96236e-21)
(0.999208 0.00623436 -1.96204e-21)
(0.999237 0.00635553 0)
(0.99927 0.00647181 4.85244e-21)
(0.999306 0.00658276 -3.8781e-21)
(0.999347 0.00668763 3.84733e-21)
(0.999392 0.00678608 -3.84592e-21)
(0.99944 0.00687768 0)
(0.999492 0.00696168 3.79469e-21)
(0.999548 0.00703782 -1.89997e-21)
(0.999607 0.00710571 0)
(0.99967 0.0071646 3.74709e-21)
(0.999737 0.00721448 -3.74212e-21)
(0.999806 0.0072546 1.85863e-21)
(0.99988 0.00728458 1.84958e-21)
(0.999956 0.00730438 5.51974e-21)
(1.00004 0.00731295 6.29269e-24)
(1.00012 0.00731069 3.65056e-21)
(1.0002 0.00729648 1.80899e-21)
(1.0003 0.00726964 1.79761e-21)
(1.00039 0.00722822 1.79526e-21)
(1.00012 0.00389463 0)
(1.00001 0.00392744 -4.20033e-21)
(0.999887 0.00397747 -4.19116e-21)
(0.99976 0.00403884 0)
(0.999635 0.0041135 -4.181e-21)
(0.999515 0.0042005 9.66149e-24)
(0.9994 0.00429937 8.36179e-21)
(0.999291 0.0044109 -2.09395e-21)
(0.999188 0.00453228 -9.99566e-24)
(0.999091 0.00466494 -6.22716e-21)
(0.999001 0.00480678 0)
(0.998917 0.00495742 -6.20394e-21)
(0.99884 0.00511716 2.07274e-21)
(0.998769 0.0052834 0)
(0.998706 0.00545705 -2.06016e-21)
(0.998649 0.00563642 9.9339e-24)
(0.9986 0.00582051 -2.04354e-21)
(0.998558 0.00601005 7.14068e-21)
(0.998522 0.00620225 -1.20872e-23)
(0.998495 0.00639722 -1.02579e-21)
(0.998474 0.00659473 -1.01196e-21)
(0.998461 0.00679275 2.01391e-21)
(0.998455 0.00699118 -2.0142e-21)
(0.998456 0.00718946 -2.49096e-22)
(0.998464 0.00738601 5.15896e-22)
(0.99848 0.00758046 -2.78589e-22)
(0.998503 0.00777237 9.91983e-22)
(0.998533 0.00796026 -9.90128e-22)
(0.998571 0.00814368 9.8668e-22)
(0.998615 0.0083222 1.95805e-21)
(0.998666 0.00849456 -5.85751e-21)
(0.998724 0.00866029 -9.56665e-22)
(0.998789 0.00881884 5.82378e-21)
(0.99886 0.00896914 1.93202e-21)
(0.998938 0.00911086 -3.83427e-21)
(0.999022 0.00924338 3.83196e-21)
(0.999112 0.00936571 8.2223e-24)
(0.999209 0.00947759 5.68551e-21)
(0.999311 0.00957845 -3.78897e-21)
(0.99942 0.00966735 -9.39198e-21)
(0.999534 0.00974433 3.73607e-21)
(0.999653 0.00980836 1.85912e-21)
(0.999779 0.00985902 7.38816e-21)
(0.999909 0.00989629 -3.68572e-21)
(1.00005 0.00991878 -8.4043e-24)
(1.00019 0.00992709 -9.1275e-24)
(1.00033 0.00991963 0)
(1.00049 0.00989585 -3.60508e-21)
(1.00065 0.00985602 -3.57992e-21)
(0.999961 0.00437437 0)
(0.999798 0.00443706 -6.34939e-21)
(0.999616 0.00452549 6.34032e-21)
(0.99943 0.00462755 0)
(0.999246 0.00474593 0)
(0.999067 0.00487954 -4.19575e-21)
(0.998897 0.00502791 -2.91108e-24)
(0.998735 0.00519231 -4.19608e-21)
(0.998582 0.00536879 -8.76477e-24)
(0.998439 0.00555958 0)
(0.998305 0.00576173 0)
(0.998182 0.00597484 2.07259e-21)
(0.998068 0.00619949 0)
(0.997965 0.006432 0)
(0.997872 0.00667387 -2.06424e-21)
(0.99779 0.00692275 4.13694e-21)
(0.997719 0.00717733 2.06153e-21)
(0.997658 0.00743884 0)
(0.997609 0.00770331 2.03004e-21)
(0.99757 0.0079711 -5.10332e-21)
(0.997543 0.00824199 -2.03189e-21)
(0.997526 0.00851317 -2.02165e-21)
(0.997521 0.00878468 2.02185e-21)
(0.997527 0.00905579 1.40544e-24)
(0.997544 0.0093244 1.57089e-23)
(0.997572 0.00959009 2.49354e-22)
(0.997611 0.00985238 -4.98432e-22)
(0.99766 0.0101092 0)
(0.997721 0.0103602 -9.85195e-22)
(0.997792 0.0106047 0)
(0.997874 0.0108411 0)
(0.997966 0.0110689 -1.954e-21)
(0.998068 0.0112873 -7.75767e-21)
(0.99818 0.011495 2.27093e-23)
(0.998302 0.0116917 1.92852e-21)
(0.998433 0.0118765 0)
(0.998574 0.0120482 -1.90292e-21)
(0.998724 0.0122065 -3.79662e-21)
(0.998883 0.0123506 3.76926e-21)
(0.999051 0.0124796 7.50875e-21)
(0.999227 0.0125934 -7.46927e-21)
(0.999412 0.0126907 2.4863e-24)
(0.999605 0.0127711 -3.69571e-21)
(0.999806 0.0128346 -3.55384e-25)
(1.00001 0.0128795 0)
(1.00023 0.0129066 -3.63741e-21)
(1.00046 0.0129138 -1.80389e-21)
(1.00069 0.0129009 1.80255e-21)
(1.00095 0.0128712 3.58042e-21)
(0.999648 0.00454878 0)
(0.999423 0.00465473 4.24318e-21)
(0.999172 0.00479558 -1.27495e-20)
(0.998914 0.00495246 0)
(0.998657 0.0051291 0)
(0.998407 0.00532424 -8.4661e-21)
(0.998168 0.00553742 8.43547e-21)
(0.997941 0.00577044 -4.2292e-21)
(0.997726 0.00601804 -8.89854e-24)
(0.997525 0.00628344 4.2031e-21)
(0.997338 0.00656265 0)
(0.997164 0.00685532 0)
(0.997006 0.00716231 4.19008e-21)
(0.996862 0.00747868 0)
(0.996733 0.00780666 0)
(0.996619 0.0081431 -4.1452e-21)
(0.99652 0.00848636 1.57069e-23)
(0.996438 0.00883823 0)
(0.99637 0.00919338 2.04795e-21)
(0.996319 0.00955248 5.12352e-21)
(0.996284 0.0099153 -2.05289e-21)
(0.996264 0.0102781 0)
(0.996261 0.0106412 -1.01248e-21)
(0.996273 0.0110035 1.26498e-21)
(0.996301 0.0113624 -5.51662e-22)
(0.996345 0.0117174 -2.51655e-22)
(0.996405 0.0120679 4.95889e-22)
(0.996481 0.0124114 -9.96997e-22)
(0.996572 0.0127472 0)
(0.996678 0.0130749 -3.94802e-21)
(0.996799 0.013392 5.8882e-21)
(0.996935 0.0136982 1.93394e-21)
(0.997086 0.0139925 -7.76021e-24)
(0.997251 0.0142732 1.93127e-21)
(0.997429 0.0145399 -1.93951e-21)
(0.997622 0.0147916 -3.82611e-21)
(0.997828 0.0150268 7.63009e-21)
(0.998046 0.0152452 -3.8007e-21)
(0.998278 0.0154459 7.56347e-21)
(0.998521 0.0156275 6.57084e-24)
(0.998777 0.0157902 7.47039e-21)
(0.999044 0.0159324 -3.71227e-21)
(0.999323 0.0160537 0)
(0.999612 0.0161541 -1.92938e-25)
(0.999913 0.0162315 7.3036e-21)
(1.00023 0.016287 0)
(1.00055 0.016318 0)
(1.00089 0.0163247 6.27644e-21)
(1.00125 0.0163151 8.94347e-22)
(0.999138 0.00429884 1.07207e-21)
(0.99884 0.00446367 7.53329e-21)
(0.998505 0.00467265 8.52588e-21)
(0.998159 0.00490036 -8.58411e-21)
(0.997814 0.00515204 0)
(0.997478 0.00542607 -1.17516e-23)
(0.997154 0.00572204 -4.29086e-21)
(0.996846 0.00604234 -4.27857e-21)
(0.996556 0.0063802 1.2745e-20)
(0.996283 0.00674002 -4.23677e-21)
(0.996029 0.0071166 0)
(0.995794 0.00750963 8.44916e-21)
(0.995579 0.00792028 -8.39932e-21)
(0.995384 0.00834217 2.62493e-23)
(0.99521 0.0087784 8.37233e-21)
(0.995057 0.00922484 -2.10207e-21)
(0.994925 0.00967949 -2.047e-21)
(0.994814 0.0101447 4.15765e-21)
(0.994725 0.0106137 0)
(0.994658 0.0110875 -2.05485e-21)
(0.994613 0.0115656 2.0568e-21)
(0.99459 0.0120436 2.04525e-21)
(0.994589 0.0125216 -2.04519e-21)
(0.99461 0.0129986 2.55335e-22)
(0.994653 0.013471 3.15362e-23)
(0.994718 0.0139385 7.5458e-22)
(0.994805 0.0144002 -2.73519e-24)
(0.994913 0.0148529 0)
(0.995044 0.0152959 0)
(0.995195 0.0157285 -1.31749e-24)
(0.995366 0.0161479 -1.95832e-21)
(0.995559 0.0165534 3.9341e-21)
(0.995771 0.016944 -3.90628e-21)
(0.996003 0.0173175 3.87479e-21)
(0.996254 0.0176734 -7.74907e-21)
(0.996524 0.0180106 1.82797e-23)
(0.996812 0.0183271 3.83185e-21)
(0.997117 0.0186226 3.7921e-21)
(0.99744 0.0188962 -7.57868e-21)
(0.997779 0.019146 -7.52335e-21)
(0.998134 0.0193726 -3.74666e-21)
(0.998504 0.0195738 -3.72324e-21)
(0.998889 0.0197492 0)
(0.999289 0.019899 -3.66832e-21)
(0.999703 0.0200206 -4.14809e-24)
(1.00013 0.0201157 7.24445e-21)
(1.00058 0.0201807 -8.99314e-21)
(1.00104 0.0202165 1.77881e-21)
(1.00153 0.0202377 0)
(0.998387 0.00349308 0)
(0.997997 0.00373432 -8.62022e-21)
(0.997562 0.00402793 0)
(0.99711 0.00434379 8.59506e-21)
(0.996657 0.00468934 4.30513e-21)
(0.996214 0.00506221 -8.60457e-21)
(0.995788 0.00546191 1.28587e-20)
(0.99538 0.00589142 4.26863e-21)
(0.994995 0.00634229 -4.26357e-21)
(0.994634 0.00682023 0)
(0.994296 0.0073186 4.2614e-21)
(0.993985 0.00783719 -8.49986e-21)
(0.9937 0.00837745 4.27068e-21)
(0.993441 0.00893138 -4.21695e-21)
(0.99321 0.00950305 3.00611e-23)
(0.993007 0.0100872 4.22011e-21)
(0.992832 0.0106814 -8.4097e-21)
(0.992686 0.0112887 0)
(0.992569 0.0119005 4.16886e-21)
(0.992482 0.0125182 -4.16879e-21)
(0.992424 0.0131413 -1.03173e-21)
(0.992396 0.013764 0)
(0.992398 0.0143868 1.03416e-21)
(0.99243 0.0150082 2.56191e-22)
(0.992492 0.015624 -5.43159e-22)
(0.992583 0.0162334 7.61829e-22)
(0.992704 0.0168355 5.02079e-22)
(0.992854 0.0174265 -1.00845e-21)
(0.993034 0.0180052 0)
(0.993242 0.0185707 -1.98761e-21)
(0.993478 0.0191197 3.97654e-21)
(0.993741 0.0196513 0)
(0.994032 0.0201642 1.9552e-21)
(0.994349 0.0206555 0)
(0.994691 0.0211248 3.86838e-21)
(0.995059 0.0215707 -7.71067e-21)
(0.99545 0.0219908 3.82025e-21)
(0.995865 0.0223846 -2.17999e-23)
(0.996302 0.022751 3.75688e-21)
(0.99676 0.0230879 -3.77314e-21)
(0.997239 0.023396 3.73447e-21)
(0.997738 0.0236727 7.43122e-21)
(0.998256 0.0239176 0)
(0.998792 0.024131 0)
(0.999346 0.02431 -7.28756e-21)
(0.999919 0.0244565 -1.44672e-20)
(1.00051 0.0245663 1.43695e-20)
(1.00113 0.0246411 -8.0384e-21)
(1.00178 0.024704 7.96766e-21)
(0.997351 0.00198391 0)
(0.996851 0.00232143 8.78977e-21)
(0.996292 0.00271592 8.77223e-21)
(0.995709 0.00313853 1.31345e-20)
(0.995123 0.00359876 -1.31209e-20)
(0.994548 0.00409265 -4.34859e-21)
(0.993993 0.0046197 1.30964e-20)
(0.993462 0.00518359 -4.33417e-21)
(0.992958 0.00577396 4.33666e-21)
(0.992485 0.00639794 0)
(0.992043 0.00704719 8.68557e-21)
(0.991634 0.00772166 0)
(0.991259 0.00842293 -4.27076e-21)
(0.990919 0.0091413 -4.31392e-21)
(0.990615 0.00988184 5.22052e-23)
(0.990348 0.010638 0)
(0.990118 0.0114069 4.25943e-21)
(0.989926 0.012192 8.5014e-21)
(0.989772 0.0129831 0)
(0.989658 0.0137818 2.09843e-21)
(0.989582 0.0145873 -2.09774e-21)
(0.989547 0.0153927 -2.08142e-21)
(0.989551 0.0161984 2.09277e-21)
(0.989595 0.0170024 -4.2239e-24)
(0.989679 0.0177997 -5.15728e-22)
(0.989804 0.0185891 -2.2682e-22)
(0.989967 0.0193694 -5.10723e-22)
(0.99017 0.0201359 1.01907e-21)
(0.990412 0.0208871 0)
(0.990691 0.0216217 2.00035e-21)
(0.991009 0.0223356 -3.98588e-21)
(0.991363 0.0230276 0)
(0.991752 0.0236959 0)
(0.992177 0.0243371 3.90518e-21)
(0.992636 0.0249503 -7.7873e-21)
(0.993127 0.0255342 3.88182e-21)
(0.993649 0.0260854 3.85432e-21)
(0.994202 0.0266036 0)
(0.994783 0.0270873 1.13758e-20)
(0.995392 0.027534 -7.53344e-21)
(0.996026 0.0279447 -3.7369e-21)
(0.996686 0.0283161 1.13355e-23)
(0.997369 0.0286479 -7.38071e-21)
(0.998074 0.0289407 -7.31926e-21)
(0.998802 0.0291909 -7.26909e-21)
(0.999552 0.0294013 1.13269e-23)
(1.00033 0.0295663 -1.69979e-23)
(1.00113 0.0296892 0)
(1.00198 0.0298039 -1.41195e-20)
(0.996 -0.000365752 0)
(0.995344 7.27013e-05 2.30523e-21)
(0.994625 0.000563142 -1.09998e-20)
(0.993884 0.00110881 -8.7909e-21)
(0.99314 0.00170728 8.77731e-21)
(0.992401 0.00234784 4.46586e-21)
(0.991684 0.00303048 -4.35152e-21)
(0.990996 0.003759 0)
(0.990342 0.00452068 0)
(0.989726 0.00532423 8.82298e-21)
(0.98915 0.0061595 -8.69141e-21)
(0.988615 0.00702663 4.36022e-21)
(0.988124 0.00792719 -4.3566e-21)
(0.987678 0.00884983 4.35186e-21)
(0.987279 0.00980059 4.35683e-21)
(0.986926 0.0107715 -4.32216e-21)
(0.986623 0.0117592 -4.27578e-21)
(0.986369 0.0127673 -4.2593e-21)
(0.986165 0.0137839 4.2642e-21)
(0.986013 0.0148111 -4.26312e-21)
(0.985913 0.015847 0)
(0.985864 0.0168839 2.12469e-21)
(0.98587 0.0179218 -2.09128e-21)
(0.985927 0.0189578 1.56664e-21)
(0.986038 0.0199863 0)
(0.986202 0.0210054 1.03481e-21)
(0.986419 0.0220131 0)
(0.986687 0.023004 -1.01753e-21)
(0.987008 0.0239758 1.79236e-23)
(0.987379 0.0249264 1.17276e-23)
(0.9878 0.0258511 4.03474e-21)
(0.98827 0.0267478 0)
(0.988786 0.0276145 0)
(0.98935 0.0284466 0)
(0.989956 0.0292427 0)
(0.990606 0.0300015 -7.77063e-21)
(0.991296 0.0307185 3.86959e-21)