/*--------------------------------*- C++ -*----------------------------------*\
| =========                 |                                                 |
| \\      /  F ield         | OpenFOAM: The Open Source CFD Toolbox           |
|  \\    /   O peration     | Version:  2312                                  |
|   \\  /    A nd           | Website:  www.openfoam.com                      |
|    \\/     M anipulation  |                                                 |
\*---------------------------------------------------------------------------*/
FoamFile
{
    version     2.0;
    format      ascii;
    arch        "LSB;label=32;scalar=64";
    class       volVectorField;
    location    "4.011017847752195";
    object      U;
}
// * * * * * * * * * * * * * * * * * * * * * * * * * * * * * * * * * * * * * //

dimensions      [0 1 -1 0 0 0 0];

internalField   nonuniform List<vector> 
21039
(
(0.914217 0.0480374 0)
(1.02575 0.0666718 0)
(1.00445 0.0290639 0)
(1.00177 0.0188973 0)
(1.00118 0.0138996 0)
(1.00076 0.0105363 0)
(1.00052 0.00825118 0)
(1.00037 0.0066529 0)
(1.00027 0.00548686 0)
(1.0002 0.00460934 0)
(1.00015 0.0039343 0)
(1.00011 0.00340598 0)
(1.00008 0.00298669 0)
(1.00006 0.00265024 0)
(1.00005 0.00237787 0)
(1.00003 0.0021557 0)
(1.00002 0.00197331 0)
(1.00001 0.00182279 0)
(1.00001 0.00169813 0)
(1 0.00159442 0)
(1 0.00150619 0)
(1 0.00143145 0)
(1 0.00137501 0)
(1.00001 0.00130822 0)
(1.00001 0.00124853 0)
(1.00002 0.0011949 0)
(1.00003 0.00114242 0)
(1.00003 0.0010782 0)
(1.00004 0.000960821 0)
(0.796 0.0733989 0)
(1.07404 0.121206 0)
(1.03966 0.0696394 0)
(1.01815 0.0491149 0)
(1.01126 0.0375759 0)
(1.00757 0.02873 0)
(1.00531 0.0224295 0)
(1.00388 0.0178444 0)
(1.00292 0.0143774 0)
(1.00225 0.0116888 0)
(1.00177 0.00955945 0)
(1.00141 0.00784058 0)
(1.00114 0.00642984 0)
(1.00094 0.0052554 0)
(1.00077 0.00426579 0)
(1.00064 0.00342332 0)
(1.00054 0.00269857 0)
(1.00045 0.0020724 0)
(1.00038 0.00153072 0)
(1.00033 0.001059 0)
(1.00028 0.000645713 0)
(1.00024 0.000285727 0)
(1.00022 -9.7096e-06 0)
(1.00021 -0.000275168 0)
(1.00023 -0.000478978 0)
(1.00025 -0.000637981 0)
(1.00027 -0.00076865 0)
(1.0003 -0.000899472 0)
(1.00032 -0.00108706 0)
(0.669417 0.0572362 0)
(1.08314 0.123721 0)
(1.0841 0.0883361 0)
(1.04637 0.0662589 0)
(1.02913 0.0525097 0)
(1.02026 0.0414204 0)
(1.01468 0.0330549 0)
(1.01098 0.0265962 0)
(1.00842 0.0214879 0)
(1.00661 0.0173977 0)
(1.00529 0.0140745 0)
(1.00431 0.0113327 0)
(1.00356 0.00903841 0)
(1.00298 0.0070942 0)
(1.00252 0.00542814 0)
(1.00215 0.00398711 0)
(1.00184 0.00272953 0)
(1.00159 0.00162727 0)
(1.00138 0.00065906 0)
(1.0012 -0.000194429 0)
(1.00105 -0.000947133 0)
(1.00092 -0.00160737 0)
(1.00081 -0.00215955 0)
(1.00075 -0.00263392 0)
(1.00073 -0.00299154 0)
(1.00074 -0.00326759 0)
(1.00077 -0.00348966 0)
(1.00081 -0.00369732 0)
(1.00085 -0.00395229 0)
(0.544036 0.0350082 0)
(1.0522 0.109332 0)
(1.11598 0.0943538 0)
(1.07621 0.0739246 0)
(1.04943 0.0595695 0)
(1.03543 0.0483477 0)
(1.02655 0.0395979 0)
(1.02037 0.0324751 0)
(1.01596 0.0265971 0)
(1.01274 0.0217301 0)
(1.01035 0.0176613 0)
(1.00854 0.0142225 0)
(1.00715 0.0112857 0)
(1.00605 0.00875247 0)
(1.00518 0.00654702 0)
(1.00447 0.00461175 0)
(1.00389 0.00290192 0)
(1.0034 0.00138316 0)
(1.00298 3.23012e-05 0)
(1.00262 -0.00117027 0)
(1.0023 -0.00224127 0)
(1.00202 -0.00319001 0)
(1.00177 -0.00399697 0)
(1.00161 -0.0046856 0)
(1.00153 -0.00520839 0)
(1.0015 -0.00561568 0)
(1.00153 -0.00594474 0)
(1.00158 -0.00624292 0)
(1.00162 -0.0065797 0)
(0.448709 0.0182878 0)
(1.00126 0.0899523 0)
(1.12981 0.0921976 0)
(1.10153 0.0760548 0)
(1.06849 0.0619978 0)
(1.05005 0.0513229 0)
(1.0385 0.0429225 0)
(1.03028 0.035852 0)
(1.02421 0.0298386 0)
(1.01967 0.0247165 0)
(1.01623 0.0203175 0)
(1.01357 0.0165083 0)
(1.0115 0.0131835 0)
(1.00985 0.0102587 0)
(1.00852 0.00766629 0)
(1.00743 0.00535298 0)
(1.00652 0.00327724 0)
(1.00575 0.00140655 0)
(1.00508 -0.000283462 0)
(1.0045 -0.00181128 0)
(1.00398 -0.00319105 0)
(1.00351 -0.0044329 0)
(1.00309 -0.00551246 0)
(1.00279 -0.00644189 0)
(1.00263 -0.00715999 0)
(1.00257 -0.00772745 0)
(1.00259 -0.00818956 0)
(1.00265 -0.00860071 0)
(1.00269 -0.00904231 0)
(0.385003 0.00761437 0)
(0.94604 0.0693827 0)
(1.12896 0.0838277 0)
(1.12087 0.0739595 0)
(1.08558 0.0614665 0)
(1.06326 0.0517099 0)
(1.04948 0.0439809 0)
(1.03968 0.0373301 0)
(1.03231 0.0315394 0)
(1.02669 0.0264848 0)
(1.02234 0.0220369 0)
(1.01894 0.018095 0)
(1.01624 0.0145784 0)
(1.01407 0.0114197 0)
(1.0123 0.00856409 0)
(1.01084 0.00596755 0)
(1.00961 0.00359507 0)
(1.00855 0.00141906 0)
(1.00764 -0.000583677 0)
(1.00682 -0.00242859 0)
(1.00609 -0.00412461 0)
(1.00541 -0.00567998 0)
(1.0048 -0.00706415 0)
(1.00437 -0.00827226 0)
(1.00413 -0.0092233 0)
(1.00403 -0.00998518 0)
(1.00404 -0.0106099 0)
(1.00411 -0.0111597 0)
(1.00416 -0.0117319 0)
(0.341913 0.00177866 0)
(0.893422 0.0507074 0)
(1.11775 0.0720722 0)
(1.13377 0.0685454 0)
(1.10039 0.058527 0)
(1.0751 0.0499803 0)
(1.05936 0.0430973 0)
(1.0483 0.0370532 0)
(1.03994 0.0316557 0)
(1.03347 0.026818 0)
(1.02841 0.0224514 0)
(1.02439 0.0184873 0)
(1.02117 0.0148679 0)
(1.01855 0.0115436 0)
(1.0164 0.00847327 0)
(1.01461 0.00562288 0)
(1.01309 0.00296449 0)
(1.01178 0.000474146 0)
(1.01064 -0.0018649 0)
(1.00961 -0.00406045 0)
(1.00867 -0.00611612 0)
(1.00779 -0.00803462 0)
(1.00699 -0.00977799 0)
(1.00642 -0.0113175 0)
(1.00609 -0.0125464 0)
(1.00596 -0.0135395 0)
(1.00598 -0.0143557 0)
(1.00606 -0.015067 0)
(1.0061 -0.0157929 0)
(0.312186 -0.000758388 0)
(0.84653 0.0356809 0)
(1.10012 0.0595455 0)
(1.14032 0.0610098 0)
(1.11238 0.0536761 0)
(1.08551 0.0463979 0)
(1.06818 0.0403292 0)
(1.05617 0.0348828 0)
(1.04708 0.0298789 0)
(1.03999 0.0252559 0)
(1.03439 0.0209619 0)
(1.0299 0.0169577 0)
(1.02628 0.0132077 0)
(1.02331 0.0096794 0)
(1.02085 0.00634352 0)
(1.01879 0.0031744 0)
(1.01704 0.000150558 0)
(1.01553 -0.00274178 0)
(1.01418 -0.00550795 0)
(1.01296 -0.00814895 0)
(1.01182 -0.0106616 0)
(1.01074 -0.0130403 0)
(1.00975 -0.0152387 0)
(1.00903 -0.0171947 0)
(1.00862 -0.0187687 0)
(1.00846 -0.0200441 0)
(1.00847 -0.0210883 0)
(1.00855 -0.0219882 0)
(1.00857 -0.022892 0)
(0.292296 -0.00154346 0)
(0.80712 0.0243968 0)
(1.0797 0.0476787 0)
(1.1417 0.0523901 0)
(1.12145 0.0474779 0)
(1.0945 0.0413476 0)
(1.0761 0.0359104 0)
(1.06342 0.0308987 0)
(1.05386 0.0261588 0)
(1.04637 0.0216404 0)
(1.0404 0.017317 0)
(1.0356 0.0131725 0)
(1.03169 0.009188 0)
(1.02847 0.0053445 0)
(1.0258 0.00161992 0)
(1.02355 -0.00200043 0)
(1.02163 -0.00552136 0)
(1.01995 -0.00894593 0)
(1.01844 -0.0122719 0)
(1.01705 -0.0154925 0)
(1.01573 -0.0185967 0)
(1.01444 -0.0215687 0)
(1.01324 -0.0243527 0)
(1.01237 -0.0268419 0)
(1.01185 -0.0288539 0)
(1.01164 -0.0304819 0)
(1.01162 -0.0318051 0)
(1.01167 -0.0329313 0)
(1.01164 -0.0340421 0)
(0.279459 -0.00159442 0)
(0.77565 0.0161831 0)
(1.05934 0.0370421 0)
(1.13962 0.0434388 0)
(1.12804 0.0404732 0)
(1.1023 0.0353125 0)
(1.08337 0.0303083 0)
(1.07029 0.0255342 0)
(1.06048 0.0208893 0)
(1.05278 0.0163311 0)
(1.04663 0.0118498 0)
(1.04165 0.0074416 0)
(1.03759 0.00309618 0)
(1.03424 -0.00119611 0)
(1.03146 -0.00544073 0)
(1.0291 -0.00963638 0)
(1.02707 -0.0137787 0)
(1.02527 -0.017863 0)
(1.02363 -0.0218793 0)
(1.02209 -0.0258133 0)
(1.02059 -0.0296458 0)
(1.0191 -0.03335 0)
(1.01768 -0.0368601 0)
(1.01662 -0.0400125 0)
(1.01597 -0.0425682 0)
(1.01567 -0.0446305 0)
(1.01557 -0.0462931 0)
(1.01554 -0.047691 0)
(1.01541 -0.0490397 0)
(0.271365 -0.00139774 0)
(0.751546 0.0102658 0)
(1.0408 0.0278288 0)
(1.13565 0.0347256 0)
(1.13277 0.0331718 0)
(1.10919 0.028788 0)
(1.09026 0.0240623 0)
(1.07702 0.019366 0)
(1.06716 0.0146704 0)
(1.05943 0.00994539 0)
(1.05324 0.00518941 0)
(1.04824 0.000401509 0)
(1.04416 -0.00441725 0)
(1.0408 -0.00925884 0)
(1.03798 -0.0141155 0)
(1.03559 -0.0189781 0)
(1.0335 -0.0238368 0)
(1.03164 -0.0286799 0)
(1.02991 -0.0334913 0)
(1.02825 -0.0382498 0)
(1.02659 -0.0429292 0)
(1.02491 -0.0474918 0)
(1.02326 -0.0518611 0)
(1.02199 -0.0558054 0)
(1.02118 -0.0590132 0)
(1.02073 -0.0615951 0)
(1.0205 -0.0636613 0)
(1.02031 -0.0653799 0)
(1.02 -0.0669973 0)
(0.266509 -0.00112787 0)
(0.733806 0.00601493 0)
(1.02494 0.020061 0)
(1.13094 0.0266698 0)
(1.13622 0.0260201 0)
(1.11545 0.0222067 0)
(1.09698 0.0176344 0)
(1.08383 0.0128937 0)
(1.07407 0.0080322 0)
(1.06646 0.00303342 0)
(1.0604 -0.00210047 0)
(1.05551 -0.00735822 0)
(1.05153 -0.0127231 0)
(1.04824 -0.0181785 0)
(1.04548 -0.02371 0)
(1.04313 -0.029304 0)
(1.04106 -0.0349464 0)
(1.03919 -0.040621 0)
(1.03743 -0.0463073 0)
(1.03569 -0.0519786 0)
(1.03391 -0.0576036 0)
(1.03204 -0.0631353 0)
(1.03016 -0.0684871 0)
(1.02867 -0.0733496 0)
(1.02765 -0.0773203 0)
(1.027 -0.0805114 0)
(1.02655 -0.0830511 0)
(1.0261 -0.085145 0)
(1.02553 -0.0870646 0)
(0.263963 -0.000857249 0)
(0.721345 0.00298951 0)
(1.01199 0.0136963 0)
(1.12627 0.0195588 0)
(1.13888 0.0193744 0)
(1.12128 0.0159139 0)
(1.1037 0.0113765 0)
(1.09087 0.00648764 0)
(1.08138 0.00135958 0)
(1.07404 -0.00400606 0)
(1.06823 -0.00959352 0)
(1.06356 -0.0153787 0)
(1.05977 -0.0213378 0)
(1.05664 -0.0274506 0)
(1.05403 -0.0336998 0)
(1.05179 -0.0400695 0)
(1.04982 -0.046543 0)
(1.04802 -0.0531014 0)
(1.04628 -0.0597209 0)
(1.04452 -0.066372 0)
(1.04266 -0.0730212 0)
(1.04064 -0.0796161 0)
(1.03858 -0.0860637 0)
(1.03688 -0.0919737 0)
(1.03563 -0.0968314 0)
(1.0347 -0.100739 0)
(1.03393 -0.103841 0)
(1.03312 -0.106382 0)
(1.03218 -0.108647 0)
(0.263096 -0.000623826 0)
(0.713101 0.000919618 0)
(1.0019 0.0086819 0)
(1.12216 0.0135856 0)
(1.14122 0.013516 0)
(1.12696 0.0102003 0)
(1.11058 0.00558598 0)
(1.09828 0.000458689 0)
(1.08922 -0.00501663 0)
(1.08227 -0.0108114 0)
(1.07681 -0.016896 0)
(1.07246 -0.0232413 0)
(1.06895 -0.0298215 0)
(1.06608 -0.0366156 0)
(1.06369 -0.043606 0)
(1.06166 -0.050776 0)
(1.05986 -0.0581076 0)
(1.0582 -0.0655801 0)
(1.05656 -0.0731679 0)
(1.05485 -0.08084 0)
(1.05296 -0.0885639 0)
(1.05087 -0.0962886 0)
(1.04867 -0.103924 0)
(1.04681 -0.11101 0)
(1.04532 -0.1169 0)
(1.04408 -0.121668 0)
(1.04288 -0.125463 0)
(1.04159 -0.128562 0)
(1.04016 -0.131248 0)
(0.263263 -0.000473322 0)
(0.708024 -0.000386853 0)
(0.994328 0.00500438 0)
(1.11886 0.00891422 0)
(1.14352 0.00871282 0)
(1.13262 0.00537236 0)
(1.11769 0.000591242 0)
(1.10611 -0.00483329 0)
(1.09758 -0.0106946 0)
(1.09111 -0.016938 0)
(1.08609 -0.0235268 0)
(1.08214 -0.0304312 0)
(1.07899 -0.0376263 0)
(1.07645 -0.0450926 0)
(1.07437 -0.0528137 0)
(1.07262 -0.0607729 0)
(1.07108 -0.068952 0)
(1.06963 -0.0773292 0)
(1.06816 -0.0858771 0)
(1.06657 -0.0945638 0)
(1.06475 -0.103361 0)
(1.06267 -0.112228 0)
(1.06048 -0.121097 0)
(1.05864 -0.129479 0)
(1.05708 -0.136593 0)
(1.05559 -0.142457 0)
(1.05396 -0.147197 0)
(1.0521 -0.151075 0)
(1.05008 -0.154311 0)
(0.263958 -0.000313891 0)
(0.705458 -0.00102576 0)
(0.989279 0.00265511 0)
(1.1167 0.00573016 0)
(1.14594 0.00531858 0)
(1.1381 0.00188609 0)
(1.12464 -0.00307659 0)
(1.11385 -0.00878198 0)
(1.1059 -0.014991 0)
(1.09995 -0.0216308 0)
(1.09541 -0.0286632 0)
(1.09189 -0.0360601 0)
(1.08915 -0.0437997 0)
(1.08701 -0.0518659 0)
(1.0853 -0.0602451 0)
(1.08389 -0.0689231 0)
(1.08266 -0.0778836 0)
(1.0815 -0.087105 0)
(1.08027 -0.0965582 0)
(1.07886 -0.106208 0)
(1.07717 -0.116025 0)
(1.07519 -0.125975 0)
(1.07312 -0.136004 0)
(1.07149 -0.145623 0)
(1.07012 -0.153981 0)
(1.06865 -0.161084 0)
(1.06676 -0.167021 0)
(1.06432 -0.17197 0)
(1.0615 -0.175977 0)
(0.264685 -0.000166341 0)
(0.704441 -0.00120299 0)
(0.986212 0.00137164 0)
(1.11547 0.00386949 0)
(1.14816 0.0032901 0)
(1.14284 -0.000215674 0)
(1.13071 -0.00531104 0)
(1.12065 -0.0112221 0)
(1.11325 -0.0176847 0)
(1.1078 -0.0246168 0)
(1.1037 -0.0319802 0)
(1.10061 -0.0397494 0)
(1.09827 -0.0479065 0)
(1.09652 -0.0564397 0)
(1.09518 -0.0653401 0)
(1.09414 -0.0745992 0)
(1.09326 -0.0842061 0)
(1.09241 -0.0941445 0)
(1.09147 -0.104388 0)
(1.0903 -0.1149 0)
(1.08881 -0.125652 0)
(1.087 -0.13661 0)
(1.08514 -0.147686 0)
(1.08383 -0.158325 0)
(1.08288 -0.167642 0)
(1.08188 -0.175794 0)
(1.08038 -0.183073 0)
(1.07809 -0.189642 0)
(1.07517 -0.19489 0)
(0.265185 -1.97087e-05 0)
(0.703907 -0.0011446 0)
(0.984083 0.000713534 0)
(1.11464 0.00283163 0)
(1.15007 0.00215624 0)
(1.14687 -0.00136655 0)
(1.13589 -0.006524 0)
(1.12649 -0.0125557 0)
(1.11958 -0.0191791 0)
(1.11455 -0.0263061 0)
(1.11086 -0.0338976 0)
(1.10815 -0.0419298 0)
(1.10619 -0.0503884 0)
(1.1048 -0.0592664 0)
(1.10382 -0.068561 0)
(1.10314 -0.0782716 0)
(1.1026 -0.0883969 0)
(1.10208 -0.098931 0)
(1.10144 -0.109856 0)
(1.10054 -0.121142 0)
(1.09931 -0.132776 0)
(1.09771 -0.144729 0)
(1.09601 -0.156865 0)
(1.09479 -0.168355 0)
(1.09406 -0.178064 0)
(1.09367 -0.186332 0)
(1.09354 -0.19401 0)
(1.09344 -0.201876 0)
(1.09197 -0.208939 0)
(0.265959 4.728e-05 0)
(0.704341 -0.00100101 0)
(0.983232 0.000462366 0)
(1.11447 0.00236631 0)
(1.15182 0.00162812 0)
(1.15024 -0.00190747 0)
(1.14024 -0.00709584 0)
(1.13143 -0.0131891 0)
(1.12498 -0.019906 0)
(1.12035 -0.027158 0)
(1.11704 -0.0349044 0)
(1.11469 -0.0431221 0)
(1.11309 -0.0517999 0)
(1.11206 -0.0609358 0)
(1.11146 -0.070534 0)
(1.11115 -0.0806037 0)
(1.11101 -0.0911573 0)
(1.1109 -0.102206 0)
(1.11068 -0.113751 0)
(1.1102 -0.125769 0)
(1.10946 -0.138309 0)
(1.10838 -0.151416 0)
(1.10728 -0.165018 0)
(1.10631 -0.177914 0)
(1.1057 -0.188389 0)
(1.10549 -0.196287 0)
(1.10587 -0.202015 0)
(1.10779 -0.208112 0)
(1.1131 -0.219239 0)
(1.00004 0.000960839 0)
(1.00004 0.000946031 0)
(1.00004 0.000922673 0)
(1.00004 0.000899601 1.06946e-21)
(1.00004 0.000877995 5.3249e-21)
(1.00004 0.000857637 -9.57443e-21)
(1.00004 0.00083847 5.31306e-21)
(1.00004 0.000820294 -4.2232e-21)
(1.00004 0.000802997 5.44293e-22)
(1.00004 0.000786648 4.21629e-21)
(1.00004 0.000771035 0)
(1.00004 0.000756275 -4.6984e-21)
(1.00004 0.000742153 5.37639e-22)
(1.00004 0.000728604 4.16712e-21)
(1.00003 0.00071567 0)
(1.00003 0.00070313 0)
(1.00003 0.000691106 -4.11307e-21)
(1.00003 0.00067934 4.1157e-21)
(1.00003 0.000667694 0)
(1.00003 0.000656347 -2.03683e-21)
(1.00003 0.000644977 2.16482e-21)
(1.00003 0.000633548 1.89658e-21)
(1.00003 0.00062212 -3.03205e-21)
(1.00003 0.000610416 9.76944e-22)
(1.00003 0.000598441 3.12852e-23)
(1.00002 0.000586262 -6.25136e-23)
(1.00002 0.000573562 8.69435e-22)
(1.00002 0.000560356 -9.93637e-22)
(1.00002 0.000546823 0)
(1.00002 0.000532741 0)
(1.00002 0.000518162 -2.44963e-22)
(1.00002 0.000503107 -2.43964e-22)
(1.00002 0.000487425 -4.12429e-21)
(1.00002 0.000471263 3.39456e-21)
(1.00002 0.000454471 -4.33124e-21)
(1.00002 0.000437033 4.32582e-21)
(1.00002 0.000419102 -3.3394e-21)
(1.00002 0.000400484 3.33772e-21)
(1.00002 0.000381296 4.73791e-22)
(1.00002 0.000361501 4.71796e-22)
(1.00002 0.00034108 -4.69793e-22)
(1.00002 0.00032017 0)
(1.00002 0.000298638 0)
(1.00002 0.000276641 0)
(1.00002 0.000254164 0)
(1.00002 0.000231353 0)
(1.00003 0.000208234 1.83086e-21)
(1.00003 0.000184229 -1.82818e-21)
(1.00003 0.000156192 0)
(1.00032 -0.00112703 0)
(1.00031 -0.00117647 2.16213e-21)
(1.0003 -0.00123618 -2.15191e-21)
(1.00029 -0.00129306 -1.07096e-21)
(1.00027 -0.00134528 -1.07276e-21)
(1.00026 -0.00139374 -3.19937e-21)
(1.00025 -0.0014378 5.34038e-21)
(1.00024 -0.0014783 0)
(1.00023 -0.00151562 -5.30242e-22)
(1.00021 -0.0015489 -1.05696e-21)
(1.0002 -0.00157897 0)
(1.00019 -0.00160552 5.25542e-22)
(1.00018 -0.00162896 -4.70634e-21)
(1.00017 -0.00164964 4.18621e-21)
(1.00016 -0.0016674 0)
(1.00015 -0.00168266 1.03792e-21)
(1.00014 -0.00169523 0)
(1.00013 -0.00170562 0)
(1.00012 -0.00171417 0)
(1.00011 -0.00172042 -2.04462e-21)
(1.0001 -0.00172504 1.91745e-21)
(1.00009 -0.00172815 -1.2706e-22)
(1.00008 -0.00172956 0)
(1.00008 -0.00172987 -4.72283e-22)
(1.00007 -0.00172906 4.95948e-22)
(1.00006 -0.00172706 9.39193e-23)
(1.00006 -0.00172442 1.24778e-22)
(1.00005 -0.00172113 0)
(1.00005 -0.00171712 -1.97707e-21)
(1.00004 -0.00171294 1.9763e-21)
(1.00004 -0.0017085 -3.67713e-21)
(1.00004 -0.00170391 8.07243e-21)
(1.00003 -0.00169955 -3.66109e-21)
(1.00003 -0.00169519 4.85318e-22)
(1.00003 -0.00169131 4.83358e-22)
(1.00003 -0.00168795 4.8063e-22)
(1.00003 -0.00168496 -4.79358e-22)
(1.00003 -0.0016829 4.28977e-21)
(1.00003 -0.00168153 -3.33389e-21)
(1.00003 -0.00168121 -1.41955e-21)
(1.00003 -0.00168201 5.17908e-21)
(1.00003 -0.00168383 -3.76121e-21)
(1.00004 -0.00168721 -1.8688e-21)
(1.00004 -0.00169184 3.71956e-21)
(1.00004 -0.00169825 -7.42067e-21)
(1.00005 -0.00170621 3.70022e-21)
(1.00005 -0.00171577 1.83784e-21)
(1.00006 -0.00172849 -4.08549e-24)
(1.00006 -0.00175264 0)
(1.00083 -0.00405575 3.25024e-21)
(1.0008 -0.00415346 -1.08838e-21)
(1.00076 -0.00425598 -4.31602e-21)
(1.00072 -0.00435223 2.15044e-21)
(1.00068 -0.00443955 -2.14409e-21)
(1.00063 -0.0045193 0)
(1.00059 -0.00459112 -2.13202e-21)
(1.00055 -0.00465524 -6.367e-21)
(1.00051 -0.00471252 6.36612e-21)
(1.00047 -0.00476208 1.05634e-21)
(1.00043 -0.00480513 0)
(1.0004 -0.0048411 -6.29112e-21)
(1.00036 -0.00487052 1.62956e-23)
(1.00032 -0.00489401 4.18071e-21)
(1.00029 -0.00491107 0)
(1.00026 -0.00492271 -1.03635e-21)
(1.00022 -0.00492852 -1.03286e-21)
(1.00019 -0.00492905 0)
(1.00016 -0.00492511 -1.02563e-21)
(1.00014 -0.00491599 -2.04028e-21)
(1.00011 -0.00490265 2.04061e-21)
(1.00008 -0.00488541 -2.53552e-22)
(1.00006 -0.00486402 -2.52692e-22)
(1.00004 -0.00483938 0)
(1.00002 -0.00481159 3.91378e-23)
(0.999996 -0.00478059 -2.18682e-22)
(0.999978 -0.00474727 0)
(0.999961 -0.00471168 0)
(0.999946 -0.0046738 -1.97213e-21)
(0.999932 -0.00463451 1.97148e-21)
(0.99992 -0.00459369 -3.9129e-21)
(0.999909 -0.00455165 3.91115e-21)
(0.9999 -0.00450902 0)
(0.999893 -0.00446548 0)
(0.999887 -0.00442198 0)
(0.999883 -0.00437851 -9.60768e-22)
(0.99988 -0.00433504 -1.91083e-21)
(0.999879 -0.00429258 0)
(0.99988 -0.00425067 -9.49067e-22)
(0.999882 -0.00421019 -9.40067e-22)
(0.999886 -0.00417116 2.82774e-21)
(0.999892 -0.00413365 0)
(0.999899 -0.00409866 3.73162e-21)
(0.999909 -0.0040656 -5.57999e-21)
(0.999919 -0.00403574 0)
(0.999932 -0.00400863 0)
(0.999946 -0.00398475 0)
(0.999964 -0.00396595 -1.83237e-21)
(0.999987 -0.00396057 -1.82098e-21)
(1.00158 -0.00676145 -2.16961e-21)
(1.00151 -0.00691994 4.32904e-21)
(1.00142 -0.00707464 4.31838e-21)
(1.00134 -0.00721957 6.44744e-21)
(1.00125 -0.00735148 -2.15295e-21)
(1.00116 -0.00747195 -4.26617e-21)
(1.00107 -0.00758045 8.5252e-21)
(1.00098 -0.0076769 -8.01843e-24)
(1.0009 -0.00776284 -2.11772e-21)
(1.00081 -0.00783685 2.11173e-21)
(1.00073 -0.00790075 0)
(1.00065 -0.00795373 2.09747e-21)
(1.00057 -0.00799636 -2.08167e-21)
(1.0005 -0.00802975 8.3352e-21)
(1.00043 -0.00805301 -8.30627e-21)
(1.00036 -0.00806768 6.21668e-21)
(1.00029 -0.00807321 -1.03148e-21)
(1.00022 -0.0080702 1.02749e-21)
(1.00016 -0.00805999 1.02385e-21)
(1.0001 -0.00804154 -1.02007e-21)
(1.00004 -0.00801614 0)
(0.999987 -0.0079843 -1.51483e-21)
(0.999936 -0.00794571 1.26675e-21)
(0.999887 -0.00790156 1.00676e-21)
(0.999842 -0.00785209 4.68543e-23)
(0.999799 -0.00779723 9.34538e-23)
(0.99976 -0.00773821 1.48756e-21)
(0.999724 -0.00767512 -9.91019e-22)
(0.999691 -0.007608 1.9667e-21)
(0.999661 -0.00753808 -1.96618e-21)
(0.999634 -0.0074652 0)
(0.99961 -0.00738988 4.85844e-21)
(0.99959 -0.00731301 -3.88436e-21)
(0.999573 -0.00723417 3.85417e-21)
(0.99956 -0.00715481 -3.85262e-21)
(0.99955 -0.00707483 0)
(0.999543 -0.00699431 3.81132e-21)
(0.99954 -0.00691475 -1.90839e-21)
(0.99954 -0.00683539 0)
(0.999544 -0.00675769 3.75726e-21)
(0.999551 -0.00668156 -3.75874e-21)
(0.999562 -0.00660717 1.86574e-21)
(0.999576 -0.00653607 1.86389e-21)
(0.999595 -0.00646724 5.55757e-21)
(0.999616 -0.00640273 -1.07712e-24)
(0.999643 -0.00634184 3.68496e-21)
(0.999674 -0.00628554 1.8303e-21)
(0.999712 -0.00623614 1.8167e-21)
(0.999761 -0.00620069 1.82217e-21)
(1.00262 -0.00932293 0)
(1.0025 -0.00955933 -4.33073e-21)
(1.00236 -0.00978234 -4.31443e-21)
(1.0022 -0.00999267 0)
(1.00205 -0.0101863 -4.28148e-21)
(1.0019 -0.010365 1.73599e-23)
(1.00174 -0.0105279 8.5388e-21)
(1.00159 -0.0106745 -2.13437e-21)
(1.00145 -0.0108072 -1.70086e-23)
(1.0013 -0.0109237 -6.33878e-21)
(1.00116 -0.0110265 0)
(1.00102 -0.0111145 -6.28204e-21)
(1.00089 -0.0111883 2.09767e-21)
(1.00076 -0.0112495 0)
(1.00063 -0.0112968 -2.07479e-21)
(1.00051 -0.0113321 7.89004e-25)
(1.00039 -0.0113548 -2.05153e-21)
(1.00027 -0.0113655 7.18025e-21)
(1.00016 -0.011366 -1.62792e-23)
(1.00005 -0.011355 -1.03026e-21)
(0.999953 -0.011334 -1.01836e-21)
(0.999857 -0.0113038 2.01649e-21)
(0.999765 -0.0112638 -2.01658e-21)
(0.999678 -0.0112157 -2.49686e-22)
(0.999596 -0.0111597 5.15654e-22)
(0.99952 -0.0110957 -2.78867e-22)
(0.999448 -0.0110254 9.89005e-22)
(0.999382 -0.0109488 -9.88066e-22)
(0.999322 -0.010866 9.81194e-22)
(0.999267 -0.0107787 1.95237e-21)
(0.999217 -0.0106865 -5.83996e-21)
(0.999173 -0.0105903 -9.56007e-22)
(0.999135 -0.0104911 5.80045e-21)
(0.999103 -0.0103884 1.92097e-21)
(0.999076 -0.0102842 -3.82482e-21)
(0.999055 -0.0101783 3.82258e-21)
(0.99904 -0.0100707 6.01236e-24)
(0.999031 -0.00996371 5.67474e-21)
(0.999028 -0.00985597 -3.77472e-21)
(0.999032 -0.00974966 -9.38671e-21)
(0.999041 -0.00964452 3.73112e-21)
(0.999057 -0.00954077 1.85109e-21)
(0.999079 -0.00944061 7.40513e-21)
(0.999107 -0.00934247 -3.71372e-21)
(0.999142 -0.00924934 -1.20397e-23)
(0.999185 -0.00916018 -1.40854e-23)
(0.999237 -0.00907654 0)
(0.999303 -0.00900133 -3.64662e-21)
(0.999387 -0.00893975 -3.61682e-21)
(1.00406 -0.0121299 0)
(1.00388 -0.0124539 -6.50777e-21)
(1.00366 -0.0127552 6.49021e-21)
(1.00343 -0.0130418 0)
(1.0032 -0.0133087 0)
(1.00296 -0.0135578 -4.27079e-21)
(1.00273 -0.0137878 -7.13773e-25)
(1.0025 -0.0139981 -4.25206e-21)
(1.00227 -0.0141915 5.65367e-24)
(1.00205 -0.0143651 0)
(1.00183 -0.014522 0)
(1.00162 -0.0146605 2.09453e-21)
(1.00141 -0.0147814 0)
(1.0012 -0.0148867 0)
(1.001 -0.0149743 -2.06387e-21)
(1.00081 -0.0150471 4.13712e-21)
(1.00062 -0.0151038 2.05646e-21)
(1.00044 -0.0151451 0)
(1.00026 -0.0151736 2.03161e-21)
(1.0001 -0.0151869 -5.08757e-21)
(0.999934 -0.0151873 -2.02318e-21)
(0.999779 -0.0151756 -2.01099e-21)
(0.999632 -0.0151508 2.01103e-21)
(0.999491 -0.0151153 -2.71043e-25)
(0.999359 -0.0150691 1.55356e-23)
(0.999234 -0.0150119 2.46543e-22)
(0.999117 -0.014946 -4.94354e-22)
(0.999008 -0.0148712 0)
(0.998907 -0.0147875 -9.79109e-22)
(0.998814 -0.0146973 0)
(0.99873 -0.0145997 0)
(0.998655 -0.0144958 -1.92845e-21)
(0.998588 -0.0143872 -7.68488e-21)
(0.99853 -0.0142728 8.96312e-24)
(0.998482 -0.0141554 1.91808e-21)
(0.998442 -0.0140345 0)
(0.998411 -0.0139102 -1.89368e-21)
(0.998389 -0.0137853 -3.75819e-21)
(0.998377 -0.013658 3.75638e-21)
(0.998374 -0.0135311 7.4687e-21)
(0.998381 -0.0134043 -7.43759e-21)
(0.998397 -0.0132776 -1.69043e-23)
(0.998423 -0.0131542 -3.69867e-21)
(0.998459 -0.0130316 -1.79389e-23)
(0.998505 -0.012914 0)
(0.998565 -0.0127999 -3.65605e-21)
(0.99864 -0.0126916 -1.81421e-21)
(0.998736 -0.0125926 1.81355e-21)
(0.998863 -0.0125055 3.61739e-21)
(1.00596 -0.0163142 0)
(1.00571 -0.0167132 4.34135e-21)
(1.00541 -0.0170822 -1.29836e-20)
(1.00509 -0.0174351 0)
(1.00476 -0.0177654 0)
(1.00443 -0.0180761 -8.55896e-21)
(1.0041 -0.0183648 8.54091e-21)
(1.00377 -0.0186311 -4.25341e-21)
(1.00345 -0.0188787 5.8463e-24)
(1.00313 -0.0191032 4.22745e-21)
(1.00282 -0.019309 0)
(1.00251 -0.0194934 0)
(1.00221 -0.0196576 4.17124e-21)
(1.00191 -0.0198039 0)
(1.00162 -0.0199294 0)
(1.00134 -0.0200378 -4.11956e-21)
(1.00106 -0.0201268 9.89658e-26)
(1.0008 -0.0201979 0)
(1.00054 -0.0202538 2.03452e-21)
(1.00029 -0.020291 5.05917e-21)
(1.00005 -0.0203129 -2.02028e-21)
(0.999816 -0.0203199 0)
(0.999594 -0.0203106 -9.97503e-22)
(0.999383 -0.0202881 1.245e-21)
(0.999181 -0.0202521 -5.42939e-22)
(0.998991 -0.0202019 -2.46297e-22)
(0.998811 -0.0201407 4.89619e-22)
(0.998643 -0.0200677 -9.79787e-22)
(0.998486 -0.0199828 0)
(0.99834 -0.0198892 -3.8684e-21)
(0.998207 -0.0197853 5.78356e-21)
(0.998085 -0.0196726 1.90757e-21)
(0.997976 -0.0195529 -9.01117e-24)
(0.99788 -0.0194245 1.89235e-21)
(0.997796 -0.0192913 -1.89987e-21)
(0.997724 -0.0191523 -3.76689e-21)
(0.997666 -0.0190071 7.51564e-21)
(0.997621 -0.01886 -3.7348e-21)
(0.997588 -0.0187079 7.44812e-21)
(0.997569 -0.0185547 -1.97527e-23)
(0.997564 -0.0183996 7.38931e-21)
(0.997571 -0.0182425 -3.68949e-21)
(0.997593 -0.0180877 0)
(0.997629 -0.0179316 -2.1943e-23)
(0.997681 -0.0177798 7.25272e-21)
(0.997753 -0.0176303 0)
(0.997848 -0.0174858 0)
(0.997975 -0.0173511 6.27241e-21)
(0.998149 -0.0172246 8.97636e-22)
(1.00837 -0.0235366 1.08853e-21)
(1.00803 -0.0239869 7.61811e-21)
(1.00763 -0.0244026 8.64576e-21)
(1.0072 -0.0248002 -8.63965e-21)
(1.00676 -0.0251715 0)
(1.00631 -0.0255211 4.88497e-24)
(1.00587 -0.0258453 -4.26491e-21)
(1.00542 -0.0261445 -4.2445e-21)
(1.00498 -0.0264229 1.26981e-20)
(1.00454 -0.0266747 -4.22207e-21)
(1.00412 -0.026906 0)
(1.00369 -0.0271122 8.35118e-21)
(1.00328 -0.0272958 -8.32765e-21)
(1.00287 -0.0274589 9.71168e-24)
(1.00246 -0.0275978 8.24971e-21)
(1.00207 -0.0277173 -2.06286e-21)
(1.00169 -0.0278134 -2.037e-21)
(1.00131 -0.0278891 4.07913e-21)
(1.00095 -0.027947 0)
(1.0006 -0.0279819 -2.01769e-21)
(1.00025 -0.0279991 2.00678e-21)
(0.999924 -0.0279981 1.99344e-21)
(0.999607 -0.0279768 -1.9934e-21)
(0.999302 -0.0279398 2.47041e-22)
(0.99901 -0.0278856 3.08186e-23)
(0.998732 -0.0278134 7.34503e-22)
(0.998468 -0.0277278 -4.33457e-25)
(0.998219 -0.0276268 0)
(0.997986 -0.0275099 0)
(0.997767 -0.027382 7.86282e-24)
(0.997565 -0.0272402 -1.90236e-21)
(0.997378 -0.0270863 3.82153e-21)
(0.997208 -0.026923 -3.79446e-21)
(0.997055 -0.026747 3.76948e-21)
(0.996919 -0.0265643 -7.51978e-21)
(0.996799 -0.0263727 -4.25959e-24)
(0.996698 -0.0261716 3.73524e-21)
(0.996613 -0.0259668 3.70492e-21)
(0.996546 -0.0257538 -7.4025e-21)
(0.996497 -0.0255377 -7.37983e-21)
(0.996466 -0.0253174 -3.66957e-21)
(0.996453 -0.0250923 -3.65634e-21)
(0.996458 -0.0248682 0)
(0.996484 -0.0246402 -3.63207e-21)
(0.996532 -0.0244153 -5.3674e-23)
(0.996608 -0.0241912 7.15762e-21)
(0.996718 -0.0239712 -8.91782e-21)
(0.996874 -0.0237609 1.73121e-21)
(0.997095 -0.0235535 0)
(1.01135 -0.0348172 0)
(1.01089 -0.035307 -8.68162e-21)
(1.01036 -0.0357593 0)
(1.00979 -0.0361895 8.61087e-21)
(1.0092 -0.036587 4.28228e-21)
(1.00861 -0.0369593 -8.54787e-21)
(1.00802 -0.037301 1.2775e-20)
(1.00743 -0.0376134 4.23312e-21)
(1.00684 -0.0379011 -4.21788e-21)
(1.00626 -0.0381569 0)
(1.00568 -0.0383888 4.17274e-21)
(1.00511 -0.0385898 -8.33728e-21)
(1.00455 -0.038764 4.14279e-21)
(1.004 -0.0389134 -4.12543e-21)
(1.00345 -0.0390329 7.60418e-24)
(1.00292 -0.039129 4.09584e-21)
(1.00239 -0.0391955 -8.13214e-21)
(1.00188 -0.0392373 0)
(1.00137 -0.0392569 4.01698e-21)
(1.00089 -0.0392468 -4.01728e-21)
(1.00041 -0.0392149 -9.97771e-22)
(0.999949 -0.0391595 0)
(0.999503 -0.0390778 9.84787e-22)
(0.999073 -0.0389762 2.43887e-22)
(0.99866 -0.038852 -5.20205e-22)
(0.998264 -0.0387041 7.27289e-22)
(0.997887 -0.0385388 4.80124e-22)
(0.997529 -0.038353 -9.64925e-22)
(0.99719 -0.0381459 0)
(0.996872 -0.0379242 -1.90187e-21)
(0.996574 -0.0376836 3.79188e-21)
(0.996297 -0.0374265 0)
(0.996042 -0.0371566 1.88456e-21)
(0.99581 -0.0368691 0)
(0.995599 -0.036572 3.73531e-21)
(0.995411 -0.0362627 -7.40893e-21)
(0.995246 -0.0359396 3.68086e-21)
(0.995103 -0.0356109 -1.58005e-23)
(0.994984 -0.0352704 3.65405e-21)
(0.994888 -0.0349244 -3.64997e-21)
(0.994816 -0.0345719 3.64027e-21)
(0.994768 -0.0342115 7.18879e-21)
(0.994744 -0.0338511 0)
(0.994748 -0.0334841 0)
(0.994782 -0.0331193 -7.17147e-21)
(0.994853 -0.0327541 -1.42211e-20)
(0.994972 -0.0323923 1.41696e-20)
(0.995154 -0.0320409 -7.97716e-21)
(0.995423 -0.0316848 7.88659e-21)
(1.01498 -0.049961 0)
(1.01435 -0.0504991 8.6898e-21)
(1.01365 -0.0509967 8.64028e-21)
(1.0129 -0.0514655 1.29009e-20)
(1.01213 -0.0518925 -1.2857e-20)
(1.01135 -0.0522881 -4.25094e-21)
(1.01057 -0.052645 1.27439e-20)
(1.00979 -0.0529657 -4.21011e-21)
(1.00901 -0.053255 4.21336e-21)
(1.00824 -0.053504 0)
(1.00747 -0.0537224 8.31777e-21)
(1.00671 -0.0539009 0)
(1.00596 -0.0540456 -4.119e-21)
(1.00521 -0.0541574 -4.09403e-21)
(1.00447 -0.0542304 -8.28199e-24)
(1.00375 -0.0542726 0)
(1.00303 -0.0542752 4.04228e-21)
(1.00233 -0.0542458 8.02709e-21)
(1.00164 -0.0541858 0)
(1.00097 -0.0540859 1.98018e-21)
(1.00031 -0.053957 -1.97992e-21)
(0.999673 -0.0537957 -1.959e-21)
(0.999053 -0.0535988 1.95375e-21)
(0.998454 -0.053375 3.86492e-25)
(0.997876 -0.0531199 -4.84399e-22)
(0.997322 -0.0528324 -2.10314e-22)
(0.99679 -0.0525213 -4.79478e-22)
(0.996283 -0.0521817 9.47473e-22)
(0.995803 -0.051813 0)
(0.995349 -0.0514245 1.87882e-21)
(0.994922 -0.0510099 -3.75906e-21)
(0.994523 -0.0505728 0)
(0.994153 -0.0501182 0)
(0.993813 -0.0496397 3.68387e-21)
(0.993502 -0.0491484 -7.35342e-21)
(0.993221 -0.0486402 3.69109e-21)
(0.99297 -0.0481135 3.65023e-21)
(0.99275 -0.0475793 0)
(0.99256 -0.0470291 1.07824e-20)
(0.992401 -0.0464716 -7.19215e-21)
(0.992272 -0.0459052 -3.53364e-21)
(0.992175 -0.0453283 -7.26803e-23)
(0.992111 -0.0447509 -7.06729e-21)
(0.992083 -0.0441647 -7.03482e-21)
(0.992095 -0.0435809 -7.01417e-21)
(0.992158 -0.0429963 7.43962e-23)
(0.992284 -0.0424159 -7.46764e-23)
(0.992494 -0.0418477 0)
(0.992816 -0.0412641 -1.39089e-20)
(1.01937 -0.0680814 0)
(1.01852 -0.0686875 2.17666e-21)
(1.01758 -0.0692507 -1.07469e-20)
(1.0166 -0.0697759 -8.56087e-21)
(1.01559 -0.0702478 8.51679e-21)
(1.01457 -0.0706794 4.24979e-21)
(1.01355 -0.0710616 -4.20678e-21)
(1.01252 -0.0713979 0)
(1.01149 -0.0716928 0)
(1.01047 -0.0719358 8.29193e-21)
(1.00945 -0.0721381 -8.26323e-21)
(1.00843 -0.0722877 4.0965e-21)
(1.00742 -0.0723927 -4.09415e-21)
(1.00642 -0.0724524 4.06747e-21)
(1.00542 -0.0724604 4.0314e-21)
(1.00444 -0.0724256 -4.02578e-21)
(1.00347 -0.0723369 -4.00021e-21)
(1.00252 -0.0722047 -3.97635e-21)
(1.00158 -0.0720286 3.93422e-21)
(1.00066 -0.071798 -3.93463e-21)
(0.999755 -0.0715271 0)
(0.998877 -0.0712101 1.93015e-21)
(0.998024 -0.0708442 -1.92846e-21)
(0.997196 -0.0704404 1.44224e-21)
(0.996397 -0.0699924 0)
(0.995628 -0.0694999 9.47236e-22)
(0.99489 -0.0689745 0)
(0.994186 -0.0684089 -9.41549e-22)
(0.993517 -0.0678039 -5.57168e-24)
(0.992883 -0.0671714 1.00027e-23)
(0.992287 -0.0665032 3.68573e-21)