/*--------------------------------*- C++ -*----------------------------------*\
| =========                 |                                                 |
| \\      /  F ield         | OpenFOAM: The Open Source CFD Toolbox           |
|  \\    /   O peration     | Version:  2312                                  |
|   \\  /    A nd           | Website:  www.openfoam.com                      |
|    \\/     M anipulation  |                                                 |
\*---------------------------------------------------------------------------*/
FoamFile
{
    version     2.0;
    format      ascii;
    arch        "LSB;label=32;scalar=64";
    class       surfaceScalarField;
    location    "57.355958070412449";
    object      phi;
}
// * * * * * * * * * * * * * * * * * * * * * * * * * * * * * * * * * * * * * //

dimensions      [0 3 -1 0 0 0 0];

oriented        oriented;

internalField   nonuniform List<scalar> 
41713
(
0.00736087
0.0568856
0.00362793
0.0679794
0.00211654
0.0657578
0.00148337
0.0648796
0.00109722
0.0646326
0.000842787
0.0645009
0.000667353
0.0644219
0.000539985
0.0643738
0.000444074
0.0643423
0.000369962
0.0643205
0.000311523
0.0643049
0.000264702
0.0642933
0.000226734
0.0642844
0.00019568
0.0642775
0.000170148
0.064272
0.000149117
0.0642675
0.000131824
0.0642637
0.000117688
0.0642606
0.000106252
0.0642579
9.71377e-05
0.0642556
8.99859e-05
0.0642536
8.44363e-05
0.064252
8.02107e-05
0.0642507
7.71283e-05
0.0548143
7.45165e-05
0.0456786
7.21348e-05
0.0380657
6.9971e-05
0.0317216
6.80347e-05
0.0264348
0.0220291
6.6285e-05
0.00999257
0.046893
0.00842405
0.0695479
0.00571196
0.0684699
0.00411794
0.0664736
0.00311655
0.065634
0.00242428
0.0651931
0.00192539
0.0649208
0.00155445
0.0647447
0.00127114
0.0646257
0.00104969
0.064542
0.000873136
0.0644814
0.000730117
0.0644363
0.000612787
0.0644017
0.00051561
0.0643747
0.000434604
0.064353
0.000366856
0.0643352
0.000310201
0.0643204
0.000263008
0.0643078
0.000224025
0.0642969
0.000192269
0.0642873
0.000166942
0.0642789
0.000147348
0.0642716
0.000132781
0.0642652
0.000123443
0.0548236
0.000117264
0.0456848
0.000112839
0.0380701
0.000109342
0.0317251
0.000106353
0.0264378
0.0220316
0.000103834
0.0085927
0.0383003
0.0097011
0.0684395
0.00746201
0.070709
0.00569215
0.0682435
0.00450231
0.0668238
0.00361518
0.0660803
0.00293063
0.0656053
0.00239707
0.0652783
0.00197583
0.0650469
0.00163834
0.0648795
0.00136418
0.0647556
0.00113873
0.0646617
0.00095144
0.064589
0.00079463
0.0645315
0.000662643
0.064485
0.000551274
0.0644466
0.000457374
0.0644143
0.000378556
0.0643866
0.000312997
0.0643624
0.000259282
0.064341
0.000216295
0.0643219
0.000183116
0.0643048
0.000158817
0.0642895
0.000143884
0.0548385
0.000134674
0.045694
0.000128605
0.0380762
0.000124137
0.0317296
0.000120488
0.0264414
0.0220347
0.000117485
0.00677087
0.0315294
0.00946484
0.0657455
0.00810769
0.0720662
0.00642647
0.0699247
0.00523333
0.068017
0.00432516
0.0669884
0.00359067
0.0663398
0.00299054
0.0658784
0.00249759
0.0655398
0.0020898
0.0652873
0.0017499
0.0650955
0.00146452
0.0649471
0.00122337
0.0648302
0.00101858
0.0647363
0.000844127
0.0646594
0.000695416
0.0645953
0.000568931
0.0645408
0.000461979
0.0644935
0.00037249
0.0644519
0.000298861
0.0644147
0.000239842
0.0643809
0.000194409
0.0643502
0.000161459
0.0643225
0.000141669
0.0548583
0.000129907
0.0457057
0.000122506
0.0380836
0.000117326
0.0317347
0.000113322
0.0264454
0.0220378
0.0001102
0.00506063
0.0264688
0.00855708
0.0622491
0.00816422
0.072459
0.00671808
0.0713708
0.00555998
0.0691751
0.00468034
0.0678681
0.00395797
0.0670622
0.00334915
0.0664873
0.00283294
0.0660561
0.00239342
0.0657268
0.00201764
0.0654713
0.0016951
0.0652696
0.00141736
0.0651079
0.00117767
0.064976
0.000970683
0.0648664
0.00079218
0.0647738
0.000638872
0.0646941
0.000508201
0.0646242
0.000398187
0.0645619
0.000307303
0.0645055
0.000234358
0.0644539
0.000178357
0.0644062
0.00013812
0.0643627
0.000114549
0.0548819
0.000101079
0.0457192
9.30617e-05
0.0380916
8.78286e-05
0.03174
8.41078e-05
0.0264492
0.0220404
8.14748e-05
0.00361373
0.0228551
0.00729735
0.0585655
0.00776264
0.0719937
0.00670021
0.0724333
0.00563592
0.0702393
0.00480591
0.0686981
0.00411942
0.0677487
0.0035283
0.0670784
0.0030147
0.0665696
0.00256709
0.0661744
0.00217598
0.0658624
0.00183352
0.0656121
0.00153329
0.0654081
0.00127006
0.0652392
0.00103956
0.0650969
0.000838391
0.064975
0.000663855
0.0648686
0.000513845
0.0647742
0.000386742
0.064689
0.000281315
0.064611
0.000196628
0.0645386
0.000131875
0.0644709
8.58362e-05
0.0644088
5.98745e-05
0.0549078
4.57775e-05
0.0457333
3.80719e-05
0.0380993
3.35665e-05
0.0317445
3.07346e-05
0.026452
0.022042
2.91464e-05
0.00251845
0.0203366
0.0060053
0.0550786
0.00707679
0.0709222
0.00644257
0.0730675
0.0055267
0.0711552
0.00476613
0.0694587
0.00413028
0.0683845
0.00357225
0.0676364
0.00307621
0.0670657
0.00263453
0.0666161
0.00224094
0.066256
0.00189003
0.065963
0.0015773
0.0657209
0.00129898
0.0655175
0.00105202
0.0653439
0.000833944
0.065193
0.000642818
0.0650597
0.000477168
0.0649399
0.000335908
0.0648303
0.00021828
0.0647286
0.00012378
0.0646331
5.20342e-05
0.0645427
2.28663e-06
0.0644585
-2.55593e-05
0.0549357
-3.95517e-05
0.0457473
-4.62048e-05
0.038106
-4.92067e-05
0.0317475
-5.03539e-05
0.0264531
0.022042
-5.03794e-05
0.00175468
0.0185819
0.0048765
0.0519568
0.00630125
0.0694975
0.00604817
0.0733206
0.0052989
0.0719045
0.00461302
0.0701445
0.00403128
0.0689663
0.00351337
0.0681543
0.00304331
0.0675358
0.00261601
0.0670434
0.00222796
0.066644
0.00187601
0.066315
0.0015574
0.0660395
0.0012698
0.0658051
0.00101131
0.0656024
0.000780432
0.0654239
0.000576047
0.0652641
0.000397394
0.0651185
0.000244021
0.0649837
0.00011575
0.0648569
1.25675e-05
0.0647362
-6.56075e-05
0.0646209
-0.000119333
0.0645122
-0.000147282
0.0549636
-0.000159882
0.0457599
-0.000164325
0.0381104
-0.000164686
0.0317478
-0.000162974
0.0264514
0.0220391
-0.000160027
0.00124464
0.0173373
0.00395897
0.0492425
0.0055501
0.0679064
0.00560114
0.0732695
0.00501363
0.072492
0.0043972
0.070761
0.0038626
0.0695009
0.00338258
0.0686343
0.00293996
0.0679784
0.00253024
0.0674531
0.00215164
0.0670226
0.00180267
0.0666639
0.00148202
0.0663601
0.0011886
0.0660985
0.000921556
0.0658694
0.000680306
0.0656652
0.000464549
0.0654799
0.000274264
0.0653088
0.000109685
0.0651482
-2.87638e-05
0.0649953
-0.000140507
0.064848
-0.000224855
0.0647052
-0.000281762
0.0645691
-0.00031014
0.054992
-0.000321168
0.0457709
-0.000322895
0.0381121
-0.000319956
0.0317449
-0.000314711
0.0264462
0.0220326
-0.000308236
0.000911267
0.016426
0.00323342
0.0469203
0.00486632
0.0662735
0.00514524
0.0729906
0.00470629
0.0729309
0.00415314
0.0713141
0.00365608
0.0699979
0.00320688
0.0690835
0.0027882
0.0683971
0.00239496
0.0678464
0.00202609
0.0673915
0.00168113
0.0670089
0.00135976
0.0666815
0.00106181
0.0663965
0.0007873
0.0661439
0.000536443
0.065916
0.000309694
0.0657066
0.00010773
0.0655108
-6.85832e-05
0.0653245
-0.000218136
0.0651449
-0.000339524
0.0649694
-0.000431311
0.064797
-0.000492839
0.0646307
-0.000522407
0.0550216
-0.00053226
0.0457808
-0.000531294
0.0381112
-0.000524722
0.0317383
-0.000515332
0.0264368
0.0220218
-0.00050456
0.000694792
0.0157312
0.00266622
0.0449489
0.00426196
0.0646777
0.00470129
0.0725513
0.00439324
0.073239
0.00389845
0.0718089
0.00343106
0.0704653
0.00300506
0.0695095
0.00260502
0.0687971
0.00222492
0.0682265
0.00186377
0.0677526
0.00152164
0.067351
0.00119881
0.0670043
0.000895775
0.0666995
0.000613177
0.0664265
0.000351887
0.0661773
0.000112974
0.0659455
-0.000102313
0.0657261
-0.000292448
0.0655147
-0.00045551
0.0653079
-0.000589279
0.0651031
-0.000691512
0.0648992
-0.000760712
0.0646999
-0.000793994
0.0550549
-0.000804444
0.0457912
-0.000801859
0.0381086
-0.000792142
0.0317286
-0.000778647
0.0264233
0.0220065
-0.000763307
0.000551628
0.0151796
0.00222301
0.0432775
0.00373607
0.0631647
0.00428049
0.0720068
0.00408339
0.0734361
0.00364221
0.0722501
0.00319857
0.0709089
0.00278906
0.069919
0.00240219
0.069184
0.00203115
0.0685975
0.00167462
0.0681092
0.00133285
0.0676928
0.00100648
0.0673307
0.000696383
0.0670096
0.000403669
0.0667192
0.000129659
0.0664513
-0.000124155
0.0661994
-0.000355976
0.0659579
-0.000563557
0.0657223
-0.000744225
0.0654886
-0.000894997
0.0652539
-0.00101279
0.065017
-0.00109518
0.0647823
-0.001137
0.0550967
-0.00115186
0.0458061
-0.00115041
0.0381071
-0.00113933
0.0317175
-0.00112272
0.0264067
0.021987
-0.00110325
0.000452516
0.0147271
0.00187341
0.0418566
0.00328122
0.0617569
0.0038883
0.0713998
0.00378245
0.0735419
0.00338999
0.0726425
0.00296567
0.0713333
0.00256702
0.0703177
0.00218819
0.0695628
0.001822
0.0689637
0.00146657
0.0684646
0.00112205
0.0680373
0.000789202
0.0676635
0.000469112
0.0673297
0.000163137
0.0670252
-0.000127189
0.0667417
-0.000400005
0.0664722
-0.000652944
0.0662108
-0.000883144
0.0659525
-0.00108731
0.0656928
-0.00126178
0.0654284
-0.00140271
0.065158
-0.00150688
0.0648864
-0.00156532
0.0551551
-0.00159153
0.0458323
-0.00159671
0.0381123
-0.00158828
0.0317091
-0.00157128
0.0263897
0.0219651
-0.00154937
0.000379723
0.0143474
0.00159343
0.0406429
0.00288771
0.0604626
0.00352623
0.0707612
0.00349379
0.0735744
0.00314536
0.072991
0.00273727
0.0717413
0.00234506
0.0707099
0.00196977
0.0699381
0.00160443
0.069329
0.00124649
0.0688225
0.00089582
0.068388
0.000553081
0.0680063
0.00021939
0.0676634
-0.000103961
0.0673486
-0.000415281
0.067053
-0.000712352
0.0667692
-0.000992363
0.0664908
-0.00125199
0.0662121
-0.0014874
0.0659282
-0.00169438
0.0656353
-0.00186858
0.0653322
-0.00200648
0.0650243
-0.00209368
0.0552423
-0.00214271
0.0458813
-0.00216442
0.038134
-0.0021665
0.0317112
-0.00215494
0.0263781
0.021945
-0.00213481
0.00032322
0.0140241
0.00136728
0.0395989
0.00254913
0.0592807
0.00319586
0.0701145
0.00321993
0.0735503
0.00291031
0.0733006
0.00251623
0.0721354
0.00212733
0.0710988
0.00175194
0.0703135
0.00138394
0.069697
0.00102018
0.0691863
0.000660028
0.0687481
0.000303907
0.0683624
-4.736e-05
0.0680147
-0.000392554
0.0676937
-0.000729967
0.0673904
-0.00105713
0.0670964
-0.00137098
0.0668047
-0.0016678
0.0665089
-0.00194329
0.0662037
-0.00219278
0.0658848
-0.00241191
0.0655513
-0.002598
0.0652104
-0.00273069
0.055375
-0.002821
0.0459716
-0.00287785
0.0381909
-0.0029069
0.0317402
-0.00291343
0.0263847
0.0219352
-0.00290365
0.000238435
0.0137857
0.00100787
0.0388294
0.0019207
0.0583679
0.00246112
0.0695741
0.0025154
0.073496
0.00228105
0.0735349
0.00195869
0.0724578
0.00163209
0.0714254
0.0013138
0.0706318
0.000999564
0.0700113
0.000686249
0.0694996
0.000372846
0.0690615
5.93114e-05
0.0686759
-0.000254057
0.068328
-0.000566492
0.0680062
-0.000876571
0.0677005
-0.00118232
0.0674022
-0.00148109
0.0671035
-0.00176952
0.0667973
-0.00204349
0.0664776
-0.00229844
0.0661398
-0.00253022
0.0657831
-0.00273728
0.0654175
-0.00289775
0.0555355
-0.0030222
0.0460961
-0.00311758
0.0382862
-0.00318524
0.0318079
-0.00322533
0.0264247
0.0219517
-0.00324182
0.000179376
0.0136063
0.000754177
0.0382546
0.00145988
0.0576622
0.00190314
0.0691308
0.00196792
0.0734313
0.00178945
0.0737134
0.00152722
0.07272
0.00125562
0.071697
0.000988676
0.0708987
0.000723465
0.0702765
0.000456969
0.0697661
0.000187915
0.0693306
-8.41636e-05
0.068948
-0.000359361
0.0686032
-0.00063731
0.0682841
-0.00091717
0.0679803
-0.00119758
0.0676826
-0.00147652
0.0673824
-0.00175122
0.067072
-0.002018
0.0667444
-0.0022724
0.0663942
-0.00250992
0.0660206
-0.00272811
0.0656357
-0.00290304
0.0557104
-0.00304768
0.0462407
-0.00317346
0.038412
-0.00328511
0.0319195
-0.00338037
0.02652
0.0220169
-0.00344554
0.00013911
0.0134672
0.000577358
0.0378164
0.00112923
0.0571103
0.00149176
0.0687683
0.00155725
0.0733658
0.00141981
0.0738509
0.00120627
0.0729336
0.000980881
0.0719224
0.000757597
0.071122
0.000534433
0.0704996
0.000308616
0.0699919
7.87505e-05
0.0695604
-0.0001559
0.0691827
-0.000395718
0.068843
-0.000640743
0.0685292
-0.000890683
0.0682303
-0.00114481
0.0679367
-0.00140182
0.0676394
-0.00165971
0.0673299
-0.00191555
0.0670003
-0.00216535
0.066644
-0.00240434
0.0662596
-0.00262778
0.0658591
-0.00280558
0.0558882
-0.00294871
0.0463839
-0.00307414
0.0385375
-0.00319631
0.0320417
-0.00333349
0.0266572
0.0221803
-0.00349693
0.000107195
0.01336
0.000449402
0.0374742
0.000889529
0.0566702
0.00118802
0.0684698
0.00124813
0.0733057
0.00113879
0.0739602
0.000963239
0.0731091
0.000776255
0.0721094
0.0005901
0.0713082
0.000402993
0.0706867
0.000212386
0.0701825
1.68992e-05
0.0697559
-0.000184279
0.0693838
-0.000391732
0.0690505
-0.00060586
0.0687433
-0.000826826
0.0684512
-0.00105448
0.0681643
-0.00128823
0.0678732
-0.00152689
0.0675686
-0.00176852
0.0672419
-0.00201037
0.0668858
-0.00224879
0.066498
-0.00247877
0.0660891
-0.00266342
0.0560729
-0.0028021
0.0465225
-0.00290145
0.0386368
-0.00297133
0.0321116
-0.00302921
0.0267151
-0.00321329
0.0223644
0.000110755
0.0219829
0.000152708
0.0219854
0.00018572
0.0219943
0.000216392
0.0219967
0.000241246
0.0220025
0.000261572
0.022007
0.000278869
0.0220101
0.000289849
0.0220164
0.000298824
0.0220184
0.000302779
0.0220234
0.000303666
0.0220265
0.000302028
0.022029
0.000295943
0.0220334
0.000288256
0.022035
0.000277317
0.0220383
0.000264069
0.0220406
0.000249484
0.0220419
0.000231916
0.0220449
0.000213279
0.022046
0.000193399
0.0220472
0.000171949
0.0220488
0.000149878
0.0220494
0.000127132
0.0220501
0.00010387
0.0220506
8.04909e-05
0.0220507
5.71632e-05
0.0220507
3.42707e-05
0.0220502
1.18121e-05
0.0220498
-9.89201e-06
0.0220491
-3.02015e-05
0.0220477
-4.96116e-05
0.0220468
-6.72924e-05
0.022045
-8.29396e-05
0.022043
-9.73179e-05
0.0220417
-0.00010839
0.0220384
-0.000117478
0.0220364
-0.000124276
0.0220342
-0.000126891
0.02203
-0.000127713
0.0220282
-0.000123852
0.0220235
-0.000116821
0.0220203
-0.000106654
0.0220172
-9.06724e-05
0.0220114
-7.25159e-05
0.0220092
-4.76264e-05
0.0220025
-1.92781e-05
0.021999
1.38937e-05
0.0219942
5.34363e-05
0.0219878
0.0219853
9.54945e-05
0.000147745
0.021939
0.000189371
0.0219438
0.000222285
0.0219614
0.000253103
0.0219659
0.000278356
0.0219772
0.000299331
0.0219861
0.000317516
0.0219919
0.000329618
0.0220043
0.000339932
0.0220081
0.000345434
0.0220179
0.000348063
0.0220238
0.000348345
0.0220287
0.000344352
0.0220374
0.00033891
0.0220405
0.000330357
0.0220468
0.000319625
0.0220513
0.000307666
0.0220539
0.000292831
0.0220598
0.000277012
0.0220618
0.000260024
0.0220642
0.000241529
0.0220673
0.00022246
0.0220685
0.000202749
0.0220698
0.000182545
0.0220708
0.000162232
0.022071
0.000141964
0.022071
0.000122119
0.0220701
0.000102676
0.0220693
8.39452e-05
0.0220678
6.65588e-05
0.0220651
4.99979e-05
0.0220633
3.50841e-05
0.0220599
2.21068e-05
0.022056
1.02803e-05
0.0220536
1.64154e-06
0.0220471
-5.15486e-06
0.0220432
-9.81224e-06
0.0220388
-1.04398e-05
0.0220306
-9.45413e-06
0.0220272
-3.96488e-06
0.022018
4.4922e-06
0.0220119
1.58707e-05
0.0220058
3.28424e-05
0.0219944
5.17405e-05
0.0219903
7.71263e-05
0.0219771
0.000105696
0.0219704
0.000138799
0.0219611
0.000177958
0.0219487
0.021944
0.000219298
0.000161115
0.0218953
0.000202684
0.0219022
0.000235799
0.0219283
0.000267084
0.0219346
0.000293066
0.0219513
0.000315022
0.0219641
0.000334434
0.0219725
0.000347994
0.0219907
0.000359987
0.0219961
0.000367378
0.0220105
0.000372092
0.0220191
0.000374643
0.0220262
0.000373092
0.022039
0.000370249
0.0220433
0.000364442
0.0220527
0.000356588
0.0220592
0.000347625
0.0220629
0.000335894
0.0220715
0.00032327
0.0220744
0.000309553
0.0220779
0.000294398
0.0220825
0.000278716
0.0220842
0.000262431
0.0220861
0.000245679
0.0220876
0.000228825
0.0220879
0.000212013
0.0220878
0.000195609
0.0220865
0.000179574
0.0220853
0.000164206
0.0220832
0.000150128
0.0220791
0.000136801
0.0220767
0.000125037
0.0220717
0.000115114
0.0220659
0.000106227
0.0220624
0.00010041
0.0220529
9.62946e-05
0.0220474
9.4165e-05
0.0220409
9.59051e-05
0.0220289
9.90734e-05
0.022024
0.000106559
0.0220105
0.000116808
0.0220016
0.000129757
0.0219929
0.000148078
0.0219761
0.000168074
0.0219703
0.000194309
0.0219508
0.000223451
0.0219413
0.000256839
0.0219277
0.00029598
0.0219095
0.021903
0.000336961
0.000154075
0.0218515
0.000196097
0.0218602
0.000229905
0.0218945
0.000262149
0.0219023
0.000289357
0.0219241
0.000312805
0.0219407
0.000333966
0.0219513
0.000349521
0.0219752
0.000363745
0.0219818
0.000373589
0.0220007
0.000380967
0.0220117
0.000386378
0.0220207
0.00038787
0.0220375
0.000388239
0.022043
0.000385799
0.0220551
0.000381454
0.0220635
0.000376126
0.0220682
0.000368143
0.0220795
0.000359364
0.0220832
0.000349576
0.0220877
0.000338419
0.0220936
0.000326788
0.0220958
0.000314592
0.0220983
0.000301956
0.0221002
0.000289227
0.0221006
0.000276534
0.0221005
0.000264232
0.0220988
0.000252263
0.0220973
0.000240913
0.0220945
0.000230793
0.0220892
0.000221344
0.0220861
0.000213369
0.0220797
0.000207132
0.0220721
0.000201807
0.0220678
0.000199426
0.0220553
0.000198599
0.0220482
0.000199597
0.0220399
0.000204299
0.0220242
0.000210239
0.0220181
0.000220306
0.0220005
0.000232925
0.021989
0.00024802
0.0219778
0.00026826
0.0219558
0.000289923
0.0219486
0.000317574
0.0219232
0.000347855
0.021911
0.000382093
0.0218935
0.000421787
0.0218698
0.0218618
0.000462983
0.000126334
0.0218066
0.000169537
0.021817
0.000204742
0.0218593
0.000238664
0.0218684
0.000267827
0.0218949
0.000293508
0.021915
0.000317176
0.0219276
0.000335497
0.0219568
0.000352743
0.0219646
0.000365844
0.0219876
0.000376706
0.0220009
0.000385814
0.0220116
0.000391199
0.0220321
0.000395646
0.0220385
0.000397452
0.0220533
0.000397506
0.0220635
0.000396715
0.022069
0.00039339
0.0220828
0.000389377
0.0220872
0.000384444
0.0220927
0.000378216
0.0220998
0.000371574
0.0221025
0.000364408
0.0221055
0.000356829
0.0221078
0.000349167
0.0221083
0.000341534
0.0221081
0.000334272
0.0221061
0.000327305
0.0221042
0.000320903
0.0221009
0.000315663
0.0220945
0.000311008
0.0220908
0.000307729
0.022083
0.000306075
0.0220738
0.000305201
0.0220686
0.000307134
0.0220533
0.000310461
0.0220449
0.000315441
0.022035
0.000323948
0.0220156
0.000333491
0.0220085
0.00034696
0.021987
0.000362759
0.0219732
0.000380801
0.0219597
0.000403757
0.0219329
0.000427871
0.0219245
0.000457725
0.0218933
0.000489929
0.0218788
0.000525805
0.0218576
0.000566843
0.0218288
0.0218196
0.000609045
7.61496e-05
0.0217596
0.000121379
0.0217718
0.000158964
0.0218217
0.000195548
0.0218318
0.000227628
0.0218628
0.00025652
0.0218861
0.000283699
0.0219005
0.00030581
0.0219347
0.000327124
0.0219433
0.000344554
0.0219701
0.000359993
0.0219854
0.000373914
0.0219977
0.000384327
0.0220217
0.000394008
0.0220288
0.000401234
0.0220461
0.000406877
0.0220578
0.000411829
0.022064
0.000414383
0.0220802
0.000416367
0.0220852
0.000417531
0.0220915
0.000417485
0.0220999
0.000417087
0.0221028
0.000416212
0.0221063
0.000414953
0.022109
0.000413619
0.0221096
0.000412307
0.0221094
0.000411343
0.022107
0.000410626
0.0221049
0.000410412
0.0221011
0.000411285
0.0220936
0.000412643
0.0220894
0.000415265
0.0220803
0.000419385
0.0220697
0.000424133
0.0220639
0.000431536
0.0220459
0.000440154
0.0220362
0.00045023
0.0220249
0.000463641
0.0220022
0.000477861
0.0219943
0.000495788
0.0219691
0.000515804
0.0219532
0.000537807
0.0219377
0.000564477
0.0219062
0.000592022
0.021897
0.000625043
0.0218603
0.000660119
0.0218437
0.000698564
0.0218191
0.000741866
0.0217855
0.0217755
0.000785975
-1.18936e-06
0.0217104
4.78009e-05
0.0217228
8.93775e-05
0.0217801
0.000129859
0.0217913
0.000166225
0.0218264
0.0001997
0.0218526
0.000231731
0.0218684
0.00025897
0.0219075
0.000285719
0.0219165
0.000308866
0.021947
0.000330299
0.021964
0.000350477
0.0219775
0.00036739
0.0220048
0.000383803
0.0220124
0.00039797
0.0220319
0.000410748
0.0220451
0.000423012
0.0220518
0.00043303
0.0220702
0.000442614
0.0220757
0.000451494
0.0220826
0.000459258
0.0220921
0.000466743
0.0220954
0.000473804
0.0220993
0.000480514
0.0221023
0.000487156
0.022103
0.000493808
0.0221027
0.000500779
0.0221001
0.00050794
0.0220978
0.000515528
0.0220935
0.000524112
0.022085
0.00053306
0.0220805
0.000543138
0.0220703
0.000554563
0.0220582
0.000566433
0.022052
0.000580777
0.0220316
0.000596124
0.0220209
0.000612701
0.0220083
0.000632386
0.0219826
0.000652614
0.0219741
0.000676296
0.0219454
0.000701785
0.0219277
0.000728968
0.0219105
0.000760536
0.0218746
0.000792655
0.0218649
0.000829955
0.021823
0.000868976
0.0218047
0.000911032
0.0217771
0.000957606
0.0217389
0.0217285
0.00100459
-0.000106235
0.0216566
-5.37433e-05
0.0216703
-8.39261e-06
0.0217348
3.75654e-05
0.0217454
7.98276e-05
0.0217842
0.000119507
0.0218129
0.000157907
0.02183
0.000191917
0.0218735
0.00022578
0.0218827
0.000256346
0.0219164
0.000285521
0.0219348
0.000313754
0.0219493
0.000339005
0.0219795
0.000364033
0.0219874
0.000387063
0.0220089
0.000408936
0.0220232
0.000430503
0.0220302
0.000450007
0.0220507
0.000469242
0.0220564
0.000487908
0.022064
0.000505574
0.0220745
0.000523048
0.0220779
0.000540159
0.0220822
0.000556958
0.0220855
0.000573698
0.0220862
0.00059043
0.022086
0.000607442
0.022083
0.000624571
0.0220807
0.00064203
0.0220761
0.000660371
0.0220667
0.000678921
0.0220619
0.000698434
0.0220508
0.000719102
0.0220376
0.000739987
0.0220311
0.000763122
0.0220084
0.000786993
0.021997
0.00081181
0.0219835
0.000839455
0.0219549
0.000867313
0.0219462
0.000898315
0.0219144
0.000930781
0.0218952
0.000964582
0.0218767
0.00100243
0.0218368
0.00104044
0.0218269
0.00108327
0.0217802
0.00112743
0.0217606
0.00117423
0.0217303
0.00122516
0.021688
0.0216776
0.00127603
-0.000248994
0.0215974
-0.000190016
0.0216113
-0.000137754
0.0216825
-8.58204e-05
0.0216935
-3.72981e-05
0.0217357
9.46297e-06
0.0217662
5.63312e-05
0.0217832
9.92445e-05
0.0218306
0.000142244
0.0218397
0.000182352
0.0218763
0.000221457
0.0218957
0.000259972
0.0219108
0.000295838
0.0219437
0.000331817
0.0219514
0.000366106
0.0219746
0.000399523
0.0219898
0.000432896
0.0219968
0.000464436
0.0220192
0.000495915
0.0220249
0.000527
0.0220329
0.00055723
0.0220442
0.000587382
0.0220477
0.00061725
0.0220523
0.000646857
0.0220559
0.000676415
0.0220567
0.00070594
0.0220565
0.000735697
0.0220533
0.000765475
0.0220509
0.000795454
0.0220461
0.000826166
0.022036
0.000856883
0.0220312
0.000888342
0.0220193
0.000920706
0.0220052
0.000952984
0.0219989
0.000987219
0.0219742
0.00102184
0.0219624
0.00105704
0.0219483
0.0010947
0.0219172
0.00113214
0.0219088
0.00117233
0.0218742
0.00121353
0.021854
0.00125561
0.0218347
0.00130131
0.0217911
0.00134666
0.0217815
0.00139641
0.0217304
0.00144698
0.02171
0.0014997
0.0216776
0.00155606
0.0216316
0.0216219
0.00161181
-0.000438362
0.0215312
-0.000371985
0.0215449
-0.000311785
0.0216223
-0.000250754
0.0216324
-0.000192512
0.0216774
-0.000135891
0.0217095
-7.96013e-05
0.0217269
-2.6739e-05
0.0217777
2.75275e-05
0.0217854
7.9607e-05
0.0218242
0.000131179
0.0218442
0.000182547
0.0218594
0.000231765
0.0218944
0.000281559
0.0219016
0.000330066
0.0219261
0.000378082
0.0219418
0.000426406
0.0219485
0.000473206
0.0219724
0.000520224
0.0219779
0.000567088
0.021986
0.000613295
0.021998
0.000659578
0.0220015
0.000705689
0.0220062
0.00075161
0.02201
0.000797497
0.0220108
0.000843324
0.0220107
0.000889317
0.0220073
0.000935201
0.022005
0.000981115
0.0220002
0.00102756
0.0219895
0.00107373
0.021985
0.00112034
0.0219727
0.00116752
0.021958
0.0012142
0.0219522
0.00126243
0.021926
0.00131058
0.0219143
0.00135879
0.0219001
0.00140897
0.0218671
0.00145836
0.0218594
0.00150994
0.0218226
0.00156195
0.021802
0.00161422
0.0217824
0.00166952
0.0217358
0.00172383
0.0217272
0.00178194
0.0216723
0.00184023
0.0216517
0.00190003
0.0216178
0.00196285
0.0215688
0.0215604
0.00202435
-0.00068877
0.0214566
-0.000613237
0.0214694
-0.000543243
0.0215523
-0.000471776
0.021561
-0.000402376
0.021608
-0.000333657
0.0216408
-0.00026413
0.0216573
-0.000197403
0.021711
-0.000129341
0.0217173
-6.30366e-05
0.0217579
3.60036e-06
0.0217775
7.11642e-05
0.0217919
0.000137129
0.0218285
0.00020426
0.0218345
0.000270667
0.0218597
0.000337122
0.0218753
0.000404376
0.0218812
0.000470538
0.0219062
0.000537318
0.0219111
0.00060428
0.021919
0.000670871
0.0219314
0.000737761
0.0219346
0.000804641
0.0219393
0.000871437
0.0219432
0.000938232
0.021944
0.00100493
0.021944
0.00107172
0.0219405
0.00113822
0.0219385
0.00120451
0.0219339
0.00127105
0.021923
0.00133694
0.0219191
0.00140285
0.0219068
0.00146883
0.0218921
0.00153374
0.0218873
0.00159965
0.0218601
0.0016648
0.0218491
0.0017293
0.0218356
0.00179507
0.0218013
0.00185924
0.0217952
0.00192485
0.021757
0.00199004
0.0217368
0.00205465
0.0217178
0.0021215
0.021669
0.00218643
0.0216623
0.00225439
0.0216044
0.00232165
0.0215844
0.00238957
0.0215498
0.00245971
0.0214987
0.0214925
0.00252759
-0.00101929
0.0213727
-0.000933235
0.0213833
-0.000851779
0.0214709
-0.000767763
0.0214769
-0.000684856
0.0215251
-0.000601706
0.0215577
-0.000516784
0.0215724
-0.000433655
0.0216278
-0.00034783
0.0216315
-0.000262755
0.0216729
-0.000176609
0.0216914
-8.91387e-05
0.0217044
-2.41268e-06
0.0217418
8.6349e-05
0.0217457
0.000175206
0.0217708
0.000264954
0.0217856
0.00035624
0.02179
0.000447077
0.0218154
0.000539101
0.0218191
0.000631794
0.0218263
0.000724528
0.0218387
0.000817893
0.0218412
0.000911496
0.0218457
0.00100518
0.0218495
0.00109893
0.0218503
0.00119256
0.0218503
0.00128617
0.0218469
0.00137926
0.0218454
0.00147181
0.0218413
0.00156422
0.0218306
0.00165544
0.0218279
0.00174607
0.0218161
0.00183609
0.021802
0.00192421
0.0217992
0.00201251
0.0217718
0.00209908
0.0217625
0.00218399
0.0217507
0.00226916
0.0217161
0.00235155
0.0217128
0.0024343
0.0216742
0.00251544
0.0216557
0.00259478
0.0216385
0.00267523
0.0215885
0.0027525
0.021585
0.00283169
0.0215252
0.00290896
0.0215072
0.00298574
0.021473
0.00306364
0.0214208
0.0214181
0.00313807
-0.00145542
0.0212787
-0.00135782
0.0212857
-0.00126351
0.0213766
-0.00116516
0.0213786
-0.00106656
0.0214265
-0.000966306
0.0214574
-0.000862823
0.0214689
-0.000759842
0.0215249
-0.000652796
0.0215245
-0.000545169
0.0215652
-0.000435021
0.0215812
-0.000322049
0.0215914
-0.000208634
0.0216283
-9.20095e-05
0.0216291
2.55786e-05
0.0216532
0.000144772
0.0216664
0.000266807
0.0216679
0.000389211
0.021693
0.000513636
0.0216947
0.00063946
0.0217005
0.000765943
0.0217122
0.000893564
0.0217136
0.00102181
0.0217175
0.00115042
0.0217209
0.00127922
0.0217215
0.00140789
0.0217217
0.00153642
0.0217184
0.00166413
0.0217177
0.00179086
0.0217146
0.00191689
0.0217046
0.00204095
0.0217039
0.00216356
0.0216935
0.00228457
0.021681
0.00240247
0.0216813
0.00251933
0.0216549
0.00263306
0.0216488
0.00274361
0.0216401
0.00285293
0.0216068
0.00295777
0.021608
0.00306134
0.0215707
0.00316159
0.0215554
0.00325825
0.0215418
0.00335439
0.0214924
0.00344553
0.0214938
0.00353702
0.0214337
0.00362491
0.0214193
0.00371071
0.0213872
0.00379613
0.0213353
0.0213377
0.00387647
-0.0020319
0.0211758
-0.00192309
0.0211769
-0.0018157
0.0212692
-0.001702
0.0212649
-0.00158592
0.0213104
-0.00146595
0.0213374
-0.00134045
0.0213434
-0.00121332
0.0213977
-0.00107987
0.021391
-0.000943833
0.0214292
-0.000803348
0.0214407
-0.000658214
0.0214463
-0.000510992
0.0214811
-0.000358897
0.021477
-0.000204134
0.0214985
-4.61397e-05
0.0215084
0.000114816
0.021507
0.000277571
0.0215302
0.000443703
0.0215286
0.000612314
0.0215319
0.000782545
0.021542
0.000954733
0.0215414
0.0011282
0.021544
0.00130253
0.0215466
0.00147735
0.0215466
0.00165213
0.0215469
0.00182668
0.0215438
0.00200004
0.0215443
0.00217184
0.0215428
0.00234216
0.0215342
0.00250943
0.0215366
0.00267399
0.021529
0.00283546
0.0215196
0.00299206
0.0215247
0.0031458
0.0215012
0.0032943
0.0215003
0.00343736
0.0214971
0.00357692
0.0214672
0.00370944
0.0214755
0.00383826
0.0214418
0.00396113
0.0214326
0.00407778
0.0214251
0.00419143
0.0213787
0.00429743
0.0213878
0.00440144
0.0213297
0.00449941
0.0213213
0.00459306
0.0212936
0.00468428
0.0212441
0.0212537
0.00476826
-0.0027953
0.0210675
-0.00267753
0.0210591
-0.0025585
0.0211501
-0.00242985
0.0211362
-0.00229537
0.021176
-0.0021532
0.0211953
-0.00200156
0.0211918
-0.00184469
0.0212409
-0.00167794
0.0212243
-0.00150556
0.0212568
-0.00132592
0.0212611
-0.00113914
0.0212595
-0.000948113
0.0212901
-0.000750211
0.0212791
-0.000547961
0.0212962
-0.00034076
0.0213012
-0.000127791
0.021294
8.77045e-05
0.0213147
0.000307702
0.0213086
0.000531984
0.0213076
0.000759354
0.0213146
0.000990012
0.0213107
0.00122311
0.0213109
0.00145802
0.0213117
0.00169406
0.0213106
0.00193043
0.0213105
0.00216663
0.0213076
0.00240127
0.0213097
0.00263361
0.0213105
0.00286341
0.0213044
0.00308857
0.0213114
0.00330916
0.0213084
0.00352442
0.0213043
0.00373211
0.021317
0.00393416
0.0212991
0.00412774
0.0213067
0.00431241
0.0213124
0.00449012
0.0212895
0.00465689
0.0213087
0.00481621
0.0212825
0.0049656
0.0212832
0.00510474
0.021286
0.00523708
0.0212464
0.00535775
0.0212672
0.00547293
0.0212145
0.00557852
0.0212157
0.0056766
0.0211955
0.00576943
0.0211513
0.0211711
0.00585208
-0.00315832
0.020984
-0.00306398
0.0209648
-0.00296383
0.02105
-0.00284816
0.0210206
-0.00271983
0.0210476
-0.00257773
0.0210532
-0.00242142
0.0210355
-0.00225587
0.0210753
-0.00207818
0.0210466
-0.00189301
0.0210716
-0.00169961
0.0210677
-0.00149854
0.0210584
-0.00129258
0.0210841
-0.00107951
0.021066
-0.000861511
0.0210782
-0.000638056
0.0210777
-0.000408562
0.0210645
-0.000174628
0.0210808
6.46687e-05
0.0210693
0.000308562
0.0210637
0.000557191
0.021066
0.000810511
0.0210574
0.00106766
0.0210537
0.00132793
0.0210514
0.00159039
0.0210481
0.00185397
0.0210469
0.00211787
0.0210437
0.00238034
0.0210472
0.00264022
0.0210506
0.00289684
0.0210478
0.00314777
0.0210605
0.00339262
0.0210635
0.00363029
0.0210666
0.00385831
0.021089
0.00407821
0.0210792
0.00428706
0.0210979
0.0044843
0.0211152
0.00467157
0.0211023
0.0048451
0.0211352
0.00500801
0.0211196
0.00515797
0.0211332
0.0052946
0.0211494
0.00542101
0.02112
0.00553269
0.0211555
0.00563525
0.0211119
0.00572511
0.0211259
0.0058045
0.0211161
0.0058761
0.0210797
0.021111
0.00593623
-0.00338438
0.0209228
-0.00332274
0.0209032
-0.00325179
0.020979
-0.00315439
0.0209232
-0.00303255
0.0209258
-0.0028881
0.0209087
-0.00272432
0.0208717
-0.00254863
0.0208996
-0.00236066
0.0208586
-0.00216581
0.0208768
-0.0019641