/*--------------------------------*- C++ -*----------------------------------*\
| =========                 |                                                 |
| \\      /  F ield         | OpenFOAM: The Open Source CFD Toolbox           |
|  \\    /   O peration     | Version:  2312                                  |
|   \\  /    A nd           | Website:  www.openfoam.com                      |
|    \\/     M anipulation  |                                                 |
\*---------------------------------------------------------------------------*/
FoamFile
{
    version     2.0;
    format      ascii;
    arch        "LSB;label=32;scalar=64";
    class       surfaceScalarField;
    location    "41.47106483328303";
    object      phi;
}
// * * * * * * * * * * * * * * * * * * * * * * * * * * * * * * * * * * * * * //

dimensions      [0 3 -1 0 0 0 0];

oriented        oriented;

internalField   nonuniform List<scalar> 
41713
(
0.00736647
0.05688
0.00362875
0.0679842
0.0021169
0.0657583
0.00148476
0.0648786
0.00109906
0.0646321
0.000844856
0.0645006
0.000669652
0.0644216
0.000542541
0.0643735
0.000446912
0.0643421
0.000373113
0.0643202
0.00031502
0.0643045
0.000268578
0.0642929
0.000231021
0.064284
0.00020041
0.064277
0.00017535
0.0642715
0.000154818
0.064267
0.000138051
0.0642632
0.000124466
0.06426
0.000113603
0.0642573
0.000105081
0.064255
9.85424e-05
0.064253
9.36275e-05
0.0642514
9.00532e-05
0.06425
8.75437e-05
0.0548137
8.54297e-05
0.0456781
8.34799e-05
0.0380653
8.16869e-05
0.0317212
8.00669e-05
0.0264345
0.0220289
7.85905e-05
0.0099967
0.0468833
0.00843243
0.0695484
0.00572047
0.0684702
0.00412705
0.066472
0.00312686
0.0656323
0.00243601
0.0651915
0.00193869
0.064919
0.00156946
0.0647428
0.00128802
0.0646235
0.00106856
0.0645397
0.000894157
0.0644789
0.000753422
0.0644336
0.000638508
0.0643989
0.000543872
0.0643717
0.000465522
0.0643498
0.000400536
0.064332
0.000346738
0.064317
0.000302482
0.0643043
0.000266503
0.0642933
0.0002378
0.0642837
0.000215556
0.0642752
0.000199057
0.0642679
0.000187582
0.0642615
0.000180865
0.0548204
0.000176849
0.0456821
0.000174205
0.0380679
0.000172174
0.0317233
0.000170393
0.0264363
0.0220304
0.000168865
0.00859987
0.0382834
0.00971576
0.0684325
0.00747908
0.0707069
0.00571087
0.0682402
0.00452383
0.0668194
0.00364001
0.0660753
0.00295908
0.0655999
0.00242943
0.0652724
0.00201241
0.0650405
0.00167945
0.0648727
0.0014101
0.0647483
0.00118974
0.064654
0.00100782
0.0645808
0.000856626
0.0645229
0.000730491
0.064476
0.000625189
0.0644373
0.000537542
0.0644046
0.000465138
0.0643767
0.000406116
0.0643523
0.000359025
0.0643308
0.000322705
0.0643115
0.000296184
0.0642944
0.000278487
0.0642792
0.000269099
0.0548298
0.000264417
0.0456868
0.000262041
0.0380703
0.000260588
0.0317247
0.000259407
0.0264374
0.0220314
0.000258426
0.00677859
0.0315048
0.00948491
0.0657262
0.00813374
0.0720581
0.0064559
0.069918
0.00526742
0.0680079
0.00436494
0.0669778
0.00363669
0.0663281
0.00304326
0.0658659
0.0025575
0.0655263
0.00215738
0.0652728
0.00182562
0.06508
0.00154884
0.0649308
0.00131673
0.0648129
0.00112138
0.0647182
0.000956756
0.0646406
0.000818224
0.0645758
0.000702227
0.0645206
0.000606022
0.0644729
0.000527482
0.0644308
0.000464939
0.0643933
0.000417067
0.0643594
0.000382758
0.0643287
0.000360811
0.0643011
0.000350236
0.0548404
0.000345984
0.045691
0.000344699
0.0380716
0.000344501
0.0317249
0.000344559
0.0264374
0.0220312
0.00034476
0.00506842
0.0264364
0.00858082
0.0622138
0.00819854
0.0724404
0.0067584
0.0713582
0.00560689
0.0691594
0.00473542
0.0678492
0.00402219
0.0670414
0.00342321
0.0664648
0.00291753
0.066032
0.00248922
0.0657011
0.00212531
0.0654439
0.0018153
0.0652408
0.00155072
0.0650775
0.00132478
0.0649442
0.00113209
0.0648333
0.000968409
0.0647395
0.000830374
0.0646587
0.000715359
0.0645879
0.000621304
0.0645249
0.000546584
0.064468
0.000489901
0.0644161
0.000450146
0.0643684
0.00042601
0.0643253
0.000415883
0.0548505
0.000413383
0.0456935
0.000414308
0.0380706
0.000416355
0.0317229
0.000418535
0.0264352
0.022029
0.000420688
0.00362128
0.0228151
0.00732265
0.0585124
0.00780287
0.0719602
0.00674995
0.0724111
0.00569448
0.0702148
0.00487509
0.0686686
0.00420066
0.0677158
0.00362259
0.0670429
0.00312295
0.0665316
0.00269019
0.0661338
0.0023148
0.0658193
0.00198892
0.0655666
0.00170611
0.0653603
0.00146108
0.0651892
0.00124955
0.0650448
0.00106804
0.064921
0.000913794
0.0648129
0.000784606
0.0647171
0.000678753
0.0646307
0.000594878
0.0645519
0.000531899
0.0644791
0.000488867
0.0644115
0.000464512
0.0643496
0.000456473
0.0548585
0.000457115
0.0456929
0.000461464
0.0380663
0.000466834
0.0317175
0.000472094
0.0264299
0.0220241
0.000477039
0.00252529
0.0202898
0.00602976
0.055008
0.00711942
0.0708705
0.00649859
0.0730319
0.0055942
0.0711192
0.0048466
0.0694162
0.00422553
0.0683369
0.0036836
0.0675848
0.00320476
0.0670104
0.00278138
0.0665572
0.00240717
0.0661935
0.00207672
0.0658971
0.00178548
0.0656516
0.00152967
0.065445
0.00130618
0.0652683
0.00111248
0.0651147
0.000946554
0.0649789
0.000806818
0.0648568
0.000692057
0.0647455
0.000601353
0.0646426
0.000534001
0.0645464
0.00048936
0.0644561
0.000466343
0.0643726
0.000461737
0.0548631
0.000466716
0.0456879
0.000475589
0.0380574
0.000485316
0.0317078
0.000494624
0.0264206
0.0220154
0.000503249
0.0017604
0.0185294
0.00489782
0.0518706
0.00634216
0.0694262
0.00610602
0.0732681
0.00537119
0.0718541
0.00470054
0.0700869
0.00413593
0.0689015
0.00363674
0.068084
0.0031867
0.0674605
0.00278068
0.0669632
0.0024152
0.066559
0.00208708
0.0662252
0.00179357
0.0659451
0.0015323
0.0657063
0.00130133
0.0654993
0.00109911
0.0653169
0.000924433
0.0651535
0.000776416
0.0650048
0.000654467
0.0648675
0.000558226
0.0647388
0.000487497
0.0646172
0.000442076
0.0645015
0.000421195
0.0643935
0.000420809
0.0548635
0.000430954
0.0456778
0.000445244
0.0380431
0.000460265
0.0316927
0.00047456
0.0264063
0.0220022
0.000487767
0.00124889
0.0172805
0.00397519
0.0491443
0.00558516
0.0678162
0.0056556
0.0731976
0.00508541
0.0724242
0.00448632
0.070686
0.00397071
0.0694171
0.0035114
0.0685433
0.00309094
0.0678809
0.0027048
0.0673494
0.00235122
0.0669126
0.00202873
0.0665477
0.00173603
0.0662378
0.00147201
0.0659703
0.00123581
0.0657355
0.00102679
0.0655259
0.000844576
0.0653358
0.000689023
0.0651604
0.00056022
0.0649963
0.00045845
0.0648406
0.000384132
0.0646915
0.000337631
0.064548
0.000318643
0.0644125
0.000322474
0.0548597
0.000338038
0.0456622
0.000358222
0.0380229
0.000379212
0.0316717
0.000399304
0.0263862
0.0219836
0.000417943
0.000913717
0.0163668
0.00324302
0.046815
0.00489183
0.0661674
0.00519093
0.0728985
0.00477157
0.0728436
0.00423755
0.07122
0.00376077
0.0698939
0.00333346
0.0689706
0.00293822
0.0682762
0.00256994
0.0677177
0.0022276
0.0672549
0.00191079
0.0668645
0.00161924
0.0665294
0.00135281
0.0662367
0.00111152
0.0659768
0.000895551
0.0657419
0.000705299
0.065526
0.000541347
0.0653243
0.000404493
0.0651331
0.000295729
0.0649494
0.00021619
0.064771
0.000166915
0.0645973
0.000148209
0.0644312
0.000155107
0.0548528
0.000175458
0.0456419
0.000201334
0.0379971
0.000228409
0.0316447
0.000254867
0.0263598
0.0219588
0.000279637
0.000695109
0.0156717
0.00266816
0.0448419
0.00427498
0.0645605
0.00473322
0.0724403
0.00444588
0.0731309
0.0039714
0.0716945
0.00352484
0.0703404
0.00312102
0.0693745
0.00274467
0.0686525
0.00238982
0.0680725
0.0020556
0.0675892
0.00174216
0.0671779
0.0014499
0.0668216
0.00117937
0.0665072
0.00093126
0.0662249
0.000706447
0.0659667
0.000505995
0.0657265
0.000331206
0.0654991
0.000183567
0.0652808
6.47587e-05
0.0650682
-2.33374e-05
0.0648591
-7.8851e-05
0.0646528
-0.000100658
0.064453
-9.32806e-05
0.0548454
-6.98444e-05
0.0456184
-3.91564e-05
0.0379664
-6.3467e-06
0.0316119
2.56334e-05
0.0263278
0.0219283
5.61775e-05
0.000549508
0.0151222
0.00221673
0.0431747
0.00373456
0.0630427
0.00429448
0.0718804
0.00411759
0.0733078
0.00369692
0.0721151
0.00327382
0.0707635
0.00288574
0.0697625
0.00252166
0.0690166
0.00217498
0.0684192
0.00184455
0.0679196
0.00153078
0.0674917
0.00123448
0.0671179
0.000956655
0.0667851
0.000698502
0.066483
0.000461454
0.0662037
0.000247159
0.0659408
5.74571e-05
0.0656888
-0.000105562
0.0654438
-0.000239462
0.0652021
-0.000341518
0.0649612
-0.000408953
0.0647203
-0.000439709
0.0644838
-0.000436839
0.0548425
-0.000414346
0.0455959
-0.000381922
0.037934
-0.000345275
0.0315752
-0.000307501
0.02629
0.0218916
-0.000270801
0.000447721
0.0146745
0.00185871
0.0417637
0.00326405
0.0616374
0.00388125
0.0712632
0.00379316
0.0733959
0.00342011
0.0724882
0.00301498
0.0711687
0.00263591
0.0701416
0.00227777
0.0693748
0.00193378
0.0687632
0.00160232
0.0682511
0.00128382
0.0678102
0.000979255
0.0674225
0.000689926
0.0670744
0.000417404
0.0667556
0.000163472
0.0664577
-6.98633e-05
0.0661741
-0.000280244
0.0658992
-0.000464877
0.0656284
-0.000620552
0.0653578
-0.000743768
0.0650844
-0.000830932
0.0648074
-0.00087914
0.064532
-0.00088843
0.0548518
-0.000873021
0.0455805
-0.000843295
0.0379042
-0.000805818
0.0315377
-0.000764737
0.026249
0.0218497
-0.000722891
0.000372125
0.0143023
0.00157045
0.0405654
0.00285459
0.0603532
0.00349621
0.0706216
0.00347706
0.073415
0.00314531
0.07282
0.00275384
0.0715601
0.0023782
0.0705173
0.00202025
0.0697327
0.00167365
0.0691098
0.00133626
0.0685884
0.00100831
0.0681382
0.000690774
0.06774
0.000385105
0.0673801
9.29254e-05
0.0670477
-0.000183795
0.0667344
-0.000442677
0.066433
-0.000680793
0.0661373
-0.000894724
0.0658423
-0.00108061
0.0655436
-0.00123427
0.065238
-0.0013515
0.0649246
-0.00142897
0.0646095
-0.00146219
0.054885
-0.00146485
0.0455832
-0.00144729
0.0378867
-0.00141643
0.0315069
-0.00137742
0.0262099
0.0218068
-0.00133449
0.000312653
0.0139897
0.00133626
0.0395418
0.00250036
0.0591891
0.00314205
0.0699799
0.00317303
0.0733841
0.00287555
0.0731174
0.00249411
0.0719416
0.00211748
0.0708939
0.00175481
0.0700954
0.00140079
0.0694638
0.00105283
0.0689364
0.000710788
0.0684802
0.000375516
0.0680753
4.8243e-05
0.0677073
-0.00026937
0.0673653
-0.000575271
0.0670403
-0.0008667
0.0667244
-0.00114032
0.066411
-0.0013922
0.0660942
-0.00161784
0.0657693
-0.00181246
0.0654327
-0.00197166
0.0650838
-0.0020928
0.0647306
-0.00216619
0.0549584
-0.0022046
0.0456216
-0.00221678
0.0378988
-0.00220789
0.031498
-0.0021825
0.0261846
0.0217704
-0.00214604
0.000227157
0.0137625
0.0009758
0.0387931
0.00186813
0.0582968
0.0023975
0.0694505
0.00245144
0.0733301
0.00222249
0.0733464
0.0019066
0.0722575
0.00158611
0.0712144
0.00127406
0.0704074
0.000967015
0.0697708
0.000662449
0.069241
0.000359852
0.0687828
5.96078e-05
0.0683755
-0.000237519
0.0680045
-0.00053034
0.0676582
-0.000817029
0.067327
-0.00109523
0.0670026
-0.00136197
0.0666777
-0.00161356
0.0663458
-0.00184562
0.0660014
-0.00205336
0.0656404
-0.00223249
0.065263
-0.00238127
0.0648794
-0.00248738
0.0550646
-0.00256317
0.0456974
-0.00261575
0.0379514
-0.00264639
0.0315286
-0.00265494
0.0261931
0.0217602
-0.00264483
0.000168443
0.0135941
0.000723708
0.0382379
0.00140873
0.0576118
0.00183783
0.0690214
0.00189736
0.0732706
0.00171924
0.0735245
0.0014588
0.0725179
0.00118875
0.0714844
0.000923337
0.0706728
0.000660363
0.0700338
0.000397416
0.0695039
0.000133724
0.0690465
-0.000130804
0.0686401
-0.000395803
0.0682695
-0.000660437
0.0679228
-0.000923452
0.06759
-0.00118308
0.0672622
-0.00143694
0.0669316
-0.00168189
0.0665908
-0.00191397
0.0662334
-0.00212843
0.0658549
-0.00232059
0.0654551
-0.00248781
0.0650466
-0.00261445
0.0551912
-0.00271505
0.045798
-0.0028012
0.0380376
-0.00287761
0.031605
-0.00294191
0.0262574
0.021799
-0.00298062
0.00012904
0.013465
0.000549641
0.0378173
0.00108198
0.0570794
0.00142927
0.0686741
0.00148661
0.0732133
0.00134612
0.073665
0.00113117
0.0727329
0.000904268
0.0717113
0.000679394
0.0708977
0.000455168
0.070258
0.000229388
0.0697297
1.08913e-06
0.0692748
-0.000230028
0.0688712
-0.000463941
0.0685034
-0.000700259
0.0681591
-0.000938261
0.067828
-0.00117681
0.0675008
-0.00141422
0.067169
-0.0016481
0.0668246
-0.00187521
0.0664605
-0.0020913
0.066071
-0.00229144
0.0656553
-0.00247079
0.065226
-0.00260652
0.0553269
-0.00271096
0.0459024
-0.00280094
0.0381276
-0.00289079
0.0316949
-0.00299845
0.0263651
0.0219346
-0.00313405
9.8222e-05
0.0133668
0.000424877
0.0374906
0.000847255
0.0566571
0.00113062
0.0683908
0.00118115
0.0731627
0.0010667
0.0737794
0.00088774
0.0729118
0.00069736
0.0719017
0.000507702
0.0710874
0.000317493
0.0704482
0.000124709
0.0699225
-7.1622e-05
0.0694711
-0.000271949
0.0690715
-0.000476446
0.0687079
-0.000685111
0.0683678
-0.000897693
0.0680406
-0.00111364
0.0677167
-0.00133197
0.0673873
-0.00155111
0.0670438
-0.00176881
0.0666782
-0.00198203
0.0662842
-0.00218699
0.0658602
-0.00237865
0.0654176
-0.00252653
0.0554748
-0.00263154
0.0460074
-0.00270058
0.0381966
-0.00274364
0.0317379
-0.00277915
0.0264006
-0.00294303
0.0220984
0.000123197
0.0219827
0.000165281
0.0219853
0.000198423
0.0219942
0.000229217
0.0219966
0.000254191
0.0220024
0.000274632
0.0220069
0.000292038
0.0220099
0.000303126
0.0220163
0.000312202
0.0220183
0.000316255
0.0220233
0.000317236
0.0220264
0.000315685
0.0220289
0.000309686
0.0220334
0.000302078
0.022035
0.000291214
0.0220382
0.000278038
0.0220405
0.000263517
0.0220419
0.000246013
0.0220449
0.000227433
0.0220459
0.000207605
0.0220472
0.000186204
0.0220488
0.000164177
0.0220494
0.000141469
0.0220501
0.000118243
0.0220506
9.48947e-05
0.0220507
7.15935e-05
0.0220507
4.87259e-05
0.0220502
2.6287e-05
0.0220498
4.59845e-06
0.022049
-1.56986e-05
0.0220477
-3.51046e-05
0.0220468
-5.27871e-05
0.022045
-6.84422e-05
0.022043
-8.28373e-05
0.0220418
-9.39296e-05
0.0220384
-0.000103046
0.0220365
-0.000109878
0.0220342
-0.000112529
0.02203
-0.000113394
0.0220282
-0.000109578
0.0220235
-0.000102599
0.0220204
-9.24897e-05
0.0220172
-7.65717e-05
0.0220114
-5.84881e-05
0.0220093
-3.36766e-05
0.0220025
-5.41469e-06
0.0219991
2.76642e-05
0.0219943
6.71097e-05
0.0219879
0.0219854
0.000109065
0.00021334
0.0219383
0.000255507
0.0219431
0.000288955
0.0219608
0.000320283
0.0219652
0.00034603
0.0219766
0.00036748
0.0219855
0.000386117
0.0219913
0.000398657
0.0220037
0.000409383
0.0220076
0.000415281
0.0220174
0.000418283
0.0220234
0.000418913
0.0220283
0.000415255
0.022037
0.000410118
0.0220401
0.000401854
0.0220465
0.000391388
0.022051
0.000379667
0.0220536
0.000365058
0.0220595
0.000349437
0.0220616
0.000332622
0.022064
0.000314285
0.0220671
0.000295345
0.0220683
0.000275741
0.0220697
0.000255627
0.0220707
0.000235376
0.022071
0.000215147
0.0220709
0.000195325
0.02207
0.000175876
0.0220692
0.000157115
0.0220678
0.000139682
0.0220651
0.000123044
0.0220634
0.000108033
0.02206
9.49371e-05
0.0220561
8.29615e-05
0.0220537
7.41588e-05
0.0220473
6.71703e-05
0.0220435
6.22928e-05
0.0220391
6.14265e-05
0.0220309
6.21399e-05
0.0220275
6.73379e-05
0.0220183
7.54772e-05
0.0220122
8.651e-05
0.0220062
0.00010312
0.0219948
0.000121626
0.0219908
0.000146605
0.0219776
0.000174742
0.021971
0.00020739
0.0219616
0.000246078
0.0219492
0.0219446
0.00028692
0.000303233
0.0218935
0.000345931
0.0219004
0.000380162
0.0219265
0.000412511
0.0219329
0.000439524
0.0219496
0.000462471
0.0219625
0.000482822
0.021971
0.000497296
0.0219893
0.000510144
0.0219947
0.000518357
0.0220092
0.000523845
0.0220179
0.000527116
0.022025
0.000526255
0.0220379
0.00052404
0.0220423
0.000518824
0.0220517
0.000511513
0.0220583
0.000503032
0.0220621
0.000491755
0.0220707
0.000479526
0.0220738
0.00046615
0.0220774
0.000451301
0.0220819
0.000435866
0.0220838
0.000419776
0.0220858
0.000403181
0.0220873
0.000386426
0.0220877
0.000369661
0.0220877
0.000353267
0.0220864
0.000337181
0.0220853
0.000321711
0.0220833
0.000307492
0.0220793
0.000293961
0.0220769
0.000281948
0.0220721
0.000271729
0.0220663
0.000262482
0.022063
0.00025627
0.0220535
0.000251702
0.022048
0.000249062
0.0220417
0.000250257
0.0220297
0.000252813
0.022025
0.000259651
0.0220115
0.000269197
0.0220027
0.000281389
0.021994
0.000298918
0.0219773
0.000318059
0.0219716
0.000343407
0.0219522
0.000371609
0.0219428
0.000404011
0.0219292
0.000442132
0.0219111
0.0219047
0.000482039
0.000390612
0.0218476
0.000434533
0.0218565
0.000470217
0.0218909
0.00050425
0.0218989
0.000533193
0.0219207
0.000558307
0.0219374
0.000581048
0.0219482
0.000598139
0.0219722
0.000613801
0.021979
0.000625026
0.021998
0.000633703
0.0220092
0.000640322
0.0220184
0.000642971
0.0220352
0.000644392
0.0220409
0.000642941
0.0220532
0.000639501
0.0220617
0.000634976
0.0220666
0.000627748
0.022078
0.000619622
0.0220819
0.000610396
0.0220866
0.000599739
0.0220926
0.000588507
0.022095
0.000576624
0.0220976
0.000564233
0.0220997
0.000551648
0.0221003
0.000539011
0.0221003
0.000526699
0.0220988
0.000514619
0.0220974
0.000503068
0.0220948
0.00049268
0.0220897
0.000482858
0.0220868
0.000474432
0.0220805
0.000467666
0.0220731
0.000461703
0.0220689
0.000458627
0.0220565
0.000457006
0.0220496
0.000457116
0.0220416
0.00046087
0.0220259
0.000465753
0.0220201
0.0004747
0.0220026
0.00048611
0.0219913
0.000499906
0.0219802
0.00051879
0.0219584
0.000538991
0.0219514
0.000565129
0.0219261
0.000593809
0.0219141
0.000626373
0.0218967
0.000664335
0.0218731
0.0218653
0.000703712
0.000468496
0.0217998
0.000514545
0.0218104
0.000552581
0.0218528
0.000589196
0.0218622
0.000620968
0.0218889
0.000649154
0.0219092
0.000675199
0.0219222
0.000695828
0.0219515
0.000715234
0.0219596
0.000730411
0.0219828
0.000743224
0.0219964
0.000754149
0.0220075
0.00076127
0.0220281
0.000767299
0.0220349
0.000770586
0.0220499
0.000771999
0.0220603
0.000772411
0.0220662
0.000770215
0.0220802
0.000767177
0.0220849
0.000763082
0.0220907
0.000757597
0.0220981
0.000751544
0.022101
0.000744837
0.0221043
0.00073761
0.0221069
0.000730149
0.0221078
0.000722583
0.0221079
0.000715286
0.022106
0.000708129
0.0221046
0.000701401
0.0221016
0.000695734
0.0220954
0.000690492
0.022092
0.000686508
0.0220845
0.00068403
0.0220756
0.000682171
0.0220708
0.000683029
0.0220557
0.000685136
0.0220475
0.000688756
0.022038
0.000695811
0.0220189
0.000703742
0.0220121
0.000715506
0.0219908
0.000729469
0.0219773
0.000745541
0.0219642
0.000766442
0.0219375
0.00078835
0.0219295
0.00081592
0.0218985
0.000845714
0.0218843
0.000879072
0.0218633
0.000917509
0.0218347
0.0218258
0.000956987
0.000527884
0.021749
0.000577159
0.0217612
0.000618645
0.0218113
0.000658954
0.0218219
0.000694675
0.0218532
0.000727068
0.0218768
0.00075757
0.0218917
0.000782905
0.0219262
0.000807243
0.0219353
0.000827575
0.0219625
0.000845745
0.0219782
0.000862212
0.021991
0.000875054
0.0220153
0.000886952
0.022023
0.000896252
0.0220406
0.000903798
0.0220528
0.000910439
0.0220596
0.00091457
0.022076
0.000917919
0.0220816
0.000920256
0.0220884
0.000921243
0.0220971
0.000921664
0.0221006
0.000921424
0.0221046
0.000920647
0.0221077
0.000919584
0.0221088
0.000918351
0.0221091
0.000917317
0.0221071
0.000916315
0.0221056
0.000915626
0.0221022
0.000915873
0.0220951
0.000916385
0.0220915
0.000917992
0.0220829
0.000920928
0.0220726
0.00092427
0.0220675
0.000930136
0.0220498
0.000937017
0.0220407
0.000945164
0.0220298
0.000956513
0.0220075
0.000968454
0.0220002
0.000983971
0.0219753
0.0010014
0.0219599
0.00102063
0.0219449
0.00104441
0.0219137
0.00106886
0.0219051
0.00109868
0.0218687
0.00113038
0.0218526
0.00116531
0.0218284
0.00120498
0.021795
0.0217855
0.0012453
0.000558387
0.0216938
0.000612173
0.0217074
0.000658417
0.0217651
0.000703754
0.0217766
0.000744783
0.0218122
0.00078277
0.0218388
0.000819146
0.0218553
0.000850629
0.0218947
0.000881375
0.0219046
0.000908363
0.0219355
0.00093342
0.0219532
0.000956985
0.0219674
0.000977127
0.0219951
0.000996496
0.0220036
0.00101343
0.0220236
0.00102875
0.0220375
0.00104327
0.022045
0.00105539
0.0220639
0.0010668
0.0220702
0.00107725
0.0220779
0.00108639
0.022088
0.00109497
0.022092
0.00110287
0.0220967
0.00111022
0.0221003
0.00111721
0.0221018
0.00112396
0.0221023
0.00113082
0.0221002
0.00113758
0.0220988
0.00114451
0.0220953
0.00115223
0.0220874
0.00116003
0.0220837
0.00116872
0.0220742
0.00117854
0.0220628
0.0011885
0.0220575
0.00120076
0.0220376
0.00121376
0.0220277
0.00122773
0.0220159
0.00124463
0.0219906
0.0012618
0.021983
0.00128224
0.0219548
0.00130425
0.0219379
0.00132772
0.0219214
0.00135542
0.021886
0.0013834
0.0218771
0.00141643
0.0218357
0.00145096
0.021818
0.00148835
0.021791
0.0015301
0.0217533
0.0217435
0.00157207
0.000548599
0.021633
0.000608355
0.0216476
0.000660853
0.0217126
0.000712763
0.0217247
0.000760692
0.0217642
0.00080591
0.0217936
0.000849847
0.0218114
0.000889211
0.0218554
0.000928149
0.0218656
0.000963622
0.0219
0.000997441
0.0219193
0.00103002
0.0219348
0.00105942
0.0219657
0.00108826
0.0219748
0.00111485
0.021997
0.00114
0.0220123
0.0011645
0.0220205
0.00118671
0.0220417
0.00120831
0.0220486
0.00122901
0.0220572
0.00124845
0.0220685
0.00126734
0.0220732
0.00128555
0.0220785
0.00130316
0.0220827
0.00132035
0.0220846
0.00133719
0.0220855
0.00135404
0.0220834
0.00137064
0.0220822
0.00138724
0.0220787
0.00140444
0.0220702
0.00142147
0.0220667
0.00143917
0.0220565
0.00145772
0.0220443
0.00147612
0.0220391
0.00149653
0.0220171
0.00151733
0.0220069
0.00153876
0.0219944
0.00156277
0.0219666
0.00158665
0.0219592
0.00161344
0.021928
0.0016414
0.0219099
0.0016704
0.0218924
0.00170324
0.0218532
0.00173592
0.0218444
0.00177326
0.0217983
0.00181164
0.0217797
0.00185245
0.0217502
0.0018972
0.0217085
0.0216991
0.00194165
0.000485986
0.0215649
0.000553309
0.0215803
0.000613728
0.0216522
0.000673974
0.0216644
0.000730637
0.0217076
0.000784999
0.0217393
0.000838491
0.0217579
0.000887797
0.021806
0.000937069
0.0218163
0.000983236
0.0218538
0.0010281
0.0218745
0.00107205
0.0218909
0.00111311
0.0219247
0.00115388
0.021934
0.00119266
0.0219583
0.00123021
0.0219748
0.0012673
0.0219834
0.00130226
0.0220067
0.00133674
0.0220141
0.00137041
0.0220235
0.00140288
0.022036
0.00143483
0.0220412
0.00146609
0.0220472
0.00149671
0.0220521
0.00152684
0.0220545
0.00155651
0.0220558
0.00158604
0.0220538
0.00161513
0.0220531
0.001644
0.0220498
0.00167324
0.022041
0.00170202
0.0220379
0.00173116
0.0220273
0.00176081
0.0220146
0.00178993
0.02201
0.00182068
0.0219864
0.0018514
0.0219761
0.00188229
0.0219635
0.00191533
0.0219336
0.00194774
0.0219267
0.00198259
0.0218932
0.0020181
0.0218744
0.00205413
0.0218564
0.00209351
0.0218138
0.00213217
0.0218057
0.002175
0.0217555
0.00221834
0.0217363
0.00226356
0.021705
0.00231221
0.0216599
0.0216513
0.00235996
0.000356464
0.0214881
0.000433079
0.0215037
0.000503263
0.021582
0.000573788
0.0215939
0.000641226
0.0216401
0.000706899
0.0216736
0.000772249
0.0216925
0.000833911
0.0217444
0.000896059
0.0217542
0.000955568
0.0217943
0.00101423
0.0218158
0.00107242
0.0218327
0.0011281
0.021869
0.00118388
0.0218782
0.00123798
0.0219041
0.00129116
0.0219216
0.00134414
0.0219305
0.00139522
0.0219557
0.00144599
0.0219634
0.0014961
0.0219734
0.00154512
0.021987
0.00159366
0.0219927
0.00164151
0.0219994
0.0016887
0.0220049
0.0017353
0.0220079
0.0017813
0.0220098
0.00182699
0.0220081
0.00187201
0.0220081
0.00191653
0.0220053
0.0019611
0.0219964
0.00200484
0.0219941
0.00204853
0.0219836
0.0020923
0.0219708
0.00213501
0.0219673
0.00217887
0.0219425
0.00222213
0.0219329
0.00226497
0.0219207
0.00230939
0.0218891
0.0023525
0.0218836
0.00239744
0.0218483
0.00244237
0.0218295
0.00248714
0.0218117
0.00253462
0.0217663
0.00258067
0.0217597
0.00263025
0.0217059
0.00267964
0.0216869
0.00273023
0.0216544
0.0027836
0.0216065
0.0215996
0.00283533
0.000143162
0.0214011
0.000231024
0.0214158
0.000313088
0.0214999
0.000395975
0.021511
0.000476606
0.0215595
0.000556189
0.021594
0.000636139
0.0216126
0.000713028
0.0216675
0.000791091
0.0216761
0.000867136
0.0217183
0.000942953
0.02174
0.00101889
0.0217568
0.00109284
0.021795
0.00116743
0.0218036
0.0012408
0.0218308
0.00131368
0.0218487
0.00138674
0.0218574
0.00145823
0.0218842
0.00152968
0.0218919
0.00160069
0.0219024
0.00167077
0.0219169
0.00174047
0.021923
0.00180953
0.0219303
0.00187789
0.0219366
0.00194556
0.0219402
0.00201248
0.0219429
0.00207887
0.0219418
0.00214428
0.0219427
0.00220883
0.0219408
0.00227303
0.0219322
0.00233588
0.0219313
0.00239813
0.0219214
0.00245987
0.0219091
0.00251987
0.0219073
0.00258033
0.0218821
0.00263942
0.0218738
0.00269727
0.0218628
0.00275591
0.0218305
0.00281235
0.0218272
0.00286977
0.0217908
0.00292628
0.021773
0.00298169
0.0217562
0.00303896
0.0217091
0.00309383
0.0217048
0.00315139
0.0216484
0.00320783
0.0216305
0.0032646
0.0215976
0.00332329
0.0215478
0.0215435
0.00337938
-0.000172698
0.021303
-7.29705e-05
0.0213161
2.22689e-05
0.0214047
0.000120464
0.0214128
0.00021717
0.0214628
0.000313672
0.0214975
0.000411356
0.0215149
0.00050687
0.021572
0.000604511
0.0215785
0.000700986
0.0216218
0.000798101
0.0216429
0.000896169
0.0216587
0.000993006
0.0216982
0.00109122
0.0217054
0.00118889
0.0217331
0.00128668
0.0217509
0.00138523
0.0217589
0.00148267
0.0217867
0.00158051
0.0217941
0.00167825
0.0218047
0.00177532
0.0218199
0.00187218
0.0218261
0.00196848
0.021834
0.0020641
0.0218409
0.00215893
0.0218454
0.00225282
0.021849
0.00234591
0.0218487
0.00243762
0.021851
0.00252799
0.0218504
0.00261745
0.0218427
0.00270488
0.0218439
0.00279096
0.0218353
0.00287569
0.0218244
0.00295772
0.0218252
0.00303926
0.0218005
0.00311835
0.0217947
0.00319505
0.0217861
0.00327143
0.0217541
0.00334434
0.0217543
0.00341704
0.0217181
0.00348756
0.0217025
0.0035557
0.0216881
0.00362449
0.0216403
0.00368955
0.0216398
0.00375615
0.0215818
0.00382037
0.0215663
0.00388372
0.0215343
0.00394787
0.0214837
0.0214832
0.00400819
-0.000611393
0.0211915
-0.000496582
0.0212013
-0.0003855
0.0212936
-0.000271253
0.0212986
-0.000157119
0.0213487
-4.16649e-05
0.021382
7.68314e-05
0.0213964
0.000194425
0.0214544
0.000315484
0.0214574
0.000436656
0.0215006
0.000559897
0.0215197
0.000685366
0.0215332
0.000810776
0.0215728
0.000938744
0.0215774
0.00106717
0.0216047
0.00119664
0.0216215
0.00132769
0.0216278
0.00145833
0.0216561
0.00159002
0.0216624
0.00172214
0.0216726
0.001854
0.021688
0.00198597
0.0216941
0.00211757
0.0217024
0.00224855
0.02171
0.00237867
0.0217153
0.00250762
0.0217201
0.00263545
0.0217208
0.0027614
0.021725
0.00288535
0.0217265
0.00300764
0.0217204
0.00312694
0.0217246
0.00324384
0.0217184
0.0033582
0.02171
0.0034685
0.0217149
0.00357694
0.0216921
0.00368136
0.0216903
0.00378177
0.0216857
0.00388022
0.0216557
0.00397338
0.0216611
0.00406462
0.0216269
0.00415185
0.0216152
0.00423485
0.0216051
0.0043168
0.0215583
0.00439315
0.0215634
0.00446941
0.0215055
0.00454157
0.0214941
0.00461123
0.0214646
0.00468019
0.0214147
0.0214197
0.00474368
-0.00121089
0.0210679
-0.00108173
0.0210721
-0.000954137
0.021166
-0.000820614
0.0211651
-0.000685097
0.0212131
-0.000546188
0.0212431
-0.000402464
0.0212527
-0.000257607
0.0213095
-0.000107064
0.0213069
4.53742e-05
0.0213482
0.000201233
0.0213638
0.000360926
0.0213735
0.000522294
0.0214114
0.000687944
0.0214118
0.000855448
0.0214372
0.00102535
0.0214516
0.00119807
0.0214551
0.00137143
0.0214827
0.00154678
0.021487
0.00172337
0.021496
0.00190038
0.021511
0.00207805
0.0215165
0.00225571
0.0215248
0.00243298
0.0215327
0.0026094
0.0215389
0.00278446
0.021545
0.00295803
0.0215473
0.00312908
0.021554
0.00329727
0.0215583
0.00346277
0.0215549
0.00362393
0.0215634
0.0037812
0.0215611
0.00393423
0.021557
0.0040812
0.021568
0.00422431
0.021549
0.00436111
0.0215535
0.00449147
0.0215554
0.00461746
0.0215297
0.00473548
0.0215431
0.00484903
0.0215133
0.00495586
0.0215084
0.00505573
0.0215052
0.00515201
0.021462
0.00523999
0.0214754
0.00532551
0.02142
0.00540448
0.0214151
0.00547869
0.0213904
0.00555016
0.0213432
0.0213558
0.005614
-0.00201278
0.0209347
-0.00187035
0.0209297
-0.00172676
0.0210224
-0.00157394
0.0210122
-0.00141561
0.0210548
-0.00125003
0.0210775
-0.00107554
0.0210782
-0.000896376
0.0211304
-0.000708144
0.0211187
-0.000514984
0.021155
-0.000315277
0.0211641
-0.000109409
0.0211677
9.90932e-05
0.0212029
0.000312769
0.0211981
0.000530039
0.0212199
0.000751941
0.0212297
0.000978236
0.0212288
0.00120669
0.0212543
0.00143856
0.0212551
0.00167295
0.0212616
0.00190891
0.021275
0.0021465
0.0212789
0.00238488
0.0212864
0.00262343
0.0212941
0.00286139
0.0213009
0.00309796
0.0213084
0.00333273
0.0213125
0.00356421
0.0213225
0.00379172
0.0213307
0.00401512
0.0213315
0.00423226
0.0213463
0.0044433
0.0213501
0.00464758
0.0213527
0.00484282
0.0213727
0.00503117
0.0213606
0.00520975
0.0213749
0.00537823
0.0213869
0.00553871
0.0213692
0.00568719
0.0213946
0.00582733
0.0213732
0.00595668
0.0213791
0.00607497
0.0213869
0.00618584
0.0213512
0.00628434
0.0213769
0.00637688
0.0213274
0.00645932
0.0213327
0.00653384
0.0213159
0.00660283
0.0212742
0.0212974
0.00666129
-0.00253596
0.0208258
-0.00241634
0.0208101
-0.00229091
0.020897
-0.00215027
0.0208716
-0.0019973
0.0209018
-0.00183103
0.0209113
-0.00165113
0.0208983
-0.00146254
0.0209418
-0.00126254
0.0209187
-0.00105577
0.0209483
-0.000841648
0.02095
-0.000620761
0.0209468
-0.000395501
0.0209776
-0.000163941
0.0209666
7.07834e-05
0.0209852
0.000308256
0.0209922
0.00055172
0.0209853
0.000798415
0.0210076
0.00104956
0.021004
0.00130445
0.0210067
0.00156228
0.0210172
0.001823
0.0210182
0.00208574
0.0210236
0.0023498
0.0210301
0.00261416
0.0210366
0.00287776
0.0210448
0.00313986
0.0210504
0.00339863
0.0210637
0.00365299
0.0210764
0.00390238
0.0210821
0.00414431
0.0211043
0.00437853
0.0211159
0.00460405
0.0211272
0.00481839
0.0211584
0.00502329
0.0211557
0.00521586
0.0211823
0.00539563
0.0212071
0.00556442
0.0212004
0.00571846
0.0212406
0.00586107
0.0212306
0.00598996
0.0212502
0.00610483
0.0212721
0.00620895
0.0212471
0.00629776
0.0212881
0.00637709
0.0212481
0.00644332
0.0212665
0.00649877
0.0212604
0.00654627
0.0212267
0.0212615
0.00658211
-0.00289484
0.02074
-0.00280787
0.0207231
-0.00271141
0.0208005
-0.00258903
0.0207492
-0.00244278
0.0207556
-0.00227457
0.0207431
-0.00208763
0.0207113
-0.00188926
0.0207434
-0.00167918
0.0207086
-0.00146272
0.0207318
-0.00124001
0.0207273
-0.00101193
0.0207187
-0.000780928
0.0207466
-0.000545015
0.0207306
-0.000305325
0.0207455
-6.09368e-05
0.0207478
0.000185647
0.0207387
0.000436521
0.0207567
0.000692982
0.0207475
0.000954476
0.0207452
0.00122047
0.0207512
0.00149097