/*--------------------------------*- C++ -*----------------------------------*\
| =========                 |                                                 |
| \\      /  F ield         | OpenFOAM: The Open Source CFD Toolbox           |
|  \\    /   O peration     | Version:  2312                                  |
|   \\  /    A nd           | Website:  www.openfoam.com                      |
|    \\/     M anipulation  |                                                 |
\*---------------------------------------------------------------------------*/
FoamFile
{
    version     2.0;
    format      ascii;
    arch        "LSB;label=32;scalar=64";
    class       volScalarField;
    location    "400";
    object      div(phi);
}
// * * * * * * * * * * * * * * * * * * * * * * * * * * * * * * * * * * * * * //

dimensions      [0 0 -1 0 0 0 0];

internalField   nonuniform List<scalar> 
10720
(
-0.00087566
-0.00227001
-0.00200203
0.00146641
-0.00020321
-0.000807216
-0.000657994
-0.000634907
-0.000775947
-0.000922027
-0.00105602
-0.00140209
-0.0020797
-0.0030273
-0.00412396
-0.00504633
-0.00565089
-0.00606432
-0.00655813
-0.00742229
-0.00893593
-0.0107877
-0.00921291
0.00300828
0.0189447
0.0143988
-0.00806555
-0.00764967
0.00849961
0.00543119
-0.00716676
-0.0222867
0.0198787
0.0289637
-0.0121336
-0.0718587
0.0261304
0.0372877
-0.00639714
-0.00405203
-0.00206492
0.00376195
0.00337886
0.00225662
0.00184993
0.00232762
0.00535605
0.00239393
0.0017733
0.00173441
0.00170281
0.00166102
0.00183267
0.00205474
0.00222741
0.00249269
0.0029194
0.00344556
0.00402893
0.00455092
0.00479285
0.00437906
0.00292965
0.000454791
-0.00192714
-0.00187251
0.00161323
0.00418641
0.000808516
-0.00200063
0.00126314
5.50296e-05
-0.000565254
-0.000287538
-0.000353539
0.00412892
-0.00427175
0.000998421
0.000548253
-0.00433592
-0.00416017
-0.00664491
-0.00596676
-0.00551285
-0.00536474
-0.00508165
-0.00457337
-0.0039556
-0.00368798
-0.00409201
-0.00516127
-0.00662273
-0.00801148
-0.00920596
-0.0103545
-0.0118191
-0.0138745
-0.0159501
-0.0147532
-0.00314178
0.0166551
0.0195914
0.00271407
8.55852e-05
0.00246779
-0.00190395
0.000741005
-0.0109327
0.00985452
0.00981793
0.00429549
-0.0356915
-0.00918118
0.0269865
0.0372345
-0.0136819
-0.000520855
-0.00510026
-0.00224563
-0.00301957
-0.000306307
0.00155992
0.00379919
0.00834127
0.00782282
0.00547519
0.00452668
0.00351575
0.002851
0.00264136
0.00268929
0.00295489
0.00357082
0.00451058
0.00556046
0.00650751
0.00715074
0.00710557
0.00592072
0.0033262
-0.000169029
-0.00229142
-0.00073592
0.00212945
0.00201067
0.00155863
0.00164329
-0.00233629
0.000434492
-7.13089e-05
-0.000942497
0.0039632
-0.0048194
0.00657331
-0.00263941
0.00127196
-0.00157608
-0.000972008
-0.000471835
-0.00250738
-0.00177465
-0.00151056
-0.00171181
-0.0019547
-0.00206258
-0.00219749
-0.00258196
-0.00339064
-0.00463499
-0.00598887
-0.00718609
-0.00807676
-0.00871581
-0.00937606
-0.0103856
-0.0116962
-0.0114118
-0.00487435
0.00827668
0.013751
0.00529874
0.00302543
-0.00189106
-0.00586175
0.0062328
-0.00375466
0.00413872
0.00317437
0.00620436
-0.00984139
-0.00333838
-0.00426355
-0.00274252
0.00287999
-0.0019644
-0.00142911
0.00231828
0.000380958
0.000371611
0.00131427
0.00262197
0.00169664
0.00219318
0.00215935
0.00199621
0.00195937
0.00217488
0.00248496
0.00274021
0.00308408
0.00368158
0.00448827
0.00540031
0.00630325
0.00700205
0.00709365
0.00597291
0.00333399
5.63324e-05
-0.00179183
-0.000298009
0.00239568
0.00219749
0.00175838
0.00166473
-0.00218053
0.000577709
3.96491e-05
-0.000832068
0.00264867
-0.00305541
0.00514937
-0.00216906
0.00126804
-0.00314325
-0.00313693
-0.00368798
-0.00371574
-0.00343658
-0.00347525
-0.00350844
-0.00321785
-0.00270495
-0.00229699
-0.00232508
-0.00296082
-0.00408797
-0.00536323
-0.00649414
-0.00732155
-0.00802326
-0.00884849
-0.00998692
-0.0113987
-0.0111366
-0.00431223
0.00949602
0.0153389
0.0050648
0.00238618
-0.00247968
-0.0108083
0.0118303
-0.00110451
-1.32833e-05
-0.0033114
0.00800108
-0.00386718
-0.00328439
-0.00318598
-0.00318353
-0.00664883
0.000827576
-0.00334882
-0.00184586
0.000154327
0.0010631
0.00144497
0.00277269
0.00311577
0.00279396
0.00243996
0.00223667
0.00214188
0.00208061
0.00203706
0.00208127
0.00234048
0.00288928
0.00365183
0.00445611
0.0052516
0.00593952
0.00628861
0.0056579
0.00341952
0.000197211
-0.00172264
-0.000307749
0.00230247
0.00191912
0.00132318
0.00147767
-0.00227985
0.000377751
-3.71736e-05
-0.000960936
0.00261125
-0.00322886
0.00496995
-0.00291614
0.000844486
-0.000865311
-0.00348088
-0.00266664
-0.00218386
-0.00228184
-0.00259037
-0.00273759
-0.00248808
-0.00212275
-0.00194934
-0.00221326
-0.00300797
-0.00415647
-0.00538614
-0.00643779
-0.00726157
-0.00797854
-0.00873046
-0.00981403
-0.0112439
-0.0111381
-0.00438216
0.0102003
0.0166668
0.0028403
-0.00205156
0.00165955
-0.0121504
0.0114896
-0.00754929
0.00265849
-0.00290706
0.00788656
-0.00185493
-0.00149081
-0.00039872
-0.00591036
-0.00704774
0.00404934
-0.00337182
-0.00115537
0.000941103
0.00128042
0.00125986
0.00131854
0.00148073
0.00149491
0.0015084
0.00157034
0.00163006
0.0016256
0.00163329
0.00180401
0.00222039
0.002843
0.00356415
0.00432334
0.00504957
0.0056758
0.00589384
0.00516416
0.00307355
0.000147773
-0.00157693
-0.000112651
0.0024418
0.00197576
0.00129522
0.00156228
-0.00212787
0.000398088
6.08819e-05
-0.00091274
0.00267336
-0.00320173
0.0048415
-0.00298801
0.000145137
-0.000648673
-0.00275537
-0.00190892
-0.00227656
-0.00270532
-0.0029963
-0.0029669
-0.00251905
-0.00203345
-0.0017922
-0.0019882
-0.00270148
-0.00376446
-0.00487999
-0.00585078
-0.00666914
-0.00741522
-0.00820666
-0.00931718
-0.010723
-0.0106222
-0.0038046
0.0113514
0.0180225
0.0004535
-0.00680147
0.00720913
-0.00860979
0.00844744
-0.00974882
0.00433412
-0.00151398
0.00706571
-0.000781053
0.000721751
0.00241082
-0.00835763
-0.00718033
0.00492673
-0.00339932
-0.000171732
0.000463427
0.000205925
0.000355894
0.000632745
0.00103031
0.0013128
0.00146899
0.00152285
0.00149022
0.00141397
0.001422
0.00164541
0.00210537
0.0027102
0.00334138
0.00397512
0.00457426
0.00510645
0.00529689
0.00459847
0.00259353
-0.000182138
-0.00178766
-0.000270082
0.00229479
0.00177123
0.000995817
0.00140173
-0.00216463
0.000227333
-1.37026e-05
-0.00102371
0.00255382
-0.00325793
0.0044179
-0.00227549
-0.000229827
-0.00145811
-0.00221523
-0.00190699
-0.00257457
-0.00288715
-0.00294845
-0.00273194
-0.00222404
-0.00179735
-0.00167572
-0.00199574
-0.00278478
-0.00387136
-0.00495125
-0.00588649
-0.00664631
-0.00735825
-0.00812585
-0.00913845
-0.0104117
-0.0102381
-0.00348095
0.0116723
0.018317
-0.000608319
-0.0082525
0.00735045
-0.00775665
0.00746432
-0.00805236
0.00359137
-0.0021747
0.00667206
-9.56949e-05
0.00248218
0.00431978
-0.00824612
-0.00834033
0.00890123
-0.00245086
0.000149044
2.1106e-05
-5.49627e-05
0.000447442
0.000971977
0.00136147
0.00152028
0.00153275
0.00143632
0.00130336
0.0012193
0.00129808
0.00160786
0.00211013
0.00269246
0.00325899
0.00380575
0.00433267
0.00481075
0.004978
0.00429153
0.00236247
-0.000280513
-0.00176404
-0.000210533
0.00234092
0.00176828
0.000906295
0.00140746
-0.00203666
0.000192693
3.1199e-05
-0.00101492
0.00255069
-0.00316757
0.00404413
-0.00181264
0.000319957
-0.00144569
-0.00213949
-0.002175
-0.00279589
-0.00294625
-0.00284541
-0.00255432
-0.00208837
-0.00176788
-0.00176332
-0.00217102
-0.00298469
-0.00402188
-0.0050075
-0.00582924
-0.00651425
-0.0072164
-0.00800722
-0.00899847
-0.010223
-0.00998723
-0.00321528
0.0119909
0.018501
-0.00131772
-0.0093725
0.00728867
-0.00706719
0.00656257
-0.00653875
0.00322746
-0.0025514
0.00620854
0.000203156
0.00370269
0.00438164
-0.00772361
-0.00650962
0.00548262
-0.0018405
-0.000225775
-0.000246378
6.89013e-05
0.000759224
0.0012484
0.00146114
0.00147421
0.00137625
0.00122349
0.0011118
0.00111099
0.00128877
0.00166212
0.00216323
0.00269138
0.00319055
0.00367214
0.00415608
0.00460253
0.00475008
0.00406757
0.0021861
-0.000357409
-0.00173949
-0.000160346
0.00237418
0.00176161
0.000815306
0.00140378
-0.00188985
0.000169622
9.03082e-05
-0.000987458
0.0025765
-0.00306169
0.00363606
-0.00167051
0.00191943
-0.0011678
-0.00227029
-0.00214592
-0.00260914
-0.00262433
-0.00243529
-0.00214052
-0.00175707
-0.00154727
-0.00165111
-0.00213781
-0.00297889
-0.00398478
-0.00491716
-0.00568199
-0.00635277
-0.0070583
-0.00786344
-0.00886475
-0.0100423
-0.00973309
-0.00298756
0.0121612
0.0185973
-0.00176822
-0.0101684
0.00710662
-0.00656813
0.00574529
-0.00504847
0.002906
-0.00288865
0.00553825
9.6895e-05
0.00453705
0.0031031
-0.00750876
-0.00210426
-0.00652592
-0.00188796
-0.000775534
-0.000356273
0.000211525
0.000857232
0.00117459
0.00123182
0.00117894
0.00106351
0.000956104
0.000938232
0.00104853
0.00131056
0.00171247
0.00218473
0.00265458
0.00310456
0.0035549
0.00403081
0.00447095
0.00460639
0.00392774
0.00208711
-0.00036972
-0.00166331
-7.26383e-05
0.00243183
0.00178214
0.000749427
0.00139824
-0.00174172
0.000145736
0.000145121
-0.000959057
0.00261309
-0.00292812
0.00320654
-0.00165005
0.00363468
-0.00111064
-0.00220832
-0.00186362
-0.00222353
-0.00217559
-0.00197158
-0.0017207
-0.00142191
-0.00130211
-0.00148212
-0.00201164
-0.0028547
-0.00382261
-0.00470146
-0.0054185
-0.0060668
-0.00678347
-0.00762488
-0.00868418
-0.00982487
-0.00945585
-0.00276794
0.0122421
0.0186004
-0.00205683
-0.0107608
0.00690501
-0.00615298
0.00493345
-0.00363901
0.00261596
-0.00317833
0.00475837
-0.000203654
0.00510822
0.00161708
-0.00688704
0.000697618
-0.0134048
-0.00209704
-0.00093475
-0.000228781
0.000353176
0.000806365
0.000941408
0.000911854
0.000849827
0.000779087
0.000757644
0.000842508
0.00104158
0.00134646
0.0017363
0.00215375
0.00255695
0.00296182
0.00339515
0.00387192
0.00431391
0.00444135
0.00376695
0.00196802
-0.000401795
-0.00160958
-9.84202e-06
0.00246028
0.00177574
0.000654982
0.00135621
-0.00161689
9.5279e-05
0.000169986
-0.00095625
0.00264211
-0.00279209
0.00275161
-0.00173593
0.00368127
-0.00116039
-0.00189548
-0.00157146
-0.0018897
-0.00182922
-0.00165328
-0.00146206
-0.00123231
-0.00117078
-0.00138708
-0.00191626
-0.00272601
-0.00363466
-0.00444374
-0.00511094
-0.00573849
-0.00646215
-0.00733963
-0.00842653
-0.00950667
-0.00908236
-0.00248514
0.0122664
0.0185402
-0.00211383
-0.0110869
0.00670301
-0.00577233
0.00411877
-0.00231607
0.00236476
-0.00337404
0.00391161
-0.000543163
0.00537465
0.000572689
-0.00533501
0.00306301
-0.0119151
-0.00196813
-0.000621389
5.62906e-05
0.000498587
0.000741414
0.000752417
0.000689541
0.000651103
0.000643401
0.000698595
0.000853728
0.00109407
0.00139348
0.00173525
0.00207812
0.00241028
0.00276998
0.003187
0.00366625
0.00410939
0.00423006
0.00356512
0.00181693
-0.000455367
-0.00157119
3.72849e-05
0.00246946
0.00175547
0.000547718
0.00129502
-0.00149323
3.93865e-05
0.000185242
-0.000957506
0.00267868
-0.00263057
0.00233443
-0.00190052
0.0024124
-0.00109805
-0.00145908
-0.00135054
-0.00165337
-0.00161752
-0.00149324
-0.0013665
-0.00120086
-0.00118467
-0.00141702
-0.00192256
-0.00267599
-0.00350946
-0.00423982
-0.00484503
-0.00543797
-0.00614865
-0.00703482
-0.00811268
-0.00914344
-0.00867279
-0.00219056
0.0121974
0.0183605
-0.00200463
-0.0111976
0.00650263
-0.00540067
0.00329938
-0.0010741
0.00215239
-0.00344704
0.00303393
-0.000837467
0.00527444
-4.06074e-05
-0.00296302
0.00441102
-0.0067748
-0.0014493
-0.000134064
0.000320353
0.000594391
0.000688118
0.000643417
0.000591501
0.000595336
0.000642904
0.000746702
0.000932357
0.00117242
0.0014365
0.00171689
0.00198731
0.00225585
0.00257536
0.00297563
0.00344944
0.00388574
0.00399579
0.00333928
0.0016475
-0.000518584
-0.00153856
7.43337e-05
0.00246198
0.00172458
0.000432286
0.00121486
-0.00137144
-2.08142e-05
0.000191242
-0.000962333
0.00271951
-0.0024354
0.00203212
-0.00206928
0.00126391
-0.000868987
-0.00105859
-0.0011669
-0.00144716
-0.00144886
-0.00138358
-0.00132119
-0.0012215
-0.0012519
-0.00149979
-0.00198296
-0.00268219
-0.00344014
-0.00409179
-0.00463566
-0.00518719
-0.00587468
-0.00673567
-0.00777233
-0.00875563
-0.0082204
-0.00187913
0.0120399
0.0180529
-0.00177541
-0.0111141
0.00627838
-0.0050376
0.00246944
7.71336e-05
0.00197229
-0.00339278
0.00217294
-0.00104535
0.00481644
-0.000491617
-0.000283093
0.0044838
-0.00172827
-0.000822818
0.000194542
0.000420507
0.000570752
0.000600753
0.000561542
0.000549193
0.000598482
0.000684999
0.000811106
0.000999128
0.00121836
0.00144201
0.00167134
0.00188907
0.00211599
0.00240818
0.00279329
0.00325426
0.00367119
0.00376088
0.00310781
0.0014744
-0.00058114
-0.0015029
0.0001086
0.00244393
0.00168999
0.000315816
0.00111911
-0.00125219
-8.66106e-05
0.000181359
-0.00098153
0.0027429
-0.00222083
0.00185457
-0.00220632
0.000541614
-0.00056507
-0.000779626
-0.000975008
-0.00121973
-0.00124872
-0.00123013
-0.00121997
-0.00118321
-0.00126177
-0.00153177
-0.00200507
-0.00266398
-0.00336438
-0.0039559
-0.00445233
-0.00497047
-0.00563277
-0.00645915
-0.00744456
-0.00836574
-0.00774868
-0.00157279
0.0117745
0.0175919
-0.00147966
-0.0108795
0.00601488
-0.00468686
0.00162901
0.00111938
0.00181658
-0.00322185
0.00137877
-0.00114983
0.00404748
-0.000946064
0.00208292
0.00364694
0.00185504
-0.000393344
0.000241506
0.000342453
0.000433494
0.000465543
0.000467577
0.000502747
0.000587182
0.000693907
0.000823515
0.000999114
0.00119366
0.00138675
0.0015875
0.00178227
0.00199397
0.00227683
0.00265246
0.00309583
0.00348252
0.00354088
0.00288513
0.00130821
-0.000634801
-0.00145791
0.000147019
0.00242383
0.00165982
0.000207602
0.00101606
-0.00113118
-0.000148649
0.000161833
-0.00101072
0.0027442
-0.00199172
0.00179227
-0.00226914
0.000185993
-0.000324215
-0.000646066
-0.000791447
-0.000990176
-0.00102383
-0.00102783
-0.00104824
-0.0010579
-0.0011758
-0.0014676
-0.00194048
-0.0025735
-0.00323396
-0.0037878
-0.00425536
-0.00475611
-0.00540157
-0.00619415
-0.00712512
-0.00797334
-0.00725642
-0.00127648
0.0114093
0.0169797
-0.00115282
-0.0105212
0.00570134
-0.00434857
0.000782674
0.00202857
0.00168298
-0.00295536
0.000700387
-0.00113869
0.00302662
-0.00139521
0.00364099
0.00230333
0.00380632
-0.000279651
8.63196e-05
0.000167739
0.000248821
0.000315708
0.000366827
0.000439022
0.000541866
0.000652481
0.000773138
0.000929867
0.00110245
0.00127884
0.00147191
0.00166897
0.00188967
0.00217868
0.00255062
0.00297396
0.00332278
0.00334164
0.00267643
0.00115371
-0.000676635
-0.0014017
0.000192204
0.00240516
0.00163744
0.000110843
0.000910411
-0.00100621
-0.000201788
0.000136587
-0.00104888
0.00271545
-0.00175867
0.00181951
-0.00223885
0.000116061
-0.000234737
-0.000635778
-0.000662816
-0.000814908
-0.000832309
-0.000834339
-0.000861311
-0.000892798
-0.0010318
-0.00133492
-0.00180411
-0.00241524
-0.0030447
-0.00357352
-0.00403002
-0.00452674
-0.00516487
-0.00592923
-0.00680522
-0.0075525
-0.00673264
-0.000998083
0.0109452
0.0162225
-0.000822532
-0.0100586
0.00533855
-0.00402681
-5.23143e-05
0.00278368
0.00157068
-0.00262042
0.000177209
-0.000999408
0.00181902
-0.00173992
0.0041738
0.000799777
0.00437579
-0.000401398
-0.000129252
-1.11383e-05
8.61757e-05
0.000193215
0.000281293
0.00037243
0.000478241
0.000581966
0.000687667
0.000824411
0.000979476
0.00114801
0.00134529
0.00155886
0.00180026
0.00210563
0.00247696
0.00287914
0.00318529
0.00315956
0.0024816
0.0010113
-0.000706934
-0.00133504
0.000243465
0.00238807
0.00162255
2.73045e-05
0.000804579
-0.000874738
-0.000241642
0.000111029
-0.00109159
0.00265177
-0.00153118
0.00190243
-0.00211299
0.000232745
-0.000284534
-0.00069835
-0.000607059
-0.000723283
-0.000715982
-0.000700725
-0.000717749
-0.000749319
-0.000889791
-0.00118894
-0.00164297
-0.00222573
-0.00282455
-0.0033313
-0.00378065
-0.00427994
-0.00491398
-0.00565393
-0.00646523
-0.00708728
-0.00618847
-0.000732838
0.0104083
0.0153451
-0.000502153
-0.0095022
0.00493693
-0.00371411
-0.000854329
0.00336922
0.00147834
-0.0022489
-0.000164266
-0.000726792
0.000512272
-0.00186967
0.00374691
-0.000565914
0.00386819
-0.000602304
-0.000304929
-0.000135878
-1.48823e-05
0.000119388
0.000224298
0.000318693
0.000418113
0.000510162
0.000600578
0.0007197
0.00086104
0.00102518
0.00122922
0.00146058
0.00172461
0.00204647
0.0024181
0.00279742
0.00306023
0.00298834
0.00229701
0.000880231
-0.000726198
-0.00126013
0.000298466
0.00236987
0.0016139
-4.09225e-05
0.000700001
-0.000737004
-0.000265002
8.99958e-05
-0.00113426
0.00254657
-0.00131957
0.00200422
-0.00190481
0.000439291
-0.000398836
-0.000770832
-0.000602841
-0.000700958
-0.000673278
-0.000638397
-0.000640488
-0.000661308
-0.000790955
-0.00107405
-0.00150154
-0.00204675
-0.00260637
-0.00308687
-0.00352487
-0.00402343
-0.00465237
-0.00536605
-0.00610204
-0.00659929
-0.0056415
-0.00047411
0.0098204
0.0143789
-0.000195973
-0.00886454
0.0045142
-0.0034038
-0.00159615
0.00377858
0.00140367
-0.00187435
-0.000312782
-0.000331939
-0.00077964
-0.00170715
0.00260049
-0.0015503
0.00261574
-0.000760353
-0.000398757
-0.000190038
-5.18445e-05
9.119e-05
0.000195924
0.000283912
0.000373633
0.000455006
0.000533791
0.000640318
0.000771221
0.000930098
0.0011364
0.00137839
0.00165749
0.00198967
0.00235801
0.00271303
0.00293309
0.00281814
0.00211637
0.00075516
-0.000739195
-0.00118203
0.000351435
0.00234616
0.00160785
-9.52722e-05
0.000596297
-0.000596661
-0.000269865
7.79835e-05
-0.00117125
0.00239796
-0.00113365
0.00209003
-0.00163587
0.000654808
-0.000503354
-0.000806206
-0.00061495
-0.000712536
-0.000675078
-0.000627772
-0.000619534
-0.000629527
-0.000745852
-0.00100814
-0.00140173
-0.00190191
-0.00241509
-0.00286011
-0.00327995
-0.00376944
-0.00438646
-0.00506928
-0.00573103
-0.00610917
-0.00509172
-0.000220354
0.00920369
0.013356
8.9628e-05
-0.00815394
0.00408823
-0.00308797
-0.00225207
0.00401013
0.00134294
-0.00152927
-0.000273856
0.000154469
-0.00193094
-0.00122741
0.00105062
-0.00198523
0.000982669
-0.000823087
-0.000409747
-0.000183201
-3.96908e-05
9.61387e-05
0.000189689
0.000267414
0.000348299
0.000423003
0.000495577
0.000595242
0.000718717
0.000870277
0.0010714
0.00131304
0.00159484
0.00192716
0.00228539
0.00261435
0.00279353
0.00263972
0.00193323
0.00063152
-0.000751247
-0.00110683
0.00039671
0.0023121
0.00159953
-0.000138292
0.000491752
-0.000459366
-0.000256295
7.90927e-05
-0.00119674
0.00220924
-0.000981614
0.00212985
-0.00133317
0.000824134
-0.000554487
-0.000786418
-0.000617464
-0.000723391
-0.000688087
-0.000638616
-0.000629505
-0.000635435
-0.000742609
-0.000986178
-0.00134572
-0.00179866
-0.00226153
-0.00266544
-0.00305845
-0.00352981
-0.0041255
-0.00477108
-0.00535689
-0.00562049
-0.00454791
2.18869e-05
0.00856962
0.0122995
0.000352439
-0.00738635
0.00367685
-0.00276003
-0.0027974
0.00407277
0.00128648
-0.00124353
-6.98803e-05
0.000683852
-0.00282775
-0.000457948
-0.000586015
-0.00180755
-0.000679244
-0.000789839
-0.00035582
-0.000135607
1.60629e-06
0.000120354
0.000197905
0.000265295
0.00034061
0.00041323
0.000485029
0.000583294
0.000702329
0.000844622
0.00103445
0.00126468
0.00153669
0.0018579
0.00219808
0.00249768
0.0026388
0.00245173
0.00174627
0.00050782
-0.000763944
-0.0010379
0.000430953
0.0022647
0.00158509
-0.0001734
0.000384713
-0.000330737
-0.000226299
9.54077e-05
-0.00120441
0.00198929
-0.00086754
0.00210409
-0.00102501
0.000915665
-0.000545264
-0.000718046
-0.000597753
-0.000713304
-0.00068743
-0.000645378
-0.000643506
-0.000654418
-0.000759998
-0.000991042
-0.00132119
-0.00173057
-0.00214435
-0.00250532
-0.00286598
-0.00331115
-0.0038772
-0.00447837
-0.00498759
-0.00514305
-0.00402138
0.000245284
0.00792773
0.0112296
0.000587594
-0.00658016
0.00329199
-0.00241757
-0.00321814
0.00398033
0.00122381
-0.00104111
0.000257659
0.00119659
-0.00339167
0.000524065
-0.0020414
-0.00107211
-0.00209009
-0.000685547
-0.000264525
-7.00099e-05
5.32408e-05
0.000150872
0.000212153
0.000271301
0.000344227
0.000418403
0.000493463
0.000594433
0.000711788
0.00084475
0.00101959
0.0012314
0.00148373
0.00178452
0.00209989
0.00236718
0.00247203
0.0022568
0.00155919
0.000386768
-0.000776234
-0.000974799
0.000453498
0.00220302
0.00156198
-0.000203194
0.000273857
-0.0002169
-0.000183644
0.000127075
-0.00118915
0.00175002
-0.000790911
0.00200501
-0.000737702
0.000921265
-0.000488573
-0.00061959
-0.000553889
-0.000673527
-0.000660475
-0.000630978
-0.00064143
-0.000664177
-0.000775125
-0.00100022
-0.00130834
-0.00168112
-0.0020514
-0.00237238
-0.00270051
-0.00311368
-0.0036441
-0.00419635
-0.00462925
-0.00468449
-0.00351991
0.000445667
0.00728536
0.0101638
0.00078868
-0.00575797
0.00294003
-0.00206575
-0.00350242
0.00375575
0.00114407
-0.000936546
0.000654653
0.00162967
-0.00359534
0.00160527
-0.00312891
6.58491e-05
-0.00307955
-0.000544437
-0.000164734
-5.69796e-06
0.000100252
0.000176874
0.000224267
0.000277521
0.000349917
0.000427398
0.000507767
0.000613527
0.000730946
0.000856204
0.00101594
0.0012068
0.00143511
0.00170962
0.00199515
0.0022292
0.00229972
0.0020619
0.00137757
0.000274164
-0.000783307
-0.000914455
0.000466568
0.00212877
0.00153068
-0.000227045
0.000159767
-0.000123
-0.000133157
0.000171788
-0.00114681
0.00150615
-0.000746918
0.00183795
-0.000491937
0.000851846
-0.0004049
-0.000509068
-0.00048966
-0.000606332
-0.000604837
-0.000589063
-0.000612417
-0.000650333
-0.000770635
-0.000994925
-0.00128829
-0.00163295
-0.00196828
-0.0022552
-0.00255323
-0.00293403
-0.00342459
-0.00392501
-0.00428484
-0.004246
-0.003048
0.000616233
0.0066429
0.00911728
0.000947809
-0.00494316
0.00262461
-0.00170691
-0.00365182
0.0034247
0.00103669
-0.000933591
0.00105554
0.00192761
-0.00346493
0.00265332
-0.00375763
0.00138674
-0.00359093
-0.000398838
-7.82621e-05
4.48101e-05
0.000133189
0.000191683
0.000228495
0.000277523
0.000349385
0.000429527
0.000514701
0.000625141
0.000743743
0.000863512
0.00101075
0.0011821
0.00138612
0.0016331
0.00188754
0.00208813
0.00212739
0.00187298
0.00120734
0.000175054
-0.000780987
-0.000853196
0.000473708
0.00204553
0.00149355
-0.000243634
4.47719e-05
-5.32833e-05
-8.05675e-05
0.000225962
-0.00107612
0.0012733
-0.000727721
0.00161874
-0.000300933
0.000732091
-0.000313897
-0.000401756
-0.000413583
-0.000520539
-0.000527405
-0.000522899
-0.000556567
-0.000608602
-0.000738698
-0.000964061
-0.00124792
-0.0015718
-0.00188049
-0.00214184
-0.00241436
-0.00276475
-0.00321434
-0.00366282
-0.0039531
-0.00382992
-0.00261449
0.000746104
0.00600736
0.00810115
0.0010602
-0.00416282
0.00234292
-0.00134876
-0.00366719
0.00301872
0.000898029
-0.00102262
0.00140282
0.00204883
-0.00307335
0.00353811
-0.00393026
0.00265458
-0.00366328
-0.000272319
-1.58034e-05
7.66319e-05
0.000148719
0.00019304
0.000222454
0.000267651
0.000337762
0.000418446
0.000506324
0.000619445
0.000738855
0.00085519
0.000993129
0.00114899
0.00133198
0.0015529
0.00177746
0.00194654
0.00195867
0.0016932
0.00105201
9.21931e-05
-0.000766732
-0.000788429
0.000477944
0.00195673
0.00145348
-0.000249869
-6.77237e-05
-1.03854e-05
-3.22255e-05
0.000286327
-0.000977937
0.00106768
-0.000722609
0.00137126
-0.000170616
0.000592645
-0.000230568
-0.000307617
-0.000336104
-0.000429087
-0.000439691
-0.000442572
-0.000482091
-0.000544814
-0.000681582
-0.000906774
-0.00118312
-0.00149133
-0.00178077
-0.00202395
-0.00227681
-0.00259932
-0.00300908
-0.00340759
-0.00363461
-0.00343806
-0.00222869
0.000832379
0.00538621
0.00712788
0.00112442
-0.00343534
0.00209007
-0.00100174
-0.00355939
0.00257285
0.000730306
-0.00118403
0.00164066
0.00197566
-0.00252335
0.00415107
-0.00372364
0.0036619
-0.00339997
-0.000176801
2.19124e-05
9.05167e-05
0.000148746
0.000183028
0.000207236
0.000248596
0.000314938
0.000393542
0.000481121
0.000594008
0.000713015
0.000827288
0.000958938
0.00110345
0.0012694
0.00146794
0.00166522
0.00180567
0.00179513
0.00152466
0.000912588
2.65024e-05
-0.000739971
-0.000719166
0.000481207
0.0018669
0.00141351
-0.000242205
-0.000172461
6.31222e-06
6.89454e-06
0.000348875
-0.000853849
0.000901596
-0.000720044
0.00112237
-9.88728e-05
0.000463393
-0.00016358
-0.000232361
-0.000266194
-0.000343322
-0.000353973
-0.000360136
-0.000400968
-0.000469229
-0.000608335
-0.000830015
-0.00109846
-0.00139307
-0.00166755
-0.00189795
-0.0021364
-0.00243439
-0.00280665
-0.00315618
-0.00332695
-0.00307357
-0.0018896
0.000877828
0.0047816
0.0062057
0.00114282
-0.00277726
0.00186415
-0.000674115
-0.0033471
0.00211872
0.000543975
-0.00138648
0.00173747
0.00171464
-0.00192517
0.0044261
-0.00325861
0.00426457
-0.00292958
-0.000112738
3.97419e-05
9.12087e-05
0.000138394
0.00016562
0.000185965
0.000223182
0.000284367
0.000358516
0.000443024
0.00055274
0.000669476
0.000781851
0.000909178
0.00104574
0.00119859
0.0013778
0.001551
0.00166659
0.00163716
0.00136682
0.000788597
-2.29572e-05
-0.000701701
-0.000645888
0.000484842
0.00177694
0.0013766
-0.000220241
-0.000264057
-1.62677e-06
3.40049e-05
0.000404652
-0.000709702
0.000781871
-0.00070828
0.000897541
-7.73419e-05
0.00036701
-0.000115206
-0.000177062
-0.000208927
-0.000270602
-0.000278838
-0.00028511
-0.000323687
-0.000392709
-0.000529192
-0.000743192
-0.00100134
-0.00128269
-0.00154466
-0.00176597
-0.00199256
-0.00226955
-0.00260556
-0.00291063
-0.00303056
-0.00273609
-0.00159435
0.000887998
0.00420594
0.00534657
0.00112097
-0.0021975
0.00165894
-0.000372653
-0.00304746
0.00168635
0.00034936
-0.00159556
0.00168195
0.00129526
-0.00137829
0.00434271
-0.00266774
0.00440305
-0.00237676
-7.45026e-05
4.37199e-05
8.36201e-05
0.000122341
0.000144679
0.000162208
0.00019524
0.000250305
0.000318384
0.000397744
0.000501971
0.000614731
0.000724652
0.000848447
0.000979161
0.00112146
0.00128435
0.0014363
0.0015298
0.00148586
0.00122032
0.000679143
-5.85797e-05
-0.000654776
-0.000570298
0.000488495
0.0016887
0.0013437
-0.000179401
-0.000336924
-2.77109e-05
4.58398e-05
0.000448319
-0.000555003
0.000708578
-0.000678634
0.00071595
-9.285e-05
0.000315149
-8.37172e-05
-0.000139586
-0.000165631
-0.000213914
-0.000218682
-0.000223131
-0.000257298
-0.000323305
-0.00045306
-0.000655684
-0.000900621
-0.00116713
-0.00141729
-0.00163008
-0.00184768
-0.00210496
-0.00240789
-0.00267078
-0.0027473
-0.00242419
-0.00133913
0.000869288
0.00366259
0.00455915
0.00106637
-0.00170161
0.00147073
-0.000107379
-0.00268179
0.00130185
0.000170277
-0.00177404
0.0014896
0.000771414
-0.000950938
0.00393194
-0.0020688
0.0041004
-0.00183666
-5.49631e-05
3.91992e-05
7.1856e-05
0.000104257
0.00012325
0.000138624
0.000167697
0.000216431
0.000277766
0.000350798
0.000448036
0.000555444
0.000662154
0.000782126
0.000907666
0.00104115
0.00118929
0.00132234
0.00139637
0.00134147
0.00108392
0.000582298
-8.29649e-05
-0.000601886
-0.000495327
0.000489799
0.00160238
0.00131505
-0.000121313
-0.000385591
-6.68588e-05
4.21098e-05
0.000473358
-0.000399591
0.000675761
-0.000626697
0.000589
-0.000130111
0.000307529
-6.53648e-05
-0.000115979
-0.00013494
-0.000172726
-0.000174093
-0.000176027
-0.000204928
-0.000265514
-0.000385658
-0.000573897
-0.00080285
-0.00105337
-0.00129021
-0.00149553
-0.00170342
-0.00194299
-0.00221444
-0.00243833
-0.00247772
-0.00213792
-0.00112037
0.000828933
0.00315997
0.00384841
0.00098744
-0.00128774
0.00129793
0.000119104
-0.00227453
0.000981503
2.19669e-05
-0.00189115
0.00119319
0.0002034
-0.000677596
0.00326874
-0.00154374
0.00345394
-0.00136518
-4.7631e-05
3.02304e-05
5.87731e-05
8.64655e-05
0.00010321
0.000117005
0.000142492
0.000185258
0.000239924
0.000306278
0.000396002
0.000497028
0.000599659
0.00071544
0.000835582
0.00096059
0.00109529
0.00121067
0.00126784
0.00120428
0.000957716
0.000496428
-9.89885e-05
-0.000547059
-0.000424417
0.00048678
0.00151472
0.00128883
-4.69935e-05
-0.000407971
-0.000110817
2.28792e-05
0.000475226
-0.000254766
0.00067237
-0.000551871
0.000517518
-0.000173888
0.000333917
-5.61217e-05
-0.000102339
-0.000114492
-0.000144868
-0.00014352
-0.000143083
-0.000167012
-0.000221026
-0.000330043
-0.000502339
-0.000713502
-0.000946025
-0.00116915
-0.00136518
-0.0015638
-0.00178547
-0.00202741
-0.00221584
-0.0022246
-0.00187829
-0.000935032
0.000771734
0.00270123
0.003217
0.0008944
-0.000952241
0.00113604
0.000302701
-0.00184858
0.000734879
-8.04484e-05
-0.00192304
0.000842466
-0.000341193
-0.000554025
0.00245184
-0.00113608
0.00260232
-0.000979108
-4.7551e-05
1.97594e-05
4.61516e-05
7.03471e-05
8.5574e-05
9.81924e-05
0.000120665
0.000158177
0.000206783
0.00026678
0.000348975
0.000443567
0.000541266
0.00065217
0.000766552
0.000883136
0.00100475
0.00110409
0.00114605
0.00107618
0.000841848
0.00042059
-0.000108932
-0.00049325
-0.000360526
0.000476661
0.0014252
0.00126217
4.01987e-05
-0.00040125
-0.000153549
-8.01243e-06
0.00045128
-0.000131062
0.000683469
-0.000458277
0.000494497
-0.000210927
0.00037821
-5.2684e-05
-9.51758e-05
-0.000101754
-0.000127412
-0.00012439
-0.000122192
-0.000141997
-0.000189353
-0.000286841
-0.000442349
-0.000634838
-0.00084858
-0.00105654
-0.00124255
-0.0014307
-0.00163545
-0.00184998
-0.00200633
-0.00198962
-0.00164518
-0.000780762
0.000702296
0.00228836
0.00266647
0.00079379
-0.000687661
0.000985045
0.000441437
-0.00142784
0.000561516
-0.000127158
-0.00185919
0.000488747
-0.000804694
-0.000548162
0.00159211
-0.000849691
0.00169677
-0.000659905
-5.09851e-05
9.70152e-06
3.49532e-05
5.65209e-05
7.0717e-05
8.25056e-05
0.000102547
0.000135699
0.000179105
0.000233409
0.000308772
0.000396943
0.000489428
0.000594743
0.000702815
0.000810595
0.000919855
0.00100411
0.00103261
0.000958218
0.000737287
0.000354673
-0.000114149
-0.000442322
-0.00030579
0.000457747
0.00133063
0.00123169
0.00013483
-0.000367911
-0.000188008
-4.67827e-05
0.000401966
-3.59102e-05
0.00069396
-0.000353444
0.000505959
-0.000231327
0.000423536
-5.24783e-05
-9.17812e-05
-9.43208e-05
-0.000117287
-0.000113593
-0.000110487
-0.000127258
-0.000168452
-0.000254784
-0.000394017
-0.000567494
-0.000762232
-0.00095447
-0.00112923
-0.00130631
-0.00149396
-0.00168311
-0.00181123
-0.00177509
-0.00143921
-0.00065489
0.000624652
0.00192012
0.00219123
0.000692089
-0.000484954
0.000842721
0.000534923
-0.00103315
0.000454112
-0.000119282
-0.00170199
0.000178883
-0.00114433
-0.000611773
0.00078956
-0.000664338
0.000868143
-0.000384961
-5.53146e-05
1.09771e-06
2.56213e-05
4.51706e-05
5.86225e-05
6.98309e-05
8.79608e-05
0.000117611
0.000156707
0.000206146
0.000275362
0.00035749
0.000444783
0.000544198
0.000645586
0.000744669
0.000841576
0.000912542
0.00092934
0.000852146
0.000645045