/*--------------------------------*- C++ -*----------------------------------*\
| =========                 |                                                 |
| \\      /  F ield         | OpenFOAM: The Open Source CFD Toolbox           |
|  \\    /   O peration     | Version:  2312                                  |
|   \\  /    A nd           | Website:  www.openfoam.com                      |
|    \\/     M anipulation  |                                                 |
\*---------------------------------------------------------------------------*/
FoamFile
{
    version     2.0;
    format      ascii;
    arch        "LSB;label=32;scalar=64";
    class       volScalarField;
    location    "400";
    object      nut;
}
// * * * * * * * * * * * * * * * * * * * * * * * * * * * * * * * * * * * * * //

dimensions      [0 2 -1 0 0 0 0];

internalField   nonuniform List<scalar> 
10720
(
6.7687e-05
0.000113486
0.000149373
0.000155166
0.000138802
0.000122386
0.000114136
0.000114374
0.000124212
0.000144213
0.000178067
0.00023349
0.000327188
0.000494302
0.000807277
0.00142748
0.00270795
0.00574562
0.0115071
0.0197794
0.0325502
0.056456
0.107879
0.217888
0.414019
0.605522
1.27167
2.1551
1.49116
0.532367
0.158245
0.0174645
0.00357746
0.000522598
1.50244e-18
1.93947e-18
3.39742e-05
0.00308181
0.114658
5.04519e-05
6.36357e-05
7.00341e-05
0.000168486
5.21517e-05
0.000101488
0.000144284
0.000170233
0.000172169
0.000166234
0.000167569
0.000182319
0.000212922
0.000276018
0.000373204
0.000600067
0.000949291
0.00277465
0.00338204
0.00410141
0.00607844
0.00779245
0.0100662
0.0138058
0.0188324
0.0243892
0.021933
0.012636
0.00509312
0.00142483
0.0002181
1.3621e-05
3.74736e-06
1.59129e-06
6.14359e-07
1.65215e-08
2.91984e-10
0.00525228
0.327939
0.000238488
0.000248031
0.000293776
0.000214886
0.000127432
7.77005e-05
5.47556e-05
4.43429e-05
4.72625e-05
3.80528e-05
2.2941e-05
3.96704e-05
4.71067e-05
6.6375e-05
0.000179646
0.000460815
0.00123417
0.00322951
0.00776187
0.0157247
0.0280367
0.045715
0.0789001
0.134478
0.385144
0.477965
1.27477
1.42709
1.23126
1.69257
1.03677
0.259586
0.0683201
0.00968556
0.000155474
4.48695e-18
6.04577e-18
0.00322772
0.113234
6.37303e-05
2.21959e-05
2.13347e-05
8.47946e-05
8.71156e-05
9.48767e-05
8.4105e-05
9.62773e-05
0.000109583
0.000126038
0.000144422
0.000163816
0.000182675
0.00020355
0.000128958
5.42702e-05
0.00227957
0.00624173
0.0114114
0.000574608
0.0005638
0.0422473
0.062141
1.74802e-05
0.000100083
0.00033234
0.000745469
0.000875526
0.000705361
0.000553108
0.000315039
0.000152495
6.49868e-05
2.53592e-05
9.03009e-06
3.23622e-06
5.8258e-08
0.00391655
0.259694
6.94931e-05
8.32024e-05
8.20443e-05
8.26582e-05
8.50979e-05
8.95181e-05
9.61635e-05
0.000104152
0.00011307
0.000122353
0.000131478
0.000140132
0.000148502
0.000154945
0.000161756
0.000185688
0.00026322
0.000609089
0.00167582
0.00425821
0.00985185
0.0211958
0.0493398
0.134256
0.219497
0.309785
0.827646
0.817048
0.524393
0.433051
0.40648
0.275654
0.0740013
0.0116239
0.000836776
0.000118204
5.65379e-18
0.000964107
0.180151
9.72464e-05
9.4234e-05
0.00013353
0.00013835
0.000111626
9.69904e-05
9.99021e-05
0.000109149
0.000124508
0.000148963
0.000185564
0.000237536
0.000308149
0.000403878
0.000531672
0.000687673
0.0008797
0.00077649
0.000325447
0.00149897
0.00149422
8.09398e-05
8.80287e-05
0.000269247
0.00101022
0.00296145
0.000352715
0.00478845
0.00353684
0.000151287
0.000168562
0.000639604
1.66347e-05
7.18928e-05
0.000113624
0.000170453
3.46939e-06
0.0121653
0.863448
0.000208321
0.000207231
0.000206585
0.000209057
0.000212451
0.000218285
0.000226333
0.000236983
0.000250624
0.000267984
0.000289802
0.000316584
0.000349231
0.000389793
0.000441833
0.000511061
0.00060039
0.00069649
0.000528786
0.00024656
2.31793e-16
3.27381e-16
4.4184e-15
1.53505e-15
0.0753296
5.04919e-11
3.12667e-12
1.97958e-11
8.83105e-11
8.29892e-10
5.72657e-08
6.29274e-05
0.0161617
0.0167635
0.00614925
0.00117574
0.000345398
0.00145593
0.293599
0.000248127
0.000225913
0.000204181
0.000197856
0.000205825
0.000137915
0.000114516
0.00012103
0.000132442
0.000145561
0.000160919
0.000184578
0.000194024
0.000198568
0.000216765
0.000225342
4.66346e-05
0.00014433
0.000251067
0.000354468
0.000444911
0.000497528
0.000540234
0.000536185
0.00056058
0.000548402
0.000556613
0.00054284
0.000527604
0.000521794
0.000505091
0.000477361
0.000448078
0.000432029
0.000395644
0.000624019
1.19867e-05
0.0104219
3.00731
0.00044556
0.000439651
0.000443702
0.00045233
0.000464177
0.000483004
0.000506908
0.00053703
0.000574338
0.0006187
0.000670415
0.000729129
0.000794079
0.000864158
0.000938029
0.00101292
0.00108967
0.0011788
0.00129302
0.00133973
0.000369888
0.000204705
2.24314e-16
3.05776e-16
2.16654e-15
2.17629e-11
7.20582e-17
6.96375e-16
3.45953e-15
3.04821e-14
8.63711e-13
1.8304e-10
6.8011e-11
8.90466e-13
0.00533194
0.0054407
0.00201922
0.00166319
0.243791
0.000438005
0.00042808
0.000281828
0.000145648
0.000228709
0.000316608
0.000342234
0.00032576
0.000307991
0.000288697
0.000269465
0.000285033
0.000224138
0.000144563
0.000138811
0.000145175
0.000168553
0.00019075
0.000201293
0.000203605
0.000199205
0.000191202
0.000183069
0.000176342
0.000170952
0.000166123
0.000162482
0.000159858
0.000158559
0.000155915
0.000154762
0.000166374
0.000180596
0.00020183
0.000167449
0.000465606
9.13526e-06
0.0177109
2.11244
0.000789029
0.000789166
0.000801731
0.000815126
0.000834261
0.000808464
0.000790081
0.000781679
0.000779319
0.000785631
0.000802218
0.000828833
0.000864459
0.000912231
0.000966436
0.00101849
0.00110111
0.00123191
0.0013776
0.00150216
0.00154428
0.00106608
0.000216111
0.000121893
2.30907e-16
9.27663e-22
4.60516e-27
4.73889e-27
7.99241e-27
1.92802e-26
5.97438e-26
2.40295e-25
3.3237e-16
1.005e-14
1.54696e-15
2.04298e-13
1.76932e-11
2.03651e-09
8.61863e-07
0.000378975
0.00012619
0.000273189
0.000753487
0.000917385
0.000970742
0.00103253
0.00111297
0.00121961
0.00135702
0.00153184
0.00168934
0.00167964
0.00165707
0.00163067
0.00160266
0.0015708
0.00153154
0.00148688
0.00144625
0.00140806
0.00137084
0.00133408
0.00129859
0.00126295
0.00122693
0.00119347
0.00116213
0.00113385
0.00110961
0.0010841
0.00104592
0.000996727
0.000944172
0.000859328
0.000862689
1.72175e-05
0.0108761
1.08045
0.000121109
0.000131638
0.000131977
0.000128154
0.000134652
0.000139656
0.000144286
0.000150717
0.000157288
0.000164008
0.000172452
0.00018223
0.0001933
0.000212612
0.000224408
0.000229205
0.000248717
0.00028338
8.64148e-05
0.00028485
0.000517279
0.000720061
0.000817436
0.000616017
0.000203555
1.54579e-12
1.04311e-26
6.33211e-27
7.27078e-27
1.27979e-26
3.00484e-26
8.44287e-26
2.36758e-25
5.98144e-25
3.11825e-17
1.63377e-15
4.24532e-14
3.35902e-23
1.03158e-09
0.000178571
0.000492668
0.00146208
0.00158355
0.00164319
0.00171793
0.00178958
0.00180255
0.00181829
0.00183571
0.00185383
0.0018726
0.00189233
0.00190875
0.00192466
0.00194178
0.00193762
0.00191162
0.00187928
0.00184764
0.0018155
0.00178184
0.00174631
0.00170843
0.00166697
0.00162457
0.00158539
0.00154795
0.00151367
0.00148401
0.00146055
0.0014254
0.00139143
0.0013825
0.00129433
0.00123922
0.000122451
0.00623517
0.408519
0.000303919
3.42804e-05
8.84715e-05
0.000136717
0.000220726
0.000268705
0.000308578
0.000341487
0.000367006
0.000385986
0.000400106
0.000410116
0.000416452
0.000460066
0.000442206
0.000379334
0.000374965
0.000366715
0.000335455
0.000328119
0.000386475
0.000496893
0.000637344
0.000701615
0.000878488
1.63973e-11
6.61251e-18
9.77089e-27
8.1126e-27
1.07954e-26
1.99544e-26
4.41048e-26
9.56961e-26
1.74682e-25
2.71531e-25
5.6331e-25
1.52366e-24
3.46346e-24
2.0684e-22
0.00100031
0.00178751
0.00165892
0.00107965
0.00051649
0.000436248
0.000452889
0.000480205
0.000515203
0.000557765
0.000606263
0.000659866
0.000719419
0.000782489
0.00084978
0.000910219
0.000943029
0.000949091
0.000947599
0.000942774
0.000933143
0.000919645
0.000903103
0.000883653
0.000862743
0.000842404
0.000823681
0.000806553
0.000791813
0.000779279
0.000772512
0.000781223
0.000806244
0.000831314
0.000837309
0.000962585
0.000448969
0.00236204
0.131863
0.00139422
0.00136169
0.00142537
0.00147615
0.00152955
0.00157701
0.00161263
0.00163849
0.00165663
0.00166781
0.00167379
0.00167552
0.00167323
0.00166595
0.00165662
0.00164045
0.00161921
0.00159054
0.00158606
0.00144828
0.0012388
0.00112606
0.00106509
0.000958097
0.00124447
1.1626e-10
5.18721e-17
1.65977e-26
1.03497e-26
1.06951e-26
1.58869e-26
2.88668e-26
5.29047e-26
8.60618e-26
1.24188e-25
2.1091e-25
4.55045e-25
9.14023e-25
2.55583e-24
0.00185151
0.00128834
0.000445038
0.000198152
7.14378e-05
6.24291e-05
6.59816e-05
7.01146e-05
7.54779e-05
8.2322e-05
8.97588e-05
9.8316e-05
0.000108644
0.000120118
0.000133157
0.000146167
0.000155826
3.37634e-06
1.06374e-05
1.31662e-05
1.23967e-05
9.52195e-06
5.50586e-06
1.82397e-06
0.000177481
0.000176806
0.000176233
0.000175722
0.000175471
9.20504e-07
2.92585e-06
1.63455e-05
4.89775e-05
0.000100452
0.000168227
0.000250583
0.00040903
0.00035269
0.0178361
0.00163642
0.00149458
0.00147087
0.00147296
0.00147005
0.00146687
0.00146614
0.00146688
0.00147064
0.00147769
0.00148763
0.00150016
0.00151502
0.00153126
0.00154836
0.0015663
0.00158347
0.00160343
0.00162618
0.00164952
0.00163523
0.00154226
0.00144419
0.00127822
0.00144927
6.60674e-10
3.21268e-16
3.02388e-26
1.45985e-26
1.19865e-26
1.45244e-26
2.21464e-26
3.5428e-26
5.29372e-26
7.27267e-26
1.09651e-25
2.0571e-25
3.73041e-25
7.49703e-25
0.000874263
9.12804e-05
7.76061e-05
6.47958e-05
8.78491e-05
9.4546e-05
9.7278e-05
9.68138e-05
9.55448e-05
9.42252e-05
9.1985e-05
8.98286e-05
8.81917e-05
8.66609e-05
8.55328e-05
8.48338e-05
8.4437e-05
8.5144e-05
8.69553e-05
8.82262e-05
8.90235e-05
8.94167e-05
8.93779e-05
8.90966e-05
8.89065e-05
8.89481e-05
8.89624e-05
8.89344e-05
8.89157e-05
8.9078e-05
8.94046e-05
9.12548e-05
9.44564e-05
0.000100116
0.000108597
0.000120526
8.25583e-05
1.87993e-06
0.00435802
0.000455023
0.000499302
0.0004348
0.000408232
0.000384829
0.0003666
0.000356658
0.000353762
0.000358031
0.00036873
0.000385112
0.000407114
0.000434778
0.000468431
0.000509558
0.000557087
0.000609087
0.000664746
0.000752923
0.000893384
0.00102783
0.0011211
0.00119333
0.00116049
0.00139174
3.30144e-09
1.73482e-15
5.83072e-26
2.23658e-26
1.48698e-26
1.4898e-26
1.92981e-26
2.73302e-26
3.78971e-26
5.01871e-26
7.05154e-26
1.20196e-25
2.00939e-25
3.27603e-25
0.000165199
5.75802e-05
4.48063e-05
0.000493067
0.000651542
0.000679777
0.000690628
0.000691624
0.000686289
0.000677249
0.000665784
0.000652276
0.000636989
0.000620514
0.000604118
0.000588416
0.000575079
0.000563541
0.000553305
0.000543927
0.000535016
0.000525885
0.000516261
0.000506705
0.000497639
0.000489004
0.000480838
0.000472936
0.000465532
0.000458344
0.000451156
0.000438658
0.000410818
0.0003734
0.000330954
0.000278989
0.000264965
0.000102872
2.67832e-16
5.72126e-05
6.41212e-05
5.99443e-05
5.57958e-05
5.62634e-05
5.77858e-05
5.85093e-05
6.0438e-05
6.30805e-05
6.60562e-05
7.00655e-05
7.48784e-05
8.06048e-05
9.12482e-05
9.72314e-05
0.000100964
0.000111871
0.000124947
0.000148269
4.79504e-05
0.000190634
0.000363611
0.000538434
0.000631353
0.000986296
1.33938e-08
7.5475e-15
1.18085e-25
3.67365e-26
2.01169e-26
1.68873e-26
1.87708e-26
2.37067e-26
3.06003e-26
3.86159e-26
5.17683e-26
8.19109e-26
1.27681e-25
1.82089e-25
0.000111474
0.000345624
0.000881074
0.00105749
0.00106684
0.00107866
0.0010873
0.0010899
0.00108778
0.00108173
0.00107311
0.00106231
0.00104911
0.00103446
0.00101981
0.0010068
0.000994852
0.000983428
0.000972083
0.000960346
0.000947706
0.000933817
0.000919145
0.000904541
0.000890488
0.000876884
0.000863649
0.000850564
0.000838135
0.000825931
0.000814916
0.000804794
0.000779729
0.000750868
0.000720633
0.000652781
0.000546024
0.000453943
8.2879e-05
0.000167536
9.51094e-05
0.00010534
6.96441e-06
2.64017e-05
4.75145e-05
6.39842e-05
7.66072e-05
8.63878e-05
9.31543e-05
9.75663e-05
0.000100353
0.000101738
0.000127492
0.000110242
6.86153e-05
6.7298e-05
7.09731e-05
7.31549e-05
6.33159e-05
6.87908e-05
0.000115291
0.000214755
0.000280799
0.000608953
5.19499e-08
3.11651e-14
2.50047e-25
6.41446e-26
2.93642e-26
2.09178e-26
2.01458e-26
2.2811e-26
2.74151e-26
3.31706e-26
4.22716e-26
6.19786e-26
9.0022e-26
1.17688e-25
0.000573816
0.00100651
0.000923153
0.000649483
0.000585251
0.000575705
0.000575581
0.000577225
0.000578701
0.000578368
0.000577351
0.000576372
0.000575212
0.000574366
0.000573674
0.0005727
0.000571183
0.00056894
0.000565756
0.000561367
0.000555774
0.00054934
0.000542387
0.000535374
0.000528653
0.000522027
0.000515521
0.000509102
0.000503125
0.000497546
0.000492391
0.000490455
0.00049801
0.000510882
0.000525038
0.000531208
0.000512231
0.000513968
0.000329084
0.000776172
0.000760994
0.000780236
0.000809453
0.000834355
0.000854859
0.000869877
0.000879946
0.00088596
0.00088824
0.000887713
0.000885285
0.000881331
0.000876502
0.000874793
0.000870391
0.000865518
0.000858959
0.000850257
0.000825358
0.000802261
0.000692902
0.000564961
0.000480615
0.000607036
2.96133e-07
9.50654e-19
4.72282e-21
1.18396e-25
4.58873e-26
2.80645e-26
2.36406e-26
2.41163e-26
2.69868e-26
3.13164e-26
3.79193e-26
5.13453e-26
8.14225e-26
1.0216e-25
0.00105392
0.000722973
0.000278033
5.07394e-06
8.66626e-05
8.73013e-05
8.82965e-05
8.78009e-05
8.72807e-05
8.68755e-05
8.57461e-05
8.49374e-05
8.49765e-05
8.53126e-05
8.61917e-05
8.76401e-05
8.9347e-05
9.1446e-05
1.25134e-06
2.77518e-06
3.7826e-06
4.37211e-06
4.67982e-06
5.05229e-06
5.7105e-06
6.54092e-06
7.55332e-06
8.73661e-06
1.01346e-05
1.17835e-05
1.30155e-05
1.40196e-05
3.02839e-05
6.34246e-05
0.00010842
0.000167641
0.000234961
0.000309844
0.000301495
0.000984669
0.000912597
0.000912597
0.000912554
0.000908919
0.000906799
0.000907052
0.000907603
0.000908622
0.00091033
0.000912905
0.000916843
0.000922345
0.000929936
0.00093792
0.000945879
0.000954309
0.000961722
0.000969267
0.000979327
0.000984277
0.000954805
0.000874191
0.000751068
0.000747952
1.7619e-06
8.71851e-17
3.73616e-19
2.30152e-25
7.63363e-26
4.04973e-26
3.00993e-26
2.77976e-26
2.89785e-26
3.21535e-26
3.71538e-26
5.92935e-26
6.92555e-25
1.20224e-23
0.000545744
7.23043e-05
4.88858e-05
1.72798e-05
2.03929e-05
2.26841e-05
2.38432e-05
2.40332e-05
2.39629e-05
2.38612e-05
2.34151e-05
2.29355e-05
2.26607e-05
2.24419e-05
2.23828e-05
2.2507e-05
2.27495e-05
2.31107e-05
2.37786e-05
2.45766e-05
2.53437e-05
2.60886e-05
2.68108e-05
2.75081e-05
2.8136e-05
2.87183e-05
2.92992e-05
2.9876e-05
3.04717e-05
3.11038e-05
3.15915e-05
3.18537e-05
3.41507e-05
3.88255e-05
4.79335e-05
5.4801e-05
6.38063e-05
6.86307e-05
0.000152385
0.000302173
0.000323749
0.00027146
0.000265111
0.000265773
0.000266955
0.000268737
0.000271376
0.000275437
0.000281273
0.000289055
0.000298935
0.00031083
0.000324314
0.000337596
0.000352586
0.000371336
0.000391125
0.000410008
0.000445336
0.000519675
0.000595476
0.00064651
0.000650832
0.000675706
7.09623e-06
1.11805e-15
4.17454e-18
4.70132e-25
1.34651e-25
6.25056e-26
4.1308e-26
3.47032e-26
3.3736e-26
3.57046e-26
4.01242e-26
4.59471e-24
7.77427e-19
3.97416e-17
0.000108565
2.66153e-05
7.59328e-05
0.000119342
0.00014396
0.000155533
0.000162043
0.00016567
0.000167798
0.000169147
0.000169697
0.000169592
0.000169231
0.000168696
0.000168005
0.000167248
0.000166461
0.000165626
0.000164774
0.000163896
0.00016299
0.000162063
0.000161114
0.000160173
0.000159206
0.000158113
0.000156889
0.000155536
0.000154133
0.00015274
0.000151151
0.000148776
0.000139323
0.000122208
0.000113034
7.5634e-05
2.97766e-05
4.22813e-05
9.87111e-05
4.05749e-05
4.41422e-05
3.95623e-05
3.73033e-05
3.79291e-05
3.86997e-05
3.85135e-05
3.90149e-05
3.97761e-05
4.0641e-05
4.21631e-05
4.40775e-05
4.64127e-05
4.92513e-05
5.22059e-05
5.56324e-05
5.9861e-05
6.44818e-05
6.9151e-05
7.68376e-05
9.74664e-05
7.04325e-05
0.000173126
0.000274809
0.000366503
1.73861e-05
8.65374e-15
2.83783e-17
1.00787e-24
2.51168e-25
1.02763e-25
6.07801e-26
4.66428e-26
4.23413e-26
4.26943e-26
1.11313e-25
2.0544e-19
4.331e-17
1.67685e-16
4.54507e-05
0.000134611
0.000454949
0.00054012
0.000557923
0.000565976
0.00057068
0.000573577
0.00057538
0.000576556
0.000577237
0.000577418
0.000577307
0.000576903
0.000576116
0.000574983
0.000573508
0.000571654
0.000569419
0.000566768
0.000563726
0.000560316
0.000556518
0.00055241
0.000548086
0.000543417
0.000538417
0.000533108
0.000527712
0.000522412
0.000516819
0.000511411
0.00050051
0.000478467
0.000444927
0.000393682
0.000339027
0.000254882
0.000193897
7.40937e-05
4.81962e-05
5.58985e-05
5.49986e-05
5.68159e-05
5.8337e-05
5.77667e-05
5.77459e-05
5.76474e-05
5.71738e-05
5.71781e-05
5.72323e-05
5.73752e-05
5.83406e-05
5.91126e-05
5.98946e-05
6.07031e-05
6.15182e-05
6.23035e-05
6.30251e-05
6.14603e-05
6.86599e-05
8.37845e-05
2.46987e-05
9.441e-05
2.78061e-05
5.09444e-14
1.47712e-16
2.26631e-24
4.94599e-25
1.79409e-25
9.54712e-26
6.71444e-26
5.6979e-26
5.46994e-26
9.33658e-26
2.88765e-20
3.51371e-17
2.70547e-17
0.000232844
0.000568902
0.000519968
0.000472797
0.000468769
0.000465897
0.000463673
0.000462436
0.00046177
0.000461485
0.000461775
0.000462395
0.000463059
0.000463693
0.000464161
0.000464363
0.00046426
0.000463822
0.000462993
0.000461725
0.000460008
0.000457859
0.000455235
0.000452213
0.000448991
0.000445554
0.000441893
0.00043803
0.000434111
0.000430319
0.000426509
0.000424092
0.000425498
0.000427496
0.00042538
0.000417183
0.000397065
0.000344956
0.000273389
0.00035816
0.000366417
0.000397376
0.000406421
0.000414665
0.000419847
0.000422343
0.000422985
0.000422844
0.000422181
0.000420994
0.000419493
0.000417628
0.000419694
0.000419625
0.000418616
0.000417254
0.000415537
0.000413453
0.000410946
0.000394063
0.000354703
0.000314577
0.000259454
0.000194317
7.41175e-05
5.4209e-13
1.39755e-15
5.34426e-24
1.02691e-24
3.31828e-25
1.59532e-25
1.03066e-25
8.17944e-26
7.46345e-26
1.00829e-25
6.47719e-21
1.95581e-19
1.03739e-16
0.000594178
0.000426416
0.000183671
0.000108339
9.92104e-05
9.51103e-05
9.18466e-05
8.92271e-05
8.73116e-05
8.60703e-05
8.53934e-05
8.5156e-05
8.52234e-05
8.5517e-05
8.5947e-05
8.64628e-05
8.70289e-05
8.76191e-05
8.81971e-05
8.87429e-05
8.92424e-05
8.9691e-05
9.00973e-05
9.05036e-05
9.09351e-05
9.13357e-05
9.16919e-05
9.19974e-05
9.22765e-05
9.25647e-05
9.27184e-05
9.29729e-05
9.91615e-05
0.000117554
0.000144433
0.000183744
0.000227088
0.000250981
0.000235483
0.000581627
0.000541018
0.000549363
0.000553214
0.000550961
0.000546751
0.000542821
0.000539344
0.000536771
0.000535045
0.000533761
0.000532892
0.000532465
0.000532192
0.000531871
0.000531894
0.000532576
0.000533389
0.000533983
0.000536318
0.000537106
0.000527949
0.000500539
0.000448433
0.000368934
0.00020544
7.14291e-12
1.64501e-14
1.32141e-23
2.24605e-24
6.48931e-25
2.82744e-25
1.68045e-25
1.24678e-25
1.07903e-25
1.22507e-25
1.90099e-21
2.2317e-15
1.68848e-16
0.000377917
6.16917e-05
3.46831e-05
1.63834e-05
1.53056e-05
1.50718e-05
1.46536e-05
1.40027e-05
1.34522e-05
1.30562e-05
1.26021e-05
1.22327e-05
1.20331e-05
1.19023e-05
1.18879e-05
1.20174e-05
1.22353e-05
1.25547e-05
1.29584e-05
1.34333e-05
1.39587e-05
1.4531e-05
1.5142e-05
1.57381e-05
1.62615e-05
1.67411e-05
1.7213e-05
1.76737e-05
1.81243e-05
1.8568e-05
1.89764e-05
1.93945e-05
2.1066e-05
2.5406e-05
3.17251e-05
4.1953e-05
2.63599e-05
9.13811e-05
0.000138208
0.000260609
0.000256063
0.000228047
0.000211776
0.000198928
0.000189364
0.000183323
0.00017998
0.000178696
0.000179001
0.000180431
0.000182778
0.000185895
0.000189649
0.000193944
0.000198909
0.000204647
0.000210983
0.000217893
0.000226187
0.000243966
0.000276721
0.000308782
0.000331504
0.000324613
0.000298216
7.3174e-11
1.51118e-13
3.42493e-23
5.16965e-24
1.33941e-24
5.30088e-25
2.90017e-25
2.00987e-25
1.64543e-25
1.65665e-25
6.927e-22
3.02722e-17
6.08453e-17
1.81904e-06
9.4409e-06
2.55737e-05
2.93362e-05
3.08724e-05
3.24462e-05
3.33525e-05
3.32644e-05
3.28811e-05
3.24354e-05
3.14848e-05
3.04796e-05
2.97696e-05
2.91177e-05
2.87e-05
2.86177e-05
2.87257e-05
2.90719e-05
2.96323e-05
3.03525e-05
3.11984e-05
3.21511e-05
3.32009e-05
3.41774e-05
3.49161e-05
3.55232e-05
3.61016e-05
3.66489e-05
3.7163e-05
3.76478e-05
3.81112e-05
3.85397e-05
3.89627e-05
3.76884e-05
3.41484e-05
2.8643e-05
2.88815e-05
3.79703e-05
4.62686e-05
3.60096e-05
3.59066e-05
3.41801e-05
3.05169e-05
2.90111e-05
2.80048e-05
2.66673e-05
2.61199e-05
2.58648e-05
2.56832e-05
2.59047e-05
2.63021e-05
2.68708e-05
2.76891e-05
2.86631e-05
2.98338e-05
3.1207e-05
3.27521e-05
3.44566e-05
3.64428e-05
4.00308e-05
4.96094e-05
3.90737e-05
9.49874e-05
0.000139321
0.000228053
5.7246e-10
1.06409e-12
9.30246e-23
1.25101e-23
2.9127e-24
1.04859e-24
5.28119e-25
3.41355e-25
2.63543e-25
2.41839e-25
2.95678e-22
8.83788e-18
1.29058e-16
1.2655e-05
5.60609e-06
0.000175277
0.000200608
0.000207219
0.000212232
0.000217045
0.00022071
0.000223001
0.000224328
0.000225065
0.000225385
0.000225457
0.000225401
0.000225218
0.000224922
0.000224534
0.000224041
0.000223432
0.000222696
0.000221839
0.000220876
0.000219808
0.000218656
0.000217479
0.000216234
0.000214883
0.000213455
0.000211955
0.000210418
0.000208911
0.000207402
0.00020605
0.000196017
0.000174803
0.000144403
0.000114191
7.67555e-05
6.72665e-05
3.04248e-05
1.90199e-05
2.14586e-05
2.12765e-05
2.18947e-05
2.23561e-05
2.1935e-05
2.17107e-05
2.14241e-05
2.09737e-05
2.07133e-05
2.04856e-05
2.0307e-05
2.02543e-05
2.02379e-05
2.02926e-05
2.04112e-05
2.05742e-05
2.07609e-05
2.09849e-05
2.11401e-05
1.95653e-05
2.29132e-05
2.94111e-05
3.76441e-05
6.75035e-05
2.60007e-09
4.36178e-12
2.64656e-22
3.17905e-23
6.66326e-24
2.18368e-24
1.01183e-24
6.08598e-25
4.41663e-25
3.74898e-25
1.42972e-22
8.15154e-19
2.21898e-17
8.95466e-05
0.000281734
0.000329768
0.000330235
0.000332675
0.000332694
0.000333469
0.000334695
0.000335381
0.000335497
0.000335398
0.000335228
0.000335045
0.000334908
0.000334781
0.000334614
0.0003344
0.000334103
0.000333682
0.000333105
0.000332373
0.000331503
0.000330474
0.000329275
0.000327987
0.000326575
0.000324975
0.000323213
0.000321297
0.000319258
0.000317212
0.000315258
0.000314603
0.000310627
0.000299356
0.000280776
0.000248951
0.000192912
0.000146511
0.00015186
0.000140353
0.000148132
0.000153199
0.00015602
0.000157241
0.000157129
0.000156095
0.000154694
0.000153165
0.00015159
0.000150102
0.000148726
0.00014742
0.000146148
0.000144959
0.000143944
0.000143032
0.000142195
0.000141541
0.000140537
0.000128401
0.000106253
8.55225e-05
5.03681e-05
7.20338e-05
3.4841e-08
5.9755e-11
7.88518e-22
8.47653e-23
1.60161e-23
4.77691e-24
2.03462e-24
1.13588e-24
7.72194e-25
6.0991e-25
7.65591e-23
1.42433e-19
3.72511e-18
0.000344891
0.000311359
0.000178932
0.00016031
0.000157859
0.000154256
0.000151176
0.000149606
0.000148591
0.000147644
0.000146868
0.00014633
0.000145986
0.000145813
0.000145753
0.000145747
0.000145771
0.000145788
0.000145769
0.000145688
0.000145551
0.000145369
0.000145131
0.000144844
0.000144564
0.00014425
0.000143875
0.000143473
0.000143015
0.000142492
0.000141981
0.00014141
0.000142055
0.000149076
0.000160764
0.000174749
0.000184359
0.000179702
0.000157477
0.000347866
0.000322526
0.000325673
0.000324483
0.000320703
0.00031629
0.00031325
0.000311057
0.000309471
0.000308333
0.000307427
0.000306755
0.000306298
0.000305912
0.000305492
0.000305107
0.000304868
0.000304569
0.000304004
0.000303457
0.000302509
0.000290076
0.000274325
0.000252807
0.000218895
0.000191125
6.48798e-07
1.42073e-10
5.15265e-13
2.37079e-22
4.04005e-23
1.09642e-23
4.28537e-24
2.21417e-24
1.40507e-24
1.03394e-24
4.49067e-23
3.01813e-20
7.52404e-19
0.000266663
0.000101946
3.88512e-05
2.48491e-05
2.48893e-05
2.49172e-05
2.45157e-05
2.3772e-05
2.30695e-05
2.24419e-05
2.15328e-05
2.06536e-05
2.00223e-05
1.94475e-05
1.90587e-05
1.89243e-05
1.89453e-05
1.91636e-05
1.95565e-05
2.0096e-05
2.07554e-05
2.15321e-05
2.24127e-05
2.32551e-05
2.39171e-05
2.44849e-05
2.50494e-05
2.56097e-05
2.61582e-05
2.66816e-05
2.71915e-05
2.76772e-05
2.83929e-05
3.03973e-05
3.43037e-05
1.81487e-05
5.24466e-05
8.90574e-05
0.000105827
0.000202647
0.000196375
0.000181608
0.000175575
0.000172847
0.000170958
0.000168892
0.000166706
0.000164717
0.000163312
0.000162482
0.000162169
0.000162309
0.000162771
0.000163459
0.000164379
0.000165574
0.000166907
0.000168298
0.000169743
0.000173034
0.000182347
0.000193512
0.000199275
0.0002002
0.000195171
4.64069e-06
3.03491e-09
1.00795e-11
6.94873e-22
1.06899e-22
2.63685e-23
9.44309e-24
4.50309e-24
2.65651e-24
1.81959e-24
2.9036e-23
7.39241e-21
2.77658e-17
3.99716e-05
1.89048e-05
2.73412e-06
5.03516e-06
5.86213e-06
6.79365e-06
7.47816e-06
7.75862e-06
7.86476e-06
7.90263e-06
7.74521e-06
7.51885e-06
7.3403e-06
7.14774e-06
7.00141e-06
6.94498e-06
6.94066e-06
7.01385e-06
7.15732e-06
7.36801e-06
7.63192e-06
7.95273e-06
8.32651e-06
8.69414e-06
8.97948e-06
9.21796e-06
9.44914e-06
9.6737e-06
9.89108e-06
1.00972e-05
1.0294e-05
1.04755e-05
1.0589e-05
1.00926e-05
8.69996e-06
1.12686e-05
1.52456e-05
2.21325e-05
3.61021e-05
2.89967e-05
3.08941e-06
2.81381e-05
2.5757e-05
2.55972e-05
2.56198e-05
2.48121e-05
2.43697e-05
2.39472e-05
2.34363e-05
2.32357e-05
2.31255e-05
2.31182e-05
2.32937e-05
2.35402e-05
2.39049e-05
2.43622e-05
2.489e-05
2.54574e-05
2.60552e-05
2.72565e-05
3.29553e-06
2.33992e-05
4.89096e-05
7.75354e-05
0.000101317
1.51027e-05
3.29817e-08
1.01579e-10
2.13247e-21
2.96407e-22
6.64247e-23
2.17534e-23
9.54509e-24
5.21668e-24
3.318e-24
2.13471e-23
2.12909e-21
2.23022e-18
6.05418e-06
1.68673e-05
1.82203e-05
3.35241e-05
3.8381e-05
4.3445e-05
4.77063e-05
5.0644e-05
5.27011e-05
5.42727e-05
5.53955e-05
5.61578e-05
5.67351e-05
5.71679e-05
5.74861e-05
5.77521e-05
5.79863e-05
5.82046e-05
5.84171e-05
5.8636e-05
5.88557e-05
5.90842e-05
5.93345e-05
5.95925e-05
5.98172e-05
5.99663e-05
6.00396e-05
6.0053e-05
6.00117e-05
5.99102e-05
5.97708e-05
5.95587e-05
5.89908e-05
5.51398e-05
4.66398e-05
3.92823e-05
2.09513e-05
6.62429e-06
2.40437e-05
6.65699e-06
5.14013e-06
4.55729e-06
3.72254e-06
3.26323e-06
3.01936e-06
3.00607e-06
3.12192e-06
3.22278e-06
3.24508e-06
3.25629e-06
3.24257e-06
3.21436e-06
3.19508e-06
3.17674e-06
3.16816e-06
3.16944e-06
3.17907e-06
3.19567e-06
3.21862e-06
3.22555e-06
3.48824e-06
5.77903e-06
9.20715e-06
1.26837e-05
2.12234e-06
1.67954e-05
1.75512e-07
2.44745e-11
1.36637e-13
8.6042e-22
1.75037e-22
5.23564e-23
2.10806e-23
1.06365e-23
6.26578e-24
1.88137e-23
7.59671e-22
3.5036e-19
3.31542e-06
0.000110555
0.000163146
0.000167443
0.00017028
0.000173417
0.000176289
0.000178373
0.000179802
0.000180897
0.000181793
0.000182483
0.000183057
0.000183529
0.000183885
0.000184178
0.00018443
0.000184638
0.000184819
0.000184968
0.000185088
0.000185177
0.000185249
0.000185283
0.000185234
0.000185057
0.000184744
0.000184335
0.00018384
0.000183227
0.000182532
0.000181747
0.000180999
0.000178311
0.000170419
0.000156433
0.000133088
0.000105457
8.19879e-05
4.59287e-05
3.38645e-05
3.07821e-05
2.6291e-05
2.28622e-05
2.09394e-05
2.13233e-05
2.23141e-05
2.32239e-05
2.37658e-05
2.4001e-05
2.40329e-05
2.3919e-05
2.37243e-05
2.35018e-05
2.32765e-05
2.30798e-05
2.29127e-05
2.27767e-05
2.26771e-05
2.24827e-05
2.05543e-05
1.43691e-05
9.91176e-06
1.90748e-07
1.51205e-05
4.13833e-06
6.33484e-07
1.47495e-09
9.30783e-12
2.61096e-21
4.82058e-22
1.31481e-22
4.84952e-23
2.25167e-23
1.22516e-23
2.05773e-23
3.50467e-22
7.45924e-20
0.000175761
0.000200159
0.000155789
0.000149939
0.00014794
0.000145454
0.000143205
0.00014142
0.000139988
0.000138889
0.000138226
0.000137846
0.000137613
0.000137485
0.000137421
0.000137367
0.000137321
0.000137266
0.0001372
0.0001371
0.000136967
0.000136795
0.000136577
0.000136291
0.000135968
0.000135616
0.000135227
0.000134802
0.000134354
0.000133858
0.00013333
0.00013277
0.000132701
0.00013467
0.00013786
0.000138767
0.000137402
0.000126534
0.000103684
0.000192412
0.000169124
0.000162923
0.00015955
0.00015719
0.000155776
0.000156092
0.000156888
0.000157393
0.000157542
0.000157433
0.000157202
0.000156905
0.000156584
0.000156281
0.000156053
0.000155946
0.000155881
0.000155753
0.0001556
0.000155558
0.000154656
0.000147027
0.000133667
0.000115754
9.59406e-05
7.3831e-05
7.55863e-06
5.03692e-08
3.54049e-11
2.93681e-13
1.38531e-21
3.44138e-22
1.16037e-22
4.94662e-23
2.47952e-23
2.73976e-23
2.09741e-22
2.08291e-20
0.000196193
9.7829e-05
4.45363e-05
3.49809e-05
3.26904e-05
3.00585e-05
2.73001e-05
2.49351e-05
2.30535e-05
2.15711e-05
2.04091e-05
1.95103e-05
1.87925e-05
1.82112e-05
1.77396e-05
1.73425e-05
1.69949e-05
1.67011e-05
1.64419e-05
1.62181e-05
1.60347e-05
1.59013e-05
1.5821e-05
1.57923e-05
1.58052e-05
1.58581e-05
1.59417e-05
1.60372e-05
1.61438e-05
1.62571e-05
1.63667e-05
1.63757e-05
1.6386e-05
1.88232e-05
2.68512e-05
4.03146e-05
5.76265e-05
7.16567e-05
7.48679e-05
0.000161572
0.000156844
0.000153747
0.000152011
0.000151069
0.000150214
0.000150331
0.000151046
0.000151325
0.000151365
0.000151287
0.00015121
0.000151191
0.000151218
0.00015129
0.000151454
0.000151733
0.000152051
0.000152298
0.000152499
0.000152888
0.000154993
0.000156459
0.000153675
0.000148513
0.000139904
0.000120062
3.73596e-05
6.90439e-07
1.82597e-09
1.41287e-11
4.14328e-21
9.36802e-22
2.88424e-22
1.1263e-22
5.18932e-23
4.24122e-23
1.60719e-22
7.50927e-21
4.35085e-05
1.89096e-05
7.07612e-06
5.56009e-06
5.28215e-06
4.97225e-06
4.52734e-06
4.04124e-06
3.63737e-06
3.3166e-06
3.00456e-06
2.73696e-06
2.53257e-06
2.3531e-06
2.21287e-06
2.11793e-06
2.04892e-06
2.01374e-06
2.00743e-06
2.02747e-06
2.06987e-06
2.13722e-06
2.22885e-06
2.32469e-06
2.39956e-06
2.46786e-06
2.54409e-06
2.62469e-06
2.7095e-06
2.79724e-06
2.88614e-06
2.95835e-06
3.031e-06
3.56374e-06
5.20103e-06
7.98657e-06
1.21726e-05
9.48993e-06
2.99284e-05
2.64665e-05
4.21973e-05
3.99223e-05
3.95105e-05
3.96605e-05
3.96279e-05
3.90887e-05
3.90247e-05
3.90982e-05
3.90508e-05
3.89976e-05
3.90403e-05
3.9185e-05
3.94095e-05
3.9687e-05
4.00268e-05
4.04425e-05
4.09178e-05
4.14357e-05
4.19913e-05
4.24629e-05
4.50592e-05
5.34276e-05
6.25264e-05
7.40546e-05
8.47332e-05
8.99594e-05
6.63369e-05
3.9075e-06
2.9798e-08
4.19781e-13
4.71916e-15
2.6461e-21
7.43117e-22
2.65375e-22
1.12188e-22
7.31867e-23
1.55477e-22
3.46584e-21
9.15316e-06
4.66422e-06
7.80122e-06
9.37626e-06
9.95257e-06
1.04616e-05
1.07559e-05
1.0714e-05
1.0566e-05
1.03903e-05
1.00069e-05
9.56517e-06
9.19941e-06
8.81457e-06
8.49306e-06
8.29291e-06
8.1656e-06
8.14483e-06
8.23283e-06
8.4216e-06
8.69622e-06