/*--------------------------------*- C++ -*----------------------------------*\
| =========                 |                                                 |
| \\      /  F ield         | OpenFOAM: The Open Source CFD Toolbox           |
|  \\    /   O peration     | Version:  2312                                  |
|   \\  /    A nd           | Website:  www.openfoam.com                      |
|    \\/     M anipulation  |                                                 |
\*---------------------------------------------------------------------------*/
FoamFile
{
    version     2.0;
    format      ascii;
    arch        "LSB;label=32;scalar=64";
    class       surfaceScalarField;
    location    "400";
    object      phi;
}
// * * * * * * * * * * * * * * * * * * * * * * * * * * * * * * * * * * * * * //

dimensions      [0 3 -1 0 0 0 0];

oriented        oriented;

internalField   nonuniform List<scalar> 
21254
(
-0.201399
0.221564
-0.0201653
0.24401
-0.0224482
0.263959
-0.0199512
0.282116
-0.0181557
0.299459
-0.0173428
0.313844
-0.0143864
0.325644
-0.0118014
0.335527
-0.00988396
0.342581
-0.00705455
0.347721
-0.00514269
0.351114
-0.00339521
0.352603
-0.00149178
0.352433
0.000164852
0.350137
0.00228734
0.34532
0.00480379
0.338067
0.00723585
0.328018
0.0100284
0.315194
0.0127985
0.299661
0.0155041
0.282424
0.0171999
0.264902
0.0174729
0.251225
0.0136121
0.246113
0.00505151
0.253615
-0.00747956
0.269024
-0.0152589
0.282826
-0.013676
0.287643
-0.00489428
0.284313
0.00324939
0.278435
0.00597609
0.269888
0.00861682
0.256161
0.0136266
0.233567
0.0222483
0.194029
0.0398771
0.125967
0.0686041
0.0374425
0.0882745
-0.0421113
0.0779262
-0.0857719
0.0443117
0.0724752
-0.157225
0.0610912
0.0111912
-0.178243
-0.0231594
-0.154067
-0.0241784
-0.124898
-0.0291654
-0.0932959
-0.0315978
-0.0603089
-0.0329842
-0.0266933
-0.033613
0.00573273
-0.0324226
0.036014
-0.0302726
0.0635899
-0.0275716
0.0876426
-0.0240493
0.108006
-0.02036
0.125018
-0.0170076
0.139112
-0.0140903
0.150727
-0.0116093
0.16061
-0.00987692
0.169049
-0.00843188
0.176516
-0.00745765
0.183221
-0.0066932
0.189473
-0.00623646
0.195369
-0.0058768
0.201069
-0.00567531
0.206548
-0.00545105
0.211706
-0.00512978
0.21583
-0.00410302
0.218706
-0.00287247
0.220639
-0.00194883
0.221614
-0.000992759
0.221404
0.000226817
0.219587
0.00186475
0.216107
0.00348984
0.210868
0.0052111
0.203889
0.00699874
0.194981
0.00890872
0.18393
0.011041
0.170372
0.0135519
0.153717
0.0166465
0.136494
0.0173254
0.148434
-0.012056
0.175168
-0.0267042
-0.183596
0.204979
-0.0415486
0.226957
-0.0444302
0.250073
-0.043073
0.271789
-0.0398809
0.293116
-0.0386784
0.313123
-0.0344017
0.331363
-0.0300508
0.348096
-0.0266257
0.362953
-0.021921
0.375992
-0.0181901
0.387279
-0.0146912
0.396873
-0.0110964
0.405189
-0.00816612
0.412776
-0.00531963
0.419743
-0.00219068
0.425744
0.0012018
0.430568
0.00516238
0.434021
0.00929328
0.435163
0.0142943
0.433564
0.0187148
0.427985
0.0229654
0.41743
0.0241472
0.400387
0.022211
0.375784
0.017274
0.349044
0.0115046
0.328815
0.00655388
0.316423
0.0075228
0.307575
0.0120763
0.299177
0.0143825
0.290694
0.0169516
0.282631
0.0218366
0.275869
0.029171
0.269742
0.0460818
0.24584
0.0917995
0.170169
0.163746
0.0862602
0.16248
0.0676037
0.0639478
0.0623038
-0.152321
0.0351784
0.0383
-0.161846
-0.0449139
-0.138554
-0.0474732
-0.111326
-0.0563969
-0.0826173
-0.0603072
-0.0522008
-0.0633984
-0.0204621
-0.0653455
0.0112815
-0.0641516
0.0408633
-0.0598396
0.067441
-0.0541382
0.0910181
-0.0476166
0.111452
-0.0407857
0.129121
-0.0346691
0.144405
-0.0293675
0.157523
-0.0247186
0.168959
-0.0213032
0.179009
-0.0184699
0.187971
-0.0164014
0.196152
-0.0148507
0.203795
-0.0138484
0.211016
-0.0130607
0.217978
-0.0125971
0.224712
-0.0121477
0.231113
-0.0115088
0.236708
-0.00969923
0.241231
-0.00741437
0.244952
-0.00567617
0.247901
-0.0039208
0.250409
-0.00225869
0.252838
-0.00054521
0.25521
0.00114001
0.257386
0.00300037
0.25935
0.005042
0.260838
0.00741912
0.261556
0.0103051
0.261228
0.0139645
0.258439
0.0193219
0.255726
0.0202086
0.238709
0.00488577
0.216426
-0.00438154
-0.178454
0.200255
-0.063351
0.222328
-0.0665048
0.246235
-0.0669807
0.268207
-0.0618571
0.289261
-0.0597351
0.309519
-0.0546628
0.327696
-0.0482311
0.344167
-0.0431006
0.358497
-0.0362553
0.370898
-0.0305971
0.381384
-0.0251838
0.390102
-0.0198242
0.396811
-0.0148889
0.401911
-0.0104398
0.405134
-0.00544025
0.407226
-0.000922154
0.408228
0.00412202
0.408845
0.00863197
0.40912
0.0139658
0.409232
0.018536
0.408971
0.0231549
0.407432
0.0256529
0.403602
0.0261024
0.39626
0.0247293
0.384815
0.0229968
0.36789
0.0235089
0.349529
0.0258635
0.334414
0.027121
0.321499
0.0273791
0.309745
0.0286518
0.299162
0.0324849
0.288306
0.0400815
0.280783
0.0537228
0.277069
0.0953078
0.250776
0.189963
0.207314
0.205834
0.17058
0.100607
0.0892365
-0.0708903
0.0167522
0.110718
-0.156583
-0.0667867
-0.132794
-0.0712595
-0.104442
-0.0847486
-0.075067
-0.0896813
-0.0444804
-0.0939827
-0.0128376
-0.0969832
0.0183016
-0.0952872
0.0471208
-0.0886541
0.0733576
-0.08037
0.0969502
-0.0712043
0.117598
-0.0614279
0.135541
-0.0526064
0.151158
-0.0449768
0.164725
-0.038277
0.176568
-0.0331349
0.187047
-0.0289351
0.196432
-0.0257675
0.204997
-0.0233914
0.212951
-0.0217704
0.220446
-0.0205174
0.227665
-0.0197732
0.234616
-0.0190592
0.241184
-0.0180527
0.247037
-0.0155513
0.251879
-0.0122725
0.255855
-0.00965525
0.259034
-0.00707417
0.261435
-0.00463366
0.263147
-0.00223509
0.264227
8.44578e-05
0.264773
0.00242024
0.264982
0.0048429
0.265
0.0074016
0.264942
0.0103455
0.265219
0.0137475
0.265463
0.0190026
0.26562
0.0201921
0.253747
0.0166937
0.235248
0.0141594
-0.172291
0.194948
-0.0860134
0.217783
-0.0893444
0.242963
-0.0921678
0.266014
-0.0849148
0.288472
-0.0821998
0.310118
-0.0763161
0.330081
-0.0682023
0.348236
-0.0612631
0.364761
-0.0527863
0.379429
-0.0452713
0.39236
-0.0381223
0.403551
-0.0310241
0.413017
-0.0243683
0.420808
-0.0182508
0.42726
-0.0119182
0.432116
-0.00580952
0.435386
0.000814313
0.436769
0.00720332
0.436481
0.0141978
0.43439
0.0205573
0.43064
0.0268309
0.425408
0.0308533
0.41875
0.0328364
0.411283
0.0323294
0.403561
0.0307672
0.394676
0.0324183
0.382957
0.0375538
0.368976
0.040967
0.354485
0.0420332
0.33937
0.0437495
0.324327
0.0475275
0.309106
0.0552422
0.29439
0.0685997
0.28636
0.103252
0.281459
0.194784
0.26656
0.220648
0.228042
0.13903
0.104323
0.0526141
0.00274011
0.212331
-0.149914
-0.0891687
-0.12601
-0.095166
-0.0970567
-0.113702
-0.0674218
-0.119314
-0.0366297
-0.124772
-0.00471277
-0.128894
0.0264435
-0.126436
0.0550733
-0.117277
0.0810587
-0.106349
0.104449
-0.094588
0.124951
-0.0819237
0.142877
-0.0705259
0.158658
-0.0607511
0.172541
-0.0521529
0.184861
-0.0454467
0.195847
-0.0399084
0.205814
-0.0357184
0.21494
-0.0324954
0.223463
-0.0302658
0.231516
-0.0285362
0.239207
-0.0274233
0.246592
-0.0264045
0.25359
-0.0250246
0.259852
-0.0218113
0.265136
-0.0175726
0.269537
-0.0140595
0.273117
-0.0106284
0.275904
-0.00739627
0.27794
-0.00425368
0.279294
-0.00124691
0.279936
0.00174045
0.279991
0.00479496
0.279443
0.00794905
0.278341
0.0114266
0.276852
0.0152983
0.274836
0.0209338
0.272326
0.0228461
0.262767
0.0261604
0.248636
0.0283191
-0.169186
0.192706
-0.109534
0.216442
-0.113087
0.243017
-0.118748
0.266828
-0.108731
0.290249
-0.105626
0.312911
-0.0989847
0.333671
-0.0889692
0.352673
-0.0802716
0.370171
-0.0702901
0.385539
-0.0606453
0.399144
-0.0517348
0.410916
-0.0428066
0.421099
-0.0345667
0.429377
-0.0265499
0.435925
-0.018494
0.440746
-0.0106644
0.443962
-0.00244204
0.445708
0.00540895
0.445795
0.014052
0.444459
0.0218195
0.441457
0.0297526
0.436721
0.0355553
0.430203
0.0394417
0.4224
0.0402861
0.414174
0.0390224
0.406204
0.0403655
0.398615
0.0451625
0.390145
0.0492754
0.380599
0.051747
0.369457
0.0547704
0.356825
0.0602061
0.34221
0.0698016
0.324843
0.0861334
0.307284
0.120768
0.297974
0.204056
0.291494
0.227116
0.2545
0.175842
0.111501
0.195372
-0.00396676
0.32795
-0.145774
-0.112587
-0.121147
-0.119794
-0.0909475
-0.143899
-0.060441
-0.149818
-0.0288822
-0.156328
0.00370579
-0.161478
0.0353387
-0.158065
0.0641588
-0.146093
0.0901392
-0.132325
0.113482
-0.117926
0.133904
-0.102341
0.151806
-0.0884226
0.167684
-0.0766229
0.181751
-0.0662136
0.19434
-0.0580266
0.205725
-0.0512802
0.216089
-0.0460654
0.225625
-0.0420095
0.23454
-0.0391514
0.242971
-0.0369326
0.251007
-0.0354191
0.25868
-0.0340391
0.265938
-0.0322574
0.272485
-0.0283565
0.278061
-0.023164
0.282733
-0.0187329
0.286553
-0.0144189
0.289543
-0.0103604
0.291735
-0.00642789
0.293177
-0.00266432
0.293871
0.00101019
0.293989
0.00468458
0.293504
0.00843481
0.292415
0.0124951
0.290847
0.0169337
0.288525
0.0231672
0.285051
0.0264673
0.27563
0.0354809
0.26222
0.0417347
-0.166747
0.191275
-0.134064
0.216274
-0.138093
0.244195
-0.146674
0.269147
-0.133688
0.293534
-0.13002
0.317468
-0.122927
0.339119
-0.110628
0.359287
-0.100447
0.377683
-0.0886925
0.394173
-0.0771413
0.408992
-0.0665607
0.421961
-0.0557857
0.433281
-0.0459018
0.442937
-0.0362278
0.450813
-0.0263973
0.45721
-0.017095
0.461823
-0.00709636
0.464705
0.00247843
0.465944
0.0127529
0.465296
0.0223912
0.462713
0.0322542
0.458261
0.0399758
0.451896
0.0459095
0.443988
0.0483718
0.435168
0.0478476
0.426226
0.0492273
0.41763
0.0538512
0.408714
0.0580701
0.399465
0.061126
0.389345
0.0647253
0.378533
0.0710993
0.366396
0.0819077
0.352415
0.100273
0.334607
0.138557
0.320108
0.218575
0.311227
0.236068
0.269889
0.216906
0.118787
0.346216
-0.00179153
0.448723
-0.142367
-0.136975
-0.116904
-0.145258
-0.0853677
-0.175434
-0.0536951
-0.18149
-0.021088
-0.188934
0.0124638
-0.195028
0.0448843
-0.190482
0.0741731
-0.175377
0.100371
-0.158517
0.123781
-0.14133
0.144185
-0.12274
0.162017
-0.106249
0.177876
-0.0924763
0.192031
-0.0803611
0.204788
-0.0707749
0.216416
-0.0628948
0.227084
-0.0567162
0.237003
-0.051907
0.246304
-0.0484245
0.255123
-0.0457177
0.263551
-0.0438089
0.271601
-0.0420527
0.279204
-0.0398378
0.286161
-0.0353152
0.292141
-0.0291624
0.297168
-0.0237631
0.301351
-0.0185733
0.304653
-0.0136377
0.307126
-0.00888538
0.308822
-0.00433701
0.309724
6.87971e-05
0.309974
0.00443896
0.309553
0.00885529
0.308515
0.013508
0.306901
0.018616
0.304484
0.0254888
0.300821
0.0302724
0.291364
0.0448571
0.276866
0.0562239
-0.165403
0.19124
-0.159903
0.217292
-0.164151
0.246759
-0.176147
0.27295
-0.159886
0.298546
-0.155625
0.323523
-0.147913
0.346273
-0.133387
0.367236
-0.121418
0.386591
-0.108055
0.403929
-0.0944854
0.419487
-0.0821263
0.433388
-0.0696982
0.445506
-0.0580371
0.455906
-0.0466517
0.464646
-0.0351677
0.471569
-0.024054
0.476828
-0.0124001
0.480306
-0.001051
0.482054
0.0109405
0.481983
0.0223832
0.480073
0.0340809
0.476281
0.0437363
0.47079
0.0515138
0.463682
0.0556712
0.455444
0.056079
0.446763
0.0578052
0.438095
0.0626192
0.428788
0.0672617
0.418989
0.0710476
0.408276
0.0752933
0.397084
0.0823616
0.385033
0.0939121
0.372751
0.112714
0.358301
0.153004
0.345092
0.231855
0.333977
0.24732
0.282349
0.268249
0.123836
0.504412
0.0201862
0.552744
-0.139818
-0.162566
-0.113247
-0.171829
-0.080237
-0.208444
-0.0472334
-0.214494
-0.0133895
-0.222776
0.0214349
-0.229849
0.0548944
-0.223936
0.0849167
-0.205394
0.111553
-0.185147
0.135216
-0.164988
0.155684
-0.143203
0.173499
-0.12406
0.189339
-0.108311
0.203511
-0.0945255
0.216348
-0.0836022
0.228134
-0.0746669
0.239059
-0.0676232
0.249268
-0.0620932
0.258903
-0.0580323
0.268064
-0.0548448
0.276826
-0.052532
0.285194
-0.0503844
0.293134
-0.0477556
0.300383
-0.0425673
0.306724
-0.0355236
0.31211
-0.0291514
0.316584
-0.0230156
0.320164
-0.0171916
0.322852
-0.0115591
0.32474
-0.00619993
0.325765
-0.000996129
0.326117
0.0040914
0.325782
0.00919085
0.324743
0.0145209
0.323162
0.0202695
0.320654
0.0278983
0.316914
0.0341503
0.308207
0.0534957
0.293363
0.0710814
-0.16466
0.191825
-0.187072
0.219285
-0.191617
0.250412
-0.20728
0.277789
-0.187272
0.30464
-0.182486
0.330825
-0.174108
0.35455
-0.157121
0.376647
-0.143524
0.396768
-0.128182
0.414964
-0.112689
0.431482
-0.0986536
0.44617
-0.0843998
0.459097
-0.0709839
0.470382
-0.0579631
0.479968
-0.0447855
0.48782
-0.0319456
0.493969
-0.0185955
0.498355
-0.00549217
0.500877
0.00835102
0.501494
0.0216829
0.500209
0.0352772
0.496948
0.0469675
0.491863
0.0567225
0.485207
0.062533
0.47724
0.0640301
0.468654
0.066267
0.459977
0.0714022
0.450523
0.0766038
0.440398
0.0812862
0.429216
0.0863513
0.417349
0.0942959
0.40447
0.106732
0.391479
0.125861
0.37834
0.166148
0.367407
0.2429
0.356751
0.258121
0.297332
0.327386
0.138379
0.663103
0.0609219
0.630443
-0.137837
-0.189393
-0.110098
-0.199569
-0.0753769
-0.243165
-0.0408471
-0.249023
-0.00555275
-0.258068
0.0306923
-0.266089
0.0654263
-0.258664
0.0963691
-0.23633
0.123619
-0.212392
0.147673
-0.189037
0.168316
-0.16384
0.186162
-0.141901
0.201989
-0.124132
0.216145
-0.108673
0.228997
-0.0964432
0.240902
-0.086558
0.251976
-0.0786784
0.262412
-0.0725052
0.272311
-0.0679033
0.281777
-0.0642766
0.290842
-0.0615579
0.299549
-0.0590546
0.307818
-0.0560038
0.315436
-0.0501894
0.322145
-0.0422533
0.327897
-0.0349054
0.332726
-0.0278108
0.336627
-0.021065
0.339593
-0.0145107
0.3417
-0.00828039
0.342931
-0.00226659
0.343418
0.00360875
0.343171
0.00944007
0.342175
0.0154895
0.340545
0.0219771
0.337917
0.0304258
0.333904
0.0382936
0.32623
0.0611036
0.312155
0.0852402
-0.164628
0.193166
-0.215614
0.222063
-0.220522
0.254879
-0.240105
0.283626
-0.216029
0.31191
-0.21078
0.339418
-0.201627
0.36432
-0.182032
0.387275
-0.166487
0.408443
-0.149357
0.427419
-0.131673
0.444591
-0.115836
0.460026
-0.0998498
0.473738
-0.084717
0.485749
-0.070003
0.496065
-0.0551358
0.50471
-0.0406319
0.511563
-0.0254976
0.51658
-0.0105683
0.519722
0.00513691
0.520922
0.0203956
0.520198
0.0359089
0.517537
0.0495979
0.513059
0.0613347
0.506957
0.0688555
0.499421
0.0715434
0.49105
0.0744953
0.482402
0.0801592
0.472896
0.0859997
0.462686
0.0916019
0.451296
0.0976392
0.439104
0.106552
0.425743
0.120023
0.41181
0.139942
0.398137
0.179823
0.387321
0.253862
0.377397
0.268154
0.321478
0.383014
0.187015
0.797477
0.131747
0.685407
-0.136335
-0.217693
-0.107247
-0.228659
-0.0707431
-0.279671
-0.0346211
-0.285144
0.00233487
-0.29502
0.0401973
-0.303946
0.076434
-0.294895
0.108477
-0.268367
0.136504
-0.240413
0.161095
-0.213623
0.182024
-0.184765
0.199988
-0.15986
0.215836
-0.139973
0.229975
-0.122804
0.242829
-0.109285
0.254753
-0.0984661
0.265949
-0.0898546
0.276539
-0.0830719
0.286648
-0.0779823
0.296371
-0.0739646
0.305749
-0.0708958
0.314738
-0.0680062
0.323319
-0.0645623
0.331284
-0.0581591
0.338375
-0.0493658
0.344471
-0.0410019
0.349647
-0.0329505
0.353837
-0.0252252
0.357088
-0.0177475
0.359432
-0.0105974
0.360836
-0.00370811
0.361466
0.00298244
0.361295
0.0096148
0.360339
0.016418
0.358714
0.0236841
0.356016
0.0330231
0.351729
0.0427019
0.344665
0.0680988
0.331477
0.098595
-0.164976
0.19511
-0.245752
0.225546
-0.250967
0.260236
-0.274803
0.290429
-0.246232
0.319995
-0.240355
0.348945
-0.230586
0.374987
-0.208082
0.39904
-0.190546
0.421151
-0.171475
0.440956
-0.151486
0.458926
-0.133817
0.475169
-0.116109
0.489528
-0.0990984
0.502195
-0.0826997
0.513298
-0.0662749
0.522584
-0.0499603
0.53014
-0.0331053
0.535837
-0.0163274
0.539696
0.00120158
0.541605
0.0183939
0.541422
0.0359963
0.539347
0.0516423
0.535431
0.0653946
0.529861
0.0746615
0.52269
0.0786863
0.51445
0.0825748
0.505838
0.0888838
0.496272
0.0954562
0.485882
0.102088
0.474324
0.10912
0.461881
0.119056
0.448242
0.13358
0.433769
0.154549
0.419396
0.19419
0.407441
0.26599
0.396286
0.279369
0.35355
0.42547
0.262157
0.888901
0.220939
0.725967
-0.135299
-0.247378
-0.104747
-0.259215
-0.0662777
-0.318141
-0.0282881
-0.323132
0.0103805
-0.333684
0.0500914
-0.343652
0.0879093
-0.332707
0.121226
-0.301679
0.150198
-0.269381
0.17548
-0.2389
0.196801
-0.206081
0.214946
-0.177999
0.230871
-0.15589
0.245003
-0.136926
0.257837
-0.122107
0.269776
-0.110389
0.281008
-0.101066
0.2917
-0.0937393
0.301992
-0.0882447
0.311927
-0.0838623
0.321517
-0.080445
0.330807
-0.077258
0.339703
-0.0734369
0.348002
-0.066463
0.355443
-0.056828
0.361924
-0.0474831
0.367433
-0.0384197
0.371965
-0.0297268
0.375494
-0.0212639
0.378088
-0.0131629
0.379717
-0.00537362
0.380486
0.0022155
0.380436
0.00966998
0.379535
0.0172895
0.377893
0.0254137
0.37509
0.035724
0.370645
0.0472584
0.363575
0.0750916
0.350237
0.112111
-0.165858
0.197566
-0.277465
0.22958
-0.282989
0.266189
-0.31142
0.298036
-0.278089
0.329194
-0.271523
0.359596
-0.260997
0.386772
-0.235266
0.412015
-0.215796
0.435124
-0.194591
0.455827
-0.172197
0.474545
-0.152546
0.49138
-0.132961
0.506475
-0.114217
0.519915
-0.0961695
0.531549
-0.0779465
0.541534
-0.0599896
0.549733
-0.0413566
0.556125
-0.0227848
0.560553
-0.00330547
0.563032
0.0158185
0.563466
0.0354628
0.561902
0.0531771
0.558549
0.0689021
0.553522
0.0799392
0.546778
0.0853994
0.538826
0.0903507
0.530293
0.0975333
0.520642
0.104998
0.510158
0.112657
0.498382
0.120843
0.485662
0.131835
0.471768
0.147382
0.456969
0.169464
0.442165
0.208976
0.429159
0.279188
0.414976
0.293575
0.386485
0.45373
0.339167
0.936365
0.306549
0.757967
-0.134518
-0.278725
-0.102447
-0.291289
-0.0618964
-0.358691
-0.0219614
-0.363064
0.0186768
-0.374318
0.0602863
-0.385257
0.0998968
-0.372313
0.13464
-0.336418
0.164711
-0.299448
0.190767
-0.264952
0.212608
-0.227917
0.231025
-0.196409
0.247087
-0.171944
0.261247
-0.151075
0.274066
-0.134913
0.28598
-0.122286
0.297228
-0.112294
0.307991
-0.104477
0.318372
-0.098596
0.328469
-0.093922
0.338306
-0.0902403
0.347846
-0.0867595
0.357012
-0.0825813
0.365649
-0.0751061
0.373444
-0.0646449
0.380279
-0.0543181
0.386158
-0.044256
0.391011
-0.0345473
0.39485
-0.025092
0.397701
-0.0159844
0.399523
-0.00723291
0.400481
0.00125896
0.400535
0.00962113
0.399697
0.018097
0.39805
0.0271549
0.395178
0.0384949
0.390581
0.0519541
0.38331
0.0822738
0.369826
0.125719
-0.167013
0.200508
-0.310966
0.234272
-0.31676
0.27291
-0.350067
0.306358
-0.311546
0.339113
-0.304287
0.371079
-0.292971
0.399725
-0.26392
0.426083
-0.242162
0.450237
-0.218752
0.47181
-0.193779
0.491379
-0.172127
0.509025
-0.150626
0.524693
-0.12991
0.538703
-0.110211
0.551042
-0.0903238
0.561645
-0.070639
0.57043
-0.0501965
0.577375
-0.0297969
0.582405
-0.00841833
0.585482
0.0126418
0.586507
0.0343363
0.585539
0.054117
0.582744
0.0718617
0.578231
0.0847172
0.571889
0.0917098
0.564191
0.0978599
0.555769
0.106075
0.546136
0.114522
0.535517
0.123349
0.523599
0.132735
0.510613
0.144877
0.496403
0.161494
0.481293
0.18467
0.466153
0.224086
0.452582
0.292958
0.434997
0.311158
0.416009
0.472583
0.402376
0.950219
0.376135
0.783838
-0.134028
-0.311718
-0.100233
-0.325085
-0.0575356
-0.401386
-0.0155047
-0.405092
0.027194
-0.417012
0.0708773
-0.428935
0.112452
-0.413884
0.148728
-0.37269
0.180011
-0.330727
0.207006
-0.291942
0.229464
-0.250368
0.248248
-0.215186
0.264483
-0.188169
0.278711
-0.165291
0.291527
-0.147715
0.303426
-0.134169
0.314649
-0.123497
0.325432
-0.115236
0.335903
-0.109037
0.346116
-0.104098
0.356116
-0.100198
0.365868
-0.0964731
0.375332
-0.0920244
0.384281
-0.0840623
0.392423
-0.0728102
0.399619
-0.0615122
0.405841
-0.0504344
0.411045
-0.0397172
0.415166
-0.0292028
0.418298
-0.0190885
0.420358
-0.00932788
0.42148
0.000136326
0.42168
0.00942646
0.420892
0.0188529
0.419265
0.0288833
0.416304
0.0413563
0.411573
0.0567762
0.404149
0.0895954
0.39064
0.139296
-0.1686
0.203817
-0.346188
0.239434
-0.352384
0.280221
-0.390861
0.315504
-0.346838
0.349996
-0.338788
0.383589
-0.326574
0.413635
-0.293976
0.441301
-0.269837
0.466496
-0.243957
0.489023
-0.216316
0.509395
-0.192514
0.527742
-0.168992
0.544173
-0.146368
0.558834
-0.124906
0.571734
-0.103264
0.582872
-0.0818244
0.592255
-0.0596361
0.599806
-0.0374178
0.605413
-0.0141109
0.608974
0.00897741
0.610543
0.0326634
0.610094
0.0545409
0.607834
0.0742944
0.603875
0.0889542
0.598033
0.0975231
0.590613
0.10508
0.582358
0.114453
0.572732
0.124041
0.562029
0.134109
0.54999
0.144775
0.536787
0.158135
0.522291
0.175886
0.506816
0.200217
0.491279
0.239585
0.477355
0.307074
0.457147
0.331345
0.442372
0.487344
0.449301
0.943527
0.428327
0.804712
-0.133713
-0.346609
-0.0982398
-0.360557
-0.0531801
-0.446443
-0.00894706
-0.44932
0.0360034
-0.461958
0.081967
-0.474894
0.12554
-0.457452
0.16354
-0.410685
0.196155
-0.363336
0.22419
-0.319971
0.247365
-0.273536
0.266597
-0.234409
0.283101
-0.204662
0.297451
-0.179629
0.310283
-0.160532
0.32216
-0.146029
0.333359
-0.134676
0.344136
-0.125988
0.35463
-0.119501
0.364936
-0.114365
0.375066
-0.110287
0.385023
-0.106392
0.394723
-0.101705
0.403983
-0.0933312
0.412452
-0.0813036
0.419997
-0.0690552
0.426573
-0.0569633
0.43209
-0.0451993
0.436536
-0.0336409
0.439946
-0.0224711
0.442254
-0.0116694
0.443579
-0.00119174
0.443911
0.0091009
0.44321
0.0195183
0.441588
0.0306135
0.438577
0.044271
0.433728
0.0617129
0.426106
0.0971024
0.41268
0.152753
-0.170402
0.207561
-0.38335
0.245135
-0.389963
0.28821
-0.433944
0.325372
-0.38401
0.361638
-0.375063
0.396974
-0.36192
0.428548
-0.325558
0.457512
-0.29881
0.483914
-0.270368
0.507412
-0.239827
0.528713
-0.213832
0.547809
-0.188111
0.564911
-0.163499
0.580199
-0.14023
0.593595
-0.116702
0.605349
-0.0936281
0.615285
-0.0696315
0.623355
-0.0455604
0.629525
-0.0203707
0.633664
0.00473191
0.635738
0.0304847
0.635836
0.0544196
0.634119
0.0761929
0.630665
0.0926978
0.625245
0.102917
0.618133
0.111985
0.610077
0.122634
0.600527
0.133485
0.589771
0.144904
0.577631
0.156946
0.564211
0.171609
0.549461
0.190532
0.533646
0.216081
0.517678
0.255509
0.503356
0.321567
0.481629
0.353028
0.467554
0.501525
0.484312
0.926973
0.467435
0.821703
-0.13372
-0.383293
-0.096225
-0.398051
-0.0487733
-0.493892
-0.00216387
-0.495926
0.0451241
-0.509242
0.0934415
-0.523208
0.139288
-0.503294
0.179105
-0.450496
0.213211
-0.397436
0.242389
-0.349142
0.266379
-0.297517
0.286124
-0.254144
0.302956
-0.221483
0.317459
-0.194119
0.330339
-0.173397
0.342221
-0.157894
0.353397
-0.145832
0.364129
-0.136695
0.374629
-0.12997
0.384992
-0.12469
0.395228
-0.120481
0.405337
-0.116463
0.415271
-0.11162
0.424806
-0.102876
0.433589
-0.0901115
0.44147
-0.0769334
0.448392
-0.0638353
0.45426
-0.0510308
0.459021
-0.0383968
0.462718
-0.026141
0.465271
-0.0142556
0.466788
-0.00271308
0.46728
0.00861482
0.466667
0.0200928
0.465073
0.0323211
0.462003
0.0472508
0.457053
0.0667521
0.449325
0.104705
0.435993
0.166096
-0.172486
0.21174
-0.422607
0.251336
-0.429564
0.296812
-0.479427
0.335926
-0.423131
0.374112
-0.413258
0.41138
-0.399196
0.444472
-0.35866
0.47486
-0.329208
0.502591
-0.298109
0.527167
-0.264416
0.549332
-0.236014
0.569243
-0.208045
0.586947
-0.181234
0.602867
-0.156187
0.616958
-0.130837
0.629225
-0.105947
0.639698
-0.0801663
0.648267
-0.0542057
0.654853
-0.0270489
0.659479
-3.18135e-06
0.662091
0.0277664
0.662652
0.0538387
0.661453
0.0775802
0.658513
0.0959363
0.653559
0.107849
0.646829
0.118501
0.63895
0.130638
0.629495
0.142836
0.618754
0.155666
0.606546
0.169212
0.59296
0.185248
0.577956
0.205435
0.561883
0.232181
0.545456
0.271889
0.53059
0.336569
0.508238
0.375312
0.493364
0.516595
0.512855
0.907618
0.498793
0.83601
-0.133803
-0.421978
-0.0944116
-0.437441
-0.0443024
-0.544
0.00480158
-0.545028
0.0545875
-0.559025
0.105485
-0.574101
0.153649
-0.551453
0.195461
-0.492303
0.231126
-0.433094
0.261591
-0.379599
0.286473
-0.322391
0.306853
-0.274514
0.324075
-0.238693
0.338799
-0.20883
0.351773
-0.186356
0.363655
-0.169758
0.374794
-0.156951
0.385508
-0.147383
0.395988
-0.140417
0.40636
-0.135023
0.416668
-0.130747
0.426925
-0.126683
0.437058
-0.121735
0.446844
-0.112673
0.455943
-0.0992367
0.464144
-0.0851307
0.471402
-0.0710405
0.477591
-0.0571817
0.48267
-0.0434723
0.486646
-0.0300913
0.489467
-0.0171076
0.491214
-0.004467
0.491852
0.00798201
0.491354
0.0205486
0.489805
0.0339898
0.486688
0.0502822
0.481653
0.0718838
0.473789
0.112439
0.460641
0.179251
-0.174899
0.21631
-0.464019
0.258032
-0.471292
0.306018
-0.527419
0.347192
-0.464313
0.387478
-0.453552
0.426689
-0.438416
0.461471
-0.39345
0.493399
-0.361145
0.522409
-0.327129
0.548062
-0.290082
0.571196
-0.259167
0.591953
-0.228827
0.610486
-0.199799
0.627002
-0.172741
0.641636
-0.145517
0.654433
-0.118798
0.665396
-0.0911941
0.674455
-0.0633431
0.681606
-0.0342959
0.686677
-0.00518651
0.689715
0.0246224
0.690799
0.0527381
0.69006
0.0785133
0.687599
0.0987021
0.683076
0.112355
0.676696
0.124663
0.66909
0.13837
0.659765
0.152059
0.64902
0.166409
0.636782
0.181534
0.623064
0.199017
0.607869
0.220535
0.591508
0.248549
0.574664
0.28869
0.559195
0.352123
0.536777
0.39764
0.520732
0.532877
0.539101
0.889299
0.526634
0.848776
-0.134059
-0.462822
-0.0925238
-0.478977
-0.0397005
-0.596823
0.0120385
-0.596766
0.0644803
-0.611465
0.118081
-0.627699
0.168762
-0.60213
0.212672
-0.536206
0.250057
-0.470473
0.281872
-0.411406
0.307774
-0.348284
0.32883
-0.29556
0.346508
-0.25636
0.3615
-0.223809
0.374606
-0.199447
0.386527
-0.181661
0.397647
-0.168049
0.408316
-0.158025
0.418765
-0.150833
0.42914
-0.145359
0.439486
-0.141049
0.449835
-0.136995
0.460145
-0.132029
0.470196
-0.122737
0.479564
-0.10863
0.488066
-0.0936279
0.495646
-0.078565
0.502162
-0.0636576
0.507556
-0.0488654
0.51184
-0.034351
0.514926
-0.0202224
0.516875
-0.00642422
0.517712
0.007149
0.517316
0.0208984
0.515823
0.0356061
0.512682
0.0533455
0.507564
0.0771081
0.499634
0.120238
0.486742
0.192158
-0.177509
0.221144
-0.507656
0.265187
-0.515342
0.315841
-0.578081
0.359241
-0.50772
0.401675
-0.495994
0.442913
-0.479661
0.479532
-0.430077
0.513052
-0.394673
0.54343
-0.357516
0.570292
-0.316958
0.59453
-0.283422
0.616118
-0.250442
0.635387
-0.219101
0.652593
-0.189987
0.667785
-0.160756
0.681131
-0.1322
0.692577
-0.102708
0.702134
-0.0729812
0.709683
-0.041943
0.715241
-0.0108593
0.718712
0.0210463
0.720206
0.0512305
0.719955
0.0789628
0.717945
0.10102
0.713889
0.116401
0.707857
0.130475
0.700508
0.145843
0.691344
0.161122
0.68063
0.177098
0.668412
0.193861
0.654584
0.212897
0.639215
0.235818
0.622627
0.26513
0.605412
0.305872
0.589311
0.368249
0.567028
0.419822
0.55003
0.5501
0.565535
0.873757
0.553703
0.860886
-0.134446
-0.50589
-0.0906962
-0.52273
-0.0349993
-0.652521
0.0195759
-0.651342
0.0748058
-0.666693
0.131234
-0.684123
0.184632
-0.655525
0.230755
-0.582323
0.269992
-0.509704
0.303275
-0.444682
0.330252
-0.375253
0.352075
-0.317373
0.37029
-0.274565
0.385609
-0.239114
0.398878
-0.212701
0.410884
-0.193648
0.422003
-0.179145
0.43264
-0.168635
0.443047
-0.161204
0.453391
-0.155663
0.463769
-0.151384
0.474191
-0.147381
0.48465
-0.142473
0.4949
-0.133001
0.504526
-0.118282
0.513333
-0.102428
0.521218
-0.0863925
0.528065
-0.0704611
0.533757
-0.0545585
0.538337
-0.0389091
0.541694
-0.0236047
0.543894
-0.0086344
0.544903
0.00614367
0.544623
0.0211273
0.543205
0.0371497
0.540044
0.0564348
0.534896
0.0823757
0.5269
0.12811
0.51428
0.204809
-0.180418
0.22645
-0.553693
0.272925
-0.561825
0.326271
-0.631435
0.372113
-0.553571
0.416718
-0.540607
0.460205
-0.523156
0.498663
-0.468543
0.533883
-0.429901
0.56578
-0.389423
0.593928
-0.345118
0.619136
-0.30865
0.64173
-0.273061
0.661737
-0.239142
0.679625
-0.207915
0.695503
-0.176683
0.709345
-0.146099
0.721312
-0.114744
0.731311
-0.0830644
0.739342
-0.0500745
0.745287
-0.01692
0.749164
0.0170653
0.751123
0.0492629
0.751246
0.0790402
0.74967
0.102905
0.746011
0.120055
0.74034
0.135928
0.73328
0.153023
0.724307
0.169997
0.713704
0.187651
0.701508
0.206186
0.687609
0.226847
0.672087
0.251265
0.655289
0.281914
0.637764
0.32338
0.620988
0.384985
0.598982
0.441728
0.581302
0.567946
0.593305
0.861645
0.58155
0.872839
-0.135013
-0.551303
-0.0888824
-0.568865
-0.0301029
-0.711304
0.027391
-0.708836
0.0856192
-0.72492
0.145074
-0.743575
0.20124
-0.711686
0.249799
-0.630877
0.29097
-0.550868
0.325865
-0.47957
0.354027
-0.403406
0.376697
-0.340034
0.395502
-0.293359
0.411193
-0.254792
0.42469
-0.226181
0.436777
-0.205716
0.447936
-0.19028
0.458534
-0.179203
0.468897
-0.171531
0.479206
-0.165931
0.48958
-0.161714
0.500058
-0.157823
0.510649
-0.15305
0.521097
-0.143464
0.530967
-0.128178
0.540031
-0.111484
0.548204
-0.0945041
0.555341
-0.0775529
0.56135
-0.0605705
0.566212
-0.043751
0.569858
-0.0272718
0.572278
-0.011066
0.573499
0.0049268
0.573376
0.0211944
0.572005
0.038645
0.568888
0.0594876
0.563688
0.0877063
0.555716
0.135969
0.543437
0.217137
-0.183546
0.232104
-0.602256
0.281051
-0.610783
0.337443
-0.687835
0.385604
-0.601742
0.432707
-0.587719
0.478452
-0.568911
0.518995
-0.509094
0.555937
-0.466852
0.589398
-0.422895
0.618862
-0.374595
0.645318
-0.335126
0.668822
-0.296591
0.689735
-0.260088
0.708344
-0.226566
0.724816
-0.193204
0.739231
-0.160573
0.751666
-0.12725
0.762093
-0.0935775
0.770497
-0.0585817
0.776858
-0.0233962
0.781166
0.0126553
0.783448
0.0469771
0.783974
0.0787164
0.782814
0.104373
0.779553
0.123318
0.77428
0.140988
0.767505
0.159915
0.758728
0.178678
0.748202
0.198102
0.736093
0.21844
0.722162
0.240831
0.706525
0.266837
0.689551
0.298875
0.671737
0.341203
0.65438
0.402233
0.632619
0.463415
0.614496
0.586139
0.622966
0.853028
0.610923
0.884962
-0.135673
-0.599186
-0.0870394
-0.617503
-0.0250414
-0.773304
0.0355339
-0.769412
0.0969117
-0.786296
0.159568
-0.806229
0.218754
-0.770866
0.269812
-0.68193
0.313076
-0.594124
0.349648
-0.516135
0.379097
-0.432846
0.402702
-0.363629
0.422162
-0.312808
0.438302
-0.270918
0.452059
-0.239922
0.464292
-0.217929
0.475484
-0.201447
0.486074
-0.189763
0.496392
-0.181812
0.506685
-0.176181
0.517026
-0.172011
0.52755
-0.168312
0.538235
-0.163723
0.548861
-0.154106
0.558951
-0.138294
0.568249
-0.120771
0.576713
-0.102904
0.584139
-0.0849308
0.590417
-0.066853
0.595595
-0.048911
0.599504
-0.0311992
0.60218
-0.0137522
0.603581
0.00352933
0.603604
0.0211106
0.602353
0.040018
0.599247
0.0625342
0.594069
0.0930261
0.586105
0.143835
0.57423
0.229077
-0.186949
0.238125
-0.65344
0.289741
-0.662409
0.34918
-0.747285
0.400044
-0.652617
0.449587
-0.637272
0.497841
-0.617175
0.540396
-0.551658
0.579269
-0.505735
0.614411
-0.458048
0.645334
-0.405534
0.67295
-0.362762
0.697575
-0.321244
0.719344
-0.281892
0.738716
-0.24598
0.755798
-0.210336
0.770809
-0.175644
0.783709
-0.140223
0.794568
-0.104525
0.803417
-0.0675352
0.810127
-0.030221
0.814766
0.00791803
0.817425
0.044319
0.818306
0.0780375
0.817505