/*--------------------------------*- C++ -*----------------------------------*\
| =========                 |                                                 |
| \\      /  F ield         | OpenFOAM: The Open Source CFD Toolbox           |
|  \\    /   O peration     | Version:  2312                                  |
|   \\  /    A nd           | Website:  www.openfoam.com                      |
|    \\/     M anipulation  |                                                 |
\*---------------------------------------------------------------------------*/
FoamFile
{
    version     2.0;
    format      ascii;
    arch        "LSB;label=32;scalar=64";
    class       volSymmTensorField;
    location    "400";
    object      turbulenceProperties:R;
}
// * * * * * * * * * * * * * * * * * * * * * * * * * * * * * * * * * * * * * //

dimensions      [0 2 -2 0 0 0 0];

internalField   nonuniform List<symmTensor> 
10720
(
(0.0122949 0.00698393 -1.00935e-20 0.00581569 -1.09545e-19 0.00937525)
(0.0180184 0.012222 1.3683e-20 0.00438893 1.61796e-19 0.0115461)
(0.025433 0.0160583 3.81658e-20 0.0017931 1.64336e-19 0.0144601)
(0.0320226 0.0166699 2.8983e-19 0.00133897 1.71531e-18 0.0176507)
(0.0371515 0.0142533 -6.82999e-19 0.00410297 -2.50222e-18 0.0214497)
(0.0425234 0.0112892 -5.99719e-19 0.00798665 -1.194e-18 0.0261651)
(0.0494359 0.00894927 1.38993e-19 0.0125087 8.06324e-21 0.0318608)
(0.0586743 0.00690344 6.41198e-20 0.0174988 1.01385e-19 0.0389786)
(0.0716941 0.00474734 1.54698e-19 0.0231859 -1.2496e-19 0.0484714)
(0.0901432 0.00202831 -2.43811e-20 0.0305663 -2.44613e-20 0.0615433)
(0.117301 -0.00209095 2.8574e-18 0.0412828 1.20696e-18 0.0807505)
(0.158923 -0.00889224 -6.94703e-19 0.0580503 -5.33506e-19 0.110381)
(0.226604 -0.0209021 1.57141e-18 0.0861935 -2.35795e-18 0.158979)
(0.34375 -0.0437194 8.79218e-19 0.13689 1.93998e-18 0.244058)
(0.55817 -0.0899259 1.81921e-18 0.234539 -3.22528e-18 0.402234)
(0.9734 -0.188666 5.17479e-19 0.434833 1.47716e-17 0.714005)
(1.80544 -0.407442 1.01442e-16 0.862963 5.05745e-17 1.35238)
(3.71352 -0.951754 -3.01455e-17 1.90732 4.97073e-17 2.84719)
(7.14191 -2.04409 -2.27514e-17 3.95779 -3.19442e-16 5.62085)
(11.6738 -3.67896 2.10594e-17 6.9988 -8.8672e-19 9.4506)
(18.0858 -6.21066 -5.01668e-16 11.7717 -3.16706e-16 15.1052)
(29.2985 -10.8668 1.05661e-15 20.751 1.39353e-15 25.3083)
(52.1992 -20.7414 -6.40553e-16 40.2929 -1.61754e-15 46.767)
(98.9017 -41.6396 7.73302e-16 82.8567 1.75387e-16 91.9044)
(179.554 -78.8413 -2.76587e-16 160.972 -1.36033e-17 171.736)
(253.922 -114.533 8.80456e-17 238.49 -1.96554e-15 248.312)
(520.663 -239.818 6.96909e-16 508.135 -2.19348e-16 519.262)
(848.242 -399.504 8.09997e-16 868.506 1.45825e-15 861.611)
(576.111 -269.31 1.60923e-14 622.213 4.45648e-16 596.882)
(240.27 -93.5375 8.77298e-15 264.819 4.63353e-15 251.553)
(73.1961 -26.8013 -2.85491e-15 82.0598 -6.9148e-16 77.4652)
(9.40169 -2.81036 -5.03965e-16 10.5007 -2.39596e-16 9.94272)
(2.00539 -0.535114 -2.53708e-17 2.23789 -9.56035e-17 2.12151)
(0.257362 -0.0684175 -1.97754e-17 0.288635 -2.21203e-17 0.273171)
(6.35602e-16 -1.43731e-16 1.53689e-32 6.98608e-16 4.87104e-32 6.6579e-16)
(6.70272e-16 -3.29417e-17 5.23803e-33 6.66374e-16 5.70263e-32 6.63354e-16)
(0.007419 0.000713413 1.99666e-19 0.007346 -3.32287e-20 0.00736746)
(0.414341 -0.227132 -3.67589e-17 0.640457 2.56005e-16 0.525057)
(6.97575 1.52629 -2.59227e-16 4.96264 1.65043e-15 6.22376)
(0.012321 0.00496969 3.0584e-21 0.00896594 -7.81189e-21 0.0107334)
(0.0145488 0.00586574 -2.57347e-20 0.0114273 2.85843e-20 0.0132102)
(0.013598 0.00578081 -1.31593e-19 0.0115663 -9.94311e-20 0.0127121)
(0.0110206 0.0122171 5.01951e-19 0.00852313 -5.83252e-19 0.0100076)
(0.00696794 0.00318409 -2.49255e-19 0.00656422 4.55451e-20 0.00678002)
(0.0111907 0.0050133 -2.02887e-18 0.0103092 2.67011e-18 0.010569)
(0.0136531 0.00579058 2.22201e-18 0.0110974 2.64448e-18 0.0118392)
(0.0159954 0.00602593 1.23797e-18 0.0102681 -5.26155e-18 0.0126477)
(0.018993 0.00604313 1.53912e-18 0.00977507 -7.16031e-20 0.0142604)
(0.0226434 0.00636894 -8.89798e-19 0.0105383 -2.75011e-19 0.0166569)
(0.0276716 0.00746005 6.4881e-19 0.0127396 1.55047e-18 0.0203455)
(0.0354025 0.00960715 1.22291e-18 0.0169723 -6.0291e-19 0.0263816)
(0.0472083 0.0131771 -1.27512e-18 0.0240995 -9.95879e-20 0.0359328)
(0.0679102 0.0196483 4.52955e-19 0.0369895 1.88577e-19 0.0528583)
(0.0981151 0.0298282 4.0798e-18 0.056019 3.03517e-19 0.077611)
(0.16484 0.0528385 4.53815e-18 0.0980143 -1.05475e-18 0.13231)
(0.242297 0.090574 2.02552e-18 0.139134 2.56424e-18 0.192053)
(0.599507 0.28333 1.81138e-18 0.308129 5.74315e-18 0.457597)
(0.886739 0.366141 2.34801e-18 0.54575 -1.31759e-18 0.720564)
(1.14765 0.467737 3.45873e-18 0.754012 2.00575e-19 0.955971)
(1.68982 0.726353 -5.10186e-18 1.13979 -3.07887e-17 1.42227)
(2.37112 0.972278 -1.5704e-17 1.71719 1.47702e-20 2.05389)
(3.25136 1.30753 1.15297e-17 2.48718 1.51549e-17 2.88244)
(4.54481 1.8604 4.94814e-18 3.63895 3.43033e-20 4.11247)
(6.21342 2.61659 2.04267e-16 5.20834 -2.74931e-17 5.74175)
(7.99988 3.46619 4.76991e-19 7.01412 -4.95857e-18 7.54685)
(7.66351 3.16754 -6.30849e-20 7.06809 -2.32511e-18 7.40023)
(4.90437 1.84383 -2.04231e-19 4.72602 6.27442e-21 4.83396)
(2.13093 0.746679 2.23888e-19 2.12282 3.03203e-21 2.13413)
(0.616738 0.208674 5.10055e-18 0.631434 -3.94018e-19 0.626061)
(0.0929451 0.0317278 -4.81379e-20 0.0976278 -2.39678e-21 0.0955807)
(0.00544669 0.00195706 -8.12642e-21 0.00587868 2.32664e-20 0.00568032)
(0.00135098 0.000528516 -8.15237e-20 0.00150424 -1.0954e-20 0.00143219)
(0.000502049 0.000218778 -5.94988e-20 0.000579798 1.3472e-20 0.000542724)
(0.000166922 8.1599e-05 2.09544e-20 0.000200995 8.68174e-22 0.00018459)
(3.83579e-06 2.0966e-06 -2.86783e-24 4.83646e-06 -4.15399e-23 4.35154e-06)
(5.82905e-08 3.45826e-08 -1.26483e-25 7.71209e-08 8.29838e-25 6.79195e-08)
(0.922818 0.588287 -1.33466e-18 1.29052 -3.9827e-18 1.11932)
(71.362 37.2088 -1.29599e-14 99.6681 -1.64446e-15 85.8133)
(0.011913 -0.00628993 -5.70718e-20 -0.00498578 -1.6663e-19 0.00235135)
(0.0116319 -0.00805593 8.03572e-20 -0.00341131 2.39277e-19 0.00275825)
(0.0108617 -0.0111572 2.21949e-20 -0.00249094 7.67359e-21 0.00221284)
(0.00722248 -0.008734 1.68877e-19 0.000852523 2.06548e-20 0.0023486)
(0.00458793 -0.00522993 1.30874e-19 0.00281094 6.97177e-19 0.00258004)
(0.00330947 -0.00307246 3.41823e-19 0.00340956 6.14333e-19 0.00260345)
(0.00270499 -0.00198524 -1.03214e-19 0.00343949 1.7138e-20 0.00249362)
(0.00234204 -0.00141531 -7.52559e-20 0.00332025 -2.21186e-20 0.00233601)
(0.00264819 -0.00128614 -5.1823e-19 0.00395019 -5.63287e-19 0.00275039)
(0.00183029 -0.000862445 -1.30944e-19 0.00296092 -4.72908e-20 0.00194361)
(0.000622156 -0.000427824 -7.32755e-19 0.00129873 -7.04056e-19 0.000686195)
(0.00159688 -0.000609948 -1.55339e-20 0.00269417 1.89622e-19 0.00167251)
(0.00176109 -0.000614322 -7.19794e-19 0.00292885 1.08545e-20 0.0017927)
(0.00231359 -0.00077396 6.4724e-19 0.00371831 3.82344e-19 0.00226558)
(0.00593592 -0.00198877 -3.39374e-18 0.00898814 -9.86811e-19 0.00552293)
(0.0149841 -0.00517354 1.80555e-17 0.0206662 4.26623e-18 0.0131057)
(0.0423086 -0.0152342 -4.35336e-17 0.0512169 -3.60373e-17 0.03478)
(0.126095 -0.0467899 -1.04509e-16 0.132223 -3.61358e-17 0.0995305)
(0.366099 -0.137678 -2.69623e-16 0.338551 1.09795e-16 0.285813)
(0.913325 -0.34574 6.14684e-17 0.775894 3.00299e-19 0.720924)
(1.97554 -0.756284 5.26168e-16 1.60933 5.74736e-16 1.59478)
(3.72758 -1.45098 -8.81618e-16 3.01046 -1.4624e-15 3.08149)
(6.83078 -2.71348 8.33853e-17 5.60344 1.62839e-15 5.75751)
(11.1103 -4.47299 2.67806e-17 9.3103 -4.71052e-16 9.4363)
(33.5734 -10.0697 -0 29.7234 -0 29.8746)
(55.1192 -8.81981 -2.47988e-17 54.0291 3.95718e-16 52.4381)
(171.083 -12.0862 -9.59399e-16 176.086 2.48002e-16 167.814)
(361.914 -7.24248 -1.12189e-16 363.344 -8.88647e-16 359.933)
(305.928 -4.53947 -1.16296e-14 298.745 -5.60672e-15 304.628)
(186.867 -4.49404 -5.94596e-16 175.555 -2.20393e-14 185.306)
(87.9122 -2.83722 9.31804e-16 83.5244 1.38244e-14 87.2572)
(31.484 -1.35314 2.29596e-16 31.1311 6.43578e-15 31.5511)
(8.41834 -0.729648 -1.28838e-15 8.63016 1.18986e-15 8.55236)
(1.16734 -0.248428 4.28695e-16 1.26194 6.85406e-16 1.21603)
(0.0221996 -0.00756869 -3.98628e-19 0.0248674 -3.50262e-18 0.023403)
(5.91222e-16 -3.12501e-16 1.55816e-31 7.416e-16 -8.66234e-32 6.67179e-16)
(4.86285e-16 -4.98505e-16 -2.08994e-32 8.2848e-16 2.9694e-33 6.85235e-16)
(0.185408 -0.0465454 1.07389e-17 0.196159 -3.96167e-16 0.194875)
(5.19858 0.34684 -1.68025e-15 4.35443 -1.11441e-15 4.85475)
(0.00409667 -0.00119284 2.01339e-20 -0.000894203 4.97889e-20 0.00136079)
(0.00295307 -0.000241429 -1.13307e-21 0.00114118 -1.12817e-19 0.0019733)
(0.00275337 -3.39194e-05 -7.0775e-20 0.00101888 -1.19786e-19 0.00183637)
(0.00798 0.00069807 9.58938e-20 0.00161207 9.87449e-19 0.00468494)
(0.00938499 0.00146045 7.25401e-19 0.00393108 -6.66798e-19 0.00663495)
(0.00864814 0.00213992 -3.28372e-19 0.00435826 -8.82453e-19 0.00654251)
(0.00629789 0.00209157 -2.22205e-19 0.00396016 -1.7137e-18 0.0052074)
(0.00586589 0.0023757 -1.53772e-18 0.00463089 1.12487e-19 0.00535382)
(0.00521676 0.00246836 -7.09714e-19 0.00535986 1.65856e-18 0.00536183)
(0.00454682 0.00234849 -4.56685e-19 0.0061011 1.99391e-20 0.00531176)
(0.00399027 0.00205947 -1.54405e-19 0.00664638 -1.22288e-18 0.00519366)
(0.00357331 0.00170769 7.61104e-21 0.00692708 -6.11507e-19 0.00501498)
(0.00323898 0.00135538 5.28753e-19 0.00692633 1.36027e-18 0.00475152)
(0.00300681 0.0010697 -6.6156e-19 0.00679444 -3.01843e-19 0.00448506)
(0.00162168 0.000493155 -1.995e-19 0.00375194 -6.9275e-19 0.00240862)
(0.000586288 0.000158373 -3.99381e-19 0.00136862 -6.08148e-20 0.000858991)
(0.0218851 0.00544096 -2.26844e-18 0.0504371 1.85753e-19 0.0312369)
(0.0537231 0.0131046 -3.50424e-19 0.121826 -3.46844e-18 0.0746381)
(0.089227 0.0221642 -1.1091e-17 0.19853 6.29653e-18 0.120806)
(0.0238789 0.00107472 8.67529e-19 0.0288076 -2.78374e-19 0.0252139)
(0.0243613 0.00104399 -6.70484e-18 0.0287858 3.6927e-18 0.0254738)
(0.285698 0.0779093 -9.72378e-17 0.593984 1.79692e-17 0.356774)
(0.416092 0.113181 1.59485e-17 0.844729 -9.54007e-17 0.503686)
(0.00350622 3.21208e-05 2.0291e-19 0.00362168 -3.76551e-21 0.00352547)
(0.0156916 0.000203458 -1.05382e-18 0.0163209 9.46092e-20 0.0157675)
(0.0471812 0.000798979 -3.18811e-18 0.0491365 3.26616e-19 0.0473409)
(0.0855218 0.00214144 -2.32941e-20 0.0895553 7.38882e-20 0.0857603)
(0.0902192 0.00300324 7.36068e-22 0.0947034 3.85118e-20 0.0904835)
(0.0739248 0.00301163 -2.46853e-21 0.0775409 -3.3543e-23 0.0742129)
(0.0518491 0.00301749 7.13185e-20 0.0548202 3.47798e-19 0.0521833)
(0.0303664 0.00221152 7.84964e-21 0.0322093 -1.5578e-19 0.0306546)
(0.0147847 0.0013721 8.6407e-20 0.0157879 -2.45608e-19 0.0149947)
(0.00620649 0.000744669 2.70483e-18 0.00670185 1.23807e-19 0.00633853)
(0.00231111 0.000367116 9.07815e-19 0.00254108 -3.12153e-19 0.00238512)
(0.000768655 0.000163992 -2.86122e-19 0.000868584 2.10867e-20 0.000805856)
(0.000250358 7.3769e-05 1.04265e-19 0.000295143 1.28554e-20 0.000268693)
(3.95761e-06 1.63827e-06 -3.34981e-21 4.97325e-06 -4.69582e-22 4.42343e-06)
(0.221331 0.127377 -2.04786e-16 0.31739 -3.08591e-17 0.258604)
(18.4317 3.44624 -1.1942e-14 20.6936 -2.83492e-15 19.3391)
(0.00234396 -0.00114641 -5.81358e-21 -0.000715377 -1.23118e-20 0.000939848)
(0.00192327 -0.00168496 -1.76832e-19 -0.00107935 -3.65288e-19 0.000609506)
(0.00142059 -0.00189277 1.25684e-19 -0.000668206 2.41002e-19 0.000597281)
(0.000806541 -0.00200759 1.6945e-19 -0.000307996 2.88992e-19 0.000523872)
(0.000300825 -0.00204028 3.18611e-19 0.000176791 4.52986e-19 0.000565355)
(-0.000197302 -0.00197415 -1.011e-18 0.000703237 -1.64208e-18 0.000643468)
(-0.000678051 -0.00179941 7.48376e-19 0.00122815 1.36413e-18 0.00074985)
(-0.00110543 -0.00150865 1.04455e-18 0.00171566 9.49064e-19 0.000868829)
(-0.00144803 -0.00110088 -6.60278e-20 0.0021405 1.29082e-19 0.00100528)
(-0.00160908 -0.000607843 7.90218e-19 0.00252218 1.29246e-18 0.00121516)
(-0.00171224 -7.05307e-05 -1.7211e-18 0.00269901 -1.23551e-19 0.00134316)
(-0.00169797 0.000471433 2.53812e-18 0.00273262 2.71369e-18 0.00144938)
(-0.00149519 0.000982183 1.25861e-18 0.00273407 5.36916e-19 0.00162213)
(-0.00138654 0.0014238 6.23201e-19 0.0024855 -5.9055e-19 0.00158354)
(-0.000808914 0.00181261 1.9362e-18 0.00268064 1.88121e-18 0.00197831)
(0.00172257 0.00236932 -5.58468e-18 0.00516342 -5.63606e-18 0.00457944)
(0.00587589 0.00366299 1.98337e-18 0.0100746 2.95831e-18 0.00947146)
(0.0171201 0.00899913 3.91546e-17 0.025468 1.12251e-17 0.0244466)
(0.0491725 0.0257459 3.25883e-17 0.0686015 2.3816e-17 0.0665975)
(0.127484 0.06624 -2.57246e-17 0.167715 -1.60978e-18 0.164416)
(0.292058 0.149503 6.5514e-17 0.360395 -1.48039e-16 0.35812)
(0.59432 0.295759 2.42655e-17 0.674156 2.10012e-16 0.68841)
(1.20397 0.563797 8.8189e-16 1.19263 -2.25247e-16 1.30198)
(2.46935 0.961971 -1.33053e-15 1.84478 -5.50808e-16 2.40651)
(4.6643 0.11338 4.96178e-17 3.00336 4.12312e-17 4.10837)
(7.86131 -1.51126 -2.1282e-15 4.97052 5.89102e-16 6.69846)
(54.5387 -5.74202 9.28876e-16 47.9342 1.18069e-16 51.6292)
(134.157 -5.31829 -3.28354e-16 130.19 1.77329e-18 132.297)
(125.518 -2.87847 -4.95574e-15 124.399 2.85858e-15 124.732)
(93.9411 -1.80949 -6.23314e-15 93.5379 2.47705e-16 93.4666)
(56.277 -1.1675 1.1701e-14 56.0311 -3.21217e-15 55.9302)
(27.7214 -0.376939 6.60361e-15 27.5184 2.51177e-15 27.4566)
(10.0077 0.0535618 2.35762e-16 9.92931 1.40766e-15 9.93584)
(2.08369 0.025465 4.13772e-16 2.06587 -2.23178e-16 2.07432)
(0.16402 -0.00773555 2.55792e-17 0.164794 -8.75784e-18 0.164166)
(0.0194726 -0.00446566 -4.84095e-18 0.0217058 -2.84579e-18 0.0206097)
(5.79881e-16 -2.57109e-16 -5.28409e-33 7.46092e-16 -2.59644e-32 6.74027e-16)
(0.0616204 -0.0191324 4.20222e-17 0.0667992 2.61314e-17 0.062372)
(5.15446 -0.242388 4.54997e-15 3.87503 -2.36061e-15 4.45799)
(0.00305138 -0.00114872 -4.972e-20 -0.00184319 -1.02802e-19 0.000759498)
(0.00751287 -0.000645129 -3.33994e-20 0.00242219 2.30401e-20 0.00508116)
(0.0112527 -0.000110069 6.033e-19 0.00382443 7.28349e-19 0.00765813)
(0.0107967 0.000757784 -4.08504e-19 0.00337956 -4.62577e-20 0.00715685)
(0.00705872 0.00128084 5.375e-20 0.00175921 2.09696e-19 0.00443068)
(0.00379874 0.00156165 1.46879e-20 0.000166069 9.3958e-19 0.00197923)
(0.00263189 0.00187283 1.91078e-20 9.30277e-05 5.79799e-19 0.00136789)
(0.00220831 0.00212998 2.33386e-18 0.000765348 1.23603e-18 0.0014999)
(0.00184171 0.00229064 5.33727e-19 0.00157187 -4.55372e-19 0.0017153)
(0.00148497 0.0023361 1.40802e-18 0.00240697 1.59115e-19 0.001962)
(0.0011913 0.00227774 -1.79516e-18 0.00324662 -7.19096e-19 0.00226429)
(0.000976014 0.00213216 -1.40792e-18 0.00408115 2.04001e-18 0.00262762)
(0.000738955 0.00189621 2.64262e-18 0.00478971 -1.2318e-18 0.00294881)
(0.000518551 0.001586 1.90451e-18 0.00538608 -1.06323e-20 0.00326535)
(0.00038379 0.00122433 -2.6596e-18 0.00593895 1.99516e-18 0.00364455)
(8.3849e-05 0.000801446 -2.00201e-18 0.00610256 4.08411e-18 0.00378924)
(-0.000126764 0.000352157 7.26593e-18 0.00620473 -3.69563e-18 0.0039905)
(-3.29298e-05 -8.36378e-05 5.23847e-18 0.00453734 -9.94473e-19 0.00312362)
(0.000182115 -0.000143646 8.15468e-19 0.00176377 -9.57684e-20 0.00133817)
(0.00161854 -0.00102945 -1.28483e-18 0.00764471 3.8213e-18 0.00631306)
(0.00229757 -0.00133309 1.8742e-17 0.0072739 7.58943e-19 0.00646135)
(0.000158856 -8.80069e-05 2.8661e-20 0.000380303 -1.31358e-19 0.000360291)
(0.000211919 -0.00011267 -2.81264e-21 0.000400317 -8.31788e-21 0.00040443)
(0.000800034 -0.000389129 -4.84423e-20 0.00115893 -2.27276e-19 0.00129063)
(0.00314404 -0.00151334 -3.71802e-20 0.00347757 4.27822e-19 0.00456393)
(0.0102384 -0.00421795 5.56673e-17 0.00851808 -3.34449e-18 0.0132657)
(0.00140161 -0.000456697 -6.63477e-20 0.000954259 4.42705e-21 0.00165421)
(0.0227077 -0.00549384 -9.41571e-18 0.0143149 9.28722e-21 0.0249738)
(0.0193546 -0.00405091 -9.38321e-20 0.0119459 9.35696e-21 0.0203339)
(0.000846563 -0.000198123 -4.93753e-19 0.000490003 -1.64201e-20 0.000862517)
(0.000979574 -0.000273089 1.01814e-18 0.000543997 1.07913e-19 0.00096978)
(0.00458184 -0.00130412 -1.78577e-19 0.00279792 -3.4896e-21 0.00443653)
(0.000137854 -4.19225e-05 -3.43493e-19 8.85344e-05 4.7588e-20 0.000131076)
(0.000657065 -0.000214901 -3.1463e-21 0.000433726 1.83689e-19 0.000614169)
(0.00108824 -0.000378618 4.20104e-20 0.000733934 -3.85817e-19 0.00100313)
(0.00161441 -0.000586274 -2.17772e-19 0.00108078 6.93909e-19 0.00146058)
(2.7256e-05 -9.39626e-06 7.48127e-21 1.98093e-05 -2.20384e-20 2.45257e-05)
(0.128181 -0.0348143 5.98488e-16 0.0677639 1.11269e-16 0.106624)
(7.32161 2.24209 6.7922e-14 6.66283 1.42894e-14 7.12721)
(0.00776275 -0.002855 -9.01108e-20 3.72484e-05 -1.37418e-19 0.00377622)
(0.00723084 -0.00346907 -1.70841e-19 0.000623262 -2.87026e-19 0.00378738)
(0.00667946 -0.00401538 3.51143e-19 0.00159436 4.58127e-19 0.00395074)
(0.00604818 -0.00445214 4.00497e-19 0.00263842 4.81797e-19 0.00411019)
(0.00535164 -0.00469244 5.25231e-20 0.00374654 -1.04194e-20 0.00426092)
(0.00459441 -0.00475905 -1.2557e-19 0.00489139 3.59819e-19 0.00438423)
(0.00383972 -0.00464474 3.78083e-18 0.00599515 3.75334e-18 0.00447803)
(0.00314103 -0.00436359 -3.72855e-18 0.00700779 -4.70164e-18 0.00454233)
(0.00252094 -0.00394407 9.42191e-19 0.00791911 2.46027e-19 0.00457468)
(0.0020127 -0.00343293 5.47573e-18 0.00869924 4.028e-18 0.00458527)
(0.00161464 -0.00286191 4.76055e-18 0.00934772 4.68897e-18 0.00456393)
(0.0013271 -0.00225883 5.57117e-18 0.00987211 1.70146e-18 0.00451482)
(0.00115533 -0.00165167 -6.78735e-18 0.0102909 -5.06991e-18 0.0044469)
(0.00105218 -0.00105506 -4.87152e-18 0.0105808 -4.65997e-18 0.00433118)
(0.00108704 -0.000483934 5.44505e-19 0.0108722 -1.74534e-18 0.00426295)
(0.00129004 6.17113e-05 -1.50279e-17 0.0112333 9.72643e-19 0.00427885)
(0.00124712 0.000676962 -4.97191e-18 0.0111425 -6.15446e-18 0.00396895)
(0.000165774 0.00135662 -3.26623e-17 0.0095678 -2.51372e-17 0.00247238)
(-0.000741565 0.00143128 2.69711e-18 0.00495351 -3.67048e-18 0.000476104)
(-6.76293e-05 0.000855548 5.63041e-19 0.00200191 -1.33671e-18 0.000305468)
(1.08914e-16 1.00479e-15 -5.76083e-30 1.57054e-15 5.57559e-32 3.20543e-16)
(1.48063e-16 1.70241e-15 1.32287e-30 1.57797e-15 2.57464e-31 2.73967e-16)
(-2.68031e-15 2.56709e-14 -8.80829e-29 8.03304e-15 -1.71037e-29 -3.35273e-15)
(7.01778e-16 9.08867e-15 -1.02504e-29 1.60362e-15 1.12457e-29 -3.05402e-16)
(0.878035 0.37709 1.19458e-16 0.783841 7.81309e-18 0.79868)
(7.83375e-05 1.6117e-10 2.99494e-25 7.83373e-05 1.26818e-25 7.83374e-05)
(0.000107403 -1.03013e-12 -1.52373e-27 0.000107403 1.16663e-27 0.000107403)
(0.000440828 -5.66081e-11 1.22768e-26 0.000440828 8.93961e-28 0.000440828)
(0.00077663 -3.78626e-10 7.5814e-25 0.00077663 -1.35656e-25 0.00077663)
(0.0019469 -4.31038e-09 -7.07524e-25 0.0019469 3.31323e-24 0.0019469)
(0.0121915 -3.07634e-07 -7.54782e-22 0.0121914 -4.04724e-22 0.0121915)
(0.252132 -0.000311628 1.52993e-18 0.252039 -1.29565e-18 0.252091)
(1.47957 -0.0711252 2.94268e-16 1.46341 -2.63963e-17 1.47288)
(1.33891 -0.0155906 -1.04467e-16 1.32274 -6.12346e-16 1.33338)
(0.551669 0.00889403 -2.06157e-16 0.537322 -3.4093e-17 0.544127)
(0.0881515 -0.0123464 3.47525e-18 0.0939823 1.82508e-17 0.0911085)
(0.0186199 -0.00572188 -1.64132e-17 0.0214503 2.44357e-18 0.0203295)
(0.0719098 -0.0123448 -4.50359e-17 0.058632 3.66326e-17 0.063151)
(5.54628 -0.816521 -3.4242e-15 3.36185 2.58676e-15 4.12387)
(0.0125654 -0.00248702 -4.976e-20 0.00239281 6.21054e-21 0.00739124)
(0.0122964 -0.00139957 1.53324e-19 0.00254091 8.32648e-19 0.00735295)
(0.00874486 -0.000318298 4.74855e-19 -0.000187288 8.62608e-19 0.00426503)
(0.00530269 0.000644016 6.39202e-19 -0.00300544 -3.31413e-19 0.00114992)
(0.00454796 0.00161151 -1.2994e-18 -0.0031757 -8.9342e-19 0.000694017)
(0.00246765 0.00159476 -1.6387e-19 -0.00174786 -9.17159e-19 0.000356026)
(0.00156456 0.00160991 -1.09728e-18 -0.000966803 -8.12392e-19 0.000298319)
(0.00110588 0.00183056 -1.38329e-18 -0.000476667 5.09773e-20 0.000321569)
(0.00064348 0.00194969 -2.75469e-19 4.60117e-05 -2.70737e-19 0.000355846)
(0.000197705 0.00191166 6.1868e-19 0.000564591 -4.03928e-19 0.000393062)
(-0.000170694 0.00175519 5.14217e-19 0.00102359 1.1789e-18 0.000433121)
(-0.000450668 0.00158059 1.45569e-18 0.00144664 -5.82457e-19 0.000491348)
(-0.00058434 0.00124455 -1.28119e-18 0.00165365 -1.03044e-18 0.000509675)
(-0.000598993 0.000915683 -9.36522e-20 0.00171856 4.07357e-19 0.000515344)
(-0.000580362 0.00069672 1.41635e-18 0.00183271 -3.53492e-19 0.000556357)
(-0.000490017 0.000491256 2.80431e-18 0.00182386 -2.95681e-19 0.000575028)
(-7.57963e-05 6.7334e-05 -3.97808e-19 0.000358602 -5.54761e-20 0.000119001)
(-0.00015792 0.000133857 -2.75008e-19 0.00105453 -3.9212e-19 0.00037085)
(-0.000153682 0.00013982 -2.12399e-19 0.00175194 1.24326e-19 0.000654237)
(-6.39662e-05 9.61955e-05 4.35917e-18 0.00237653 -1.46888e-18 0.000943648)
(8.58894e-05 1.51199e-05 7.99624e-19 0.00288064 -1.01911e-18 0.00120905)
(0.000264712 -9.54162e-05 -5.87883e-18 0.00311638 1.45059e-18 0.00138135)
(0.000471342 -0.000232402 -1.91126e-19 0.00326534 6.3035e-19 0.00153522)
(0.000675776 -0.00035394 -6.86218e-20 0.00309878 -3.59595e-19 0.00156275)
(0.000941511 -0.000448501 3.6559e-20 0.00309128 -3.14518e-21 0.00166945)
(0.00113238 -0.000458169 -4.79767e-18 0.00292092 -1.18233e-19 0.00166136)
(0.00132812 -0.000453956 -2.07695e-20 0.00290307 2.9201e-21 0.00171298)
(0.00144703 -0.000416967 1.0223e-18 0.00279447 -4.3928e-20 0.00170303)
(0.00154056 -0.000370117 -4.53836e-20 0.00269294 -6.07328e-22 0.00169461)
(0.00164151 -0.000326085 1.91546e-22 0.00264442 -1.89629e-19 0.00171812)
(0.00168366 -0.000281965 -2.80074e-18 0.00253023 1.41503e-19 0.00170007)
(0.00167065 -0.000251118 -5.2494e-20 0.00235918 -3.15392e-21 0.00164281)
(0.00164381 -0.000249197 8.92885e-20 0.00217968 -2.48821e-19 0.00158189)
(0.00166498 -0.000296219 7.1993e-18 0.00205499 1.2468e-18 0.00156725)
(0.00160997 -0.000370086 -2.32485e-20 0.00182232 -3.37413e-21 0.00147926)
(0.00271613 -0.000909147 -1.73355e-17 0.00271286 -1.10337e-18 0.00238314)
(5.29204e-05 -2.36373e-05 1.20267e-18 4.43602e-05 1.67866e-19 4.4028e-05)
(0.0823324 -0.0295311 6.99254e-19 0.058232 -1.06296e-17 0.066586)
(6.52706 1.04276 1.17898e-15 2.8694 -6.55707e-15 4.35989)
(0.013894 -0.00464786 -2.01501e-19 0.00139133 -2.45621e-19 0.00772114)
(0.0120193 -0.00557825 -3.98019e-19 0.00148895 -5.43076e-19 0.00687596)
(0.0106538 -0.00650215 1.36561e-18 0.00247925 1.71979e-18 0.00670613)
(0.00917917 -0.00722024 -5.82316e-18 0.00373368 -7.23724e-18 0.00664328)
(0.00758369 -0.00764658 1.4794e-18 0.00515106 1.85612e-18 0.00661114)
(0.00585621 -0.00779735 3.30735e-18 0.00669206 3.34557e-18 0.0065776)
(0.00412619 -0.00759726 -3.05554e-18 0.00829055 -4.46245e-18 0.00659672)
(0.00246692 -0.00704476 -1.71895e-18 0.00984938 2.22223e-19 0.00665005)
(0.000935883 -0.00614731 -1.33882e-17 0.0113001 -1.21779e-17 0.00673023)
(-0.000382719 -0.00493856 -2.36695e-18 0.0125483 -5.23817e-18 0.00684889)
(-0.00142347 -0.00346007 3.88246e-19 0.0135347 -1.28902e-18 0.00700109)
(-0.00212851 -0.00177078 -8.69826e-18 0.0142001 -1.04136e-17 0.00719031)
(-0.00245424 5.46584e-05 4.52733e-18 0.0144963 5.1545e-18 0.00741826)
(-0.00237387 0.00192926 -1.98124e-17 0.0144074 -1.00565e-17 0.00768438)
(-0.00189645 0.00375625 4.43962e-18 0.0139396 2.4711e-18 0.00797257)
(-0.00105305 0.00545993 2.2249e-17 0.0131271 1.80325e-17 0.00827574)
(4.69558e-05 0.00693449 -3.24022e-17 0.0120925 -9.00835e-18 0.00853143)
(0.00134228 0.00814805 -6.49031e-18 0.0110932 2.89201e-17 0.00879944)
(0.00264031 0.00916055 -2.41911e-18 0.00994707 -4.02509e-18 0.00892137)
(0.00114056 0.0093187 -2.93476e-17 0.00547758 -4.30847e-18 0.00575415)
(0.000773153 0.00243967 8.42248e-18 0.00116963 5.11189e-18 0.00155743)
(0.000639759 0.0012475 1.47482e-19 0.000477435 -2.31278e-19 0.000832821)
(8.44139e-16 1.23209e-15 3.84137e-30 3.24717e-16 1.05582e-30 8.31143e-16)
(1.06744e-15 1.49371e-15 3.75476e-30 9.28432e-17 1.21201e-30 8.39714e-16)
(3.72476e-15 9.37404e-15 -2.68834e-30 -3.09388e-15 -2.32488e-31 1.36912e-15)
(1.65038e-05 8.72805e-11 2.62334e-27 1.65037e-05 -7.07649e-27 1.65038e-05)
(2.29933e-05 2.3054e-16 9.6156e-32 2.29933e-05 -2.48073e-32 2.29933e-05)
(9.57898e-05 1.20787e-15 -4.21292e-31 9.57898e-05 -6.14435e-31 9.57898e-05)
(0.000171103 6.5282e-16 -2.95842e-29 0.000171103 -4.8937e-31 0.000171103)
(0.000434447 -4.22415e-14 2.43595e-29 0.000434447 1.39417e-30 0.000434447)
(0.00275282 -2.48436e-12 -1.28386e-27 0.00275282 4.10072e-28 0.00275282)
(0.0575438 -7.3566e-10 -4.48498e-24 0.0575438 -3.19057e-24 0.0575438)
(8.09731e-07 -3.40874e-10 -1.55923e-25 8.09664e-07 -5.63329e-25 8.09702e-07)
(6.29514e-06 -4.5208e-12 -6.13285e-26 6.29514e-06 5.02996e-27 6.29514e-06)
(0.183709 -0.00606988 2.43598e-17 0.177135 7.08362e-17 0.179945)
(0.178396 -0.00929192 4.13198e-20 0.178533 -7.90972e-21 0.179087)
(0.0821868 -0.00965265 -1.06924e-19 0.0798393 1.84194e-17 0.0827634)
(0.0753504 -0.00394738 -4.09642e-18 0.0487437 -1.80904e-17 0.0602343)
(4.81629 -0.967553 2.25861e-15 3.101 -1.16269e-15 3.61877)
(0.012221 -0.00339362 3.92394e-19 -0.00145313 1.17872e-19 0.00546753)
(0.00877217 -0.00210842 -1.1107e-18 -0.00542573 -1.49362e-18 0.00171305)
(0.00551692 -0.000426978 -5.48703e-19 -0.00405621 8.15595e-19 0.000760699)
(0.00278159 0.000304812 1.05802e-18 -0.00202715 4.2137e-19 0.000383638)
(0.00403243 0.00128044 -4.62774e-19 -0.0028402 -2.74017e-18 0.000596914)
(0.00482125 0.00271476 -1.51719e-18 -0.0031539 1.68857e-18 0.000819626)
(0.00416474 0.00367474 3.8904e-18 -0.00235652 2.89158e-18 0.000895912)
(0.00285888 0.00387187 -1.42876e-18 -0.0011308 -2.80932e-18 0.000864854)
(0.001679 0.00367635 -2.66273e-18 -3.34507e-05 -9.75538e-19 0.000826176)
(0.000748556 0.0031919 -1.88149e-18 0.000807064 7.75337e-19 0.000782141)
(0.000123079 0.00257768 2.14859e-18 0.00134279 -9.9336e-20 0.000737778)
(-0.000259568 0.00222911 -1.49461e-18 0.00182569 -8.51348e-19 0.000790153)
(-0.000361747 0.0013642 -1.22927e-18 0.00160541 8.77209e-19 0.000631208)
(-0.00026127 0.00065391 7.5784e-19 0.00107132 2.447e-19 0.000414886)
(-0.000228806 0.000447127 -1.17991e-18 0.00101488 2.41483e-19 0.000406791)
(-0.000186662 0.000318253 -1.92115e-19 0.00101822 -6.93997e-19 0.000435393)
(-0.000139785 0.00023774 3.14249e-19 0.00111773 4.00049e-19 0.00051823)
(-6.70578e-05 0.000157876 -1.6757e-18 0.00119034 1.39341e-19 0.000602057)
(2.12302e-05 7.91515e-05 6.85966e-19 0.00118509 -3.85275e-20 0.00065262)
(0.000104579 1.17425e-05 -2.72631e-18 0.0011349 2.74321e-19 0.000675728)
(0.000173503 -4.30772e-05 -2.6572e-19 0.00105534 7.452e-20 0.000673695)
(0.000228364 -8.76004e-05 2.037e-18 0.000965265 4.41106e-20 0.000656758)
(0.00027645 -0.000125203 1.80692e-18 0.000879823 -3.5179e-19 0.000636809)
(0.000327817 -0.000155437 -1.50657e-18 0.000797486 1.21696e-19 0.000620763)
(0.000383526 -0.000170859 -1.76318e-20 0.000716876 6.75748e-21 0.000609099)
(0.000433871 -0.000169955 -1.3421e-18 0.000645301 2.03593e-19 0.00059889)
(0.000476821 -0.000160789 -1.05774e-20 0.000585526 4.1669e-22 0.000593587)
(0.000512407 -0.000147969 1.18335e-22 0.000535659 6.19276e-21 0.000591233)
(0.000542991 -0.000133406 3.33905e-21 0.000495316 -4.27147e-22 0.000591497)
(0.000561365 -0.00011637 4.57014e-19 0.000456651 2.92183e-20 0.000585224)
(0.000576093 -0.000100058 -1.93119e-22 0.000430983 -6.32024e-20 0.000581342)
(0.000630962 -9.09663e-05 -2.75051e-20 0.000446267 -4.07769e-21 0.000621833)
(0.000689507 -8.09991e-05 -3.21787e-18 0.000471735 -4.57939e-19 0.000667912)
(0.000767308 -7.24641e-05 -3.23452e-18 0.000516675 -2.25307e-19 0.000733365)
(0.000628906 -4.74219e-05 -5.47071e-22 0.000422755 3.20371e-21 0.000594905)
(0.00172446 -0.000127027 -1.20602e-17 0.00115306 -2.91497e-18 0.00160111)
(3.32883e-05 -2.61917e-06 -7.63213e-21 2.15093e-05 5.34316e-20 3.02511e-05)
(0.0696071 -0.00834111 9.41914e-19 0.0319208 1.92884e-19 0.0566641)
(4.65792 0.804453 -7.72091e-14 2.00767 -1.12323e-14 3.33568)
(0.011756 -0.0067367 7.94565e-19 -0.00618883 7.80409e-19 0.00273274)
(0.0106218 -0.00816814 -5.74455e-19 -0.00490183 -5.37242e-19 0.00281793)
(0.00877259 -0.00961372 -2.3255e-20 -0.00363825 -6.83896e-20 0.00249164)
(0.00672351 -0.0107528 -1.436e-19 -0.00191838 6.04467e-20 0.00230719)
(0.00449475 -0.0115323 7.55183e-18 3.26802e-05 7.60572e-18 0.00214602)
(0.00210559 -0.011202 -4.71183e-18 0.00225224 -5.41861e-18 0.00202289)
(-1.84351e-05 -0.0104883 -2.63169e-19 0.00432248 1.04473e-18 0.00196109)
(-0.00184692 -0.00948567 1.53285e-17 0.00615646 1.40229e-17 0.00191979)
(-0.00335333 -0.00821195 -3.0666e-18 0.00771346 3.36522e-19 0.00188513)
(-0.00450821 -0.00678746 -1.72525e-17 0.00897314 -1.13449e-17 0.00187111)
(-0.00532339 -0.00528555 5.44924e-18 0.00996406 4.4035e-18 0.0018764)
(-0.00581436 -0.00375163 -1.47974e-17 0.0107035 -4.8304e-18 0.00190053)
(-0.00598981 -0.00223228 -5.80001e-18 0.0111956 -2.19467e-18 0.00194348)
(-0.00588818 -0.000772212 -1.01607e-17 0.0115066 5.35278e-18 0.00200851)
(-0.00549463 0.000601655 9.05272e-19 0.0115919 5.01289e-19 0.00208415)
(-0.00480508 0.00183053 8.4626e-18 0.0113952 1.87013e-18 0.00215647)
(-0.0039796 0.00294343 1.28806e-17 0.0112906 1.8248e-17 0.0022996)
(-0.0029673 0.00407063 5.30798e-17 0.0113065 1.41247e-17 0.00260652)
(-0.00159968 0.0051253 -2.34753e-17 0.011057 -8.81687e-19 0.00302897)
(9.6877e-05 0.00591959 2.32401e-17 0.0103305 1.00889e-17 0.00349997)
(0.00192041 0.00614737 3.52007e-18 0.00890992 -1.05041e-17 0.00386034)
(0.00249639 0.00408323 -2.5093e-18 0.00506803 4.55585e-18 0.00286631)
(0.000712919 0.000752273 -2.93805e-18 0.000828547 -1.66567e-18 0.000617543)
(0.000479994 0.000356638 6.22952e-20 0.000372286 -7.47263e-20 0.00035411)
(9.03454e-16 5.50175e-16 2.08583e-31 5.01469e-16 -4.44855e-32 5.95077e-16)
(6.66668e-16 1.82122e-21 4.58967e-36 6.66666e-16 -1.35524e-36 6.66666e-16)
(6.66667e-16 8.23183e-27 -7.59046e-42 6.66667e-16 -2.6624e-42 6.66667e-16)
(6.66667e-16 7.96673e-27 -7.33487e-42 6.66667e-16 -3.64582e-43 6.66667e-16)
(6.66667e-16 1.16269e-26 6.61463e-41 6.66667e-16 2.78488e-41 6.66667e-16)