/*--------------------------------*- C++ -*----------------------------------*\
| =========                 |                                                 |
| \\      /  F ield         | OpenFOAM: The Open Source CFD Toolbox           |
|  \\    /   O peration     | Version:  2312                                  |
|   \\  /    A nd           | Website:  www.openfoam.com                      |
|    \\/     M anipulation  |                                                 |
\*---------------------------------------------------------------------------*/
FoamFile
{
    version     2.0;
    format      ascii;
    arch        "LSB;label=32;scalar=64";
    class       volScalarField;
    location    "400";
    object      turbulenceProperties:epsilon;
}
// * * * * * * * * * * * * * * * * * * * * * * * * * * * * * * * * * * * * * //

dimensions      [0 2 -3 0 0 0 0];

internalField   nonuniform List<scalar> 
10720
(
0.0452379
0.0780403
0.115066
0.150262
0.178843
0.206863
0.241717
0.287243
0.355893
0.462472
0.63345
0.91602
1.40539
2.30357
4.13689
8.53632
20.9906
67.8517
243.961
564.092
947.106
1472.44
2474.49
4510.85
8198.97
11359.6
12756.4
28045
48628.2
24196.5
7700.57
1147.55
254.786
28.8909
5.99025e-14
4.64045e-14
0.324409
11.2058
64.7309
0.0335241
0.0217986
0.0158346
0.0636562
0.0143591
0.0284511
0.0404302
0.0498061
0.0604674
0.0753168
0.0994316
0.140468
0.207843
0.333635
0.574724
1.31264
3.08697
14.2672
30.8399
44.7985
66.9198
95.031
133.016
198.333
301.426
446.605
502.48
372.538
180.266
55.4712
8.44744
0.477705
0.110368
0.0373173
0.0111798
0.000230998
3.18589e-06
47.5789
3320.14
0.00812227
0.0109344
0.00857891
0.00668112
0.00480291
0.0033467
0.00241527
0.00181507
0.00179525
0.00112986
0.000390376
0.000811408
0.000809997
0.000958428
0.00220568
0.00498339
0.0127863
0.0330892
0.131474
1.15303
6.62596
21.0086
54.2085
119.695
507.136
1229.12
4680.96
18567.1
15109.5
3988.1
1452.36
768.583
215.846
30.8692
0.718677
2.00582e-14
1.48864e-14
2.31632
41.2477
0.00157351
0.000324658
0.000247488
0.00489258
0.0035349
0.00288675
0.00220895
0.00218291
0.00213929
0.0021034
0.00203191
0.00191605
0.0017417
0.00154481
0.000750354
0.00022584
0.00588123
0.00686497
0.000102602
0.237624
0.246679
0.0630631
0.422784
0.146087
0.513232
1.39721
2.05349
1.94922
1.62462
1.02651
0.620771
0.30636
0.128256
0.046473
0.0148721
0.00460893
6.88761e-05
3.65216
296.144
0.000433292
0.000268178
0.000244008
0.000181958
0.000184117
0.00020265
0.00023078
0.000265679
0.000309468
0.000394333
0.000439236
0.000476539
0.000558288
0.000531995
0.00077597
0.00235031
0.0053011
0.0142014
0.0409829
0.0934353
0.0575456
0.891988
2.24803
5.58062
14.2151
27.7038
645.588
4332.49
6022.46
4100.98
1566.73
558.202
271.329
74.9811
6.5348
0.726705
1.59185e-14
0.849524
22.7199
0.000396724
0.00237724
0.00389568
0.00410586
0.00251158
0.00110136
0.000746759
0.000811567
0.000935721
0.00108302
0.00126384
0.00148045
0.00166985
0.00184655
0.00205195
0.00210072
0.00217081
0.00168605
0.000745626
0.00364182
0.00387068
0.000224892
0.000264189
0.000882453
0.00278663
0.00777789
0.00102581
0.0180601
0.0169608
0.000719221
0.000829831
0.00491172
0.000172835
0.000909757
0.00158069
0.00227971
3.32389e-05
0.0493238
11.6142
0.0021166
0.00212521
0.00221646
0.0023183
0.00241197
0.00249888
0.00257641
0.00264313
0.00270296
0.0027598
0.00281218
0.00286238
0.00291623
0.00295561
0.00303614
0.00318595
0.00314921
0.00238928
0.000935162
0.000457781
3.88277e-16
2.74909e-16
2.03694e-17
5.863e-17
0.0101655
24.6117
747.101
1987.88
1383.06
924.892
525.586
204.497
27.1472
21.4218
9.75877
1.42878
0.237647
0.579788
13.0152
0.0042158
0.00387506
0.00223872
0.000603018
0.000361328
0.000188819
0.000157762
0.000168054
0.000185639
0.000206333
0.000231243
0.000269658
0.000289121
0.000302872
0.000339571
0.000363828
7.78944e-05
0.000250433
0.000454696
0.000673026
0.000881745
0.00102571
0.00115754
0.0011954
0.00130507
0.00133987
0.00142827
0.00146469
0.00149867
0.00155443
0.001558
0.00151672
0.00146717
0.00145587
0.00137188
0.00220051
3.74819e-05
0.040085
0.646128
0.0040011
0.0035466
0.00346122
0.00342416
0.00339658
0.00337684
0.00337549
0.00338697
0.00340952
0.00344329
0.00348874
0.00354699
0.00361829
0.0037058
0.00380778
0.00392599
0.00405167
0.00423552
0.00437361
0.00257079
0.000745251
0.000417954
4.01223e-16
2.94333e-16
4.15408e-17
2.53439
1.48574e+06
2.66821e+06
1.71366e+06
1.25387e+06
1.7767e+06
3.66333e+06
0.00195206
9.01194
1.2341
1.18819
0.667705
0.459649
12.2823
0.00285012
0.000890106
0.000393966
0.000200089
0.000314911
0.000439545
0.000480747
0.000464372
0.000446319
0.000425933
0.000405475
0.00043827
0.000352865
0.000233534
0.000230643
0.00024878
0.000298822
0.000351127
0.000386263
0.000405346
0.000408834
0.000402917
0.000395156
0.000388998
0.000384635
0.00038139
0.000379721
0.000378237
0.000376932
0.000370929
0.000366816
0.000390406
0.000416844
0.000453689
0.000364299
0.000969295
1.78155e-05
0.0317915
0.142106
0.00143036
0.00147449
0.00132824
0.00124693
0.00117829
0.00113308
0.00111782
0.00111696
0.00112608
0.00114974
0.00119123
0.00125145
0.00133035
0.00143476
0.00155834
0.00169006
0.00188733
0.00218821
0.0025464
0.00290538
0.00314442
0.00229626
0.000485305
0.000268646
3.89767e-16
9.7018e-11
1.95433e-05
1.89918e-05
1.12607e-05
4.66799e-06
1.50643e-06
3.74539e-07
21.0075
42.9388
1.14016
2.38631
0.828823
8.16764
71.6962
0.0005017
0.000175108
0.00037373
0.00103582
0.00207779
0.00246564
0.00250404
0.00252039
0.00253875
0.00255894
0.00258108
0.00260484
0.00265256
0.00268557
0.00271798
0.00275449
0.0027924
0.00282624
0.0028531
0.00286193
0.0028574
0.0028429
0.00282159
0.00279584
0.00276928
0.00274099
0.00270388
0.00265858
0.0026027
0.00253116
0.00244045
0.00231163
0.00215863
0.00199833
0.00178125
0.00175493
3.49308e-05
0.0232257
0.825957
0.00015837
0.000174351
0.000177758
0.000174748
0.000185498
0.000193547
0.000201255
0.000211899
0.00022335
0.000235812
0.000251703
0.000270676
0.000292921
0.000329601
0.000357038
0.000375676
0.000421549
0.00049843
0.000158458
0.0005482
0.00105124
0.00154522
0.00183714
0.00144087
0.000478274
0.0716664
8.62801e-06
1.42133e-05
1.23783e-05
7.03241e-06
2.99516e-06
1.06599e-06
3.80136e-07
1.50465e-07
3.05754
16.4081
19.2948
2.67935e-09
3439.54
0.000241789
0.000678556
0.00197648
0.00253379
0.00252369
0.00244304
0.00249046
0.00253872
0.00260048
0.00267248
0.00275278
0.00284091
0.00293789
0.00303868
0.00314914
0.00327478
0.0033794
0.00346093
0.00351672
0.00354862
0.00356129
0.00355919
0.0035458
0.00352483
0.00350095
0.00347013
0.00342379
0.00336603
0.00329438
0.00320646
0.00310938
0.00296787
0.00281874
0.0027068
0.0024442
0.00225066
0.000216402
0.0112262
0.563136
0.000394858
4.52318e-05
0.000117554
0.000183325
0.000297092
0.000362643
0.000418549
0.000466596
0.000506591
0.000539777
0.00056824
0.000592809
0.000613976
0.000693665
0.000684143
0.000604531
0.000618036
0.000627687
0.000599379
0.000616557
0.000768437
0.00103694
0.00139147
0.00159992
0.00207527
0.17408
1012.62
9.21104e-06
1.10939e-05
8.33689e-06
4.51029e-06
2.04059e-06
9.40477e-07
5.15221e-07
3.31454e-07
1.5977e-07
5.90682e-08
2.59856e-08
1.0578e-07
0.00134799
0.00237577
0.0022147
0.0014469
0.000691057
0.000584756
0.000611235
0.000655556
0.000713463
0.000785079
0.000869021
0.000964951
0.00107527
0.00119807
0.00133625
0.00147446
0.00157914
0.0016477
0.00169103
0.00171906
0.00173144
0.00173213
0.00172473
0.00171494
0.00170342
0.00168635
0.00166375
0.00163705
0.00160496
0.00156696
0.00153109
0.0015159
0.00152342
0.00151824
0.00147209
0.00161941
0.000725804
0.00370657
0.196507
0.00180996
0.00176967
0.00185825
0.00193101
0.00199961
0.00206478
0.00212107
0.00217104
0.00221764
0.00226084
0.00230178
0.00234157
0.00238105
0.00242097
0.00246766
0.00251503
0.00256609
0.0026176
0.00272656
0.00261978
0.00234814
0.00223235
0.00220983
0.00207691
0.00280112
0.247272
1403.45
5.42245e-06
8.69588e-06
8.41505e-06
5.66506e-06
3.11777e-06
1.70117e-06
1.04576e-06
7.24705e-07
4.26722e-07
1.97783e-07
9.84658e-08
3.52136e-08
0.00241602
0.00166281
0.000581086
0.000256915
9.2227e-05
8.07032e-05
8.58355e-05
9.21408e-05
0.000100435
0.000111143
0.00012324
0.000137582
0.000155289
0.000175792
0.000200057
0.000226128
0.000248985
5.55671e-06
1.79082e-05
2.25635e-05
2.1554e-05
1.67651e-05
9.82407e-06
3.30634e-06
0.000326665
0.000329243
0.000330572
0.000330608
0.000329205
1.71222e-06
5.36463e-06
2.93695e-05
8.58191e-05
0.000170443
0.000275235
0.00039278
0.000615008
0.000503344
0.0256182
0.00207439
0.00188691
0.00186162
0.00186025
0.00185275
0.00185002
0.00185591
0.00186853
0.00188907
0.00191748
0.00195333
0.00199708
0.00204976
0.00211288
0.00218832
0.00227723
0.0023789
0.0025016
0.00265073
0.00280689
0.00289499
0.00284678
0.00278425
0.00257496
0.00303886
0.261273
1466.82
2.9763e-06
6.16502e-06
7.50847e-06
6.19645e-06
4.06387e-06
2.54036e-06
1.70013e-06
1.23751e-06
8.20788e-07
4.37509e-07
2.4126e-07
1.20048e-07
0.00109575
0.000115102
9.76094e-05
8.0632e-05
0.0001089
0.000117258
0.000121151
0.00012149
0.000121141
0.000121048
0.000120091
0.000119494
0.000119818
0.000120546
0.000122126
0.000124658
0.000127698
0.000131655
0.000136811
0.000140771
0.000143724
0.000145949
0.000147868
0.000149633
0.000151176
0.000152671
0.000153484
0.000153619
0.000152968
0.0001519
0.000150321
0.000150539
0.000152234
0.000156635
0.00016425
0.000175156
0.000115324
2.47674e-06
0.00587229
0.000552098
0.000605601
0.000526337
0.000491621
0.000462009
0.000439727
0.000428601
0.000426767
0.000434318
0.000450682
0.000475394
0.000508925
0.000552058
0.000606551
0.000675979
0.000760428
0.000859218
0.000973644
0.00114653
0.00140717
0.00167663
0.00189909
0.00210306
0.00213481
0.00267063
0.227942
1275.35
1.54355e-06
4.024e-06
6.05255e-06
6.04107e-06
4.66366e-06
3.29306e-06
2.37485e-06
1.79329e-06
1.27632e-06
7.48778e-07
4.47897e-07
2.74723e-07
0.000199948
7.00281e-05
5.35657e-05
0.000583347
0.000767338
0.000799384
0.000813668
0.000819585
0.000820959
0.00082066
0.000819936
0.000818568
0.000816403
0.000814118
0.000812971
0.000812284
0.000809936
0.000806417
0.000802106
0.000797269
0.000792111
0.000787275
0.000782857
0.000777809
0.000771167
0.000762638
0.00075178
0.000738879
0.000723535
0.000706086
0.000685602
0.000655096
0.000600878
0.000531908
0.000457401
0.000372022
0.00034096
0.000125029
3.36032e-16
6.63265e-05
7.44643e-05
6.91469e-05
6.39649e-05
6.42306e-05
6.58292e-05
6.66762e-05
6.90183e-05
7.23392e-05
7.62868e-05
8.17488e-05
8.85381e-05
9.68875e-05
0.000111932
0.000122268
0.000130642
0.000149424
0.000172222
0.000210369
6.99641e-05
0.000286487
0.000563341
0.000863177
0.00105298
0.00171533
0.151726
851.34
7.62163e-07
2.44988e-06
4.47385e-06
5.32945e-06
4.79469e-06
3.79639e-06
2.94115e-06
2.33064e-06
1.73851e-06
1.09876e-06
7.04884e-07
4.94265e-07
0.000129885
0.000397068
0.000995685
0.00118624
0.00119123
0.00120237
0.0012147
0.00122562
0.0012359
0.0012458
0.00125627
0.00126685
0.00127683
0.00128645
0.00129481
0.00129975
0.00130189
0.0013016
0.00129927
0.00129531
0.00129027
0.00128449
0.00127722
0.00126728
0.00125417
0.00123814
0.00121904
0.00119732
0.00117228
0.00114455
0.00111441
0.00108289
0.0010296
0.000968375
0.000904645
0.000793658
0.000643119
0.000506878
9.63708e-05
0.000186909
0.000106343
0.00011688
7.67885e-06
2.8974e-05
5.2e-05
6.9977e-05
8.3911e-05
9.50652e-05
0.000103358
0.000109518
0.000114286
0.000117845
0.000150645
0.000133316
8.50508e-05
8.53089e-05
9.19236e-05
9.69351e-05
8.57891e-05
9.5199e-05
0.000163219
0.000312596
0.000423208
0.000954846
0.0906331
513.096
3.59932e-07
1.40308e-06
3.06496e-06
4.30255e-06
4.46742e-06
3.94546e-06
3.28287e-06
2.71325e-06
2.12909e-06
1.45211e-06
9.99756e-07
7.64732e-07
0.000638302
0.0010928
0.000998463
0.000700004
0.000627766
0.000616863
0.000619035
0.000625732
0.000634231
0.00064241
0.000650883
0.000659991
0.000669428
0.000677965
0.000685142
0.000690874
0.000695072
0.000697679
0.000698772
0.000698526
0.000696893
0.000693625
0.000688666
0.000682212
0.000674464
0.000665593
0.000655641
0.000644806
0.000632748
0.000619521
0.000605264
0.000593752
0.000592558
0.000595002
0.000596752
0.000586537
0.000549538
0.000524874
0.000352412
0.000837181
0.000821742
0.00083619
0.000861186
0.000882702
0.000900855
0.000914896
0.000926235
0.000936624
0.000946347
0.000955816
0.000965132
0.00097414
0.000982698
0.000995321
0.00100432
0.00101211
0.00101929
0.00102563
0.00101143
0.000999221
0.000879754
0.000735516
0.000646521
0.000848853
0.0746337
0.00216811
0.00139454
7.60162e-07
1.96133e-06
3.2069e-06
3.80701e-06
3.73191e-06
3.33497e-06
2.8739e-06
2.37346e-06
1.75284e-06
1.10535e-06
8.80972e-07
0.00111909
0.000754257
0.000291478
5.30288e-06
9.00535e-05
9.0468e-05
9.16597e-05
9.16259e-05
9.17708e-05
9.21937e-05
9.18406e-05
9.1759e-05
9.25241e-05
9.35547e-05
9.51348e-05
9.73228e-05
9.9786e-05
0.000102674
1.4129e-06
3.15152e-06
4.31591e-06
5.00717e-06
5.37477e-06
5.81086e-06
6.56467e-06
7.50516e-06
8.63783e-06
9.94505e-06
1.14548e-05
1.31845e-05
1.43907e-05
1.52754e-05
3.24638e-05
6.66563e-05
0.000111415
0.000167758
0.000228932
0.00028855
0.00029522
0.00101828
0.00093826
0.000929381
0.000921329
0.000912193
0.000906016
0.000903973
0.00090498
0.000909186
0.000916224
0.000925605
0.000936696
0.000948898
0.000963479
0.000979921
0.000996573
0.00101322
0.00103011
0.00104947
0.00107201
0.00109032
0.00107502
0.00100713
0.000892573
0.00092315
0.0602295
0.02606
0.0208741
3.91046e-07
1.17899e-06
2.22237e-06
2.99011e-06
3.23769e-06
3.10575e-06
2.79908e-06
2.42237e-06
1.51787e-06
1.29954e-07
7.48605e-09
0.000553455
7.27851e-05
4.93038e-05
1.72706e-05
2.0235e-05
2.24146e-05
2.35499e-05
2.37822e-05
2.37872e-05
2.37803e-05
2.3439e-05
2.30604e-05
2.28775e-05
2.27421e-05
2.27627e-05
2.29729e-05
2.33073e-05
2.37621e-05
2.45327e-05
2.54428e-05
2.63208e-05
2.71677e-05
2.7978e-05
2.87308e-05
2.93583e-05
2.98957e-05
3.03865e-05
3.08333e-05
3.12256e-05
3.15538e-05
3.16785e-05
3.14793e-05
3.32155e-05
3.70501e-05
4.47746e-05
4.99178e-05
5.66386e-05
5.84241e-05
0.000135907
0.000295375
0.000313168
0.000260003
0.000251858
0.00025121
0.000251372
0.000252779
0.000255861
0.000260727
0.000267389
0.000275902
0.000286239
0.000298255
0.000311885
0.000325831
0.000341644
0.000361126
0.000382276
0.000403586
0.000441553
0.000518961
0.000601056
0.000663967
0.000685817
0.000736143
0.0310562
0.0412901
0.0407354
1.91435e-07
6.68394e-07
1.43987e-06
2.17876e-06
2.59342e-06
2.66777e-06
2.52068e-06
2.24304e-06
1.95878e-08
1.15766e-13
2.26463e-15
0.00010448
2.55269e-05
7.25671e-05
0.000112762
0.000135157
0.000145709
0.000151875
0.000155465
0.00015769
0.00015923
0.000160034
0.000160203
0.000160098
0.000159802
0.000159361
0.000158882
0.000158404
0.000157909
0.000157428
0.000156945
0.000156409
0.000155777
0.000155029
0.000154107
0.000152889
0.000151355
0.000149508
0.000147396
0.000144954
0.000142136
0.000139006
0.000134816
0.000124239
0.000106945
9.68655e-05
6.32436e-05
2.42634e-05
3.31127e-05
8.03326e-05
3.75417e-05
4.05902e-05
3.61003e-05
3.38012e-05
3.42266e-05
3.48605e-05
3.4714e-05
3.52454e-05
3.60022e-05
3.68109e-05
3.81787e-05
3.98656e-05
4.19035e-05
4.44204e-05
4.71254e-05
5.02882e-05
5.41597e-05
5.84573e-05
6.2934e-05
7.02108e-05
8.9344e-05
6.49062e-05
0.000161223
0.000260556
0.000356453
0.00938226
0.0370589
0.0446117
8.92972e-08
3.58325e-07
8.75804e-07
1.48075e-06
1.92956e-06
2.12558e-06
2.10801e-06
8.08528e-07
4.38083e-13
2.07804e-15
5.3672e-16
4.16881e-05
0.000122777
0.000412578
0.000486088
0.000500452
0.000507342
0.000511636
0.000514172
0.00051561
0.000516563
0.000517128
0.000517222
0.000517011
0.000516536
0.000515785
0.000514843
0.000513675
0.000512215
0.000510451
0.000508342
0.000505786
0.000502666
0.000498938
0.000494452
0.000489021
0.000482744
0.000475664
0.000467902
0.00045929
0.000449594
0.000439166
0.000428041
0.000412184
0.000386788
0.000352378
0.000304437
0.000255521
0.000184971
0.000144923
6.60489e-05
4.28816e-05
4.93391e-05
4.81759e-05
4.95475e-05
5.0768e-05
5.02268e-05
5.01639e-05
4.99667e-05
4.93818e-05
4.91901e-05
4.90388e-05
4.89722e-05
4.96653e-05
5.0292e-05
5.09478e-05
5.158e-05
5.22492e-05
5.29747e-05
5.36466e-05
5.23109e-05
5.85284e-05
7.18106e-05
2.14092e-05
8.32795e-05
0.00189711
0.0236414
0.0344485
3.97121e-08
1.81966e-07
5.01648e-07
9.42692e-07
1.34039e-06
1.57953e-06
1.64536e-06
9.63951e-07
3.11673e-12
2.56139e-15
3.32659e-15
0.000206322
0.000497931
0.000452465
0.000409504
0.000404963
0.000401792
0.000399138
0.000397151
0.000395641
0.000394624
0.000394234
0.000394178
0.00039419
0.000394214
0.000394161
0.000393949
0.000393498
0.000392739
0.000391619
0.000390106
0.000388125
0.000385606
0.000382523
0.00037882
0.000374463
0.000369565
0.000364148
0.00035826
0.000351827
0.000344676
0.000336905
0.000329704
0.000325313
0.000320832
0.000312867
0.000299805
0.000278235
0.00023324
0.000188952
0.000311116
0.000317728
0.000341187
0.000345833
0.000350856
0.000353723
0.000354304
0.000353076
0.00035081
0.000347984
0.000344949
0.000341939
0.000338878
0.000339461
0.000338933
0.000337673
0.000335669
0.000333431
0.000331325
0.000328821
0.000314367
0.000282552
0.000251032
0.000208353
0.000157781
0.000768709
0.0253727
0.0444417
1.68405e-08
8.76412e-08
2.71225e-07
5.64151e-07
8.73225e-07
1.10032e-06
1.20588e-06
8.92602e-07
1.38949e-11
4.60168e-13
8.67566e-16
0.000511208
0.000360297
0.000154499
9.07643e-05
8.28293e-05
7.91166e-05
7.60923e-05
7.36014e-05
7.17257e-05
7.04599e-05
6.9697e-05
6.93142e-05
6.91946e-05
6.9271e-05
6.94697e-05
6.97461e-05
7.00604e-05
7.03833e-05
7.06834e-05
7.09464e-05
7.11525e-05
7.1284e-05
7.13498e-05
7.13647e-05
7.13107e-05
7.11627e-05
7.09136e-05
7.0553e-05
7.00743e-05
6.94379e-05
6.85337e-05
6.75868e-05
7.08324e-05
8.23875e-05
9.91822e-05
0.000123304
0.000148609
0.000158757
0.000151281
0.000493129
0.000456951
0.000458739
0.000457257
0.000452057
0.000445421
0.000438863
0.000432594
0.000427034
0.000422444
0.000418773
0.000415896
0.000413632
0.000411923
0.000410758
0.000409737
0.000408511
0.000407298
0.000406362
0.000406626
0.000404961
0.000396451
0.000375447
0.000337212
0.000279157
0.000510907
0.0312885
0.0654771
6.81091e-09
4.00703e-08
1.3869e-07
3.18309e-07
5.3557e-07
7.21859e-07
8.34085e-07
7.34649e-07
4.73437e-11
4.0328e-17
5.33024e-16
0.000315053
5.04355e-05
2.82857e-05
1.33048e-05
1.23708e-05
1.21188e-05
1.17184e-05
1.11356e-05
1.06417e-05
1.02803e-05
9.88109e-06
9.55381e-06
9.36331e-06
9.22924e-06
9.18775e-06
9.2586e-06
9.39683e-06
9.61089e-06
9.88666e-06
1.02134e-05
1.05738e-05
1.09616e-05
1.137e-05
1.17553e-05
1.2068e-05
1.23322e-05
1.25753e-05
1.27922e-05
1.29801e-05
1.31285e-05
1.3212e-05
1.32736e-05
1.41557e-05
1.674e-05
2.04706e-05
2.64463e-05
1.61985e-05
5.43294e-05
8.29399e-05
0.00021486
0.00020991
0.000184733
0.000169651
0.000157933
0.000148958
0.00014286
0.000139017
0.000136892
0.000136141
0.000136423
0.000137493
0.000139152
0.000141339
0.00014404
0.000147137
0.000150495
0.000154187
0.00015841
0.000163538
0.000175081
0.000197358
0.000219443
0.00023547
0.000231144
0.000329509
0.0277689
0.0690572
2.62779e-09
1.74093e-08
6.7194e-08
1.69783e-07
3.10326e-07
4.4779e-07
5.46969e-07
5.43266e-07
1.29926e-10
2.97302e-15
1.47916e-15
1.4653e-06
7.47335e-06
2.02243e-05
2.30913e-05
2.41693e-05
2.52612e-05
2.58198e-05
2.56008e-05
2.51606e-05
2.46857e-05
2.38388e-05
2.29625e-05
2.23193e-05
2.17285e-05
2.13205e-05
2.11673e-05
2.11568e-05
2.13206e-05
2.16389e-05
2.20702e-05
2.25847e-05
2.31605e-05
2.3787e-05
2.43362e-05
2.46795e-05
2.48992e-05
2.50719e-05
2.51913e-05
2.52529e-05
2.52401e-05
2.51451e-05
2.49804e-05
2.4776e-05
2.34838e-05
2.08243e-05
1.70576e-05
1.67582e-05
2.13263e-05
2.60756e-05
2.87595e-05
2.85055e-05
2.68176e-05
2.36609e-05
2.22671e-05
2.12819e-05
2.00769e-05
1.95051e-05
1.91745e-05
1.89189e-05
1.89775e-05
1.91668e-05
1.94707e-05
1.99515e-05
2.055e-05
2.12699e-05
2.20851e-05
2.3e-05
2.40369e-05
2.52476e-05
2.74887e-05
3.37972e-05
2.64728e-05
6.41658e-05
9.40689e-05
0.000176512
0.0173945
0.0511587
9.67486e-10
7.19421e-09
3.08991e-08
8.58298e-08
1.70416e-07
2.63655e-07
3.415e-07
3.72149e-07
3.04385e-10
1.01834e-14
6.97361e-16
9.84599e-06
4.29832e-06
0.000134313
0.00015298
0.000157212
0.000160244
0.000163051
0.000164881
0.00016563
0.000165653
0.000165229
0.000164498
0.000163596
0.000162618
0.000161579
0.000160497
0.000159376
0.000158204
0.000156975
0.000155679
0.000154292
0.000152769
0.00015109
0.000149242
0.000147204
0.000144986
0.0001426
0.000140049
0.000137335
0.000134416
0.000131263
0.000127924
0.000124569
0.000116035
0.000101205
8.16087e-05
6.28482e-05
4.09073e-05
3.57803e-05
2.35233e-05
1.46339e-05
1.63185e-05
1.59788e-05
1.62708e-05
1.64567e-05
1.60132e-05
1.57393e-05
1.54337e-05
1.502e-05
1.47497e-05
1.45e-05
1.42761e-05
1.41393e-05
1.40346e-05
1.39729e-05
1.39331e-05
1.39199e-05
1.39377e-05
1.39757e-05
1.39394e-05
1.27818e-05
1.48638e-05
1.89881e-05
2.42375e-05
4.50969e-05
0.00583616
0.0202144
3.40063e-10
2.83103e-09
1.35069e-08
4.12148e-08
8.89475e-08
1.47881e-07
2.03775e-07
2.40065e-07
6.29495e-10
1.10409e-13
4.05592e-15
6.74462e-05
0.000209431
0.000244904
0.000244155
0.000244949
0.000244069
0.000243598
0.00024322
0.000242312
0.000240923
0.000239323
0.000237641
0.00023595
0.000234309
0.000232716
0.00023115
0.000229597
0.00022803
0.000226427
0.000224759
0.000222978
0.000221004
0.000218773
0.000216239
0.000213377
0.000210218
0.000206791
0.000203099
0.000199161
0.000194938
0.000190395
0.000185592
0.000181372
0.000175228
0.000165064
0.000151069
0.000130401
9.78906e-05
7.38702e-05
0.000113934
0.000104941
0.000109434
0.000111714
0.000112598
0.00011251
0.000111615
0.00011019
0.00010854
0.000106802
0.000105023
0.000103252
0.000101483
9.97528e-05
9.81033e-05
9.64956e-05
9.48962e-05
9.33741e-05
9.20284e-05
9.07915e-05
8.91697e-05
8.06242e-05
6.61702e-05
5.29361e-05
3.10429e-05
4.4712e-05
0.00532898
0.0244652
1.14138e-10
1.06176e-09
5.61935e-09
1.88406e-08
4.42343e-08
7.92336e-08
1.16551e-07
1.47563e-07
1.17556e-09
6.31875e-13
2.41604e-14
0.00025236
0.000224796
0.000129008
0.000115166
0.000113076
0.00011019
0.000107574
0.000105903
0.000104548
0.000103201
0.000101944
0.000100841
9.98757e-05
9.90392e-05
9.83017e-05
9.76247e-05
9.69865e-05
9.63615e-05
9.57305e-05
9.50726e-05
9.43702e-05
9.35883e-05
9.2693e-05
9.16736e-05
9.05383e-05
8.92815e-05
8.79214e-05
8.64741e-05
8.49326e-05
8.32797e-05
8.15133e-05
7.95752e-05
7.8224e-05
8.02738e-05
8.45738e-05
8.96801e-05
9.20907e-05
8.70091e-05
7.55045e-05
0.000254112
0.000234998
0.000234301
0.000230367
0.000225425
0.000220566
0.000216944
0.000214059
0.000211555
0.000209271
0.000207064
0.000204887
0.000202714
0.000200566
0.000198491
0.000196407
0.00019421
0.000191981
0.000189824
0.000187646
0.000184871
0.00017525
0.000164206
0.000150255
0.000129403
0.000112813
0.00626383
0.00470663
0.00766612
3.79621e-10
2.22769e-09
8.20853e-09
2.10017e-08
4.06472e-08
6.40539e-08
8.70455e-08
2.00416e-09
2.98198e-12
1.19617e-13
0.000190112
7.16336e-05
2.7263e-05
1.73936e-05
1.73864e-05
1.73627e-05
1.70133e-05
1.64027e-05
1.58105e-05
1.52672e-05
1.45345e-05
1.38299e-05
1.3301e-05
1.28185e-05
1.24675e-05
1.22891e-05
1.22145e-05
1.22677e-05
1.24315e-05
1.26851e-05
1.30066e-05
1.33864e-05
1.3809e-05
1.41826e-05
1.44174e-05
1.45696e-05
1.46997e-05
1.48057e-05
1.48845e-05
1.49277e-05
1.49336e-05
1.48915e-05
1.49386e-05
1.56304e-05
1.72254e-05
8.8886e-06
2.50012e-05
4.11793e-05
4.83412e-05
0.000144489
0.000139656
0.000127434
0.000121565
0.000118515
0.000116292
0.000114049
0.000111762
0.000109568
0.000107717
0.000106217
0.000105015
0.000104065
0.000103321
0.000102759
0.000102311
0.000101915
0.000101586
0.00010139
0.000101188
0.00010186
0.000106008
0.000111349
0.000113756
0.000113583
0.000110283
0.00268691
0.00744878
0.0140669
1.2952e-10
8.41918e-10
3.41317e-09
9.53078e-09
1.99863e-08
3.38791e-08
4.94616e-08
3.09961e-09
1.21746e-11
3.2414e-15
2.78071e-05
1.29497e-05
1.8713e-06
3.44076e-06
3.99905e-06
4.62124e-06
5.06203e-06
5.21668e-06
5.24676e-06
5.22741e-06
5.07788e-06
4.88559e-06
4.7281e-06
4.56542e-06
4.43606e-06
4.36627e-06
4.33047e-06
4.34312e-06
4.39844e-06
4.49317e-06
4.61672e-06
4.76823e-06
4.94243e-06
5.10268e-06
5.20358e-06
5.2676e-06
5.3199e-06
5.36045e-06
5.38941e-06
5.40499e-06
5.40564e-06
5.38672e-06
5.32183e-06
4.95448e-06
4.16896e-06
5.26583e-06
6.9345e-06
9.77203e-06
1.57225e-05
2.01965e-05
2.14479e-06
1.92622e-05
1.73956e-05
1.71162e-05
1.69844e-05
1.63124e-05
1.58862e-05
1.54683e-05
1.49915e-05
1.47152e-05
1.44964e-05
1.43414e-05
1.43016e-05
1.43079e-05
1.43775e-05
1.44819e-05
1.46196e-05
1.47883e-05
1.49645e-05
1.54467e-05
1.84257e-06
1.29359e-05
2.68013e-05
4.21981e-05
5.48727e-05
0.000555036
0.00549756
0.0121417
4.22046e-11
3.03637e-10
1.35492e-09
4.13729e-09
9.42893e-09
1.72524e-08
2.71248e-08
4.21603e-09
4.22717e-11
4.03548e-14
4.10979e-06
1.12718e-05
1.21729e-05
2.23733e-05
2.55649e-05
2.88298e-05
3.1466e-05
3.31383e-05
3.4172e-05
3.48492e-05
3.52135e-05
3.53445e-05
3.53679e-05
3.53154e-05
3.52089e-05
3.50833e-05
3.49441e-05
3.47956e-05
3.46396e-05
3.44797e-05
3.43036e-05
3.41015e-05
3.38706e-05
3.36021e-05
3.32725e-05
3.2865e-05
3.23938e-05
3.18669e-05
3.12901e-05
3.06667e-05
2.99968e-05
2.92586e-05
2.83119e-05
2.58326e-05
2.13194e-05
1.75063e-05
9.08816e-06
2.79093e-06
9.98076e-06
4.52609e-06
3.4802e-06
3.041e-06
2.44969e-06
2.1246e-06
1.94681e-06
1.91973e-06
1.97437e-06
2.01717e-06
2.00941e-06
1.99468e-06
1.96497e-06
1.92709e-06
1.89543e-06
1.86504e-06
1.83963e-06
1.81781e-06
1.80027e-06
1.78815e-06
1.77917e-06
1.75813e-06
1.87407e-06
3.06685e-06
4.83878e-06
6.61577e-06
1.10109e-06
5.95212e-05
0.00182973
0.000229124
0.000262172
1.046e-10
5.14177e-10
1.71899e-09
4.26934e-09
8.46146e-09
1.43637e-08
4.78374e-09
1.18472e-10
2.56878e-13
2.19408e-06
7.20515e-05
0.000106326
0.000109008
0.000110563
0.000112051
0.000113069
0.000113348
0.000113076
0.00011252
0.000111817
0.000111023
0.000110224
0.000109438
0.000108657
0.000107895
0.000107134
0.000106352
0.000105539
0.000104679
0.000103748
0.000102706
0.000101533
0.000100227
9.87744e-05
9.71691e-05
9.54465e-05
9.36194e-05
9.16926e-05
8.96722e-05
8.75416e-05
8.52938e-05
8.2954e-05
7.97242e-05
7.43057e-05
6.64743e-05
5.50382e-05
4.23724e-05
3.24228e-05
3.04376e-05
2.23321e-05
1.99956e-05
1.68291e-05
1.44628e-05
1.31018e-05
1.31988e-05
1.36641e-05
1.40629e-05
1.42273e-05
1.42053e-05
1.40654e-05
1.38452e-05
1.35849e-05
1.33134e-05
1.30343e-05
1.27573e-05
1.24946e-05
1.22616e-05
1.20504e-05
1.17735e-05
1.06011e-05
7.31364e-06
4.99148e-06
9.5264e-08
7.50727e-06
3.6998e-06
0.000390781
0.000990992
0.0015853
3.44701e-11
1.867e-10
6.84509e-10
1.85585e-09
3.99703e-09
7.34598e-09
4.37376e-09
2.568e-10
1.20656e-12
0.000113255
0.000127065
9.88679e-05
9.5001e-05
9.33965e-05
9.12725e-05
8.90902e-05
8.70609e-05
8.51911e-05
8.35081e-05
8.21044e-05
8.09247e-05
7.99015e-05
7.90081e-05
7.82174e-05
7.74796e-05
7.6771e-05
7.60611e-05
7.53333e-05
7.45641e-05
7.37369e-05
7.28235e-05
7.18021e-05
7.06724e-05
6.94651e-05
6.81974e-05
6.68877e-05
6.55285e-05
6.4118e-05
6.26608e-05
6.11405e-05
5.95577e-05
5.8116e-05
5.75053e-05
5.73783e-05
5.62619e-05
5.41997e-05
4.84943e-05
3.90597e-05
0.000124114
0.000108508
0.000102893
9.91764e-05
9.64403e-05
9.44189e-05
9.35051e-05
9.291e-05
9.21233e-05
9.11192e-05
8.99823e-05
8.88041e-05
8.76248e-05
8.64694e-05
8.53345e-05
8.41797e-05
8.2977e-05
8.17593e-05
8.05734e-05
7.93959e-05
7.81851e-05
7.65111e-05
7.17243e-05
6.44596e-05
5.5315e-05
4.55495e-05
3.992e-05
0.000288995
0.0022372
0.000491683
0.000386469
6.49675e-11
2.61523e-10
7.75611e-10
1.81942e-09
3.62974e-09
3.28496e-09
4.29101e-10
4.32087e-12
0.000122958
6.0387e-05
2.74597e-05
2.15136e-05
2.00122e-05
1.82712e-05
1.64354e-05
1.48398e-05
1.35501e-05
1.25162e-05
1.16903e-05
1.10385e-05
1.05103e-05
1.00759e-05
9.71703e-06
9.40975e-06
9.1361e-06
8.89498e-06
8.67363e-06
8.47061e-06
8.28613e-06
8.12184e-06
7.9767e-06
7.85006e-06
7.73811e-06
7.64043e-06
7.55359e-06
7.467e-06
7.37816e-06
7.28646e-06
7.18397e-06
7.02961e-06
6.86614e-06
7.6868e-06
1.06827e-05
1.5616e-05
2.17088e-05
2.622e-05
2.6887e-05
0.000101338
9.78215e-05
9.42946e-05
9.16326e-05
8.97701e-05
8.81003e-05
8.70799e-05
8.64585e-05
8.55822e-05
8.45618e-05
8.3481e-05
8.24157e-05
8.14116e-05
8.04649e-05
7.9548e-05
7.86159e-05
7.76331e-05
7.66243e-05
7.56315e-05
7.46454e-05
7.36883e-05
7.34969e-05
7.31141e-05
7.0936e-05
6.78792e-05
6.34845e-05
5.56157e-05
0.000130513
0.00189021
0.00190685
0.00170924
2.17219e-11
9.60715e-11
3.1204e-10
7.9908e-10
1.73433e-09
2.12203e-09
5.59983e-10
1.19852e-11
2.64925e-05
1.13279e-05
4.22945e-06
3.31165e-06
3.12902e-06
2.92253e-06
2.63353e-06
2.3221e-06
2.06272e-06
1.85556e-06
1.65856e-06
1.49168e-06
1.36391e-06
1.25319e-06
1.16629e-06
1.10527e-06
1.05897e-06
1.03075e-06
1.01737e-06
1.01696e-06
1.0269e-06
1.04772e-06
1.07829e-06
1.10857e-06
1.12683e-06
1.14035e-06
1.15605e-06
1.17193e-06
1.18742e-06
1.20203e-06
1.21437e-06
1.21709e-06
1.21708e-06
1.39408e-06
1.98125e-06
2.96053e-06
4.38636e-06
3.32002e-06
1.02594e-05
1.61272e-05
2.55621e-05
2.37521e-05
2.30706e-05
2.28051e-05
2.24741e-05
2.18842e-05
2.15833e-05
2.136e-05
2.10669e-05
2.07682e-05
2.05204e-05
2.03309e-05
2.01895e-05
2.00746e-05
1.99732e-05
1.9878e-05
1.9794e-05
1.97363e-05
1.97009e-05
1.96106e-05
2.0467e-05
2.39048e-05
2.76171e-05
3.23652e-05
3.67394e-05
3.8924e-05
5.4296e-05
0.000644902
0.00216859
4.32335e-06
2.56295e-06
3.40123e-11
1.21111e-10
3.39143e-10
8.02228e-10
1.22973e-09
5.78866e-10
2.59677e-11
5.40792e-06
2.70662e-06
4.51243e-06
5.40058e-06
5.69868e-06
5.94103e-06
6.04202e-06
5.94176e-06
5.78001e-06
5.60492e-06
5.32391e-06
5.02251e-06
4.77148e-06
4.51956e-06
4.30798e-06
4.16341e-06
4.05845e-06
4.00762e-06
4.00966e-06
4.05841e-06
4.14427e-06
4.26764e-06
4.42329e-06
4.56352e-06
4.63421e-06
4.66712e-06
4.69749e-06
4.72298e-06
4.74201e-06
4.75306e-06
4.75452e-06
4.74603e-06
4.72748e-06
4.69231e-06
4.45756e-06
3.97096e-06
3.23031e-06
3.19442e-06
1.08122e-06
2.27162e-06
3.64142e-06
3.60791e-06
3.34808e-06
3.33384e-06
3.31722e-06
3.15476e-06
3.08443e-06
3.02303e-06
2.92692e-06
2.86024e-06
2.80212e-06
2.756e-06
2.73407e-06
2.72017e-06
2.71704e-06
2.72069e-06
2.73052e-06
2.74614e-06
2.76582e-06
2.7755e-06
2.91171e-06
3.41036e-06
3.93439e-06
5.17777e-06
5.16981e-06
1.2234e-05
1.9802e-05
0.000127087
0.0011817
0.00046372
0.000312748
1.16284e-11
4.54504e-11
1.39363e-10
3.5985e-10
6.58778e-10
4.88038e-10