/*--------------------------------*- C++ -*----------------------------------*\
| =========                 |                                                 |
| \\      /  F ield         | OpenFOAM: The Open Source CFD Toolbox           |
|  \\    /   O peration     | Version:  2312                                  |
|   \\  /    A nd           | Website:  www.openfoam.com                      |
|    \\/     M anipulation  |                                                 |
\*---------------------------------------------------------------------------*/
FoamFile
{
    version     2.0;
    format      ascii;
    arch        "LSB;label=32;scalar=64";
    class       volScalarField;
    location    "400";
    object      turbulenceProperties:nuEff;
}
// * * * * * * * * * * * * * * * * * * * * * * * * * * * * * * * * * * * * * //

dimensions      [0 2 -1 0 0 0 0];

internalField   nonuniform List<scalar> 
10720
(
7.7687e-05
0.000123486
0.000159373
0.000165166
0.000148802
0.000132386
0.000124136
0.000124374
0.000134212
0.000154213
0.000188067
0.00024349
0.000337188
0.000504302
0.000817277
0.00143748
0.00271795
0.00575562
0.0115171
0.0197894
0.0325602
0.056466
0.107889
0.217898
0.414029
0.605532
1.27168
2.15511
1.49117
0.532377
0.158255
0.0174745
0.00358746
0.000532598
1e-05
1e-05
4.39742e-05
0.00309181
0.114668
6.04519e-05
7.36357e-05
8.00341e-05
0.000178486
6.21517e-05
0.000111488
0.000154284
0.000180233
0.000182169
0.000176234
0.000177569
0.000192319
0.000222922
0.000286018
0.000383204
0.000610067
0.000959291
0.00278465
0.00339204
0.00411141
0.00608844
0.00780245
0.0100762
0.0138158
0.0188424
0.0243992
0.021943
0.012646
0.00510312
0.00143483
0.0002281
2.3621e-05
1.37474e-05
1.15913e-05
1.06144e-05
1.00165e-05
1.00003e-05
0.00526228
0.327949
0.000248488
0.000258031
0.000303776
0.000224886
0.000137432
8.77005e-05
6.47556e-05
5.43429e-05
5.72625e-05
4.80528e-05
3.2941e-05
4.96704e-05
5.71067e-05
7.6375e-05
0.000189646
0.000470815
0.00124417
0.00323951
0.00777187
0.0157347
0.0280467
0.045725
0.0789101
0.134488
0.385154
0.477975
1.27478
1.4271
1.23127
1.69258
1.03678
0.259596
0.0683301
0.00969556
0.000165474
1e-05
1e-05
0.00323772
0.113244
7.37303e-05
3.21959e-05
3.13347e-05
9.47946e-05
9.71156e-05
0.000104877
9.4105e-05
0.000106277
0.000119583
0.000136038
0.000154422
0.000173816
0.000192675
0.00021355
0.000138958
6.42702e-05
0.00228957
0.00625173
0.0114214
0.000584608
0.0005738
0.0422573
0.062151
2.74802e-05
0.000110083
0.00034234
0.000755469
0.000885526
0.000715361
0.000563108
0.000325039
0.000162495
7.49868e-05
3.53592e-05
1.90301e-05
1.32362e-05
1.00583e-05
0.00392655
0.259704
7.94931e-05
9.32024e-05
9.20443e-05
9.26582e-05
9.50979e-05
9.95181e-05
0.000106163
0.000114152
0.00012307
0.000132353
0.000141478
0.000150132
0.000158502
0.000164945
0.000171756
0.000195688
0.00027322
0.000619089
0.00168582
0.00426821
0.00986185
0.0212058
0.0493498
0.134266
0.219507
0.309795
0.827656
0.817058
0.524403
0.433061
0.40649
0.275664
0.0740113
0.0116339
0.000846776
0.000128204
1e-05
0.000974107
0.180161
0.000107246
0.000104234
0.00014353
0.00014835
0.000121626
0.00010699
0.000109902
0.000119149
0.000134508
0.000158963
0.000195564
0.000247536
0.000318149
0.000413878
0.000541672
0.000697673
0.0008897
0.00078649
0.000335447
0.00150897
0.00150422
9.09398e-05
9.80287e-05
0.000279247
0.00102022
0.00297145
0.000362715
0.00479845
0.00354684
0.000161287
0.000178562
0.000649604
2.66347e-05
8.18928e-05
0.000123624
0.000180453
1.34694e-05
0.0121753
0.863458
0.000218321
0.000217231
0.000216585
0.000219057
0.000222451
0.000228285
0.000236333
0.000246983
0.000260624
0.000277984
0.000299802
0.000326584
0.000359231
0.000399793
0.000451833
0.000521061
0.00061039
0.00070649
0.000538786
0.00025656
1e-05
1e-05
1e-05
1e-05
0.0753396
1.00001e-05
1e-05
1e-05
1.00001e-05
1.00008e-05
1.00573e-05
7.29274e-05
0.0161717
0.0167735
0.00615925
0.00118574
0.000355398
0.00146593
0.293609
0.000258127
0.000235913
0.000214181
0.000207856
0.000215825
0.000147915
0.000124516
0.00013103
0.000142442
0.000155561
0.000170919
0.000194578
0.000204024
0.000208568
0.000226765
0.000235342
5.66346e-05
0.00015433
0.000261067
0.000364468
0.000454911
0.000507528
0.000550234
0.000546185
0.00057058
0.000558402
0.000566613
0.00055284
0.000537604
0.000531794
0.000515091
0.000487361
0.000458078
0.000442029
0.000405644
0.000634019
2.19867e-05
0.0104319
3.00732
0.00045556
0.000449651
0.000453702
0.00046233
0.000474177
0.000493004
0.000516908
0.00054703
0.000584338
0.0006287
0.000680415
0.000739129
0.000804079
0.000874158
0.000948029
0.00102292
0.00109967
0.0011888
0.00130302
0.00134973
0.000379888
0.000214705
1e-05
1e-05
1e-05
1e-05
1e-05
1e-05
1e-05
1e-05
1e-05
1.00002e-05
1.00001e-05
1e-05
0.00534194
0.0054507
0.00202922
0.00167319
0.243801
0.000448005
0.00043808
0.000291828
0.000155648
0.000238709
0.000326608
0.000352234
0.00033576
0.000317991
0.000298697
0.000279465
0.000295033
0.000234138
0.000154563
0.000148811
0.000155175
0.000178553
0.00020075
0.000211293
0.000213605
0.000209205
0.000201202
0.000193069
0.000186342
0.000180952
0.000176123
0.000172482
0.000169858
0.000168559
0.000165915
0.000164762
0.000176374
0.000190596
0.00021183
0.000177449
0.000475606
1.91353e-05
0.0177209
2.11245
0.000799029
0.000799166
0.000811731
0.000825126
0.000844261
0.000818464
0.000800081
0.000791679
0.000789319
0.000795631
0.000812218
0.000838833
0.000874459
0.000922231
0.000976436
0.00102849
0.00111111
0.00124191
0.0013876
0.00151216
0.00155428
0.00107608
0.000226111
0.000131893
1e-05
1e-05
1e-05
1e-05
1e-05
1e-05
1e-05
1e-05
1e-05
1e-05
1e-05
1e-05
1e-05
1.0002e-05
1.08619e-05
0.000388975
0.00013619
0.000283189
0.000763487
0.000927385
0.000980742
0.00104253
0.00112297
0.00122961
0.00136702
0.00154184
0.00169934
0.00168964
0.00166707
0.00164067
0.00161266
0.0015808
0.00154154
0.00149688
0.00145625
0.00141806
0.00138084
0.00134408
0.00130859
0.00127295
0.00123693
0.00120347
0.00117213
0.00114385
0.00111961
0.0010941
0.00105592
0.00100673
0.000954172
0.000869328
0.000872689
2.72175e-05
0.0108861
1.08046
0.000131109
0.000141638
0.000141977
0.000138154
0.000144652
0.000149656
0.000154286
0.000160717
0.000167288
0.000174008
0.000182452
0.00019223
0.0002033
0.000222612
0.000234408
0.000239205
0.000258717
0.00029338
9.64148e-05
0.00029485
0.000527279
0.000730061
0.000827436
0.000626017
0.000213555
1e-05
1e-05
1e-05
1e-05
1e-05
1e-05
1e-05
1e-05
1e-05
1e-05
1e-05
1e-05
1e-05
1.0001e-05
0.000188571
0.000502668
0.00147208
0.00159355
0.00165319
0.00172793
0.00179958
0.00181255
0.00182829
0.00184571
0.00186383
0.0018826
0.00190233
0.00191875
0.00193466
0.00195178
0.00194762
0.00192162
0.00188928
0.00185764
0.0018255
0.00179184
0.00175631
0.00171843
0.00167697
0.00163457
0.00159539
0.00155795
0.00152367
0.00149401
0.00147055
0.0014354
0.00140143
0.0013925
0.00130433
0.00124922
0.000132451
0.00624517
0.408529
0.000313919
4.42804e-05
9.84715e-05
0.000146717
0.000230726
0.000278705
0.000318578
0.000351487
0.000377006
0.000395986
0.000410106
0.000420116
0.000426452
0.000470066
0.000452206
0.000389334
0.000384965
0.000376715
0.000345455
0.000338119
0.000396475
0.000506893
0.000647344
0.000711615
0.000888488
1e-05
1e-05
1e-05
1e-05
1e-05
1e-05
1e-05
1e-05
1e-05
1e-05
1e-05
1e-05
1e-05
1e-05
0.00101031
0.00179751
0.00166892
0.00108965
0.00052649
0.000446248
0.000462889
0.000490205
0.000525203
0.000567765
0.000616263
0.000669866
0.000729419
0.000792489
0.00085978
0.000920219
0.000953029
0.000959091
0.000957599
0.000952774
0.000943143
0.000929645
0.000913103
0.000893653
0.000872743
0.000852404
0.000833681
0.000816553
0.000801813
0.000789279
0.000782512
0.000791223
0.000816244
0.000841314
0.000847309
0.000972585
0.000458969
0.00237204
0.131873
0.00140422
0.00137169
0.00143537
0.00148615
0.00153955
0.00158701
0.00162263
0.00164849
0.00166663
0.00167781
0.00168379
0.00168552
0.00168323
0.00167595
0.00166662
0.00165045
0.00162921
0.00160054
0.00159606
0.00145828
0.0012488
0.00113606
0.00107509
0.000968097
0.00125447
1.00001e-05
1e-05
1e-05
1e-05
1e-05
1e-05
1e-05
1e-05
1e-05
1e-05
1e-05
1e-05
1e-05
1e-05
0.00186151
0.00129834
0.000455038
0.000208152
8.14378e-05
7.24291e-05
7.59816e-05
8.01146e-05
8.54779e-05
9.2322e-05
9.97588e-05
0.000108316
0.000118644
0.000130118
0.000143157
0.000156167
0.000165826
1.33763e-05
2.06374e-05
2.31662e-05
2.23967e-05
1.95219e-05
1.55059e-05
1.1824e-05
0.000187481
0.000186806
0.000186233
0.000185722
0.000185471
1.09205e-05
1.29258e-05
2.63455e-05
5.89775e-05
0.000110452
0.000178227
0.000260583
0.00041903
0.00036269
0.0178461
0.00164642
0.00150458
0.00148087
0.00148296
0.00148005
0.00147687
0.00147614
0.00147688
0.00148064
0.00148769
0.00149763
0.00151016
0.00152502
0.00154126
0.00155836
0.0015763
0.00159347
0.00161343
0.00163618
0.00165952
0.00164523
0.00155226
0.00145419
0.00128822
0.00145927
1.00007e-05
1e-05
1e-05
1e-05
1e-05
1e-05
1e-05
1e-05
1e-05
1e-05
1e-05
1e-05
1e-05
1e-05
0.000884263
0.00010128
8.76061e-05
7.47958e-05
9.78491e-05
0.000104546
0.000107278
0.000106814
0.000105545
0.000104225
0.000101985
9.98286e-05
9.81917e-05
9.66609e-05
9.55328e-05
9.48338e-05
9.4437e-05
9.5144e-05
9.69553e-05
9.82262e-05
9.90235e-05
9.94167e-05
9.93779e-05
9.90966e-05
9.89065e-05
9.89481e-05
9.89624e-05
9.89344e-05
9.89157e-05
9.9078e-05
9.94046e-05
0.000101255
0.000104456
0.000110116
0.000118597
0.000130526
9.25583e-05
1.18799e-05
0.00436802
0.000465023
0.000509302
0.0004448
0.000418232
0.000394829
0.0003766
0.000366658
0.000363762
0.000368031
0.00037873
0.000395112
0.000417114
0.000444778
0.000478431
0.000519558
0.000567087
0.000619087
0.000674746
0.000762923
0.000903384
0.00103783
0.0011311
0.00120333
0.00117049
0.00140174
1.00033e-05
1e-05
1e-05
1e-05
1e-05
1e-05
1e-05
1e-05
1e-05
1e-05
1e-05
1e-05
1e-05
1e-05
0.000175199
6.75802e-05
5.48063e-05
0.000503067
0.000661542
0.000689777
0.000700628
0.000701624
0.000696289
0.000687249
0.000675784
0.000662276
0.000646989
0.000630514
0.000614118
0.000598416
0.000585079
0.000573541
0.000563305
0.000553927
0.000545016
0.000535885
0.000526261
0.000516705
0.000507639
0.000499004
0.000490838
0.000482936
0.000475532
0.000468344
0.000461156
0.000448658
0.000420818
0.0003834
0.000340954
0.000288989
0.000274965
0.000112872
1e-05
6.72126e-05
7.41212e-05
6.99443e-05
6.57958e-05
6.62634e-05
6.77858e-05
6.85093e-05
7.0438e-05
7.30805e-05
7.60562e-05
8.00655e-05
8.48784e-05
9.06048e-05
0.000101248
0.000107231
0.000110964
0.000121871
0.000134947
0.000158269
5.79504e-05
0.000200634
0.000373611
0.000548434
0.000641353
0.000996296
1.00134e-05
1e-05
1e-05
1e-05
1e-05
1e-05
1e-05
1e-05
1e-05
1e-05
1e-05
1e-05
1e-05
1e-05
0.000121474
0.000355624
0.000891074
0.00106749
0.00107684
0.00108866
0.0010973
0.0010999
0.00109778
0.00109173
0.00108311
0.00107231
0.00105911
0.00104446
0.00102981
0.0010168
0.00100485
0.000993428
0.000982083
0.000970346
0.000957706
0.000943817
0.000929145
0.000914541
0.000900488
0.000886884
0.000873649
0.000860564
0.000848135
0.000835931
0.000824916
0.000814794
0.000789729
0.000760868
0.000730633
0.000662781
0.000556024
0.000463943
9.2879e-05
0.000177536
0.000105109
0.00011534
1.69644e-05
3.64017e-05
5.75145e-05
7.39842e-05
8.66072e-05
9.63878e-05
0.000103154
0.000107566
0.000110353
0.000111738
0.000137492
0.000120242
7.86153e-05
7.7298e-05
8.09731e-05
8.31549e-05
7.33159e-05
7.87908e-05
0.000125291
0.000224755
0.000290799
0.000618953
1.00519e-05
1e-05
1e-05
1e-05
1e-05
1e-05
1e-05
1e-05
1e-05
1e-05
1e-05
1e-05
1e-05
1e-05
0.000583816
0.00101651
0.000933153
0.000659483
0.000595251
0.000585705
0.000585581
0.000587225
0.000588701
0.000588368
0.000587351
0.000586372
0.000585212
0.000584366
0.000583674
0.0005827
0.000581183
0.00057894
0.000575756
0.000571367
0.000565774
0.00055934
0.000552387
0.000545374
0.000538653
0.000532027
0.000525521
0.000519102
0.000513125
0.000507546
0.000502391
0.000500455
0.00050801
0.000520882
0.000535038
0.000541208
0.000522231
0.000523968
0.000339084
0.000786172
0.000770994
0.000790236
0.000819453
0.000844355
0.000864859
0.000879877
0.000889946
0.00089596
0.00089824
0.000897713
0.000895285
0.000891331
0.000886502
0.000884793
0.000880391
0.000875518
0.000868959
0.000860257
0.000835358
0.000812261
0.000702902
0.000574961
0.000490615
0.000617036
1.02961e-05
1e-05
1e-05
1e-05
1e-05
1e-05
1e-05
1e-05
1e-05
1e-05
1e-05
1e-05
1e-05
1e-05
0.00106392
0.000732973
0.000288033
1.50739e-05
9.66626e-05
9.73013e-05
9.82965e-05
9.78009e-05
9.72807e-05
9.68755e-05
9.57461e-05
9.49374e-05
9.49765e-05
9.53126e-05
9.61917e-05
9.76401e-05
9.9347e-05
0.000101446
1.12513e-05
1.27752e-05
1.37826e-05
1.43721e-05
1.46798e-05
1.50523e-05
1.57105e-05
1.65409e-05
1.75533e-05
1.87366e-05
2.01346e-05
2.17835e-05
2.30155e-05
2.40196e-05
4.02839e-05
7.34246e-05
0.00011842
0.000177641
0.000244961
0.000319844
0.000311495
0.000994669
0.000922597
0.000922597
0.000922554
0.000918919
0.000916799
0.000917052
0.000917603
0.000918622
0.00092033
0.000922905
0.000926843
0.000932345
0.000939936
0.00094792
0.000955879
0.000964309
0.000971722
0.000979267
0.000989327
0.000994277
0.000964805
0.000884191
0.000761068
0.000757952
1.17619e-05
1e-05
1e-05
1e-05
1e-05
1e-05
1e-05
1e-05
1e-05
1e-05
1e-05
1e-05
1e-05
1e-05
0.000555744
8.23043e-05
5.88858e-05
2.72798e-05
3.03929e-05
3.26841e-05
3.38432e-05
3.40332e-05
3.39629e-05
3.38612e-05
3.34151e-05
3.29355e-05
3.26607e-05
3.24419e-05
3.23828e-05
3.2507e-05
3.27495e-05
3.31107e-05
3.37786e-05
3.45766e-05
3.53437e-05
3.60886e-05
3.68108e-05
3.75081e-05
3.8136e-05
3.87183e-05
3.92992e-05
3.9876e-05
4.04717e-05
4.11038e-05
4.15915e-05
4.18537e-05
4.41507e-05
4.88255e-05
5.79335e-05
6.4801e-05
7.38063e-05
7.86307e-05
0.000162385
0.000312173
0.000333749
0.00028146
0.000275111
0.000275773
0.000276955
0.000278737
0.000281376
0.000285437
0.000291273
0.000299055
0.000308935
0.00032083
0.000334314
0.000347596
0.000362586
0.000381336
0.000401125
0.000420008
0.000455336
0.000529675
0.000605476
0.00065651
0.000660832
0.000685706
1.70962e-05
1e-05
1e-05
1e-05
1e-05
1e-05
1e-05
1e-05
1e-05
1e-05
1e-05
1e-05
1e-05
1e-05
0.000118565
3.66153e-05
8.59328e-05
0.000129342
0.00015396
0.000165533
0.000172043
0.00017567
0.000177798
0.000179147
0.000179697
0.000179592
0.000179231
0.000178696
0.000178005
0.000177248
0.000176461
0.000175626
0.000174774
0.000173896
0.00017299
0.000172063
0.000171114
0.000170173
0.000169206
0.000168113
0.000166889
0.000165536
0.000164133
0.00016274
0.000161151
0.000158776
0.000149323
0.000132208
0.000123034
8.5634e-05
3.97766e-05
5.22813e-05
0.000108711
5.05749e-05
5.41422e-05
4.95623e-05
4.73033e-05
4.79291e-05
4.86997e-05
4.85135e-05
4.90149e-05
4.97761e-05
5.0641e-05
5.21631e-05
5.40775e-05
5.64127e-05
5.92513e-05
6.22059e-05
6.56324e-05
6.9861e-05
7.44818e-05
7.9151e-05
8.68376e-05
0.000107466
8.04325e-05
0.000183126
0.000284809
0.000376503
2.73861e-05
1e-05
1e-05
1e-05
1e-05
1e-05
1e-05
1e-05
1e-05
1e-05
1e-05
1e-05
1e-05
1e-05
5.54507e-05
0.000144611
0.000464949
0.00055012
0.000567923
0.000575976
0.00058068
0.000583577
0.00058538
0.000586556
0.000587237
0.000587418
0.000587307
0.000586903
0.000586116
0.000584983
0.000583508
0.000581654
0.000579419
0.000576768
0.000573726
0.000570316
0.000566518
0.00056241
0.000558086
0.000553417
0.000548417
0.000543108
0.000537712
0.000532412
0.000526819
0.000521411
0.00051051
0.000488467
0.000454927
0.000403682
0.000349027
0.000264882
0.000203897
8.40937e-05
5.81962e-05
6.58985e-05
6.49986e-05
6.68159e-05
6.8337e-05
6.77667e-05
6.77459e-05
6.76474e-05
6.71738e-05
6.71781e-05
6.72323e-05
6.73752e-05
6.83406e-05
6.91126e-05
6.98946e-05
7.07031e-05
7.15182e-05
7.23035e-05
7.30251e-05
7.14603e-05
7.86599e-05
9.37845e-05
3.46987e-05
0.00010441
3.78061e-05
1e-05
1e-05
1e-05
1e-05
1e-05
1e-05
1e-05
1e-05
1e-05
1e-05
1e-05
1e-05
1e-05
0.000242844
0.000578902
0.000529968
0.000482797
0.000478769
0.000475897
0.000473673
0.000472436
0.00047177
0.000471485
0.000471775
0.000472395
0.000473059
0.000473693
0.000474161
0.000474363
0.00047426
0.000473822
0.000472993
0.000471725
0.000470008
0.000467859
0.000465235
0.000462213
0.000458991
0.000455554
0.000451893
0.00044803
0.000444111
0.000440319
0.000436509
0.000434092
0.000435498
0.000437496
0.00043538
0.000427183
0.000407065
0.000354956
0.000283389
0.00036816
0.000376417
0.000407376
0.000416421
0.000424665
0.000429847
0.000432343
0.000432985
0.000432844
0.000432181
0.000430994
0.000429493
0.000427628
0.000429694
0.000429625
0.000428616
0.000427254
0.000425537
0.000423453
0.000420946
0.000404063
0.000364703
0.000324577
0.000269454
0.000204317
8.41175e-05
1e-05
1e-05
1e-05
1e-05
1e-05
1e-05
1e-05
1e-05
1e-05
1e-05
1e-05
1e-05
1e-05
0.000604178
0.000436416
0.000193671
0.000118339
0.00010921
0.00010511
0.000101847
9.92271e-05
9.73116e-05
9.60703e-05
9.53934e-05
9.5156e-05
9.52234e-05
9.5517e-05
9.5947e-05
9.64628e-05
9.70289e-05
9.76191e-05
9.81971e-05
9.87429e-05
9.92424e-05
9.9691e-05
0.000100097
0.000100504
0.000100935
0.000101336
0.000101692
0.000101997
0.000102277
0.000102565
0.000102718
0.000102973
0.000109162
0.000127554
0.000154433
0.000193744
0.000237088
0.000260981
0.000245483
0.000591627
0.000551018
0.000559363
0.000563214
0.000560961
0.000556751
0.000552821
0.000549344
0.000546771
0.000545045
0.000543761
0.000542892
0.000542465
0.000542192
0.000541871
0.000541894
0.000542576
0.000543389
0.000543983
0.000546318
0.000547106
0.000537949
0.000510539
0.000458433
0.000378934
0.00021544
1e-05
1e-05
1e-05
1e-05
1e-05
1e-05
1e-05
1e-05
1e-05
1e-05
1e-05
1e-05
1e-05
0.000387917
7.16917e-05
4.46831e-05
2.63834e-05
2.53056e-05
2.50718e-05
2.46536e-05
2.40027e-05
2.34522e-05
2.30562e-05
2.26021e-05
2.22327e-05
2.20331e-05
2.19023e-05
2.18879e-05
2.20174e-05
2.22353e-05
2.25547e-05
2.29584e-05
2.34333e-05
2.39587e-05
2.4531e-05
2.5142e-05
2.57381e-05
2.62615e-05
2.67411e-05
2.7213e-05
2.76737e-05
2.81243e-05
2.8568e-05
2.89764e-05
2.93945e-05
3.1066e-05
3.5406e-05
4.17251e-05
5.1953e-05
3.63599e-05
0.000101381
0.000148208
0.000270609
0.000266063
0.000238047
0.000221776
0.000208928
0.000199364
0.000193323
0.00018998
0.000188696
0.000189001
0.000190431
0.000192778
0.000195895
0.000199649
0.000203944
0.000208909
0.000214647
0.000220983
0.000227893
0.000236187
0.000253966
0.000286721
0.000318782
0.000341504
0.000334613
0.000308216
1.00001e-05
1e-05
1e-05
1e-05
1e-05
1e-05
1e-05
1e-05
1e-05
1e-05
1e-05
1e-05
1e-05
1.1819e-05
1.94409e-05
3.55737e-05
3.93362e-05
4.08724e-05
4.24462e-05
4.33525e-05
4.32644e-05
4.28811e-05
4.24354e-05
4.14848e-05
4.04796e-05
3.97696e-05
3.91177e-05
3.87e-05
3.86177e-05
3.87257e-05
3.90719e-05
3.96323e-05
4.03525e-05
4.11984e-05
4.21511e-05
4.32009e-05
4.41774e-05
4.49161e-05
4.55232e-05
4.61016e-05
4.66489e-05
4.7163e-05
4.76478e-05
4.81112e-05
4.85397e-05
4.89627e-05
4.76884e-05
4.41484e-05
3.8643e-05
3.88815e-05
4.79703e-05
5.62686e-05
4.60096e-05
4.59066e-05
4.41801e-05
4.05169e-05
3.90111e-05
3.80048e-05
3.66673e-05
3.61199e-05
3.58648e-05
3.56832e-05
3.59047e-05
3.63021e-05
3.68708e-05
3.76891e-05
3.86631e-05
3.98338e-05
4.1207e-05
4.27521e-05
4.44566e-05
4.64428e-05
5.00308e-05
5.96094e-05
4.90737e-05
0.000104987
0.000149321
0.000238053
1.00006e-05
1e-05
1e-05
1e-05
1e-05
1e-05
1e-05
1e-05
1e-05
1e-05
1e-05
1e-05
1e-05
2.2655e-05
1.56061e-05
0.000185277
0.000210608
0.000217219
0.000222232
0.000227045
0.00023071
0.000233001
0.000234328
0.000235065
0.000235385
0.000235457
0.000235401
0.000235218
0.000234922
0.000234534
0.000234041
0.000233432
0.000232696
0.000231839
0.000230876
0.000229808
0.000228656
0.000227479
0.000226234
0.000224883
0.000223455
0.000221955
0.000220418
0.000218911
0.000217402
0.00021605
0.000206017
0.000184803
0.000154403
0.000124191
8.67555e-05
7.72665e-05
4.04248e-05
2.90199e-05
3.14586e-05
3.12765e-05
3.18947e-05
3.23561e-05
3.1935e-05
3.17107e-05
3.14241e-05
3.09737e-05
3.07133e-05
3.04856e-05
3.0307e-05
3.02543e-05
3.02379e-05
3.02926e-05
3.04112e-05
3.05742e-05
3.07609e-05
3.09849e-05
3.11401e-05
2.95653e-05
3.29132e-05
3.94111e-05
4.76441e-05
7.75035e-05
1.00026e-05
1e-05
1e-05
1e-05
1e-05
1e-05
1e-05
1e-05
1e-05
1e-05
1e-05
1e-05
1e-05
9.95466e-05
0.000291734
0.000339768
0.000340235
0.000342675
0.000342694
0.000343469
0.000344695
0.000345381
0.000345497
0.000345398
0.000345228
0.000345045
0.000344908
0.000344781
0.000344614
0.0003444
0.000344103
0.000343682
0.000343105
0.000342373
0.000341503
0.000340474
0.000339275
0.000337987
0.000336575
0.000334975
0.000333213
0.000331297
0.000329258
0.000327212
0.000325258
0.000324603
0.000320627
0.000309356
0.000290776
0.000258951
0.000202912
0.000156511
0.00016186
0.000150353
0.000158132
0.000163199
0.00016602
0.000167241
0.000167129
0.000166095
0.000164694
0.000163165
0.00016159
0.000160102
0.000158726
0.00015742
0.000156148
0.000154959
0.000153944
0.000153032
0.000152195
0.000151541
0.000150537
0.000138401
0.000116253
9.55225e-05
6.03681e-05
8.20338e-05
1.00348e-05
1.00001e-05
1e-05
1e-05
1e-05
1e-05
1e-05
1e-05
1e-05
1e-05
1e-05
1e-05
1e-05
0.000354891
0.000321359
0.000188932
0.00017031
0.000167859
0.000164256
0.000161176
0.000159606
0.000158591
0.000157644
0.000156868
0.00015633
0.000155986
0.000155813
0.000155753
0.000155747
0.000155771
0.000155788
0.000155769
0.000155688
0.000155551
0.000155369
0.000155131
0.000154844
0.000154564
0.00015425
0.000153875
0.000153473
0.000153015
0.000152492
0.000151981
0.00015141
0.000152055
0.000159076
0.000170764
0.000184749
0.000194359
0.000189702
0.000167477
0.000357866
0.000332526
0.000335673
0.000334483
0.000330703
0.00032629
0.00032325
0.000321057
0.000319471
0.000318333
0.000317427
0.000316755
0.000316298
0.000315912
0.000315492
0.000315107
0.000314868
0.000314569
0.000314004
0.000313457
0.000312509
0.000300076
0.000284325
0.000262807
0.000228895
0.000201125
1.06488e-05
1.00001e-05
1e-05
1e-05
1e-05
1e-05
1e-05
1e-05
1e-05
1e-05
1e-05
1e-05
1e-05
0.000276663
0.000111946
4.88512e-05
3.48491e-05
3.48893e-05
3.49172e-05
3.45157e-05
3.3772e-05
3.30695e-05
3.24419e-05
3.15328e-05
3.06536e-05
3.00223e-05
2.94475e-05
2.90587e-05
2.89243e-05
2.89453e-05
2.91636e-05
2.95565e-05
3.0096e-05
3.07554e-05
3.15321e-05
3.24127e-05
3.32551e-05
3.39171e-05
3.44849e-05
3.50494e-05
3.56097e-05
3.61582e-05
3.66816e-05
3.71915e-05
3.76772e-05
3.83929e-05
4.03973e-05
4.43037e-05
2.81487e-05
6.24466e-05
9.90574e-05
0.000115827
0.000212647
0.000206375
0.000191608
0.000185575
0.000182847
0.000180958
0.000178892
0.000176706
0.000174717
0.000173312
0.000172482
0.000172169
0.000172309
0.000172771
0.000173459
0.000174379
0.000175574
0.000176907
0.000178298
0.000179743
0.000183034
0.000192347
0.000203512
0.000209275
0.0002102
0.000205171
1.46407e-05
1.0003e-05
1e-05
1e-05
1e-05
1e-05
1e-05
1e-05
1e-05
1e-05
1e-05
1e-05
1e-05
4.99716e-05
2.89048e-05
1.27341e-05
1.50352e-05
1.58621e-05
1.67937e-05
1.74782e-05
1.77586e-05
1.78648e-05
1.79026e-05
1.77452e-05
1.75188e-05
1.73403e-05
1.71477e-05
1.70014e-05
1.6945e-05
1.69407e-05
1.70138e-05
1.71573e-05
1.7368e-05
1.76319e-05
1.79527e-05
1.83265e-05
1.86941e-05
1.89795e-05
1.9218e-05
1.94491e-05
1.96737e-05
1.98911e-05
2.00972e-05
2.0294e-05
2.04755e-05
2.0589e-05
2.00926e-05
1.87e-05
2.12686e-05
2.52456e-05
3.21325e-05
4.61021e-05
3.89967e-05
1.30894e-05
3.81381e-05
3.5757e-05
3.55972e-05
3.56198e-05
3.48121e-05
3.43697e-05
3.39472e-05
3.34363e-05
3.32357e-05
3.31255e-05
3.31182e-05
3.32937e-05
3.35402e-05
3.39049e-05
3.43622e-05
3.489e-05
3.54574e-05
3.60552e-05
3.72565e-05
1.32955e-05
3.33992e-05
5.89096e-05
8.75354e-05
0.000111317
2.51027e-05
1.0033e-05
1.00001e-05
1e-05
1e-05
1e-05
1e-05
1e-05
1e-05
1e-05
1e-05
1e-05
1e-05
1.60542e-05
2.68673e-05
2.82203e-05
4.35241e-05
4.8381e-05
5.3445e-05
5.77063e-05
6.0644e-05
6.27011e-05
6.42727e-05
6.53955e-05
6.61578e-05
6.67351e-05
6.71679e-05
6.74861e-05
6.77521e-05
6.79863e-05
6.82046e-05
6.84171e-05
6.8636e-05
6.88557e-05
6.90842e-05
6.93345e-05
6.95925e-05
6.98172e-05
6.99663e-05
7.00396e-05
7.0053e-05
7.00117e-05
6.99102e-05
6.97708e-05
6.95587e-05
6.89908e-05
6.51398e-05
5.66398e-05
4.92823e-05
3.09513e-05
1.66243e-05
3.40437e-05
1.6657e-05
1.51401e-05
1.45573e-05
1.37225e-05
1.32632e-05
1.30194e-05
1.30061e-05
1.31219e-05
1.32228e-05
1.32451e-05
1.32563e-05
1.32426e-05
1.32144e-05
1.31951e-05
1.31767e-05
1.31682e-05
1.31694e-05
1.31791e-05
1.31957e-05
1.32186e-05
1.32256e-05
1.34882e-05
1.5779e-05
1.92072e-05
2.26837e-05
1.21223e-05
2.67954e-05
1.01755e-05
1e-05
1e-05
1e-05
1e-05
1e-05
1e-05
1e-05
1e-05
1e-05
1e-05
1e-05
1.33154e-05
0.000120555
0.000173146
0.000177443
0.00018028
0.000183417
0.000186289
0.000188373
0.000189802
0.000190897
0.000191793
0.000192483
0.000193057
0.000193529
0.000193885
0.000194178
0.00019443
0.000194638
0.000194819
0.000194968
0.000195088
0.000195177
0.000195249
0.000195283
0.000195234
0.000195057
0.000194744
0.000194335
0.00019384
0.000193227
0.000192532
0.000191747
0.000190999
0.000188311
0.000180419
0.000166433
0.000143088
0.000115457
9.19879e-05
5.59287e-05
4.38645e-05
4.07821e-05
3.6291e-05
3.28622e-05
3.09394e-05
3.13233e-05
3.23141e-05
3.32239e-05
3.37658e-05
3.4001e-05
3.40329e-05
3.3919e-05
3.37243e-05
3.35018e-05
3.32765e-05
3.30798e-05
3.29127e-05
3.27767e-05
3.26771e-05
3.24827e-05
3.05543e-05
2.43691e-05
1.99118e-05
1.01907e-05
2.51205e-05
1.41383e-05
1.06335e-05
1.00015e-05
1e-05
1e-05
1e-05
1e-05
1e-05
1e-05
1e-05
1e-05
1e-05
1e-05
0.000185761
0.000210159
0.000165789
0.000159939
0.00015794
0.000155454
0.000153205
0.00015142
0.000149988
0.000148889
0.000148226
0.000147846
0.000147613
0.000147485
0.000147421
0.000147367
0.000147321
0.000147266
0.0001472
0.0001471
0.000146967
0.000146795
0.000146577
0.000146291
0.000145968
0.000145616
0.000145227
0.000144802
0.000144354
0.000143858
0.00014333
0.00014277
0.000142701
0.00014467
0.00014786
0.000148767
0.000147402
0.000136534
0.000113684
0.000202412
0.000179124
0.000172923
0.00016955
0.00016719
0.000165776
0.000166092
0.000166888
0.000167393
0.000167542
0.000167433
0.000167202
0.000166905
0.000166584
0.000166281
0.000166053
0.000165946
0.000165881
0.000165753
0.0001656
0.000165558
0.000164656
0.000157027
0.000143667
0.000125754
0.000105941
8.3831e-05
1.75586e-05
1.00504e-05
1e-05
1e-05
1e-05
1e-05
1e-05
1e-05
1e-05
1e-05
1e-05
1e-05
0.000206193
0.000107829
5.45363e-05
4.49809e-05
4.26904e-05
4.00585e-05
3.73001e-05
3.49351e-05
3.30535e-05
3.15711e-05
3.04091e-05
2.95103e-05
2.87925e-05
2.82112e-05
2.77396e-05
2.73425e-05
2.69949e-05
2.67011e-05
2.64419e-05
2.62181e-05
2.60347e-05
2.59013e-05
2.5821e-05
2.57923e-05
2.58052e-05
2.58581e-05
2.59417e-05
2.60372e-05
2.61438e-05
2.62571e-05
2.63667e-05
2.63757e-05
2.6386e-05
2.88232e-05
3.68512e-05
5.03146e-05
6.76265e-05
8.16567e-05
8.48679e-05
0.000171572
0.000166844
0.000163747
0.000162011
0.000161069
0.000160214
0.000160331
0.000161046
0.000161325
0.000161365
0.000161287
0.00016121
0.000161191
0.000161218
0.00016129
0.000161454
0.000161733
0.000162051
0.000162298
0.000162499
0.000162888
0.000164993
0.000166459
0.000163675
0.000158513
0.000149904
0.000130062
4.73596e-05
1.06904e-05
1.00018e-05
1e-05
1e-05
1e-05
1e-05
1e-05
1e-05
1e-05
1e-05
1e-05
5.35085e-05
2.89096e-05
1.70761e-05
1.55601e-05
1.52821e-05
1.49722e-05
1.45273e-05
1.40412e-05
1.36374e-05
1.33166e-05
1.30046e-05
1.2737e-05
1.25326e-05
1.23531e-05
1.22129e-05
1.21179e-05
1.20489e-05
1.20137e-05
1.20074e-05
1.20275e-05
1.20699e-05
1.21372e-05
1.22288e-05
1.23247e-05
1.23996e-05
1.24679e-05
1.25441e-05
1.26247e-05
1.27095e-05
1.27972e-05
1.28861e-05
1.29583e-05
1.3031e-05
1.35637e-05
1.5201e-05
1.79866e-05
2.21726e-05
1.94899e-05
3.99284e-05
3.64665e-05
5.21973e-05
4.99223e-05
4.95105e-05
4.96605e-05
4.96279e-05
4.90887e-05
4.90247e-05
4.90982e-05
4.90508e-05
4.89976e-05
4.90403e-05
4.9185e-05
4.94095e-05
4.9687e-05
5.00268e-05
5.04425e-05
5.09178e-05
5.14357e-05
5.19913e-05
5.24629e-05
5.50592e-05
6.34276e-05
7.25264e-05
8.40546e-05
9.47332e-05
9.99594e-05
7.63369e-05
1.39075e-05
1.00298e-05
1e-05
1e-05
1e-05
1e-05
1e-05
1e-05
1e-05
1e-05
1e-05
1.91532e-05
1.46642e-05
1.78012e-05
1.93763e-05
1.99526e-05
2.04616e-05
2.07559e-05
2.0714e-05
2.0566e-05
2.03903e-05
2.00069e-05
1.95652e-05
1.91994e-05
1.88146e-05
1.84931e-05
1.82929e-05
1.81656e-05
1.81448e-05
1.82328e-05
1.84216e-05
1.86962e-05
1.90638e-05
1.95202e-05
1.99654e-05
2.02769e-05
2.05187e-05
2.07663e-05
2.10166e-05
2.12702e-05
2.15217e-05
2.17724e-05
2.20206e-05
2.22689e-05
2.25039e-05
2.22028e-05
2.11764e-05
1.93565e-05
1.95352e-05
1.32989e-05
1.38413e-05
1.61963e-05
1.62593e-05
1.59261e-05
1.59969e-05
1.60529e-05
1.58334e-05
1.5775e-05
1.57316e-05
1.56221e-05
1.55689e-05
1.55324e-05
1.55175e-05
1.55486e-05
1.55956e-05
1.56696e-05
1.57672e-05
1.58848e-05
1.60155e-05
1.6155e-05
1.62766e-05
1.66969e-05
1.79657e-05
1.93133e-05
2.23939e-05
2.24819e-05
3.97394e-05
5.16982e-05
2.0986e-05
1.02489e-05
1.00006e-05
1e-05
1e-05
1e-05
1e-05
1e-05
1e-05
1e-05
1e-05
2.19535e-05
4.37619e-05
6.12192e-05
7.16067e-05
7.43806e-05
7.61528e-05
7.79155e-05
7.93381e-05
8.03713e-05
8.11634e-05
8.17999e-05
8.22873e-05
8.2676e-05
8.29996e-05
8.32601e-05
8.34803e-05
8.36747e-05
8.38437e-05
8.39938e-05
8.41249e-05
8.42378e-05
8.43318e-05
8.44121e-05
8.44826e-05
8.45305e-05
8.45352e-05
8.44912e-05
8.44105e-05
8.43043e-05
8.41635e-05
8.39996e-05
8.38095e-05
8.36073e-05
8.33244e-05
7.99624e-05
7.26601e-05
6.13172e-05
4.97899e-05
4.08783e-05
2.61578e-05
1.81918e-05
1.82115e-05
1.7795e-05
1.78911e-05
1.80588e-05
1.79657e-05
1.7971e-05
1.7958e-05
1.7866e-05
1.78417e-05
1.78118e-05
1.77835e-05
1.77957e-05
1.78118e-05
1.78496e-05
1.79046e-05
1.79704e-05
1.80371e-05
1.80988e-05
1.81459e-05
1.81611e-05
1.76913e-05
1.67401e-05
1.56704e-05
1.64783e-05
1.85673e-05
1.3561e-05
2.04057e-05
1.09488e-05
1.00103e-05
1.00001e-05
1e-05
1e-05
1e-05
1e-05
1e-05
1e-05
1e-05
7.06428e-05
0.000126768
0.000112104
0.000114485
0.000115777
0.000115374
0.000115205
0.000115244
0.000115284
0.000115345
0.000115485
0.000115651
0.000115817
0.000115993
0.000116162
0.000116319
0.000116476
0.000116624
0.000116761
0.000116881
0.000116985
0.000117067
0.000117124
0.000117152
0.000117151
0.000117117
0.000117026
0.000116887
0.000116721
0.000116514
0.00011628
0.000116025
0.000115815
0.000116242
0.00011559
0.000112013
0.000105469
9.31156e-05
7.61286e-05
7.96752e-05
6.82474e-05