/*--------------------------------*- C++ -*----------------------------------*\
| =========                 |                                                 |
| \\      /  F ield         | OpenFOAM: The Open Source CFD Toolbox           |
|  \\    /   O peration     | Version:  2312                                  |
|   \\  /    A nd           | Website:  www.openfoam.com                      |
|    \\/     M anipulation  |                                                 |
\*---------------------------------------------------------------------------*/
FoamFile
{
    version     2.0;
    format      ascii;
    arch        "LSB;label=32;scalar=64";
    class       volVectorField;
    location    "400";
    object      U;
}
// * * * * * * * * * * * * * * * * * * * * * * * * * * * * * * * * * * * * * //

dimensions      [0 1 -1 0 0 0 0];

internalField   nonuniform List<vector> 
10720
(
(0.829018 23.9632 -1.23943e-18)
(2.33005 26.2784 1.12494e-18)
(4.26132 28.545 0)
(6.52639 30.3891 -2.7835e-16)
(9.06884 31.8738 3.11523e-16)
(11.8275 32.9473 2.48706e-16)
(14.6573 33.5096 3.70401e-16)
(17.4649 33.5853 0)
(20.1685 33.2268 0)
(22.6858 32.4655 0)
(24.9788 31.3772 1.1102e-16)
(27.022 30.0354 0)
(28.7956 28.5007 2.21244e-15)
(30.25 26.7608 0)
(31.3456 24.8225 0)
(32.068 22.7206 0)
(32.3817 20.4561 -3.97879e-15)
(32.2708 18.0658 -6.12881e-15)
(31.7099 15.5619 5.62467e-15)
(30.7432 13.0107 0)
(29.4587 10.4834 4.97836e-15)
(28.1429 8.12391 -1.00715e-14)
(27.385 6.1122 4.98321e-15)
(27.7252 4.51156 -1.33253e-16)
(29.6407 3.01373 0)
(31.28 2.31708 1.11955e-15)
(32.6566 1.64044 1.10725e-17)
(32.6429 0.0291782 -2.27866e-16)
(31.8632 -1.93082 -8.79892e-16)
(30.9982 -2.75527 -3.36667e-15)
(29.8402 -2.9271 2.02081e-15)
(27.8862 -3.01271 5.71615e-15)
(24.6944 -2.79649 5.71792e-15)
(18.874 -2.18946 2.17439e-14)
(10.2945 -1.22587 -1.1515e-14)
(-4.60874 0.736137 -1.6666e-16)
(-12.8088 1.32063 -5.49846e-17)
(13.9505 -3.77342 -3.55003e-14)
(-2.1082 0.77236 -3.17903e-15)
(-0.310131 21.5274 -9.41206e-18)
(-1.17195 18.8194 -3.31516e-17)
(-1.67988 15.7958 1.04788e-16)
(-1.72126 12.3457 -2.78985e-16)
(-1.14638 8.81615 -9.24638e-16)
(0.0142502 5.42879 1.67547e-15)
(1.56858 2.51127 9.47011e-15)
(3.30737 0.00504524 2.72057e-15)
(5.40982 -2.27803 0)
(7.71312 -4.07028 0)
(9.92856 -5.26852 1.5605e-15)
(11.9272 -5.97658 5.8262e-16)
(13.6901 -6.32972 -9.94781e-16)
(15.22 -6.43381 8.24718e-16)
(16.5373 -6.38003 1.37074e-15)
(17.6807 -6.22802 8.86609e-16)
(18.6849 -6.02458 1.11564e-15)
(19.5834 -5.78931 7.32594e-16)
(20.4084 -5.53203 0)
(21.1779 -5.26611 0)
(21.9099 -4.98968 -9.46137e-16)
(22.6183 -4.67868 -3.91485e-17)
(23.3038 -4.31857 5.46532e-16)
(23.9295 -3.89167 -3.10334e-16)
(24.4235 -3.39544 2.85223e-17)
(24.7671 -2.84912 0)
(24.9844 -2.26605 -3.64972e-17)
(25.0865 -1.68905 0)
(25.0066 -1.14581 0)
(24.7247 -0.641235 -1.20013e-16)
(24.2381 -0.172083 0)
(23.5461 0.26194 5.97712e-16)
(22.6351 0.655134 1.11943e-15)
(21.4926 0.997472 5.45476e-15)
(20.0778 1.28085 -1.91198e-15)
(18.3501 1.47466 7.32807e-18)
(16.161 1.69384 0)
(14.4002 1.20872 1.68929e-16)
(19.1286 3.30636 1.49659e-15)
(6.8622 20.7807 -1.73688e-17)
(8.51009 22.5271 1.02002e-17)
(10.5544 24.1508 0)
(12.9447 25.5455 0)
(15.5592 26.6443 -9.14112e-17)
(18.4008 27.3873 -2.38572e-16)
(21.365 27.7231 0)
(24.3287 27.6627 0)
(27.2376 27.2099 5.68405e-16)
(30.0086 26.4057 0)
(32.5872 25.3011 2.2065e-15)
(34.9502 23.9433 0)
(37.0698 22.3744 8.18735e-16)
(38.9756 20.7074 -8.03582e-16)
(40.6917 18.9804 1.64825e-15)
(42.2125 17.2126 -3.32607e-15)
(43.5058 15.4327 3.56581e-15)
(44.5446 13.664 3.25765e-15)
(45.2966 11.9033 3.18416e-15)
(45.6974 10.1491 1.94041e-16)
(45.6648 8.37841 -3.33449e-15)
(45.1104 6.5657 3.19065e-15)
(43.8739 4.69353 -1.78588e-16)
(41.8283 2.89924 0)
(38.7537 1.5926 0)
(36.1069 0.52098 0)
(34.4597 -0.133897 5.23493e-17)
(33.4689 -0.620128 -9.17481e-18)
(32.5516 -1.06714 6.32067e-16)
(31.6358 -1.63687 -1.97939e-17)
(30.6814 -2.20571 4.61009e-18)
(29.8519 -2.6511 -4.0397e-17)
(29.1897 -2.98845 3.92402e-15)
(28.5044 -3.09256 -6.18012e-15)
(24.3745 -2.68128 -3.27478e-17)
(10.682 -1.03093 -1.0503e-14)
(6.22672 -1.32842 0)
(14.1845 -2.9606 9.14888e-15)
(-3.56897 1.31596 -1.57064e-15)
(5.50987 18.9434 2.41103e-17)
(4.371 16.9262 -7.84928e-17)
(3.44051 14.5829 -8.68133e-16)
(2.81475 11.9479 1.09671e-15)
(2.67882 9.12571 0)
(3.09925 6.29637 -2.30516e-15)
(4.04349 3.65517 -1.56184e-15)
(5.34613 1.23416 -8.30095e-15)
(6.97323 -0.842732 2.06094e-15)
(8.82769 -2.4078 -1.53289e-15)
(10.7233 -3.46026 1.95825e-15)
(12.5316 -4.10422 -5.58677e-16)
(14.2018 -4.44437 0)
(15.7102 -4.56265 -3.62246e-16)
(17.051 -4.54058 6.47823e-17)
(18.2429 -4.42873 -7.89337e-16)
(19.3089 -4.26573 0)
(20.2749 -4.07344 0)
(21.1632 -3.86867 -7.84293e-17)
(22.0004 -3.6372 7.63412e-17)
(22.8042 -3.37436 -8.63943e-16)
(23.5829 -3.06685 -8.81356e-17)
(24.3339 -2.69389 3.75234e-17)
(25.0355 -2.20842 3.4416e-16)
(25.6359 -1.61601 -1.60909e-16)
(26.109 -0.993839 -7.30016e-17)
(26.4757 -0.377898 0)
(26.7539 0.221054 0)
(27.0086 0.800998 0)
(27.2482 1.35998 9.58093e-18)
(27.4667 1.88793 0)
(27.6563 2.37437 0)
(27.8052 2.8122 -1.69127e-15)
(27.8916 3.19791 -1.5578e-15)
(27.8707 3.52628 1.29888e-15)
(27.7303 3.81422 -9.07063e-16)
(27.1264 3.98415 1.04242e-15)
(27.0249 4.72573 -4.35548e-16)
(23.2304 4.32031 -8.28739e-16)
(8.45406 19.1727 -4.43373e-18)
(9.62387 20.7074 -3.79841e-17)
(11.0724 22.2243 2.62233e-17)
(12.7626 23.6463 -7.7243e-18)
(14.6528 24.8621 -1.10166e-16)
(16.7428 25.8496 4.23602e-16)
(18.9647 26.5651 -3.06219e-16)
(21.2496 26.9683 -3.96942e-16)
(23.5438 27.055 1.37465e-17)
(25.7903 26.8316 -5.5383e-16)
(27.9366 26.3146 5.38152e-16)
(29.9481 25.5325 -1.41915e-15)
(31.7935 24.5154 -6.89322e-16)
(33.4544 23.2841 0)
(34.9135 21.8673 -1.69806e-15)
(36.1657 20.2971 3.48676e-15)
(37.2605 18.5711 0)
(38.2126 16.7206 -6.73663e-15)
(39.0506 14.7681 -3.39292e-15)
(39.7701 12.7583 3.9932e-16)
(40.3741 10.7107 -3.93103e-16)
(40.7885 8.66921 -1.7913e-16)
(40.8988 6.67509 -2.50787e-15)
(40.616 4.83927 1.19777e-15)
(39.7631 3.19238 0)
(38.4289 1.78565 8.60605e-16)
(36.3831 0.494752 -6.7052e-17)
(34.6912 -0.396222 0)
(33.3348 -1.06864 9.44882e-16)
(32.0459 -1.72062 1.54409e-15)
(30.892 -2.28491 -3.04786e-15)
(29.8224 -2.72989 -3.51636e-15)
(28.6235 -3.01079 -8.99459e-17)
(28.3005 -3.05205 -5.53588e-15)
(28.2667 -2.94401 -3.47817e-15)
(21.8012 -2.36923 6.37759e-15)
(19.2862 -3.17046 0)
(19.3091 -3.86196 7.44804e-15)
(-3.79821 1.67959 2.51721e-15)
(7.52399 17.5737 -2.67145e-17)
(6.73056 15.85 -8.32812e-17)
(6.11343 13.8398 3.56212e-16)
(5.66663 11.607 0)
(5.53771 9.23595 6.11249e-16)
(5.75949 6.82498 0)
(6.34547 4.49198 3.9924e-15)
(7.26875 2.32321 1.79551e-15)
(8.4949 0.428058 1.47806e-15)
(9.92709 -1.121 0)
(11.4411 -2.31418 -2.08603e-15)
(12.9402 -3.18512 -4.36471e-16)
(14.3725 -3.7852 1.97808e-15)
(15.7069 -4.16737 0)
(16.9278 -4.38425 -8.94009e-16)
(18.0386 -4.47846 -2.69246e-16)
(19.051 -4.48495 1.09036e-15)
(19.9818 -4.42687 5.56931e-16)
(20.85 -4.31878 1.47487e-16)
(21.6726 -4.16391 -8.26864e-17)
(22.462 -3.96353 7.94098e-16)
(23.228 -3.70569 0)
(23.9721 -3.37387 0)
(24.6726 -2.94879 2.83088e-17)
(25.2829 -2.45028 0)
(25.7798 -1.92695 1.7358e-16)
(26.1746 -1.40028 -1.22847e-18)
(26.4809 -0.871894 1.68145e-17)
(26.7029 -0.346559 0)
(26.8454 0.167306 9.12907e-17)
(26.9195 0.667504 -1.89294e-16)
(26.9404 1.15135 0)
(26.9242 1.61797 8.0881e-16)
(26.8903 2.06648 0)
(26.846 2.5018 0)
(26.8596 2.92793 5.19165e-17)
(26.7466 3.40183 -1.21547e-16)
(26.7602 3.92796 4.11383e-16)
(24.1185 4.25049 6.67984e-16)
(10.8745 17.5864 -2.10728e-17)
(11.9606 18.8898 -2.46946e-17)
(13.2875 20.1813 2.57027e-17)
(14.836 21.3835 1.45357e-17)
(16.5694 22.4097 0)
(18.4948 23.2431 0)
(20.562 23.8365 -5.21077e-16)
(22.7162 24.1517 6.58481e-16)
(24.9138 24.1782 0)
(27.1023 23.9128 -8.76855e-16)
(29.232 23.3647 -1.15173e-15)
(31.2647 22.5522 -1.10288e-15)
(33.166 21.4986 1.34484e-15)
(34.9075 20.2324 1.27981e-15)
(36.4651 18.7887 0)
(37.8313 17.1981 2.08419e-15)
(38.9745 15.5059 7.29314e-16)
(39.8614 13.7638 5.96525e-15)
(40.4787 12.0035 3.63901e-16)
(40.8355 10.2438 -3.60321e-16)
(40.9422 8.5027 3.0902e-15)
(40.8193 6.80204 -5.09422e-16)
(40.4739 5.1773 2.80716e-15)
(39.9405 3.72646 1.15077e-15)
(39.2607 2.56896 -6.36741e-17)
(38.5561 1.59893 -9.36362e-16)
(37.5715 0.73721 5.94592e-18)
(36.2747 -0.115916 -5.95998e-18)
(34.9058 -0.947295 -1.46689e-15)
(33.4532 -1.67623 -3.95064e-17)
(31.9424 -2.26229 2.5037e-15)
(30.4709 -2.70084 -4.37391e-15)
(28.9399 -2.97332 -3.63594e-15)
(27.5917 -2.94563 -4.70825e-17)
(27.8176 -2.81108 3.15561e-15)
(25.7653 -2.85976 0)
(24.7569 -3.86509 1.89869e-15)
(21.6597 -3.79316 -4.75176e-15)
(-3.67439 2.04029 -1.05429e-15)
(9.98567 16.235 -3.78337e-17)
(9.21032 14.7871 1.19551e-16)
(8.57169 13.0915 4.70101e-16)
(8.07903 11.1936 0)
(7.85501 9.17271 -5.23978e-16)
(7.9241 7.09559 0)
(8.29316 5.03964 -2.84888e-15)
(8.94626 3.09102 -9.11086e-17)
(9.86114 1.34954 1.11311e-15)
(10.9731 -0.127701 9.54186e-16)
(12.1988 -1.31416 2.68304e-17)
(13.4635 -2.21576 1.59744e-15)
(14.7172 -2.86536 -9.99711e-16)
(15.9246 -3.30276 3.20696e-16)
(17.0628 -3.56851 1.07494e-15)
(18.1238 -3.70207 1.16749e-15)
(19.1094 -3.73636 -1.02963e-15)
(20.0274 -3.69633 1.13107e-17)
(20.8895 -3.59991 0)
(21.7084 -3.45439 1.02065e-15)
(22.4941 -3.26081 4.7223e-17)
(23.253 -3.01265 -7.11884e-16)
(23.9841 -2.69805 0)
(24.6704 -2.29686 2.85966e-17)
(25.275 -1.81235 0)
(25.775 -1.28402 -9.26939e-17)
(26.1765 -0.733577 0)
(26.4907 -0.174076 -1.61036e-17)
(26.7216 0.383658 1.27024e-18)
(26.8724 0.929826 -9.75935e-19)
(26.9458 1.44847 1.73972e-16)
(26.9491 1.92892 5.40566e-18)
(26.8881 2.36653 0)
(26.7699 2.75837 -6.13288e-16)
(26.5952 3.10908 -9.12448e-18)
(26.3923 3.41812 7.93915e-16)
(26.0761 3.74895 -1.59933e-15)
(25.7961 4.12523 -5.02479e-19)
(24.1493 4.20668 0)
(12.4763 16.3942 -2.7802e-17)
(13.3938 17.5471 -1.51705e-17)
(14.5186 18.709 4.34186e-17)
(15.8223 19.8135 -4.84308e-17)
(17.2732 20.7821 -5.75209e-18)
(18.8913 21.612 -1.07101e-16)
(20.6349 22.261 2.15443e-16)
(22.4618 22.6922 0)
(24.3437 22.894 9.73132e-16)
(26.2368 22.8563 4.78374e-16)
(28.1017 22.5772 0)
(29.9048 22.0649 1.05633e-15)
(31.6122 21.3336 -5.7211e-16)
(33.1945 20.4015 1.59568e-15)
(34.6279 19.2915 0)
(35.8935 18.0272 -2.7326e-15)
(36.9738 16.6299 2.65373e-15)
(37.8744 15.0974 -1.6474e-16)
(38.5908 13.4408 0)
(39.1072 11.6918 2.94777e-15)
(39.4054 9.88372 -2.99985e-15)
(39.4616 8.06919 -1.54961e-16)
(39.2596 6.30504 -2.37739e-15)
(38.7967 4.69101 -2.20342e-15)
(38.1752 3.29646 0)
(37.4745 2.1347 0)
(36.7986 1.15109 -2.33337e-16)
(36.1009 0.221515 -2.60807e-17)
(35.2924 -0.668733 1.62161e-15)
(34.3329 -1.44162 -4.25693e-17)
(33.216 -2.0761 4.33466e-17)
(31.9382 -2.56097 4.38509e-15)
(30.4686 -2.8904 0)
(28.688 -2.91915 9.98686e-15)
(27.5961 -2.71161 -2.89262e-17)
(26.2553 -2.88544 0)
(26.316 -3.84883 -7.36619e-17)
(21.9301 -3.10894 0)
(-3.29887 2.29407 1.46503e-15)
(11.7179 15.2047 4.25538e-17)
(11.0522 13.9423 -2.45268e-16)
(10.4837 12.462 -4.82331e-17)
(10.0189 10.8064 1.02323e-15)
(9.76423 9.04894 -1.60927e-15)
(9.74062 7.22909 -2.01302e-15)
(9.96208 5.40033 2.10292e-15)
(10.4241 3.64816 -1.94388e-15)
(11.1123 2.0587 -8.51898e-16)
(11.9825 0.672212 -7.46487e-16)
(12.9739 -0.486092 1.43465e-15)
(14.0286 -1.41154 -1.35544e-15)
(15.1051 -2.12386 -5.84129e-16)
(16.1702 -2.65002 5.70536e-16)
(17.1996 -3.01675 -1.21087e-15)
(18.1805 -3.25429 2.27077e-16)
(19.1087 -3.38847 0)
(19.9857 -3.44008 -8.12051e-16)
(20.8179 -3.42414 2.8389e-16)
(21.6136 -3.34848 -1.07727e-15)
(22.3801 -3.2148 0)
(23.1214 -3.01836 6.21416e-16)
(23.8357 -2.74929 4.67166e-16)
(24.508 -2.39546 -3.08976e-16)
(25.107 -1.96337 0)
(25.61 -1.48617 -1.36217e-16)
(26.0189 -0.989143 0)
(26.3422 -0.484627 0)
(26.5837 0.0179013 0)
(26.7452 0.508332 -5.81628e-17)
(26.8308 0.981741 0)
(26.8481 1.43665 0)
(26.803 1.8699 6.09357e-16)
(26.7001 2.27778 5.91921e-16)
(26.5375 2.66148 0)
(26.323 3.02158 6.56052e-16)
(25.9841 3.39666 1.01099e-16)
(25.5755 3.74956 0)
(24.1627 4.13576 -2.38904e-16)
(13.9417 15.3507 3.58367e-17)
(14.7721 16.3705 -2.54834e-17)
(15.7863 17.4042 0)
(16.9572 18.3897 1.13186e-17)
(18.2535 19.2572 -1.23835e-17)
(19.7034 20.0093 1.00076e-16)
(21.2709 20.606 4.3186e-17)
(22.9223 21.014 -5.57359e-16)
(24.6387 21.2194 -7.95593e-17)
(26.3845 21.2084 9.53965e-16)
(28.1264 20.9742 -3.43836e-16)
(29.8355 20.5173 8.06697e-16)
(31.4793 19.8444 4.07564e-16)
(33.0285 18.9663 2.93513e-16)
(34.458 17.8989 0)
(35.744 16.6612 -5.91298e-16)
(36.8688 15.2727 -1.32463e-15)
(37.809 13.7678 -4.98448e-15)
(38.5374 12.1928 1.48036e-15)
(39.0417 10.5766 -1.89452e-15)
(39.3128 8.94585 -2.96695e-16)
(39.3443 7.32738 0)
(39.1309 5.75821 2.11609e-15)
(38.6789 4.30243 1.35482e-16)
(38.0433 3.03351 -6.01164e-17)
(37.3114 1.95655 -8.37253e-16)
(36.5671 1.01346 1.91278e-16)
(35.831 0.130765 3.99589e-16)
(35.0576 -0.696394 -1.49743e-15)
(34.2094 -1.42628 -7.83584e-17)
(33.2801 -2.04226 2.48066e-15)
(32.256 -2.52688 3.87459e-15)
(31.1076 -2.85612 0)
(29.7714 -2.91959 1.62161e-17)
(28.2871 -2.69619 -2.86997e-15)
(26.5925 -2.85208 0)
(26.7562 -3.53857 -2.29328e-15)
(21.5284 -2.15611 0)
(-2.54896 2.57103 -2.3155e-15)
(13.2474 14.3012 -4.15482e-17)
(12.6345 13.194 9.81304e-17)
(12.0977 11.8911 -2.36959e-16)
(11.6443 10.4309 0)
(11.3662 8.88351 6.73034e-16)
(11.278 7.27001 3.10319e-15)
(11.3973 5.63037 0)
(11.7227 4.04795 -1.42667e-15)
(12.2425 2.596 -1.34822e-15)
(12.9269 1.30389 1.33572e-15)
(13.7311 0.195175 -5.04188e-17)
(14.6104 -0.718927 5.73143e-16)
(15.5324 -1.44926 3.58515e-17)
(16.4685 -2.01349 1.47178e-15)
(17.3957 -2.42871 1.29928e-15)
(18.2994 -2.7171 -1.20758e-15)
(19.1717 -2.89884 1.66625e-16)
(20.0094 -2.99161 -3.08436e-16)
(20.814 -3.00919 1.42033e-16)
(21.5894 -2.96025 8.05031e-16)
(22.3397 -2.84809 1.02704e-16)
(23.0666 -2.67061 -6.8519e-17)
(23.7669 -2.42104 -3.93887e-16)
(24.427 -2.09063 0)
(25.0203 -1.68347 1.19281e-17)
(25.525 -1.22563 2.66869e-16)
(25.9397 -0.740361 -4.4199e-19)
(26.2705 -0.239656 4.43031e-19)
(26.5201 0.267095 0)
(26.6901 0.770431 5.50237e-17)
(26.784 1.26063 0)
(26.8083 1.72492 0)
(26.7689 2.15632 -5.69968e-16)
(26.6709 2.55015 -5.01284e-16)
(26.5134 2.90899 0)
(26.3045 3.22997 -6.20555e-16)
(25.9712 3.55928 1.03854e-15)
(25.5772 3.8365 4.45361e-19)
(24.2371 4.06124 4.00597e-16)
(15.1474 14.4662 2.84867e-18)
(15.8942 15.3803 -2.29166e-17)
(16.805 16.3137 3.59185e-17)
(17.8513 17.2083 -3.47509e-17)
(19.0014 18.0016 1.53853e-17)
(20.2881 18.7022 0)
(21.6785 19.2748 -2.279e-16)
(23.1445 19.6895 -5.53461e-18)
(24.6748 19.9348 -2.77895e-16)
(26.2392 19.9967 -5.72594e-16)
(27.8113 19.8662 0)
(29.3675 19.5406 -1.45861e-15)
(30.8783 19.0218 -1.28047e-15)
(32.3171 18.3156 -3.15659e-15)
(33.6587 17.4333 0)
(34.8787 16.39 -1.99322e-15)
(35.9549 15.2046 -2.11448e-15)
(36.8679 13.897 2.3509e-15)
(37.607 12.4752 -2.32996e-15)
(38.1571 10.9613 2.16902e-15)
(38.5036 9.38381 2.68906e-16)
(38.6314 7.78483 -2.3225e-15)
(38.5293 6.21515 0)
(38.1998 4.7446 -2.0146e-15)
(37.6794 3.44266 1.18864e-16)
(37.0411 2.3184 8.73082e-16)
(36.3556 1.3241 0)
(35.6418 0.405621 -2.96488e-17)
(34.8699 -0.44842 6.31454e-17)
(34.0171 -1.2084 2.41176e-15)
(33.0905 -1.85071 -2.18874e-15)
(32.1078 -2.3596 -3.63926e-15)
(31.0431 -2.71221 2.8611e-15)
(30.038 -2.81561 -1.37751e-17)
(28.9043 -2.65512 2.66629e-15)
(27.2521 -2.8515 4.05497e-15)
(27.1472 -3.16433 9.45341e-16)
(20.689 -1.06275 6.15389e-18)
(-1.75472 2.90965 -4.64042e-18)
(14.5175 13.5271 1.65207e-17)
(13.958 12.5418 1.80735e-16)
(13.4562 11.3799 2.2906e-16)
(13.0196 10.0762 -4.5498e-16)
(12.7301 8.69819 -1.74494e-15)
(12.5984 7.25275 5.26038e-16)
(12.6447 5.77198 1.18141e-15)
(12.8702 4.33631 2.92932e-15)
(13.2641 3.00837 1.15696e-15)
(13.8057 1.80935 -1.08031e-15)
(14.4608 0.760162 -2.6842e-17)
(15.1945 -0.126392 -5.0458e-16)
(15.9814 -0.857244 0)
(16.7986 -1.44421 -2.0872e-17)
(17.6255 -1.89804 -8.01954e-16)
(18.4482 -2.23463 3.44918e-16)
(19.2572 -2.46894 -3.39423e-16)
(20.0463 -2.6146 0)
(20.8136 -2.68263 4.97876e-16)
(21.5598 -2.68067 -8.46909e-16)
(22.2861 -2.61173 0)
(22.9922 -2.47465 5.89851e-16)
(23.6739 -2.26444 0)
(24.3186 -1.9754 -1.84934e-17)
(24.9032 -1.61152 1.84825e-17)
(25.407 -1.19432 -1.38107e-16)
(25.8259 -0.745841 -2.91211e-18)
(26.1634 -0.279219 -7.01357e-19)
(26.4215 0.195233 -4.6826e-19)
(26.6013 0.666885 3.71541e-17)
(26.7057 1.12519 1.01895e-16)
(26.741 1.56482 -2.23307e-16)
(26.7125 1.98172 -7.5732e-18)
(26.6249 2.37195 3.34297e-17)
(26.4764 2.73646 0)
(26.2761 3.07374 -5.706e-18)
(25.9465 3.41659 -4.37664e-16)
(25.5761 3.69646 -1.0249e-17)
(24.3815 3.9639 7.84906e-16)
(16.1974 13.6882 6.33184e-18)
(16.8814 14.5123 3.52244e-17)
(17.7142 15.3572 0)
(18.6668 16.1681 -2.26122e-17)
(19.7074 16.8886 -2.18232e-17)
(20.8707 17.5309 0)
(22.1272 18.0622 -8.50964e-17)
(23.4524 18.4565 7.22339e-16)
(24.8403 18.7033 -1.06326e-15)
(26.2662 18.7885 3.37205e-16)
(27.7082 18.7019 4.91021e-16)
(29.1482 18.4379 1.84518e-15)
(30.5606 17.9942 1.34545e-15)
(31.9213 17.3718 1.63082e-15)
(33.2064 16.5765 4.3854e-16)
(34.3915 15.6179 1.46231e-15)
(35.4534 14.5095 2.02164e-15)
(36.3719 13.2668 1.98863e-15)
(37.1238 11.9182 -1.4858e-15)
(37.6893 10.4942 -4.57445e-15)
(38.0531 9.02429 0)
(38.2043 7.54099 8.97209e-17)
(38.1372 6.08424 1.80894e-15)
(37.858 4.70741 1.90663e-15)
(37.3968 3.46483 -1.08539e-16)
(36.8129 2.37225 -7.83124e-16)
(36.1698 1.39967 5.55741e-18)
(35.4878 0.50276 -3.93569e-16)
(34.7408 -0.332708 4.14805e-17)
(33.9055 -1.0808 -4.49471e-15)
(32.983 -1.71422 -9.43406e-18)
(31.9965 -2.21645 -5.81308e-17)
(30.9131 -2.57154 -2.73313e-15)
(29.9282 -2.68121 -1.51747e-17)
(29.0829 -2.57477 -2.53435e-15)
(27.663 -2.82685 -7.54657e-15)
(27.5647 -2.80091 8.42208e-16)
(20.1778 -0.0774377 -1.19592e-15)
(0.25381 2.44812 -2.74703e-15)
(15.6157 12.8428 -6.73236e-17)
(15.0971 11.9592 -2.42031e-16)
(14.623 10.9152 -1.66936e-16)
(14.2009 9.74178 -4.21531e-16)
(13.9057 8.50346 9.62764e-16)
(13.7445 7.19752 -6.53538e-17)
(13.7379 5.85203 -2.92294e-15)
(13.8889 4.54342 -9.93159e-16)
(14.1873 3.32579 2.28179e-17)
(14.618 2.21445 0)
(15.154 1.22805 -9.12446e-16)
(15.7673 0.379278 8.43982e-16)
(16.4385 -0.336914 -8.05711e-16)
(17.1495 -0.928725 -4.09259e-16)
(17.883 -1.40242 3.36556e-16)
(18.627 -1.76908 3.35527e-16)
(19.3718 -2.03885 1.18227e-15)
(20.1098 -2.22141 -2.78517e-16)
(20.837 -2.3251 -4.63024e-16)
(21.5515 -2.35623 0)
(22.2521 -2.31755 -6.80908e-16)
(22.9364 -2.20868 -4.87924e-16)
(23.5994 -2.02614 -1.28831e-17)
(24.229 -1.7664 -4.92487e-17)
(24.8044 -1.43312 -1.28765e-17)
(25.3062 -1.04361 1.83803e-16)
(25.728 -0.61798 -1.88322e-18)
(26.0711 -0.169478 1.10012e-17)
(26.3365 0.291612 -1.23335e-18)
(26.5247 0.754805 -3.43579e-17)
(26.6379 1.21044 -1.34739e-17)
(26.6818 1.64876 4.22434e-16)
(26.6613 2.06251 3.92768e-16)
(26.5806 2.44622 4.12385e-16)
(26.438 2.80032 9.92566e-18)
(26.2422 3.12148 -4.24811e-18)
(25.9184 3.44171 2.39055e-16)
(25.5386 3.67978 -7.523e-16)
(24.5645 3.8898 -1.36966e-15)
(17.1068 13.0005 -1.95534e-17)
(17.7373 13.748 -1.46769e-17)
(18.5034 14.517 -6.19242e-17)
(19.3758 15.2561 1.69976e-16)
(20.3228 15.9136 -2.85176e-17)
(21.3796 16.5044 -6.2966e-17)
(22.5192 16.999 2.97217e-16)
(23.7194 17.3742 0)
(24.9782 17.6219 3.22222e-16)
(26.2742 17.729 1.6762e-17)
(27.59 17.6853 -4.18702e-16)
(28.9115 17.4846 -1.69789e-15)
(30.217 17.1225 -7.06101e-16)
(31.4852 16.5974 0)
(32.6943 15.9117 0)
(33.8208 15.0719 0)
(34.8415 14.0884 0)
(35.7343 12.9766 -1.9024e-15)
(36.4795 11.7526 1.94457e-15)
(37.0589 10.4355 1.91205e-15)
(37.4551 9.05113 -1.54299e-15)
(37.6545 7.634 1.36263e-15)
(37.6491 6.22682 -1.41021e-15)
(37.4417 4.88251 -1.03445e-16)
(37.0547 3.65284 -4.68186e-17)
(36.5356 2.55701 7.88047e-16)
(35.9422 1.57439 1.68415e-16)
(35.2988 0.66992 0)
(34.5877 -0.168672 0)
(33.7884 -0.919896 3.92579e-17)
(32.8976 -1.55778 0)
(31.9335 -2.06453 3.11701e-15)
(30.8659 -2.42992 -2.58272e-15)
(29.8266 -2.54905 -3.61774e-15)
(29.0488 -2.47801 4.79278e-15)
(27.7113 -2.75747 3.57496e-15)
(27.8109 -2.46281 -7.28126e-16)
(21.1248 0.493647 1.89806e-15)
(5.61393 1.31382 2.28831e-15)
(16.5669 12.2342 0)
(16.0834 11.4361 6.80572e-17)
(15.6343 10.4912 3.17125e-16)
(15.2271 9.42729 -1.35333e-15)
(14.9308 8.30553 1.16931e-15)
(14.7501 7.11756 -8.52644e-16)
(14.7047 5.88869 1.66899e-17)
(14.799 4.69064 7.7427e-16)
(15.0242 3.57118 8.04082e-16)
(15.368 2.54155 0)
(15.8085 1.61786 3.76455e-16)
(16.3225 0.812121 -1.14698e-15)
(16.8953 0.119833 1.79551e-15)
(17.5126 -0.465266 3.22824e-16)
(18.1604 -0.947092 -6.52307e-16)
(18.8289 -1.3332 -6.01136e-16)
(19.5093 -1.63024 -5.46365e-16)
(20.1938 -1.84464 0)
(20.8773 -1.98208 0)
(21.5561 -2.04713 0)
(22.2271 -2.04185 6.36687e-16)
(22.8864 -1.9659 0)
(23.5281 -1.81663 -3.87443e-16)
(24.1405 -1.59193 -4.79501e-17)
(24.7048 -1.29519 -2.55771e-16)
(25.2024 -0.940659 -1.60889e-16)
(25.6254 -0.546456 0)
(25.9731 -0.125955 -8.59836e-18)
(26.2452 0.310244 1.24257e-18)
(26.4416 0.751482 -3.81937e-19)
(26.5642 1.18703 -1.44563e-16)
(26.6179 1.60851 -2.24991e-17)
(26.6069 2.00998 -3.80211e-16)
(26.5352 2.38623 3.206e-16)
(26.4005 2.7371 0)
(26.21 3.05841 3.69964e-18)
(25.8965 3.37652 -8.89404e-17)
(25.5042 3.60402 7.20963e-16)
(24.6736 3.81045 -9.25465e-18)
(17.9056 12.3847 2.05681e-17)
(18.4913 13.0657 0)
(19.2016 13.7679 1.25265e-16)
(20.0072 14.4431 -9.44644e-17)
(20.8764 15.0434 5.14416e-18)
(21.8449 15.5854 5.87123e-17)
(22.8868 16.0422 -1.29481e-16)
(23.9822 16.3935 -1.79448e-16)
(25.1314 16.6328 0)
(26.3162 16.7478 -3.60364e-16)
(27.5226 16.7291 -3.97693e-16)
(28.74 16.57 3.93693e-16)
(29.9498 16.2647 1.51347e-15)
(31.1342 15.8093 6.22139e-16)
(32.2739 15.2032 -1.89206e-15)
(33.3464 14.4494 -1.38191e-15)
(34.3297 13.555 1.09794e-15)
(35.2017 12.5307 8.1958e-16)
(35.9416 11.3921 -4.22401e-16)
(36.5283 10.1622 4.2546e-16)
(36.943 8.86728 1.08398e-15)
(37.1721 7.53845 2.01633e-16)
(37.2084 6.21312 -1.9016e-16)
(37.0543 4.93613 -1.26705e-15)
(36.7267 3.75137 0)
(36.2626 2.67893 -6.62607e-16)
(35.7126 1.70767 -3.1451e-16)
(35.1031 0.812069 -2.88728e-16)
(34.4231 -0.0176377 -1.06272e-15)
(33.6565 -0.763861 3.94132e-15)
(32.7995 -1.4015 1.58886e-15)
(31.8665 -1.9108 7.35896e-18)
(30.8401 -2.28362 2.57396e-17)
(29.7922 -2.41822 0)
(29.0093 -2.37395 -2.29601e-15)
(27.6385 -2.66169 0)
(27.7341 -2.15753 0)
(23.296 0.617893 -7.90144e-16)
(12.7489 0.128057 1.5788e-18)
(17.4008 11.6868 -6.83196e-17)
(16.9475 10.9617 2.21243e-16)
(16.5206 10.1013 1.58179e-17)
(16.1281 9.13121 3.02456e-16)
(15.8335 8.10855 -1.01895e-15)
(15.6401 7.02187 6.84443e-16)
(15.5658 5.89454 2.32219e-17)
(15.6168 4.7935 -6.45087e-16)
(15.7852 3.76145 -6.24879e-16)
(16.0603 2.80682 -6.60012e-16)
(16.4237 1.94375 -1.28949e-15)
(16.856 1.18321 0)
(17.3454 0.520535 -6.49559e-16)
(17.8808 -0.0496298 -2.16962e-17)
(18.4513 -0.529634 0)
(19.0491 -0.924993 -5.33101e-16)
(19.6668 -1.2396 -2.53382e-16)
(20.2974 -1.47731 -2.35591e-16)
(20.9353 -1.6415 7.98452e-16)
(21.576 -1.73483 7.02158e-16)
(22.2149 -1.75821 -7.02678e-17)
(22.8473 -1.71113 5.21485e-16)
(23.4662 -1.59142 9.4251e-17)
(24.0604 -1.39766 -4.65397e-17)
(24.6122 -1.13306 2.27316e-16)
(25.104 -0.809315 1.3378e-17)
(25.5266 -0.442385 0)
(25.8775 -0.0453239 0)
(26.1553 0.371213 1.38878e-19)
(26.3592 0.796589 -1.43085e-18)
(26.4902 1.22021 1.13771e-16)
(26.5528 1.63283 -2.21144e-17)
(26.5506 2.02689 -2.97274e-16)
(26.487 2.39611 -3.05175e-16)
(26.3599 2.73959 -6.22931e-18)
(26.1746 3.05179 3.29669e-18)
(25.8707 3.35576 -1.79534e-16)
(25.4807 3.56081 -7.91552e-16)
(24.712 3.73986 9.66151e-18)
(18.611 11.8289 7.98178e-18)
(19.1579 12.4519 0)
(19.8199 13.0952 -6.45717e-17)
(20.5679 13.7137 0)
(21.3703 14.263 -1.42847e-17)
(22.2626 14.7607 1.37844e-17)
(23.22 15.1822 9.67584e-17)
(24.2243 15.5095 1.684e-16)
(25.2773 15.7376 0)
(26.3629 15.8558 -2.284e-16)
(27.4702 15.8555 4.04887e-16)
(28.5912 15.73 -8.41012e-16)
(29.7102 15.4732 -4.7591e-16)
(30.8123 15.08 -4.9164e-16)
(31.8803 14.5482 1.20351e-15)
(32.8942 13.8782 1.31571e-15)
(33.833 13.0744 -1.42288e-15)
(34.6751 12.1453 -1.42606e-15)
(35.3996 11.1042 0)
(35.9867 9.96787 3.8946e-16)
(36.4168 8.7589 -7.54432e-16)
(36.6754 7.50657 1.8584e-16)
(36.754 6.24685 4.23218e-18)
(36.6534 5.02173 2.98009e-15)
(36.3848 3.87107 -1.62766e-16)
(35.9764 2.81559 9.91188e-17)
(35.4724 1.85133 2.89996e-16)
(34.8995 0.96096 3.05429e-16)
(34.252 0.137117 9.11813e-16)
(33.5173 -0.605779 -1.80553e-15)
(32.6924 -1.24362 -1.45077e-15)
(31.7892 -1.7557 -5.46629e-15)
(30.802 -2.13394 4.41239e-15)
(29.7781 -2.28631 -5.81645e-17)
(29.0002 -2.26444 2.20885e-15)
(27.6198 -2.55467 -6.24777e-17)
(27.4107 -1.90054 2.42345e-17)
(25.4759 0.501494 1.98567e-19)
(19.0638 -0.792825 1.68202e-15)
(18.137 11.1905 3.47614e-17)
(17.7104 10.5281 -1.1179e-16)
(17.3039 9.74083 2.1511e-16)
(16.9256 8.85203 0)
(16.6344 7.91524 5.77979e-16)
(16.4329 6.91652 0)
(16.3376 5.87836 0)
(16.3551 4.86283 0)
(16.4789 3.90886 1.15406e-15)
(16.6993 3.02278 -5.61347e-16)
(17.0003 2.21717 6.34507e-16)
(17.3651 1.50203 0)
(17.7842 0.872218 0)
(18.2486 0.322554 -5.5522e-16)
(18.7499 -0.148537 0)
(19.2825 -0.545213 4.9537e-16)
(19.8405 -0.869882 1.00519e-17)
(20.4179 -1.12432 0)
(21.0094 -1.30993 -5.69844e-16)
(21.6101 -1.42779 -8.31272e-16)
(22.2148 -1.47775 -5.68807e-16)
(22.8179 -1.45875 -4.79105e-16)
(23.4123 -1.36852 7.95022e-16)
(23.9868 -1.20603 0)
(24.5245 -0.97419 2.38868e-16)
(25.0086 -0.682554 1.9903e-16)
(25.4291 -0.345122 6.28595e-17)
(25.7819 0.0255741 0)
(26.0643 0.418848 -1.7704e-18)
(26.2751 0.824082 4.00073e-18)
(26.4144 1.23047 -8.29167e-17)
(26.486 1.62863 -2.13625e-17)
(26.4929 2.0113 2.70299e-16)
(26.438 2.37197 -2.17314e-16)
(26.3189 2.70908 -1.84803e-18)
(26.1397 3.01615 -5.03895e-18)
(25.8448 3.31118 1.94813e-17)
(25.4642 3.5055 7.33127e-16)
(24.7322 3.66114 3.4202e-15)
(19.2386 11.3232 4.67383e-18)
(19.7515 11.8949 -2.39738e-17)
(20.3714 12.486 0)
(21.0694 13.0536 -6.11844e-17)
(21.8141 13.5569 0)
(22.6404 14.0136 0)
(23.5247 14.4017 2.13817e-17)
(24.4498 14.7048 1.52966e-16)
(25.4187 14.9191 3.64561e-16)
(26.4172 15.0354 9.76464e-16)
(27.4362 15.0461 5.7133e-16)
(28.47 14.945 6.75744e-16)
(29.5057 14.7257 0)
(30.5307 14.3824 1.36375e-15)
(31.5304 13.9115 -4.85145e-16)
(32.4867 13.3117 0)
(33.3803 12.5851 1.18191e-15)
(34.1906 11.7374 1.3605e-15)
(34.8973 10.7793 0)
(35.4805 9.7259 1.37587e-15)
(35.92 8.59909 -1.34792e-15)
(36.2006 7.42541 0)
(36.3137 6.23734 -1.60117e-16)
(36.2584 5.07212 2.90778e-17)
(36.0419 3.96466 7.6436e-17)
(35.6851 2.93534 1.13946e-15)
(35.2258 1.98579 -3.94217e-18)
(34.69 1.10581 -2.98678e-17)
(34.0758 0.290925 -2.45682e-17)
(33.3739 -0.446499 5.46973e-17)
(32.5811 -1.08308 1.44756e-15)
(31.7079 -1.59751 4.90739e-15)
(30.7545 -1.98061 4.50207e-17)
(29.7598 -2.15159 -3.01965e-15)
(28.9941 -2.14959 -2.01115e-15)
(27.6731 -2.43756 -2.99684e-15)
(27.0479 -1.704 -7.81464e-16)
(26.8907 0.331788 1.39671e-18)
(23.4102 -1.35512 -1.53971e-15)
(18.7918 10.737 -7.44697e-17)
(18.3888 10.1296 -2.63874e-16)
(18.0008 9.40638 5.13353e-16)
(17.6362 8.58882 0)
(17.3496 7.72696 9.12189e-16)
(17.1434 6.80571 0)
(17.0326 5.84633 -4.59292e-16)
(17.0243 4.90672 1.83468e-15)
(17.1129 4.02267 -1.40698e-15)
(17.2894 3.19927 0)
(17.5396 2.44752 1.02245e-15)
(17.8485 1.77654 9.80172e-16)
(18.2082 1.1808 0)
(18.6115 0.655191 -9.51117e-16)
(19.0516 0.198303 2.27017e-16)
(19.5248 -0.19358 -2.2742e-16)
(20.0268 -0.521799 2.18756e-16)
(20.5526 -0.786768 3.79293e-16)
(21.0978 -0.988405 -1.64319e-17)
(21.6577 -1.12636 4.46655e-16)
(22.2267 -1.19937 1.25687e-16)
(22.7991 -1.20568 -1.23246e-16)
(23.3675 -1.14284 -3.77346e-16)
(23.9209 -1.0097 3.13418e-16)
(24.443 -0.808664 -2.10804e-16)
(24.9177 -0.547584 -2.01671e-16)
(25.3345 -0.238512 -5.9289e-17)
(25.6877 0.106781 -4.31789e-19)
(25.9737 0.477756 2.11015e-18)
(26.1904 0.863972 -3.78453e-18)
(26.3373 1.25466 1.13439e-17)
(26.4174 1.6402 -2.07232e-17)
(26.4331 2.01263 -1.93779e-16)
(26.3866 2.36469 2.20652e-16)
(26.2757 2.694 -4.12484e-18)
(26.1032 2.99311 1.67796e-16)
(25.8177 3.27574 2.90741e-17)
(25.4486 3.45573 0)
(24.7531 3.58373 -3.23442e-15)
(19.7998 10.8601 1.28794e-17)
(20.2827 11.3863 0)
(20.8653 11.9305 0)
(21.519 12.4525 9.15882e-17)
(22.2131 12.9142 -2.10238e-17)
(22.9816 13.3336 0)
(23.8016 13.6902 0)
(24.6571 13.9698 -4.77379e-16)
(25.5517 14.1695 -2.52081e-17)
(26.4726 14.2812 -3.24458e-17)
(27.4123 14.2985 -1.32217e-15)
(28.367 14.2155 -3.56359e-16)
(29.3256 14.0262 6.86162e-16)
(30.2779 13.7249 -5.94249e-17)
(31.2116 13.3069 0)
(32.1106 12.7697 0)
(32.9574 12.1137 -3.23035e-15)
(33.7329 11.3424 -6.00393e-16)
(34.4171 10.4647 6.15709e-16)
(34.9913 9.49253 -1.33204e-15)
(35.4358 8.44488 2.53281e-15)
(35.7342 7.34572 1.19976e-15)
(35.8774 6.22493 -1.16098e-15)
(35.8631 5.11647 -1.31058e-15)
(35.6946 4.05161 2.07238e-16)
(35.3867 3.04998 -1.11545e-15)
(34.9715 2.11729 -1.25091e-16)
(34.4735 1.24927 2.75794e-17)
(33.8937 0.444332 -2.7601e-17)
(33.2254 -0.286422 9.02581e-17)
(32.466 -0.920686 -3.93154e-17)
(31.624 -1.4369 -2.40485e-15)
(30.7037 -1.82441 -7.7872e-17)
(29.7371 -2.01378 7.32494e-17)
(28.9766 -2.03014 0)
(27.754 -2.30718 2.77323e-15)
(26.7945 -1.56295 7.55204e-16)
(27.5133 0.185964 0)
(25.8754 -1.60792 0)
(19.3774 10.3203 0)
(18.9954 9.76148 2.33857e-16)
(18.6246 9.09508 -7.58896e-16)
(18.273 8.34042 -3.59063e-16)
(17.9921 7.54471 -8.23293e-16)
(17.7836 6.69217 0)
(17.6616 5.80293 0)
(17.6333 4.93121 -8.1976e-16)
(17.6939 4.11019 8.47872e-16)
(17.8349 3.34389 0)
(18.0434 2.64216 -4.30316e-16)
(18.306 2.01348 -4.59938e-16)
(18.6155 1.45208 4.31781e-16)
(18.9661 0.952466 4.43484e-16)
(19.3526 0.513135 -8.21429e-16)
(19.7722 0.13068 0)
(20.2223 -0.195841 -1.81237e-16)
(20.699 -0.46603 1.33492e-17)
(21.1989 -0.678846 7.92446e-16)
(21.7177 -0.832803 -1.41064e-16)
(22.2503 -0.925595 1.352e-16)
(22.7907 -0.9548 -1.00132e-16)
(23.3318 -0.917585 1.40666e-16)
(23.8628 -0.812503 -6.38299e-16)
(24.368 -0.641247 -2.16274e-16)
(24.8317 -0.410143 1.69889e-16)
(25.2429 -0.129526 -9.86333e-18)
(25.5952 0.18976 0)
(25.8836 0.537463 -3.06147e-18)
(26.1054 0.903325 7.90574e-18)
(26.2592 1.27667 2.1043e-17)
(26.3476 1.64763 -7.70882e-17)
(26.372 2.00818 3.33908e-16)
(26.3341 2.35065 -3.05904e-16)