/*--------------------------------*- C++ -*----------------------------------*\
| =========                 |                                                 |
| \\      /  F ield         | OpenFOAM: The Open Source CFD Toolbox           |
|  \\    /   O peration     | Version:  2312                                  |
|   \\  /    A nd           | Website:  www.openfoam.com                      |
|    \\/     M anipulation  |                                                 |
\*---------------------------------------------------------------------------*/
FoamFile
{
    version     2.0;
    format      ascii;
    arch        "LSB;label=32;scalar=64";
    class       volScalarField;
    location    "52.602980491736346";
    object      p;
}
// * * * * * * * * * * * * * * * * * * * * * * * * * * * * * * * * * * * * * //

dimensions      [0 2 -2 0 0 0 0];

internalField   nonuniform List<scalar> 
21039
(
0.599397
0.465465
0.423386
0.395134
0.37382
0.357753
0.345329
0.335447
0.327424
0.32081
0.31529
0.310634
0.306671
0.30327
0.300329
0.297766
0.295515
0.29352
0.291734
0.290116
0.288632
0.287253
0.28595
0.284767
0.283742
0.282832
0.281998
0.281206
0.280444
0.4522
0.414372
0.400583
0.382205
0.365452
0.352178
0.34144
0.332606
0.325283
0.319161
0.313996
0.309605
0.305845
0.302603
0.29979
0.297332
0.295168
0.293246
0.291523
0.289959
0.288522
0.287181
0.285909
0.284747
0.28373
0.282822
0.281988
0.281197
0.280434
0.362765
0.360409
0.36259
0.355843
0.347414
0.339628
0.332384
0.325865
0.320145
0.315164
0.310836
0.307074
0.303799
0.300939
0.298434
0.296229
0.294277
0.292536
0.290968
0.289542
0.288224
0.286989
0.28581
0.284721
0.283756
0.282886
0.282081
0.281314
0.280572
0.324652
0.326778
0.331266
0.330195
0.32759
0.324378
0.320582
0.316671
0.312913
0.30941
0.306208
0.30332
0.300734
0.298428
0.296377
0.294549
0.292918
0.291454
0.290129
0.288918
0.287795
0.286735
0.285716
0.284763
0.283904
0.283117
0.282377
0.281661
0.280958
0.299584
0.303556
0.309465
0.311192
0.311409
0.310691
0.309164
0.307243
0.305148
0.303007
0.300917
0.298936
0.297097
0.295413
0.293884
0.292504
0.29126
0.290137
0.289117
0.288182
0.287312
0.286486
0.285685
0.284922
0.284213
0.283544
0.282898
0.282255
0.281605
0.279888
0.285144
0.292509
0.296393
0.298416
0.299235
0.299175
0.298616
0.297742
0.296679
0.295528
0.294362
0.293227
0.292153
0.291158
0.290249
0.289425
0.288681
0.288008
0.287393
0.286822
0.286277
0.285744
0.285217
0.284696
0.284177
0.283649
0.283099
0.282521
0.267058
0.272078
0.279179
0.284133
0.287367
0.289321
0.290353
0.290807
0.290861
0.290647
0.290269
0.289802
0.289297
0.288793
0.288313
0.287873
0.287481
0.287138
0.28684
0.28658
0.286348
0.286127
0.285903
0.285664
0.285368
0.285029
0.284644
0.284205
0.283718
0.259692
0.263789
0.269525
0.274471
0.278183
0.280777
0.282534
0.283721
0.284486
0.284951
0.285213
0.285343
0.285396
0.285411
0.285418
0.285435
0.285475
0.285544
0.285642
0.285764
0.285905
0.286051
0.286189
0.286262
0.286237
0.286116
0.285904
0.285595
0.285198
0.255089
0.258286
0.262641
0.267117
0.27081
0.273616
0.275744
0.277387
0.278652
0.279632
0.280407
0.281038
0.281577
0.28206
0.282519
0.282974
0.283439
0.283923
0.284429
0.284955
0.285498
0.286045
0.286586
0.287035
0.287322
0.287456
0.28745
0.287303
0.287026
0.251591
0.25404
0.257347
0.26128
0.26477
0.267579
0.269863
0.271761
0.27335
0.2747
0.27587
0.27691
0.277862
0.278761
0.279634
0.280502
0.281379
0.282276
0.283198
0.284145
0.285114
0.286098
0.287086
0.28796
0.288608
0.289041
0.289276
0.289321
0.289188
0.248498
0.250347
0.252902
0.256314
0.259552
0.262294
0.264636
0.266677
0.268478
0.270093
0.271566
0.272936
0.274238
0.275502
0.276751
0.278005
0.279279
0.280583
0.281923
0.283302
0.28472
0.28617
0.287647
0.288994
0.290053
0.290831
0.291351
0.291622
0.291658
0.245498
0.246901
0.248925
0.251863
0.254838
0.257483
0.259832
0.261954
0.263899
0.265709
0.267418
0.269058
0.270658
0.272242
0.273832
0.275447
0.277099
0.2788
0.280558
0.282375
0.284255
0.286194
0.288194
0.290058
0.291576
0.292748
0.293596
0.294131
0.294368
0.242435
0.243526
0.245182
0.247714
0.250435
0.252966
0.255289
0.257449
0.25949
0.261443
0.263338
0.2652
0.267053
0.26892
0.270819
0.272768
0.27478
0.276867
0.279037
0.281292
0.283637
0.286075
0.288614
0.291024
0.29304
0.294647
0.295868
0.296706
0.297178
0.239249
0.240123
0.241517
0.243709
0.246196
0.248607
0.250882
0.253052
0.255151
0.257208
0.259246
0.261289
0.263356
0.26547
0.267647
0.269906
0.272261
0.274721
0.277292
0.279979
0.282782
0.285708
0.288774
0.29172
0.294233
0.296293
0.297913
0.299086
0.299824
0.235927
0.236649
0.237835
0.23973
0.241993
0.244279
0.246496
0.248654
0.250784
0.252911
0.255056
0.25724
0.259485
0.26181
0.264235
0.26678
0.269458
0.272278
0.275242
0.278351
0.281599
0.284985
0.288525
0.291928
0.294859
0.297314
0.299309
0.300823
0.301852
0.232762
0.233374
0.234397
0.236069
0.238152
0.240322
0.242475
0.244611
0.246752
0.248921
0.251138
0.253426
0.255806
0.258301
0.260935
0.263729
0.266698
0.269849
0.273183
0.27669
0.280348
0.284127
0.288007
0.291633
0.294671
0.297188
0.299271
0.300939
0.302177
0.230087
0.230627
0.23155
0.233082
0.235031
0.237101
0.239199
0.241317
0.243467
0.245667
0.247938
0.250305
0.252791
0.255425
0.258236
0.261246
0.264474
0.267929
0.27161
0.275496
0.279545
0.283681
0.287804
0.291408
0.294101
0.296026
0.297431
0.298564
0.299651
0.227877
0.228372
0.229226
0.230658
0.232504
0.234507
0.236583
0.238707
0.240877
0.243109
0.24543
0.247867
0.250451
0.253213
0.256187
0.2594
0.262877
0.266631
0.270663
0.274949
0.279431
0.283987
0.28842
0.291977
0.294024
0.294568
0.293856
0.292391
0.291292
0.226103
0.226649
0.227525
0.22886
0.230539
0.232429
0.234486
0.236639
0.238849
0.241126
0.243504
0.246019
0.248704
0.251598
0.254737
0.258157
0.261887
0.265951
0.270356
0.275084
0.280077
0.285198
0.29019
0.29406
0.295749
0.294725
0.290621
0.282823
0.270992
0.2797
0.278951
0.278208
0.277471
0.276738
0.276007
0.275279
0.274552
0.273826
0.273098
0.27237
0.271639
0.270905
0.270167
0.269425
0.268679
0.267926
0.267167
0.266402
0.265631
0.264852
0.264066
0.263273
0.262473
0.261665
0.260851
0.26003
0.259203
0.258369
0.25753
0.256686
0.255838
0.254985
0.254129
0.25327
0.25241
0.251549
0.250688
0.249827
0.248969
0.248113
0.247262
0.246415
0.245573
0.244738
0.243911
0.243092
0.242282
0.241482
0.279693
0.278953
0.278221
0.277494
0.276771
0.276051
0.275333
0.274615
0.273898
0.27318
0.272461
0.271738
0.271012
0.270282
0.269547
0.268806
0.268059
0.267305
0.266544
0.265775
0.264998
0.264214
0.263421
0.26262
0.261811
0.260994
0.26017
0.259339
0.2585
0.257656
0.256805
0.25595
0.255089
0.254225
0.253358
0.252489
0.251618
0.250747
0.249876
0.249007
0.24814
0.247276
0.246418
0.245564
0.244717
0.243878
0.243047
0.242225
0.241413
0.279853
0.279138
0.27843
0.277727
0.277027
0.276329
0.275631
0.274934
0.274236
0.273535
0.272831
0.272123
0.271409
0.27069
0.269964
0.26923
0.268488
0.267737
0.266977
0.266208
0.265428
0.264639
0.26384
0.263031
0.262212
0.261384
0.260546
0.2597
0.258845
0.257982
0.257112
0.256236
0.255354
0.254467
0.253576
0.252682
0.251785
0.250887
0.249989
0.249092
0.248196
0.247303
0.246414
0.24553
0.244653
0.243782
0.242919
0.242066
0.241222
0.280276
0.2796
0.278927
0.278258
0.277589
0.276921
0.276252
0.27558
0.274905
0.274226
0.27354
0.272848
0.272148
0.271439
0.27072
0.269991
0.269251
0.2685
0.267736
0.266961
0.266172
0.265371
0.264558
0.263732
0.262893
0.262043
0.261181
0.260308
0.259425
0.258531
0.257629
0.256718
0.2558
0.254875
0.253945
0.25301
0.252071
0.25113
0.250187
0.249244
0.248302
0.247362
0.246425
0.245491
0.244563
0.243642
0.242728
0.241822
0.240926
0.280972
0.280345
0.279719
0.279093
0.278465
0.277834
0.277199
0.276558
0.275911
0.275256
0.274591
0.273916
0.273229
0.27253
0.271818
0.271091
0.27035
0.269593
0.268821
0.268033
0.267229
0.266409
0.265573
0.264721
0.263853
0.262971
0.262074
0.261163
0.260239
0.259303
0.258355
0.257397
0.256428
0.255452
0.254467
0.253477
0.252481
0.25148
0.250477
0.249472
0.248467
0.247462
0.24646
0.24546
0.244464
0.243474
0.24249
0.241513
0.240546
0.281945
0.281379
0.28081
0.280238
0.27966
0.279075
0.278481
0.277878
0.277263
0.276636
0.275994
0.275338
0.274666
0.273976
0.273269
0.272542
0.271796
0.27103
0.270244
0.269438
0.268611
0.267764
0.266897
0.26601
0.265104
0.264178
0.263235
0.262275
0.261298
0.260305
0.259299
0.258278
0.257246
0.256202
0.255149
0.254087
0.253017
0.251942
0.250862
0.249779
0.248693
0.247607
0.246522
0.245438
0.244357
0.243281
0.242209
0.241145
0.240089
0.283248
0.282711
0.282224
0.281716
0.281197
0.280667
0.280123
0.279563
0.278986
0.278391
0.277777
0.277141
0.276483
0.275803
0.275098
0.274369
0.273615
0.272835
0.27203
0.271199
0.270342
0.26946
0.268552
0.26762
0.266664
0.265685
0.264684
0.263661
0.262618
0.261556
0.260475
0.259378
0.258266
0.25714
0.256001
0.254851
0.253692
0.252524
0.25135
0.250171
0.248988
0.247802
0.246616
0.24543
0.244246
0.243066
0.241889
0.240719
0.239557
0.284811
0.284432
0.284036
0.283557
0.283116
0.282647
0.282156
0.281645
0.28111
0.280551
0.279965
0.279352
0.278709
0.278037
0.277334
0.276599
0.275833
0.275034
0.274204
0.273341
0.272447
0.271521
0.270564
0.269577
0.26856
0.267515
0.266443
0.265345
0.264221
0.263074
0.261906
0.260716
0.259508
0.258282
0.257041
0.255785
0.254517
0.253239
0.251952
0.250657
0.249358
0.248053
0.246747
0.24544
0.244134
0.24283
0.241529
0.240234
0.23895
0.286738
0.286447
0.286135
0.285808
0.285454
0.285051
0.284595
0.284143
0.283656
0.283136
0.282583
0.281994
0.281367
0.280703
0.279999
0.279257
0.278475
0.277653
0.276792
0.275892
0.274952
0.273974
0.272959
0.271907
0.270819
0.269696
0.26854
0.267353
0.266135
0.264889
0.263615
0.262316
0.260994
0.25965
0.258287
0.256907
0.25551
0.254101
0.25268
0.251249
0.249811
0.248367
0.24692
0.24547
0.24402
0.242571
0.241124
0.239685
0.238257
0.289027
0.288852
0.288636
0.288389
0.288115
0.28781
0.28747
0.28709
0.286639
0.286166
0.285647
0.285083
0.284473
0.283817
0.283114
0.282363
0.281564
0.280716
0.279822
0.278879
0.277889
0.276854
0.275772
0.274647
0.273478
0.272267
0.271015
0.269726
0.268398
0.267036
0.265641
0.264214
0.262759
0.261277
0.25977
0.258243
0.256694
0.25513
0.25355
0.251958
0.250356
0.248746
0.247132
0.245514
0.243895
0.242277
0.24066
0.239051
0.237458
0.291646
0.291605
0.29151
0.291372
0.291193
0.290969
0.290701
0.29039
0.290035
0.289623
0.289146
0.288606
0.288023
0.287384
0.286687
0.285933
0.28512
0.284251
0.283325
0.282341
0.281301
0.280205
0.279054
0.27785
0.276594
0.275285
0.273928
0.272523
0.271072
0.269578
0.268042
0.266467
0.264857
0.263212
0.261536
0.259834
0.258105
0.256355
0.254586
0.252801
0.251004
0.249196
0.247382
0.245563
0.243743
0.241924
0.240106
0.238299
0.236511
0.294528
0.294638
0.294682
0.294673
0.29461
0.294492
0.294317
0.294083
0.293792
0.293441
0.293031
0.292555
0.292012
0.291404
0.29073
0.289988
0.289178
0.288299
0.287354
0.286339
0.285256
0.284108
0.282891
0.281609
0.280263
0.278853
0.277382
0.275851
0.274262
0.272618
0.270921
0.269173
0.267379
0.265541
0.263663
0.261749
0.259801
0.257826
0.255826
0.253806
0.251769
0.249719
0.247661
0.245597
0.243533
0.24147
0.239409
0.237364
0.235344
0.297537
0.297816
0.298018
0.298158
0.298234
0.298246
0.298192
0.29807
0.297881
0.297623
0.297295
0.296895
0.296421
0.295874
0.295254
0.294564
0.29379
0.292934
0.291997
0.290976
0.289873
0.28869
0.287422
0.286074
0.284646
0.283134
0.281546
0.279881
0.278138
0.276325
0.274441
0.272489
0.270476
0.268402
0.266276
0.264101
0.261879
0.259622
0.25733
0.255011
0.252672
0.250314
0.247949
0.245577
0.243207
0.24084
0.23848
0.236141
0.233839
0.300412
0.300879
0.301263
0.301583
0.301836
0.302022
0.302139
0.302184
0.302159
0.302057
0.30188
0.301622
0.301283
0.300859
0.300339
0.299727
0.299088
0.298297
0.297419
0.296439
0.295361
0.294181
0.292893
0.291504
0.29001
0.288408
0.286705
0.284898
0.282985
0.280976
0.27887
0.27667
0.274385
0.272014
0.269569
0.267056
0.264477
0.261847
0.25917
0.256456
0.253716
0.250952
0.248181
0.245405
0.242635
0.239877
0.237133
0.234424
0.231769
0.302694
0.303363
0.303962
0.304515
0.305016
0.305468
0.305861
0.30619
0.306448
0.306624
0.306716
0.306712
0.306615
0.306422
0.306121
0.305708
0.305174
0.304567
0.303851
0.302991
0.302007
0.300895
0.299643
0.298259
0.296735
0.295064
0.293255
0.291302
0.289202
0.286965
0.284589
0.282078
0.279444
0.276686
0.273819
0.270853
0.267791
0.264655
0.26145
0.258193
0.254898
0.251574
0.248243
0.244913
0.241601
0.238317
0.235067
0.231877
0.228771
0.303238
0.304063
0.304914
0.305831
0.306779
0.307733
0.308648
0.309496
0.310253
0.310895
0.311422
0.311818
0.31209
0.312239
0.312257
0.312153
0.311903
0.31152
0.311031
0.310415
0.309617
0.308658
0.307523
0.306214
0.30472
0.303025
0.301139
0.299051
0.296753
0.294258
0.291563
0.288671
0.2856
0.282347
0.278936
0.27538
0.271684
0.267878
0.263972
0.259988
0.255949
0.251868
0.24778
0.243698
0.239656
0.235674
0.23177
0.227981
0.224344
0.300859
0.301733
0.303014
0.304693
0.30656
0.308462
0.310263
0.3119
0.313343
0.314572
0.315608
0.316451
0.317126
0.317648
0.318018
0.318256
0.318344
0.318288
0.318087
0.31774
0.317243
0.316533
0.315606
0.314463
0.313081
0.311436
0.309531
0.307349
0.304877
0.302128
0.299098
0.295792
0.292234
0.288423
0.284394
0.280163
0.275742
0.271172
0.266462
0.261645
0.256745
0.251779
0.246789
0.241793
0.236841
0.231974
0.227238
0.222711
0.218462
0.291001
0.29228
0.295752
0.300097
0.304335
0.308102
0.31128
0.313907
0.316066
0.317829
0.319289
0.320488
0.321487
0.322323
0.323007
0.323573
0.324006
0.324319
0.324498
0.324497
0.32437
0.324027
0.323421
0.322556
0.321393
0.319889
0.318039
0.315813
0.313188
0.310182
0.306788
0.303017
0.298903
0.294453
0.289715
0.284716
0.279479
0.274059
0.268469
0.262751
0.256928
0.251011
0.245037
0.239006
0.232958
0.226931
0.221007
0.215384
0.210339
0.261941
0.272991
0.285676
0.296084
0.303857
0.309526
0.313666
0.316773
0.319184
0.321104
0.322691
0.324015
0.325162
0.326175
0.327077
0.32791
0.328658
0.32934
0.329939
0.330377
0.330642
0.330797
0.330588
0.3301
0.329269
0.328021
0.326324
0.324133
0.321409
0.318177
0.314433
0.310193
0.30551
0.300399
0.29493
0.289149
0.283091
0.27683
0.270393
0.263831
0.257173
0.250424
0.243602
0.236661
0.22957
0.222248
0.21462
0.20676
0.199272
0.2407
0.239899
0.239045
0.23813
0.23714
0.236068
0.234944
0.233907
0.233058
0.232428
0.23205
0.231958
0.232198
0.232811
0.233853
0.235387
0.237491
0.240266
0.243836
0.248371
0.254094
0.261319
0.270492
0.282292
0.297817
0.318674
0.346555
0.388289
0.521949
0.240617
0.239799
0.238926
0.237987
0.236965
0.235856
0.234687
0.233601
0.232701
0.232017
0.231582
0.231432
0.2316
0.23213
0.233072
0.234484
0.236435
0.239013
0.242326
0.246512
0.251751
0.258281
0.266411
0.276528
0.289259
0.305545
0.323544
0.336981
0.374556
0.240394
0.23954
0.238622
0.237628
0.236538
0.235346
0.234076
0.232876
0.231856
0.231047
0.230476
0.230173
0.230168
0.230496
0.231197
0.232315
0.233899
0.236007
0.238706
0.24207
0.246181
0.25112
0.256944
0.263573
0.270819
0.278774
0.285116
0.282548
0.284658
0.240042
0.239127
0.238136
0.237055
0.23586
0.234539
0.233113
0.231738
0.230536
0.229532
0.228752
0.228216
0.227948
0.227974
0.228319
0.229006
0.23006
0.231503
0.233352
0.235612
0.238265
0.24126
0.244489
0.24768
0.250356
0.252483
0.253125
0.248232
0.245884
0.239587
0.238588
0.237499
0.2363
0.234964
0.233473
0.231842
0.230241
0.228804
0.227554
0.22651
0.225688
0.225103
0.22477
0.224698
0.224895
0.225362
0.226091
0.227064
0.228244
0.229563
0.230919
0.232179
0.233117
0.23331
0.232617
0.230453
0.224153
0.219997
0.239037
0.237932
0.23672
0.235375
0.233865
0.232164
0.230284
0.228411
0.226697
0.225162
0.223819
0.222679
0.22175
0.221036
0.220535
0.220243
0.220143
0.220213
0.220415
0.220696
0.220976
0.221146
0.221073
0.220568
0.219243
0.216757
0.212442
0.20471
0.19931
0.238393
0.237161
0.2358
0.234279
0.23256
0.230611
0.228439
0.226253
0.224226
0.222375
0.220708
0.219233
0.21795
0.216856
0.215941
0.215191
0.214581
0.214078
0.213637
0.213198
0.212678
0.211966
0.210921
0.209361
0.20693
0.203252
0.197885
0.190451
0.185327
0.237651
0.236269
0.234732
0.233004
0.23104
0.228802
0.226296
0.223758
0.221387
0.219196
0.217191
0.215375
0.213742
0.212283
0.210983
0.209819
0.208763
0.207776
0.206809
0.205798
0.204663
0.203298
0.201574
0.199334
0.196303
0.19218
0.186851
0.180827
0.176667
0.236802
0.235243
0.2335
0.231531
0.229283
0.226715
0.223831
0.220905
0.218163
0.215617
0.213268
0.211113
0.209144
0.207349
0.205701
0.204178
0.202746
0.201365
0.199985
0.198545
0.196975
0.195184
0.19307
0.19052
0.187329
0.183273
0.178459
0.173871
0.170644
0.235821
0.234055
0.232072
0.229823
0.227249
0.224305
0.221001
0.217652
0.214519
0.211608
0.208917
0.206439
0.204159
0.202058
0.200112
0.19829
0.196558
0.194875
0.193195
0.191464
0.18962
0.187595
0.185309
0.182678
0.179551
0.17576
0.171548
0.168066
0.165616
0.234659
0.232652
0.23039
0.227816
0.224868
0.221499
0.21773
0.213928
0.210388
0.207111
0.204091
0.201312
0.198755
0.196395
0.194203
0.192148
0.190192
0.188296
0.186417
0.184508
0.182516
0.180387
0.178057
0.175459
0.17248
0.169018
0.165397
0.162727
0.160898
0.233238
0.230946
0.228356
0.225404
0.222027
0.218181
0.213902
0.209622
0.20567
0.202039
0.198713
0.195669
0.19288
0.190314
0.187938
0.185716
0.183611
0.181583
0.179592
0.177594
0.175545
0.1734
0.171106
0.168606
0.165822
0.162712
0.159645
0.157564
0.156199
0.231424
0.228792
0.225814
0.222422
0.218554
0.214177
0.209353
0.204583
0.20023
0.196273
0.192683
0.189425
0.186461
0.183753
0.181261
0.178944
0.176765
0.174681
0.172653
0.170643
0.168611
0.166517
0.16432
0.161969
0.159409
0.156655
0.15408
0.152422
0.151381
0.228976
0.225935
0.222498
0.218596
0.214176
0.209226
0.203839
0.198597
0.193884
0.189657
0.18587
0.18247
0.179409
0.176637
0.174108
0.171776
0.169597
0.167533
0.165543
0.16359
0.161638
0.159655
0.157602
0.155436
0.153122
0.150711
0.148563
0.147217
0.1464
0.225507
0.221972
0.217999
0.213522
0.208508
0.202974
0.197056
0.191407
0.186419
0.182019
0.178134
0.174694
0.171634
0.168893
0.166418
0.164157
0.162063
0.160095
0.158214
0.156384
0.154572
0.152746
0.150876
0.148923
0.146872
0.1448
0.143032
0.141929
0.141262
0.22054
0.21647
0.211954
0.206936
0.201411
0.195425
0.189144
0.183269
0.17818
0.173769
0.169936
0.166592
0.163656
0.161058
0.158737
0.156636
0.154707
0.152906
0.151196
0.14954
0.147909
0.146273
0.144605
0.142877
0.141084
0.139312
0.137848
0.136938
0.136375
0.214068
0.209475
0.204536
0.199184
0.193404
0.187239
0.180865
0.175001
0.170008
0.165751
0.162108
0.158974
0.156259
0.153883
0.151781
0.149894
0.148175
0.146577
0.145063
0.143601
0.142158
0.14071
0.139235
0.137718
0.136165
0.13465
0.133418
0.132651
0.132161
0.205423
0.200595
0.195723
0.190509
0.184858
0.17882
0.172601
0.166944
0.162197
0.158212
0.154853
0.152003
0.149563
0.147453
0.145603
0.143956
0.142462
0.141078
0.139768
0.138499
0.13724
0.135965
0.134655
0.133312
0.131962
0.130672
0.129638
0.128997
0.128568
0.193302
0.189625
0.185884
0.181373
0.176195
0.170516
0.164627
0.159312
0.154911
0.151271
0.148249
0.145721
0.143583
0.141754
0.140164
0.138758
0.137487
0.136312
0.135196
0.134108
0.133015
0.131888
0.130715
0.129535
0.128426
0.127423
0.126591
0.125998
0.12555
0.224301
0.224628
0.225323
0.22668
0.228549
0.230642
0.232821
0.235028
0.237271
0.239592
0.242034
0.244636
0.247435
0.250472
0.253786
0.257418
0.261406
0.265781
0.270555
0.27572
0.281225
0.286932
0.292547
0.296917
0.298617
0.296398
0.288663
0.272997
0.24079
0.222514
0.222963
0.223774
0.225121
0.226906
0.228922
0.231061
0.233269
0.235551
0.23794
0.240473
0.243187
0.246121
0.249318
0.252823
0.256683
0.260943
0.265644
0.270813
0.276463
0.282589
0.289119
0.295849
0.301725
0.305401
0.306131
0.303283
0.298737
0.302942
0.220697
0.221228
0.222123
0.223466
0.225184
0.227122
0.229202
0.231388
0.233685
0.236119
0.238719
0.241521
0.244564
0.247895
0.251565
0.255631
0.260151
0.265183
0.270786
0.277023
0.283983
0.291776
0.300533
0.309709
0.318408
0.326859
0.335392
0.34258
0.359571
0.218826
0.219336
0.220204
0.221532
0.223254
0.225198
0.227271
0.229448
0.231751
0.234208
0.23685
0.239712
0.242836
0.246272
0.250079
0.254322
0.259076
0.264422
0.270458
0.277312
0.285192
0.294443
0.305625
0.318765
0.333108
0.348988
0.367408
0.384194
0.40635
0.216902
0.217377
0.218194
0.219491
0.221213
0.22317
0.225247
0.227423
0.229727
0.232195
0.234861
0.237762
0.240943
0.244457
0.248369
0.252754
0.2577
0.263313
0.269727
0.277135
0.285852
0.296428
0.309775
0.326307
0.345089
0.36629
0.39155
0.415648
0.442516
0.214928
0.215386
0.216169
0.217428
0.21912
0.221057
0.223118
0.225281
0.227575
0.23004
0.232711
0.235627
0.238836
0.242393
0.246369
0.250845
0.255921
0.261722
0.268411
0.276229
0.285561
0.297083
0.311906
0.330681
0.351667
0.375682
0.403789
0.434173
0.464762
0.212901
0.213347
0.214107
0.215325
0.216966
0.218859
0.220883
0.223013
0.22528
0.22772
0.230371
0.233274
0.236474
0.240032
0.244018
0.24852
0.253646
0.259528
0.266347
0.274375
0.284006
0.295946
0.311337
0.330417
0.353479
0.378778
0.405943
0.434425
0.463166
0.210814
0.211248
0.211982
0.213154
0.214736
0.21657
0.21854
0.220621
0.222839
0.22523
0.227833
0.230687
0.233838
0.237347
0.241283
0.245736
0.250815
0.256651
0.263425
0.271429
0.280998
0.292698
0.30806
0.327448
0.349665
0.373376
0.397612
0.422032
0.446442
0.208666
0.209087
0.209793
0.210913
0.212425
0.214188
0.216089
0.218101
0.220248
0.222566
0.22509
0.227858
0.230917
0.234322
0.238143
0.242464
0.24739
0.253042
0.259578
0.267313
0.27633
0.287807
0.302468
0.320481
0.34018
0.360756
0.381399
0.401834
0.421413
0.206457
0.206866
0.207541
0.208603
0.210035
0.211712
0.213528
0.215453
0.217507
0.219724
0.222138
0.224783
0.227703
0.230949
0.234585
0.238689
0.243356
0.248683
0.254781
0.26194
0.270538
0.281053
0.294143
0.309701
0.326242
0.343096
0.359675
0.375975
0.391041
0.204185
0.204579
0.205221
0.20622
0.207565
0.209145
0.21086
0.212679
0.214618
0.216709
0.218982
0.221467
0.224203
0.227236
0.230621
0.234424
0.238731
0.243589
0.249178
0.255644
0.26333
0.272434
0.283458
0.296136
0.309229
0.32211
0.33435
0.346248
0.356967
0.201852
0.202232
0.202839
0.203771
0.20502
0.206492
0.20809
0.209785
0.211588
0.213528
0.21563
0.21792
0.220431
0.223199
0.226271
0.229696
0.233542
0.237891
0.242808
0.248396
0.254854
0.26232
0.271061
0.280702
0.290244
0.299187
0.307262
0.314942
0.321652
0.199462
0.199832
0.200407
0.201268
0.202412
0.203759
0.205223
0.206774
0.208422
0.210186
0.21209
0.214152
0.216397
0.218854
0.221559
0.224548
0.227869
0.231583
0.2357
0.240268
0.245375
0.251088
0.257459
0.264061
0.270187
0.275518
0.279959
0.284027
0.287376
0.197015
0.197371
0.197907
0.198693
0.199729
0.200947
0.202268
0.203662
0.205135
0.206704
0.208384
0.21019
0.212136
0.214243
0.216536
0.219038
0.221771
0.224757
0.227988
0.231455
0.235162
0.239084
0.243112
0.246847
0.249902
0.252152
0.253645
0.254884
0.255709
0.194518
0.194861
0.195358
0.196068
0.19699
0.19807
0.199236
0.200461
0.201745
0.203101
0.204539
0.206064
0.207686
0.209414
0.211259
0.21323
0.215326
0.217538
0.219834
0.22216
0.224455
0.226617
0.228432
0.229594
0.230028
0.229777
0.228996
0.228166
0.227297
0.191977
0.192309
0.192768
0.1934
0.194204
0.195138
0.196141
0.197185
0.198268
0.199397
0.200577
0.201807
0.203084
0.204409
0.205778
0.207184
0.20861
0.210021
0.211358
0.212532
0.213433
0.213913
0.213698
0.212609
0.210864
0.208648
0.206181
0.203928
0.20206
0.189398
0.189716
0.190135
0.190686
0.191372
0.19216
0.192996
0.193853
0.194726
0.195622
0.196535
0.197457
0.198376
0.199281
0.200158
0.200984
0.201724
0.202322
0.202696
0.202732
0.202288
0.20119
0.199141
0.196107
0.192573
0.188841
0.18515
0.181953
0.179576
0.186789
0.187095
0.187473
0.187944
0.188513
0.189152
0.189818
0.190483
0.191145
0.191804
0.192446
0.193053
0.193608
0.194089
0.194469
0.194711
0.194763
0.194554
0.193981
0.192913
0.191191
0.188628
0.184926
0.180208
0.175196
0.170275
0.165665
0.161806
0.159179
0.18416
0.184457
0.184796
0.185191
0.185641
0.186129
0.186621
0.187093
0.187547
0.187968
0.188337
0.188631
0.188824
0.188883
0.18877
0.188435
0.187812
0.186813
0.185322
0.183194
0.180261
0.176332
0.171125
0.164916
0.158635
0.152727
0.14736
0.142963
0.140179
0.181518
0.181804
0.182101
0.182421
0.182758
0.183098
0.183418
0.183711
0.183958
0.184145
0.184247
0.184235
0.184074
0.183723
0.183132
0.182239
0.180966
0.179209
0.176841
0.173706
0.169627
0.164416
0.157808
0.150232
0.142807
0.136021
0.129966
0.125067
0.122126
0.178873
0.17915
0.179406
0.179657
0.179885
0.180066
0.180244
0.180355
0.180402
0.180365
0.180212
0.179908
0.17941
0.178669
0.177626
0.176207
0.174323
0.171856
0.168667
0.164588
0.159434
0.153014
0.14508
0.136202
0.127686
0.120056
0.113314
0.107897
0.104768
0.176234
0.176506
0.176718
0.176911
0.177002
0.177092
0.177105
0.177043
0.176902
0.176655
0.176263
0.175687
0.174875
0.173773
0.172312
0.17041
0.167964
0.164847
0.160905
0.155958
0.149805
0.142243
0.133029
0.122859
0.11323
0.104723
0.0972486
0.0912773
0.0879543
0.173613
0.173886
0.174052
0.174175
0.174201
0.174151
0.17401
0.17379
0.173477
0.173036
0.172427
0.171601
0.170506
0.169077
0.167241
0.164906
0.16196
0.158266
0.153653
0.147927
0.140866
0.132237
0.121776
0.110275
0.0994339
0.0899373
0.0816201
0.0750419
0.071579
0.171014
0.171273
0.171427
0.171486
0.171419
0.171243
0.170973
0.170615
0.170149
0.169536
0.168733
0.167688
0.166341
0.164627
0.162465
0.159757
0.156383
0.152195
0.147012
0.140618
0.132763
0.12317
0.111524
0.0986515
0.0864493
0.075759
0.0663891
0.0590847
0.0555666
0.16845
0.168702
0.168843
0.168846
0.168685
0.168397
0.168009
0.16753
0.166933
0.166175
0.165206
0.163973
0.162415
0.160462
0.15803
0.155017
0.151297
0.146715
0.141078
0.134154
0.125663
0.115268
0.102572
0.0883589
0.074651
0.0624775
0.0516796
0.0433675
0.0399347
0.165929
0.16617
0.166281
0.166226
0.165984
0.165604
0.165125
0.164552
0.163852
0.162978
0.161875
0.16049
0.158762
0.156621
0.15398
0.150737
0.146761
0.141895
0.135938
0.128646
0.119716
0.108756
0.0952751
0.0799405
0.0647629
0.0508728
0.0381035
0.0280801
0.0247331
0.163474
0.163759
0.163898
0.16381
0.163467
0.16295
0.162347
0.161679
0.160898
0.159937
0.158735
0.157239
0.155388
0.153114
0.150332
0.146938
0.142804
0.137772
0.131642
0.124168
0.115037
0.103816
0.0899124
0.0738404
0.0574832
0.0419326
0.0268439
0.0137159
0.00913839
0.162374
0.146271
0.123957
0.0956955
0.064649
0.0345796
0.00826992
-0.016186
-0.0383667
-0.0630481
-0.0883397
-0.118773
-0.150386
-0.180179
-0.20431
-0.220294
-0.228164
-0.230021
-0.229399
0.169637
0.157495
0.13598
0.106692
0.0720753
0.0354033
0.000304292
-0.0357003
-0.0690605
-0.106647
-0.145085
-0.184551
-0.222707
-0.256343
-0.282266
-0.299287
-0.30857
-0.312579
-0.313979
0.164903
0.153859
0.133588
0.104197
0.0672818
0.0256857
-0.0162492
-0.0625894
-0.108936
-0.156234
-0.203949
-0.250955
-0.294553
-0.331531
-0.359441
-0.377937
-0.388687
-0.394209
-0.39692
0.154775
0.144018
0.125425
0.0966569
0.0574609
0.0110488
-0.0393596
-0.0926566
-0.147736
-0.203929
-0.260225
-0.314699
-0.363839
-0.404177
-0.433792
-0.453169
-0.464693
-0.471148
-0.474782
0.142071
0.132038
0.114613
0.0859174
0.0449504
-0.00489463
-0.0608142
-0.120687
-0.183549
-0.248257
-0.312521
-0.373213
-0.426219
-0.468286
-0.498423
-0.518076
-0.530199
-0.537544
-0.541971
0.125075
0.115333
0.0989811
0.0709632
0.0294565
-0.0225001
-0.0821967
-0.147902
-0.217739
-0.289547
-0.359978
-0.424927
-0.480135
-0.52302
-0.553608
-0.574032
-0.587489
-0.596482
-0.602454
0.104066
0.0933593
0.0772349
0.0499014
0.00855356
-0.0445458
-0.106866
-0.176616
-0.251187
-0.327357
-0.400833
-0.466819
-0.521261
-0.562504
-0.591555
-0.611068
-0.624341
-0.633512
-0.639687
0.0801466
0.0674897
0.0503785
0.0228465
-0.0184688
-0.072033
-0.135586
-0.207119
-0.283587
-0.360997
-0.434323
-0.498511
-0.550148
-0.588644
-0.615781
-0.634399
-0.647583
-0.656967
-0.663433
0.0542341
0.0392372
0.0202384
-0.00851532
-0.0502851
-0.103902
-0.167388
-0.238674
-0.314431
-0.390092
-0.460205
-0.519952
-0.566871
-0.601365
-0.625714
-0.642717
-0.655155
-0.664229
-0.67053
0.0271695
0.00988768
-0.0113689
-0.0419537
-0.0845804
-0.13805
-0.200588
-0.270181
-0.343326
-0.415107
-0.480041
-0.533971
-0.57551
-0.605874
-0.627584
-0.643242
-0.655262
-0.664512
-0.671264
-9.53945e-05
-0.0193842
-0.0428805
-0.0754605
-0.119164
-0.172464
-0.233588
-0.300453
-0.369311
-0.435056
-0.492597
-0.538827
-0.573486
-0.598401
-0.61612
-0.628961
-0.638916
-0.646651
-0.652259
-0.0264321
-0.0473034
-0.0727226
-0.107033
-0.151671
-0.204629
-0.263925
-0.327254
-0.390657
-0.449183
-0.49861
-0.53709
-0.565305
-0.585367
-0.599612
-0.609963
-0.617956
-0.624158
-0.628575
-0.0507728
-0.0727361
-0.099588
-0.13507
-0.180163
-0.23237
-0.289432
-0.348796
-0.406432
-0.457856
-0.499906
-0.53185
-0.554979
-0.571422
-0.583212
-0.591915
-0.598731
-0.604216
-0.608225
-0.072326
-0.0949398
-0.122737
-0.1588
-0.203791
-0.254759
-0.309117
-0.36402
-0.415489
-0.459749
-0.49479
-0.520825
-0.539486
-0.552752
-0.562314
-0.569418
-0.574976
-0.579506
-0.582786
-0.0905586
-0.113465
-0.141776
-0.1779
-0.222258
-0.27149
-0.322694
-0.372817
-0.418163
-0.455869
-0.485011
-0.50646
-0.521928
-0.53312
-0.541374
-0.547636
-0.552593
-0.556696
-0.559683
-0.105281
-0.128232
-0.15673
-0.192543
-0.235904
-0.283091
-0.330971
-0.376432
-0.416254
-0.448498
-0.473091
-0.491271
-0.504664
-0.514685
-0.522372
-0.528446
-0.533442
-0.537723
-0.540945
-0.116631
-0.139508
-0.168015
-0.20336
-0.245581
-0.290565
-0.334965
-0.375743
-0.410335
-0.437744
-0.45856
-0.474175
-0.486013
-0.495187
-0.502467
-0.508385
-0.513356
-0.517634
-0.52086
-0.124858
-0.147632
-0.176081
-0.210975
-0.252118
-0.294977
-0.336037
-0.372484
-0.402524
-0.426
-0.443948
-0.457755
-0.468604
-0.477328
-0.484468
-0.490393
-0.495426
-0.499728
-0.502963
-0.130312
-0.153016
-0.18144
-0.216063
-0.256436
-0.297581
-0.335838
-0.368684
-0.395059
-0.415476
-0.431256
-0.443719
-0.453835
-0.462215
-0.469231
-0.47513
-0.480171
-0.484457
-0.48768
-0.133409
-0.15611
-0.184633
-0.21929
-0.259286
-0.299106
-0.334927
-0.36461
-0.38784
-0.405695
-0.419662
-0.430951
-0.44033
-0.44823
-0.454895
-0.460492
-0.465236
-0.469202
-0.472142
-0.134456
-0.157231
-0.186037
-0.221104
-0.261213
-0.300244
-0.334202
-0.361365
-0.382086
-0.397882
-0.410338
-0.420567
-0.429189
-0.43651
-0.442689
-0.447838
-0.452134
-0.455651
-0.45822
-0.133754
-0.156688
-0.186002
-0.221855