/*--------------------------------*- C++ -*----------------------------------*\
| =========                 |                                                 |
| \\      /  F ield         | OpenFOAM: The Open Source CFD Toolbox           |
|  \\    /   O peration     | Version:  2312                                  |
|   \\  /    A nd           | Website:  www.openfoam.com                      |
|    \\/     M anipulation  |                                                 |
\*---------------------------------------------------------------------------*/
FoamFile
{
    version     2.0;
    format      ascii;
    arch        "LSB;label=32;scalar=64";
    class       volScalarField;
    location    "400";
    object      magR;
}
// * * * * * * * * * * * * * * * * * * * * * * * * * * * * * * * * * * * * * //

dimensions      [0 2 -2 0 0 0 0];

internalField   nonuniform List<scalar> 
10720
(
0.0192466
0.0278567
0.0370794
0.0435265
0.047576
0.0530239
0.0614465
0.0732361
0.0898453
0.113384
0.148301
0.202407
0.291422
0.447537
0.737921
1.31057
2.48299
5.22937
10.3258
17.3679
27.7665
46.537
85.9991
169
316.349
457.437
956.008
1592.29
1104.71
456.767
139.746
17.7006
3.75542
0.483249
1.1733e-15
1.15565e-15
0.0128181
0.980166
10.802
0.0199198
0.0241987
0.0233905
0.0243467
0.0125653
0.0198363
0.022733
0.0243696
0.0270681
0.0313426
0.0381217
0.0492137
0.0666921
0.0977043
0.143414
0.244681
0.362433
0.907909
1.36802
1.79919
2.68936
3.83146
5.33715
7.59815
10.6016
13.9348
13.5469
8.74955
3.83625
1.12166
0.171228
0.0102055
0.00258799
0.00098919
0.000340077
8.11369e-06
1.27869e-07
2.11236
158.616
0.0158566
0.0168625
0.0194433
0.0145249
0.00950323
0.00694519
0.00576607
0.00509631
0.00578704
0.0041692
0.00170608
0.00365376
0.00395578
0.00505068
0.0124272
0.0296126
0.0780192
0.21833
0.606832
1.48155
3.1906
6.05508
11.222
18.4168
55.731
94.1414
297.874
626.624
525.053
316.414
149.448
54.4015
14.8174
2.13479
0.0421127
1.24095e-15
1.37456e-15
0.339358
8.35437
0.00472015
0.00374612
0.0034632
0.0094447
0.0123215
0.0120726
0.00955053
0.00978801
0.00984263
0.00985609
0.00977514
0.00957786
0.00920414
0.00880963
0.00479529
0.00173346
0.0637009
0.15376
0.250903
0.0451457
0.0455323
0.75754
1.07982
0.00615152
0.0275915
0.0829632
0.150659
0.159102
0.130396
0.0918417
0.0539355
0.0263903
0.0111679
0.00421386
0.00143124
0.000482564
8.08273e-06
0.499048
34.1424
0.00308509
0.00330358
0.00316014
0.00301341
0.00296089
0.0029567
0.00300102
0.00307772
0.00318009
0.00334157
0.00346849
0.00359104
0.00377775
0.00382913
0.00428077
0.007863
0.0158923
0.0412471
0.113512
0.283176
0.623005
1.20688
2.28096
4.14041
6.90509
11.6595
89.4633
229.143
216.343
162.225
97.1468
47.7482
17.2474
3.59356
0.284833
0.0362624
1.21632e-15
0.113497
7.84701
0.00399051
0.00943191
0.0141393
0.0134298
0.00870818
0.00482212
0.00397764
0.00409704
0.00439306
0.00477104
0.00524051
0.00579699
0.00627487
0.00670612
0.00719021
0.00727263
0.00739506
0.00550995
0.00223069
0.0101506
0.0101731
0.000561396
0.000627787
0.0019879
0.00688392
0.0197216
0.00245534
0.0374782
0.0310418
0.00133387
0.00153138
0.00720457
0.000218032
0.00104375
0.00173664
0.00256809
4.37423e-05
0.186588
12.6036
0.00953014
0.00954393
0.00974741
0.0100039
0.0102406
0.0104668
0.0106717
0.0108485
0.0110048
0.01115
0.0112782
0.0113933
0.0115095
0.0115778
0.0117485
0.0120899
0.0119323
0.010068
0.00542319
0.00235997
2.14486e-15
2.89541e-15
3.74291e-14
1.29756e-14
1.51909
0.000135684
0.000186028
0.000763536
0.00134516
0.00337213
0.0211163
0.436628
2.5515
2.30667
0.943019
0.158773
0.0358551
0.113585
7.77194
0.015186
0.0146847
0.0097417
0.00626921
0.00603693
0.00378914
0.00294196
0.00287324
0.00285401
0.00279664
0.00272504
0.00274479
0.00253645
0.00229233
0.0022307
0.00209283
0.00039695
0.0011447
0.00188681
0.00256144
0.00312534
0.00342173
0.0036537
0.00357097
0.00369213
0.00360472
0.00367942
0.00362643
0.00357364
0.00358498
0.00350514
0.00334391
0.00317485
0.00310272
0.00289396
0.00469781
8.84551e-05
0.127857
8.48642
0.0172569
0.016006
0.0157854
0.0157033
0.0156427
0.0156186
0.0156433
0.0157028
0.0157938
0.0159152
0.0160678
0.0162526
0.0164683
0.0167243
0.0170202
0.0173649
0.0177536
0.018305
0.0187973
0.0154302
0.00403675
0.00210792
2.13188e-15
2.51307e-15
1.41798e-14
2.85853e-05
3.98255e-05
0.000165913
0.00029636
0.000752484
0.00476803
0.0996688
1.40244e-06
1.09035e-05
0.312377
0.309749
0.142004
0.108226
6.91235
0.0142966
0.0108727
0.00691611
0.00348992
0.00528797
0.0069716
0.00712098
0.00633898
0.00552574
0.00471168
0.00395618
0.00373668
0.00261318
0.00149777
0.00128361
0.00120986
0.0012847
0.00135415
0.00135769
0.00132507
0.00126547
0.00119606
0.00113463
0.00108495
0.00104422
0.00101049
0.000987041
0.000970998
0.000962102
0.00094511
0.000935741
0.00100025
0.00107572
0.00118492
0.00096574
0.00262663
4.99961e-05
0.0959899
6.1764
0.0165753
0.0166802
0.0167705
0.0168954
0.0170528
0.0162655
0.0155736
0.0149985
0.0144627
0.0140172
0.0136754
0.0134214
0.0132274
0.0131263
0.0130242
0.0128176
0.0128814
0.0132881
0.0136575
0.01375
0.0131741
0.00857194
0.00164558
0.000865312
1.4238e-15
1.1547e-15
1.1547e-15
1.1547e-15
1.1547e-15
1.1547e-15
1.1547e-15
1.1547e-15
3.21623e-07
2.52846e-06
1.61648e-07
2.68747e-06
1.47395e-05
0.000496409
0.0302563
0.00773786
0.00255022
0.00542819
0.014614
0.0180328
0.0186985
0.018882
0.0190769
0.0193166
0.0195958
0.0199168
0.0196854
0.0178002
0.0159885
0.0143949
0.0130588
0.0119558
0.0110399
0.0102903
0.00969851
0.0092181
0.00880987
0.00844593
0.00810524
0.00778017
0.00748418
0.00722423
0.00699237
0.00677925
0.006575
0.00635229
0.00605
0.00569015
0.00531598
0.00477938
0.0047471
9.45556e-05
0.0614758
3.93769
0.00204352
0.00223125
0.00224019
0.00217113
0.00226606
0.00232166
0.00235691
0.00240474
0.00243626
0.00245198
0.00247456
0.00249709
0.00251928
0.00262746
0.00262566
0.00253952
0.00261547
0.00284567
0.000832859
0.00264031
0.00461085
0.0061594
0.0066772
0.00477851
0.00148604
1.2811e-06
1.1547e-15
1.1547e-15
1.1547e-15
1.1547e-15
1.1547e-15
1.1547e-15
1.1547e-15
1.1547e-15
3.75828e-08
6.30193e-07
3.48357e-06
1.1547e-15
0.0072502
0.00299311
0.00817863
0.023895
0.0256772
0.0257588
0.0257581
0.0256656
0.0246096
0.0234258
0.0221503
0.0208154
0.0194779
0.018193
0.0169625
0.0158563
0.0149225
0.014016
0.0131626
0.0124386
0.0118489
0.0113594
0.0109397
0.0105647
0.0102108
0.00986857
0.00955064
0.00926271
0.00899849
0.00875018
0.0085121
0.00829343
0.00799124
0.00768639
0.00750253
0.00689453
0.00647252
0.000631187
0.032636
1.93696
0.00430386
0.000488774
0.00126657
0.00196066
0.00315909
0.00382158
0.00434403
0.00473626
0.00499046
0.00512185
0.00515537
0.00510721
0.00499084
0.00528523
0.00485461
0.00397053
0.00373803
0.00347642
0.00301805
0.0028059
0.00315689
0.00388928
0.00479455
0.00508269
0.00613911
6.50293e-06
3.14959e-07
1.1547e-15
1.1547e-15
1.1547e-15
1.1547e-15
1.1547e-15
1.1547e-15
1.1547e-15
1.1547e-15
1.1547e-15
1.1547e-15
1.1547e-15
1.80039e-14
0.0140588
0.0248297
0.0227106
0.0144647
0.00673412
0.00550875
0.00551533
0.00560508
0.00572736
0.00587276
0.00601612
0.00615034
0.00628755
0.00641308
0.0065464
0.00662429
0.00653128
0.00631176
0.00608855
0.00588787
0.00569494
0.00550922
0.0053287
0.00515183
0.00498082
0.00482082
0.00467667
0.00454753
0.00442996
0.00431943
0.00423424
0.00422411
0.00429215
0.00434402
0.00428836
0.00482139
0.00220443
0.011486
0.641236
0.0167924
0.016515
0.0173791
0.0180561
0.018713
0.0192317
0.0195391
0.0196455
0.0195727
0.0193336
0.0189507
0.0184462
0.0178387
0.0171368
0.0163953
0.0155915
0.0147657
0.0139262
0.0133705
0.0117951
0.00975424
0.00857427
0.00784354
0.00682071
0.0085736
2.06372e-05
1.03852e-06
1.1547e-15
1.1547e-15
1.1547e-15
1.1547e-15
1.1547e-15
1.1547e-15
1.1547e-15
1.1547e-15
1.1547e-15
1.1547e-15
1.1547e-15
1.1547e-15
0.0220917
0.0151935
0.00518048
0.00225928
0.000794744
0.000675456
0.000691717
0.00070873
0.000732368
0.000763734
0.00079336
0.000825874
0.000866275
0.000909147
0.00095828
0.00100389
0.00102699
2.14651e-05
6.55175e-05
7.89236e-05
7.26396e-05
5.47548e-05
3.1191e-05
1.02157e-05
0.000984524
0.000972254
0.000961503
0.000951808
0.000942951
4.90176e-06
1.54146e-05
8.50379e-05
0.0002512
0.000506433
0.000832247
0.0012135
0.00194054
0.00163733
0.0838481
0.0169928
0.0156331
0.0154863
0.0155783
0.015584
0.0155476
0.0154976
0.0154136
0.0153077
0.0151816
0.0150262
0.01484
0.0146239
0.0143744
0.0140962
0.0137991
0.0134813
0.0131883
0.0129226
0.0126557
0.0121143
0.0110566
0.0100414
0.00863666
0.00953979
5.05696e-05
2.64223e-06
1.1547e-15
1.1547e-15
1.1547e-15
1.1547e-15
1.1547e-15
1.1547e-15
1.1547e-15
1.1547e-15
1.1547e-15
1.1547e-15
1.1547e-15
1.1547e-15
0.00897876
0.000928011
0.000778629
0.000637444
0.000845319
0.000887814
0.000888649
0.00085717
0.000817462
0.000776957
0.000729264
0.000683659
0.000643826
0.000606883
0.000575345
0.000549643
0.00052873
0.000516504
0.000512606
0.000507215
0.000500908
0.000494134
0.000487081
0.000480258
0.000474392
0.000470223
0.000466228
0.000462291
0.000458183
0.00045467
0.000451392
0.000455059
0.000464588
0.000484464
0.000516196
0.000561502
0.00037717
8.36658e-06
0.0197425
0.00411856
0.00455521
0.00399417
0.00376971
0.00356682
0.00340394
0.00331064
0.00327424
0.0032942
0.00336231
0.00346855
0.00360947
0.00378216
0.00398601
0.00423046
0.0045032
0.00478692
0.00507686
0.00558667
0.00643372
0.00718747
0.00762159
0.00789423
0.00748438
0.00877486
0.000105587
5.72519e-06
1.1547e-15
1.1547e-15
1.1547e-15
1.1547e-15
1.1547e-15
1.1547e-15
1.1547e-15
1.1547e-15
1.1547e-15
1.1547e-15
1.1547e-15
1.1547e-15
0.00148015
0.000510944
0.000391991
0.00423487
0.00548525
0.0056003
0.00555404
0.0054153
0.00522258
0.00500119
0.00476399
0.00451849
0.00427016
0.00402606
0.00379706
0.00358768
0.00340344
0.00324198
0.00310107
0.00297808
0.00287016
0.00277394
0.00268666
0.00260658
0.00253226
0.00246311
0.00239869
0.00233819
0.00228041
0.00222396
0.00216593
0.0020818
0.00192559
0.0017249
0.00150459
0.00124573
0.0011626
0.000439789
1.17033e-15
0.000456727
0.000516143
0.000485745
0.000454709
0.000460672
0.000474677
0.00048143
0.000497081
0.000517346
0.000538916
0.000567085
0.000599544
0.000636687
0.000709157
0.000741779
0.000754572
0.000817722
0.000891728
0.0010314
0.000324659
0.00125577
0.00233135
0.00336516
0.00385676
0.0059097
0.000173512
9.75666e-06
1.1547e-15
1.1547e-15
1.1547e-15
1.1547e-15
1.1547e-15
1.1547e-15
1.1547e-15
1.1547e-15
1.1547e-15
1.1547e-15
1.1547e-15
1.1547e-15
0.000881996
0.00270251
0.00679501
0.00802004
0.00794748
0.00788359
0.00778322
0.00762949
0.00744005
0.00722325
0.00699045
0.00674779
0.00649703
0.00624552
0.0060022
0.00577382
0.00556
0.00536102
0.00517689
0.00500716
0.00485046
0.00470486
0.00456857
0.00444013
0.00431876
0.00420441
0.00409679
0.00399519
0.00389815
0.00380386
0.00371362
0.00362709
0.00347357
0.00330079
0.00312237
0.00278294
0.0022917
0.00185949
0.000348433
0.00119405
0.000683526
0.000761947
5.06719e-05
0.000193098
0.000348975
0.000471382
0.000565215
0.0006372
0.000685684
0.000715119
0.000730722
0.000734147
0.000909527
0.000775826
0.00047527
0.000457548
0.000472593
0.000476501
0.000402849
0.000426904
0.000697813
0.00126937
0.00162524
0.00346402
0.000264109
1.53915e-05
1.1547e-15
1.1547e-15
1.1547e-15
1.1547e-15
1.1547e-15
1.1547e-15
1.1547e-15
1.1547e-15
1.1547e-15
1.1547e-15
1.1547e-15
1.1547e-15
0.00405025
0.00700984
0.00635714
0.00440733
0.00390889
0.00378204
0.0037158
0.0036594
0.00360176
0.00353285
0.00345948
0.00338642
0.00331295
0.00323985
0.00316632
0.00309161
0.00301575
0.00293944
0.00286328
0.00278769
0.00271322
0.00264053
0.00256989
0.00250224
0.00243843
0.00237823
0.00232185
0.0022692
0.00221988
0.00217301
0.00212817
0.00209734
0.0021066
0.00213477
0.00216517
0.00215864
0.00205214
0.00201343
0.00132685
0.00499709
0.00493803
0.00509402
0.00531449
0.00550705
0.00566871
0.00579071
0.00587431
0.00592412
0.00594091
0.00592849
0.00589115
0.00583087
0.00575094
0.00567805
0.00557386
0.00545441
0.00531662
0.00516182
0.0049054
0.0046607
0.00393436
0.00313959
0.00262129
0.00326147
0.000572215
1.74743e-10
9.8779e-12
1.1547e-15
1.1547e-15
1.1547e-15
1.1547e-15
1.1547e-15
1.1547e-15
1.1547e-15
1.1547e-15
1.1547e-15
1.1547e-15
1.1547e-15
0.00670613
0.00454462
0.00173257
3.12094e-05
0.000525541
0.000521708
0.000519759
0.000509043
0.000498378
0.000488519
0.000474572
0.000462405
0.000454756
0.000448474
0.000444808
0.000443841
0.000443973
0.000445936
5.99299e-06
1.30664e-05
1.75225e-05
1.99443e-05
2.10411e-05
2.24047e-05
2.49888e-05
2.82681e-05
3.22693e-05
3.69353e-05
4.24128e-05
4.88095e-05
5.33752e-05
5.68969e-05
0.000121625
0.000251805
0.000425188
0.000648569
0.000897053
0.00115888
0.00116172
0.00577623
0.00538516
0.00541345
0.00544041
0.00544706
0.00546095
0.00548644
0.00551059
0.00553287
0.00555284
0.00556927
0.00558274
0.00559255
0.0056017
0.00560077
0.00558579
0.00555913
0.00551503
0.00546358
0.00541627
0.00533246
0.00506688
0.00455052
0.0038453
0.00377975
0.00125385
5.80172e-09
3.39911e-10
1.1547e-15
1.1547e-15
1.1547e-15
1.1547e-15
1.1547e-15
1.1547e-15
1.1547e-15
1.1547e-15
1.1547e-15
1.1547e-15
1.1547e-15
0.00316179
0.000414872
0.000278211
9.70731e-05
0.000113083
0.000124149
0.000128779
0.000128106
0.000126061
0.000123871
0.000119923
0.000115847
0.000112829
0.000110083
0.000108106
0.000106999
0.000106428
0.000106382
0.000107717
0.000109614
0.000111358
0.000113004
0.000114561
0.000116007
0.000117149
0.000118138
0.000119176
0.000120268
0.000121444
0.000122705
0.000123405
0.000123143
0.000130668
0.000146905
0.000179243
0.000202292
0.00023252
0.00024537
0.000560109
0.00162441
0.00174758
0.00147198
0.00144428
0.00145551
0.00146945
0.00148675
0.00150868
0.00153746
0.00157435
0.00161968
0.00167357
0.00173492
0.001801
0.00186183
0.00192689
0.00200631
0.00208525
0.00215373
0.00230051
0.0026348
0.00296139
0.00315744
0.00312932
0.0032092
0.00180698
2.61518e-08
1.58722e-09
1.1547e-15
1.1547e-15
1.1547e-15
1.1547e-15
1.1547e-15
1.1547e-15
1.1547e-15
1.1547e-15
1.1547e-15
1.1547e-15
1.15518e-15
0.000577043
0.000140316
0.00039689
0.000616044
0.000734643
0.000785058
0.000809013
0.000818087
0.000819495
0.000816955
0.000810389
0.000800557
0.000789361
0.000777133
0.000764029
0.000750531
0.000736889
0.000723125
0.000709528
0.000696191
0.000683149
0.000670453
0.00065812
0.000646201
0.000634487
0.000622804
0.000611184
0.000599707
0.000588363
0.000577078
0.000565454
0.000550782
0.000510469
0.000442825
0.000404861
0.000267492
0.000103955
0.000144945
0.000346392
0.000201522
0.000220221
0.000198234
0.000187736
0.000191866
0.000196833
0.000196979
0.000200594
0.000205366
0.000210417
0.000218567
0.000228382
0.000239949
0.000253651
0.000267454
0.000282978
0.000301652
0.000321335
0.000340266
0.000372651
0.000464889
0.000330007
0.000797295
0.00124636
0.0016415
0.00155501
6.89281e-08
4.33077e-09
1.1547e-15
1.1547e-15
1.1547e-15
1.1547e-15
1.1547e-15
1.1547e-15
1.1547e-15
1.1547e-15
1.1547e-15
1.15491e-15
1.16552e-15
0.000223689
0.000657096
0.00220213
0.00258725
0.00264758
0.00266175
0.0026593
0.00264792
0.00263135
0.00261204
0.00259046
0.00256639
0.0025406
0.00251291
0.00248291
0.00245089
0.00241688
0.00238096
0.00234342
0.00230453
0.0022646
0.00222386
0.0021825
0.00214086
0.00209922
0.00205779
0.00201679
0.00197647
0.00193685
0.00189754
0.00185819
0.00181943
0.00176222
0.00166629
0.00153195
0.00133883
0.00113815
0.000840798
0.000651617
0.000344257
0.000225046
0.000261908
0.000258599
0.000268349
0.00027693
0.000275608
0.000276751
0.000277213
0.000275532
0.000275825
0.000276023
0.00027629
0.000280178
0.000282808
0.000284992
0.000286669
0.000287839
0.000288403
0.000288124
0.000276871
0.00030438
0.000365557
0.000106192
0.000400773
0.000885896
1.33577e-07
8.68242e-09
1.1547e-15
1.1547e-15
1.1547e-15
1.1547e-15
1.1547e-15
1.1547e-15
1.1547e-15
1.1547e-15
1.1547e-15
1.15476e-15
1.15495e-15
0.00107347
0.00259749
0.00235568
0.00212387
0.00208908
0.00205981
0.00203312
0.00201075
0.0019912
0.00197381
0.0019592
0.00194601
0.00193282
0.0019191
0.00190421
0.00188768
0.00186926
0.00184888
0.00182644
0.00180202
0.00177575
0.00174783
0.0017184
0.00168788
0.00165702
0.00162633
0.0015959
0.00156587
0.00153634
0.00150716
0.00147805
0.00145383
0.00144328
0.00143431
0.00141128
0.00136746
0.00128502
0.00109791
0.000882783
0.00157388
0.00161709
0.00175717
0.00180129
0.00184429
0.00187467
0.00189282
0.0019016
0.0019052
0.00190497
0.00190112
0.00189441
0.00188437
0.00189041
0.00188525
0.0018731
0.00185569
0.00183384
0.00180816
0.00177795
0.00168293
0.00149336
0.00130552
0.00106219
0.000785675
0.000929964
4.51406e-07
3.03338e-08
1.1547e-15
1.1547e-15
1.1547e-15
1.1547e-15
1.1547e-15
1.1547e-15
1.1547e-15
1.1547e-15
1.1547e-15
1.1547e-15
1.15739e-15
0.00258925
0.00183747
0.000786201
0.000460372
0.000418561
0.000398277
0.000381648
0.000367902
0.000357297
0.000349679
0.000344501
0.000341159
0.000339046
0.000337785
0.000336979
0.000336394
0.000335849
0.000335222
0.00033438
0.00033327
0.000331853
0.000330127
0.000328175
0.00032618
0.000324233
0.000322233
0.000320165
0.000318008
0.000315805
0.000313532
0.000310672
0.000308098
0.000325039
0.000381067
0.000462931
0.000581878
0.000710033
0.000772262
0.000732454
0.00243546
0.00227194
0.00230826
0.0023269
0.00232267
0.00231046
0.00229873
0.00228807
0.00228018
0.00227517
0.0022715
0.0022686
0.00226604
0.00226256
0.00225728
0.00225041
0.00224199
0.00223075
0.00221598
0.00220501
0.002183
0.0021188
0.00198318
0.00175484
0.00142687
0.00130192
1.81961e-06
1.26321e-07
1.1547e-15
1.1547e-15
1.1547e-15
1.1547e-15
1.1547e-15
1.1547e-15
1.1547e-15
1.1547e-15
1.1547e-15
1.17412e-15
1.15995e-15
0.00156591
0.000252708
0.000141323
6.63253e-05
6.15443e-05
6.01773e-05
5.80875e-05
5.51129e-05
5.25839e-05
5.07039e-05
4.86339e-05
4.69173e-05
4.58679e-05
4.50857e-05
4.47416e-05
4.49261e-05
4.54176e-05
4.62537e-05
4.73614e-05
4.86859e-05
5.01456e-05
5.17196e-05
5.33777e-05
5.49329e-05
5.61861e-05
5.7259e-05
5.8286e-05
5.92546e-05
6.01666e-05
6.10079e-05
6.16733e-05
6.2334e-05
6.69518e-05
7.98329e-05
9.85431e-05
0.000128731
7.98418e-05
0.000272462
0.000415113
0.00104468
0.001028
0.00091509
0.000849744
0.000798967
0.000761308
0.000737697
0.000724949
0.000720432
0.000722319
0.000728726
0.000738599
0.000751125
0.000765726
0.000782003
0.000799953
0.000819439
0.000839977
0.000861685
0.000887257
0.00094731
0.0010625
0.00117211
0.00124435
0.00120531
0.00130899
5.48663e-06
3.93198e-07
1.1547e-15
1.1547e-15
1.1547e-15
1.1547e-15
1.1547e-15
1.1547e-15
1.1547e-15
1.1547e-15
1.1547e-15
1.1547e-15
1.15522e-15
7.20027e-06
3.69812e-05
9.97636e-05
0.000113765
0.000118972
0.000124237
0.000126886
0.000125746
0.000123532
0.000121139
0.000116916
0.000112545
0.000109305
0.000106303
0.000104167
0.000103242
0.000102976
0.00010352
0.00010477
0.000106519
0.000108627
0.00011101
0.000113627
0.000115896
0.000117267
0.000118147
0.000118904
0.000119526
0.000120011
0.000120334
0.00012049
0.00012048
0.000120412
0.000115128
0.000103086
8.53981e-05
8.4975e-05
0.00010998
0.00013455
0.000138677
0.000138385
0.000131576
0.000117346
0.000111539
0.000107675
0.000102564
0.000100528
9.96275e-05
9.90153e-05
9.9952e-05
0.000101529
0.000103701
0.000106766
0.000110369
0.000114597
0.000119389
0.000124654
0.000130368
0.000136902
0.000149027
0.00018285
0.000142553
0.00034307
0.000498209
0.000852812
1.21458e-05
8.98043e-07
1.1547e-15
1.1547e-15
1.1547e-15
1.1547e-15
1.1547e-15
1.1547e-15
1.1547e-15
1.1547e-15
1.1547e-15
1.1547e-15
1.15661e-15
4.80746e-05
2.11039e-05
0.000657584
0.000748576
0.000768957
0.00078327
0.000796639
0.000805594
0.000809494
0.000809949
0.000808317
0.000805207
0.000801214
0.000796732
0.000791748
0.000786287
0.000780369
0.000773918
0.000766897
0.000759264
0.000751
0.000742076
0.000732497
0.000722381
0.00071192
0.000701167
0.000690126
0.000678867
0.000667435
0.000655814
0.000644026
0.000632096
0.000620616
0.000583403
0.000513996
0.000419262
0.000327089
0.000216452
0.000189872
0.000113004
7.06906e-05
7.96079e-05
7.87713e-05
8.09807e-05
8.26528e-05
8.11049e-05
8.03238e-05
7.93212e-05
7.77066e-05
7.67809e-05
7.59382e-05
7.52247e-05
7.4934e-05
7.47467e-05
7.47578e-05
7.49022e-05
7.51373e-05
7.5417e-05
7.57449e-05
7.56871e-05
6.94242e-05
8.05637e-05
0.00010248
0.000129986
0.000234561
1.49935e-05
1.14291e-06
1.1547e-15
1.1547e-15
1.1547e-15
1.1547e-15
1.1547e-15
1.1547e-15
1.1547e-15
1.1547e-15
1.1547e-15
1.1547e-15
1.15475e-15
0.000328108
0.00102386
0.00119475
0.00119081
0.00119408
0.00118889
0.0011862
0.0011848
0.00118138
0.00117594
0.00116975
0.00116331
0.00115681
0.00115044
0.00114405
0.00113744
0.00113053
0.00112316
0.00111518
0.00110645
0.00109689
0.00108637
0.00107477
0.00106209
0.00104858
0.00103438
0.00101952
0.00100408
0.00098815
0.000971755
0.000954977
0.000938074
0.000924871
0.000902136
0.000858711
0.00079513
0.000695397
0.00053056
0.000402293
0.000546438
0.000505436
0.000532065
0.000548683
0.000557935
0.000561946
0.000561527
0.000558052
0.000553247
0.000547877
0.000542178
0.000536508
0.000530889
0.000525272
0.00051964
0.000513986
0.000508403
0.000502853
0.000497461
0.000492288
0.000485167
0.000439662
0.00036084
0.000288095
0.000168294
0.000239656
5.24464e-05
4.65382e-06
1.1547e-15
1.1547e-15
1.1547e-15
1.1547e-15
1.1547e-15
1.1547e-15
1.1547e-15
1.1547e-15
1.1547e-15
1.1547e-15
1.1547e-15
0.00122495
0.00109699
0.000628637
0.00056101
0.000550425
0.000535959
0.000523189
0.000515488
0.000509621
0.000503972
0.000498903
0.000494644
0.000491056
0.000488046
0.000485418
0.000482955
0.000480544
0.000478052
0.000475365
0.000472386
0.000469086
0.000465407
0.000461267
0.000456688
0.000451846
0.000446708
0.000441296
0.000435709
0.000429909
0.000423864
0.00041769
0.000411121
0.000407935
0.000422823
0.000450276
0.000483132
0.0005027
0.000482537
0.000421336
0.00121806
0.00113021
0.00113732
0.00112915
0.00111387
0.00109757
0.00108661
0.00107886
0.00107303
0.00106843
0.00106427
0.00106043
0.00105676
0.00105296
0.00104886
0.00104436
0.00103939
0.00103366
0.0010269
0.00101944
0.00100917
0.000960331
0.000901355
0.000824603
0.000708782
0.000614848
0.000245372
3.14746e-06
2.41908e-07
1.1547e-15
1.1547e-15
1.1547e-15
1.1547e-15
1.1547e-15
1.1547e-15
1.1547e-15
1.1547e-15
1.1547e-15
1.1547e-15
0.000921986
0.000349557
0.000132889
8.47354e-05
8.46305e-05
8.44701e-05
8.28058e-05
7.99515e-05
7.72309e-05
7.47702e-05
7.13891e-05
6.81356e-05
6.57279e-05
6.35288e-05
6.19566e-05
6.12207e-05
6.09857e-05
6.13751e-05
6.23045e-05
6.36726e-05
6.53792e-05
6.73914e-05
6.96478e-05
7.16967e-05
7.31013e-05
7.41459e-05
7.51264e-05
7.60377e-05
7.68647e-05
7.75718e-05
7.81749e-05
7.86308e-05
7.96582e-05
8.42149e-05
9.38345e-05
4.89999e-05
0.000139652
0.000233588
0.000276176
0.000693005
0.000671848
0.000618696
0.000595703
0.000585107
0.000577927
0.000570366
0.000562453
0.000555064
0.000549476
0.000545679
0.000543442
0.000542528
0.000542563
0.000543287
0.000544538
0.000546227
0.000548087
0.000550083
0.000551852
0.000558772
0.000584542
0.00061595
0.000630055
0.000628817
0.000609087
0.000429831
1.83005e-05
1.44933e-06
1.1547e-15
1.1547e-15
1.1547e-15
1.1547e-15
1.1547e-15
1.1547e-15
1.1547e-15
1.1547e-15
1.1547e-15
1.15476e-15
0.000134968
6.32891e-05
9.1357e-06
1.67853e-05
1.94959e-05
2.25292e-05
2.47073e-05
2.55202e-05
2.57439e-05
2.57368e-05
2.50936e-05
2.42346e-05
2.35395e-05
2.28089e-05
2.22343e-05
2.19499e-05
2.18306e-05
2.19518e-05
2.22861e-05
2.28192e-05
2.35008e-05
2.43333e-05
2.52958e-05
2.62045e-05
2.68306e-05
2.72881e-05
2.77021e-05
2.8074e-05
2.84046e-05
2.86854e-05
2.89162e-05
2.90763e-05
2.9021e-05
2.73092e-05
2.32395e-05
2.97082e-05
3.96406e-05
5.67031e-05
9.19369e-05
9.70886e-05
1.03424e-05
9.37335e-05
8.54098e-05
8.46426e-05
8.45423e-05
8.17241e-05
8.01152e-05
7.85535e-05
7.66876e-05
7.58308e-05
7.52585e-05
7.50085e-05
7.53425e-05
7.58976e-05
7.67962e-05
7.79227e-05
7.92287e-05
8.06472e-05
8.21004e-05
8.53164e-05
1.02413e-05
7.22193e-05
0.000150005
0.000236369
0.000307063
0.00035275
5.18286e-05
4.27455e-06
1.1547e-15
1.1547e-15
1.1547e-15
1.1547e-15
1.1547e-15
1.1547e-15
1.1547e-15
1.1547e-15
1.1547e-15
1.1547e-15
2.00064e-05
5.52653e-05
5.96157e-05
0.00010949
0.000125076
0.000141154
0.000154377
0.000163096
0.00016883
0.000172912
0.000175508
0.000176949
0.000177824
0.000178273
0.000178393
0.000178366
0.000178235
0.000178032
0.000177775
0.000177487
0.000177127
0.00017668
0.000176157
0.000175519
0.000174653
0.000173465
0.000171996
0.000170292
0.000168382
0.000166277
0.000164013
0.000161484
0.000157915
0.000145698
0.000121639
0.000101104
5.31826e-05
1.65724e-05
5.9747e-05
2.18542e-05
1.68603e-05
1.48661e-05
1.2081e-05
1.05536e-05
9.73633e-06
9.66634e-06
1.00106e-05
1.03023e-05
1.03398e-05
1.03412e-05
1.02632e-05
1.01393e-05
1.00441e-05
9.95172e-06
9.88602e-06
9.8436e-06
9.8231e-06
9.82457e-06
9.84093e-06
9.79664e-06
1.05181e-05
1.73077e-05
2.74067e-05
3.7542e-05
6.24865e-06
0.000122763
6.89757e-05
2.88231e-07
2.30369e-08
1.1547e-15
1.1547e-15
1.1547e-15
1.1547e-15
1.1547e-15
1.1547e-15
1.1547e-15
1.1547e-15
1.1547e-15
1.0736e-05
0.000355064
0.000523418
0.000536346
0.000544176
0.000552358
0.000559008
0.00056264
0.000563907
0.000563973
0.000563378
0.000562229
0.000560872
0.000559368
0.000557665
0.000555867
0.000553959
0.000551872
0.000549596
0.000547078
0.000544248
0.000540996
0.000537286
0.000533088
0.000528323
0.000522938
0.000517025
0.000510677
0.000503937
0.000496802
0.000489288
0.000481368
0.000473266
0.000460108
0.000433951
0.00039304
0.000329766
0.000257564
0.000198765
0.000147942
0.000108928
9.8414e-05
8.35695e-05
7.23585e-05
6.60201e-05
6.69843e-05
6.98446e-05
7.24183e-05
7.3821e-05
7.42639e-05
7.4079e-05
7.34501e-05
7.25804e-05
7.1626e-05
7.06357e-05
6.96837e-05
6.8799e-05
6.80213e-05
6.73371e-05
6.63116e-05
6.01822e-05
4.17857e-05
2.86494e-05
5.48339e-07
4.32539e-05
1.55e-05
6.0562e-05
4.65341e-06
4.6755e-07
1.1547e-15
1.1547e-15
1.1547e-15
1.1547e-15
1.1547e-15
1.1547e-15
1.1547e-15
1.1547e-15
1.1547e-15
0.000558175
0.000630627
0.000490339
0.00047114
0.000463653
0.000454166
0.000444955
0.000436896
0.00042981
0.000423725
0.000419021
0.000415313
0.000412218
0.000409597
0.000407314
0.000405154
0.000403053
0.000400899
0.00039864
0.000396177
0.000393462
0.000390408
0.00038694
0.00038303
0.000378817
0.000374373
0.000369741
0.000364904
0.00035988
0.000354665
0.000349243
0.000343615
0.000339037
0.00033948
0.000342877
0.000340474
0.000332424
0.000301742
0.000245243
0.000608405
0.000533808
0.000510823
0.00049695
0.000487073
0.000480457
0.000479322
0.000479745
0.000479227
0.000477591
0.000475193
0.000472466
0.000469594
0.000466701
0.000463837
0.000460986
0.000458135
0.000455229
0.000452208
0.000449055
0.000445872
0.000440012
0.000415419
0.000375363
0.000323305
0.000266714
0.000217426
0.000179993
4.08586e-05
5.07835e-07
4.10057e-08
1.1547e-15
1.1547e-15
1.1547e-15
1.1547e-15
1.1547e-15
1.1547e-15
1.1547e-15
1.1547e-15
0.000611419
0.00030245
0.000137516
0.000107801
0.000100447
9.19823e-05
8.31007e-05
7.54375e-05
6.92901e-05
6.44006e-05
6.05264e-05
5.74937e-05
5.5048e-05
5.30468e-05
5.14019e-05
4.99991e-05
4.87541e-05
4.76701e-05
4.66849e-05
4.57954e-05
4.50085e-05
4.43416e-05
4.37955e-05
4.33658e-05
4.30291e-05
4.27825e-05
4.26039e-05
4.24383e-05
4.22777e-05
4.21158e-05
4.19174e-05
4.14385e-05
4.09339e-05
4.6388e-05
6.52758e-05
9.66608e-05
0.000136218
0.00016693
0.000172848
0.000501722
0.000486034
0.00047295
0.00046411
0.000458479
0.000453462
0.000451575
0.000451618
0.00045034
0.000448316
0.00044594
0.000443579
0.000441437
0.000439479
0.000437632
0.000435843
0.000434047
0.000432177
0.000430167
0.000428017
0.000426133
0.000428763
0.000429787
0.000419515
0.000403217
0.000378097
0.000327048
0.00027014
0.000139049
7.18213e-06
5.98136e-07
1.1547e-15
1.1547e-15
1.1547e-15
1.1547e-15
1.1547e-15
1.1547e-15
1.1547e-15
1.1547e-15
0.000133109
5.73646e-05
2.14304e-05
1.68002e-05
1.59089e-05
1.49105e-05
1.3501e-05
1.19741e-05
1.07041e-05
9.69244e-06
8.7203e-06
7.89186e-06
7.2579e-06
6.70493e-06
6.27145e-06
5.97148e-06
5.74757e-06
5.6199e-06
5.57255e-06
5.59681e-06
5.67976e-06
5.82626e-06
6.03194e-06
6.24137e-06
6.38778e-06
6.51109e-06
6.6502e-06
6.79461e-06
6.94239e-06
7.09062e-06
7.23302e-06
7.32534e-06
7.40945e-06
8.59327e-06
1.23692e-05
1.8729e-05
2.81368e-05
2.16129e-05
6.74906e-05
8.07381e-05
0.000128428
0.000120521
0.000118279
0.000117937
0.000117151
0.000114938
0.000114178
0.000113821
0.000113101
0.000112353
0.000111875
0.000111696
0.000111755
0.000111957
0.000112278
0.000112718
0.000113263
0.000113926
0.000114686
0.000115154
0.000121266
0.000142766
0.000166021
0.000195545
0.000222708
0.000235923
0.000235222
0.000193233
3.09408e-05
5.18525e-09
4.23302e-10
1.1547e-15
1.1547e-15
1.1547e-15
1.1547e-15
1.1547e-15
1.1547e-15
1.1547e-15
2.74935e-05
1.38814e-05
2.31701e-05
2.77768e-05
2.93848e-05
3.07497e-05
3.14336e-05
3.11036e-05
3.04586e-05
2.97385e-05
2.84399e-05
2.70033e-05
2.58085e-05
2.45839e-05
2.35564e-05
2.28795e-05
2.24109e-05
2.22366e-05
2.23559e-05
2.27403e-05
2.33421e-05
2.41711e-05
2.52063e-05
2.61784e-05
2.67714e-05
2.71611e-05
2.75475e-05
2.79196e-05
2.82733e-05
2.85978e-05
2.88902e-05
2.9147e-05
2.93704e-05
2.95234e-05
2.84132e-05
2.56553e-05
2.11666e-05
2.12476e-05
7.27273e-06
1.15128e-05
1.85227e-05
1.85447e-05
1.73966e-05
1.74776e-05
1.75306e-05
1.67984e-05
1.65423e-05
1.63309e-05
1.59307e-05
1.56896e-05
1.54943e-05
1.53617e-05
1.53593e-05
1.54006e-05
1.55089e-05
1.56684e-05
1.58719e-05
1.61082e-05
1.63662e-05
1.65688e-05
1.75415e-05
2.07147e-05
2.40632e-05
3.18426e-05
3.19178e-05
7.57349e-05
0.00011352
0.00014397
6.60055e-05
1.97717e-06
1.66267e-07
1.1547e-15
1.1547e-15
1.1547e-15
1.1547e-15
1.1547e-15
1.1547e-15
1.1547e-15
3.5243e-05
9.85515e-05
0.000149184
0.000178971
0.000186402
0.000190673
0.000194611
0.000197336
0.000198835
0.000199601
0.000199933
0.000199914
0.0001997
0.000199379
0.000198953
0.000198462
0.000197922
0.000197313
0.000196638
0.000195879
0.000195018
0.000194019
0.000192862
0.000191558
0.000190106
0.000188475
0.00018667
0.000184711
0.000182599
0.000180331
0.000177908
0.000175332
0.000172633
0.000169606
0.000159571
0.000140875
0.000113688
8.68143e-05
6.6604e-05
4.75654e-05
2.40436e-05
2.38695e-05
2.24374e-05
2.25418e-05
2.28693e-05
2.24684e-05
2.23571e-05
2.21949e-05
2.18093e-05
2.16073e-05
2.13857e-05
2.11701e-05
2.10692e-05
2.09812e-05
2.09449e-05
2.09403e-05
2.09536e-05
2.09688e-05
2.09734e-05
2.09382e-05