/*--------------------------------*- C++ -*----------------------------------*\
| =========                 |                                                 |
| \\      /  F ield         | OpenFOAM: The Open Source CFD Toolbox           |
|  \\    /   O peration     | Version:  2312                                  |
|   \\  /    A nd           | Website:  www.openfoam.com                      |
|    \\/     M anipulation  |                                                 |
\*---------------------------------------------------------------------------*/
FoamFile
{
    version     2.0;
    format      ascii;
    arch        "LSB;label=32;scalar=64";
    class       volVectorField;
    location    "400";
    object      momentError;
}
// * * * * * * * * * * * * * * * * * * * * * * * * * * * * * * * * * * * * * //

dimensions      [0 1 -2 0 0 0 0];

internalField   nonuniform List<vector> 
10720
(
(2.10798 -9.16458 1.61186e-15)
(1.61639 -9.34619 -8.67183e-16)
(0.69763 -8.27028 -1.7113e-14)
(0.152922 -7.89303 6.34051e-14)
(-0.400882 -7.1696 4.83409e-14)
(-0.875146 -6.37774 -1.17314e-13)
(-1.27761 -5.60108 -1.03786e-13)
(-1.51374 -4.7737 -8.30451e-14)
(-1.59989 -3.97755 1.5715e-14)
(-1.57064 -3.24104 4.57794e-15)
(-1.41561 -2.56101 -1.57647e-14)
(-1.21971 -2.05366 5.83929e-14)
(-0.711386 -1.1569 -1.91939e-13)
(-0.337841 -0.621717 -3.53728e-13)
(-0.0399844 -0.197978 6.5626e-14)
(0.252072 0.172539 -9.50301e-14)
(0.584825 0.463159 1.03711e-13)
(0.969983 0.632312 8.21533e-13)
(1.35727 0.782404 2.226e-13)
(1.83158 0.890507 -4.61752e-13)
(2.38027 0.815184 -2.03768e-13)
(2.55551 0.5975 5.84733e-14)
(2.26345 0.452598 4.11079e-13)
(2.43713 0.413437 -3.06232e-13)
(1.97589 0.240753 5.54935e-14)
(1.23888 0.0638461 -3.31119e-14)
(0.860041 0.112767 -4.72556e-14)
(0.502438 0.132422 1.90066e-14)
(0.400722 -0.0186917 -2.53981e-15)
(0.249219 -0.115229 1.26249e-13)
(0.231859 -0.0954065 5.87333e-14)
(0.321295 -0.0273806 -1.05433e-13)
(-0.233251 0.110464 -8.35731e-14)
(0.806392 -0.0695733 -2.06758e-13)
(7.14971 -0.853725 -1.02828e-13)
(23.6611 -3.31424 4.57609e-15)
(-75.8465 15.7149 1.30802e-13)
(5.75684 -5.43028 -6.60995e-14)
(-41.7351 15.44 1.52682e-13)
(2.52088 -8.2444 1.42956e-14)
(2.78116 -6.353 -2.75187e-14)
(2.77022 -4.66213 3.10891e-14)
(2.41226 -3.19752 1.25624e-13)
(1.90397 -1.64574 4.81678e-14)
(1.00123 -0.35204 -2.73764e-13)
(0.0638273 0.40085 -8.83788e-14)
(0.109943 0.003725 3.20566e-14)
(0.747288 -0.830359 -5.65966e-14)
(1.03694 -0.917784 5.88538e-14)
(1.07917 -0.778703 -6.90148e-14)
(0.998009 -0.612519 -1.26378e-13)
(0.888734 -0.481855 3.14849e-14)
(0.762957 -0.36912 6.2843e-14)
(0.611575 -0.257136 -1.02663e-13)
(0.453975 -0.148522 -8.89047e-14)
(0.28787 -0.148478 -6.21951e-14)
(0.14912 -0.11195 -7.43943e-14)
(0.0191027 -0.112765 -2.69343e-14)
(-0.0545608 0.00910918 -1.68286e-15)
(-0.195276 -0.0483717 2.38102e-14)
(-0.745246 -0.985763 4.72942e-14)
(-1.04631 -1.32784 -1.9846e-14)
(-0.277476 0.38275 -1.51017e-14)
(-0.369864 0.243059 1.45499e-14)
(-0.400157 0.1441 -3.27145e-15)
(-0.386554 0.0822777 7.3217e-16)
(-0.395376 0.0689264 9.96891e-16)
(-0.379591 0.0441415 -7.29286e-16)
(-0.407862 0.0182745 1.34484e-15)
(-0.345177 -1.60467e-06 4.55172e-15)
(-0.293525 -0.00631842 -2.16107e-15)
(-0.332577 -0.0157923 -3.04556e-15)
(-0.314154 -0.0206544 -5.47102e-14)
(-0.359304 -0.0300751 -4.87592e-14)
(-0.339092 -0.0313626 2.9074e-14)
(-0.51523 -0.0591818 -2.78916e-15)
(-0.731729 -0.0280873 -3.84106e-16)
(-1.1203 -0.0956643 -3.99731e-15)
(0.6149 -7.06051 -5.69233e-15)
(-0.0312928 -7.23026 5.13582e-15)
(-0.554157 -6.53642 -3.99838e-15)
(-1.14927 -6.50292 -4.73088e-15)
(-1.68884 -6.11306 5.70522e-15)
(-2.12135 -5.65915 4.42543e-14)
(-2.51653 -5.13261 5.70064e-14)
(-2.75267 -4.49363 2.30208e-14)
(-2.8404 -3.8322 -6.82991e-14)
(-2.82646 -3.18053 -2.76938e-14)
(-2.74268 -2.55977 -2.17367e-13)
(-2.51889 -1.93646 -3.90977e-13)
(-2.45335 -1.86028 -1.94724e-14)
(-2.25002 -1.56617 -1.65776e-14)
(-1.97845 -1.19399 -7.69906e-14)
(-1.5682 -0.89401 8.04153e-14)
(-1.21597 -0.60098 3.45618e-13)
(-0.881329 -0.372713 -6.44066e-13)
(-0.527636 -0.240559 -5.08056e-13)
(-0.250001 -0.151801 -3.39845e-13)
(-0.136401 0.00747875 2.3901e-13)
(-0.0557542 0.241011 1.90901e-13)
(0.00207919 0.445181 -3.05376e-13)
(-0.572068 0.550474 5.15202e-14)
(-0.170571 0.554194 -2.06029e-15)
(0.697898 0.59104 -2.76381e-14)
(0.993719 0.463575 -1.10167e-15)
(0.877145 0.247474 1.03506e-14)
(0.610314 0.0922873 -1.51977e-14)
(0.539701 -0.0656338 5.29469e-14)
(0.632163 -0.137475 2.69604e-14)
(0.58418 -0.0906831 5.54988e-15)
(-0.225257 0.112949 -9.62943e-14)
(3.67952 -0.287321 -1.26266e-13)
(-0.276652 0.493532 1.51135e-13)
(18.0809 -2.32016 5.88543e-14)
(73.9777 -11.0057 4.80465e-14)
(-10.8881 2.44229 -1.17024e-13)
(-35.5761 13.1225 1.82472e-14)
(1.10278 -6.48185 -1.97683e-14)
(1.51343 -5.28012 1.82023e-13)
(1.73738 -3.95771 -5.55468e-14)
(1.818 -2.8494 -1.34199e-13)
(1.73153 -1.75223 7.15657e-14)
(1.2494 -0.80687 9.63162e-14)
(0.71842 -0.313369 -1.00017e-13)
(0.646505 -0.460699 1.86637e-13)
(0.895471 -0.811434 1.17688e-13)
(1.09529 -0.793917 -7.38454e-14)
(1.17199 -0.633024 6.45223e-14)
(1.12526 -0.46641 -9.67256e-14)
(1.02307 -0.328842 2.60839e-14)
(0.896489 -0.206273 8.83306e-15)
(0.747232 -0.108457 1.98559e-14)
(0.553736 -0.0534953 2.19274e-14)
(0.407734 0.0394226 4.18933e-14)
(0.274895 0.0786558 -1.18591e-14)
(0.170846 0.125501 2.55375e-15)
(0.00437088 0.0626186 -5.607e-15)
(-0.149487 0.222041 1.45627e-14)
(0.384858 1.35236 4.17349e-14)
(0.806554 1.79602 -2.10027e-15)
(-0.448976 -0.115314 -1.05018e-14)
(-0.51753 0.0604439 -9.81153e-15)
(-0.450871 0.110776 8.99514e-15)
(-0.398344 0.106934 1.2806e-15)
(-0.331736 0.117797 -4.34428e-16)
(-0.319722 0.0819402 4.76057e-17)
(-0.287612 0.0284648 -7.2689e-17)
(-0.289063 0.0314254 -2.21935e-16)
(-0.249685 0.0206651 -6.80893e-15)
(-0.1967 -0.0150503 1.02717e-14)
(-0.196457 -0.0265364 4.26068e-14)
(-0.201632 -0.0412195 7.48074e-15)
(-0.292567 -0.0535264 -1.33708e-14)
(-0.393359 -0.0919401 6.75541e-15)
(-0.589521 -0.106274 -1.50807e-14)
(-2.40761 -0.206822 -4.66914e-15)
(1.18168 -6.05669 1.7811e-15)
(0.850667 -6.13504 7.10089e-15)
(0.381944 -5.60252 2.71924e-15)
(-0.0551617 -5.73793 -1.15689e-14)
(-0.473276 -5.49546 3.34497e-14)
(-0.891976 -5.16859 -4.44022e-14)
(-1.2908 -4.78707 -5.41304e-14)
(-1.57333 -4.26738 1.09439e-13)
(-1.7518 -3.6878 4.90304e-14)
(-1.84056 -3.10801 7.41983e-14)
(-1.81374 -2.53276 1.51914e-14)
(-1.72133 -1.99985 5.08959e-15)
(-1.56467 -1.50443 2.99396e-13)
(-1.36791 -1.04974 8.55906e-15)
(-1.12151 -0.661883 1.95802e-13)
(-0.934652 -0.27931 -8.77132e-15)
(-0.747233 0.0157203 -6.16148e-13)
(-0.535917 0.193082 3.809e-13)
(-0.329226 0.29594 8.57681e-13)
(-0.0963655 0.347408 1.59035e-13)
(0.226215 0.334417 -5.27917e-14)
(0.612837 0.309803 -1.74193e-14)
(0.927815 0.297161 1.22934e-13)
(0.941824 0.196126 1.11618e-13)
(0.440206 0.146229 -8.85534e-14)
(-0.0150304 -0.0563521 -1.27367e-14)
(0.4136 0.175286 -3.55886e-14)
(0.633278 0.220546 1.3282e-14)
(0.600108 0.078426 -3.03591e-14)
(0.466373 -0.0700973 -8.4524e-14)
(0.479572 -0.142803 1.76078e-14)
(0.488197 -0.130722 1.4656e-13)
(-0.574535 0.0106775 2.17823e-14)
(4.48141 -0.135237 1.0533e-13)
(-3.05631 0.852858 1.27167e-13)
(4.18955 -1.68167 6.36167e-14)
(40.1494 -9.3059 -5.32431e-14)
(-23.4621 5.41727 2.55697e-14)
(-49.5014 15.4549 -7.1931e-14)
(1.45909 -5.62526 2.99986e-14)
(1.62512 -4.67522 -4.71577e-14)
(1.6966 -3.54563 -6.2857e-14)
(1.70347 -2.65596 -5.62883e-15)
(1.59707 -1.80205 1.23341e-15)
(1.27635 -1.02346 -8.34633e-14)
(0.978015 -0.673294 3.7666e-14)
(0.958099 -0.742145 -1.80917e-13)
(1.07599 -0.874971 -1.25634e-13)
(1.15791 -0.849679 -1.11283e-13)
(1.17507 -0.738266 1.09673e-13)
(1.11373 -0.603576 1.13215e-13)
(1.00389 -0.469065 -6.21896e-14)
(0.866613 -0.341594 -1.3941e-13)
(0.712406 -0.23436 3.94272e-14)
(0.55173 -0.154674 6.49282e-14)
(0.387557 -0.0765877 -1.74024e-14)
(0.243732 -0.0265945 -8.05998e-14)
(0.107112 0.0215163 -2.27729e-14)
(-0.00547568 0.0378291 2.81045e-15)
(-0.133927 0.0805949 -1.57845e-14)
(-0.434848 0.0319608 -3.31943e-14)
(-0.607893 -0.00187513 7.16733e-15)
(-0.290633 0.323073 -6.87813e-16)
(-0.350483 0.238623 1.5177e-16)
(-0.369502 0.18217 -2.77558e-15)
(-0.362719 0.133705 -5.2892e-15)
(-0.363875 0.0386552 8.06546e-16)
(-0.348067 0.0512175 1.66533e-18)
(-0.326192 0.0681891 -1.87039e-15)
(-0.311638 0.00636658 1.08377e-16)
(-0.266338 -0.017254 7.18782e-15)
(-0.210165 -0.00574319 -7.3243e-15)
(-0.182594 -0.0165608 -1.17471e-14)
(-0.162815 -0.0249593 1.30282e-15)
(-0.173742 -0.0370565 3.40404e-16)
(-0.13848 -0.041262 -3.53923e-17)
(-0.14874 -0.0446526 1.13148e-14)
(-4.55554 -0.908376 -1.33998e-14)
(0.689957 -5.17418 1.29441e-14)
(0.34205 -5.22245 6.09891e-15)
(-0.0331463 -4.81475 -1.44607e-15)
(-0.466152 -4.96348 -4.29604e-15)
(-0.863881 -4.73956 -2.36492e-15)
(-1.261 -4.45433 -9.83185e-15)
(-1.64282 -4.11375 7.30725e-14)
(-1.9092 -3.63828 1.59301e-14)
(-2.08252 -3.11629 -1.89555e-13)
(-2.17549 -2.59753 6.4351e-14)
(-2.16119 -2.0837 2.19956e-13)
(-2.07481 -1.60475 2.83383e-13)
(-1.91957 -1.16761 6.5329e-14)
(-1.70532 -0.78374 -3.34174e-13)
(-1.44608 -0.459436 -8.39881e-14)
(-1.18423 -0.174004 -8.01245e-14)
(-0.851768 -0.00457257 -1.57461e-13)
(-0.554141 0.144891 -3.44496e-13)
(-0.260523 0.237486 -5.94776e-13)
(0.0438658 0.289224 1.48642e-13)
(0.302755 0.38619 -1.12656e-13)
(0.617678 0.451572 -1.75944e-13)
(0.826943 0.511153 -1.58045e-15)
(0.867851 0.542858 -2.27352e-13)
(0.695213 0.478829 -3.94642e-14)
(0.518642 0.238221 3.53634e-14)
(0.458874 0.179584 4.11724e-14)
(0.534138 0.155789 -1.78361e-14)
(0.624665 0.0721394 2.42042e-14)
(0.637546 -0.0139523 4.56289e-14)
(0.725752 -0.102794 -4.53927e-14)
(0.704612 -0.140707 1.66905e-14)
(-0.126431 -0.135799 1.42886e-13)
(2.49447 0.145026 9.21342e-14)
(0.03873 0.158296 -1.46723e-14)
(-1.89442 -1.32109 -1.22161e-13)
(18.5743 -7.04699 -1.11289e-14)
(-35.3811 8.92761 1.42887e-14)
(-55.9008 12.4675 9.53218e-15)
(1.0287 -4.81353 -4.36752e-15)
(1.29036 -4.09918 -4.20231e-14)
(1.44361 -3.19323 -3.90829e-14)
(1.48575 -2.4776 -4.29687e-14)
(1.40566 -1.78478 1.47508e-13)
(1.17751 -1.13622 1.92322e-13)
(1.01643 -0.890214 1.69884e-14)
(1.05857 -0.944126 1.60227e-13)
(1.1314 -0.959585 -1.30971e-14)
(1.18022 -0.88339 -4.41332e-14)
(1.18237 -0.751455 -7.78416e-14)
(1.12697 -0.598149 -3.31054e-14)
(1.02615 -0.445041 -2.50913e-14)
(0.898286 -0.301258 7.24766e-14)
(0.751333 -0.181136 -3.90309e-14)
(0.595053 -0.0864059 -1.18529e-13)
(0.437539 -0.013306 -1.68907e-14)
(0.288291 0.0407734 7.51768e-14)
(0.153024 0.0817266 -2.74138e-15)
(0.0261842 0.142118 -2.10732e-14)
(-0.0939849 0.176889 -5.4527e-14)
(-0.206968 0.173644 2.1665e-14)
(-0.307207 0.165247 2.78347e-14)
(-0.369011 0.15406 -5.20621e-15)
(-0.388104 0.172313 -1.6485e-15)
(-0.374533 0.148859 2.16747e-15)
(-0.354563 0.1063 2.76142e-15)
(-0.34623 0.0871507 -2.92552e-16)
(-0.332512 0.0454215 3.98351e-16)
(-0.321156 0.00236189 6.8251e-16)
(-0.305933 -0.0190156 -1.84606e-15)
(-0.264321 -0.0375105 -3.52985e-15)
(-0.233388 -0.0637073 -2.014e-15)
(-0.215539 -0.0743289 5.15401e-15)
(-0.210765 -0.0797732 1.16024e-14)
(-0.238505 -0.090124 -1.14237e-14)
(-0.229446 -0.0840233 1.15828e-15)
(-0.322403 -0.193051 1.87693e-14)
(-6.64415 -1.68687 -2.19153e-14)
(0.682618 -4.53312 -1.11951e-14)
(0.375802 -4.57955 8.81799e-15)
(0.0574147 -4.2528 -3.85119e-15)
(-0.307845 -4.42243 -2.58784e-15)
(-0.648377 -4.25427 6.69628e-15)
(-0.991887 -4.02804 1.28032e-14)
(-1.32688 -3.76922 -1.34353e-14)
(-1.55676 -3.38106 1.74799e-14)
(-1.71463 -2.9588 -7.36287e-14)
(-1.8027 -2.53782 -2.27703e-13)
(-1.80027 -2.11199 -8.71056e-15)
(-1.73667 -1.70722 -1.09931e-13)
(-1.61339 -1.32925 -6.63591e-14)
(-1.43476 -0.983382 -1.63351e-14)
(-1.2218 -0.673475 -2.84587e-13)
(-0.98241 -0.410224 2.6891e-13)
(-0.745098 -0.165108 1.50501e-13)
(-0.520131 0.045532 -3.33794e-13)
(-0.305387 0.210445 1.15915e-13)
(-0.075249 0.318522 -1.86699e-13)
(0.240563 0.349878 -1.24575e-13)
(0.552879 0.406217 2.37748e-13)
(0.774432 0.414659 1.41391e-14)
(0.755321 0.398676 2.06748e-13)
(0.602778 0.293109 9.20704e-14)
(0.454235 0.148526 -2.00137e-14)
(0.496549 0.112739 5.39666e-15)
(0.64016 0.146634 2.12005e-14)
(0.775365 0.0910926 -2.69681e-14)
(0.77872 0.00556482 -4.71976e-14)
(0.843079 -0.0772856 2.14605e-14)
(0.828188 -0.1282 -4.4063e-14)
(0.450881 -0.206759 -3.70579e-14)
(1.08689 0.308133 -1.10519e-13)
(-0.106566 -0.0335815 -1.95804e-13)
(-2.06807 -1.43647 4.06522e-14)
(13.919 -5.45326 -1.40911e-14)
(-48.3408 13.8788 1.96409e-14)
(-51.0076 8.20887 -1.12983e-14)
(0.986203 -4.23119 2.25871e-14)
(1.18411 -3.6761 4.12645e-14)
(1.24991 -2.9196 -4.33912e-14)
(1.25596 -2.29116 -3.09743e-14)
(1.19994 -1.68862 4.42233e-14)
(1.0583 -1.19549 -1.39036e-13)
(0.988106 -1.03292 -1.01403e-13)
(1.06168 -1.06264 1.59554e-13)
(1.11162 -1.02336 1.94461e-13)
(1.1387 -0.924962 3.00392e-15)
(1.12959 -0.794264 -5.10207e-14)
(1.07659 -0.64967 -3.98246e-14)
(0.988104 -0.506126 1.15817e-13)
(0.872574 -0.372757 -4.86373e-14)
(0.737393 -0.255195 -1.12611e-14)
(0.590067 -0.155766 8.74321e-14)
(0.440523 -0.0751691 -3.97159e-14)
(0.296736 -0.00660221 3.47902e-14)
(0.1623 0.0512428 2.21277e-14)
(0.0368281 0.0998564 3.14997e-15)
(-0.0823603 0.140398 5.72129e-14)
(-0.194572 0.171237 -2.06048e-14)
(-0.289191 0.184353 -3.65003e-14)
(-0.349456 0.174036 -6.44082e-15)
(-0.371426 0.149434 1.3352e-14)
(-0.36351 0.113974 -2.92668e-16)
(-0.347987 0.0725477 4.15131e-15)
(-0.339199 0.0403151 -7.81007e-16)
(-0.328094 0.0164572 -2.80613e-16)
(-0.317156 -0.00814746 6.88254e-16)
(-0.29999 -0.0252089 1.23698e-15)
(-0.260727 -0.0355499 2.00147e-15)
(-0.229552 -0.0390755 -3.66638e-15)
(-0.213318 -0.0429953 -1.47136e-14)
(-0.21099 -0.0460004 -5.14112e-15)
(-0.249077 -0.0572956 -3.78505e-15)
(-0.244129 -0.0736002 -6.84351e-15)
(-0.449162 -0.116843 -1.20812e-14)
(-6.25189 -1.51263 -8.65499e-16)
(0.618798 -4.05291 1.57353e-15)
(0.334452 -4.07475 -3.3989e-16)
(0.0318338 -3.82815 2.06279e-15)
(-0.303824 -3.98913 -8.23283e-16)
(-0.619765 -3.83945 1.2933e-15)
(-0.939946 -3.63697 -7.70055e-15)
(-1.25153 -3.41321 -2.34865e-14)
(-1.4669 -3.07373 5.45602e-14)
(-1.6207 -2.70821 1.24322e-13)
(-1.7143 -2.34269 -8.07622e-14)
(-1.72658 -1.9668 -8.32344e-14)
(-1.68216 -1.60246 5.53553e-14)
(-1.58226 -1.25569 -1.20567e-13)
(-1.42707 -0.928449 -1.48388e-14)
(-1.23227 -0.630236 -3.9065e-14)
(-1.01142 -0.365482 2.10106e-14)
(-0.781599 -0.130566 3.96482e-14)
(-0.540505 0.0293739 4.01654e-13)
(-0.312073 0.127737 3.29324e-13)
(-0.0677825 0.188072 -1.41384e-13)
(0.230918 0.264246 2.01505e-13)
(0.539557 0.317177 1.93234e-14)
(0.750549 0.354179 -6.12829e-14)
(0.718058 0.337006 -1.18368e-13)
(0.521738 0.236973 9.35649e-15)
(0.407528 0.111048 2.77641e-14)
(0.445939 0.0987155 3.46052e-14)
(0.623159 0.129548 -3.25057e-14)
(0.763055 0.0729514 7.79777e-15)
(0.757992 -0.00663751 6.48007e-14)
(0.798594 -0.0745145 -2.61401e-14)
(0.749018 -0.136719 -1.4093e-13)
(0.427277 -0.20908 -7.04497e-14)
(1.11518 0.392082 -5.90181e-14)
(-0.980908 -0.12357 4.71062e-14)
(1.55961 -2.08454 4.15949e-14)
(12.4914 -3.30746 1.89375e-14)
(-59.1103 18.8429 1.11603e-14)
(-41.1356 7.03479 4.59795e-16)
(0.828649 -3.79341 -9.5788e-15)
(0.978055 -3.27843 -1.57445e-14)
(1.01368 -2.57466 1.42606e-15)
(1.0467 -2.06148 4.04181e-14)
(1.05081 -1.59533 6.27162e-14)
(1.00301 -1.24709 -2.03771e-13)
(0.99636 -1.12355 -1.2912e-13)
(1.06291 -1.10429 -1.53073e-13)
(1.10105 -1.03433 4.23835e-14)
(1.11176 -0.922432 2.20531e-14)
(1.09475 -0.791666 -5.90985e-14)
(1.04505 -0.653841 4.62675e-15)
(0.960991 -0.515108 -2.38508e-14)
(0.850994 -0.38727 -4.15171e-14)
(0.72658 -0.271404 -1.34979e-13)
(0.589432 -0.169487 -1.28319e-14)
(0.448255 -0.081007 7.8833e-14)
(0.308584 -0.00718789 -1.22531e-14)
(0.174961 0.0532698 1.56473e-14)
(0.0490535 0.10241 -2.66681e-14)
(-0.0701319 0.141189 -3.97512e-14)
(-0.181452 0.167299 -2.59851e-15)
(-0.275068 0.176604 1.30974e-14)
(-0.334785 0.169882 1.41431e-14)
(-0.35581 0.15069 -1.3224e-15)
(-0.347938 0.119245 -4.72698e-15)
(-0.333997 0.082001 -7.9797e-15)
(-0.328352 0.0503413 1.52215e-15)
(-0.319881 0.0262164 2.495e-16)
(-0.31002 0.00454284 -6.72015e-16)
(-0.294292 -0.0212241 -1.18857e-15)
(-0.259298 -0.0374473 -1.86863e-15)
(-0.229305 -0.0518896 3.3047e-15)
(-0.213066 -0.0628765 1.31137e-14)
(-0.209874 -0.0714565 4.01114e-15)
(-0.245403 -0.0870078 5.17297e-15)
(-0.248551 -0.10542 6.58724e-17)
(-0.396723 -0.200443 -6.04577e-15)
(-4.15363 -0.605721 -9.03509e-15)
(0.528173 -3.57571 5.56829e-16)
(0.288427 -3.63361 -4.21294e-16)
(0.00757936 -3.43638 -2.66581e-15)
(-0.30426 -3.59369 3.33527e-15)
(-0.595377 -3.45713 4.22659e-15)
(-0.886271 -3.27396 -8.17167e-15)
(-1.16472 -3.08304 2.90726e-14)
(-1.35406 -2.79274 -1.21217e-14)
(-1.49014 -2.48198 4.4634e-14)
(-1.57464 -2.17225 8.07247e-14)
(-1.58667 -1.84858 1.34952e-14)
(-1.54901 -1.5309 2.49642e-14)
(-1.46032 -1.2235 1.76234e-13)
(-1.31858 -0.9266 3.13621e-13)
(-1.13857 -0.6509 2.83582e-13)
(-0.933774 -0.407899 -5.13064e-15)
(-0.71254 -0.203112 3.54203e-13)
(-0.492555 -0.0349589 7.99789e-15)
(-0.294289 0.0933963 -1.05536e-13)
(-0.0840032 0.186543 1.45234e-13)
(0.183729 0.265893 -2.43674e-13)
(0.492434 0.326243 1.00072e-13)
(0.715939 0.343086 1.12568e-13)
(0.67735 0.309004 3.80248e-14)
(0.464514 0.219013 1.09714e-13)
(0.35837 0.108882 -4.41056e-14)
(0.413235 0.0842578 -3.69761e-14)
(0.581944 0.10627 5.26257e-15)
(0.715496 0.0505652 2.3383e-14)
(0.709343 -0.0190526 -6.01591e-14)
(0.753248 -0.0650852 -5.82602e-14)
(0.706258 -0.142498 1.12114e-13)
(0.270065 -0.201155 2.51759e-14)
(1.51499 0.408447 -4.34069e-14)
(-0.930283 -0.351335 1.08788e-14)
(2.24195 -2.48212 -9.2519e-14)
(8.62055 0.327337 -3.21908e-14)
(-69.8906 23.4613 -4.07089e-15)
(-33.87 4.29673 2.90479e-14)
(0.679925 -3.29154 -6.63472e-15)
(0.776346 -2.85419 -9.59138e-15)
(0.864099 -2.32222 7.69076e-15)
(0.95962 -1.94337 7.69355e-14)
(1.01167 -1.54178 3.52653e-14)
(1.01246 -1.2603 1.29252e-14)
(1.04581 -1.15991 1.61325e-13)
(1.10924 -1.1046 -9.49329e-14)
(1.14259 -1.00867 -1.48482e-13)
(1.14348 -0.88193 4.28666e-14)
(1.11742 -0.745787 9.49986e-14)
(1.05875 -0.608314 -2.07451e-14)
(0.967975 -0.475587 6.16602e-14)
(0.857803 -0.352672 5.33421e-15)
(0.733492 -0.241943 3.23022e-14)
(0.597175 -0.143783 1.49695e-14)
(0.45717 -0.0597162 -3.37214e-14)
(0.318356 0.0100905 2.91566e-14)
(0.18477 0.0668245 -2.18998e-14)
(0.058039 0.111946 2.3365e-15)
(-0.0620124 0.146876 5.45266e-14)
(-0.17336 0.170137 -1.87302e-14)
(-0.266601 0.178174 -2.43919e-14)
(-0.326538 0.169844 5.15377e-15)
(-0.347909 0.148135 -7.68913e-16)
(-0.340182 0.115771 1.22465e-15)
(-0.327483 0.079439 4.29311e-15)
(-0.323865 0.0480501 -7.05172e-16)
(-0.31685 0.0235706 1.86089e-16)
(-0.307356 0.000205387 2.37242e-17)
(-0.291086 -0.0223319 -2.787e-15)
(-0.257811 -0.0367146 3.58149e-16)
(-0.228016 -0.046556 4.92287e-15)
(-0.211483 -0.0566301 -4.23169e-16)
(-0.208718 -0.0649137 -5.29754e-16)
(-0.237827 -0.0771288 -1.3562e-16)
(-0.266373 -0.0923541 1.84253e-15)
(-0.287106 -0.18837 8.21693e-15)
(-2.3968 -0.207354 -1.27155e-14)
(0.369472 -3.13045 3.63658e-15)
(0.162599 -3.18697 -3.84793e-15)
(-0.088967 -3.03224 3.55928e-15)
(-0.376867 -3.1676 -1.1189e-14)
(-0.635057 -3.0483 6.37325e-15)
(-0.889348 -2.88409 4.09064e-15)
(-1.13223 -2.72179 5.62578e-15)
(-1.29366 -2.47366 -8.03608e-14)
(-1.41083 -2.20913 -4.86632e-15)
(-1.4849 -1.94516 1.24828e-13)
(-1.4928 -1.66308 -5.09119e-14)
(-1.45696 -1.38306 -1.22473e-13)
(-1.37571 -1.10739 -2.46814e-13)
(-1.24622 -0.837032 -2.12345e-13)
(-1.07921 -0.584108 -1.46279e-13)
(-0.887038 -0.357018 -5.73058e-14)
(-0.683062 -0.161702 -2.00139e-13)
(-0.474162 0.00081239 -2.72996e-13)
(-0.274751 0.119455 -1.37134e-13)
(-0.0687761 0.193826 3.32672e-13)
(0.18689 0.257938 3.094e-13)
(0.486272 0.311857 -2.7914e-14)
(0.696036 0.32493 -4.54253e-14)
(0.644458 0.281434 -1.49688e-13)
(0.423029 0.192028 -8.36611e-14)
(0.322382 0.102017 3.84474e-14)
(0.390489 0.0860062 2.87918e-14)
(0.556326 0.0999584 3.19042e-15)
(0.684151 0.0422141 -1.68054e-14)
(0.684691 -0.0185362 6.26785e-14)
(0.725844 -0.0562852 1.32038e-13)
(0.704884 -0.142091 -4.79486e-15)
(0.198673 -0.209667 1.75623e-14)
(1.50673 0.419129 3.60721e-14)
(-0.365746 -0.592821 -2.1199e-14)
(0.482166 -2.52671 8.82983e-14)
(6.10789 4.31658 5.62276e-14)
(-66.9566 23.2334 4.37125e-15)
(-2.30971 -11.0067 2.43166e-14)
(0.537073 -2.90989 1.79565e-14)
(0.677791 -2.61741 2.23881e-14)
(0.809736 -2.21659 3.68983e-15)
(0.904238 -1.85375 1.17829e-13)
(0.934868 -1.46992 -1.85407e-13)
(0.953212 -1.24359 7.97902e-14)
(1.01826 -1.17029 1.50676e-13)
(1.08194 -1.09496 8.30331e-14)
(1.1171 -0.989619 -3.13938e-14)
(1.11687 -0.859927 -3.345e-14)
(1.09145 -0.727165 2.39212e-14)
(1.03627 -0.59501 3.47788e-14)
(0.951867 -0.465362 -8.16101e-14)
(0.848523 -0.34453 6.40951e-14)
(0.729873 -0.234805 1.47277e-14)
(0.598688 -0.135783 -1.2215e-14)
(0.463365 -0.0500492 -5.29776e-14)
(0.328031 0.0218395 -5.31294e-14)
(0.196086 0.0792312 4.31837e-14)
(0.0698934 0.124531 1.28688e-14)
(-0.0499906 0.159199 4.53767e-15)
(-0.160965 0.181998 4.25236e-14)
(-0.253641 0.189845 1.64228e-14)
(-0.313586 0.181057 -1.98948e-15)
(-0.335104 0.157901 4.3327e-15)
(-0.3279 0.124915 -2.74726e-15)
(-0.316855 0.0887536 -5.43173e-15)
(-0.315556 0.0569391 9.21294e-16)
(-0.310316 0.0311312 -4.35703e-16)
(-0.301845 0.00689213 4.36176e-16)
(-0.286266 -0.017866 2.57087e-15)
(-0.253939 -0.037422 -2.59418e-15)
(-0.225788 -0.0526041 -9.91497e-15)
(-0.209314 -0.0663294 -8.50404e-15)
(-0.207807 -0.077942 -4.98056e-15)
(-0.22843 -0.093819 1.47479e-15)
(-0.288753 -0.119181 -2.4293e-15)
(-0.212857 -0.216773 -7.92316e-16)
(-1.19243 -0.0835769 1.33032e-14)
(0.294287 -2.83403 8.20735e-16)
(0.0992777 -2.86749 2.07035e-15)
(-0.116528 -2.73932 -1.50208e-15)
(-0.381557 -2.85707 -3.89168e-15)
(-0.611652 -2.75373 -1.63647e-14)
(-0.839135 -2.61167 1.42297e-14)
(-1.05803 -2.4752 -1.22028e-14)
(-1.20443 -2.26238 -9.75394e-15)
(-1.31295 -2.03453 -2.69967e-14)
(-1.38556 -1.80615 -3.37041e-14)
(-1.39835 -1.55623 1.48734e-14)
(-1.37116 -1.30281 1.46552e-13)
(-1.30051 -1.04934 1.9767e-13)
(-1.1834 -0.798247 3.25141e-14)
(-1.03234 -0.560581 9.50808e-15)
(-0.853007 -0.343904 1.40827e-14)
(-0.66013 -0.158815 -3.8307e-14)
(-0.461899 -0.0064342 1.16651e-13)
(-0.268028 0.113818 1.03672e-13)
(-0.0647239 0.196669 -2.60259e-13)
(0.183144 0.25829 -2.84305e-14)
(0.474044 0.309248 5.63277e-14)
(0.676173 0.314554 -6.60111e-14)
(0.617025 0.261435 7.82148e-14)
(0.385826 0.177407 2.4616e-16)
(0.286025 0.106631 -1.2932e-14)
(0.367057 0.0906435 -3.70041e-14)
(0.531054 0.0981085 1.6635e-15)
(0.653901 0.0411648 -9.44978e-17)
(0.661729 -0.0142158 3.1679e-14)
(0.697431 -0.0449359 1.32973e-14)
(0.692801 -0.134303 -5.98404e-14)
(0.215046 -0.216612 -2.22409e-14)
(1.2576 0.417437 1.20684e-13)
(0.150863 -0.732835 2.5064e-14)
(-0.997931 -2.41619 -4.08275e-14)
(6.1454 6.92326 -2.38419e-14)
(-37.5888 15.6987 6.06857e-16)
(49.0675 -22.8766 1.99317e-14)
(0.473749 -2.69649 4.26844e-15)
(0.623409 -2.46086 -5.24451e-14)
(0.721953 -2.0452 1.71219e-14)
(0.782851 -1.68466 2.84418e-14)
(0.791468 -1.36092 4.80135e-14)
(0.823754 -1.205 -1.68907e-14)
(0.907645 -1.15795 -2.56016e-14)
(0.975056 -1.08179 -6.09471e-15)
(1.01738 -0.980194 -9.89075e-15)
(1.02659 -0.857501 8.80455e-15)
(1.01267 -0.732929 3.38707e-14)
(0.970788 -0.608464 6.10293e-14)
(0.900646 -0.484133 -8.54053e-16)
(0.811196 -0.365889 -1.30887e-13)
(0.704652 -0.256647 2.38446e-14)
(0.584375 -0.156628 6.96876e-14)
(0.458549 -0.0689152 5.27582e-14)
(0.329675 0.00479659 2.42511e-14)
(0.20234 0.06483 -1.81858e-14)
(0.0795576 0.112071 -4.03744e-15)
(-0.0381017 0.148116 -1.93086e-14)
(-0.147234 0.17193 -3.54667e-14)
(-0.238248 0.180798 1.42509e-14)
(-0.297317 0.173001 1.35089e-14)
(-0.318849 0.150972 2.1001e-15)
(-0.312187 0.119102 1.08427e-14)
(-0.302992 0.0846419 3.18008e-15)
(-0.304137 0.053904 -7.51447e-16)
(-0.300915 0.0282889 1.96872e-16)
(-0.293413 0.00395249 -6.91125e-16)
(-0.279022 -0.0220744 1.45389e-15)
(-0.247536 -0.0402292 1.56784e-15)
(-0.221525 -0.0549151 4.20902e-15)
(-0.205161 -0.0694896 3.01931e-15)
(-0.204961 -0.0818252 -5.8414e-15)
(-0.220754 -0.0992797 6.28455e-16)
(-0.292693 -0.125621 1.66744e-15)
(-0.212979 -0.21068 -2.59685e-15)
(-0.786341 -0.0437105 -1.69627e-15)
(0.266087 -2.61572 3.85947e-15)
(0.0955867 -2.61986 -9.85994e-16)
(-0.102946 -2.51629 -6.72981e-15)
(-0.344172 -2.62497 -5.26584e-16)
(-0.555492 -2.5379 1.0914e-14)
(-0.762824 -2.41615 -1.06768e-14)
(-0.964455 -2.30284 -5.39095e-16)
(-1.10223 -2.11909 2.13131e-14)
(-1.20873 -1.92163 1.3612e-14)
(-1.28417 -1.72043 3.00683e-14)
(-1.3055 -1.49469 6.34515e-14)
(-1.29027 -1.26188 5.48736e-14)
(-1.23309 -1.02494 -1.26733e-13)
(-1.13038 -0.78648 -2.05722e-13)
(-0.994432 -0.558792 3.46158e-14)
(-0.831176 -0.351501 2.6762e-13)
(-0.651995 -0.17216 5.80575e-14)
(-0.467982 -0.0223626 -1.54143e-13)
(-0.278541 0.0998219 -2.47908e-14)
(-0.0777911 0.192301 3.40493e-14)
(0.165341 0.251839 -6.61979e-14)
(0.454669 0.295674 -8.00139e-14)
(0.653615 0.293914 5.37756e-15)
(0.589552 0.234696 5.94103e-14)
(0.354051 0.154397 5.4523e-14)
(0.258724 0.0986872 -2.92367e-15)
(0.345633 0.0886281 3.13035e-14)
(0.505745 0.0922643 5.54607e-15)
(0.624477 0.0361585 5.26714e-14)
(0.638442 -0.01289 -3.98965e-14)
(0.670081 -0.0398744 -1.35123e-13)
(0.667313 -0.12956 -4.39885e-14)
(0.253186 -0.217779 2.52244e-14)
(1.05995 0.386433 1.92777e-14)
(0.457924 -0.794311 -1.81786e-14)
(-1.66316 -2.17955 -1.49553e-14)
(6.12748 7.78042 3.50622e-15)
(-4.64934 6.14988 -3.34888e-14)
(65.2055 -24.6624 -3.96133e-14)
(0.418684 -2.4863 -8.97609e-15)
(0.53388 -2.2132 -8.66573e-15)
(0.60571 -1.8286 -1.24653e-14)
(0.660794 -1.52726 -2.68972e-14)
(0.694321 -1.28369 3.40122e-14)
(0.746345 -1.16976 -3.96205e-14)
(0.82914 -1.12002 -2.14384e-14)
(0.894566 -1.04462 6.3792e-14)
(0.93637 -0.947743 -3.15494e-14)
(0.948186 -0.832979 6.7113e-14)
(0.940061 -0.718457 6.76824e-14)
(0.906013 -0.603793 4.53236e-14)
(0.845563 -0.487933 2.84786e-14)
(0.767009 -0.376476 4.60959e-14)
(0.6715 -0.271761 -1.31842e-14)
(0.561556 -0.174431 4.15221e-15)
(0.444883 -0.087879 3.31374e-14)
(0.324084 -0.0147915 2.44575e-14)
(0.203703 0.0465356 -2.53464e-15)
(0.08557 0.0956331 -4.95097e-14)
(-0.0287177 0.133283 -9.77279e-15)
(-0.135069 0.158503 1.64307e-16)
(-0.223665 0.168907 -3.05357e-14)
(-0.28097 0.162533 3.30888e-15)
(-0.302103 0.142184 -3.85278e-15)
(-0.295893 0.11203 -8.66011e-15)
(-0.288338 0.0798308 7.3606e-16)
(-0.291722 0.0506848 7.06777e-17)
(-0.290454 0.0257858 -5.26303e-18)
(-0.283916 0.00182924 4.98289e-16)
(-0.270651 -0.0238461 -1.25877e-15)
(-0.24011 -0.04378 -3.04107e-15)
(-0.216381 -0.0602103 2.73179e-15)
(-0.200531 -0.0767134 7.07878e-15)
(-0.200802 -0.0905127 3.63496e-15)
(-0.215781 -0.111244 -1.2092e-15)
(-0.284535 -0.138454 -3.83485e-16)
(-0.220926 -0.233567 5.67376e-15)
(-0.754407 -0.0670379 8.30588e-15)
(0.225818 -2.37106 -3.14099e-15)
(0.0632898 -2.38327 9.5063e-16)
(-0.120233 -2.29208 6.45207e-15)
(-0.34161 -2.38789 8.50763e-15)
(-0.53311 -2.30995 2.06794e-16)
(-0.719652 -2.20205 2.37606e-15)
(-0.901219 -2.10528 -8.21434e-15)
(-1.02646 -1.94515 -3.46217e-14)
(-1.1246 -1.77196 -3.38843e-14)
(-1.19591 -1.59477 -1.06403e-14)
(-1.21832 -1.39214 -5.05456e-14)
(-1.20816 -1.1813 -1.52577e-14)
(-1.15846 -0.96405 1.18045e-13)
(-1.06601 -0.743428 5.85043e-14)
(-0.942416 -0.531817 -4.32873e-15)
(-0.792419 -0.338132 -2.07684e-13)
(-0.626635 -0.169186 -5.68577e-14)
(-0.45547 -0.0282028 1.91197e-13)
(-0.274314 0.0918651 9.13571e-14)
(-0.083185 0.190907 -4.45228e-14)
(0.148098 0.252582 -3.06711e-15)
(0.429963 0.293137 4.51286e-14)
(0.625237 0.284383 1.15816e-14)
(0.559264 0.217559 -8.20882e-14)
(0.323953 0.139847 -1.38606e-13)
(0.235269 0.093898 4.06767e-14)
(0.326364 0.0852963 -7.50914e-15)
(0.481488 0.084461 -8.36578e-15)
(0.596857 0.0289447 -2.95574e-14)
(0.616698 -0.0158755 -2.46241e-14)
(0.64456 -0.0407973 4.10254e-14)
(0.638237 -0.129345 1.3421e-13)
(0.27742 -0.215847 4.10041e-14)
(0.953308 0.33409 -1.01446e-13)
(0.623883 -0.818782 1.48504e-14)
(-2.00817 -1.82566 -2.91817e-14)
(5.47262 7.468 2.08992e-15)
(9.67766 -0.10444 3.06014e-14)
(48.8394 -22.2083 -1.3726e-14)
(0.345341 -2.21413 8.79795e-15)
(0.437792 -1.97319 2.95069e-14)
(0.513725 -1.65471 -6.49674e-14)
(0.58644 -1.39829 -5.20141e-15)
(0.64024 -1.21247 -1.25543e-13)
(0.704498 -1.1244 6.41362e-15)
(0.783162 -1.07034 3.27329e-14)
(0.844735 -0.994388 -1.28742e-13)
(0.883438 -0.900611 2.4576e-14)
(0.894466 -0.791671 -1.33653e-14)
(0.887651 -0.684931 -6.02192e-14)
(0.857326 -0.579018 -7.49218e-14)
(0.802304 -0.471382 -8.45085e-16)
(0.730674 -0.367466 5.43197e-14)
(0.642752 -0.26906 2.37103e-14)
(0.540747 -0.176504 -2.22489e-14)
(0.431843 -0.0932629 -3.12519e-14)
(0.318264 -0.0212738 -7.96749e-15)
(0.203551 0.0392571 1.55718e-14)
(0.0896817 0.0883749 4.16037e-14)
(-0.0213778 0.126464 4.14934e-14)
(-0.124972 0.152186 3.66151e-14)
(-0.211166 0.162875 -1.45913e-15)
(-0.266884 0.156565 -3.29841e-14)
(-0.286985 0.136013 3.02736e-15)
(-0.281073 0.10667 -9.54694e-15)
(-0.274919 0.0757681 -5.16503e-15)
(-0.280225 0.0476739 -6.08526e-16)
(-0.280609 0.0232172 3.52763e-16)
(-0.275174 -0.000293651 -3.55145e-16)
(-0.262795 -0.0262569 7.1529e-16)
(-0.23295 -0.0458974 2.78242e-15)
(-0.211283 -0.0623499 -2.99492e-15)
(-0.195896 -0.0794627 -2.29341e-15)
(-0.196025 -0.0937965 3.97331e-15)
(-0.211461 -0.117057 -4.43706e-16)
(-0.273671 -0.143725 1.76873e-15)
(-0.231146 -0.243184 3.61569e-15)
(-0.723069 -0.13478 -3.17161e-14)
(0.165774 -2.1215 -5.81838e-16)
(0.0192995 -2.1461 6.61727e-16)
(-0.150582 -2.07253 -3.88673e-16)
(-0.354117 -2.15738 -2.45179e-15)
(-0.527492 -2.0875 5.46236e-15)
(-0.694678 -1.9903 -9.31642e-16)
(-0.856891 -1.90519 2.65621e-15)
(-0.968666 -1.76405 2.00345e-14)
(-1.05697 -1.61091 -2.20692e-14)
(-1.12185 -1.4537 -8.88897e-14)
(-1.14189 -1.27146 -5.96156e-14)
(-1.13235 -1.08089 -7.17082e-14)
(-1.08614 -0.883306 -4.6238e-14)
(-1.00032 -0.681382 -7.64554e-14)
(-0.885256 -0.486849 -9.50575e-14)
(-0.746185 -0.309103 8.35373e-14)
(-0.591524 -0.15292 -1.80295e-14)
(-0.430665 -0.0218531 -1.45164e-13)
(-0.260012 0.0902007 -6.24635e-14)
(-0.0768514 0.186874 -4.86233e-14)
(0.146876 0.249845 -3.56867e-14)
(0.415489 0.283175 9.55651e-14)