/*--------------------------------*- C++ -*----------------------------------*\
| =========                 |                                                 |
| \\      /  F ield         | OpenFOAM: The Open Source CFD Toolbox           |
|  \\    /   O peration     | Version:  2312                                  |
|   \\  /    A nd           | Website:  www.openfoam.com                      |
|    \\/     M anipulation  |                                                 |
\*---------------------------------------------------------------------------*/
FoamFile
{
    version     2.0;
    format      ascii;
    arch        "LSB;label=32;scalar=64";
    class       volScalarField;
    location    "400";
    object      p;
}
// * * * * * * * * * * * * * * * * * * * * * * * * * * * * * * * * * * * * * //

dimensions      [0 2 -2 0 0 0 0];

internalField   nonuniform List<scalar> 
10720
(
37.7578
-26.0995
-101.905
-178.665
-252.078
-327.937
-397.272
-457.754
-511.917
-556.489
-592.752
-621.675
-643.451
-659.124
-669.485
-673.995
-673.425
-666.7
-654.916
-637.043
-614.101
-585.025
-549.654
-506.725
-458.057
-418.249
-391.244
-342.433
-286.114
-251.606
-223.618
-189.844
-151.639
-111.608
-76.6296
-62.1672
-17.9
32.3143
-15.6989
99.6509
155.261
211.995
263.04
303.798
329.733
339.616
338.576
326.669
304.933
279.142
253.086
227.952
204.513
183.337
163.797
145.715
128.546
111.999
95.4907
78.9514
62.0427
44.8999
27.9771
13.2983
2.07527
-6.82624
-13.9968
-19.5447
-23.3493
-25.4263
-25.8721
-24.8888
-22.5388
-18.993
-14.2196
-8.57682
0.706564
17.9409
109.427
61.1775
6.23938
-53.181
-115.254
-179.738
-243.465
-304.393
-361.691
-413.599
-459.591
-499.348
-532.869
-560.315
-581.544
-596.278
-604.589
-606.356
-602.318
-592.128
-576.154
-553.124
-521.985
-481.422
-436.67
-396.612
-360.324
-327.715
-296.004
-262.481
-227.182
-190.247
-151.373
-111.463
-76.5768
-62.2471
-17.793
31.979
-15.5938
152.224
192.324
231.373
267.735
297.863
318.825
328.909
328.848
319.129
301.88
280.559
257.712
234.643
212.25
191.167
171.334
152.68
134.908
117.745
100.81
83.9811
66.9951
49.938
33.2996
18.6817
7.02558
-2.49521
-10.2805
-16.3109
-20.5009
-22.9325
-23.7263
-23.0786
-21.0437
-17.7822
-13.2334
-7.79824
2.55062
19.5975
116.4
73.1889
23.7397
-31.4736
-89.672
-150.363
-211.982
-272.086
-329.141
-382.031
-429.462
-470.932
-506.18
-534.792
-556.665
-572.164
-581.51
-584.621
-581.734
-572.712
-557.613
-535.768
-506.692
-469.627
-428.25
-389.327
-353.479
-324.29
-294.669
-260.839
-225.133
-188.326
-150.227
-111.342
-76.8012
-61.788
-16.8713
32.3864
-14.5689
154.77
191.135
226.363
258.637
284.952
303.558
313.516
314.909
307.999
294.35
276.196
255.633
234.12
212.67
192
172.345
153.707
135.923
118.771
101.93
85.2208
68.4859
51.7743
35.4777
20.8767
8.91834
-0.856597
-8.82928
-15.0048
-19.3379
-21.9267
-22.8671
-22.3417
-20.4047
-17.2052
-12.6939
-7.00706
3.45199
20.4738
126.922
90.5453
48.4587
1.59817
-48.2644
-101.177
-155.594
-209.853
-262.719
-313.026
-359.646
-401.832
-439.005
-470.717
-496.688
-516.933
-531.526
-540.027
-542.382
-538.436
-528.071
-510.817
-486.365
-454.55
-418.318
-382.717
-350.376
-321.533
-291.262
-257.969
-223.065
-186.884
-149.417
-111.395
-77.1276
-60.673
-15.5039
33.0664
-14.2493
159.101
189.402
219.094
246.78
269.704
286.522
296.41
299.045
294.511
283.998
269.123
251.539
232.507
212.967
193.619
174.815
156.665
139.135
122.089
105.309
88.6532
72.0153
55.4491
39.3418
24.7471
12.5543
2.52054
-5.71993
-12.1881
-16.8387
-19.7425
-20.9815
-20.7309
-19.0424
-16.0555
-11.6971
-6.01878
4.4456
21.7362
126.624
94.2919
56.7203
14.6622
-30.1793
-78.2617
-128.301
-178.826
-228.909
-277.421
-323.249
-365.576
-403.672
-436.933
-464.898
-487.334
-503.934
-514.444
-518.706
-516.673
-508.234
-493.107
-471.078
-442.3
-408.937
-375.404
-344.571
-316.103
-286.459
-254.364
-220.485
-185.13
-148.411
-111.243
-77.3688
-59.5617
-14.4469
33.4162
-15.8003
155.277
182.125
208.556
233.27
253.83
269.373
279.184
282.775
280.186
272.28
260.238
245.342
228.622
210.925
192.926
175.039
157.478
140.313
123.498
106.911
90.4429
74.0332
57.7495
41.9396
27.4623
15.1287
4.87411
-3.60214
-10.3171
-15.2156
-18.3462
-19.7923
-19.7235
-18.1912
-15.3244
-11.0386
-5.31443
5.10353
22.1319
124.393
95.6974
62.2261
24.7887
-15.0869
-58.1128
-103.112
-148.908
-194.834
-239.878
-283.109
-323.765
-361.086
-394.404
-423.179
-447.005
-465.486
-478.472
-485.652
-486.825
-481.741
-470.087
-451.674
-426.782
-397.305
-366.646
-337.444
-309.877
-281.282
-250.361
-217.448
-182.952
-147.128
-110.89
-77.587
-58.64
-14.0259
33.0224
-17.9081
149.855
173.658
197.284
219.555
238.233
252.774
262.477
266.763
265.691
259.888
250.255
237.803
223.355
207.631
191.24
174.593
157.947
141.441
125.102
108.882
92.7243
76.6076
60.6164
45.077
30.7173
18.2762
7.82315
-0.86749
-7.81245
-12.9513
-16.3307
-18.0268
-18.1985
-16.8896
-14.2132
-10.0759
-4.38933
5.9241
21.9334
119.817
93.9054
63.6192
29.7374
-6.2558
-45.2633
-86.241
-128.166
-170.601
-212.659
-253.543
-292.584
-329.026
-362.185
-391.469
-416.352
-436.372
-451.147
-460.291
-463.497
-460.528
-451.163
-435.314
-413.383
-386.939
-358.628
-330.848
-304.165
-276.444
-246.489
-214.481
-180.831
-145.889
-110.551
-77.8329
-57.8271
-14.1637
31.8349
-19.3022
142.848
164.329
185.785
206.127
223.31
237.024
246.584
251.368
251.464
247.347
239.717
229.387
217.006
203.163
188.385
173.046
157.413
141.674
125.91
110.141
94.3596
78.5878
62.9273
47.6864
33.4907
21.0099
10.4066
1.53047
-5.62729
-11.0016
-14.6245
-16.5578
-16.9446
-15.8244
-13.3003
-9.26978
-3.6022
6.60246
21.7693
114.358
90.7984
63.2263
32.4188
-0.198152
-35.6289
-72.9162
-111.169
-150.108
-188.981
-227.106
-263.928
-298.759
-330.944
-359.873
-384.978
-405.717
-421.638
-432.382
-437.604
-436.972
-430.222
-417.254
-398.47
-375.159
-349.402
-323.341
-297.797
-271.094
-242.232
-211.266
-178.563
-144.551
-110.161
-78.0268
-57.1403
-14.5709
29.8969
-20.1423
135.344
154.891
174.543
193.284
209.23
222.229
231.611
236.744
237.731
234.95
228.968
220.449
209.913
197.831
184.646
170.674
156.174
141.346
126.309
111.125
95.8355
80.4941
65.2213
50.3111
36.3193
23.8549
13.145
4.11262
-3.23521
-8.82647
-12.6786
-14.8439
-15.4549
-14.5439
-12.2
-8.31277
-2.7118
7.30974
21.7749
108.366
86.7627
61.4673
33.2376
3.45916
-28.9202
-63.0331
-98.0772
-133.902
-169.855
-205.369
-239.999
-273.127
-304.15
-332.483
-357.536
-378.73
-395.579
-407.613
-414.444
-415.647
-410.978
-400.364
-384.221
-363.636
-340.213
-315.795
-291.369
-265.671
-237.883
-207.958
-176.208
-143.124
-109.695
-78.1371
-56.6378
-15.1741
27.0656
-21.0021
127.646
145.591
163.737
181.127
196.027
208.396
217.574
222.946
224.608
222.886
218.252
211.261
202.335
191.852
180.172
167.553
154.225
140.381
126.154
111.64
96.9129
82.059
67.2132
52.6618
38.908
26.5105
15.7374
6.57875
-0.937655
-6.73151
-10.8073
-13.2016
-14.0324
-13.3229
-11.1492
-7.39553
-1.86224
7.94942
21.8542
102.206
82.2789
58.9429
32.9414
5.6151
-24.1044
-55.409
-87.574
-120.54
-153.734
-186.693
-219.061
-250.295
-279.869
-307.233
-331.802
-353.001
-370.302
-383.209
-391.326
-394.184
-391.498
-383.171
-369.583
-351.634
-330.529
-307.833
-284.638
-260.028
-233.348
-204.496
-173.739
-141.612
-109.151
-78.1831
-56.2863
-16.1006
23.6141
-21.3707
120.029
136.608
153.465
169.69
183.691
195.488
204.447
209.97
212.141
211.259
207.724
202.011
194.475
185.419
175.133
163.819
151.669
138.857
125.513
111.751
97.6662
83.3671
69.0022
54.8504
41.378
29.1028
18.3176
9.06998
1.41358
-4.56158
-8.84518
-11.4589
-12.5074
-12.004
-10.0107
-6.40781
-0.97101
8.59353
21.9529
96.0595
77.5808
55.9426
31.8717
6.67354
-20.7258
-49.5661
-79.1866
-109.579
-140.249
-170.816
-201.007
-230.347
-258.379
-284.609
-308.485
-329.443
-346.949
-360.476
-369.61
-373.835
-372.828
-366.483
-355.147
-339.567
-320.626
-299.625
-277.7
-254.207
-228.644
-200.885
-171.154
-140.011
-108.525
-78.1786
-55.9937
-17.393
19.8648
-20.7783
112.621
128.022
143.759
158.971
172.184
183.455
192.178
197.785
200.34
200.122
197.48
192.836
186.489
178.689
169.67
159.586
148.586
136.816
124.396
111.44
98.0559
84.3662
70.5264
56.8091
43.6561
31.5513
20.8005
11.4993
3.72909
-2.40791
-6.88705
-9.71331
-10.9759
-10.6766
-8.86296
-5.4132
-0.086338
9.21653
22.0273
90.0473
72.8401
52.6936
30.3195
6.98587
-18.3696
-45.026
-72.3724
-100.445
-128.803
-157.135
-185.234
-212.692
-239.125
-264.087
-287.072
-307.547
-324.985
-338.849
-348.716
-354.072
-354.536
-349.984
-340.711
-327.327
-310.452
-291.145
-270.538
-248.204
-223.774
-197.132
-168.457
-138.322
-107.814
-78.1287
-55.6997
-18.9443
16.0033
-19.3542
105.506
119.876
134.628
148.943
161.453
172.235
180.716
186.353
189.191
189.497
187.584
183.828
178.494
171.789
163.908
154.961
145.06
134.319
122.84
110.728
98.0929
85.0618
71.7911
58.548
45.755
33.8699
23.2033
13.8888
6.03641
-0.237928
-4.89452
-7.92156
-9.39222
-9.29663
-7.66712
-4.38089
0.814336
9.82889
22.0791
84.2423
68.1585
49.3344
28.4632
6.77764
-16.7654
-41.4803
-66.7936
-92.7758
-119.034
-145.302
-171.433
-197.076
-221.909
-245.547
-267.53
-287.364
-304.542
-318.538
-328.911
-335.169
-336.874
-333.881
-326.437
-315.038
-300.094
-282.441
-263.175
-242.026
-218.743
-193.236
-165.643
-136.539
-107.014
-78.0358
-55.4002
-20.6103
12.1197
-17.5298
98.7211
112.185
126.056
139.569
151.442
161.772
170.006
175.627
178.672
179.39
178.069
175.051
170.577
164.823
157.952
150.042
141.172
131.427
120.886
109.636
97.7813
85.4451
72.7812
60.0488
47.6542
36.0339
25.4985
16.2107
8.3074
1.92045
-2.89558
-6.11196
-7.78409
-7.88985
-6.44556
-3.32897
1.71807
10.4215
22.1151
78.6846
63.6026
45.9613
26.4332
6.21716
-15.7078
-38.6869
-62.1755
-86.2722
-110.618
-134.987
-159.276
-183.189
-206.454
-228.745
-249.655
-268.723
-285.48
-299.418
-310.089
-317.034
-319.774
-318.138
-312.323
-302.724
-289.582
-273.538
-255.621
-235.681
-213.556
-189.198
-162.711
-134.659
-106.122
-77.8974
-55.1205
-22.2895
8.28623
-15.7309
92.2871
104.939
118.023
130.809
142.103
152.006
159.993
165.566
168.754
169.797
168.957
166.553
162.805
157.872
151.891
144.917
137.002
128.206
118.581
108.194
97.1361
85.5216
73.4965
61.3083
49.3484
38.0363
27.6785
18.4587
10.5385
4.06634
-0.888033
-4.27934
-6.14396
-6.44803
-5.19081
-2.25201
2.62849
10.9981
22.1392
73.3948
59.2145
42.6385
24.3201
5.42217
-15.0502
-36.4665
-58.3136
-80.7033
-103.306
-125.931
-148.511
-170.791
-192.549
-213.506
-233.304
-251.53
-267.748
-281.48
-292.283
-299.722
-303.303
-302.825
-298.437
-290.45
-278.971
-264.473
-247.9
-229.18
-208.22
-185.021
-159.658
-132.677
-105.135
-77.7079
-54.8858
-23.9324
4.59999
-14.2161
86.2076
98.1276
110.493
122.622
133.383
142.881
150.623
156.123
159.405
160.699
160.252
158.357
155.225
150.999
145.798
139.663
132.624
124.717
115.971
106.433
96.1756
85.2997
73.9377
62.3218
50.8294
39.8653
29.7289
20.6181
12.7155
6.18646
1.11602
-2.43466
-4.48169
-4.97986
-3.91048
-1.15629
3.54094
11.5575
22.1486
68.3816
55.0202
39.4104
22.1888
4.48049
-14.6779
-34.6812
-55.0434
-75.8841
-96.8986
-117.926
-138.923
-159.672
-179.992
-199.648
-218.327
-235.661
-251.253
-264.66
-275.449
-283.212
-287.46
-287.958
-284.81
-278.257
-268.306
-255.281
-240.032
-222.535
-202.744
-180.709
-156.485
-130.593
-104.053
-77.4612
-54.7079
-25.5209
1.12952
-13.0649
80.4778
91.733
103.443
114.969
125.237
134.351
141.85
147.257
150.594
152.083
151.953
150.482
147.87
144.252
139.733
134.344
128.1
121.016
113.104
104.389
94.9239
84.7916
74.1082
63.0882
52.0934
41.5134
31.6394
22.6777
14.8282
8.27204
3.10971
-0.582656
-2.80021
-3.48698
-2.60579
-0.0430396
4.45459
12.1006
22.1401
63.648
51.0334
36.3049
20.0846
3.45613
-14.5074
-33.2287
-52.2413
-71.6724
-91.2399
-110.802
-130.335
-149.654
-168.613
-187.015
-204.59
-221.011
-235.92
-248.908
-259.569
-267.507
-272.264
-273.567
-271.484
-266.196
-257.634
-246.001
-232.043
-215.761
-197.137
-176.268
-153.192
-128.401
-102.873
-77.1519
-54.5851
-27.0489
-2.10785
-12.2495
75.0882
85.7368
96.8444
107.813
117.621
126.37
133.628
138.929
142.288
143.925
144.053
142.933
140.762
137.666
133.742
129.013
123.485
117.159
110.028
102.1
93.4081
84.0149
74.0174
63.6101
53.137
42.9732
33.3996
24.6259
16.8647
10.312
5.08324
1.26842
-1.10635
-1.97495
-1.28147
1.08379
5.36682
12.6264
22.1121
59.1901
47.2604
33.343
18.0378
2.39766
-14.4773
-32.0274
-49.8107
-67.955
-86.1982
-104.414
-122.598
-140.588
-158.269
-175.474
-191.97
-207.474
-221.663
-234.165
-244.599
-252.589
-257.714
-259.669
-258.49
-254.31
-247.003
-236.671
-223.959
-208.875
-191.411
-171.704
-149.781
-126.102
-101.595
-76.7756
-54.5065
-28.5128
-5.11743
-11.7101
70.0263
80.1171
90.6686
101.12
110.497
118.897
125.917
131.1
134.458
136.205
136.541
135.714
133.917
131.268
127.861
123.715
118.828
113.192
106.787
99.6034
91.6566
82.9892
73.6774
63.8929
53.9607
44.2406
35.0012
26.4521
18.8141
12.2961
7.02733
3.11094
0.593722
-0.448499
0.0585948
2.22103
6.27532
13.1347
22.0652
55.0002
43.703
30.5324
16.072
1.33656
-14.5383
-31.0165
-47.6736
-64.6415
-81.6708
-98.6511
-115.589
-132.347
-148.827
-164.897
-180.354
-194.952
-208.403
-220.371
-230.505
-238.444
-243.811
-246.282
-245.859
-242.636
-236.453
-227.329
-215.809
-201.897
-185.58
-167.025
-146.256
-123.695
-100.218
-76.3272
-54.4582
-29.9077
-7.90459
-11.3956
65.2783
74.8534
84.8891
94.8569
103.826
111.895
118.68
123.737
127.075
128.901
129.404
128.822
127.34
125.076
122.119
118.486
114.171
109.159
103.422
96.9362
89.6998
81.7366
73.1016
63.9443
54.5676
45.3134
36.438
28.1473
20.6663
14.2138
8.93228
4.93638
2.29282
1.08653
1.40959
3.36471
7.17753
13.6251
21.9994
51.0695
40.3587
27.8797
14.1999
0.29926
-14.656
-30.1475
-45.772
-61.6594
-77.5743
-93.4163
-109.205
-124.817
-140.177
-155.175
-169.638
-183.352
-196.062
-207.465
-217.24
-225.047
-230.55
-233.412
-233.612
-231.21
-226.025
-218.012
-207.623
-194.846
-179.657
-162.242
-142.622
-121.181
-98.742
-75.8026
-54.4253
-31.2262
-10.4724
-11.2721
60.8289
69.9254
79.4802
88.9943
97.5782
105.329
111.883
116.809
120.112
121.992
122.63
122.251
121.038
119.105
116.538
113.355
109.548
105.099
99.9721
94.1339
87.5684
80.282
72.3093
63.7764
54.9626
46.1914
37.7054
29.7036
22.4115
16.0552
10.7883
6.73605
3.98345
2.62407
2.76643
4.51085
8.0707
14.0973
21.9146
47.3872
37.222
25.3868
12.4319
-0.697072
-14.8019
-29.384
-44.057
-58.9498
-73.8384
-88.6336
-103.36
-117.911
-132.227
-146.217
-159.735
-172.593
-184.568
-195.388
-204.764
-212.373
-217.919
-221.067
-221.77
-220.065
-215.758
-208.758
-199.43
-187.746
-173.659
-157.366
-138.885
-118.562
-97.1676
-75.1975
-54.3932
-32.4591
-12.8253
-11.3175
56.6637
65.3131
74.4171
83.5039
91.7226
99.1687
105.498
110.289
113.545
115.458
116.203
115.994
115.008
113.36
111.132
108.344
104.988
101.044
96.4713
91.2301
85.2928
78.6508
71.32
63.4021
55.153
46.8767
38.8006
31.1146
24.0413
17.8105
12.5858
8.50094
5.65762
4.1575
4.12366
5.65505
8.95207
14.5512
21.8119
43.9422
34.2866
23.0517
10.7729
-1.63908
-14.9557
-28.6955
-42.49
-56.4632
-70.4058
-84.2347
-97.9811
-111.549
-124.892
-137.938
-150.559
-162.596
-173.852
-184.084
-193.03
-200.393
-205.904
-209.246
-210.347
-209.224
-205.683
-199.601
-191.262
-180.619
-167.604
-152.409
-135.053
-115.842
-95.4968
-74.5081
-54.348
-33.5979
-14.9716
-11.513
52.7665
60.997
69.6767
78.36
86.232
93.3867
99.4953
104.149
107.348
109.279
110.108
110.04
109.249
107.846
105.913
103.471
100.514
97.0205
92.9498
88.2558
82.9026
76.8688
70.1535
62.8363
55.1488
47.374
39.7233
32.3758
25.5481
19.4708
14.3152
10.2219
7.30685
5.67974
5.47544
6.79284
9.81877
14.9866
21.6927
40.7224
31.544
20.8719
9.22566
-2.51995
-15.1021
-28.0602
-41.0402
-54.1639
-67.2304
-80.1664
-93.0051
-105.662
-118.1
-130.263
-142.04
-153.293
-163.851
-173.498
-181.996
-189.075
-194.489
-197.946
-199.354
-198.711
-195.832
-190.573
-183.147
-173.49
-161.509
-147.385
-131.136
-113.027
-93.7313
-73.7317
-54.2764
-34.6347
-16.9222
-11.8389
49.1215
56.9593
65.2388
73.54
81.0824
87.9568
93.85
98.3654
101.499
103.436
104.33
104.38
103.755
102.564
100.887
98.7488
96.1443
93.053
89.4338
85.2386
80.4251
74.9613
68.832
62.0963
54.9616
47.6894
40.4749
33.4841
26.9257
21.028
15.9673
11.8896
8.9226
7.18338
6.81565
7.91947
10.6681
15.4033
21.5587
37.7159
28.9858
18.8424
7.7894
-3.33301
-15.2305
-27.4606
-39.6841
-52.0188
-64.2754
-76.3843
-88.3828
-100.194
-111.79
-123.128
-134.111
-144.621
-154.506
-163.576
-171.618
-178.387
-183.655
-187.161
-188.794
-188.541
-186.23
-181.704
-175.115
-166.385
-155.394
-142.308
-127.141
-110.122
-91.8745
-72.8662
-54.1665
-35.563
-18.6874
-12.2734
45.7144
53.181
61.083
69.023
76.2507
82.8551
88.5382
92.9146
95.9796
97.9103
98.8554
99.0028
98.5193
97.5116
96.0589
94.187
91.8937
89.1603
85.9469
82.2043
77.8862
72.9531
67.3776
61.2001
54.6047
47.8312
41.0582
34.4387
28.1696
22.4748
17.5335
13.4953
10.496
8.66052
8.13793
9.03016
11.4974
15.8013
21.4122
34.9103
26.6031
16.9576
6.46215
-4.07593
-15.3331
-26.8832
-38.4019
-50.0036
-61.5076
-72.8496
-84.0682
-95.0949
-105.91
-116.476
-126.714
-136.521
-145.762
-154.271
-161.855
-168.296
-173.38
-176.88
-178.67
-178.729
-176.899
-173.02
-167.193
-159.326
-149.28
-137.194
-123.083
-107.135
-89.9291
-71.911
-54.0062
-36.378
-20.2772
-12.7956
42.5307
49.647
57.1916
64.788
71.7148
78.0596
83.5387
87.7776
90.7693
92.6854
93.6681
93.8973
93.5353
92.6865
91.4294
89.7916
87.7734
85.3581
82.5078
79.1744
75.3093
70.8671
65.8112
60.166
54.0923
47.8096
41.4789
35.2398
29.2767
23.8056
19.0062
15.03
12.0187
10.1032
9.43567
10.12
12.304
16.1806
21.2557
32.2944
24.3868
15.2111
5.2409
-4.7484
-15.405
-26.3188
-37.1795
-48.0981
-58.9018
-69.5316
-80.0261
-90.3238
-100.412
-110.26
-119.799
-128.942
-137.571
-145.536
-152.668
-158.769
-163.644
-167.092
-168.981
-169.283
-167.858
-164.547
-159.406
-152.337
-143.184
-132.06
-118.972
-104.074
-87.9
-70.8649
-53.7862
-37.0759
-21.7
-13.3853
39.5573
46.3418
53.5474
60.8163
67.4556
73.551
78.8314
82.9344
85.8503
87.7454
88.7553
89.0523
88.7945
88.084
86.9981
85.566
83.7908
81.6581
79.1329
76.1684
72.7155
68.7251
64.1537
59.0116
53.4395
47.6352
41.7437
35.8901
30.2452
25.0152
20.3782
16.4854
13.4821
11.5034
10.702
11.184
13.0852
16.5413
21.092
29.8575
22.3275
13.5966
4.12205
-5.35058
-15.4428
-25.76
-36.0051
-46.2857
-56.4363
-66.4036
-76.2251
-85.846
-95.2569
-104.435
-113.321
-121.839
-129.886
-137.33
-144.019
-149.775
-154.422
-157.783
-159.722
-160.209
-159.121
-156.303
-151.779
-145.441
-137.129
-126.921
-114.82
-100.947
-85.7897
-69.7297
-53.4962
-37.6548
-22.9644
-14.0226
36.781
43.2512
50.1347
57.0918
63.4556
69.3113
74.3988
78.3676
81.206
83.0749
84.1034
84.4566
84.2883
83.6983
82.7628
81.5122
79.952
78.0704
75.8353
73.2024
70.1231
66.547
62.4249
57.7564
52.6622
47.3205
41.8603
36.3933
31.0752
26.1005
21.6435
17.854
14.8778
12.8529
11.9301
12.217
13.8387
16.8831
20.9239
27.5886
20.417
12.1068
3.10166
-5.88426
-15.4449
-25.2014
-34.8702
-44.5535
-54.0949
-63.4443
-72.64
-81.6304
-90.4119
-98.9657
-107.24
-115.171
-122.668
-129.613
-135.872
-141.285
-145.691
-148.937
-150.887
-151.508
-150.697
-148.306
-144.331
-138.662
-131.133
-121.794
-110.64
-97.7636
-83.6033
-68.5048
-53.1283
-38.1139
-24.0762
-14.6888
34.1898
40.3621
46.9393
53.5985
59.6986
65.3237
70.224
74.0609
76.8209
78.6595
79.6999
80.0997
80.0088
79.5241
78.7207
77.6303
76.2601
74.6014
72.6252
70.2898
67.5483
64.3505
60.6435
56.4172
51.7755
46.8778
41.8381
36.7545
31.7678
27.0593
22.7975
19.1287
16.1979
14.1438
13.113
13.214
14.5619
17.2066
20.7541
25.4777
18.6463
10.7353
2.17478
-6.35149
-15.4112
-24.6397
-33.7671
-42.891
-51.8628
-60.6351
-69.2471
-77.6513
-85.8458
-93.8176
-101.522
-108.902
-115.88
-122.35
-128.193
-133.268
-137.427
-140.537
-142.466
-143.181
-142.594
-140.57
-137.081
-132.018
-125.216
-116.696
-106.446
-94.5319
-81.3455
-67.1921
-52.6749
-38.4508
-25.0414
-15.3648
31.7729
37.6618
43.9471
50.3214
56.1692
61.5722
66.2915
69.9989
72.6804
74.4857
75.5323
75.9707
75.9466
75.5545
74.8672
73.9182
72.7165
71.2559
69.5105
67.4418
65.0054
62.1514
58.8255
55.0105
50.7945
46.3199
41.6869
36.9803
32.326
27.891
23.8362
20.3038
17.4352
15.3681
14.2437
14.1698
15.2526
17.5113
20.5854
23.5155
17.0071
9.47562
1.33648
-6.75494
-15.3411
-24.0722
-32.6903
-41.2893
-49.7273
-57.9607
-66.0278
-73.8851
-81.5332
-88.9624
-96.1338
-102.999
-109.487
-115.508
-120.953
-125.697
-129.607
-132.567
-134.449
-135.223
-134.817
-133.105
-130.044
-125.528
-119.395
-111.643
-102.251
-91.2622
-79.0203
-65.793
-52.1295
-38.6665
-25.8636
-16.032
29.5194
35.1385
41.1456
47.2477
52.8533
58.0426
62.5867
66.1676
68.7709
70.5407
71.5888
72.0593
72.0927
71.7821
71.1977
70.3739
69.3218
68.0369
66.4971
64.6672
62.5053
59.9631
56.9862
53.5517
49.734
45.66
41.4171
37.0779
32.7534
28.596
24.7576
21.3743
18.5831
16.5187
15.3155
15.0792
15.9078
17.7975
20.42
21.6929
15.4919
8.32098
0.582152
-7.09761
-15.2362
-23.4978
-31.6363
-39.7419
-47.6797
-55.4086
-62.9666
-70.3137
-77.452
-84.3751
-91.0492
-97.432
-103.461
-109.056
-114.122
-118.546
-122.208
-125.007
-126.823
-127.629
-127.365
-125.918
-123.233
-119.208
-113.688
-106.65
-98.067
-87.9637
-76.6339
-64.3088
-51.4877
-38.7605
-26.5477
-16.676
27.4193
32.7816
38.5228
44.3647
49.738
54.7215
59.0959
62.5541
65.08
66.8127
67.8584
68.3552
68.439
68.1998
67.7064
66.9937
66.0744
64.9459
63.5893
61.9729
60.0577
57.7977
55.139
52.0547
48.6079
44.9109
41.0396
37.0554
33.0552
29.1763
25.5602
22.3366
19.6361
17.589
16.3219
15.9374
16.5252
18.0647
20.2598
20.0013
14.0929
7.26528
-0.0931853
-7.38278
-15.0975
-22.9155
-30.6024
-38.2439
-45.7118
-52.9683
-60.0499
-66.9204
-73.5829
-80.0341
-86.244
-92.1757
-97.7746
-102.969
-107.674
-111.789
-115.208
-117.84
-119.576
-120.391
-120.238
-119.014
-116.658
-113.071
-108.11
-101.734
-93.9094
-84.6467
-74.1922
-62.7426
-50.7467
-38.7339
-27.098
-17.287
25.4631
30.5809
36.0681
41.6602
46.8109
51.5963
55.8068
59.1456
61.595
63.2896
64.3303
64.8489
64.9764
64.8002
64.3875
63.7737
62.9721
61.983
60.7897
59.364
57.6702
55.6647
53.2954
50.5326
47.4292
44.0848
40.565
36.9213
33.2372
29.6345
26.2443
23.1881
20.5897
18.5733
17.2571
16.7393
17.1019
18.3126
20.1065
18.4325
12.803
6.30243
-0.694263
-7.61359
-14.9266
-22.325
-29.5853
-36.7898
-43.8161
-50.6297
-57.2656
-63.6907
-69.9096
-75.9201
-81.6966
-87.2067
-92.4026
-97.2199
-101.583
-105.404
-108.586
-111.049
-112.695
-113.501
-113.431
-112.395
-110.325
-107.129
-102.674
-96.9082
-89.7908
-81.3223
-71.7025
-61.0982
-49.9052
-38.589
-27.5195
-17.8569
23.6421
28.5264
33.7708
39.1238
44.0607
48.6556
52.7078
55.9302
58.3049
59.9609
60.9941
61.5301
61.6957
61.5756
61.2347
60.7087
60.0123
59.1468
58.0993
56.844
55.3486
53.5724
51.4654
48.9964
46.2096
43.1932
40.0041
36.6846
33.3057
29.9747
26.8109
23.9276
21.4404
19.4667
18.1158
17.4805
17.6353
18.5402
19.9612
16.979
11.6154
5.42656
-1.22574
-7.79331
-14.7256
-21.7266
-28.5841
-35.3763
-41.9874
-48.385
-54.6033
-60.6117
-66.4161
-72.0158
-77.3881
-82.5047
-87.3237
-91.787
-95.8284
-99.3686
-102.322
-104.615
-106.165
-106.949
-106.941
-106.061
-104.24
-101.391
-97.3936
-92.1862
-85.7251
-78.0014
-69.1737
-59.3807
-48.9656
-38.3289
-27.818
-18.3792
21.9478
26.6092
31.6214
36.7452
41.4767
45.8883
49.7875
52.8971
55.1986
56.8155
57.8393
58.3896
58.5884
58.518
58.2412
57.7937
57.1907
56.4358
55.518
54.4149
53.0972
51.5271
49.6571
47.4557
44.9598
42.2473
39.3671
36.3542
33.268
30.2016
27.2624
24.5549
22.186
20.2653
18.8937
18.1569
18.1225
18.7465
19.824
15.6336
10.5236
4.63208
-1.69225
-7.92557
-14.4964
-21.1211
-27.5977
-34.0012
-40.2211
-46.228
-52.0549
-57.6736
-63.0904
-68.3063
-73.3014
-78.0507
-82.5172
-86.6493
-90.3878
-93.6619
-96.3955
-98.5232
-99.9719
-100.723
-100.759
-100.009
-98.4049
-95.8641
-92.2774
-87.5801
-81.7248
-74.6961
-66.6157
-57.5971
-47.9315
-37.9592
-28.001
-18.8482
20.3721
24.8207
29.6106
34.5146
39.0488
43.2839
47.0355
50.0359
52.2657
53.8435
54.8565
55.418
55.6462
55.6202
55.4006
55.0229
54.5035
53.8472
53.045
52.0777
50.9188
49.5338
47.8778
45.9193
43.6894
41.2569
38.664
35.9391
33.1313
30.3205
27.602
25.0711
22.8258
20.9669
19.5873
18.7652
18.561
18.9301
19.6947
14.3891
9.52133
3.91353
-2.09821
-8.01362
-14.2411
-20.5089
-26.6253
-32.6618
-38.5133
-44.1528
-49.6124
-54.8659
-59.9207
-64.7784
-69.4215
-73.8281
-77.9655
-81.7876
-85.2418
-88.2649
-90.7888
-92.7554
-94.1016
-94.8125
-94.8782
-94.2367
-92.8198
-90.5517
-87.3341
-83.1008
-77.8023
-71.4186
-64.0391
-55.7561
-46.8097
-37.4863
-28.0758
-19.2601
18.9079
23.1529
27.73
32.4231
36.7679
40.833
44.442
47.3364
49.4964
51.0354
52.0365
52.6069
52.8605
52.8739
52.7055
52.3904
51.9458
51.3774
50.6784
49.8323
48.8153
47.5961
46.1328
44.3945
42.4069
40.2313
37.9042
35.448
32.9033
30.3374
27.8338
25.4782
23.3598
21.5702
20.1944
19.3026
18.9488
19.0893
19.5724
13.2393
8.60281
3.26575
-2.44801
-8.06091
-13.9622
-19.8916
-25.667
-31.3566
-36.8608
-42.1546
-47.2695
-52.1808
-56.8968
-61.4199
-65.7348
-69.8218
-73.6522
-77.1849
-80.3731
-83.1597
-85.4845
-87.2959
-88.5401
-89.2059
-89.2897
-88.7372
-87.4829
-85.4564
-82.57
-78.7574
-73.9686
-68.1805
-61.4559
-53.8673
-45.6086
-36.9173
-28.0507
-19.6123
17.548
21.5983
25.9714
30.4621
34.6249
38.5263
41.9977
44.7897
46.8815
48.382
49.37
49.9473
50.2233
50.2719
50.1493
49.8903
49.5125
49.0226
48.4158
47.6779
46.7877
45.7169
44.4266
42.8873
41.1198
39.1789
37.0963
34.8897
32.5917
30.2586
27.9624
25.7794
23.7894
22.0752
20.7137
19.7673
19.2839
19.2224
19.4553
12.1777
7.76239
2.68381
-2.74564
-8.07069
-13.6619
-19.2703
-24.7226
-30.0842
-35.2609
-40.2295
-45.0204
-49.6112
-54.0101
-58.2207
-62.229
-66.0184
-69.5627
-72.8254
-75.7645
-78.3297
-80.4664
-82.1295
-83.2735
-83.8906
-83.9836
-83.5047
-82.3914
-80.5787
-77.9888
-74.557
-70.2337
-64.9936
-58.8775
-51.9417
-44.3381
-36.261
-27.9333
-19.9031
16.2854
20.1496
24.3271
28.6236
32.6115
36.3554
39.6939
42.3867
44.4121
45.8746
46.8486
47.4309
47.7265
47.8064
47.7249
47.5163
47.1982
46.7785
46.254
45.6125
44.8356
43.8975
42.7625
41.4023
39.8343
38.1072
36.2484
34.2721
32.2041
30.0907
27.9933
25.9784
24.117
22.4828
21.1449
20.1582
19.5649
19.3276
19.3411
11.1987
6.99454
2.16303
-2.99519
-8.04625
-13.3423
-18.646
-23.7923
-28.844
-33.7115
-38.374
-42.8605
-47.1505
-51.253
-55.1714
-58.8938
-62.4055
-65.6833
-68.6945
-71.4013
-73.759
-75.7188
-77.2411
-78.2878
-78.855
-78.9502
-78.5315
-77.5407
-75.9176
-73.593
-70.5051
-66.606
-61.8682
-56.3159
-49.9908
-43.0083
-35.5258
-27.7313
-20.1312
15.114
18.8
22.7901
26.9
30.7198
34.3121
37.5224
40.1191
42.08
43.5049
44.4642
45.0498
45.3624
45.4702
45.4255
45.262
44.9976
44.6406
44.1896
43.6341
42.9582
42.1387
41.1429
39.9438
38.556
37.0226
35.368
33.603
31.7481
29.8406
27.932
26.0797
24.3457
22.795
21.4887
20.4752
19.7911
19.4032
19.2271
10.2966
6.29438
1.69879
-3.20055
-7.99053
-13.0061
-18.0202
-22.8766
-27.6349
-32.2108
-36.5847
-40.7851
-44.7932
-48.6179
-52.2634
-55.7191
-58.9723
-62.0019
-64.7788
-67.2694
-69.4333
-71.2274
-72.6167
-73.5701
-74.087
-74.1788
-73.8096
-72.9251
-71.4702
-69.383
-66.6058
-63.092
-58.8137
-53.7818
-48.0256
-41.6302
-34.7203
-27.451
-20.2945
14.0278
17.5433
21.3536
25.2844
28.9426
32.3888
35.4754
37.979
39.8771
41.2649
42.209
42.7965
43.1236
43.2563
43.2445
43.1214
42.9049
42.6041
42.2185
41.7399
41.1541
40.4404
39.5692
38.5147
37.2892
35.9311
34.4618
32.8898
31.231
29.5152
27.7848
26.0884
24.4795
23.0145
21.7469
20.7189
19.9622
19.4477
19.1103
9.4662
5.65697
1.28689
-3.36538
-7.90677
-12.6553
-17.3944
-21.9761
-26.4569
-30.7573
-34.8595
-38.791
-42.5343
-46.099
-49.4893
-52.6962
-55.7083
-58.5071
-61.0663
-63.3556
-65.3391
-66.9784
-68.2428
-69.1072
-69.5747
-69.6593
-69.3306
-68.5383
-67.2325
-65.3577
-62.8607
-59.6969
-55.8378
-51.2849
-46.057
-40.214
-33.8528
-27.0977
-20.3907
13.0212
16.3732
20.0113
23.77
27.2728
30.5783
33.5455
35.9591
37.7961
39.1472
40.0756
40.6635
41.0031
41.1577
41.1754
41.0884
40.9148
40.6641
40.3371
39.9268
39.4213
38.802
38.042
37.1172
36.0376
34.8375
33.5358
32.1393
30.66
29.1214
27.5579
26.01
24.5228
23.1447
21.922
20.8907
20.0784
19.4598
18.9876
8.70238
5.07781
0.923241
-3.49319
-7.79764
-12.2923
-16.77
-21.0912
-25.3096
-29.3499
-33.1961
-36.8745
-40.3695
-43.6905
-46.8424
-49.8171
-52.6047
-55.1886
-57.5455
-59.6479
-61.4637
-62.9586
-64.1064
-64.887
-65.3063
-65.381
-65.0854
-64.3733
-63.1996
-61.5148
-59.2704
-56.4239
-52.947
-48.8337
-44.0945
-38.7692
-32.9309
-26.676
-20.418
12.0888
15.2843
18.7571
22.3505
25.7038
28.8738
31.7257
34.0521
35.8295
37.1446
38.0568
38.6438
38.9941
39.168
39.2119
39.1571
39.0218
38.8159
38.5409
38.1915
37.7574
37.2223
36.5614
35.7527
34.804
33.746
32.5955
31.3577
30.0419
28.6661
27.2579
25.8503
24.4807
23.1899
22.017
20.9928
20.1407
19.4389
18.8563
8.00059
4.55251
0.604059
-3.58734
-7.66588
-11.9189
-16.1487
-20.2229
-24.1927
-27.9873
-31.5922
-35.0327
-38.2947
-41.3875
-44.3165
-47.0745
-49.6531
-52.0374
-54.2062
-56.1352
-57.7952
-59.1562
-60.1953
-60.8973
-61.2704
-61.3334
-61.0648
-60.4226
-59.3659
-57.8512
-55.8342
-53.2752
-50.1458
-46.4353
-42.1469
-37.3047
-31.9616
-26.1897
-20.3743
11.2254
14.2711
17.5854
21.0201
24.2296
27.269
30.0096
32.2514
33.9708
35.2503
36.146
36.7309
37.0898
37.2807
37.3478
37.3218
37.2206
37.0544
36.8257
36.5306
36.16
35.6996
35.1272
34.4221
33.5907
32.6602
31.6455
30.5509
29.383
28.156
26.8913
25.6154
24.3586
23.1546
22.0358
21.0277
20.1503
19.3846
18.7138
7.35635
4.07713
0.325624
-3.65088
-7.51433
-11.5374
-15.5314
-19.3714
-23.1062
-26.6689
-30.0463
-33.2631
-36.3064
-39.1854
-41.906
-44.4618
-46.8457
-49.0444
-51.0388
-52.8068
-54.3226
-55.5596
-56.498
-57.1267
-57.4561
-57.5064
-57.2596
-56.6784
-55.7256
-54.3629
-52.5504
-50.2514
-47.4377
-44.0953
-40.2216
-35.8284
-30.9519
-25.6429
-20.2587
10.4265
13.3287
16.4911
19.7732
22.8442
25.7578
28.3908
30.5507
32.2136
33.4579
34.3365
34.9183
35.2842
35.4898
35.5774
35.5769
35.5061
35.3752
35.1876
34.9404
34.6262
34.2322
33.7386
33.126
32.3993
31.5829
30.69
29.724
28.6897
27.5978
26.4649
25.3117
24.1624
23.0438
21.9823
20.9985
20.1089
19.2971
18.5584
6.76553
3.64785
0.0845577
-3.6868
-7.34534
-11.1495
-14.9197
-18.5377
-22.05
-25.3936
-28.5567
-31.563
-34.4011
-37.08
-39.6058
-41.973
-44.1757
-46.2018
-48.0343
-49.6534
-51.0359
-52.1581
-53.0033
-53.564
-53.8525
-53.8897
-53.6609
-53.1328
-52.2722
-51.0452
-49.4166
-47.3523
-44.8251
-41.8184
-38.3251
-34.3476
-29.9083
-25.04