/*--------------------------------*- C++ -*----------------------------------*\
| =========                 |                                                 |
| \\      /  F ield         | OpenFOAM: The Open Source CFD Toolbox           |
|  \\    /   O peration     | Version:  2312                                  |
|   \\  /    A nd           | Website:  www.openfoam.com                      |
|    \\/     M anipulation  |                                                 |
\*---------------------------------------------------------------------------*/
FoamFile
{
    version     2.0;
    format      ascii;
    arch        "LSB;label=32;scalar=64";
    class       volScalarField;
    location    "400";
    object      turbulenceProperties:k;
}
// * * * * * * * * * * * * * * * * * * * * * * * * * * * * * * * * * * * * * //

dimensions      [0 2 -2 0 0 0 0];

internalField   nonuniform List<scalar> 
10720
(
0.0137429
0.0169767
0.0208431
0.0255061
0.0313521
0.0383376
0.0469027
0.0575759
0.0716757
0.0911264
0.119667
0.163677
0.235888
0.362349
0.597471
1.06112
2.01039
4.23402
8.36027
14.0616
22.4813
37.6789
69.6295
136.831
256.131
370.362
774.03
1289.18
897.603
378.321
116.361
14.9225
3.18239
0.409584
1e-15
1e-15
0.0110662
0.789927
9.08107
0.0160102
0.0195932
0.0189382
0.0147757
0.0101561
0.0160344
0.0182949
0.0194556
0.0215142
0.0249193
0.0303784
0.0393782
0.0536203
0.078879
0.115873
0.197582
0.286742
0.682617
1.07653
1.42882
2.12595
3.0711
4.31049
6.14811
8.58176
11.2804
11.0659
7.23217
3.19395
0.937116
0.143077
0.00850284
0.0021437
0.000812286
0.000276253
6.5119e-06
1.01665e-07
1.66633
128.422
0.00463928
0.00548944
0.0052918
0.0052118
0.00498945
0.00466124
0.00431905
0.00399915
0.00467438
0.00336741
0.00130354
0.00298178
0.00324132
0.00414874
0.0102235
0.024378
0.0641528
0.178925
0.495231
1.20507
2.58982
4.90977
9.09587
14.9284
46.5857
80.7932
257.491
542.595
454.651
273.864
129.347
47.0831
12.8004
1.82265
0.035235
1e-15
1e-15
0.288221
7.20388
0.00228163
0.00303377
0.00280431
0.0071385
0.00997551
0.00977445
0.00773273
0.0079253
0.00796922
0.00797984
0.00791515
0.00775769
0.00745842
0.00714315
0.00389112
0.00140695
0.0517795
0.125094
0.204281
0.0389502
0.0393104
0.618228
0.882253
0.00532669
0.02389
0.0718293
0.130419
0.137703
0.112839
0.0794263
0.0466151
0.0227836
0.00962343
0.00361865
0.00122155
0.000407097
6.67714e-06
0.398662
29.2322
0.00128422
0.000726714
0.000674833
0.000511209
0.000521486
0.000574701
0.000649973
0.000739531
0.00084887
0.00106413
0.00116497
0.00124201
0.0014305
0.00134125
0.00192501
0.00573271
0.012711
0.0335173
0.0921857
0.229807
0.505287
0.978443
1.84929
3.36032
5.88801
9.76514
77.0511
198.322
187.324
140.473
84.1192
41.3482
14.9364
3.11194
0.24649
0.030894
1e-15
0.0953958
6.74374
0.000983843
0.00750811
0.0113676
0.0106666
0.0066243
0.00297202
0.0020464
0.00223678
0.00256444
0.00292697
0.00335111
0.00384239
0.00423874
0.00458499
0.00498365
0.00498782
0.00503423
0.00381401
0.00164202
0.00778816
0.00801641
0.000449725
0.000508333
0.0016248
0.00559277
0.0160111
0.00200504
0.0309982
0.0258172
0.00109954
0.00124668
0.00590814
0.000178732
0.00085248
0.00141266
0.00207788
3.57955e-05
0.151284
10.5558
0.00578811
0.00582074
0.00611228
0.00639839
0.00667955
0.00693502
0.00715645
0.00734557
0.00750737
0.0076486
0.00776314
0.00785702
0.00794657
0.00798207
0.00811109
0.00840107
0.0081793
0.00610298
0.00234402
0.00111987
1e-15
1e-15
1e-15
1e-15
1.23028
0.000117506
0.000161105
0.000661242
0.00116495
0.00292035
0.0182872
0.378131
2.20793
1.99751
0.816559
0.136621
0.0301999
0.0968464
6.516
0.0111747
0.0110951
0.0064113
0.00172359
0.00103313
0.000537909
0.000448036
0.000475389
0.000522669
0.000577679
0.000643008
0.000743662
0.00078949
0.000817454
0.000904355
0.000954437
0.000200903
0.000633728
0.00112625
0.00162811
0.00208779
0.00238122
0.00263595
0.00266865
0.00285112
0.00285733
0.00297208
0.00297226
0.00296405
0.00300202
0.00295698
0.00283632
0.00270269
0.00264361
0.00245577
0.00390606
7.06543e-05
0.103575
6.87818
0.0115032
0.0101921
0.00991959
0.00977806
0.00967295
0.00956294
0.00950673
0.00948317
0.0094831
0.00950726
0.00955618
0.00963097
0.00973017
0.00985897
0.0100078
0.0101749
0.0103354
0.0106175
0.0107544
0.00618614
0.00175011
0.000975007
1e-15
1e-15
1e-15
2.47556e-05
3.44899e-05
0.000143685
0.000256655
0.00065167
0.00412924
0.0863157
1.21455e-06
9.44271e-06
0.270394
0.268008
0.122395
0.0921642
5.76803
0.00811772
0.00252974
0.00111071
0.000569038
0.00089457
0.00124349
0.00135207
0.00129646
0.00123586
0.00116888
0.00110182
0.00117814
0.000937434
0.000612466
0.000596431
0.000633478
0.000748089
0.000862667
0.000929468
0.000957602
0.000951268
0.000925193
0.000896541
0.000873033
0.000854751
0.000839031
0.000827967
0.00081965
0.000814902
0.00080162
0.000794209
0.000849531
0.000914577
0.00100867
0.000823283
0.00223932
4.25243e-05
0.079096
5.00063
0.00414998
0.00426896
0.00381299
0.00355616
0.00333673
0.00319036
0.00313257
0.00311467
0.00312263
0.00316802
0.00325854
0.00339483
0.00357466
0.00381348
0.00409069
0.00437328
0.00480528
0.00547284
0.00624314
0.00696368
0.00734534
0.00521536
0.0010795
0.000603195
1e-15
1e-15
1e-15
1e-15
1e-15
1e-15
1e-15
1e-15
2.78533e-07
2.18971e-06
1.39991e-07
2.32742e-06
1.27648e-05
0.000429903
0.0262027
0.00145347
0.0004955
0.0010651
0.00294481
0.00588216
0.0069511
0.00702492
0.00702631
0.00702302
0.00701578
0.00700562
0.00699241
0.00703589
0.00703183
0.00701755
0.00700358
0.00698117
0.00693501
0.00686555
0.00678158
0.00668614
0.00658041
0.0064672
0.00635141
0.00623383
0.00611283
0.00598794
0.0058591
0.00572622
0.00558628
0.00542187
0.00518307
0.0048894
0.00457865
0.00412402
0.00410143
8.17463e-05
0.0529786
3.18921
0.00046164
0.000504989
0.000510554
0.000498828
0.000526811
0.000548026
0.000568021
0.000595696
0.000624768
0.000655533
0.000694475
0.000740309
0.000793176
0.000882403
0.000943529
0.000978132
0.00107933
0.00125275
0.000390059
0.00131721
0.00245806
0.00351608
0.00408485
0.00314042
0.00104006
1.10946e-06
1e-15
1e-15
1e-15
1e-15
1e-15
1e-15
1e-15
1e-15
3.25477e-08
5.45763e-07
3.01686e-06
1e-15
0.00627886
0.000692631
0.0019273
0.00566645
0.00722107
0.00717543
0.00692999
0.0070371
0.00713067
0.00724832
0.00738309
0.00753008
0.0076883
0.00785949
0.00802778
0.00820638
0.00840561
0.00852969
0.00857385
0.00856925
0.00853527
0.0084758
0.00839439
0.00829462
0.00817987
0.00805258
0.00791446
0.00776605
0.00760879
0.00744357
0.00727126
0.00710353
0.00685597
0.00660142
0.0064482
0.00592885
0.00556682
0.000542615
0.0278882
1.59879
0.00115472
0.000131257
0.000339938
0.000527717
0.000853594
0.00104054
0.00119794
0.00133057
0.00143729
0.0015215
0.0015894
0.00164358
0.00168553
0.00188306
0.00183343
0.00159624
0.00160465
0.00159924
0.00149467
0.00149927
0.00181653
0.00239269
0.00313908
0.00353165
0.00450074
5.6317e-06
2.72762e-07
1e-15
1e-15
1e-15
1e-15
1e-15
1e-15
1e-15
1e-15
1e-15
1e-15
1e-15
1.55919e-14
0.00387071
0.00686919
0.00638923
0.00416619
0.00199144
0.00168358
0.0017538
0.00187024
0.00202094
0.00220577
0.00241949
0.00265986
0.00293176
0.00322744
0.00355203
0.00386161
0.00406773
0.00416842
0.00421956
0.00424354
0.00423698
0.00420707
0.00416014
0.0041034
0.00404092
0.00397295
0.00390213
0.00383024
0.00375771
0.00368345
0.0036252
0.00362745
0.00369421
0.00374482
0.00370074
0.00416176
0.00190282
0.00986299
0.536572
0.00529515
0.00517444
0.00542495
0.00562777
0.00582954
0.00601497
0.00616487
0.00628687
0.00638906
0.00647272
0.00654276
0.00660249
0.00665335
0.0066943
0.00673957
0.00677067
0.00679462
0.00680146
0.00693181
0.00649287
0.00568515
0.00528496
0.0051139
0.0047021
0.00622352
1.78723e-05
8.99381e-07
1e-15
1e-15
1e-15
1e-15
1e-15
1e-15
1e-15
1e-15
1e-15
1e-15
1e-15
1e-15
0.00705006
0.00487883
0.00169511
0.000752094
0.000270565
0.000236601
0.000250855
0.000267922
0.000290222
0.000318844
0.000350585
0.000387678
0.000432963
0.000484376
0.000544049
0.000606011
0.000656575
1.44381e-05
4.60068e-05
5.7453e-05
5.44872e-05
4.21158e-05
2.45153e-05
8.1858e-06
0.000802612
0.00080424
0.000804554
0.00080343
0.000801152
4.18476e-06
1.32061e-05
7.30341e-05
0.000216107
0.000436162
0.000717264
0.00104575
0.00167185
0.00140445
0.071253
0.00614145
0.00559776
0.00551584
0.00551772
0.00550113
0.00549114
0.00549852
0.00551857
0.00555592
0.00561094
0.00568216
0.0057696
0.00587409
0.00599571
0.00613579
0.00629535
0.00646951
0.00667593
0.00692063
0.0071725
0.00725257
0.00698449
0.00668413
0.00604739
0.00699536
4.37945e-05
2.28824e-06
1e-15
1e-15
1e-15
1e-15
1e-15
1e-15
1e-15
1e-15
1e-15
1e-15
1e-15
1e-15
0.00326253
0.000341672
0.000290117
0.000240938
0.000326032
0.000350971
0.000361868
0.000361507
0.000358615
0.000355992
0.000350342
0.00034535
0.000342652
0.000340696
0.000340682
0.000342786
0.000346129
0.000352918
0.000363569
0.000371478
0.000377047
0.000380793
0.000383204
0.000384877
0.000386445
0.000388441
0.000389505
0.000389615
0.000388748
0.000387742
0.000386428
0.000390689
0.000399715
0.000417421
0.000445185
0.000484319
0.000325251
7.19267e-06
0.0168627
0.00167072
0.00183296
0.00159462
0.0014933
0.00140552
0.00133834
0.00130326
0.00129518
0.00131445
0.00135884
0.00142626
0.00151727
0.00163307
0.00177679
0.00195633
0.00216955
0.0024114
0.00268168
0.00309704
0.00373741
0.00437581
0.00486379
0.00528063
0.00524662
0.00642634
9.14412e-05
4.95816e-06
1e-15
1e-15
1e-15
1e-15
1e-15
1e-15
1e-15
1e-15
1e-15
1e-15
1e-15
1e-15
0.000605817
0.000211666
0.000163302
0.0017877
0.00235691
0.0024572
0.00249876
0.00250964
0.00250203
0.00248505
0.00246284
0.00243569
0.00240379
0.00236918
0.00233602
0.00230449
0.00227493
0.00224709
0.00222063
0.00219508
0.00216998
0.0021448
0.00211912
0.00209263
0.00206495
0.00203561
0.00200412
0.00197045
0.00193457
0.00189628
0.00185387
0.00178688
0.00165614
0.00148554
0.00129691
0.00107388
0.0010019
0.000378036
1e-15
0.000205337
0.000230332
0.000214605
0.000199136
0.000200384
0.000205588
0.000208198
0.000215286
0.000225171
0.000236625
0.000252273
0.000271408
0.000294573
0.000336875
0.000363445
0.000382828
0.000430971
0.000488975
0.000588701
0.000193069
0.000778989
0.00150863
0.00227245
0.00271785
0.00433568
0.000150266
8.44952e-06
1e-15
1e-15
1e-15
1e-15
1e-15
1e-15
1e-15
1e-15
1e-15
1e-15
1e-15
1e-15
0.000401093
0.00123485
0.00312209
0.00373339
0.00375773
0.00379611
0.00383079
0.00385256
0.00386492
0.00386957
0.00387029
0.00386694
0.00385794
0.00384531
0.00383038
0.00381313
0.00379355
0.00377129
0.00374611
0.00371774
0.00368601
0.0036507
0.00361163
0.00356885
0.00352266
0.00347324
0.00342024
0.00336385
0.00330409
0.00324092
0.00317657
0.00311181
0.00298665
0.00284238
0.00269138
0.00239927
0.00197529
0.00159894
0.000297902
0.000589858
0.000335232
0.000369868
2.43764e-05
9.21932e-05
0.000165689
0.000223045
0.000267253
0.000302076
0.000327078
0.000344565
0.000356978
0.000364986
0.000461953
0.000404103
0.000254641
0.000252567
0.00026924
0.000280699
0.00024567
0.000269749
0.000457257
0.000863658
0.00114909
0.00254178
0.000228725
1.33294e-05
1e-15
1e-15
1e-15
1e-15
1e-15
1e-15
1e-15
1e-15
1e-15
1e-15
1e-15
1e-15
0.00201733
0.00349591
0.00320023
0.00224757
0.00202045
0.00198643
0.00198971
0.0020033
0.00201943
0.00203183
0.00204339
0.00205589
0.00206845
0.00208006
0.00208979
0.00209673
0.0021003
0.0021001
0.00209585
0.00208734
0.00207449
0.0020576
0.00203722
0.0020145
0.00199042
0.00196485
0.00193792
0.00190983
0.00188075
0.00185065
0.00181973
0.00179879
0.00181077
0.0018378
0.00186583
0.00186062
0.00176852
0.00173131
0.00113516
0.002687
0.00263595
0.00269243
0.00278306
0.00286063
0.00292519
0.00297368
0.00300931
0.00303647
0.00305611
0.00307045
0.00308115
0.00308858
0.00309361
0.00311038
0.00311654
0.00311983
0.00311899
0.00311278
0.00304557
0.00298447
0.00260253
0.00214874
0.0018581
0.00239278
0.000495553
1.51332e-10
8.55451e-12
1e-15
1e-15
1e-15
1e-15
1e-15
1e-15
1e-15
1e-15
1e-15
1e-15
1e-15
0.00362006
0.0024615
0.000948919
1.72905e-05
0.000294473
0.000296235
0.000299875
0.000298977
0.000298325
0.000298317
0.000295803
0.000294275
0.000295567
0.000297795
0.000301843
0.000307849
0.000314741
0.000322991
4.43223e-06
9.8579e-06
1.34682e-05
1.55963e-05
1.67176e-05
1.80611e-05
2.0409e-05
2.33549e-05
2.69247e-05
3.10709e-05
3.59149e-05
4.15478e-05
4.56195e-05
4.87802e-05
0.000104516
0.000216735
0.000366358
0.000558997
0.00077309
0.000996691
0.00099447
0.00333778
0.00308447
0.00306983
0.00305644
0.00303518
0.00302136
0.00301837
0.00302097
0.00302968
0.00304424
0.00306411
0.00308905
0.00311843
0.0031552
0.00319564
0.00323632
0.00327775
0.00331777
0.0033619
0.0034154
0.00345314
0.0033771
0.00312769
0.00272923
0.00276982
0.00108586
5.02444e-09
2.94371e-10
1e-15
1e-15
1e-15
1e-15
1e-15
1e-15
1e-15
1e-15
1e-15
1e-15
1e-15
0.00183195
0.000241814
0.000163648
5.7584e-05
6.77126e-05
7.51632e-05
7.89869e-05
7.96911e-05
7.95828e-05
7.94024e-05
7.80901e-05
7.66595e-05
7.58962e-05
7.5305e-05
7.52398e-05
7.57959e-05
7.67558e-05
7.81137e-05
8.0509e-05
8.33531e-05
8.60923e-05
8.87423e-05
9.1294e-05
9.37093e-05
9.58022e-05
9.76704e-05
9.94597e-05
0.00010117
0.000102821
0.000104427
0.00010545
0.000105553
0.000112266
0.000126425
0.000154424
0.000174341
0.000200386
0.000211074
0.000479702
0.000995848
0.00106138
0.000885566
0.000861332
0.000861297
0.000863487
0.000868786
0.000878348
0.00089327
0.000914144
0.000941339
0.000975061
0.00101493
0.00106013
0.00110554
0.00115691
0.00122065
0.00128892
0.00135595
0.00147813
0.00173106
0.0019942
0.00218393
0.00222699
0.00235092
0.00156483
2.26481e-08
1.37458e-09
1e-15
1e-15
1e-15
1e-15
1e-15
1e-15
1e-15
1e-15
1e-15
1e-15
1e-15
0.00035501
8.68847e-05
0.000247436
0.000386684
0.000464963
0.000501802
0.000522922
0.000534955
0.000542219
0.000547046
0.000549315
0.000549436
0.00054867
0.000547296
0.00054542
0.000543371
0.000541276
0.00053907
0.000536862
0.000534609
0.000532218
0.00052963
0.000526807
0.000523702
0.000520051
0.000515656
0.000510514
0.000504704
0.000498243
0.000491142
0.00048317
0.00047208
0.000438551
0.000381072
0.000348793
0.000230539
8.95968e-05
0.000124724
0.00029683
0.000130096
0.000141096
0.000125972
0.000118364
0.000120101
0.000122433
0.000121881
0.000123608
0.00012614
0.000128929
0.000133738
0.000139729
0.000147002
0.000155912
0.000165336
0.00017631
0.000189797
0.000204652
0.000219898
0.000244832
0.000311056
0.000225376
0.000556895
0.000891958
0.00120481
0.00134627
5.96935e-08
3.75056e-09
1e-15
1e-15
1e-15
1e-15
1e-15
1e-15
1e-15
1e-15
1e-15
1e-15
1e-15
0.000145096
0.000428527
0.00144415
0.00170797
0.00176136
0.00178619
0.00180117
0.00181021
0.00181559
0.00181912
0.00182119
0.00182164
0.00182109
0.00181962
0.00181706
0.00181361
0.00180923
0.00180373
0.0017971
0.0017892
0.0017799
0.00176903
0.00175647
0.00174209
0.00172571
0.00170728
0.00168689
0.00166481
0.00164105
0.00161546
0.00158804
0.00155958
0.00151402
0.00143397
0.00131986
0.00115399
0.000981089
0.000723768
0.000558769
0.000233186
0.000151538
0.000175055
0.000171581
0.000176858
0.000181404
0.00017955
0.000179405
0.000178899
0.000177117
0.00017678
0.000176591
0.000176692
0.000179428
0.000181747
0.000184135
0.00018652
0.000188982
0.0001915
0.000193824
0.000189004
0.000211307
0.000258556
7.66507e-05
0.000295567
0.000765589
1.15681e-07
7.5192e-09
1e-15
1e-15
1e-15
1e-15
1e-15
1e-15
1e-15
1e-15
1e-15
1e-15
1e-15
0.000730608
0.00177412
0.00161681
0.00146671
0.00145233
0.0014422
0.00143399
0.00142851
0.00142476
0.00142249
0.00142223
0.00142309
0.00142413
0.00142515
0.00142577
0.0014257
0.00142472
0.00142268
0.00141938
0.00141469
0.00140847
0.00140061
0.00139099
0.00137964
0.00136679
0.00135262
0.00133714
0.00132048
0.0013027
0.00128375
0.00126356
0.00124644
0.00124016
0.00123448
0.00121604
0.00117886
0.00110794
0.000945501
0.000757608
0.0011127
0.00113735
0.00122737
0.00124968
0.00127143
0.00128457
0.00128944
0.00128818
0.00128382
0.00127764
0.00127026
0.00126245
0.00125399
0.00125817
0.00125709
0.00125324
0.00124748
0.00124076
0.00123373
0.00122532
0.00117322
0.00105526
0.000936714
0.000775012
0.000583663
0.000795647
3.90929e-07
2.62699e-08
1e-15
1e-15
1e-15
1e-15
1e-15
1e-15
1e-15
1e-15
1e-15
1e-15
1e-15
0.00183711
0.00130655
0.000561517
0.000330543
0.000302169
0.000289152
0.000278664
0.000270128
0.000263786
0.000259583
0.000257157
0.000256093
0.000255973
0.000256555
0.000257568
0.000258853
0.000260284
0.000261766
0.000263187
0.000264491
0.000265619
0.000266532
0.000267258
0.000267888
0.000268424
0.000268736
0.000268787
0.000268549
0.000268043
0.000267239
0.000265714
0.000264234
0.000279361
0.00032804
0.00039896
0.000501734
0.000612349
0.000665373
0.000629145
0.00178518
0.00165737
0.00167337
0.00167651
0.00166355
0.00164497
0.00162694
0.0016101
0.0015959
0.00158474
0.00157595
0.00156925
0.00156434
0.0015607
0.00155803
0.00155612
0.00155479
0.00155366
0.00155274
0.00155664
0.00155459
0.001525
0.00144501
0.00129622
0.00106974
0.00107992
1.57583e-06
1.09397e-07
1e-15
1e-15
1e-15
1e-15
1e-15
1e-15
1e-15
1e-15
1e-15
1e-15
1e-15
0.00115019
0.000185935
0.000104405
4.92136e-05
4.58674e-05
4.50497e-05
4.36804e-05
4.16238e-05
3.98823e-05
3.8618e-05
3.71966e-05
3.60353e-05
3.5382e-05
3.49363e-05
3.48366e-05
3.51606e-05
3.57418e-05
3.66154e-05
3.77294e-05
3.90441e-05
4.04964e-05
4.20692e-05
4.37371e-05
4.53391e-05
4.66958e-05
4.78951e-05
4.90418e-05
5.01205e-05
5.11269e-05
5.20438e-05
5.278e-05
5.34827e-05
5.75619e-05
6.87424e-05
8.49465e-05
0.000111031
6.88791e-05
0.000234868
0.000356884
0.000788772
0.000772802
0.000684168
0.000631822
0.000590832
0.000559832
0.000539438
0.00052726
0.000521344
0.000520356
0.000522971
0.000528422
0.000536115
0.00054574
0.000557132
0.000570253
0.000584981
0.00060121
0.000619287
0.000641095
0.00068891
0.000778981
0.000867692
0.000931303
0.000913067
0.00104491
4.75156e-06
3.40519e-07
1e-15
1e-15
1e-15
1e-15
1e-15
1e-15
1e-15
1e-15
1e-15
1e-15
1e-15
5.44204e-06
2.7999e-05
7.58076e-05
8.67572e-05
9.10533e-05
9.54305e-05
9.78181e-05
9.72736e-05
9.58766e-05
9.43217e-05
9.13213e-05
8.81846e-05
8.59223e-05
8.3844e-05
8.24552e-05
8.20406e-05
8.21748e-05
8.2988e-05
8.44071e-05
8.62739e-05
8.84813e-05
9.09599e-05
9.3675e-05
9.61336e-05
9.78498e-05
9.91351e-05
0.000100285
0.000101282
0.000102115
0.000102753
0.000103189
0.000103427
0.000103566
9.91668e-05
8.88893e-05
7.36795e-05
7.33334e-05
9.48547e-05
0.000115781
0.00010727
0.000106642
0.00010092
8.95703e-05
8.47213e-05
8.13767e-05
7.71288e-05
7.52382e-05
7.42328e-05
7.3477e-05
7.39073e-05
7.48426e-05
7.62447e-05
7.83466e-05
8.08995e-05
8.39683e-05
8.75094e-05
9.14876e-05
9.59299e-05
0.00010111
0.000110574
0.00013649
0.000107206
0.000260234
0.000381602
0.000668781
1.05186e-05
7.77728e-07
1e-15
1e-15
1e-15
1e-15
1e-15
1e-15
1e-15
1e-15
1e-15
1e-15
1e-15
3.72083e-05
1.63628e-05
0.000511447
0.000583942
0.00060164
0.000614716
0.00062707
0.00063588
0.000640623
0.00064257
0.000642801
0.000641832
0.000640172
0.000638176
0.000635877
0.000633327
0.000630568
0.000627554
0.000624263
0.000620655
0.000616693
0.00061231
0.00060746
0.000602149
0.000596412
0.000590205
0.000583498
0.000576332
0.000568711
0.000560589
0.000551988
0.000542951
0.000534037
0.000502712
0.000443358
0.000361856
0.000282384
0.000186782
0.000163531
8.91749e-05
5.56112e-05
6.23763e-05
6.14613e-05
6.29148e-05
6.39364e-05
6.24722e-05
6.1618e-05
6.06129e-05
5.91631e-05
5.82633e-05
5.74496e-05
5.67554e-05
5.64094e-05
5.61775e-05
5.61294e-05
5.6213e-05
5.64103e-05
5.67018e-05
5.70845e-05
5.72209e-05
5.2713e-05
6.15159e-05
7.87726e-05
0.000100687
0.000183914
1.29848e-05
9.89785e-07
1e-15
1e-15
1e-15
1e-15
1e-15
1e-15
1e-15
1e-15
1e-15
1e-15
1e-15
0.000259049
0.00080969
0.000947285
0.000946505
0.00095154
0.000949856
0.000950043
0.00095105
0.000950246
0.000947682
0.000944389
0.000940826
0.000937217
0.000933761
0.000930407
0.000927039
0.000923623
0.000920058
0.000916239
0.000912069
0.000907449
0.000902242
0.000896281
0.000889457
0.000881821
0.000873384
0.000864112
0.000854038
0.000843207
0.000831568
0.000819184
0.000806291
0.000796242
0.000777678
0.000740966
0.00068651
0.000600587
0.000458067
0.000346775
0.000438458
0.000404539
0.000424404
0.000436074
0.000441809
0.000443361
0.000441436
0.000437165
0.000431928
0.000426333
0.000420588
0.000414974
0.000409515
0.000404222
0.000399132
0.000394235
0.000389583
0.00038522
0.000381314
0.00037787
0.00037315
0.000339153
0.000279499
0.000224282
0.000131807
0.000189173
4.54199e-05
4.03032e-06
1e-15
1e-15
1e-15
1e-15
1e-15
1e-15
1e-15
1e-15
1e-15
1e-15
1e-15
0.000983399
0.000881869
0.000506444
0.00045292
0.000445347
0.000434582
0.000425082
0.000419574
0.000415464
0.000411461
0.000407872
0.000404914
0.000402498
0.000400572
0.000398996
0.000397612
0.000396341
0.000395086
0.000393765
0.0003923
0.000390664
0.000388799
0.000386619
0.000384107
0.000381351
0.000378284
0.000374903
0.000371285
0.000367373
0.000363114
0.000358598
0.000353596
0.00035138
0.000364644
0.000388679
0.000417286
0.000434329
0.000416809
0.000363474
0.000991054
0.000917684
0.000920782
0.000911349
0.000896254
0.000880422
0.000868958
0.000860133
0.000852905
0.000846727
0.000841012
0.000835664
0.000830602
0.000825669
0.000820823
0.000815988
0.000811092
0.000806029
0.000800744
0.00079542
0.000788282
0.00075156
0.000707466
0.000649663
0.000561008
0.000489461
0.000212497
2.72578e-06
2.09499e-07
1e-15
1e-15
1e-15
1e-15
1e-15
1e-15
1e-15
1e-15
1e-15
1e-15
0.000750525
0.000284854
0.000108484
6.92993e-05
6.93409e-05
6.93325e-05
6.80761e-05
6.58217e-05
6.36606e-05
6.17005e-05
5.89697e-05
5.63361e-05
5.43973e-05
5.26295e-05
5.13824e-05
5.08333e-05
5.07069e-05
5.11093e-05
5.1974e-05
5.32205e-05
5.47681e-05
5.65918e-05
5.86418e-05
6.05363e-05
6.1898e-05
6.29581e-05
6.39635e-05
6.49077e-05
6.57734e-05
6.65245e-05
6.71704e-05
6.76721e-05
6.86496e-05
7.26577e-05
8.10278e-05
4.23369e-05
0.000120703
0.000201861
0.000238416
0.000570381
0.000552016
0.000507094
0.000486983
0.000477085
0.000470001
0.000462626
0.000454991
0.000447806
0.00044211
0.000437902
0.000434999
0.000433215
0.000432278
0.000432009
0.000432277
0.000433007
0.000434043
0.000435428
0.000436856
0.000442534
0.000463443
0.000489302
0.000501871
0.000502651
0.000489036
0.000372217
1.58487e-05
1.25516e-06
1e-15
1e-15
1e-15
1e-15
1e-15
1e-15
1e-15
1e-15
1e-15
1e-15
0.00011113
5.21549e-05
7.53979e-06
1.38743e-05
1.61393e-05
1.86771e-05
2.05087e-05
2.12065e-05
2.14125e-05
2.14244e-05
2.09043e-05
2.02029e-05
1.96372e-05
1.90416e-05
1.85768e-05
1.83557e-05
1.82745e-05
1.83975e-05
1.87026e-05
1.91792e-05
1.97862e-05
2.05265e-05
2.13836e-05
2.2202e-05
2.27853e-05
2.32275e-05
2.36334e-05
2.40036e-05
2.43372e-05
2.46251e-05
2.48654e-05
2.50396e-05
2.50229e-05
2.35711e-05
2.00748e-05
2.56772e-05
3.42735e-05
4.90214e-05
7.94155e-05
8.0666e-05
8.58043e-06
7.7603e-05
7.0558e-05
6.97716e-05
6.95331e-05
6.70609e-05
6.55864e-05
6.41546e-05
6.24807e-05
6.16368e-05
6.10315e-05
6.06949e-05
6.08401e-05
6.11748e-05
6.17965e-05
6.2611e-05
6.35857e-05
6.46763e-05
6.58198e-05
6.83962e-05
8.21398e-06
5.79934e-05
0.000120685
0.000190667
0.000248541
0.000305187
4.48849e-05
3.70187e-06
1e-15
1e-15
1e-15
1e-15
1e-15
1e-15
1e-15
1e-15
1e-15
1e-15
1.66271e-05
4.59619e-05
4.96425e-05
9.12898e-05
0.000104414
0.000117969
0.000129148
0.000136555
0.000141457
0.000144966
0.000147221
0.000148506
0.000149317
0.000149774
0.000149964
0.000150042
0.000150047
0.00015001
0.000149946
0.00014988
0.000149776
0.000149624
0.000149432
0.000149162
0.000148708
0.000147979
0.000147004
0.00014582
0.000144444
0.000142877
0.000141143
0.000139148
0.000136225
0.000125804
0.00010511
8.74127e-05
4.59962e-05
1.43325e-05
5.1637e-05
1.8297e-05
1.40983e-05
1.24091e-05
1.00659e-05
8.7769e-06
8.08162e-06
8.00753e-06
8.27568e-06
8.49896e-06
8.51188e-06
8.49526e-06
8.41398e-06
8.29616e-06
8.20301e-06
8.11361e-06
8.04726e-06
8.00101e-06
7.97439e-06
7.96823e-06
7.9767e-06
7.93792e-06
8.52265e-06
1.40331e-05
2.2249e-05
3.05346e-05
5.09563e-06
0.000105392
5.97345e-05
2.49615e-07
1.99506e-08
1e-15
1e-15
1e-15
1e-15
1e-15
1e-15
1e-15
1e-15
1e-15
8.9903e-06
0.000297502
0.000439023
0.00045034
0.000457368
0.000464658
0.000470612
0.00047397
0.000475291
0.000475564
0.00047525
0.000474457
0.00047349
0.000472405
0.000471174
0.000469892
0.000468552
0.000467102
0.00046554
0.000463827
0.000461909
0.000459694
0.000457152
0.000454245
0.000450881
0.000446988
0.000442634
0.000437891
0.000432778
0.00042727
0.000421362
0.000415023
0.000408447
0.000397432
0.000375101
0.000339915
0.000285286
0.000222823
0.000171862
0.000124631
9.16675e-05
8.26979e-05
7.01154e-05
6.06127e-05
5.52111e-05
5.59208e-05
5.82048e-05
6.02398e-05
6.12937e-05
6.15487e-05
6.12855e-05
6.06595e-05
5.98418e-05
5.89624e-05
5.80607e-05
5.71973e-05
5.63998e-05
5.57053e-05
5.51027e-05
5.42321e-05
4.92046e-05
3.41712e-05
2.3446e-05
4.49339e-07
3.55142e-05
1.30431e-05
5.24461e-05
4.02997e-06
4.0491e-07
1e-15
1e-15
1e-15
1e-15
1e-15
1e-15
1e-15
1e-15
1e-15
0.000470292
0.000531594
0.00041369
0.000397832
0.00039182
0.000384072
0.000376506
0.000369867
0.000364016
0.000358986
0.000355104
0.000352059
0.000349532
0.00034741
0.000345587
0.000343885
0.000342252
0.000340598
0.000338882
0.000337025
0.000334988
0.000332698
0.000330092
0.000327142
0.000323952
0.000320566
0.000317017
0.000313287
0.000309381
0.00030528
0.000300959
0.000296413
0.000292728
0.000293338
0.000296464
0.00029453
0.000287656
0.000261113
0.000212128
0.000515117
0.000451557
0.000431581
0.000419306
0.000410412
0.000404258
0.000402704
0.000402443
0.00040138
0.000399376
0.000396739
0.000393844
0.00039085
0.000387868
0.00038494
0.000382049
0.00037918
0.000376309
0.000373416
0.000370495
0.000367609
0.000362597
0.000342302
0.00030941
0.000266728
0.000220354
0.000180965
0.000155792
3.53845e-05
4.39798e-07
3.55119e-08
1e-15
1e-15
1e-15
1e-15
1e-15
1e-15
1e-15
1e-15
0.000517726
0.000256203
0.000116569
9.14432e-05
8.52583e-05
7.81172e-05
7.06075e-05
6.41207e-05
5.89139e-05
5.4771e-05
5.14876e-05
4.89178e-05
4.68465e-05
4.51534e-05
4.3764e-05
4.25818e-05
4.15354e-05
4.06278e-05
3.98066e-05
3.90694e-05
3.84225e-05
3.78811e-05
3.74462e-05
3.7114e-05
3.68635e-05
3.66913e-05
3.65782e-05
3.64768e-05
3.63794e-05
3.62792e-05
3.61444e-05
3.57638e-05
3.53567e-05
4.00957e-05
5.64549e-05
8.36364e-05
0.000117898
0.000144485
0.000149554
0.000426529
0.000412885
0.000401352
0.000393407
0.000388179
0.000383462
0.000381384
0.000380923
0.000379338
0.000377119
0.000374605
0.000372113
0.000369816
0.000367691
0.000365678
0.000363726
0.000361778
0.000359796
0.000357748
0.000355642
0.000353806
0.00035577
0.000356516
0.000348028
0.00033468
0.000314144
0.000272384
0.000232759
0.000120419
6.2199e-06
5.18001e-07
1e-15
1e-15
1e-15
1e-15
1e-15
1e-15
1e-15
1e-15
0.000113169
4.87859e-05
1.82355e-05
1.43035e-05
1.35515e-05
1.27068e-05
1.15099e-05
1.02112e-05
9.13045e-06
8.26919e-06
7.44107e-06
6.73522e-06
6.19515e-06
5.7241e-06
5.35502e-06
5.09999e-06
4.91001e-06
4.80238e-06
4.76362e-06
4.78639e-06
4.85975e-06
4.988e-06
5.16758e-06
5.3511e-06
5.48118e-06
5.59187e-06
5.71653e-06
5.84614e-06
5.97895e-06
6.11224e-06
6.2404e-06
6.32506e-06
6.40224e-06
7.42979e-06
1.07002e-05
1.62085e-05
2.43569e-05
1.87103e-05
5.84094e-05
6.88663e-05
0.000109476
0.000102645
0.000100638
0.000100248
9.94764e-05
9.74922e-05
9.67403e-05
9.63292e-05
9.56081e-05
9.48631e-05
9.4347e-05
9.40843e-05
9.40246e-05
9.40864e-05
9.42491e-05
9.45114e-05
9.48641e-05
9.53233e-05
9.58742e-05
9.61898e-05
0.000101227
0.000119125
0.000138516
0.00016319
0.000185982
0.000197247
0.000200051
0.000167331
2.67955e-05
4.49056e-09
3.66591e-10
1e-15
1e-15
1e-15
1e-15
1e-15
1e-15
1e-15
2.3452e-05
1.18435e-05
1.97772e-05
2.37199e-05
2.51035e-05
2.6279e-05
2.68716e-05
2.65958e-05
2.60494e-05
2.54377e-05
2.43301e-05
2.31039e-05
2.20844e-05
2.10391e-05
2.01626e-05
1.95865e-05
1.9189e-05
1.90442e-05
1.91517e-05
1.94874e-05
2.0011e-05
2.07313e-05
2.16309e-05
2.24789e-05
2.30037e-05
2.33552e-05
2.37053e-05
2.40442e-05
2.43683e-05
2.46674e-05
2.49381e-05
2.51772e-05
2.53861e-05
2.55326e-05
2.45842e-05
2.22063e-05
1.83256e-05
1.83967e-05
6.29533e-06
9.84655e-06
1.58337e-05
1.58406e-05
1.48478e-05
1.49043e-05
1.49364e-05
1.42996e-05
1.40684e-05
1.38752e-05
1.35217e-05
1.33035e-05
1.31243e-05
1.29985e-05
1.2983e-05
1.30047e-05
1.30829e-05
1.32039e-05
1.33619e-05
1.3548e-05
1.37532e-05
1.39127e-05
1.47194e-05
1.73736e-05
2.01776e-05
2.67026e-05
2.67766e-05
6.35813e-05
9.57838e-05
0.000124552
5.71623e-05
1.71228e-06
1.43992e-07
1e-15
1e-15
1e-15
1e-15
1e-15
1e-15
1e-15
3.01428e-05
8.43036e-05
0.000127662
0.000153208
0.000159623
0.000163329
0.000166743
0.00016911
0.000170422
0.000171101
0.000171403
0.000171403
0.000171236
0.000170978
0.000170631
0.000170231
0.000169792
0.0001693
0.000168757
0.00016815
0.000167463
0.000166667
0.000165745
0.000164706
0.000163547
0.000162239
0.000160785
0.000159201
0.000157486
0.000155634
0.00015364
0.000151507
0.000149256
0.000146712
0.000138091
0.000121952
9.84387e-05
7.51736e-05
5.76611e-05
4.0771e-05
2.06002e-05
2.04379e-05
1.91984e-05
1.92741e-05
1.95396e-05
1.91824e-05
1.90722e-05
1.89184e-05
1.85739e-05
1.83858e-05
1.81808e-05
1.79812e-05
1.78793e-05
1.77886e-05
1.77418e-05
1.77217e-05
1.77168e-05
1.77142e-05
1.77039e-05
1.76611e-05
1.75422e-05
1.64033e-05
1.42764e-05
1.19409e-05
1.35795e-05
1.78864e-05
7.52153e-06
4.24607e-05
5.47134e-05
8.44096e-06
9.1179e-07
1e-15
1e-15
1e-15
1e-15
1e-15
1e-15
1e-15
0.000150348
0.000286498
0.000250096
0.000255378
0.000257776
0.00025571
0.000253839
0.000252205
0.000250469
0.000248748
0.000247244
0.000245903
0.000244671
0.000243567
0.000242541
0.000241556
0.00024061
0.000239664
0.000238696
0.000237672
0.000236572
0.000235339
0.000233921
0.000232305
0.000230524
0.000228589
0.000226472
0.00022418
0.00022172
0.000219086
0.000216265
0.000213283
0.000210264
0.000208307
0.000204202
0.00019451
0.000179395
0.000153811
0.000120891
0.000172889
0.000144004
0.000133887
0.00013168
0.000131249
0.000131816
0.000132619
0.000133117
0.000133469
0.000133655
0.000133624
0.000133441
0.000133118
0.000132668
0.000132115
0.000131461
0.000130712
0.000129877
0.00012896
0.000127972
0.000126935
0.00012577
0.000117658
0.000102973
8.59011e-05
6.80682e-05
5.21264e-05
3.92241e-05
3.70733e-05
5.34638e-05
2.71397e-05
1.11466e-06
1.15288e-07
1e-15
1e-15
1e-15
1e-15
1e-15
1e-15
0.000313883
0.000210269
0.000145912
0.000118178
0.00011262
0.000106797
0.000101385
9.7417e-05
9.44149e-05
9.20418e-05
9.02369e-05