/*--------------------------------*- C++ -*----------------------------------*\
| =========                 |                                                 |
| \\      /  F ield         | OpenFOAM: The Open Source CFD Toolbox           |
|  \\    /   O peration     | Version:  2312                                  |
|   \\  /    A nd           | Website:  www.openfoam.com                      |
|    \\/     M anipulation  |                                                 |
\*---------------------------------------------------------------------------*/
FoamFile
{
    version     2.0;
    format      ascii;
    arch        "LSB;label=32;scalar=64";
    class       volSymmTensorField;
    location    "400";
    object      turbulenceProperties:devReff;
}
// * * * * * * * * * * * * * * * * * * * * * * * * * * * * * * * * * * * * * //

dimensions      [0 2 -2 0 0 0 0];

internalField   nonuniform List<symmTensor> 
10720
(
(0.00359582 0.00801573 -1.15847e-20 -0.00384063 -1.25729e-19 0.000244815)
(0.00729097 0.013299 1.48887e-20 -0.00753943 1.76053e-19 0.000248456)
(0.01231 0.0171333 4.07208e-20 -0.0129125 1.75338e-19 0.000602474)
(0.0159864 0.0177443 3.08508e-19 -0.0166747 1.82585e-18 0.000688261)
(0.0174208 0.0152802 -7.32206e-19 -0.0180087 -2.68249e-18 0.000587856)
(0.0183512 0.0122116 -6.48722e-19 -0.0190075 -1.29156e-18 0.000656299)
(0.0197591 0.00973336 1.51171e-19 -0.0204034 8.7697e-21 0.000644233)
(0.0220645 0.00750702 6.97259e-20 -0.0227111 1.10249e-19 0.000646633)
(0.0258353 0.00512954 1.67153e-19 -0.0265782 -1.3502e-19 0.000742894)
(0.0314304 0.00216896 -2.60717e-20 -0.0322777 -2.61575e-20 0.00084734)
(0.0396298 -0.00220837 3.01787e-18 -0.040657 1.27474e-18 0.00102717)
(0.0519382 -0.00927308 -7.24456e-19 -0.0532549 -5.56355e-19 0.00131678)
(0.0714648 -0.0215409 1.61944e-18 -0.0732372 -2.43002e-18 0.00177245)
(0.104251 -0.0446038 8.97006e-19 -0.106794 1.97923e-18 0.00254275)
(0.161836 -0.0910398 1.84174e-18 -0.165804 -3.26523e-18 0.00396816)
(0.267851 -0.189987 5.21104e-19 -0.274489 1.48751e-17 0.00663819)
(0.466896 -0.408946 1.01816e-16 -0.47906 5.07613e-17 0.012164)
(0.892393 -0.95341 -3.0198e-17 -0.916949 4.97938e-17 0.0245559)
(1.56976 -2.04587 -2.27711e-17 -1.61713 -3.1972e-16 0.0473754)
(2.30058 -3.68082 2.107e-17 -2.37681 -8.87168e-19 0.0762317)
(3.09921 -6.21257 -5.01822e-16 -3.21684 -3.16803e-16 0.117625)
(4.17994 -10.8688 1.0568e-15 -4.36903 1.39378e-15 0.189089)
(5.78005 -20.7434 -6.40612e-16 -6.12735 -1.61769e-15 0.347295)
(7.68108 -41.6415 7.73337e-16 -8.36459 1.75395e-16 0.683516)
(8.80049 -78.8432 -2.76594e-16 -9.78223 -1.36036e-17 0.981737)
(7.01401 -114.535 8.8047e-17 -8.41842 -1.96557e-15 1.40441)
(4.64309 -239.82 6.96914e-16 -7.88496 -2.19349e-16 3.24187)
(-11.2111 -399.506 8.10001e-16 9.05267 1.45826e-15 2.15847)
(-22.2911 -269.312 1.60925e-14 23.811 4.45651e-16 -1.51989)
(-11.9442 -93.5393 8.77315e-15 12.6053 4.63362e-15 -0.66108)
(-4.37789 -26.803 -2.85509e-15 4.48638 -6.91524e-16 -0.10849)
(-0.54699 -2.81197 -5.04254e-16 0.552633 -2.39733e-16 -0.00564303)
(-0.116534 -0.53661 -2.54417e-17 0.116623 -9.58708e-17 -8.83682e-05)
(-0.0159945 -0.0697267 -2.01538e-17 0.0158775 -2.25436e-17 0.000117034)
(-0.000206759 -0.00095665 1.02293e-19 0.000212594 3.24209e-19 -5.83503e-06)
(1.85891e-05 -0.000169849 2.70075e-20 -1.50846e-06 2.9403e-19 -1.70807e-05)
(5.37311e-05 0.000923399 2.58435e-19 -4.07549e-05 -4.30093e-20 -1.29762e-05)
(-0.112641 -0.227869 -3.68781e-17 0.114208 2.56836e-16 -0.00156657)
(0.921786 1.52642 -2.59249e-16 -1.09151 1.65058e-15 0.169723)
(0.00197414 0.00595473 3.6646e-21 -0.00204594 -9.36027e-21 7.18e-05)
(0.0017203 0.0067875 -2.97788e-20 -0.00189169 3.30762e-20 0.00017139)
(0.00111141 0.00660624 -1.50383e-19 -0.00121041 -1.13629e-19 9.90005e-05)
(0.00123959 0.0129422 5.31743e-19 -0.00140609 -6.17869e-19 0.000166501)
(0.000235026 0.00379464 -2.97049e-19 -0.000246107 5.42783e-20 1.10804e-05)
(0.000550435 0.00550728 -2.22878e-18 -0.00041793 2.93321e-18 -0.000132505)
(0.00155747 0.00619192 2.37602e-18 -0.00117533 2.82777e-18 -0.000382143)
(0.0032027 0.00637991 1.31069e-18 -0.00286107 -5.57063e-18 -0.00034163)
(0.00492026 0.00639413 1.62851e-18 -0.00483305 -7.5762e-20 -8.72133e-05)
(0.00639328 0.00675207 -9.43325e-19 -0.00644002 -2.91554e-19 4.674e-05)
(0.00786215 0.00790524 6.87529e-19 -0.00796095 1.643e-18 9.88006e-05)
(0.00965227 0.0101341 1.28998e-18 -0.00978885 -6.35979e-19 0.000136586)
(0.0119997 0.0137959 -1.33501e-18 -0.0121944 -1.04265e-19 0.000194664)
(0.0158794 0.0203601 4.69366e-19 -0.0161615 1.95409e-19 0.000282128)
(0.0214258 0.0306275 4.18911e-18 -0.0217982 3.1165e-19 0.000372328)
(0.0336703 0.053719 4.61378e-18 -0.0342687 -1.07232e-18 0.000598399)
(0.0516741 0.0915281 2.04685e-18 -0.0525752 2.59126e-18 0.000901066)
(0.144949 0.284351 1.81791e-18 -0.147478 5.76385e-18 0.00252864)
(0.169554 0.367224 2.35496e-18 -0.172443 -1.32148e-18 0.00288825)
(0.195584 0.468877 3.46716e-18 -0.199018 2.01064e-19 0.00343336)
(0.272976 0.727548 -5.11025e-18 -0.27796 -3.08394e-17 0.00498475)
(0.32413 0.973526 -1.57242e-17 -0.33063 1.47892e-20 0.00650081)
(0.378078 1.30883 1.15412e-17 -0.386868 1.517e-17 0.0087904)
(0.446392 1.86175 4.95172e-18 -0.46013 3.43282e-20 0.013738)
(0.492509 2.61798 2.04376e-16 -0.513101 -2.75077e-17 0.0205926)
(0.479792 3.46761 4.77186e-19 -0.506371 -4.96061e-18 0.026579)
(0.286362 3.16898 -6.31136e-20 -0.309325 -2.32617e-18 0.0229629)
(0.0829876 1.84529 -2.04393e-19 -0.0955072 6.27939e-21 0.0125196)
(0.0016407 0.748145 2.24328e-19 -0.00648763 3.03798e-21 0.00484693)
(-0.00806268 0.210139 5.13634e-18 0.00673629 -3.96783e-19 0.00132639)
(-0.00255128 0.0331825 -5.03451e-20 0.00234611 -2.50667e-21 0.000205166)
(-0.000384764 0.00339386 -1.40925e-20 0.000364381 4.03476e-20 2.03836e-05)
(-0.00028672 0.00193888 -2.99073e-19 0.000275519 -4.01853e-20 1.12017e-05)
(-0.000287544 0.00159363 -4.33401e-19 0.000278798 9.81329e-20 8.74609e-06)
(-0.000297978 0.0014098 3.62031e-19 0.000290702 1.49996e-20 7.27642e-06)
(-0.000306454 0.00127111 -1.73868e-21 0.000300222 -2.51845e-20 6.23233e-06)
(-0.000324907 0.00118444 -4.33199e-21 0.000320025 2.84215e-20 4.88202e-06)
(-0.188424 0.589407 -1.3372e-18 0.179974 -3.99029e-18 0.0084494)
(-14.2529 37.2099 -1.29603e-14 14.0541 -1.64451e-15 0.198811)
(0.00918997 -0.00655367 -5.94649e-20 -0.00841738 -1.73616e-19 -0.000772597)
(0.00829374 -0.00838072 8.3597e-20 -0.00735602 2.48924e-19 -0.000937717)
(0.00758347 -0.0115369 2.29504e-20 -0.00622369 7.93479e-21 -0.00135978)
(0.00392236 -0.00914045 1.76736e-19 -0.00274403 2.1616e-20 -0.00117833)
(0.00136063 -0.00564034 1.41144e-19 -0.000555805 7.51887e-19 -0.000804828)
(0.000227971 -0.00346789 3.85816e-19 0.000340943 6.93398e-19 -0.000568914)
(-0.00020622 -0.0023478 -1.22064e-19 0.000662419 2.02679e-20 -0.000456199)
(-0.000397146 -0.00173448 -9.22272e-20 0.000801675 -2.71067e-20 -0.000404529)
(-0.000567107 -0.00155826 -6.27879e-19 0.00101038 -6.82469e-19 -0.000443274)
(-0.000523615 -0.00108909 -1.65355e-19 0.000904131 -5.97185e-20 -0.000380516)
(-0.000354482 -0.000614313 -1.05216e-18 0.000617009 -1.01095e-18 -0.000262527)
(-0.000489535 -0.000763703 -1.94496e-20 0.000884364 2.37422e-19 -0.000394829)
(-0.000484659 -0.000744733 -8.72595e-19 0.000931 1.31588e-20 -0.000446341)
(-0.000520364 -0.000890564 7.44753e-19 0.00109598 4.39948e-19 -0.000575617)
(-0.00092871 -0.00209948 -3.58265e-18 0.00229341 -1.04174e-18 -0.0013647)
(-0.00129543 -0.00528581 1.84473e-17 0.00451004 4.35881e-18 -0.00321461)
(-0.000463654 -0.0153577 -4.38863e-17 0.00851687 -3.63293e-17 -0.00805322)
(0.00683347 -0.0469348 -1.04832e-16 0.0129802 -3.62477e-17 -0.0198137)
(0.0359914 -0.137856 -2.69971e-16 0.00840717 1.09937e-16 -0.0443986)
(0.110013 -0.34596 6.15075e-17 -0.0275042 3.0049e-19 -0.0825092)
(0.249077 -0.756554 5.26355e-16 -0.117259 5.74941e-16 -0.131818)
(0.454503 -1.45129 -8.81811e-16 -0.262777 -1.46272e-15 -0.191726)
(0.766968 -2.71383 8.33958e-17 -0.460527 1.6286e-15 -0.306442)
(1.15806 -4.47332 2.67826e-17 -0.642036 -4.71087e-16 -0.516021)
(2.51631 -10.0699 -0 -1.33372 -0 -1.18259)
(1.25709 -8.81999 -2.47993e-17 0.166995 3.95727e-16 -1.42408)
(-0.577453 -12.0863 -9.59406e-16 4.42479 2.48004e-16 -3.84733)
(0.183704 -7.24253 -1.1219e-16 1.61405 -8.88653e-16 -1.79775)
(2.82798 -4.5395 -1.16297e-14 -4.35535 -5.60677e-15 1.52737)
(4.29085 -4.49407 -5.94599e-16 -7.02089 -2.20394e-14 2.73005)
(1.68099 -2.83724 9.31813e-16 -2.7069 1.38246e-14 1.02591)
(0.0952696 -1.35319 2.29605e-16 -0.257601 6.43603e-15 0.162331)
(-0.115295 -0.729755 -1.28857e-15 0.0965538 1.19004e-15 0.0187417)
(-0.0478131 -0.248685 4.29137e-16 0.0468855 6.86114e-16 0.000927545)
(-0.00137339 -0.0080555 -4.24267e-19 0.00146602 -3.72791e-18 -9.2632e-05)
(-0.000168143 -0.000696468 3.47265e-19 0.000167002 -1.93056e-19 1.14095e-06)
(-0.000298361 -0.000824551 -3.45686e-20 0.000267647 4.91153e-21 3.07133e-05)
(-0.00676025 -0.0466896 1.07722e-17 0.00402429 -3.97394e-16 0.00273597)
(0.396029 0.346871 -1.6804e-15 -0.4482 -1.11451e-15 0.0521708)
(0.00297972 -0.00138001 2.32932e-20 -0.00279427 5.76013e-20 -0.000185451)
(0.00134981 -0.000350202 -1.64355e-21 -0.00127841 -1.63646e-19 -7.13941e-05)
(0.0012981 -4.98181e-05 -1.03949e-19 -0.00124939 -1.75932e-19 -4.87149e-05)
(0.00360086 0.000780395 1.07203e-19 -0.00351806 1.1039e-18 -8.27963e-05)
(0.00304856 0.00162809 8.0867e-19 -0.0030314 -7.4334e-19 -1.71568e-05)
(0.00235653 0.00236547 -3.62982e-19 -0.0023855 -9.75463e-19 2.89721e-05)
(0.00127861 0.00234025 -2.48625e-19 -0.00133708 -1.91746e-18 5.84664e-05)
(0.000642846 0.00262245 -1.69744e-18 -0.00072043 1.2417e-19 7.75847e-05)
(-0.000104817 0.00269361 -7.74479e-19 5.13343e-05 1.80991e-18 5.34829e-05)
(-0.000834412 0.00253483 -4.92919e-19 0.000843194 2.15211e-20 -8.78144e-06)
(-0.00137558 0.00220207 -1.65096e-19 0.00146444 -1.30755e-18 -8.88613e-05)
(-0.00169606 0.00181193 8.07564e-21 0.00186245 -6.48836e-19 -0.000166383)
(-0.00182818 0.00142958 5.57698e-19 0.00206102 1.43473e-18 -0.000232843)
(-0.00184152 0.00112225 -6.94061e-19 0.00213218 -3.16672e-19 -0.000290657)
(-0.0010478 0.000531397 -2.1497e-19 0.00124765 -7.46469e-19 -0.000199841)
(-0.000416478 0.000187556 -4.72972e-19 0.000510004 -7.20207e-20 -9.35262e-05)
(-0.01269 0.00546483 -2.27839e-18 0.0159872 1.86568e-19 -0.00329722)
(-0.0297204 0.0131255 -3.50985e-19 0.0384921 -3.474e-18 -0.00877178)
(-0.0470019 0.0221836 -1.11008e-17 0.0623967 6.30205e-18 -0.0153948)
(-0.00212419 0.00109343 8.82626e-19 0.00289023 -2.83218e-19 -0.000766038)
(-0.00187842 0.00106251 -6.82377e-18 0.00262458 3.7582e-18 -0.000746156)
(-0.126484 0.0779278 -9.72608e-17 0.181875 1.79735e-17 -0.0553912)
(-0.172105 0.113199 1.59511e-17 0.256601 -9.54161e-17 -0.0844969)
(-7.05908e-05 5.04963e-05 3.1899e-19 0.000110917 -5.91966e-21 -4.03259e-05)
(-0.000258583 0.000223787 -1.15912e-18 0.000433608 1.04062e-19 -0.000175025)
(-0.000726249 0.00082302 -3.28404e-18 0.00128797 3.36443e-19 -0.000561717)
(-0.00144311 0.00217017 -2.36066e-20 0.0026445 7.48794e-20 -0.00120139)
(-0.00160092 0.00303754 7.44475e-22 0.00293453 3.89517e-20 -0.00133361)
(-0.00131988 0.00305432 -2.50352e-21 0.00234753 -3.40186e-23 -0.00102765)
(-0.00112168 0.00307205 7.26079e-20 0.00190312 3.54086e-19 -0.000781435)
(-0.000732926 0.00228172 8.0988e-21 0.00116848 -1.60725e-19 -0.000435552)
(-0.00043093 0.00146208 9.20733e-20 0.00063807 -2.61714e-19 -0.00020714)
(-0.000241313 0.000859256 3.12105e-18 0.000330266 1.42858e-19 -8.89525e-05)
(-0.000141286 0.000511882 1.2658e-18 0.000179377 -4.35246e-19 -3.80911e-05)
(-9.63296e-05 0.000345598 -6.02976e-19 0.000114261 4.44383e-20 -1.79317e-05)
(-8.60538e-05 0.000301717 4.26445e-19 9.71192e-05 5.25788e-20 -1.10653e-05)
(-8.52581e-05 0.000282847 -5.78346e-19 9.00929e-05 -8.10734e-20 -4.83484e-06)
(-0.0445578 0.127702 -2.05309e-16 0.051747 -3.09379e-17 -0.00718927)
(-1.05651 3.44637 -1.19424e-14 1.20549 -2.83503e-15 -0.148981)
(0.00170191 -0.00131138 -6.65015e-21 -0.00179766 -1.40835e-20 9.57493e-05)
(0.00161172 -0.00188747 -1.98085e-19 -0.00175178 -4.09192e-19 0.000140057)
(0.00108902 -0.00212347 1.41003e-19 -0.00125437 2.70377e-19 0.000165357)
(0.00052208 -0.00225046 1.8995e-19 -0.000727294 3.23954e-19 0.000205214)
(-5.23351e-05 -0.00228004 3.56051e-19 -0.000190945 5.06217e-19 0.00024328)
(-0.000645276 -0.00219468 -1.12394e-18 0.000355861 -1.82552e-18 0.000289415)
(-0.00122694 -0.00198653 8.262e-19 0.000877487 1.50598e-18 0.00034945)
(-0.00175192 -0.0016535 1.14484e-18 0.00134003 1.04019e-18 0.000411891)
(-0.00219206 -0.00119825 -7.18673e-20 0.00171384 1.40498e-19 0.000478221)
(-0.00250799 -0.000657523 8.54803e-19 0.00196092 1.3981e-18 0.000547073)
(-0.00267818 -7.58951e-05 -1.852e-18 0.00206857 -1.32948e-19 0.000609608)
(-0.00270624 0.000505075 2.71925e-18 0.00204053 2.90734e-18 0.000665711)
(-0.00261377 0.00104832 1.34336e-18 0.0019003 5.73071e-19 0.000713471)
(-0.0024279 0.00151569 6.63422e-19 0.00169404 -6.28664e-19 0.000733861)
(-0.0022216 0.00192467 2.0559e-18 0.00148368 1.9975e-18 0.000737926)
(-0.00221229 0.00249692 -5.88543e-18 0.00141386 -5.93958e-18 0.000798431)
(-0.00269679 0.00380215 2.05872e-18 0.00166141 3.07069e-18 0.00103538)
(-0.00531062 0.00914688 3.97974e-17 0.00317442 1.14094e-17 0.0021362)
(-0.012358 0.0258996 3.27827e-17 0.00718696 2.39581e-17 0.00517104)
(-0.0257815 0.0663956 -2.5785e-17 0.0145442 -1.61356e-18 0.0112373)
(-0.0448452 0.149655 6.55805e-17 0.0235614 -1.48189e-16 0.0212838)
(-0.058003 0.295898 2.42769e-17 0.0218714 2.10112e-16 0.0361316)
(-0.0288939 0.563911 8.82069e-16 -0.0402408 -2.25293e-16 0.0691347)
(0.229154 0.962043 -1.33063e-15 -0.395467 -5.50849e-16 0.166313)
(0.738989 0.113385 4.962e-17 -0.922023 4.12331e-17 0.183034)
(1.35126 -1.51131 -2.12827e-15 -1.53962 5.89121e-16 0.188366)
(3.1714 -5.74209 9.28888e-16 -3.43326 1.18071e-16 0.261857)
(1.94241 -5.31835 -3.28358e-16 -2.02495 1.77331e-18 0.0825435)
(0.635093 -2.87853 -4.95583e-15 -0.483798 2.85864e-15 -0.151295)
(0.292557 -1.80953 -6.23329e-15 -0.11061 2.4771e-16 -0.181947)
(0.197556 -1.16753 1.17013e-14 -0.0483348 -3.21224e-15 -0.149221)
(0.155949 -0.376953 6.60384e-15 -0.0470911 2.51186e-15 -0.108858)
(0.0501024 0.0535691 2.35794e-16 -0.0283201 1.40785e-15 -0.0217823)
(0.00907143 0.0254869 4.14128e-16 -0.00876793 -2.2337e-16 -0.000303497)
(-0.000310265 -0.00782799 2.58849e-17 0.000472722 -8.8625e-18 -0.000162458)
(-0.00121849 -0.00484346 -5.25049e-18 0.00120367 -3.08654e-18 1.48138e-05)
(-0.000153499 -0.000454755 -9.34611e-21 0.000140481 -4.59239e-20 1.30182e-05)
(-0.00199728 -0.0193309 4.24581e-17 0.00323519 2.64024e-17 -0.00123792)
(0.65867 -0.242402 4.55022e-15 -0.620829 -2.36074e-15 -0.0378411)
(0.00264182 -0.00126684 -5.48328e-20 -0.00275607 -1.13373e-19 0.000114256)
(0.00277355 -0.00071359 -3.69437e-20 -0.00285735 2.54851e-20 8.3795e-05)
(0.00394942 -0.000118312 6.48481e-19 -0.00403511 7.82895e-19 8.56865e-05)
(0.00395209 0.000812556 -4.38031e-19 -0.0040012 -4.96012e-20 4.91048e-05)
(0.00287924 0.00139559 5.85652e-20 -0.00289502 2.28481e-19 1.5775e-05)
(0.00200477 0.00172267 1.62023e-20 -0.00200244 1.03645e-18 -2.33262e-06)
(0.00139451 0.0020603 2.10205e-20 -0.00139849 6.37836e-19 3.97839e-06)
(0.000782822 0.00232512 2.54768e-18 -0.000792336 1.34927e-18 9.51348e-06)
(0.000142689 0.00247461 5.76593e-19 -0.000148821 -4.91945e-19 6.13202e-06)
(-0.000497648 0.00249292 1.50254e-18 0.000486246 1.69796e-19 1.14021e-05)
(-0.00109896 0.00240049 -1.8919e-18 0.00106711 -7.57848e-19 3.18487e-05)
(-0.00165233 0.00222193 -1.46719e-18 0.00158353 2.12589e-18 6.88038e-05)
(-0.00215459 0.00195774 2.72838e-18 0.00202762 -1.27178e-18 0.000126974)
(-0.00260095 0.00162527 1.95167e-18 0.0023871 -1.08956e-20 0.000213854)
(-0.00299391 0.00124735 -2.70963e-18 0.00266573 2.03268e-18 0.000328182)
(-0.0032885 0.0008131 -2.03113e-18 0.00281773 4.1435e-18 0.000470773)
(-0.00352251 0.00035616 7.34853e-18 0.00288095 -3.73764e-18 0.000641557)
(-0.00260878 -8.47149e-05 5.30593e-18 0.00202035 -1.00728e-18 0.000588427)
(-0.000940608 -0.00014806 8.40525e-19 0.000689642 -9.8711e-20 0.000250967)
(-0.0035974 -0.00103631 -1.2934e-18 0.00246897 3.84679e-18 0.00112844)
(-0.00306709 -0.00134201 1.88674e-17 0.00194254 7.64022e-19 0.00112455)
(-0.000158376 -9.888e-05 3.2202e-20 9.043e-05 -1.47588e-19 6.79463e-05)
(-0.000141393 -0.00012547 -3.13215e-21 6.84067e-05 -9.26279e-21 7.29865e-05)
(-0.000293683 -0.000403581 -5.02415e-20 7.85441e-05 -2.35717e-19 0.000215139)
(-0.00059026 -0.00152833 -3.75482e-20 -0.000253423 4.32057e-19 0.000843683)
(-0.000437141 -0.0042322 5.58553e-17 -0.00216326 -3.35578e-18 0.0026004)
(6.67561e-05 -0.000469645 -6.82288e-20 -0.000393277 4.55256e-21 0.000326521)
(0.00204651 -0.00550532 -9.43537e-18 -0.00636388 9.30661e-21 0.00431737)
(0.00214921 -0.00406236 -9.40974e-20 -0.00528044 9.38342e-21 0.00313123)
(0.00012104 -0.000211219 -5.2639e-19 -0.000259088 -1.75055e-20 0.000138049)
(0.000157264 -0.00028929 1.07854e-18 -0.000304153 1.14315e-19 0.000146889)
(0.000653129 -0.00132451 -1.81369e-19 -0.00115868 -3.54416e-21 0.000505552)
(2.99402e-05 -6.71244e-05 -5.49986e-19 -4.90276e-05 7.61958e-20 1.90874e-05)
(0.000101089 -0.000244793 -3.58393e-21 -0.000153315 2.09239e-19 5.22264e-05)
(0.000159363 -0.00041194 4.57077e-20 -0.000226128 -4.19773e-19 6.67648e-05)
(0.000242596 -0.000620669 -2.30548e-19 -0.000322341 7.34618e-19 7.97443e-05)
(1.31701e-05 -3.64796e-05 2.90449e-20 -1.57405e-05 -8.5561e-20 2.57033e-06)
(0.0273468 -0.0348429 5.9898e-16 -0.0331195 1.1136e-16 0.00577274)
(0.284395 2.24212 6.79228e-14 -0.374393 1.42895e-14 0.0899982)
(0.00409141 -0.00299205 -9.44363e-20 -0.00400493 -1.44014e-19 -8.64803e-05)
(0.00351202 -0.00363647 -1.79085e-19 -0.00341441 -3.00877e-19 -9.76084e-05)
(0.00273069 -0.00420975 3.6814e-19 -0.00260056 4.80303e-19 -0.000130125)
(0.00186785 -0.00466511 4.19654e-19 -0.00170501 5.04843e-19 -0.00016284)
(0.000940902 -0.00491331 5.49954e-20 -0.000739751 -1.09098e-20 -0.000201151)
(-3.02564e-05 -0.00497707 -1.31323e-19 0.000280326 3.76303e-19 -0.00025007)
(-0.000972391 -0.00484996 3.94788e-18 0.00127827 3.91917e-18 -0.00030588)
(-0.00183012 -0.00454772 -3.88588e-18 0.00219981 -4.90004e-18 -0.00036969)
(-0.00258309 -0.00410144 9.79785e-19 0.00303048 2.55844e-19 -0.000447394)
(-0.00320154 -0.00356104 5.68006e-18 0.00373451 4.17831e-18 -0.000532969)
(-0.00368366 -0.00296067 4.92482e-18 0.00431626 4.85077e-18 -0.000632597)
(-0.00403445 -0.00233018 5.74714e-18 0.00478048 1.7552e-18 -0.000746031)
(-0.00426099 -0.00169897 -6.9817e-18 0.00513616 -5.21509e-18 -0.000875172)
(-0.00437872 -0.00108212 -4.9965e-18 0.00539432 -4.77952e-18 -0.0010156)
(-0.00441814 -0.000494887 5.56829e-19 0.00558848 -1.78484e-18 -0.00117034)
(-0.00439503 6.29188e-05 -1.53219e-17 0.00574275 9.91675e-19 -0.00134773)
(-0.0042758 0.000688238 -5.05472e-18 0.00578444 -6.25697e-18 -0.00150863)
(-0.00395891 0.00137609 -3.31313e-17 0.0055781 -2.54981e-17 -0.00161919)
(-0.00234782 0.00145834 2.74812e-18 0.00345495 -3.73989e-18 -0.00110713)
(-0.000847235 0.000890247 5.85876e-19 0.00130624 -1.39092e-18 -0.000459005)
(-2.40625e-05 4.33487e-05 -2.48533e-19 3.89949e-05 2.40542e-21 -1.49324e-05)
(-1.5841e-05 5.20009e-05 4.04077e-20 2.78361e-05 7.86433e-21 -1.19952e-05)
(-7.57509e-06 5.80999e-05 -1.99355e-19 1.66721e-05 -3.87102e-20 -9.09696e-06)
(2.28728e-07 5.92076e-05 -6.67759e-20 6.10376e-06 7.32595e-20 -6.33249e-06)
(0.0578575 0.37714 1.19474e-16 -0.0363491 7.81413e-18 -0.0215084)
(1.52462e-05 3.19201e-05 5.93156e-20 -1.52949e-05 2.51167e-20 4.87245e-08)
(2.42233e-05 -3.29465e-06 -4.87333e-21 -2.77842e-05 3.73122e-21 3.5609e-06)
(2.37689e-05 -2.85961e-05 6.20171e-21 -2.68698e-05 4.51592e-22 3.10087e-06)
(1.79512e-05 -4.28748e-05 8.58502e-20 -1.87534e-05 -1.53613e-20 8.02183e-07)
(1.33432e-05 -5.19434e-05 -8.52619e-21 -1.35502e-05 3.9927e-20 2.07043e-07)
(9.55778e-06 -5.40281e-05 -1.32558e-19 -9.98998e-06 -7.10795e-20 4.32203e-07)
(5.16273e-05 -0.000361149 1.77306e-18 -5.63645e-05 -1.50155e-18 4.7372e-06)
(0.00762191 -0.0711692 2.9445e-16 -0.00854703 -2.64126e-17 0.000925115)
(0.00723844 -0.0155999 -1.04529e-16 -0.0089411 -6.12712e-16 0.00170266)
(0.00730808 0.0089085 -2.06492e-16 -0.00706186 -3.41485e-17 -0.000246222)
(-0.00295418 -0.0124515 3.5048e-18 0.00292626 1.84061e-17 2.79208e-05)
(-0.00155719 -0.00588754 -1.68884e-17 0.00135524 2.51431e-18 0.000201954)
(0.007396 -0.0124296 -4.53452e-17 -0.005973 3.68842e-17 -0.001423)
(1.20232 -0.816549 -3.42432e-15 -0.982182 2.58685e-15 -0.22014)
(0.00532172 -0.00258725 -5.17654e-20 -0.00526079 6.46083e-21 -6.09228e-05)
(0.0051165 -0.00146152 1.6011e-19 -0.00507077 8.69505e-19 -4.5726e-05)
(0.00468961 -0.000333887 4.98112e-19 -0.00468 9.04855e-19 -9.61517e-06)
(0.00436356 0.000676566 6.71508e-19 -0.00436447 -3.48163e-19 9.07587e-07)
(0.0040467 0.0016898 -1.36254e-18 -0.00405221 -9.36827e-19 5.51577e-06)
(0.00226197 0.00171039 -1.75752e-19 -0.0022592 -9.83661e-19 -2.76677e-06)
(0.00137641 0.00175049 -1.19309e-18 -0.001376 -8.83333e-19 -4.0389e-07)
(0.000854138 0.00198181 -1.49759e-18 -0.000859163 5.51892e-20 5.02585e-06)
(0.000317311 0.0020969 -2.96268e-19 -0.000325269 -2.91179e-19 7.9586e-06)
(-0.00020029 0.00204299 6.61183e-19 0.000191802 -4.31677e-19 8.4882e-06)
(-0.000636613 0.00186426 5.46172e-19 0.000631888 1.25216e-18 4.72484e-06)
(-0.000997719 0.00166622 1.53456e-18 0.00100239 -6.14013e-19 -4.66673e-06)
(-0.00116791 0.00130869 -1.34722e-18 0.00118542 -1.08355e-18 -1.75098e-05)
(-0.00120157 0.000961797 -9.83685e-20 0.00123269 4.27872e-19 -3.11174e-05)
(-0.00123785 0.000728861 1.48169e-18 0.00128655 -3.698e-19 -4.86936e-05)
(-0.00117629 0.000513057 2.92876e-18 0.00124027 -3.08803e-19 -6.3982e-05)
(-0.000254705 8.17727e-05 -4.83111e-19 0.000272842 -6.7372e-20 -1.81372e-05)
(-0.000620619 0.000143131 -2.94062e-19 0.000675833 -4.19289e-19 -5.52135e-05)
(-0.000940541 0.000145389 -2.20859e-19 0.00104098 1.29277e-19 -0.000100443)
(-0.0011818 9.89093e-05 4.48215e-18 0.00132755 -1.51032e-18 -0.000145757)
(-0.00133532 1.54597e-05 8.17596e-19 0.00152224 -1.04201e-18 -0.000186915)
(-0.00134936 -9.7334e-05 -5.99699e-18 0.00155963 1.47975e-18 -0.000210272)
(-0.00130976 -0.000236704 -1.94664e-19 0.00153595 6.42018e-19 -0.000226188)
(-0.0011239 -0.000360541 -6.99016e-20 0.00134429 -3.66301e-19 -0.000220386)
(-0.000976346 -0.000456502 3.72111e-20 0.00121177 -3.20129e-21 -0.000235425)
(-0.000786592 -0.000466523 -4.88515e-18 0.00103456 -1.20389e-19 -0.00024797)
(-0.000665002 -0.000462112 -2.11427e-20 0.000938235 2.97256e-21 -0.000273233)
(-0.000544327 -0.000424648 1.04113e-18 0.000827941 -4.47373e-20 -0.000283614)
(-0.000443724 -0.000377132 -4.62438e-20 0.000730488 -6.18839e-22 -0.000286764)
(-0.000366738 -0.000332334 1.95216e-22 0.000655391 -1.93263e-19 -0.000288654)
(-0.000293353 -0.000287548 -2.85619e-18 0.000569976 1.44305e-19 -0.000276623)
(-0.000224843 -0.000256379 -5.35937e-20 0.00047811 -3.21999e-21 -0.000253267)
(-0.000161511 -0.000254759 9.12812e-20 0.000386321 -2.54375e-19 -0.000224809)
(-9.96815e-05 -0.000303075 7.36594e-18 0.000299354 1.27565e-18 -0.000199672)
(-2.79054e-05 -0.00037944 -2.38361e-20 0.000189821 -3.45941e-21 -0.000161915)
(0.000113883 -0.000923716 -1.76133e-17 0.000110562 -1.12105e-18 -0.000224445)
(1.06709e-05 -4.3357e-05 2.20601e-18 -5.03079e-06 3.0791e-19 -5.64006e-06)
(0.0132951 -0.0295595 6.99925e-19 -0.0108285 -1.06398e-17 -0.00246653)
(1.94161 1.04276 1.17899e-15 -1.71605 -6.55709e-15 -0.22556)
(0.00636486 -0.00475217 -2.06024e-19 -0.00641837 -2.51134e-19 5.35062e-05)
(0.0053434 -0.00570513 -4.07072e-19 -0.00542647 -5.55428e-19 8.30709e-05)
(0.0041318 -0.00664869 1.39639e-18 -0.00422697 1.75855e-18 9.51676e-05)
(0.00271928 -0.00737986 -5.9519e-18 -0.0028466 -7.39724e-18 0.000127327)
(0.00115951 -0.00781131 1.51127e-18 -0.00132552 1.8961e-18 0.000166012)
(-0.00052983 -0.00795879 3.37582e-18 0.000323328 3.41484e-18 0.000206501)
(-0.00225526 -0.00774714 -3.11582e-18 0.00199126 -4.55049e-18 0.000264002)
(-0.00392699 -0.00717594 -1.75096e-18 0.00359295 2.26361e-19 0.000334043)
(-0.00547997 -0.00625435 -1.36213e-17 0.00506469 -1.23899e-17 0.000415272)
(-0.00682952 -0.00501838 -2.4052e-18 0.00631055 -5.32283e-18 0.000518976)
(-0.00791052 -0.00351168 3.94037e-19 0.00727081 -1.30825e-18 0.000639708)
(-0.0086664 -0.00179507 -8.81756e-18 0.00788618 -1.05564e-17 0.000780221)
(-0.00905362 5.53467e-05 4.58435e-18 0.00811041 5.21942e-18 0.000943205)
(-0.00905005 0.00195158 -2.00417e-17 0.00792545 -1.01728e-17 0.0011246)
(-0.00865969 0.0037963 4.48695e-18 0.00734515 2.49744e-18 0.00131454)
(-0.00791368 0.00551383 2.24687e-17 0.00640649 1.82105e-17 0.0015072)
(-0.00690613 0.00699813 -3.26996e-17 0.00524993 -9.09102e-18 0.0016562)
(-0.00578469 0.00821717 -6.54537e-18 0.00404896 2.91654e-17 0.00173573)
(-0.0045643 0.0092314 -2.43782e-18 0.00279897 -4.05621e-18 0.00176533)
(-0.0030058 0.00938826 -2.95667e-17 0.00136358 -4.34063e-18 0.00164222)
(-0.000404227 0.00250562 8.65018e-18 2.97354e-06 5.25009e-18 0.000401254)
(-1.07465e-05 0.00130844 1.54687e-19 -0.000181 -2.42576e-19 0.000191746)
(7.91179e-06 5.4927e-05 1.71249e-19 -1.52442e-05 4.70688e-20 7.33241e-06)
(1.31069e-05 4.88498e-05 1.22794e-19 -1.87661e-05 3.96373e-20 5.65927e-06)
(1.41151e-05 4.32673e-05 -1.24084e-20 -1.73574e-05 -1.07308e-21 3.24226e-06)
(1.3291e-05 4.01052e-05 1.20542e-21 -1.48596e-05 -3.25164e-21 1.56859e-06)
(1.24239e-05 3.19936e-05 1.33442e-20 -1.27793e-05 -3.44268e-21 3.55449e-07)
(1.24726e-05 1.73452e-05 -6.04978e-21 -1.22525e-05 -8.82334e-21 -2.20079e-07)
(1.26714e-05 1.88702e-06 -8.5515e-20 -1.24965e-05 -1.41456e-21 -1.74864e-07)
(1.19522e-05 -1.38578e-05 7.9914e-21 -1.21066e-05 4.57373e-22 1.54405e-07)
(9.91835e-06 -2.87638e-05 -1.48645e-20 -1.03503e-05 4.74779e-21 4.31945e-07)
(7.36453e-06 -4.0192e-05 -2.45032e-19 -7.93648e-06 -1.74313e-19 5.71953e-07)
(4.76011e-06 -5.01208e-05 -2.29263e-20 -5.17821e-06 -8.28297e-20 4.181e-07)
(1.60825e-07 -5.07689e-05 -6.88724e-19 -6.27774e-07 5.64868e-20 4.66949e-07)
(0.00345271 -0.00608127 2.44055e-17 -0.00313394 7.0969e-17 -0.000318774)
(-0.000276287 -0.009309 4.13957e-20 -0.000139491 -7.92426e-21 0.000415778)
(0.000593237 -0.00970045 -1.07454e-19 -0.00176587 1.85107e-17 0.00117264)
(0.0139912 -0.00397112 -4.12105e-18 -0.0127755 -1.81991e-17 -0.00121576)
(0.970974 -0.967593 2.25871e-15 -0.744381 -1.16274e-15 -0.226593)
(0.00696469 -0.00347109 4.01353e-19 -0.00702168 1.20563e-19 5.69891e-05)
(0.0072512 -0.00215767 -1.13665e-18 -0.00727837 -1.52851e-18 2.71757e-05)
(0.00494593 -0.000442128 -5.68173e-19 -0.00496688 8.44535e-19 2.09439e-05)
(0.00256716 0.00032574 1.13067e-18 -0.00257173 4.50301e-19 4.57276e-06)
(0.00358628 0.00133643 -4.83008e-19 -0.00358684 -2.85998e-18 5.57229e-07)
(0.00411835 0.0028005 -1.56511e-18 -0.00410869 1.74191e-18 -9.66099e-06)
(0.00335872 0.00378211 4.00408e-18 -0.00335309 2.97607e-18 -5.62616e-06)
(0.00205579 0.00399073 -1.47262e-18 -0.00205635 -2.89556e-18 5.61091e-07)
(0.000882857 0.00379571 -2.74919e-18 -0.000885197 -1.00721e-18 2.33991e-06)
(-3.17607e-05 0.00330247 -1.94666e-18 2.87732e-05 8.02193e-19 2.98747e-06)
(-0.000634161 0.00267334 2.22832e-18 0.000630811 -1.03022e-19 3.34991e-06)
(-0.00108166 0.00230732 -1.54704e-18 0.00107676 -8.81216e-19 4.89197e-06)
(-0.00103072 0.00142506 -1.28412e-18 0.00102419 9.16345e-19 6.53045e-06)
(-0.000715898 0.000699144 8.10263e-19 0.000708868 2.61626e-19 7.03013e-06)
(-0.000671556 0.000479338 -1.26491e-18 0.000661725 2.58879e-19 9.83088e-06)
(-0.000650929 0.000340175 -2.05349e-19 0.000636954 -7.41801e-19 1.39749e-05)
(-0.000676392 0.000251845 3.32893e-19 0.00065573 4.23784e-19 2.06618e-05)
(-0.000675835 0.000166152 -1.76355e-18 0.000647477 1.46645e-19 2.83577e-05)
(-0.000628144 8.30837e-05 7.20044e-19 0.000593531 -4.04415e-20 3.46127e-05)
(-0.000560041 1.23192e-05 -2.86022e-18 0.000520882 2.87795e-19 3.91593e-05)
(-0.000483801 -4.52396e-05 -2.79059e-19 0.000442301 7.82609e-20 4.15001e-05)
(-0.000408747 -9.21819e-05 2.14354e-18 0.000366694 4.64177e-20 4.20525e-05)
(-0.000338791 -0.000132042 1.90563e-18 0.00029754 -3.71007e-19 4.12515e-05)
(-0.000268621 -0.000164251 -1.592e-18 0.000227683 1.28597e-19 4.09378e-05)
(-0.000197206 -0.000180853 -1.86632e-20 0.000155644 7.15276e-21 4.1562e-05)
(-0.000133037 -0.000180185 -1.42289e-18 9.11209e-05 2.15849e-19 4.19161e-05)
(-7.9783e-05 -0.000170685 -1.12284e-20 3.56133e-05 4.42335e-22 4.41696e-05)
(-3.61542e-05 -0.000157225 1.25738e-22 -1.14478e-05 6.58015e-21 4.7602e-05)
(-2.94345e-07 -0.00014182 3.54964e-21 -5.09762e-05 -4.54086e-22 5.12705e-05)
(2.86806e-05 -0.000123833 4.86326e-19 -8.27504e-05 3.10923e-20 5.40698e-05)
(4.96322e-05 -0.000106523 -2.05598e-22 -0.000104853 -6.72862e-20 5.52212e-05)
(6.84915e-05 -9.64339e-05 -2.91583e-20 -0.000127305 -4.32278e-21 5.88138e-05)
(8.42072e-05 -8.54842e-05 -3.39605e-18 -0.000145624 -4.83296e-19 6.14166e-05)
(9.95584e-05 -7.60544e-05 -3.39478e-18 -0.000163492 -2.3647e-19 6.39337e-05)
(8.48317e-05 -5.02539e-05 -5.79742e-22 -0.000133631 3.39504e-21 4.87995e-05)
(0.000236557 -0.000129755 -1.23192e-17 -0.000347114 -2.97758e-18 0.000110557)
(1.03449e-05 -5.48628e-06 -1.59867e-20 -1.4328e-05 1.11921e-19 3.98307e-06)
(0.016886 -0.00834582 9.42446e-19 -0.0208216 1.92993e-19 0.00393562)
(1.32417 0.804457 -7.72095e-14 -1.32609 -1.12324e-14 0.00192431)
(0.00910332 -0.00682207 8.04635e-19 -0.00906898 7.90299e-19 -3.43401e-05)
(0.00787437 -0.00827164 -5.81734e-19 -0.00784598 -5.4405e-19 -2.83963e-05)
(0.00630831 -0.00973363 -2.35451e-20 -0.00625733 -6.92426e-20 -5.09798e-05)
(0.00440613 -0.0108847 -1.45361e-19 -0.00434177 6.11882e-20 -6.43593e-05)
(0.00229748 -0.0116705 7.64235e-18 -0.00221808 7.69689e-18 -7.94037e-05)
(-2.1578e-05 -0.0113405 -4.77011e-18 0.000126885 -5.48563e-18 -0.000105307)
(-0.00213348 -0.010621 -2.665e-19 0.00226238 1.05795e-18 -0.000128901)
(-0.00397355 -0.00960702 1.55246e-17 0.00413221 1.42023e-17 -0.000158658)
(-0.00550483 -0.00831732 -3.10595e-18 0.00570398 3.4084e-19 -0.000199147)
(-0.00670449 -0.00687386 -1.74721e-17 0.00694846 -1.14893e-17 -0.000243973)
(-0.00758919 -0.00535143 5.51717e-18 0.00788883 4.4584e-18 -0.000299645)
(-0.00817504 -0.00379689 -1.49759e-17 0.0085421 -4.88868e-18 -0.000367066)