/*--------------------------------*- C++ -*----------------------------------*\
| =========                 |                                                 |
| \\      /  F ield         | OpenFOAM: The Open Source CFD Toolbox           |
|  \\    /   O peration     | Version:  2312                                  |
|   \\  /    A nd           | Website:  www.openfoam.com                      |
|    \\/     M anipulation  |                                                 |
\*---------------------------------------------------------------------------*/
FoamFile
{
    version     2.0;
    format      ascii;
    arch        "LSB;label=32;scalar=64";
    class       volScalarField;
    location    "400";
    object      turbulenceProperties:L;
}
// * * * * * * * * * * * * * * * * * * * * * * * * * * * * * * * * * * * * * //

dimensions      [0 1 0 0 0 0 0];

internalField   nonuniform List<scalar> 
10720
(
0.00585192
0.0046574
0.00429713
0.00445452
0.00510047
0.00596261
0.00690514
0.00790302
0.00885974
0.00977379
0.0107382
0.0118784
0.0133951
0.0155586
0.0183435
0.0210406
0.022314
0.0210984
0.0162814
0.0153598
0.0184934
0.0258103
0.0385821
0.0583045
0.0821515
0.1031
0.277391
0.271205
0.0908699
0.0499713
0.0267835
0.00825418
0.00366132
0.00149086
8.53192e-11
1.09613e-10
0.000589642
0.0102949
0.0694666
0.0099293
0.0206733
0.0270447
0.00463619
0.0117124
0.0117263
0.010057
0.00895297
0.00857529
0.0085821
0.00874993
0.00914092
0.00981613
0.0109107
0.011277
0.010994
0.00817309
0.00649544
0.00595121
0.00626446
0.00761124
0.00930589
0.0110552
0.0126299
0.0137046
0.0139395
0.0120377
0.00857856
0.00520306
0.00268723
0.00105271
0.000269692
0.000147769
0.000101938
6.74851e-05
1.18205e-05
1.67191e-06
0.00742861
0.0720251
0.00639264
0.00611197
0.00737317
0.00925367
0.0120575
0.0156249
0.0193108
0.022895
0.0292513
0.0284186
0.01981
0.0329728
0.0374353
0.0458138
0.0770084
0.125503
0.208813
0.375838
0.435567
0.188521
0.103357
0.0850893
0.0831535
0.0791821
0.103023
0.0970842
0.145041
0.111854
0.105426
0.186732
0.166434
0.0690699
0.0348639
0.0130982
0.0015122
2.46752e-10
3.27081e-10
0.0109767
0.0770251
0.011381
0.0845727
0.0985976
0.020256
0.0463135
0.0550061
0.0505818
0.0531093
0.0546433
0.0556866
0.0569463
0.0585968
0.0607687
0.0642156
0.053153
0.0383971
0.329193
1.059
147.866
0.00531565
0.00519171
1.26657
0.322072
0.000437277
0.0011822
0.00226397
0.00376876
0.00430762
0.00383372
0.00358317
0.00266404
0.00184452
0.00120948
0.000769665
0.000471711
0.000292839
4.11623e-05
0.0113251
0.0876942
0.0174525
0.0120034
0.0118052
0.0104378
0.010628
0.0111711
0.0117985
0.0124383
0.0131319
0.0144648
0.0148749
0.0150929
0.0159241
0.0151719
0.017885
0.0303457
0.0444205
0.0709992
0.112221
0.193739
1.0256
0.17829
0.183817
0.181372
0.165152
0.180992
0.172145
0.105926
0.0699519
0.0667087
0.0809154
0.0782665
0.0349587
0.0120303
0.00307715
0.00122782
3.07128e-10
0.00569902
0.126656
0.0127815
0.0449681
0.0511213
0.0440875
0.0352732
0.0241731
0.0203699
0.0214186
0.0228047
0.0240255
0.0252215
0.0264357
0.0271556
0.0276266
0.0281732
0.0275537
0.0270371
0.0229554
0.0146632
0.0310109
0.0304694
0.00696832
0.00712836
0.0121952
0.0246628
0.0428007
0.0143814
0.0496554
0.0401883
0.00832984
0.00871611
0.0151923
0.00227171
0.00449555
0.00551939
0.00682705
0.00105871
0.196027
0.485209
0.0341859
0.0343358
0.0354264
0.0362759
0.0371904
0.0379759
0.0386112
0.0391382
0.0395433
0.0398271
0.0399664
0.0399798
0.0399144
0.0396467
0.0395347
0.0397141
0.0385971
0.032789
0.0199406
0.0134517
3.74288e-09
4.07571e-09
5.09242e-09
4.90837e-09
22.0576
8.50414e-09
4.49745e-10
1.40551e-09
4.72388e-09
2.80378e-08
7.73143e-07
0.000186835
0.0198579
0.0216551
0.0124242
0.00580754
0.00362875
0.00854156
0.209993
0.0460422
0.0495565
0.0376792
0.0194986
0.0151013
0.0108567
0.00987756
0.0101346
0.0105768
0.0110571
0.0115861
0.0123576
0.0126073
0.0126799
0.0131601
0.013317
0.00600696
0.0104675
0.0136588
0.0160389
0.0177774
0.0186148
0.0192111
0.01895
0.0191677
0.0187309
0.0186407
0.0181789
0.0176931
0.0173873
0.0169584
0.0163647
0.015736
0.015341
0.0145764
0.0182292
0.00260356
0.136642
4.58747
0.0506677
0.0476723
0.0469022
0.0463989
0.0460233
0.0455049
0.0451224
0.0448024
0.0445056
0.0442375
0.0439986
0.0437851
0.0435872
0.0434058
0.0432037
0.0429565
0.0426129
0.0424431
0.0419005
0.031099
0.0161427
0.0119692
3.7083e-09
4.01454e-09
4.98891e-09
7.98582e-09
2.24015e-14
1.06066e-13
3.94259e-13
2.18007e-12
2.45399e-11
1.13747e-09
1.12671e-07
5.29064e-10
0.0187209
0.0191876
0.0105376
0.0100023
0.185329
0.0421667
0.0234885
0.0154392
0.0111474
0.0139609
0.0163923
0.0169927
0.016518
0.0159953
0.0154169
0.0148213
0.0151613
0.0133655
0.0106648
0.0103772
0.0105309
0.0112512
0.0118572
0.0120545
0.0120125
0.011792
0.0114766
0.0111627
0.0108963
0.0106756
0.0104708
0.0103095
0.0101944
0.0101409
0.0100541
0.0100262
0.0104216
0.0109028
0.0116024
0.0106549
0.0179639
0.00255765
0.114975
12.9302
0.0307119
0.0310829
0.0291276
0.0279455
0.0268789
0.0261325
0.0257728
0.0255718
0.0254621
0.0254838
0.0256579
0.0259715
0.0263977
0.0269702
0.0275876
0.0281185
0.029001
0.0304027
0.0318317
0.0328653
0.0328972
0.0269517
0.0120089
0.00906125
3.73887e-09
5.35581e-14
2.65879e-19
2.736e-19
4.61442e-19
1.11315e-18
3.44931e-18
1.38735e-17
1.1498e-12
1.23997e-11
7.54864e-12
2.44493e-10
9.04147e-09
1.79325e-07
9.72086e-06
0.0181488
0.01035
0.015283
0.0253505
0.0356768
0.0386218
0.0386369
0.0383978
0.0380932
0.0377343
0.0373293
0.0368843
0.0365591
0.0360784
0.0355397
0.034964
0.0343238
0.0335771
0.0327626
0.0320641
0.0314394
0.0308531
0.0302875
0.0297492
0.0292043
0.0286508
0.0281586
0.027719
0.0273565
0.0271048
0.0268804
0.0265243
0.0260248
0.0254754
0.0244308
0.0245938
0.00347677
0.0862708
1.13305
0.0102912
0.010695
0.0106639
0.010476
0.0107109
0.0108918
0.011053
0.0112743
0.0114888
0.0116952
0.0119476
0.0122279
0.012531
0.0130675
0.0133383
0.0133803
0.0138219
0.0146176
0.00798845
0.0143294
0.0190488
0.0221707
0.023351
0.0200696
0.0115237
2.67938e-09
6.02242e-19
3.65585e-19
4.19779e-19
7.38886e-19
1.73485e-18
4.87449e-18
1.36692e-17
3.45338e-17
3.15566e-13
4.03766e-12
4.46244e-11
1.93933e-15
2.37685e-08
0.0123879
0.0204889
0.0354614
0.0397936
0.0395748
0.0388016
0.0389487
0.0389729
0.0389928
0.0390054
0.0390041
0.0389915
0.0389707
0.0388947
0.0387898
0.0386682
0.0383038
0.0376923
0.0370645
0.0365131
0.0360035
0.035507
0.0350076
0.0344877
0.0339155
0.0333402
0.0328454
0.0323995
0.0320317
0.0317739
0.0316388
0.0314297
0.0312668
0.0314328
0.0306902
0.0303238
0.00959748
0.0681675
0.589869
0.0163289
0.0054629
0.00876079
0.0108658
0.0137933
0.0152085
0.0162775
0.0170921
0.0176742
0.0180666
0.0183231
0.0184694
0.0185198
0.0193565
0.0188552
0.0173345
0.0170899
0.0167421
0.0158416
0.0154714
0.0165554
0.0185464
0.0207688
0.0215551
0.0239074
1.26151e-08
2.31161e-14
5.64122e-19
4.68381e-19
6.23273e-19
1.15207e-18
2.54639e-18
5.52502e-18
1.00853e-17
1.56768e-17
3.25227e-17
8.79687e-17
1.99963e-16
3.02431e-15
0.0293549
0.0393763
0.0378913
0.0305388
0.0211309
0.0194114
0.0197443
0.020273
0.0209238
0.0216825
0.0225029
0.0233596
0.0242581
0.0251471
0.026032
0.0267424
0.0269953
0.0268387
0.0266336
0.026423
0.0261733
0.0258863
0.0255636
0.0251854
0.0247788
0.0244008
0.024074
0.0237935
0.0235831
0.0234426
0.0234249
0.0236817
0.0242184
0.0248021
0.0251293
0.0272421
0.0187913
0.0434232
0.32866
0.0349808
0.0345609
0.0353322
0.0359254
0.0365752
0.0371243
0.0374984
0.0377281
0.0378396
0.037848
0.0377797
0.0376475
0.037452
0.0371749
0.0368422
0.0363988
0.035864
0.0352113
0.0347806
0.032815
0.0299965
0.0282801
0.0271926
0.0255096
0.0288008
5.02087e-08
9.98623e-14
9.58266e-19
5.97542e-19
6.17483e-19
9.17229e-19
1.66662e-18
3.05445e-18
4.96878e-18
7.17002e-18
1.21769e-17
2.6272e-17
5.27711e-17
1.47561e-16
0.0402596
0.0336755
0.019735
0.0131917
0.00792924
0.00740999
0.0076059
0.00782066
0.00808899
0.00841717
0.00875225
0.0091165
0.00953275
0.00996451
0.0104228
0.0108405
0.0111029
0.0016223
0.00286328
0.00317135
0.00306618
0.00267882
0.00203023
0.00116393
0.0114377
0.0113826
0.0113436
0.0113186
0.0113185
0.000821542
0.00146995
0.003492
0.00608277
0.00878159
0.0114682
0.0141474
0.018264
0.0171822
0.121994
0.038124
0.0364713
0.0361583
0.0362035
0.0361863
0.036141
0.0360988
0.0360514
0.0360219
0.0360168
0.0360311
0.0360583
0.0360901
0.036105
0.0360892
0.0360417
0.0359429
0.0358288
0.035689
0.03556
0.0350568
0.0336922
0.0322509
0.0300098
0.0316363
1.82271e-07
3.87754e-13
1.74584e-18
8.42844e-19
6.92039e-19
8.38569e-19
1.27862e-18
2.04544e-18
3.05633e-18
4.19888e-18
6.33069e-18
1.18767e-17
2.15375e-17
4.32841e-17
0.027945
0.00901596
0.00831858
0.00762137
0.00888273
0.00921397
0.00933638
0.00929648
0.00921154
0.00911772
0.00897244
0.00882519
0.00869842
0.00857194
0.00846053
0.0083656
0.00828616
0.00827478
0.00832611
0.00835738
0.0083704
0.00836591
0.00833594
0.00829162
0.00825713
0.00823974
0.0082298
0.00822604
0.00823349
0.00825921
0.00830357
0.00842907
0.00862573
0.00894656
0.00939693
0.00999892
0.00835777
0.00127978
0.0612724
0.0203245
0.0212925
0.0198793
0.0192874
0.0187408
0.0182957
0.0180375
0.0179468
0.0180297
0.0182627
0.0186177
0.019082
0.0196429
0.0202893
0.0210335
0.0218362
0.0226456
0.0234364
0.0247011
0.0266804
0.0283683
0.0293493
0.0299818
0.0292511
0.0316967
6.30335e-07
1.42244e-12
3.36637e-18
1.29129e-18
8.58506e-19
8.60138e-19
1.11418e-18
1.57791e-18
2.18799e-18
2.89756e-18
4.07121e-18
6.93951e-18
1.16012e-17
1.89142e-17
0.012254
0.00722581
0.00640151
0.0212911
0.0245025
0.0250372
0.0252244
0.025206
0.0250496
0.0248039
0.0244937
0.0241301
0.0237204
0.0232751
0.0228204
0.0223788
0.0220132
0.0217047
0.0214371
0.021196
0.020969
0.0207318
0.0204753
0.0202231
0.019994
0.0197881
0.01961
0.0194517
0.019324
0.0192167
0.0191305
0.018946
0.0184306
0.0176877
0.0167784
0.0155435
0.0152832
0.00965986
3.88924e-09
0.00728948
0.00771372
0.00747081
0.00721881
0.00725661
0.00735802
0.00740331
0.00752041
0.00767499
0.00784013
0.00805393
0.00829822
0.0085744
0.00907674
0.00931166
0.00942114
0.00983858
0.0103163
0.0111569
0.00630051
0.0124702
0.0170917
0.0206217
0.0221105
0.0273475
1.99487e-06
4.74053e-12
6.81764e-18
2.12098e-18
1.16145e-18
9.74989e-19
1.08373e-18
1.36871e-18
1.76671e-18
2.22949e-18
2.98885e-18
4.72913e-18
7.37164e-18
1.05129e-17
0.0101623
0.0179571
0.0287891
0.0315985
0.0317742
0.0319635
0.0320735
0.032059
0.0319454
0.0317489
0.0314929
0.0311893
0.0308377
0.030457
0.0300842
0.0297676
0.02949
0.0292373
0.028997
0.0287559
0.0284994
0.0282172
0.0279236
0.0276442
0.0273925
0.0271653
0.0269618
0.0267749
0.0266212
0.026488
0.0263981
0.0263401
0.026049
0.0257135
0.025361
0.0243314
0.0224303
0.0207265
0.00876692
0.0125943
0.00948397
0.0100003
0.00257537
0.00502022
0.00673936
0.00782196
0.00855554
0.00907473
0.00940409
0.0095963
0.00969729
0.00972264
0.0108299
0.0100124
0.00785048
0.00773131
0.00789703
0.00797191
0.00737525
0.00764698
0.00984357
0.0133417
0.0151237
0.0220523
6.27143e-06
1.55848e-11
1.44365e-17
3.70339e-18
1.69534e-18
1.20769e-18
1.16312e-18
1.317e-18
1.58281e-18
1.91511e-18
2.44055e-18
3.57833e-18
5.19742e-18
6.79473e-18
0.0233251
0.0310799
0.0297936
0.0250121
0.0237715
0.0235832
0.0235587
0.0235457
0.0235114
0.0234261
0.0233187
0.0232083
0.0230911
0.0229927
0.0229115
0.0228347
0.0227548
0.0226666
0.0225625
0.0224331
0.0222783
0.0221106
0.0219397
0.0217777
0.0216341
0.0215014
0.0213805
0.021269
0.0211811
0.021116
0.021074
0.0211129
0.0213671
0.0217576
0.0221919
0.022484
0.0222382
0.0225522
0.0178327
0.0273378
0.0270615
0.0274532
0.0280136
0.0284813
0.0288574
0.029124
0.0292861
0.0293541
0.0293349
0.029249
0.0291183
0.0289534
0.0287713
0.0286377
0.0284654
0.0282911
0.0280805
0.0278237
0.0273053
0.0268115
0.0247978
0.0222518
0.0203565
0.022657
2.42874e-05
1.4109e-13
2.9481e-15
6.83558e-18
2.64931e-18
1.6203e-18
1.36489e-18
1.39236e-18
1.55808e-18
1.80805e-18
2.18927e-18
2.96442e-18
4.70093e-18
5.89821e-18
0.0319808
0.0266049
0.0164786
0.00222783
0.00922038
0.00926066
0.00930921
0.00927085
0.00922598
0.00918327
0.00910232
0.00903987
0.00902424
0.00902596
0.00905762
0.00911956
0.0091948
0.00928986
0.00108518
0.00161376
0.00188181
0.00202125
0.00208969
0.00217048
0.00230782
0.00247109
0.00265768
0.00286158
0.0030875
0.00333764
0.00351824
0.00366484
0.00540827
0.00786562
0.0103418
0.0129453
0.0154284
0.0179185
0.0174552
0.0311172
0.0300005
0.0300719
0.0301363
0.0301212
0.0301196
0.0301429
0.0301483
0.0301387
0.030123
0.0301101
0.0301177
0.0301554
0.0302259
0.0302919
0.0303563
0.0304327
0.0304836
0.0305204
0.0305947
0.0305808
0.0299973
0.0285387
0.0262481
0.025947
9.76189e-05
2.24563e-12
3.97573e-14
1.32878e-17
4.40728e-18
2.33812e-18
1.73778e-18
1.60489e-18
1.67307e-18
1.85638e-18
2.14507e-18
3.42331e-18
3.99847e-17
6.94111e-16
0.0232794
0.00848912
0.00697697
0.00415745
0.00452463
0.00477703
0.00489809
0.00491525
0.0049042
0.00488894
0.00483768
0.00478261
0.00474902
0.00472158
0.00471118
0.00471992
0.00474085
0.00477406
0.00483842
0.00491473
0.00498687
0.00505621
0.00512304
0.0051881
0.00524825
0.00530538
0.00536379
0.00542296
0.0054865
0.00555709
0.00561677
0.00566062
0.00588457
0.00630435
0.00704241
0.00757752
0.00822943
0.00862464
0.0127027
0.0174823
0.0181431
0.0166546
0.0164923
0.0165339
0.0165863
0.016646
0.0167177
0.0168256
0.0169848
0.0172007
0.0174783
0.0178134
0.0181855
0.0185375
0.0189258
0.0194049
0.0198903
0.0203287
0.021148
0.0228042
0.0243455
0.0252578
0.0251796
0.0254436
0.000327517
1.35639e-11
2.05572e-13
2.71431e-17
7.77408e-18
3.60877e-18
2.38492e-18
2.00359e-18
1.94775e-18
2.0614e-18
2.31657e-18
2.65276e-16
4.45004e-11
1.59165e-09
0.0105198
0.00521314
0.00881327
0.0110804
0.0121891
0.0126764
0.0129375
0.0130775
0.0131564
0.0132036
0.0132191
0.0132095
0.0131906
0.0131654
0.013134
0.0130994
0.013063
0.013024
0.0129836
0.0129417
0.012899
0.0128569
0.0128158
0.0127787
0.012746
0.0127123
0.0126773
0.0126402
0.0126071
0.0125831
0.0125545
0.0125016
0.0121466
0.0114297
0.0110501
0.0090946
0.00574339
0.00691214
0.0104605
0.00649478
0.00678477
0.00643552
0.00626005
0.00631886
0.00638553
0.00636918
0.00640688
0.00646598
0.00653475
0.00665647
0.00680789
0.006989
0.00720141
0.00741269
0.00764944
0.00793303
0.0082294
0.00851387
0.0089656
0.0100896
0.00856561
0.0133941
0.0167996
0.0192778
0.000865116
6.46665e-11
8.46013e-13
5.81894e-17
1.45012e-17
5.93301e-18
3.50914e-18
2.69292e-18
2.44458e-18
2.46496e-18
6.42668e-18
1.18341e-11
1.68814e-09
3.38133e-09
0.00688894
0.0118722
0.0218572
0.023861
0.0242712
0.0244497
0.0245502
0.0246131
0.0246539
0.0246803
0.0246954
0.0247001
0.0246991
0.0246918
0.0246755
0.0246503
0.0246168
0.0245746
0.0245237
0.0244633
0.0243955
0.0243223
0.0242436
0.0241638
0.0240882
0.0240116
0.0239339
0.0238546
0.0237835
0.0237304
0.0236781
0.0236432
0.0234848
0.0230686
0.0223596
0.0211585
0.0197615
0.0172973
0.0149759
0.0088587
0.00714812
0.00771352
0.00766578
0.00780004
0.00790789
0.0078709
0.00787124
0.00786891
0.00784343
0.00785151
0.00786314
0.00788054
0.00795179
0.00800544
0.0080586
0.00811499
0.0081702
0.00821991
0.00826513
0.00816203
0.00862354
0.00951318
0.00515057
0.010026
0.00183477
2.73467e-10
3.11006e-12
1.30845e-16
2.85557e-17
1.03582e-17
5.51203e-18
3.87659e-18
3.28969e-18
3.15807e-18
5.39047e-18
1.66665e-12
1.45902e-09
1.20098e-09
0.0157276
0.0246596
0.0236095
0.0225393
0.0224577
0.0223984
0.0223552
0.0223383
0.0223354
0.0223394
0.0223555
0.0223788
0.0224027
0.0224254
0.0224431
0.0224535
0.0224561
0.0224511
0.022437
0.0224126
0.0223785
0.0223364
0.022285
0.0222279
0.0221731
0.0221184
0.0220632
0.0220079
0.0219593
0.0219275
0.0219063
0.0219313
0.0220596
0.0222142
0.0222712
0.0221838
0.0217793
0.020482
0.0181342
0.0196032
0.0198366
0.0207087
0.0209902
0.021232
0.0213871
0.0214736
0.0215168
0.021546
0.0215642
0.0215659
0.0215554
0.0215319
0.0216024
0.0216081
0.0215893
0.0215687
0.021538
0.021491
0.0214338
0.0210046
0.0199353
0.0187656
0.0170155
0.0146849
0.00479734
1.58293e-09
1.57427e-11
3.08551e-16
5.92889e-17
1.91581e-17
9.21056e-18
5.95053e-18
4.7224e-18
4.30902e-18
5.82136e-18
3.73934e-13
1.12674e-11
2.78231e-09
0.0253098
0.0215382
0.0141514
0.0108795
0.0104201
0.0102118
0.0100453
0.00991176
0.00981488
0.00975337
0.0097222
0.0097153
0.00972526
0.00974769
0.00977742
0.00981165
0.00984871
0.00988739
0.00992571
0.00996248
0.00999726
0.0100303
0.010062
0.0100955
0.0101335
0.0101723
0.0102109
0.0102495
0.0102903
0.010338
0.0103848
0.0104424
0.0108318
0.0118498
0.0132021
0.0149767
0.0167546
0.0177643
0.0171405
0.0251329
0.0242628
0.024519
0.0246678
0.0246628
0.0246122
0.0245703
0.0245403
0.0245316
0.0245386
0.0245479
0.0245603
0.024579
0.024595
0.0246013
0.0246174
0.0246596
0.0247062
0.024741
0.0248181
0.0248709
0.0246829
0.0240404
0.0227404
0.0205944
0.0114137
1.03887e-08
9.08037e-11
7.62915e-16
1.29676e-16
3.74661e-17
1.63243e-17
9.70209e-18
7.19829e-18
6.22976e-18
7.07297e-18
1.09752e-13
4.99473e-09
3.38948e-09
0.0203447
0.00826011
0.00619722
0.00426385
0.00412609
0.00409976
0.00404801
0.0039626
0.00388904
0.00383584
0.00377252
0.00372047
0.0036934
0.00367648
0.00367728
0.00370016
0.00373649
0.00378803
0.00385169
0.00392503
0.00400476
0.00409029
0.0041802
0.00426732
0.00434472
0.00441648
0.00448758
0.00455785
0.00462782
0.00469917
0.0047689
0.00484186
0.00506937
0.00559454
0.00628448
0.0072691
0.00579881
0.0108864
0.013357
0.0169416
0.0168171
0.0159178
0.0153822
0.0149418
0.0146119
0.0144107
0.0143104
0.0142887
0.0143266
0.0144049
0.0145168
0.0146582
0.0148217
0.0150016
0.0152076
0.0154481
0.0157099
0.0159859
0.0163097
0.0169702
0.0181016
0.0191386
0.0198327
0.0196134
0.0168435
6.12884e-08
4.72809e-10
1.97738e-15
2.9847e-16
7.73306e-17
3.06047e-17
1.67442e-17
1.1604e-17
9.4999e-18
9.56466e-18
3.99927e-14
1.30786e-09
2.09593e-09
0.00142364
0.00325748
0.00536262
0.0057503
0.00590693
0.006064
0.00615684
0.00615774
0.00613097
0.00609752
0.00601527
0.00592587
0.00586354
0.00580578
0.00577048
0.00576845
0.0057855
0.00582647
0.00588864
0.00596615
0.00605544
0.00615474
0.00626292
0.00636416
0.00644445
0.00651384
0.00658185
0.00664864
0.00671437
0.00678082
0.00684977
0.00691881
0.00699002
0.00690978
0.00661279
0.00609234
0.00615755
0.00711794
0.00785066
0.00634773
0.00634817
0.00621191
0.00588704
0.00575449
0.0056679
0.00554383
0.00549784
0.00548088
0.00547032
0.00550142
0.0055508
0.00561843
0.00571133
0.00581821
0.00594416
0.00609066
0.00625169
0.00642296
0.00661689
0.00695035
0.00775269
0.00688991
0.0107504
0.0130212
0.0161002
3.2226e-07
2.20295e-09
5.37077e-15
7.22268e-16
1.68165e-16
6.05402e-17
3.04909e-17
1.97081e-17
1.52157e-17
1.39626e-17
1.70709e-14
4.64629e-10
3.06131e-09
0.00378777
0.00253029
0.0141503
0.0151566
0.0154241
0.0156284
0.0158246
0.0159799
0.0160859
0.0161571
0.0162072
0.0162425
0.0162688
0.0162901
0.0163063
0.0163176
0.0163251
0.0163283
0.0163268
0.0163203
0.0163096
0.0162968
0.0162826
0.0162685
0.0162586
0.0162503
0.0162413
0.0162334
0.016227
0.0162256
0.0162344
0.0162507
0.016279
0.0159615
0.0151569
0.0138595
0.0124065
0.0102537
0.00960369
0.00588229
0.00465656
0.00496056
0.00495495
0.00503967
0.00510459
0.0050668
0.00504962
0.00502412
0.00497839
0.00495439
0.00493452
0.00492132
0.00492358
0.00492974
0.00494518
0.00497038
0.00500131
0.0050337
0.00507091
0.00510233
0.00492002
0.00533375
0.00605012
0.00684937
0.00908778
1.31737e-06
8.00447e-09
1.52799e-14
1.83543e-15
3.84703e-16
1.26075e-16
5.84182e-17
3.51374e-17
2.54994e-17
2.16447e-17
8.25446e-15
4.66405e-11
1.02774e-09
0.0101577
0.0180767
0.0195617
0.0195975
0.01969
0.0197086
0.0197526
0.0198147
0.0198637
0.0198974
0.0199262
0.0199538
0.0199812
0.02001
0.0200384
0.0200648
0.020089
0.02011
0.0201265
0.0201376
0.0201444
0.0201495
0.0201537
0.0201574
0.0201653
0.0201753
0.0201839
0.0201925
0.0202013
0.0202131
0.0202348
0.0202703
0.0203554
0.0203366
0.0200783
0.0195649
0.0185467
0.0164564
0.0143643
0.0132409
0.0127403
0.013128
0.0133941
0.013552
0.0136341
0.013654
0.0136303
0.0135896
0.0135433
0.0134952
0.0134529
0.0134182
0.0133871
0.0133559
0.0133293
0.0133148
0.0133051
0.0132948
0.0132938
0.0132828
0.0127294
0.0116035
0.0104261
0.00800988
0.00956195
9.43859e-06
5.4343e-08
4.55247e-14
4.89392e-15
9.24689e-16
2.75795e-16
1.17469e-16
6.55802e-17
4.45827e-17
3.52132e-17
4.42014e-15
8.21039e-12
2.06521e-10
0.0200797
0.0191425
0.0145165
0.0137527
0.0136571
0.0135097
0.013387
0.0133348
0.0133096
0.0132889
0.0132771
0.0132767
0.0132852
0.0133013
0.0133221
0.0133448
0.0133683
0.0133911
0.0134118
0.0134293
0.0134447
0.0134601
0.0134759
0.0134932
0.0135157
0.0135409
0.0135664
0.0135943
0.0136229
0.0136524
0.0136888
0.0137298
0.0138359
0.0142532
0.0148879
0.0156184
0.0161508
0.0160703
0.0150806
0.0201745
0.0194383
0.0195949
0.0196241
0.0195581
0.0194617
0.0194013
0.0193641
0.0193468
0.0193458
0.0193544
0.0193738
0.0194038
0.0194372
0.0194677
0.0195007
0.0195441
0.0195862
0.0196142
0.0196444
0.0196714
0.0193183
0.0188301
0.0181086
0.016873
0.0157724
8.12591e-05
1.57111e-07
2.05532e-09
1.36877e-14
2.33252e-15
6.33018e-16
2.47416e-16
1.27835e-16
8.11216e-17
5.96947e-17
2.59269e-15
1.74193e-12
4.30799e-11
0.0177713
0.011028
0.0068102
0.00544987
0.00545704
0.00546349
0.00542483
0.00534959
0.00527888
0.00521621
0.00511948
0.00502391
0.00495638
0.00489427
0.00485428
0.00484602
0.00485745
0.00489404
0.00495265
0.00502931
0.00512045
0.00522575
0.00534355
0.00545694
0.00555022
0.00563393
0.00571834
0.00580358
0.00588874
0.00597256
0.00605736
0.00614267
0.00625648
0.00651079
0.00695766
0.00509244
0.00871561
0.0114441
0.0125131
0.0154916
0.0152598
0.0147241
0.0145259
0.0144478
0.0143972
0.0143362
0.0142689
0.0142113
0.0141805
0.014176
0.0141959
0.0142374
0.0142934
0.0143583
0.0144346
0.0145273
0.0146267
0.0147252
0.0148273
0.0150175
0.0154646
0.015972
0.0162404
0.0163031
0.0161133
0.000439161
1.39184e-06
1.64259e-08
4.01182e-14
6.1718e-15
1.52238e-15
5.45197e-16
2.59986e-16
1.53373e-16
1.05054e-16
1.67639e-15
4.26766e-13
1.2251e-09
0.00692269
0.0047793
0.00181793
0.00246801
0.00266411
0.00287004
0.00301484
0.00307603
0.00310307
0.00311715
0.00309282
0.00305411
0.00302422
0.00299059
0.00296579
0.00295955
0.00296426
0.0029855
0.00302161
0.00307167
0.0031325
0.00320478
0.00328747
0.00336876
0.00343449
0.00349199
0.00354869
0.00360491
0.00366056
0.00371496
0.00376901
0.00382207
0.00386479
0.00379537
0.00354512
0.00406009
0.00475449
0.00577133
0.00739638
0.00589443
0.00192558
0.00583169
0.00559836
0.00559491
0.00560943
0.00553181
0.00549392
0.00545859
0.00541321
0.0054035
0.00540448
0.00541773
0.00545234
0.00549495
0.00555193
0.00562122
0.00569881
0.00577938
0.00586348
0.00601718
0.00209936
0.00560986
0.00812842
0.0102518
0.0117334
0.00157838
8.98798e-06
9.63905e-08
1.23115e-13
1.7113e-14
3.83503e-15
1.25593e-15
5.51086e-16
3.01185e-16
1.91565e-16
1.23248e-15
1.2292e-13
1.25648e-10
0.00271073
0.0045424
0.00472138
0.00640598
0.00685767
0.00730288
0.00766427
0.00791249
0.00808998
0.00822978
0.00833544
0.00841351
0.00847689
0.00852851
0.00857056
0.00860797
0.00864272
0.00867635
0.00870987
0.00874444
0.00878024
0.00881881
0.00886186
0.00890845
0.00895567
0.0090001
0.00904092
0.00907958
0.00911644
0.00915079
0.0091854
0.00921819
0.00922776
0.00897546
0.00830565
0.00767095
0.00564014
0.0031946
0.00610885
0.00284137
0.00249936
0.00236198
0.00214216
0.00201102
0.00193912
0.0019395
0.00198134
0.00201831
0.00203073
0.00203974
0.00204093
0.00203749
0.00203674
0.00203617
0.00203903
0.00204574
0.00205537
0.0020669
0.00208065
0.00209021
0.00218151
0.00281655
0.00356377
0.00419073
0.00171655
0.00298693
4.14603e-05
8.94371e-08
1.76616e-09
4.96759e-14
1.01057e-14
3.0228e-15
1.21709e-15
6.14097e-16
3.61755e-16
1.08621e-15
4.38593e-14
2.01496e-11
0.00201879
0.0117024
0.0142159
0.0144057
0.0145369
0.0146881
0.0148365
0.0149587
0.0150575
0.0151449
0.015225
0.0152955
0.0153593
0.0154165
0.0154666
0.0155124
0.0155558
0.0155975
0.0156389
0.0156804
0.0157231
0.0157685
0.0158185
0.015872
0.0159269
0.0159807
0.016032
0.0160829
0.0161341
0.0161837
0.0162349
0.0162882
0.0163511
0.01633
0.0160651
0.0154911
0.0143859
0.0128984
0.0114183
0.00751122
0.00645767
0.00618002
0.00573244
0.00536136
0.00514506
0.00520603
0.00533998
0.00546302
0.00554223
0.00558545
0.00560489
0.00560702
0.00559927
0.00558797
0.00557719
0.00557166
0.00557027
0.00557162
0.0055775
0.0055739
0.00534982
0.00448785
0.00373728
0.000519534
0.00463237
0.00209206
0.000159705
1.34142e-06
2.6706e-08
1.50739e-13
2.78315e-14
7.59105e-15
2.79987e-15
1.3e-15
7.07346e-16
1.18803e-15
2.02341e-14
4.30303e-12
0.0147971
0.0158499
0.0139842
0.0137247
0.0136452
0.0135506
0.0134744
0.0134254
0.0133958
0.0133835
0.0133921
0.0134129
0.0134387
0.0134671
0.0134963
0.0135243
0.013552
0.0135795
0.0136072
0.0136347
0.0136628
0.0136926
0.0137246
0.0137574
0.0137923
0.013829
0.0138663
0.0139048
0.0139458
0.0139873
0.0140318
0.0140796
0.0141606
0.0143558
0.0146182
0.0147625
0.0147909
0.0142966
0.0129972
0.0154782
0.0145308
0.0143183
0.0142256
0.0141662
0.0141453
0.0142012
0.0142783
0.0143432
0.0143928
0.0144305
0.0144622
0.0144901
0.0145159
0.0145428
0.0145765
0.0146215
0.0146711
0.0147157
0.014759
0.0148128
0.0148284
0.0145088
0.0138738
0.0129402
0.0118
0.0100203
0.00110563
1.54596e-05
9.74712e-08
2.8453e-09
7.99795e-14
1.98687e-14
6.69942e-15
2.85593e-15
1.43155e-15
1.5818e-15
1.21094e-14
1.20229e-12
0.0157425
0.0111587
0.00753115
0.00667874
0.00646385
0.00620917
0.00593169
0.00568527
0.00548361
0.00532153
0.00519292
0.00509297
0.00501285
0.00494803
0.0048958
0.00485221
0.00481448
0.00478379
0.00475787
0.00473721
0.0047229
0.00471694
0.00472031
0.00473276
0.00475272
0.0047798
0.0048124
0.00484798
0.00488671
0.0049278
0.00497026
0.00499939
0.00503127
0.0054273
0.00652459
0.00804829
0.00968964
0.0108839
0.0111773
0.0142834
0.0140926
0.0140114
0.0139925
0.013999
0.0140052
0.0140542
0.0141296
0.0141853
0.0142306
0.014271
0.0143115
0.014354
0.0143979
0.0144444
0.0144988
0.0145646
0.0146352
0.0147009
0.0147638
0.0148399
0.0150026
0.0151286
0.0150396
0.0148214
0.0144114
0.0132818
0.00447083
0.000114873
1.33672e-06
3.58406e-08
2.39202e-13
5.40857e-14
1.66521e-14
6.50266e-15
2.99605e-15
2.44867e-15
9.27911e-15
4.33512e-13
0.00746706
0.00494281
0.00302535
0.00268411
0.00261973
0.00254668
0.0024364
0.00230896
0.00219776
0.00210572
0.00201096
0.00192545
0.0018577
0.00179567
0.00174588
0.00171225
0.0016882
0.0016777
0.00167923
0.00169196
0.00171425
0.00174713
0.00179009
0.00183478
0.00187126
0.00190538
0.0019427
0.00198191
0.0020231
0.00206571
0.00210936
0.00214761
0.00218705
0.00238703
0.0029029
0.00362183
0.00450309
0.00400555
0.0071496
0.00582282
0.00736317
0.00719426
0.00719067
0.00723203
0.00725404
0.0072278
0.00724394
0.00727306
0.00729159
0.00731018
0.00733818
0.00737565
0.00742027
0.00747006
0.00752751
0.00759513
0.0076701
0.00774845
0.00782975
0.00790468
0.00817662
0.00893723
0.00969958
0.0105839
0.0113438
0.0116945
0.00856296
0.000551507
1.05098e-05
1.1437e-08
4.50001e-10
1.52768e-13
4.29035e-14
1.53214e-14
6.47714e-15
4.22543e-15
8.97643e-15
2.00093e-13
0.00345081
0.00247444
0.00320272
0.00351489
0.00362667
0.00372591
0.00378826
0.00379302
0.00377963
0.00376122
0.00370397
0.0036332
0.00357402
0.00350854
0.00345326
0.00342112
0.00340331
0.00340753
0.00343467
0.00348303
0.00354924
0.00363442
0.00373721
0.00383747
0.00391204
0.00397383
0.00403723
0.00410187
0.00416828
0.00423539
0.00430399
0.00437383
0.00444576
0.00451791
0.00449334
0.00433014
0.00399048
0.0040588
0.00240048
0.00223498
0.00284305
0.00287133
0.00280788
0.002836
0.00285942
0.00281644
0.00281108
0.0028093
0.00279138
0.00278759
0.00278813
0.00279409
0.00281148
0.00283294
0.00286182
0.0028977
0.00293927
0.00298383
0.00303016
0.00307228
0.0031869
0.00348913
0.00378538
0.00437895
0.00440394
0.00680937
0.00777876
0.00179724
6.00949e-05
7.93942e-07
2.87073e-08
4.46812e-13
1.14323e-13
3.72847e-14
1.44397e-14
7.88755e-15
1.0647e-14
1.16331e-13
0.00397504
0.00671341
0.0082764
0.00908713
0.00930349
0.00945052
0.00960251
0.00973478
0.00984175
0.00993277
0.0100128
0.0100807
0.0101399
0.0101927
0.0102395
0.0102823
0.0103228
0.0103615
0.0103993
0.0104365
0.0104738
0.0105121
0.0105527
0.0105959
0.0106403
0.0106837
0.0107256
0.0107671
0.0108102
0.0108537
0.0108997
0.010948
0.011
0.0110524
0.0108698
0.0103594
0.00944321
0.00837876
0.00742423
0.00462005
0.0032952
0.00331622
0.00324806
0.00328165
0.00332854
0.00332058
0.00333236
0.00334043
0.00333226
0.00333896
0.00334492
0.00335125
0.00336604
0.0033816
0.00340241
0.00342819
0.00345722
0.00348642
0.00351418
0.00353892
0.00355749
0.00346717
0.00325686
0.00299592
0.00320965
0.00369849
0.00237062
0.00291554
0.000234187
6.48566e-06
2.40611e-07
1.35036e-12
3.14432e-13
9.35405e-14
3.31482e-14
1.56126e-14
1.48539e-14
8.33727e-14
0.00902962
0.0125951
0.0117877
0.0119372
0.0120284
0.0120309
0.0120558
0.0120993
0.0121458
0.0121947
0.012248
0.0123008
0.012351
0.0123996
0.0124456
0.0124894
0.0125324
0.0125745
0.0126163
0.0126576
0.0126994
0.0127424
0.0127877
0.0128354
0.0128848
0.0129351
0.0129844
0.0130337
0.0130854
0.0131383
0.0131946
0.0132547
0.013323
0.0134396
0.0134906
0.0133544
0.0130136
0.0122357
0.0109807
0.00967461
0.00886194
0.00863814
0.0086602
0.0087198
0.00880472
0.00889404
0.00897027
0.00904253
0.00911237
0.00917903
0.00924412
0.00930536
0.00936089
0.00941165
0.00946096
0.00951269
0.009566
0.00961631
0.00966167
0.00970409
0.00974415
0.00950015
0.00895017
0.00822402
0.00735685
0.00646592
0.00561403
0.00454759
0.000884071
4.411e-05
9.1563e-07
4.525e-08
8.91343e-13
2.41574e-13
7.82314e-14
3.23626e-14
2.34193e-14
7.25959e-14
0.0132848
0.0109892
0.00916625
0.00826486
0.00809086
0.00791243
0.00775468
0.00765501
0.00759317
0.00755548
0.00753888
0.00753683
0.0075417
0.00755211
0.00756504
0.00758002
0.00759614
0.00761353
0.00763115
0.00764896
0.00766687
0.00768562
0.00770562
0.00772723
0.00775086
0.00777591
0.00780127
0.00782831
0.00785807
0.00788995
0.00792587
0.00796479
0.00800485
0.00809815
0.00848465
0.00907958
0.00973893
0.0102443
0.0102126
0.0127096
0.0119909
0.0118334
0.0118442
0.0118846
0.0119336
0.0119867
0.0120309
0.0120746
0.0121227
0.0121744
0.0122308
0.0122888
0.0123442
0.0123968
0.0124503
0.0125093
0.0125734
0.0126373
0.0126977
0.0127562
0.0128463
0.012858
0.0126673
0.012336
0.0118243
0.0109463
0.00989157
0.00859238
0.00339703
0.000263326
1.09998e-05
1.51587e-07