/*--------------------------------*- C++ -*----------------------------------*\
| =========                 |                                                 |
| \\      /  F ield         | OpenFOAM: The Open Source CFD Toolbox           |
|  \\    /   O peration     | Version:  2312                                  |
|   \\  /    A nd           | Website:  www.openfoam.com                      |
|    \\/     M anipulation  |                                                 |
\*---------------------------------------------------------------------------*/
FoamFile
{
    version     2.0;
    format      ascii;
    arch        "LSB;label=32;scalar=64";
    class       volScalarField;
    location    "400";
    object      turbulenceProperties:I;
}
// * * * * * * * * * * * * * * * * * * * * * * * * * * * * * * * * * * * * * //

dimensions      [0 0 0 0 0 0 0];

internalField   nonuniform List<scalar> 
10720
(
0.00399199
0.00403257
0.00408431
0.00419534
0.00436265
0.00456695
0.0048347
0.0051755
0.00562391
0.00622319
0.00704263
0.0081761
0.00978791
0.0121693
0.0157844
0.0214009
0.0302257
0.0454279
0.0668362
0.0917163
0.123811
0.171102
0.242818
0.340015
0.438595
0.500972
0.694729
0.898095
0.766321
0.510315
0.293749
0.112452
0.0586092
0.0275017
2.49052e-09
5.53225e-09
0.00667037
0.0502141
1
0.0047986
0.00606123
0.00707359
0.00796216
0.00925546
0.0190448
0.0372989
0.0344344
0.0204027
0.014779
0.0126613
0.0121451
0.0125355
0.0138778
0.0156801
0.0193611
0.0222706
0.0330341
0.0400646
0.0447231
0.0529798
0.0619503
0.0715253
0.083507
0.0970012
0.109998
0.108268
0.0873307
0.0582919
0.0319576
0.0127418
0.00319735
0.00166945
0.00108156
0.000674544
0.00011318
1.60214e-05
0.0729357
0.476649
0.00254124
0.00251214
0.00225357
0.00205828
0.00186922
0.00168951
0.00153311
0.00140162
0.00144995
0.00118534
0.000714542
0.00105241
0.00107359
0.0011916
0.00183866
0.00279649
0.00448
0.00741254
0.0122685
0.0191476
0.0283021
0.0396877
0.0558083
0.0752402
0.143681
0.203239
0.380207
0.568168
0.534549
0.426543
0.301882
0.186943
0.0995573
0.0384462
0.0062502
2.40596e-09
4.05536e-09
0.0302513
0.576121
0.00197689
0.00257257
0.00288576
0.00562
0.00857446
0.0115027
0.0131725
0.0132479
0.0103772
0.00797118
0.00644681
0.00545365
0.00473854
0.00421825
0.00288645
0.00163141
0.00939567
0.0139643
0.0171534
0.00722642
0.00702247
0.0269954
0.0313253
0.00237106
0.00491306
0.00837531
0.0111361
0.0113246
0.0101506
0.00843447
0.00640305
0.00443993
0.00286605
0.00174952
0.00101581
0.000588543
7.69525e-05
0.0187911
0.186829
0.0013964
0.000963926
0.000854239
0.00068703
0.000646097
0.000635553
0.000637754
0.000646704
0.000663295
0.000715675
0.000726144
0.000731174
0.000769199
0.000733633
0.000869589
0.00149066
0.00221113
0.00358378
0.00593789
0.00937148
0.0138948
0.0193682
0.026794
0.0365921
0.0496665
0.0663234
0.196972
0.33143
0.335066
0.301546
0.241753
0.175319
0.109639
0.0506017
0.0142638
0.00654429
1.32104e-09
0.0128068
0.510556
0.00133969
0.00410856
0.00575378
0.00652871
0.00617097
0.00498436
0.00475092
0.0050604
0.00486118
0.00442171
0.00404926
0.00379787
0.00357667
0.00340221
0.00329631
0.00310255
0.00295999
0.00246381
0.00155387
0.00326505
0.00320508
0.000736136
0.000760437
0.00132452
0.00240387
0.00399646
0.00139481
0.00542568
0.00491264
0.00100851
0.00107061
0.00232745
0.000404697
0.000883939
0.00113819
0.00137753
0.000181182
0.0117418
0.10832
0.00300425
0.00278618
0.00264185
0.00250945
0.00239437
0.00228913
0.00219418
0.00211059
0.00203776
0.00197567
0.0019224
0.00187742
0.00184153
0.00180801
0.00179262
0.00180085
0.00176046
0.00151256
0.000936283
0.000649006
6.17467e-10
6.23938e-10
6.32783e-10
6.43663e-10
0.0230181
0.00022936
0.000275782
0.0005788
0.000798085
0.00131732
0.00344805
0.0164131
0.0417032
0.0415872
0.026389
0.0116418
0.00566279
0.0115554
0.495908
0.00452842
0.00493684
0.004178
0.00245554
0.00217318
0.00178034
0.00178092
0.00188083
0.00187547
0.00178829
0.00168748
0.00163186
0.00153011
0.00143539
0.00140856
0.00136365
0.000594365
0.00100927
0.00129267
0.00149878
0.00164139
0.00169926
0.00173687
0.00170236
0.00172051
0.00169121
0.00169982
0.00168034
0.00166338
0.00166378
0.00164536
0.00160945
0.0015726
0.00155996
0.00151112
0.0019175
0.000260519
0.0100588
0.0873567
0.00425072
0.00373414
0.00343393
0.00318421
0.00297163
0.00278161
0.00262275
0.00249026
0.00237931
0.00228797
0.00221421
0.0021561
0.00211186
0.00208075
0.00206063
0.0020505
0.00204747
0.00206347
0.00207205
0.00157332
0.000840781
0.000632979
6.4935e-10
6.60705e-10
6.73845e-10
0.000108231
0.000130244
0.000271103
0.000370571
0.000606562
0.0015765
0.00748682
2.94011e-05
8.70092e-05
0.0153116
0.0160031
0.0107404
0.0111911
0.488027
0.00383228
0.00230824
0.00167094
0.00132171
0.00183443
0.00237362
0.00264947
0.00266199
0.00253985
0.002326
0.00208754
0.0019877
0.0016389
0.00123318
0.00114192
0.00111267
0.00115074
0.00118254
0.00117988
0.00115523
0.0011138
0.00106509
0.00101892
0.000979709
0.000947884
0.000921944
0.000902317
0.000887242
0.000876782
0.0008642
0.000857034
0.000885135
0.000919023
0.000967703
0.000878407
0.00145826
0.000203182
0.00888363
0.0744821
0.00253651
0.00241938
0.00214572
0.00194649
0.00177754
0.00164228
0.00154309
0.00146536
0.00140317
0.00135759
0.00132842
0.00131384
0.00131186
0.00132386
0.00134491
0.00136918
0.00141829
0.00150116
0.00159609
0.00168448
0.00173565
0.00147337
0.000678259
0.000515275
6.76551e-10
6.91062e-10
7.05826e-10
7.20596e-10
7.36354e-10
7.54104e-10
7.7438e-10
7.98022e-10
1.37944e-05
4.03896e-05
1.07511e-05
4.65746e-05
0.000108086
0.000782455
0.0365064
0.00159682
0.000994927
0.00157086
0.00283426
0.00434089
0.00507327
0.00538336
0.00551862
0.00546759
0.0052638
0.00497656
0.00466745
0.0043903
0.00412678
0.00389415
0.00369354
0.00351844
0.00336081
0.00321696
0.00308556
0.00296458
0.00285237
0.00274852
0.0026542
0.00257074
0.0024981
0.00243473
0.00237894
0.00232966
0.00228552
0.00224219
0.00218817
0.00212592
0.0020621
0.00196585
0.00197307
0.000281615
0.00726642
0.0593339
0.000837556
0.000829586
0.000787714
0.000735471
0.00071598
0.000692715
0.000670836
0.000655821
0.000643373
0.000633672
0.00062956
0.000629798
0.000634055
0.000652936
0.000661651
0.000662625
0.000687146
0.000733483
0.000406988
0.00074643
0.00102146
0.00122857
0.00133713
0.00118867
0.000695944
2.31727e-05
7.09732e-10
7.24379e-10
7.40402e-10
7.58549e-10
7.79063e-10
8.01999e-10
8.28587e-10
8.55823e-10
5.07489e-06
2.20136e-05
5.18891e-05
1.24636e-09
0.0190413
0.00108293
0.00191022
0.00348762
0.00421444
0.00448591
0.00467573
0.0049277
0.00507676
0.00511096
0.00503867
0.00489285
0.00471161
0.00452285
0.0043389
0.00417238
0.0040283
0.00388408
0.00373978
0.00360165
0.00347205
0.00335003
0.00323495
0.00312684
0.00302664
0.00293603
0.00285583
0.00278496
0.00272203
0.0026661
0.0026165
0.00257456
0.00252388
0.00247666
0.00245284
0.00236197
0.00230274
0.000726757
0.00527644
0.0417951
0.00130834
0.000420199
0.00064212
0.000759523
0.00091913
0.000966302
0.000989384
0.000997969
0.000995512
0.000986201
0.000973745
0.00095974
0.000945208
0.000974936
0.000941997
0.000863651
0.000853808
0.000843378
0.000809607
0.000808095
0.000889826
0.00102562
0.00118454
0.0012719
0.0014585
5.25259e-05
1.17808e-05
7.27498e-10
7.43181e-10
7.61139e-10
7.81768e-10
8.0503e-10
8.32365e-10
8.59285e-10
8.84345e-10
9.28537e-10
9.31904e-10
1.27961e-09
4.14237e-08
0.00251247
0.00351359
0.00357663
0.00306028
0.00223543
0.00215933
0.00228989
0.00241635
0.00251892
0.00259369
0.0026416
0.00266994
0.00268884
0.00270082
0.00271281
0.00271172
0.00267343
0.00260555
0.00252968
0.00245335
0.00237558
0.00229834
0.00222338
0.00215298
0.00208902
0.00203196
0.00198187
0.0019382
0.00190034
0.00186748
0.00184362
0.00183955
0.00185583
0.00187186
0.00186831
0.00199316
0.00136223
0.00314267
0.0240482
0.00276525
0.00261719
0.00255708
0.00248376
0.00241519
0.00234457
0.00227216
0.00220189
0.00213499
0.00207248
0.00201529
0.0019636
0.00191759
0.00187696
0.00184348
0.00181447
0.00179084
0.00177122
0.00177372
0.00170888
0.00159768
0.00154494
0.00153009
0.0014828
0.00172993
9.4247e-05
2.15231e-05
7.31334e-10
7.46497e-10
7.63881e-10
7.83977e-10
8.06866e-10
8.33938e-10
8.62521e-10
8.85629e-10
9.27168e-10
9.24792e-10
1.22192e-09
4.47826e-09
0.00332888
0.00288988
0.00178545
0.0012503
0.000786077
0.000766856
0.000816418
0.000860875
0.000900728
0.000935979
0.000962054
0.000983706
0.00100555
0.00102575
0.00104727
0.00106484
0.00106867
0.000152999
0.000264084
0.000285819
0.000270019
0.000230677
0.000171315
9.65597e-05
0.00093504
0.000918128
0.000903572
0.000891046
0.000880506
6.31431e-05
0.000111586
0.000261669
0.00044984
0.000640039
0.000823871
0.00100061
0.00127835
0.00118796
0.00872983
0.00293904
0.00269808
0.00256651
0.0024579
0.00235347
0.0022547
0.00216625
0.00208797
0.00201945
0.00196069
0.00191094
0.00186949
0.00183616
0.00181061
0.00179275
0.00178259
0.00177934
0.00178542
0.00180153
0.00182378
0.00183023
0.00179909
0.00176956
0.00169855
0.00184979
0.000148602
3.45452e-05
7.35348e-10
7.50074e-10
7.66961e-10
7.86485e-10
8.08799e-10
8.34933e-10
8.63824e-10
8.8709e-10
9.29896e-10
9.28175e-10
1.10795e-09
2.02516e-09
0.00222494
0.000747759
0.000718199
0.000683828
0.000828768
0.000892228
0.000933162
0.00095032
0.000952853
0.000944902
0.000924079
0.00089797
0.000870965
0.000842846
0.000816439
0.000792648
0.000770866
0.00075371
0.000741373
0.000727027
0.000711461
0.000695425
0.000679564
0.000664631
0.00065146
0.000640691
0.000631178
0.0006228
0.000615439
0.000609671
0.000605261
0.000606652
0.000613046
0.000627247
0.000650052
0.00068188
0.000564459
8.51116e-05
0.00424221
0.00151341
0.00152991
0.00137253
0.00127635
0.00119141
0.00111826
0.00106248
0.00102158
0.000994167
0.00097836
0.000972195
0.000974617
0.000985004
0.00100327
0.00103056
0.00106524
0.00110541
0.00115083
0.00122476
0.00133674
0.00144202
0.00152109
0.00159151
0.00159861
0.00178884
0.000216362
5.11839e-05
7.39555e-10
7.53815e-10
7.70219e-10
7.89213e-10
8.10986e-10
8.36248e-10
8.64533e-10
8.87633e-10
9.30859e-10
9.39707e-10
1.01331e-09
1.35322e-09
0.000942999
0.000576556
0.000525451
0.0018074
0.00215179
0.00227009
0.00235068
0.00239724
0.00241149
0.0023984
0.00236348
0.0023119
0.00224827
0.00217748
0.00210465
0.00203191
0.00196096
0.00189277
0.00182784
0.00176636
0.00170836
0.00165381
0.00160268
0.00155518
0.00151171
0.00147248
0.00143729
0.0014058
0.00137766
0.00135254
0.00132948
0.00130067
0.00125062
0.00118557
0.00111136
0.00101686
0.000991876
0.00061761
1.03272e-09
0.000524115
0.000537445
0.000500606
0.000464873
0.000450019
0.000439683
0.000427122
0.000419898
0.000415698
0.000413204
0.000414448
0.000418337
0.000424962
0.000444049
0.000451669
0.000455038
0.000475146
0.000499458
0.000542402
0.000308381
0.000616995
0.000858184
0.00105637
0.00116265
0.00148273
0.000279533
6.72699e-05
7.43926e-10
7.57691e-10
7.73587e-10
7.92042e-10
8.13274e-10
8.37812e-10
8.65352e-10
8.88084e-10
9.29432e-10
9.5271e-10
9.60106e-10
1.10109e-09
0.000755546
0.00136666
0.00224626
0.00254324
0.00263533
0.0027274
0.00280628
0.00286043
0.0028875
0.00288864
0.00286827
0.00283071
0.00277942
0.00271876
0.00265228
0.00258218
0.00251026
0.00243789
0.00236609
0.0022956
0.00222703
0.00216082
0.00209737
0.0020373
0.00198152
0.00193067
0.00188474
0.0018435
0.00180664
0.00177382
0.0017453
0.00172082
0.00168323
0.00164314
0.00160368
0.00152217
0.00139439
0.00127127
0.000563453
0.00087812
0.00064271
0.000653323
0.000162143
0.000305117
0.000395565
0.000444102
0.000471003
0.000485701
0.000490925
0.000490217
0.000486195
0.000479857
0.000527895
0.000483747
0.000377041
0.00036955
0.000376454
0.000380277
0.00035298
0.000368127
0.00047859
0.000658967
0.000764027
0.00114588
0.000347667
8.50848e-05
7.48487e-10
7.61724e-10
7.77083e-10
7.9497e-10
8.15623e-10
8.39458e-10
8.66287e-10
8.88881e-10
9.27116e-10
9.6199e-10
9.38429e-10
9.95934e-10
0.00167041
0.00226047
0.00222851
0.00192711
0.00188114
0.00191519
0.00195911
0.00199592
0.00201991
0.00202826
0.00202397
0.00201025
0.00198877
0.00196095
0.00192803
0.00189086
0.00185031
0.00180724
0.00176238
0.0017164
0.00166993
0.00162367
0.0015783
0.00153485
0.00149436
0.00145732
0.00142389
0.00139406
0.00136773
0.0013447
0.00132484
0.00131177
0.00131367
0.00132392
0.0013376
0.00134251
0.00132101
0.00132397
0.00109938
0.00185403
0.00178714
0.00175236
0.00172669
0.00169798
0.00166435
0.00162737
0.00158941
0.00155149
0.00151448
0.0014791
0.00144562
0.00141425
0.00138524
0.00136172
0.00133886
0.00131853
0.00130064
0.00128512
0.00126065
0.00124122
0.00115642
0.00105171
0.000981955
0.00112236
0.000515999
2.88769e-07
6.96669e-08
7.6592e-10
7.8072e-10
7.98013e-10
8.18054e-10
8.41161e-10
8.67241e-10
8.8993e-10
9.25059e-10
9.6606e-10
9.34199e-10
9.53651e-10
0.00220834
0.0018674
0.0011915
0.000165487
0.000701234
0.000720452
0.000739535
0.000749019
0.000754142
0.000755599
0.000749927
0.000742311
0.000735701
0.000728213
0.000721321
0.000715362
0.000709225
0.000703615
8.06487e-05
0.000117617
0.000134403
0.000141403
0.000143183
0.00014567
0.000151768
0.000159414
0.000168423
0.000178436
0.000189647
0.000202128
0.000210385
0.000216592
0.000316355
0.000455593
0.000593776
0.000737006
0.000874476
0.00100538
0.00102845
0.00204566
0.00191787
0.00186047
0.00180324
0.00174673
0.00169287
0.00164421
0.00160004
0.00155985
0.00152384
0.00149176
0.00146325
0.00143814
0.00141705
0.00139908
0.00138362
0.00137095
0.00136084
0.00135465
0.00135362
0.00135301
0.00133401
0.00128382
0.00120289
0.0012192
0.000770324
1.67634e-06
4.11348e-07
7.70279e-10
7.84502e-10
8.01181e-10
8.20584e-10
8.42945e-10
8.6821e-10
8.91029e-10
9.23609e-10
9.6599e-10
9.3738e-10
9.40136e-10
0.00155199
0.000577021
0.000486677
0.000296317
0.000329176
0.000354536
0.000370221
0.000376866
0.00037955
0.000380085
0.000376153
0.000370508
0.000365349
0.000359724
0.000354664
0.000350475
0.000346692
0.00034335
0.000341834
0.000340816
0.000339219
0.000337214
0.000334924
0.000332449
0.000329683
0.000327007
0.000324784
0.000323076
0.000321958
0.000321472
0.000320811
0.00031947
0.000328666
0.000348701
0.000386213
0.000412248
0.000445758
0.000463034
0.000713856
0.00110696
0.00111662
0.000993772
0.000953944
0.000929073
0.000905372
0.00088412
0.000866232
0.000851796
0.000841066
0.000833966
0.000830221
0.000829473
0.000831202
0.00083336
0.000838233
0.00084803
0.000859897
0.00087215
0.000902537
0.000970507
0.0010379
0.00108533
0.0010983
0.00113418
0.000932773
3.58634e-06
8.94876e-07
7.74801e-10
7.8843e-10
8.04477e-10
8.23219e-10
8.44824e-10
8.69234e-10
8.92071e-10
9.22675e-10
9.63569e-10
9.42363e-10
9.39295e-10
0.000675606
0.000341404
0.000589509
0.000754813
0.000846256
0.000897145
0.000931639
0.000954189
0.000967953
0.000975123
0.000976038
0.000971743
0.000963984
0.000953525
0.000940904
0.000926688
0.000911229
0.000894715
0.000877456
0.000859648
0.000841476
0.000823159
0.000804934
0.000787098
0.000769874
0.000753488
0.000738133
0.000723965
0.000711047
0.000699379
0.000688756
0.000677465
0.000651189
0.000606714
0.000581532
0.000474826
0.000298432
0.000356206
0.000561169
0.000396634
0.000404271
0.000372854
0.000352424
0.000346365
0.000340959
0.000331754
0.000326077
0.000321688
0.000317896
0.000316787
0.000317113
0.000318867
0.000322284
0.000326093
0.000331309
0.00033871
0.000347151
0.000355861
0.000372123
0.000416648
0.000353194
0.000554404
0.000702554
0.000819911
0.000872822
5.86803e-06
1.48841e-06
7.79484e-10
7.92504e-10
8.07903e-10
8.25962e-10
8.46804e-10
8.70343e-10
8.93042e-10
9.2206e-10
9.60226e-10
9.46699e-10
9.43236e-10
0.000427489
0.000749224
0.00140484
0.00156194
0.00161895
0.00166116
0.00169487
0.00171927
0.00173451
0.00174178
0.00174203
0.00173624
0.00172568
0.00171115
0.00169322
0.00167238
0.00164893
0.00162311
0.00159523
0.00156558
0.00153453
0.00150246
0.0014698
0.00143712
0.00140512
0.0013745
0.00134568
0.00131897
0.00129455
0.00127236
0.00125237
0.00123474
0.00121295
0.00117954
0.00113341
0.00106408
0.000988752
0.000858701
0.000769398
0.000526753
0.000416217
0.000437358
0.00042292
0.000419604
0.000414992
0.000403262
0.000394015
0.000384796
0.000374754
0.000366783
0.000359429
0.000352837
0.000349275
0.000345672
0.000342545
0.000339872
0.000337776
0.000336298
0.000335281
0.000328808
0.000346096
0.000382077
0.000208157
0.000410108
0.000664081
8.23414e-06
2.12239e-06
7.84322e-10
7.96723e-10
8.11462e-10
8.28819e-10
8.48885e-10
8.71549e-10
8.93969e-10
9.21618e-10
9.56784e-10
9.49763e-10
9.48286e-10
0.000950202
0.0015079
0.00146803
0.00142716
0.00144733
0.00146756
0.00148526
0.00149898
0.00150766
0.00151154
0.00151157
0.00150808
0.00150134
0.0014918
0.00147975
0.00146527
0.00144847
0.00142948
0.00140838
0.00138536
0.00136064
0.00133454
0.00130741
0.00127976
0.00125243
0.00122615
0.00120129
0.00117815
0.00115694
0.0011377
0.0011204
0.00110688
0.00110054
0.00109687
0.00109005
0.00107727
0.00105202
0.000982137
0.000895234
0.00114209
0.0011333
0.00115269
0.00113777
0.00112315
0.00110409
0.00108201
0.00105857
0.00103489
0.00101178
0.000989521
0.000968288
0.000948036
0.000933692
0.000918488
0.000903486
0.000889106
0.000875808
0.000863947
0.000853273
0.000829081
0.0007825
0.000735419
0.000668924
0.000581991
0.000683094
1.52598e-05
3.99576e-06
7.8931e-10
8.01084e-10
8.15153e-10
8.31794e-10
8.51071e-10
8.7286e-10
8.94879e-10
9.2127e-10
9.53603e-10
9.51716e-10
9.52981e-10
0.00149362
0.00128112
0.000855332
0.000668864
0.000650878
0.000647097
0.000644127
0.000640866
0.00063763
0.000634722
0.000632071
0.000629541
0.000626913
0.000624099
0.000620919
0.000617251
0.000612986
0.000608059
0.000602375
0.00059593
0.000588749
0.000580909
0.000572582
0.000564074
0.000555689
0.000547583
0.000539909
0.000532782
0.000526338
0.000520627
0.000515277
0.000511032
0.000523654
0.000566711
0.000625598
0.000703974
0.000783051
0.000824431
0.000815188
0.00143664
0.00136029
0.00134006
0.00131388
0.00128261
0.00124905
0.00121666
0.00118623
0.00115797
0.00113221
0.00110867
0.00108706
0.00106729
0.00104911
0.00103241
0.00101718
0.00100343
0.000991151
0.000980481
0.000973008
0.000965498
0.000951429
0.000923503
0.000874185
0.000795662
0.000803034
3.08893e-05
8.21406e-06
7.94439e-10
8.05581e-10
8.18975e-10
8.34888e-10
8.53367e-10
8.74276e-10
8.95799e-10
9.2099e-10
9.50793e-10
9.52903e-10
9.56914e-10
0.00117233
0.000478858
0.000364988
0.000255076
0.000250329
0.000251866
0.000251255
0.000247708
0.000244063
0.000241003
0.000236719
0.000232668
0.00022981
0.000227281
0.000225593
0.000225008
0.000224965
0.00022554
0.00022652
0.000227739
0.000228985
0.000230206
0.000231341
0.000232029
0.000231965
0.00023154
0.000231123
0.000230758
0.000230515
0.000230414
0.000230304
0.000230536
0.000238299
0.000260015
0.000289246
0.000331716
0.000262939
0.000490113
0.000613488
0.000948863
0.000923962
0.000853374
0.000804315
0.000763166
0.000728421
0.000701204
0.000680245
0.000663998
0.000651617
0.000642131
0.000634876
0.000629422
0.0006255
0.000622955
0.000621755
0.000621844
0.000623203
0.000626075
0.000631463
0.000649973
0.00068756
0.000723367
0.00074867
0.000742285
0.000797079
5.40824e-05
1.46001e-05
7.99697e-10
8.10208e-10
8.22923e-10
8.38099e-10
8.55774e-10
8.75802e-10
8.96746e-10
9.2078e-10
9.48365e-10
9.53607e-10
9.60089e-10
8.00404e-05
0.000184254
0.000308043
0.000335052
0.000348556
0.00036192
0.000370922
0.000373364
0.000373008
0.000371262
0.000365691
0.000359006
0.000353447
0.000347762
0.000343104
0.000340121
0.000337936
0.000336796
0.000336499
0.000336673
0.000337069
0.000337538
0.00033802
0.000337702
0.000335949
0.000333543
0.000331134
0.000328802
0.000326632
0.000324653
0.000322911
0.000321448
0.000320444
0.000313009
0.000296472
0.000270672
0.000271628
0.000311642
0.000349154
0.000347852
0.000341546
0.00032651
0.00030204
0.000288555
0.000277621
0.000265355
0.000257453
0.000251304
0.000245847
0.00024261
0.000240361
0.000239
0.000238829
0.0002394
0.000240775
0.000242861
0.000245597
0.00024902
0.000253486
0.000263235
0.000290914
0.000256954
0.000399794
0.000484525
0.00064346
8.11369e-05
2.22311e-05
8.05074e-10
8.14958e-10
8.26992e-10
8.41429e-10
8.58293e-10
8.7744e-10
8.97736e-10
9.2065e-10
9.46297e-10
9.54013e-10
9.62621e-10
0.000207855
0.00013976
0.000793097
0.000860713
0.000886309
0.000907859
0.000927537
0.000942333
0.000951545
0.000956283
0.000957616
0.000956291
0.000953036
0.000948375
0.000942527
0.00093562
0.000927726
0.000918836
0.000908931
0.000897988
0.000886018
0.000873041
0.000859125
0.000844486
0.000829532
0.000814634
0.000800042
0.000786002
0.000772717
0.000760299
0.000748848
0.000738436
0.000729464
0.000706345
0.000663438
0.000600836
0.000533639
0.00043754
0.00041462
0.000315425
0.00024552
0.000255791
0.000249582
0.00024831
0.000245996
0.000238988
0.000233397
0.00022771
0.000221431
0.000216417
0.000211764
0.000207532
0.00020412
0.000201088
0.000198561
0.000196448
0.000194729
0.000193387
0.00019244
0.000191349
0.000182684
0.00019665
0.000222163
0.00025127
0.000340476
9.09005e-05
2.52702e-05
8.10558e-10
8.19821e-10
8.3118e-10
8.44873e-10
8.60925e-10
8.79192e-10
8.98784e-10
9.20614e-10
9.44565e-10
9.54235e-10
9.64629e-10
0.000544968
0.000976075
0.00107063
0.00108591
0.00110359
0.00111645
0.00112872
0.00113883
0.00114492
0.00114726
0.0011468
0.00114423
0.00114009
0.00113479
0.00112852
0.00112129
0.00111315
0.00110402
0.00109383
0.0010825
0.00106999
0.00105626
0.00104128
0.00102521
0.00100851
0.000991641
0.000974914
0.000958612
0.000943018
0.000928296
0.000914609
0.000902164
0.000892891
0.000880502
0.000859368
0.000828938
0.000779123
0.000685521
0.000603292
0.000695885
0.000659406
0.000665035
0.000663286
0.00065715
0.00064758
0.000635707
0.000622691
0.000609432
0.000596488
0.000584008
0.000572114
0.00056083
0.000550133
0.000540032
0.000530535
0.000521695
0.000513578
0.00050634
0.000500038
0.000493581
0.000468082
0.000423381
0.00037855
0.000290207
0.000348399
0.000171425
5.13821e-05
8.16132e-10
8.24787e-10
8.35477e-10
8.48432e-10
8.63671e-10
8.8106e-10
8.99903e-10
9.20685e-10
9.43145e-10
9.54343e-10
9.6621e-10
0.00105559
0.0010119
0.000776991
0.000744924
0.000748103
0.000747736
0.000747119
0.000748185
0.000748623
0.000747489
0.000745285
0.000742483
0.000739257
0.000735744
0.000731948
0.000727782
0.000723195
0.000718099
0.000712399
0.000706001
0.000698874
0.00069097
0.00068224
0.000672777
0.000662912
0.000652868
0.000642851
0.000633096
0.000623729
0.000614844
0.000606614
0.000598913
0.000594563
0.000604258
0.000623621
0.000647311
0.000663292
0.0006542
0.000617159
0.00104132
0.000989287
0.000976604
0.000956855
0.000934839
0.000912299
0.000892482
0.000874784
0.000858461
0.000843377
0.000829227
0.000815863
0.000803256
0.000791293
0.000779936
0.000769174
0.000759005
0.000749436
0.000740509
0.000732396
0.000724367
0.000703629
0.00068016
0.000650449
0.000604281
0.000565369
0.000373865
4.2579e-05
1.18946e-05
8.29845e-10
8.39878e-10
8.52099e-10
8.66529e-10
8.83046e-10
9.01105e-10
9.20875e-10
9.42015e-10
9.54384e-10
9.6744e-10
0.000917177
0.00057158
0.000357135
0.000289145
0.000292709
0.00029595
0.000296104
0.000293364
0.000290033
0.000286461
0.000280467
0.000274147
0.000269099
0.000264165
0.000260302
0.000258022
0.000256648
0.000256437
0.000257178
0.000258612
0.000260481
0.00026267
0.000265012
0.000266651
0.000266881
0.000266371
0.000265748
0.000265076
0.000264402
0.000263732
0.000263149
0.000262628
0.000263409
0.000270311
0.000285279
0.000206508
0.000350038
0.000455445
0.000499447
0.000786567
0.00076451
0.00072272
0.000698098
0.000681301
0.000666402
0.000651606
0.000637169
0.000623461
0.000611306
0.000600679
0.000591363
0.000583219
0.000576021
0.000569623
0.000563942
0.000558944
0.00055456
0.000550862
0.00054772
0.000547811
0.000557765
0.000571001
0.000577039
0.000577196
0.000570054
0.000498878
0.000103454
2.93166e-05
8.34979e-10
8.44369e-10
8.55867e-10
8.69497e-10
8.8515e-10
9.02401e-10
9.21194e-10
9.41154e-10
9.54394e-10
9.68379e-10
0.00035116
0.00024319
9.35522e-05
0.000128459
0.000140118
0.000152316
0.000161076
0.000164971
0.000166608
0.000167182
0.000165393
0.000162627
0.0001602
0.00015749
0.000155191
0.000153809
0.000152925
0.000152802
0.000153325
0.000154411
0.000155851
0.000157613
0.000159589
0.000161187
0.000161767
0.000161769
0.000161625
0.000161384
0.000161094
0.000160772
0.000160453
0.000160112
0.000159384
0.000154284
0.000142261
0.000161069
0.000186714
0.000224519
0.000288034
0.000294616
9.49976e-05
0.000281998
0.000265252
0.000260283
0.000256271
0.00024824
0.000242253
0.000236496
0.000230484
0.000226186
0.000222478
0.000219408
0.000217337
0.000215715
0.000214706
0.000214135
0.00021395
0.000214085
0.000214457
0.000217297
7.49333e-05
0.000198381
0.000285541
0.000358655
0.000409877
0.000455404
0.000175422
5.0697e-05
8.40176e-10
8.4894e-10
8.59729e-10
8.72571e-10
8.87371e-10
9.03797e-10
9.21648e-10
9.40543e-10
9.54396e-10
9.69076e-10
0.000135201
0.000227098
0.000238635
0.000327344
0.000353829
0.000379831
0.000400877
0.000415028
0.000424455
0.000431008
0.000435024
0.000437059
0.000437972
0.000438032
0.000437432
0.000436431
0.000435097
0.000433472
0.000431564
0.000429384
0.00042686
0.000423955
0.000420664
0.000416952
0.000412778
0.000408151
0.00040322
0.00039813
0.000393008
0.000387943
0.000383045
0.000378242
0.000372671
0.000357153
0.00032611
0.000297623
0.000216512
0.000121438
0.000232087
0.000139795
0.000121396
0.000112499
0.000100024
9.22331e-05
8.73557e-05
8.58328e-05
8.61692e-05
8.62578e-05
8.53087e-05
8.42647e-05
8.29495e-05
8.1508e-05
8.02381e-05
7.90341e-05
7.79906e-05
7.70934e-05
7.63426e-05
7.5746e-05
7.52813e-05
7.4665e-05
7.69992e-05
9.84507e-05
0.000123684
0.000144774
5.91824e-05
0.000269766
0.000203893
1.32558e-05
3.77616e-06
8.53578e-10
8.63676e-10
8.75742e-10
8.89706e-10
9.05301e-10
9.22243e-10
9.40165e-10
9.54411e-10
9.69572e-10
9.89899e-05
0.000574971
0.000705789
0.000722624
0.000735601
0.000748405
0.000759396
0.000767051
0.000771676
0.0007742
0.000775158
0.000774836
0.000773686
0.000771906
0.000769582
0.000766844
0.000763708
0.000760129
0.000756082
0.000751496
0.000746287
0.000740342
0.000733597
0.000726045
0.000717769
0.000708927
0.000699732
0.00069039
0.000681075
0.000671919
0.000663041
0.000654521
0.000646602
0.000636025
0.000617116
0.000587728
0.000539714
0.000478949
0.000423107
0.000363601
0.000308669
0.000289786
0.000263597
0.000242187
0.000228306
0.000226966
0.000228824
0.000230106
0.000229535
0.000227567
0.000224754
0.000221408
0.000217838
0.000214279
0.000210803
0.000207523
0.000204498
0.000201807
0.000199443
0.000196774
0.000186578
0.000154944
0.000128055
1.77108e-05
0.000157527
9.56499e-05
0.00019247
5.36293e-05
1.7118e-05
8.5827e-10
8.67696e-10
8.79007e-10
8.92149e-10
9.06914e-10
9.22978e-10
9.40004e-10
9.54452e-10
9.69903e-10
0.000713115
0.000765126
0.000681657
0.000675358
0.000676643
0.000675879
0.000674425
0.000672585
0.0006702
0.000667478
0.000664902
0.000662375
0.000659783
0.00065715
0.000654468
0.000651616
0.000648565
0.000645228
0.000641548
0.000637418
0.000632768
0.000627492
0.000621493
0.00061475
0.000607475
0.000599872
0.00059209
0.000584223
0.000576401
0.000568728
0.000561283
0.00055415
0.000548425
0.000547417
0.000549531
0.00054782
0.000542424
0.000518592
0.000469745
0.000736868
0.000683289
0.000660684
0.000643747
0.000629759
0.000617758
0.000609457
0.000602468
0.000595118
0.000587414
0.000579603
0.000571911
0.000564465
0.000557321
0.000550495
0.000543979
0.000537772
0.000531878
0.000526315
0.000521115
0.000516371
0.000510608
0.000494447
0.000469044
0.000435051
0.000395538
0.000359035
0.000334158
0.000159997
1.79512e-05
5.1428e-06
8.7178e-10
8.82357e-10
8.94698e-10
9.0864e-10
9.23855e-10
9.40041e-10
9.54533e-10
9.701e-10
0.000745463
0.000528958
0.000360145
0.000322092
0.000313823
0.000302926
0.000290137
0.000278116
0.000267716
0.000258855
0.000251368
0.000245153
0.00023986
0.000235302
0.000231367
0.000227848
0.00022458
0.000221585
0.000218725
0.000215989
0.000213388
0.000210958
0.00020869
0.000206572
0.000204579
0.000202746
0.000201051
0.000199397
0.000197801
0.000196284
0.000194797
0.000192806
0.000190931
0.000202733
0.000240176
0.000292294
0.000347543
0.000385844
0.000394165
0.000668559
0.000651801
0.000635962
0.000622792
0.000612089
0.00060167
0.000593488
0.000586879
0.00057963
0.00057222
0.000564919
0.000557917
0.00055135
0.000545178
0.000539338
0.000533797
0.000528522
0.000523504
0.00051875
0.000514299
0.000510433
0.000509732
0.000508623
0.00050144
0.000491212
0.000475965
0.000443816
0.000411388
0.000297147
6.79255e-05
1.97499e-05
8.75915e-10
8.85782e-10
8.97346e-10
9.10477e-10
9.24871e-10
9.40261e-10
9.54663e-10
9.70183e-10
0.000347343
0.00022993
0.000141824
0.000126767
0.000124448
0.000121471
0.000116424
0.000110275
0.0001047
9.99097e-05
9.49221e-05
9.03636e-05
8.66572e-05
8.32452e-05
8.04323e-05
7.83835e-05
7.67765e-05
7.57738e-05
7.52848e-05
7.52513e-05
7.55761e-05
7.62737e-05
7.7289e-05
7.82477e-05
7.87455e-05
7.90589e-05
7.94383e-05
7.98288e-05
8.02314e-05
8.06433e-05
8.10437e-05
8.12034e-05
8.13762e-05
8.74077e-05
0.000104714
0.000128827
0.000158086
0.000138872
0.000246179
0.000267914
0.000334885
0.000321079
0.000314651
0.000310891
0.000306469
0.000300265
0.000296125
0.000292622
0.000288805
0.000285113
0.000281901
0.000279202
0.000276923
0.000274933
0.000273201
0.000271725
0.0002705
0.00026956
0.0002689
0.000268086
0.000273939
0.00029626
0.000318792
0.000345653
0.000369008
0.000380463
0.000384083
0.000352604
0.000141848
1.84898e-06
5.32866e-07
8.89274e-10
9.00085e-10
9.12423e-10
9.2602e-10
9.40648e-10
9.54846e-10
9.70176e-10
0.000157621
0.000112883
0.000147101
0.000162508
0.00016854
0.000173749
0.000176877
0.000176909
0.000175764
0.000174143
0.000170572
0.000166328
0.000162617
0.000158642
0.000155166
0.000152749
0.000150965
0.000150125
0.000150232
0.000151169
0.000152745
0.000154947
0.00015765
0.00015998
0.000161017
0.000161365
0.000161653
0.000161869
0.000162028
0.000162127
0.000162185
0.000162223
0.000162275
0.000162269
0.000158933
0.000150954
0.000137218
0.000137723
8.07729e-05
0.000101053
0.000127099
0.000125941
0.000120741
0.000119822
0.000118769
0.000115074
0.000113064
0.000111254
0.000108861
0.000107071
0.00010549
0.000104173
0.000103344
0.0001027
0.000102316
0.000102134
0.00010213
0.000102271
0.000102528
0.000102668
0.000105212
0.000113973
0.00012258
0.000140863
0.000141048
0.000217562
0.000267603
0.000306197
0.000208432
3.63024e-05
1.06112e-05
8.92821e-10
9.02907e-10