/*--------------------------------*- C++ -*----------------------------------*\
| =========                 |                                                 |
| \\      /  F ield         | OpenFOAM: The Open Source CFD Toolbox           |
|  \\    /   O peration     | Version:  2312                                  |
|   \\  /    A nd           | Website:  www.openfoam.com                      |
|    \\/     M anipulation  |                                                 |
\*---------------------------------------------------------------------------*/
FoamFile
{
    version     2.0;
    format      ascii;
    arch        "LSB;label=32;scalar=64";
    class       volVectorField;
    location    "24.754835124792972";
    object      U;
}
// * * * * * * * * * * * * * * * * * * * * * * * * * * * * * * * * * * * * * //

dimensions      [0 1 -1 0 0 0 0];

internalField   nonuniform List<vector> 
21039
(
(0.913791 0.0474669 0)
(1.02605 0.0664963 0)
(1.00449 0.0294642 0)
(1.00177 0.0188918 0)
(1.00121 0.0138814 0)
(1.0008 0.0104994 0)
(1.00055 0.00817273 0)
(1.0004 0.00652998 0)
(1.0003 0.00532002 0)
(1.00023 0.00439901 0)
(1.00018 0.00368147 0)
(1.00015 0.00311241 0)
(1.00012 0.00265482 0)
(1.0001 0.00228315 0)
(1.00008 0.00197928 0)
(1.00006 0.00173008 0)
(1.00005 0.00152587 0)
(1.00004 0.00135934 0)
(1.00003 0.00122483 0)
(1.00002 0.00111775 0)
(1.00002 0.00103424 0)
(1.00001 0.000972238 0)
(1.00001 0.000933387 0)
(1.00001 0.000898826 0)
(1.00001 0.000872964 0)
(1.00001 0.000852606 0)
(1.00001 0.00083348 0)
(1.00001 0.000805585 0)
(1.00001 0.000747286 0)
(0.794642 0.0730792 0)
(1.07449 0.12166 0)
(1.03988 0.0707718 0)
(1.01811 0.0496667 0)
(1.01129 0.0382398 0)
(1.00764 0.0294504 0)
(1.00539 0.0231477 0)
(1.00396 0.0185661 0)
(1.003 0.0151051 0)
(1.00233 0.0124236 0)
(1.00185 0.010305 0)
(1.00148 0.00860259 0)
(1.00121 0.0072157 0)
(1.00099 0.00607391 0)
(1.00082 0.00512697 0)
(1.00067 0.00433833 0)
(1.00055 0.00368105 0)
(1.00045 0.0031349 0)
(1.00036 0.00268451 0)
(1.00029 0.0023179 0)
(1.00022 0.00202511 0)
(1.00016 0.00179972 0)
(1.00011 0.00164569 0)
(1.00009 0.00153199 0)
(1.00007 0.00146326 0)
(1.00007 0.00142158 0)
(1.00008 0.00139285 0)
(1.00009 0.0013578 0)
(1.0001 0.00128681 0)
(0.667451 0.0572707 0)
(1.08305 0.124746 0)
(1.08435 0.0901915 0)
(1.0463 0.0675874 0)
(1.02908 0.0540547 0)
(1.02026 0.0430808 0)
(1.0147 0.0347636 0)
(1.011 0.0283705 0)
(1.00845 0.0233293 0)
(1.00663 0.0193085 0)
(1.0053 0.0160624 0)
(1.00429 0.0134086 0)
(1.00352 0.0112159 0)
(1.00291 0.00938905 0)
(1.00242 0.00785796 0)
(1.00202 0.00657073 0)
(1.00168 0.00548851 0)
(1.00139 0.00458195 0)
(1.00113 0.00382871 0)
(1.00091 0.00321159 0)
(1.00071 0.00271653 0)
(1.00054 0.00233321 0)
(1.00039 0.00206737 0)
(1.00028 0.00188318 0)
(1.00022 0.00177952 0)
(1.00019 0.00172172 0)
(1.00019 0.00168604 0)
(1.0002 0.00164748 0)
(1.00021 0.00157306 0)
(0.541212 0.0352486 0)
(1.05085 0.110748 0)
(1.11592 0.0968805 0)
(1.07612 0.0761413 0)
(1.04926 0.0619614 0)
(1.03529 0.0508331 0)
(1.02645 0.0421394 0)
(1.02028 0.0350913 0)
(1.01586 0.0292868 0)
(1.01262 0.0245005 0)
(1.0102 0.0205279 0)
(1.00835 0.0172051 0)
(1.00691 0.0144078 0)
(1.00576 0.0120409 0)
(1.00482 0.0100312 0)
(1.00404 0.00832275 0)
(1.00338 0.00687274 0)
(1.00282 0.00564825 0)
(1.00232 0.00462399 0)
(1.00187 0.00378052 0)
(1.00148 0.00310221 0)
(1.00112 0.00257645 0)
(1.0008 0.0022104 0)
(1.00056 0.00196615 0)
(1.00041 0.00183417 0)
(1.00033 0.00176443 0)
(1.0003 0.0017249 0)
(1.00031 0.00168572 0)
(1.00031 0.00160889 0)
(0.444466 0.0186503 0)
(0.997938 0.0917801 0)
(1.12905 0.095482 0)
(1.10145 0.0792775 0)
(1.06827 0.065209 0)
(1.04981 0.0545036 0)
(1.03831 0.0460871 0)
(1.0301 0.0390192 0)
(1.02402 0.033012 0)
(1.01943 0.0279161 0)
(1.01593 0.0235729 0)
(1.01319 0.0198545 0)
(1.01102 0.016661 0)
(1.00926 0.013912 0)
(1.00781 0.0115435 0)
(1.00659 0.0095047 0)
(1.00555 0.00775594 0)
(1.00464 0.00626612 0)
(1.00384 0.00501109 0)
(1.00312 0.00397226 0)
(1.00246 0.00313495 0)
(1.00186 0.00248631 0)
(1.00131 0.00203536 0)
(1.0009 0.00174378 0)
(1.00063 0.00159286 0)
(1.00048 0.00151906 0)
(1.00041 0.00148319 0)
(1.00039 0.00145081 0)
(1.00038 0.00137644 0)
(0.379006 0.00808483 0)
(0.940037 0.0717421 0)
(1.12709 0.0880884 0)
(1.12086 0.078369 0)
(1.08556 0.0655853 0)
(1.06314 0.0555615 0)
(1.04938 0.04765 0)
(1.03958 0.0408527 0)
(1.03216 0.034938 0)
(1.02645 0.0298015 0)
(1.02198 0.025323 0)
(1.01842 0.0214085 0)
(1.01555 0.0179834 0)
(1.01319 0.0149855 0)
(1.01121 0.0123642 0)
(1.00953 0.0100789 0)
(1.00807 0.00809712 0)
(1.00679 0.0063932 0)
(1.00564 0.00494729 0)
(1.00459 0.00374426 0)
(1.00363 0.00277254 0)
(1.00273 0.00202112 0)
(1.00191 0.00150178 0)
(1.00128 0.00117726 0)
(1.00086 0.00101884 0)
(1.00061 0.000950828 0)
(1.00049 0.000928012 0)
(1.00044 0.000912208 0)
(1.0004 0.000849227 0)
(0.333885 0.002314 0)
(0.88392 0.0537256 0)
(1.11427 0.0776005 0)
(1.13396 0.0744781 0)
(1.10098 0.0638792 0)
(1.07545 0.0547541 0)
(1.05963 0.0474758 0)
(1.04851 0.0411204 0)
(1.04004 0.0354679 0)
(1.03339 0.0304471 0)
(1.02811 0.0259776 0)
(1.02383 0.021997 0)
(1.02032 0.0184538 0)
(1.01739 0.0153037 0)
(1.01491 0.0125105 0)
(1.01276 0.0100448 0)
(1.01088 0.00788323 0)
(1.0092 0.00600753 0)
(1.00767 0.00440406 0)
(1.00626 0.00306295 0)
(1.00495 0.00197763 0)
(1.00372 0.00114094 0)
(1.00258 0.000568534 0)
(1.00168 0.000222671 0)
(1.00108 6.56638e-05 0)
(1.00071 1.2277e-05 0)
(1.00052 8.11927e-06 0)
(1.00043 1.85814e-05 0)
(1.00035 4.97346e-06 0)
(0.301694 -0.000215423 0)
(0.832401 0.0394451 0)
(1.09425 0.0666548 0)
(1.14076 0.0689642 0)
(1.11404 0.0608647 0)
(1.08673 0.052714 0)
(1.0691 0.0460719 0)
(1.05688 0.0402189 0)
(1.04756 0.0349132 0)
(1.04016 0.0300969 0)
(1.03419 0.0257233 0)
(1.0293 0.0217581 0)
(1.02522 0.0181703 0)
(1.02178 0.0149327 0)
(1.01881 0.0120229 0)
(1.01622 0.00942289 0)
(1.01391 0.00711892 0)
(1.01182 0.00510101 0)
(1.00989 0.00336274 0)
(1.0081 0.0019008 0)
(1.0064 0.000714726 0)
(1.00479 -0.000198284 0)
(1.00329 -0.000816152 0)
(1.00209 -0.00117395 0)
(1.00127 -0.00131661 0)
(1.00076 -0.00134363 0)
(1.00047 -0.00131612 0)
(1.00033 -0.00128146 0)
(1.00019 -0.00130678 0)
(0.278839 -0.00101164 0)
(0.78698 0.0289369 0)
(1.0703 0.056613 0)
(1.14209 0.0628725 0)
(1.12444 0.0572195 0)
(1.09688 0.0500257 0)
(1.07778 0.0439232 0)
(1.06465 0.0385237 0)
(1.05466 0.033564 0)
(1.04668 0.0289772 0)
(1.04016 0.0247369 0)
(1.03475 0.020828 0)
(1.03019 0.0172358 0)
(1.02628 0.0139476 0)
(1.02287 0.0109533 0)
(1.01985 0.00824554 0)
(1.01712 0.00581984 0)
(1.01462 0.00367471 0)
(1.01229 0.00181153 0)
(1.01009 0.000233861 0)
(1.00798 -0.00105247 0)
(1.00596 -0.00204296 0)
(1.00404 -0.00270704 0)
(1.0025 -0.00307513 0)
(1.00142 -0.00320288 0)
(1.00072 -0.00319992 0)
(1.00032 -0.00313139 0)
(1.00008 -0.00305416 0)
(0.999875 -0.00305894 0)
(0.262533 -0.00105758 0)
(0.748036 0.0214933 0)
(1.04496 0.0478921 0)
(1.13928 0.056768 0)
(1.13236 0.0533342 0)
(1.10596 0.0470626 0)
(1.08579 0.0413915 0)
(1.07188 0.0363485 0)
(1.06137 0.0316799 0)
(1.05293 0.0272996 0)
(1.04597 0.023188 0)
(1.04014 0.0193411 0)
(1.03517 0.0157553 0)
(1.03086 0.0124283 0)
(1.02705 0.0093599 0)
(1.02364 0.00655176 0)
(1.02051 0.00400792 0)
(1.01761 0.001735 0)
(1.01487 -0.000258848 0)
(1.01224 -0.00196316 0)
(1.0097 -0.00336304 0)
(1.00722 -0.00444516 0)
(1.00485 -0.00517042 0)
(1.0029 -0.00556199 0)
(1.00152 -0.00568269 0)
(1.00061 -0.00565216 0)
(1.00004 -0.00554164 0)
(0.999681 -0.00541665 0)
(0.999357 -0.00538711 0)
(0.250455 -0.000839674 0)
(0.715069 0.0163258 0)
(1.01984 0.0405136 0)
(1.13355 0.050935 0)
(1.1381 0.0493973 0)
(1.11408 0.0440037 0)
(1.09327 0.0386853 0)
(1.07867 0.0339039 0)
(1.06773 0.0294553 0)
(1.05895 0.0252351 0)
(1.05165 0.0212227 0)
(1.04549 0.0174194 0)
(1.04017 0.0138278 0)
(1.03552 0.0104531 0)
(1.03136 0.00730188 0)
(1.02758 0.00438316 0)
(1.02408 0.00170819 0)
(1.02079 -0.000710765 0)
(1.01764 -0.00285859 0)
(1.01458 -0.00471579 0)
(1.01157 -0.00625877 0)
(1.00861 -0.00746493 0)
(1.00573 -0.00828504 0)
(1.00334 -0.00873116 0)
(1.0016 -0.00886767 0)
(1.00041 -0.00882433 0)
(0.999641 -0.00867993 0)
(0.999103 -0.00850986 0)
(0.99862 -0.00844437 0)
(0.241084 -0.000581081 0)
(0.687239 0.0127492 0)
(0.995838 0.0343541 0)
(1.1259 0.0455181 0)
(1.14202 0.0455154 0)
(1.12137 0.0409374 0)
(1.10036 0.0359188 0)
(1.08518 0.0313201 0)
(1.07387 0.0270218 0)
(1.06481 0.0229092 0)
(1.05725 0.0189562 0)
(1.05082 0.0151646 0)
(1.04523 0.0115409 0)
(1.04028 0.00809424 0)
(1.03582 0.00483645 0)
(1.03171 0.00178174 0)
(1.02787 -0.00105477 0)
(1.02421 -0.00365495 0)
(1.02065 -0.00599541 0)
(1.01716 -0.00804895 0)
(1.01367 -0.00978392 0)
(1.01018 -0.0111682 0)
(1.00676 -0.0121411 0)
(1.00386 -0.0126979 0)
(1.00171 -0.0128964 0)
(1.00019 -0.0128747 0)
(0.999141 -0.0127197 0)
(0.998361 -0.0125185 0)
(0.997659 -0.0124234 0)
(0.233545 -0.000372076 0)
(0.663714 0.0102263 0)
(0.973429 0.0292333 0)
(1.11704 0.0405747 0)
(1.14441 0.0417581 0)
(1.12788 0.037918 0)
(1.10714 0.0331628 0)
(1.0915 0.0286842 0)
(1.07986 0.0244731 0)
(1.07058 0.020416 0)
(1.06282 0.0164789 0)
(1.05618 0.0126614 0)
(1.05037 0.00897066 0)
(1.04519 0.00541828 0)
(1.04047 0.00201882 0)
(1.03608 -0.00121172 0)
(1.03193 -0.00425427 0)
(1.02792 -0.00708423 0)
(1.02398 -0.00967189 0)
(1.02005 -0.0119833 0)
(1.01607 -0.0139797 0)
(1.01204 -0.0156204 0)
(1.00804 -0.0168334 0)
(1.00458 -0.0175912 0)
(1.00195 -0.0179321 0)
(1.00003 -0.0179978 0)
(0.998627 -0.0178819 0)
(0.99752 -0.0176847 0)
(0.996515 -0.0175803 0)
(0.227327 -0.000230828 0)
(0.643764 0.00838275 0)
(0.952822 0.0249662 0)
(1.10756 0.0361047 0)
(1.14559 0.0381667 0)
(1.13371 0.0349817 0)
(1.11368 0.0304648 0)
(1.09772 0.0260599 0)
(1.0858 0.0218824 0)
(1.07634 0.0178326 0)
(1.06844 0.0138687 0)
(1.06165 0.00998527 0)
(1.05568 0.0061886 0)
(1.05032 0.00249007 0)
(1.04539 -0.00109618 0)
(1.04077 -0.00455283 0)
(1.03635 -0.00785687 0)
(1.03203 -0.0109791 0)
(1.02773 -0.0138849 0)
(1.02337 -0.0165344 0)
(1.01892 -0.0188827 0)
(1.01434 -0.020883 0)
(1.00973 -0.0224549 0)
(1.00569 -0.0235448 0)
(1.00253 -0.0241555 0)
(1.00013 -0.0244221 0)
(0.998264 -0.024439 0)
(0.996713 -0.0243183 0)
(0.995291 -0.0242531 0)
(0.222104 -0.000147367 0)
(0.626778 0.0069878 0)
(0.934063 0.0214178 0)
(1.09784 0.032109 0)
(1.14577 0.0347784 0)
(1.13888 0.0321532 0)
(1.11996 0.027852 0)
(1.10384 0.0234884 0)
(1.09169 0.0193027 0)
(1.08209 0.0152189 0)
(1.0741 0.011189 0)
(1.06721 0.00720161 0)
(1.06114 0.00325956 0)
(1.05565 -0.000628435 0)
(1.05057 -0.00444994 0)
(1.04578 -0.00818687 0)
(1.04114 -0.0118139 0)
(1.03655 -0.0152991 0)
(1.03192 -0.0186036 0)
(1.02717 -0.0216822 0)
(1.02225 -0.0244849 0)
(1.01713 -0.0269614 0)
(1.01194 -0.0290302 0)
(1.00735 -0.0306221 0)
(1.0037 -0.0316953 0)
(1.0008 -0.0323638 0)
(0.998399 -0.0327019 0)
(0.996283 -0.0328138 0)
(0.994305 -0.0328893 0)
(0.218022 -9.11223e-05 0)
(0.613307 0.00598494 0)
(0.918372 0.0186644 0)
(1.08898 0.0288109 0)
(1.14534 0.0318589 0)
(1.14323 0.0296792 0)
(1.12565 0.0255645 0)
(1.10953 0.0212243 0)
(1.09722 0.0170076 0)
(1.08754 0.0128665 0)
(1.0795 0.00874807 0)
(1.07258 0.00463382 0)
(1.06647 0.000521185 0)
(1.06093 -0.00358565 0)
(1.05579 -0.00767727 0)
(1.0509 -0.0117371 0)
(1.04612 -0.0157404 0)
(1.04134 -0.0196549 0)
(1.03647 -0.023439 0)
(1.0314 -0.0270418 0)
(1.02608 -0.0304052 0)
(1.0205 -0.0334715 0)
(1.0148 -0.0361537 0)
(1.00976 -0.0383731 0)
(1.00573 -0.0400673 0)
(1.00244 -0.041351 0)
(0.999546 -0.0422664 0)
(0.99678 -0.0428607 0)
(0.994039 -0.043256 0)
(0.215026 -5.67821e-05 0)
(0.603433 0.00530193 0)
(0.90639 0.0166835 0)
(1.08175 0.0263254 0)
(1.14465 0.0295962 0)
(1.14657 0.0277472 0)
(1.1303 0.0237793 0)
(1.11431 0.019453 0)
(1.10191 0.015203 0)
(1.09219 0.011005 0)
(1.08416 0.00680111 0)
(1.07726 0.00256506 0)
(1.07117 -0.00171147 0)
(1.06565 -0.00602981 0)
(1.06052 -0.0103853 0)
(1.05561 -0.0147652 0)
(1.05078 -0.0191493 0)
(1.04592 -0.0235082 0)
(1.0409 -0.0278017 0)
(1.03562 -0.0319756 0)
(1.03002 -0.0359636 0)
(1.02408 -0.0396947 0)
(1.01798 -0.0430549 0)
(1.01264 -0.0459258 0)
(1.00843 -0.0482428 0)
(1.00503 -0.0502028 0)
(1.002 -0.0519291 0)
(0.998924 -0.0534546 0)
(0.995702 -0.0546199 0)
(0.21271 -7.85678e-06 0)
(0.595875 0.00483709 0)
(0.896939 0.0152422 0)
(1.07573 0.0244391 0)
(1.1438 0.0278414 0)
(1.14916 0.0262472 0)
(1.13414 0.0224068 0)
(1.11831 0.0181021 0)
(1.10587 0.0138317 0)
(1.09613 0.0095904 0)
(1.08813 0.00531617 0)
(1.08129 0.000976155 0)
(1.07525 -0.00344363 0)
(1.06979 -0.00795007 0)
(1.06471 -0.0125443 0)
(1.05984 -0.01722 0)
(1.05504 -0.0219642 0)
(1.05016 -0.0267542 0)
(1.04509 -0.0315555 0)
(1.03971 -0.0363167 0)
(1.03393 -0.0409681 0)
(1.02773 -0.0454279 0)
(1.02131 -0.0495398 0)
(1.01568 -0.0530645 0)
(1.01133 -0.0558518 0)
(1.00801 -0.0581693 0)
(1.00533 -0.0603856 0)
(1.00298 -0.0628805 0)
(1.00035 -0.0650997 0)
(0.211245 -1.36985e-05 0)
(0.590696 0.00447574 0)
(0.890231 0.0142129 0)
(1.07136 0.0231014 0)
(1.14321 0.0265824 0)
(1.15119 0.0251355 0)
(1.13718 0.0213599 0)
(1.12155 0.0170668 0)
(1.10911 0.0127891 0)
(1.0994 0.00852123 0)
(1.09145 0.0041932 0)
(1.08468 -0.000232438 0)
(1.07874 -0.0047737 0)
(1.07337 -0.00944286 0)
(1.06838 -0.0142475 0)
(1.0636 -0.0191896 0)
(1.05889 -0.0242651 0)
(1.05408 -0.0294617 0)
(1.04906 -0.0347549 0)
(1.0437 -0.0401031 0)
(1.03789 -0.0454448 0)
(1.03162 -0.0507093 0)
(1.0251 -0.0557309 0)
(1.01939 -0.0601172 0)
(1.01497 -0.0634951 0)
(1.01169 -0.0659148 0)
(1.00926 -0.0674089 0)
(1.00764 -0.0686997 0)
(1.00779 -0.0736166 0)
(1.00002 0.000756048 0)
(1.00001 0.000757509 0)
(1.00001 0.000754038 0)
(1.00001 0.00075151 1.04845e-21)
(1.00001 0.000751009 5.22923e-21)
(1.00001 0.000752358 -9.40964e-21)
(1.00001 0.000755391 5.22596e-21)
(1.00001 0.000759994 -4.16411e-21)
(1 0.000766015 5.31863e-22)
(1 0.000773469 4.1624e-21)
(1 0.000782187 0)
(1 0.000792154 -4.65477e-21)
(0.999999 0.000803257 5.28556e-22)
(0.999998 0.000815366 4.13295e-21)
(0.999996 0.000828463 0)
(0.999995 0.000842383 0)
(0.999994 0.000857085 -4.09538e-21)
(0.999993 0.000872435 4.09796e-21)
(0.999992 0.000888274 0)
(0.99999 0.000904598 -2.03295e-21)
(0.999989 0.00092123 2.16078e-21)
(0.999989 0.000938053 1.89547e-21)
(0.999988 0.000955013 -3.03087e-21)
(0.999987 0.000971936 9.76922e-22)
(0.999986 0.000988728 3.1316e-23)
(0.999986 0.00100532 -6.25945e-23)
(0.999985 0.00102154 8.70939e-22)
(0.999985 0.00103731 -9.9553e-22)
(0.999985 0.00105258 0)
(0.999984 0.00106709 0)
(0.999984 0.00108082 -2.45764e-22)
(0.999984 0.0010938 -2.44776e-22)
(0.999984 0.00110588 -4.13643e-21)
(0.999985 0.00111704 3.40435e-21)
(0.999985 0.00112716 -4.34301e-21)
(0.999985 0.00113621 4.33754e-21)
(0.999986 0.00114415 -3.3464e-21)
(0.999987 0.00115086 3.34494e-21)
(0.999987 0.00115636 4.74727e-22)
(0.999988 0.00116053 4.7252e-22)
(0.999989 0.00116337 -4.7028e-22)
(0.99999 0.00116485 0)
(0.999992 0.00116486 0)
(0.999993 0.00116347 0)
(0.999995 0.00116057 0)
(0.999996 0.00115634 0)
(0.999998 0.00115064 1.8237e-21)
(0.999999 0.00114263 -1.82063e-21)
(1 0.00112827 0)
(1.00009 0.00129341 0)
(1.00008 0.0012938 2.11527e-21)
(1.00006 0.00129124 -2.10827e-21)
(1.00005 0.00129267 -1.0523e-21)
(1.00003 0.00129925 -1.05253e-21)
(1.00002 0.00131038 -3.14765e-21)
(1 0.00132577 5.2546e-21)
(0.99999 0.0013454 0)
(0.999977 0.00136874 -5.23001e-22)
(0.999965 0.00139593 -1.04504e-21)
(0.999953 0.00142649 0)
(0.999942 0.00146031 5.20232e-22)
(0.999931 0.00149722 -4.6679e-21)
(0.999921 0.00153676 4.15235e-21)
(0.999912 0.00157893 0)
(0.999903 0.00162331 1.0331e-21)
(0.999895 0.00166969 0)
(0.999888 0.00171792 0)
(0.999881 0.00176748 0)
(0.999875 0.00181832 -2.04188e-21)
(0.99987 0.00187013 1.9152e-21)
(0.999866 0.00192254 -1.27368e-22)
(0.999862 0.00197539 0)
(0.99986 0.00202837 -4.73145e-22)
(0.999858 0.00208116 4.96912e-22)
(0.999857 0.00213358 9.42357e-23)
(0.999857 0.00218531 1.25148e-22)
(0.999857 0.00223608 0)
(0.999859 0.0022857 -1.98567e-21)
(0.999861 0.00233387 1.98523e-21)
(0.999864 0.00238036 -3.69521e-21)
(0.999868 0.00242496 8.11304e-21)
(0.999872 0.0024674 -3.68014e-21)
(0.999877 0.00250751 4.87665e-22)
(0.999883 0.00254499 4.85672e-22)
(0.99989 0.00257971 4.84113e-22)
(0.999898 0.00261145 -4.81488e-22)
(0.999906 0.00263995 4.30801e-21)
(0.999915 0.00266515 -3.34727e-21)
(0.999925 0.00268672 -1.4253e-21)
(0.999935 0.00270459 5.19414e-21)
(0.999946 0.00271858 -3.77112e-21)
(0.999958 0.00272843 -1.87317e-21)
(0.99997 0.00273417 3.72082e-21)
(0.999983 0.00273538 -7.41891e-21)
(0.999997 0.00273228 3.69708e-21)
(1.00001 0.00272464 1.8326e-21)
(1.00003 0.00271167 -3.85269e-24)
(1.00004 0.00268834 0)
(1.00018 0.00157063 3.18281e-21)
(1.00014 0.0015704 -1.06262e-21)
(1.0001 0.00157277 -4.23434e-21)
(1.00006 0.001582 2.11117e-21)
(1.00002 0.00159933 -2.11101e-21)
(0.999978 0.0016239 0)
(0.999939 0.00165543 -2.10116e-21)
(0.999902 0.00169401 -6.29266e-21)
(0.999867 0.00173855 6.29422e-21)
(0.999833 0.00178949 1.04501e-21)
(0.999802 0.00184589 0)
(0.999772 0.0019076 -6.24911e-21)
(0.999744 0.0019745 1.13524e-23)
(0.999718 0.00204558 4.15696e-21)
(0.999694 0.00212105 0)
(0.999673 0.00220013 -1.03244e-21)
(0.999653 0.00228243 -1.03249e-21)
(0.999635 0.00236793 0)
(0.99962 0.00245554 -1.02739e-21)
(0.999606 0.00254526 -2.04343e-21)
(0.999595 0.0026367 2.04404e-21)
(0.999587 0.00272909 -2.55332e-22)
(0.99958 0.00282228 -2.54019e-22)
(0.999576 0.0029158 0)
(0.999573 0.00300903 3.93342e-23)
(0.999574 0.00310171 -2.20046e-22)
(0.999576 0.00319344 0)
(0.999581 0.00328362 0)
(0.999588 0.00337199 -1.98608e-21)
(0.999597 0.00345814 1.9857e-21)
(0.999608 0.00354158 -3.94236e-21)
(0.999621 0.003622 3.94104e-21)
(0.999636 0.00369899 0)
(0.999653 0.00377219 0)
(0.999673 0.00384119 0)
(0.999694 0.00390571 -9.66929e-22)
(0.999717 0.00396535 -1.92714e-21)
(0.999742 0.00401975 0)
(0.999769 0.00406872 -9.54117e-22)
(0.999798 0.00411171 -9.42505e-22)
(0.999829 0.00414865 2.84368e-21)
(0.999862 0.00417912 0)
(0.999896 0.00420273 3.739e-21)
(0.999932 0.00421949 -5.59707e-21)
(0.999969 0.00422866 0)
(1.00001 0.00423047 0)
(1.00005 0.00422436 0)
(1.00009 0.00420947 -1.82708e-21)
(1.00014 0.00418174 -1.81587e-21)
(1.00026 0.00159813 -2.12648e-21)
(1.00019 0.00160195 4.25642e-21)
(1.0001 0.00161484 4.24888e-21)
(1.00002 0.00163724 6.35274e-21)
(0.999941 0.00167077 -2.12236e-21)
(0.999863 0.00171443 -4.21774e-21)
(0.999788 0.00176791 8.43369e-21)
(0.999717 0.00183155 -3.99093e-24)
(0.999649 0.00190349 -2.0985e-21)
(0.999585 0.00198464 2.10111e-21)
(0.999524 0.00207347 0)
(0.999467 0.00216981 2.08654e-21)
(0.999414 0.00227364 -2.07495e-21)
(0.999365 0.00238326 8.32311e-21)
(0.999321 0.00249922 -8.30427e-21)
(0.99928 0.00262025 6.22423e-21)
(0.999243 0.0027458 -1.03915e-21)
(0.999211 0.00287605 1.03279e-21)
(0.999183 0.00300916 1.02659e-21)
(0.999159 0.00314529 -1.02745e-21)
(0.99914 0.00328397 0)
(0.999125 0.0034239 -1.52676e-21)
(0.999115 0.00356502 1.27514e-21)
(0.999109 0.00370669 1.01495e-21)
(0.999107 0.0038479 4.73216e-23)
(0.99911 0.00398839 9.41621e-23)
(0.999117 0.00412762 1.50394e-21)
(0.999128 0.00426464 -1.00136e-21)
(0.999144 0.00439914 1.98834e-21)
(0.999164 0.00453059 -1.98801e-21)
(0.999188 0.0046582 0)
(0.999216 0.00478159 4.91599e-21)
(0.999248 0.00490021 -3.92888e-21)
(0.999285 0.00501343 3.89735e-21)
(0.999325 0.00512083 -3.89591e-21)
(0.999369 0.00522191 0)
(0.999417 0.00531611 3.84352e-21)
(0.999468 0.00540297 -1.92446e-21)
(0.999524 0.00548218 0)
(0.999583 0.00555299 3.79467e-21)
(0.999645 0.00561529 -3.78966e-21)
(0.999712 0.00566846 1.88209e-21)
(0.999781 0.00571198 1.87285e-21)
(0.999854 0.00574587 5.58886e-21)
(0.99993 0.00576904 6.44603e-24)
(1.00001 0.00578184 3.69599e-21)
(1.00009 0.00578327 1.83131e-21)
(1.00018 0.00577242 1.8197e-21)
(1.00028 0.00574653 1.81724e-21)
(1.0003 0.00136142 0)
(1.00018 0.0013762 -4.26241e-21)
(1.00005 0.00140705 -4.25298e-21)
(0.999917 0.00145018 0)
(0.999785 0.00150778 -4.24234e-21)
(0.999657 0.00157861 9.98146e-24)
(0.999533 0.00166235 8.48411e-21)
(0.999416 0.00175963 -2.12454e-21)
(0.999304 0.00186771 -1.03294e-23)
(0.999198 0.00198811 -6.31758e-21)
(0.999099 0.00211857 0)
(0.999006 0.00225896 -6.29325e-21)
(0.998919 0.00240938 2.1026e-21)
(0.99884 0.00256729 0)
(0.998767 0.00273372 -2.08954e-21)
(0.998701 0.0029068 9.98535e-24)
(0.998642 0.00308578 -2.07241e-21)
(0.99859 0.00327118 7.24168e-21)
(0.998545 0.00346019 -1.2451e-23)
(0.998507 0.00365321 -1.04033e-21)
(0.998477 0.00384972 -1.02621e-21)
(0.998454 0.00404776 2.04197e-21)
(0.998438 0.00424742 -2.04227e-21)
(0.99843 0.00444787 -2.52547e-22)
(0.998429 0.00464765 5.23036e-22)
(0.998435 0.00484652 -2.82424e-22)
(0.998448 0.00504379 1.00558e-21)
(0.998469 0.00523809 -1.00369e-21)
(0.998497 0.0054291 1.0001e-21)
(0.998531 0.00561615 1.98461e-21)
(0.998573 0.0057981 -5.93678e-21)
(0.998622 0.00597454 -9.69426e-22)
(0.998677 0.00614472 5.90212e-21)
(0.998739 0.00630778 1.95785e-21)
(0.998808 0.00646324 -3.88538e-21)
(0.998883 0.00661041 3.88303e-21)
(0.998964 0.00674854 8.40115e-24)
(0.999052 0.00687709 5.76059e-21)
(0.999146 0.00699561 -3.83893e-21)
(0.999246 0.00710316 -9.51519e-21)
(0.999352 0.00719962 3.78483e-21)
(0.999464 0.00728415 1.88325e-21)
(0.999581 0.00735612 7.48383e-21)
(0.999704 0.00741558 -3.73345e-21)
(0.999833 0.0074611 -8.60937e-24)
(0.999968 0.00749319 -9.33999e-24)
(1.00011 0.00751043 0)
(1.00026 0.00751195 -3.65087e-21)
(1.00042 0.00749693 -3.6252e-21)
(1.00029 0.000836851 0)
(1.00011 0.000871187 -6.44608e-21)
(0.999919 0.000928907 6.4367e-21)
(0.999719 0.00100203 0)
(0.999522 0.00109353 0)
(0.999329 0.00120181 -4.25893e-21)
(0.999144 0.00132654 -2.91607e-24)
(0.998967 0.00146866 -4.25898e-21)
(0.998799 0.00162432 -8.69944e-24)
(0.99864 0.00179584 0)
(0.99849 0.00198006 0)
(0.99835 0.00217692 2.10336e-21)
(0.998221 0.00238669 0)
(0.998101 0.00260581 0)
(0.997991 0.00283592 -2.09441e-21)
(0.997892 0.00307442 4.19748e-21)
(0.997804 0.00332036 2.09155e-21)
(0.997726 0.00357468 0)
(0.99766 0.00383337 2.05946e-21)
(0.997604 0.00409721 -5.17714e-21)
(0.997559 0.00436558 -2.06115e-21)
(0.997525 0.00463577 -2.05064e-21)
(0.997503 0.00490805 2.05083e-21)
(0.997491 0.00518138 1.40667e-24)
(0.997491 0.00545378 1.59316e-23)
(0.997501 0.00572502 2.52869e-22)
(0.997523 0.00599429 -5.05484e-22)
(0.997555 0.0062597 0)
(0.997599 0.00652094 -9.99052e-22)
(0.997653 0.00677719 0)
(0.997717 0.0070269 0)
(0.997793 0.00726964 -1.98109e-21)
(0.997878 0.00750445 -7.86504e-21)
(0.997974 0.0077302 2.30633e-23)
(0.998079 0.00794636 1.9552e-21)
(0.998194 0.00815203 0)
(0.99832 0.00834625 -1.92897e-21)
(0.998454 0.00852841 -3.84825e-21)
(0.998598 0.0086979 3.82051e-21)
(0.998751 0.00885359 7.61034e-21)
(0.998912 0.00899537 -7.56997e-21)
(0.999083 0.00912218 2.41772e-24)
(0.999262 0.00923326 -3.74523e-21)
(0.999449 0.00932875 -4.24437e-25)
(0.999645 0.00940682 0)
(0.99985 0.00946822 -3.68558e-21)
(1.00006 0.00951099 -1.82764e-21)
(1.00029 0.00953453 1.82627e-21)
(1.00053 0.00954103 3.62724e-21)
(1.00017 6.75726e-06 0)
(0.999927 4.84729e-05 4.30967e-21)
(0.999667 0.000140944 -1.29484e-20)
(0.999389 0.000256373 0)
(0.99911 0.00039482 0)
(0.998837 0.000554137 -8.59711e-21)
(0.998575 0.000733636 8.56604e-21)
(0.998323 0.000934822 -4.29425e-21)
(0.998084 0.00115267 -8.82734e-24)
(0.997858 0.00139051 4.26761e-21)
(0.997645 0.00164406 0)
(0.997446 0.00191333 0)
(0.997261 0.00219884 4.25352e-21)
(0.997091 0.00249578 0)
(0.996935 0.00280656 0)
(0.996794 0.00312771 -4.20752e-21)
(0.996669 0.00345806 1.57669e-23)
(0.996558 0.00379902 0)
(0.996464 0.00414524 2.07854e-21)
(0.996385 0.00449788 5.19949e-21)
(0.996321 0.00485625 -2.08323e-21)
(0.996274 0.00521676 0)
(0.996242 0.00557989 -1.02735e-21)
(0.996227 0.00594435 1.28353e-21)
(0.996227 0.00630756 -5.59735e-22)
(0.996243 0.00666931 -2.55309e-22)
(0.996275 0.00702863 5.03095e-22)
(0.996323 0.00738308 -1.01146e-21)
(0.996387 0.00773228 0)
(0.996465 0.00807528 -4.00471e-21)
(0.996559 0.00841004 5.97265e-21)
(0.996668 0.00873612 1.96153e-21)
(0.996792 0.00905231 -7.95556e-24)
(0.99693 0.00935714 1.9586e-21)
(0.997083 0.00965004 -1.96702e-21)
(0.997249 0.0099299 -3.88011e-21)
(0.997429 0.0101955 7.73759e-21)
(0.997623 0.0104461 -3.85399e-21)
(0.99783 0.010681 7.66935e-21)
(0.99805 0.0108989 6.50778e-24)
(0.998282 0.0110996 7.57433e-21)
(0.998526 0.0112817 -3.76381e-21)
(0.998782 0.0114446 0)
(0.99905 0.0115883 -2.60008e-25)
(0.99933 0.0117107 7.40386e-21)
(0.999622 0.0118128 0)
(0.999927 0.011892 0)
(1.00025 0.0119481 6.36178e-21)
(1.00059 0.0119879 9.06464e-22)
(0.999934 -0.00128395 1.08863e-21)
(0.9996 -0.0011121 7.6529e-21)
(0.999235 -0.000952508 8.66217e-21)
(0.998857 -0.000828824 -8.72167e-21)
(0.998482 -0.000635501 0)
(0.998122 -0.000409465 -1.17129e-23)
(0.997766 -0.000158507 -4.35852e-21)
(0.997423 0.000118979 -4.34578e-21)
(0.997097 0.000417099 1.29456e-20)
(0.996787 0.000739971 -4.30339e-21)
(0.996496 0.00108203 0)
(0.996224 0.0014435 8.58065e-21)
(0.99597 0.00182513 -8.53022e-21)
(0.995736 0.00222069 2.65671e-23)
(0.995523 0.00263346 8.50171e-21)
(0.995329 0.00305897 -2.13447e-21)
(0.995157 0.00349574 -2.07866e-21)
(0.995006 0.00394575 4.22141e-21)
(0.994876 0.0044021 0)
(0.994768 0.00486643 -2.08621e-21)
(0.994681 0.00533785 2.08798e-21)
(0.994616 0.00581184 2.07613e-21)
(0.994574 0.00628909 -2.07607e-21)
(0.994553 0.00676797 2.59157e-22)
(0.994554 0.00724528 3.20104e-23)
(0.994578 0.00772075 7.65858e-22)
(0.994623 0.00819319 -2.76209e-24)
(0.99469 0.00865957 0)
(0.994779 0.00911941 0)
(0.994888 0.00957152 -1.21268e-24)
(0.995019 0.0100134 -1.98707e-21)
(0.995171 0.0104444 3.99197e-21)
(0.995344 0.0108632 -3.96352e-21)
(0.995536 0.0112678 3.93135e-21)
(0.995748 0.0116576 -7.86192e-21)
(0.995979 0.0120313 1.84689e-23)
(0.996229 0.0123872 3.88745e-21)
(0.996497 0.0127247 3.84686e-21)
(0.996783 0.0130427 -7.68802e-21)
(0.997087 0.0133396 -7.63162e-21)
(0.997407 0.0136155 -3.80041e-21)
(0.997743 0.0138686 -3.77649e-21)
(0.998095 0.0140981 0)
(0.998463 0.0143042 -3.72046e-21)
(0.998846 0.0144843 -4.25422e-24)
(0.999245 0.0146398 7.34677e-21)
(0.999662 0.0147673 -9.11975e-21)
(1.0001 0.0148673 1.80392e-21)
(1.00057 0.0149531 0)
(0.999531 -0.00302332 0)
(0.999093 -0.00282636 -8.74888e-21)
(0.998598 -0.00258969 0)
(0.998097 -0.00233194 8.7309e-21)
(0.997598 -0.00200981 4.37451e-21)
(0.997111 -0.00170468 -8.74441e-21)
(0.99664 -0.00140236 1.30672e-20)
(0.996189 -0.00103359 4.3376e-21)
(0.995761 -0.000634536 -4.33225e-21)
(0.99535 -0.000204951 0)
(0.994962 0.000248333 4.32931e-21)
(0.994598 0.000725905 -8.6355e-21)
(0.99426 0.00122849 4.33821e-21)
(0.993947 0.00174818 -4.28386e-21)
(0.993661 0.00228925 3.04148e-23)
(0.993402 0.00284603 4.28657e-21)
(0.993171 0.00341667 -8.54144e-21)
(0.992968 0.00400368 0)
(0.992794 0.00459855 4.23367e-21)
(0.992649 0.00520334 -4.23363e-21)
(0.992533 0.00581692 -1.04776e-21)
(0.992446 0.00643375 0)
(0.992389 0.00705463 1.05001e-21)
(0.992362 0.00767756 2.60098e-22)
(0.992364 0.00829865 -5.51483e-22)
(0.992397 0.00891743 7.73436e-22)
(0.992459 0.00953244 5.09696e-22)
(0.992551 0.01014 -1.02379e-21)
(0.992672 0.0107394 0)
(0.992821 0.0113292 -2.01762e-21)
(0.992999 0.0119062 4.03643e-21)
(0.993206 0.0124697 0)
(0.99344 0.0130179 1.98463e-21)
(0.993701 0.0135483 0)
(0.993988 0.0140602 3.9263e-21)
(0.994301 0.0145521 -7.82555e-21)
(0.994639 0.0150218 3.87698e-21)
(0.995001 0.0154684 -2.22077e-23)
(0.995387 0.0158909 3.81247e-21)
(0.995796 0.0162872 -3.82886e-21)
(0.996226 0.0166575 3.7895e-21)
(0.996677 0.0169996 7.54025e-21)
(0.997148 0.0173127 0)
(0.99764 0.0175971 0)
(0.998151 0.0178496 -7.39375e-21)
(0.998682 0.0180721 -1.46775e-20)
(0.999237 0.0182602 1.45778e-20)
(0.999818 0.0184157 -8.15447e-21)
(1.00044 0.0185604 8.08257e-21)
(0.998896 -0.00532066 0)
(0.99833 -0.00505863 8.90783e-21)
(0.997704 -0.00473493 8.8945e-21)
(0.997059 -0.00438158 1.33239e-20)
(0.996408 -0.00398061 -1.3317e-20)
(0.995763 -0.00355283 -4.41574e-21)
(0.995145 -0.00308571 1.33052e-20)
(0.994551 -0.00256857 -4.40448e-21)
(0.993986 -0.00205587 4.40784e-21)
(0.993448 -0.00151719 0)
(0.992944 -0.000929166 8.82614e-21)
(0.992468 -0.000307028 0)
(0.992022 0.000346119 -4.3398e-21)
(0.991611 0.00102094 -4.38296e-21)
(0.991234 0.00172259 5.25237e-23)
(0.990892 0.00244389 0)
(0.990587 0.0031825 4.32731e-21)
(0.990319 0.00394143 8.63608e-21)
(0.990088 0.00471047 0)
(0.989895 0.00549208 2.13147e-21)
(0.989741 0.00628468 -2.13079e-21)
(0.989627 0.0070817 -2.11402e-21)
(0.989552 0.00788394 2.12542e-21)
(0.989516 0.00868886 -4.26335e-24)
(0.98952 0.00949185 -5.23767e-22)
(0.989564 0.010292 -2.30333e-22)
(0.989648 0.0110875 -5.18648e-22)
(0.989771 0.011874 1.03477e-21)
(0.989933 0.0126502 0)
(0.990134 0.0134142 2.03113e-21)
(0.990373 0.0141624 -4.04727e-21)
(0.99065 0.0148933 0)
(0.990963 0.0156051 0)
(0.991312 0.0162944 3.96479e-21)
(0.991696 0.0169601 -7.90602e-21)
(0.992113 0.0176007 3.94108e-21)
(0.992564 0.0182132 3.91288e-21)
(0.993046 0.0187965 0)
(0.993559 0.0193494 1.15477e-20)
(0.9941 0.0198693 -7.64716e-21)
(0.994669 0.0203567 -3.79309e-21)
(0.995265 0.0208087 1.13929e-23)
(0.995886 0.0212244 -7.49142e-21)
(0.996532 0.0216045 -7.42883e-21)
(0.997202 0.0219451 -7.37772e-21)
(0.997898 0.0222488 1.13176e-23)
(0.998621 0.0225099 -1.69987e-23)
(0.999378 0.0227316 0)
(1.00018 0.0229473 -1.43283e-20)
(0.998001 -0.00833367 0)
(0.997271 -0.00797579 2.33238e-21)
(0.996474 -0.00754277 -1.11307e-20)
(0.99565 -0.0070744 -8.90061e-21)
(0.99482 -0.00655738 8.89221e-21)
(0.994001 -0.00599677 4.52746e-21)
(0.993204 -0.00538919 -4.41382e-21)
(0.992433 -0.00473284 0)
(0.991692 -0.00404589 0)
(0.990992 -0.00330429 8.96351e-21)
(0.990332 -0.0025377 -8.83349e-21)
(0.989711 -0.00175196 4.43132e-21)
(0.98913 -0.000917916 -4.42773e-21)
(0.988592 -5.0667e-05 4.42262e-21)
(0.988099 0.000851002 4.42706e-21)
(0.98765 0.00177776 -4.39202e-21)
(0.98725 0.00272678 -4.34482e-21)
(0.986896 0.00370139 -4.32786e-21)
(0.986592 0.00468968 4.33224e-21)
(0.986338 0.00569434 -4.33121e-21)
(0.986135 0.00671313 0)
(0.985983 0.00773843 2.15823e-21)
(0.985884 0.00877078 -2.12443e-21)
(0.985837 0.00980688 1.59144e-21)
(0.985842 0.0108413 0)
(0.985902 0.0118725 1.05108e-21)
(0.986013 0.0128979 0)
(0.986177 0.0139124 -1.03354e-21)
(0.986393 0.014914 1.80962e-23)