/*--------------------------------*- C++ -*----------------------------------*\
| =========                 |                                                 |
| \\      /  F ield         | OpenFOAM: The Open Source CFD Toolbox           |
|  \\    /   O peration     | Version:  2312                                  |
|   \\  /    A nd           | Website:  www.openfoam.com                      |
|    \\/     M anipulation  |                                                 |
\*---------------------------------------------------------------------------*/
FoamFile
{
    version     2.0;
    format      ascii;
    arch        "LSB;label=32;scalar=64";
    class       volVectorField;
    location    "4.702011922575791";
    object      U;
}
// * * * * * * * * * * * * * * * * * * * * * * * * * * * * * * * * * * * * * //

dimensions      [0 1 -1 0 0 0 0];

internalField   nonuniform List<vector> 
21039
(
(0.914259 0.0482585 0)
(1.02578 0.0668446 0)
(1.00448 0.0290242 0)
(1.00179 0.018926 0)
(1.0012 0.0139135 0)
(1.00079 0.0105336 0)
(1.00054 0.00823059 0)
(1.00039 0.00661479 0)
(1.00029 0.00543184 0)
(1.00022 0.00453787 0)
(1.00017 0.00384693 0)
(1.00013 0.00330348 0)
(1.00011 0.00287002 0)
(1.00008 0.00252056 0)
(1.00007 0.00223654 0)
(1.00005 0.00200443 0)
(1.00004 0.00181412 0)
(1.00003 0.00165788 0)
(1.00002 0.00152964 0)
(1.00002 0.00142442 0)
(1.00001 0.00133786 0)
(1.00001 0.00126797 0)
(1.00001 0.00121816 0)
(1.00001 0.00116448 0)
(1.00001 0.00111749 0)
(1.00002 0.00107563 0)
(1.00002 0.00103637 0)
(1.00002 0.000985184 0)
(1.00003 0.000891683 0)
(0.795777 0.0735881 0)
(1.07401 0.12159 0)
(1.03974 0.0700148 0)
(1.01815 0.0495087 0)
(1.01126 0.0380326 0)
(1.00758 0.0292459 0)
(1.00532 0.0229879 0)
(1.00389 0.018446 0)
(1.00293 0.0150225 0)
(1.00226 0.0123776 0)
(1.00178 0.0102931 0)
(1.00142 0.00862079 0)
(1.00115 0.0072587 0)
(1.00094 0.00613533 0)
(1.00077 0.00519933 0)
(1.00064 0.00441317 0)
(1.00053 0.00374894 0)
(1.00044 0.00318555 0)
(1.00036 0.00270686 0)
(1.0003 0.00230031 0)
(1.00025 0.00195539 0)
(1.0002 0.00166485 0)
(1.00017 0.001437 0)
(1.00016 0.00123886 0)
(1.00016 0.00108787 0)
(1.00018 0.00097162 0)
(1.0002 0.000876158 0)
(1.00022 0.000780711 0)
(1.00024 0.000639048 0)
(0.668649 0.0573316 0)
(1.08285 0.124227 0)
(1.0841 0.0891638 0)
(1.04627 0.0670435 0)
(1.02902 0.053428 0)
(1.02016 0.0424511 0)
(1.01459 0.0341768 0)
(1.01089 0.0278121 0)
(1.00833 0.0227963 0)
(1.00652 0.0187984 0)
(1.00519 0.0155695 0)
(1.0042 0.0129247 0)
(1.00345 0.010731 0)
(1.00286 0.00889127 0)
(1.00239 0.00733382 0)
(1.00201 0.0060052 0)
(1.0017 0.00486516 0)
(1.00144 0.00388321 0)
(1.00122 0.0030361 0)
(1.00103 0.00230576 0)
(1.00087 0.00167848 0)
(1.00074 0.00114171 0)
(1.00062 0.000705939 0)
(1.00056 0.000342907 0)
(1.00054 7.554e-05 0)
(1.00054 -0.000128175 0)
(1.00057 -0.000292579 0)
(1.00061 -0.000448224 0)
(1.00064 -0.000645243 0)
(0.542767 0.0351489 0)
(1.05135 0.109971 0)
(1.11571 0.0954788 0)
(1.07597 0.075055 0)
(1.04915 0.0608268 0)
(1.03517 0.0497039 0)
(1.0263 0.041041 0)
(1.02013 0.0340074 0)
(1.01571 0.0282171 0)
(1.01249 0.0234406 0)
(1.01009 0.0194681 0)
(1.00827 0.016133 0)
(1.00687 0.0133081 0)
(1.00576 0.0108956 0)
(1.00487 0.00882011 0)
(1.00414 0.00702351 0)
(1.00354 0.00546103 0)
(1.00304 0.0040983 0)
(1.00261 0.00290902 0)
(1.00223 0.00187225 0)
(1.00191 0.000972723 0)
(1.00162 0.00019544 0)
(1.00137 -0.000444741 0)
(1.00121 -0.000973643 0)
(1.00114 -0.00136447 0)
(1.00112 -0.00166368 0)
(1.00114 -0.00190408 0)
(1.0012 -0.00212558 0)
(1.00124 -0.00238403 0)
(0.446816 0.0184857 0)
(0.999591 0.0907507 0)
(1.12916 0.0935765 0)
(1.10118 0.0774787 0)
(1.06811 0.0634308 0)
(1.04967 0.0527509 0)
(1.03815 0.0443496 0)
(1.02993 0.037283 0)
(1.02386 0.031279 0)
(1.01931 0.0261789 0)
(1.01584 0.0218178 0)
(1.01316 0.0180643 0)
(1.01105 0.0148147 0)
(1.00936 0.011985 0)
(1.008 0.009508 0)
(1.00688 0.00733028 0)
(1.00594 0.00540962 0)
(1.00514 0.00371323 0)
(1.00445 0.00221557 0)
(1.00384 0.000894896 0)
(1.0033 -0.00026261 0)
(1.00282 -0.00127011 0)
(1.0024 -0.00210988 0)
(1.00211 -0.0028031 0)
(1.00195 -0.00331742 0)
(1.00189 -0.00371196 0)
(1.00191 -0.00402817 0)
(1.00197 -0.00431307 0)
(1.00202 -0.00463367 0)
(0.382315 0.0078625 0)
(0.943314 0.0704282 0)
(1.12789 0.0855663 0)
(1.12056 0.0756958 0)
(1.0853 0.0629836 0)
(1.06298 0.0530184 0)
(1.04922 0.0451187 0)
(1.03941 0.0383179 0)
(1.03202 0.0324002 0)
(1.02635 0.0272486 0)
(1.02195 0.022736 0)
(1.01848 0.0187637 0)
(1.0157 0.015252 0)
(1.01346 0.0121344 0)
(1.01162 0.0093562 0)
(1.01008 0.00687339 0)
(1.00878 0.00465047 0)
(1.00766 0.00265993 0)
(1.00669 0.00087904 0)
(1.00582 -0.000710543 0)
(1.00504 -0.0021196 0)
(1.00433 -0.00335773 0)
(1.00369 -0.00440203 0)
(1.00324 -0.00526574 0)
(1.00297 -0.0059103 0)
(1.00286 -0.0064062 0)
(1.00287 -0.00680251 0)
(1.00294 -0.00715352 0)
(1.00299 -0.00754088 0)
(0.338261 0.0020419 0)
(0.889303 0.0521107 0)
(1.11623 0.074391 0)
(1.13377 0.0708168 0)
(1.1006 0.0603122 0)
(1.07524 0.0513188 0)
(1.05946 0.0440948 0)
(1.04835 0.0377674 0)
(1.03991 0.032137 0)
(1.03334 0.0271184 0)
(1.02815 0.0226228 0)
(1.024 0.018582 0)
(1.02065 0.014938 0)
(1.0179 0.0116413 0)
(1.01561 0.00865061 0)
(1.01368 0.00593245 0)
(1.01202 0.00345997 0)
(1.01058 0.00121231 0)
(1.00931 -0.000829431 0)
(1.00817 -0.00267705 0)
(1.00712 -0.00433563 0)
(1.00615 -0.00581132 0)
(1.00527 -0.0070755 0)
(1.00463 -0.00812891 0)
(1.00425 -0.00892375 0)
(1.00408 -0.00953958 0)
(1.00406 -0.0100316 0)
(1.00413 -0.0104615 0)
(1.00416 -0.0109281 0)
(0.307333 -0.000509766 0)
(0.840435 0.037491 0)
(1.09791 0.0626909 0)
(1.14087 0.0642289 0)
(1.11343 0.0562504 0)
(1.08634 0.0483753 0)
(1.06882 0.0419087 0)
(1.05664 0.0361816 0)
(1.04738 0.0309807 0)
(1.04009 0.0262354 0)
(1.03428 0.0218896 0)
(1.02958 0.0179013 0)
(1.02573 0.0142321 0)
(1.02255 0.0108485 0)
(1.01987 0.00772232 0)
(1.01758 0.00483059 0)
(1.0156 0.00215585 0)
(1.01386 -0.000318133 0)
(1.0123 -0.00260381 0)
(1.01088 -0.00470468 0)
(1.00956 -0.00662086 0)
(1.00832 -0.00835303 0)
(1.00718 -0.00986634 0)
(1.00634 -0.0111445 0)
(1.00582 -0.0121246 0)
(1.00558 -0.012892 0)
(1.00554 -0.0135064 0)
(1.00559 -0.0140375 0)
(1.0056 -0.0146031 0)
(0.285995 -0.0013007 0)
(0.798297 0.026567 0)
(1.07621 0.0517773 0)
(1.14268 0.0569411 0)
(1.12345 0.051466 0)
(1.09606 0.044771 0)
(1.07718 0.0390497 0)
(1.06416 0.0339418 0)
(1.05429 0.0292244 0)
(1.04648 0.0248232 0)
(1.04019 0.0207026 0)
(1.03507 0.0168387 0)
(1.03084 0.0132092 0)
(1.0273 0.00979413 0)
(1.0243 0.00657722 0)
(1.02172 0.00354535 0)
(1.01946 0.000686804 0)
(1.01746 -0.00200979 0)
(1.01564 -0.00454773 0)
(1.01397 -0.00692303 0)
(1.01239 -0.00913001 0)
(1.01088 -0.0111625 0)
(1.00948 -0.0129784 0)
(1.00843 -0.0145388 0)
(1.00778 -0.0157571 0)
(1.00747 -0.0167218 0)
(1.00739 -0.0174961 0)
(1.00741 -0.0181591 0)
(1.00738 -0.0188509 0)
(0.271495 -0.00133074 0)
(0.763386 0.0186186 0)
(1.05374 0.0420076 0)
(1.14048 0.0494336 0)
(1.13073 0.0462458 0)
(1.10434 0.0407454 0)
(1.08455 0.0357138 0)
(1.07087 0.0311592 0)
(1.06058 0.0268836 0)
(1.05243 0.022806 0)
(1.04583 0.0189006 0)
(1.04042 0.0151556 0)
(1.03592 0.01156 0)
(1.03213 0.00810472 0)
(1.0289 0.00478204 0)
(1.02609 0.00158428 0)
(1.02362 -0.00149741 0)
(1.02142 -0.00446491 0)
(1.01939 -0.00731135 0)
(1.0175 -0.0100275 0)
(1.01568 -0.0126006 0)
(1.01392 -0.0150168 0)
(1.01227 -0.0172255 0)
(1.01102 -0.0191576 0)
(1.01024 -0.020692 0)
(1.00985 -0.0219182 0)
(1.00972 -0.0229029 0)
(1.00968 -0.0237375 0)
(1.00959 -0.0245891 0)
(0.261558 -0.00110927 0)
(0.735338 0.0128738 0)
(1.03223 0.0333868 0)
(1.13559 0.0419188 0)
(1.13559 0.04064 0)
(1.11127 0.0362728 0)
(1.09106 0.0318445 0)
(1.07691 0.0277201 0)
(1.06636 0.0237684 0)
(1.05802 0.0199103 0)
(1.05125 0.0161268 0)
(1.04568 0.0124141 0)
(1.04103 0.00876961 0)
(1.0371 0.00519017 0)
(1.03372 0.00167075 0)
(1.03079 -0.00179344 0)
(1.02819 -0.00520118 0)
(1.02585 -0.0085443 0)
(1.02367 -0.0118106 0)
(1.0216 -0.0149848 0)
(1.01959 -0.0180476 0)
(1.0176 -0.0209764 0)
(1.01571 -0.0237127 0)
(1.01427 -0.026146 0)
(1.01337 -0.0281069 0)
(1.01289 -0.0296837 0)
(1.01268 -0.0309472 0)
(1.01256 -0.0320062 0)
(1.01236 -0.0330588 0)
(0.254705 -0.000859655 0)
(0.713428 0.0086844 0)
(1.01278 0.0258442 0)
(1.12915 0.0345491 0)
(1.13848 0.0346835 0)
(1.11702 0.0312892 0)
(1.0969 0.0273397 0)
(1.08251 0.0234866 0)
(1.07185 0.019694 0)
(1.06346 0.0158995 0)
(1.05665 0.0120905 0)
(1.05104 0.00826844 0)
(1.04635 0.00443339 0)
(1.04238 0.000583253 0)
(1.03898 -0.00328278 0)
(1.03601 -0.00715959 0)
(1.03337 -0.0110371 0)
(1.03095 -0.0149022 0)
(1.02869 -0.0187382 0)
(1.02649 -0.0225248 0)
(1.02432 -0.0262371 0)
(1.02214 -0.0298453 0)
(1.02004 -0.0332837 0)
(1.01843 -0.0363887 0)
(1.01739 -0.0389227 0)
(1.0168 -0.0409685 0)
(1.01647 -0.0426018 0)
(1.01621 -0.043955 0)
(1.01584 -0.0452582 0)
(0.250106 -0.000642496 0)
(0.696859 0.00557646 0)
(0.996004 0.0193103 0)
(1.12213 0.0274961 0)
(1.13992 0.0285117 0)
(1.12184 0.0258525 0)
(1.10232 0.0222275 0)
(1.08794 0.0184766 0)
(1.0773 0.0146683 0)
(1.06898 0.0107684 0)
(1.06226 0.00676996 0)
(1.05672 0.00267421 0)
(1.05211 -0.00151843 0)
(1.04823 -0.00580395 0)
(1.04489 -0.0101739 0)
(1.04197 -0.0146163 0)
(1.03936 -0.0191171 0)
(1.03695 -0.02366 0)
(1.03466 -0.0282252 0)
(1.03241 -0.0327888 0)
(1.03013 -0.0373231 0)
(1.0278 -0.0417942 0)
(1.02554 -0.0461341 0)
(1.02379 -0.0501155 0)
(1.02263 -0.0534064 0)
(1.02189 -0.0560737 0)
(1.02138 -0.0581966 0)
(1.02087 -0.0599367 0)
(1.02023 -0.0615508 0)
(0.247258 -0.000478017 0)
(0.684827 0.003235 0)
(0.982178 0.0137443 0)
(1.11533 0.0209565 0)
(1.1405 0.0223627 0)
(1.12605 0.0201672 0)
(1.10756 0.0167025 0)
(1.09343 0.0128988 0)
(1.08297 0.00891849 0)
(1.07485 0.00475887 0)
(1.06833 0.000416328 0)
(1.063 -0.00410701 0)
(1.05858 -0.00880405 0)
(1.05487 -0.0136633 0)
(1.05169 -0.0186714 0)
(1.04891 -0.0238137 0)
(1.04641 -0.0290743 0)
(1.04409 -0.0344351 0)
(1.04184 -0.0398745 0)
(1.0396 -0.0453665 0)
(1.03728 -0.0508839 0)
(1.03487 -0.0563939 0)
(1.03253 -0.0618355 0)
(1.0307 -0.0669157 0)
(1.02944 -0.0711796 0)
(1.02852 -0.0746599 0)
(1.02771 -0.0774317 0)
(1.02683 -0.0796883 0)
(1.02579 -0.081698 0)
(0.245759 -0.000361687 0)
(0.676549 0.00149416 0)
(0.971288 0.00916239 0)
(1.1093 0.0151629 0)
(1.14072 0.0165464 0)
(1.1299 0.0145354 0)
(1.11277 0.0110639 0)
(1.09913 0.00707255 0)
(1.089 0.00279053 0)
(1.0812 -0.00175708 0)
(1.07499 -0.00656639 0)
(1.06997 -0.0116295 0)
(1.06584 -0.0169334 0)
(1.0624 -0.0224638 0)
(1.05946 -0.028206 0)
(1.0569 -0.0341453 0)
(1.0546 -0.0402654 0)
(1.05243 -0.0465475 0)
(1.05032 -0.0529687 0)
(1.04816 -0.0595014 0)
(1.04588 -0.0661211 0)
(1.0435 -0.0728028 0)
(1.0412 -0.0795073 0)
(1.03949 -0.085901 0)
(1.03826 -0.0913927 0)
(1.0372 -0.0959565 0)
(1.03605 -0.0996372 0)
(1.03468 -0.102629 0)
(1.0331 -0.10516 0)
(0.245341 -0.000260134 0)
(0.671591 0.000357328 0)
(0.963687 0.00577643 0)
(1.10479 0.0105925 0)
(1.14109 0.0116995 0)
(1.13353 0.00965536 0)
(1.11784 0.00605097 0)
(1.10483 0.00179193 0)
(1.09513 -0.00285375 0)
(1.08773 -0.00783792 0)
(1.08192 -0.0131483 0)
(1.07727 -0.0187737 0)
(1.07349 -0.0246998 0)
(1.07038 -0.0309134 0)
(1.06776 -0.0374021 0)
(1.06549 -0.0441537 0)
(1.06346 -0.0511539 0)
(1.06153 -0.0583846 0)
(1.05962 -0.0658217 0)
(1.05761 -0.073433 0)
(1.05545 -0.0811906 0)
(1.05317 -0.0890696 0)
(1.05105 -0.097045 0)
(1.04962 -0.10477 0)
(1.04865 -0.111573 0)
(1.04764 -0.117403 0)
(1.04622 -0.122256 0)
(1.04426 -0.126259 0)
(1.04187 -0.129511 0)
(0.245471 -0.000211746 0)
(0.669044 -0.000294982 0)
(0.958976 0.00357095 0)
(1.1019 0.00740931 0)
(1.14171 0.00815398 0)
(1.13674 0.00595942 0)
(1.12235 0.00216525 0)
(1.10998 -0.00237033 0)
(1.10073 -0.00736036 0)
(1.09374 -0.0127411 0)
(1.08832 -0.0184971 0)
(1.08404 -0.0246169 0)
(1.08063 -0.0310881 0)
(1.07786 -0.037901 0)
(1.07558 -0.0450487 0)
(1.07365 -0.0525239 0)
(1.07192 -0.0603178 0)
(1.07029 -0.0684162 0)
(1.06863 -0.0767965 0)
(1.06683 -0.0854241 0)
(1.06484 -0.0942617 0)
(1.06274 -0.103273 0)
(1.06085 -0.112411 0)
(1.05983 -0.121276 0)
(1.05934 -0.129177 0)
(1.05875 -0.136176 0)
(1.05753 -0.1424 0)
(1.05547 -0.147954 0)
(1.05279 -0.152379 0)
(0.245699 -0.000141119 0)
(0.667615 -0.000629367 0)
(0.955851 0.00217035 0)
(1.09997 0.00523616 0)
(1.14246 0.00562422 0)
(1.1396 0.0032454 0)
(1.12634 -0.000739853 0)
(1.11456 -0.00552016 0)
(1.10572 -0.0108012 0)
(1.0991 -0.0165119 0)
(1.09403 -0.0226366 0)
(1.09011 -0.0291642 0)
(1.08703 -0.0360855 0)
(1.08461 -0.0433963 0)
(1.08266 -0.0510962 0)
(1.08105 -0.0591855 0)
(1.07964 -0.067663 0)
(1.07832 -0.0765226 0)
(1.07694 -0.0857475 0)
(1.0754 -0.0953099 0)
(1.0736 -0.105161 0)
(1.07168 -0.115252 0)
(1.06999 -0.125481 0)
(1.06922 -0.13525 0)
(1.06911 -0.14375 0)
(1.06916 -0.151228 0)
(1.06902 -0.158208 0)
(1.06846 -0.165152 0)
(1.06653 -0.171248 0)
(0.246354 -0.000121939 0)
(0.667533 -0.000793271 0)
(0.95445 0.00134733 0)
(1.09916 0.00386555 0)
(1.14342 0.00391695 0)
(1.14211 0.00130899 0)
(1.12977 -0.00287817 0)
(1.11852 -0.00787 0)
(1.11007 -0.0133863 0)
(1.1038 -0.019364 0)
(1.09908 -0.0257882 0)
(1.09549 -0.032648 0)
(1.09275 -0.039938 0)
(1.09066 -0.04766 0)
(1.08906 -0.0558215 0)
(1.0878 -0.0644316 0)
(1.08676 -0.0734993 0)
(1.0858 -0.083033 0)
(1.08478 -0.0930227 0)
(1.08364 -0.103474 0)
(1.08217 -0.114326 0)
(1.08065 -0.125552 0)
(1.07944 -0.137113 0)
(1.07911 -0.148124 0)
(1.07951 -0.157426 0)
(1.08023 -0.165067 0)
(1.0807 -0.171198 0)
(1.08094 -0.177286 0)
(1.08383 -0.186816 0)
(1.00003 0.000892613 0)
(1.00003 0.000883863 0)
(1.00003 0.000866833 0)
(1.00003 0.000850046 9.84958e-22)
(1.00003 0.000835084 4.91397e-21)
(1.00003 0.000821702 -8.84336e-21)
(1.00003 0.00080976 4.91185e-21)
(1.00002 0.000799129 -3.91518e-21)
(1.00002 0.00078968 4.99295e-22)
(1.00002 0.00078147 3.91451e-21)
(1.00002 0.000774311 0)
(1.00002 0.000768262 -4.38081e-21)
(1.00002 0.000763171 4.96259e-22)
(1.00002 0.000758943 3.89117e-21)
(1.00001 0.0007556 0)
(1.00001 0.000752956 0)
(1.00001 0.000751049 -3.86183e-21)
(1.00001 0.000749694 3.86429e-21)
(1.00001 0.000748743 0)
(1.00001 0.000748291 -1.91987e-21)
(1 0.000748098 2.04061e-21)
(1 0.000748083 1.79214e-21)
(1 0.000748247 -2.86613e-21)
(1 0.000748363 9.24195e-22)
(0.999999 0.000748379 2.96651e-23)
(0.999998 0.000748277 -5.93004e-23)
(0.999997 0.000747837 8.26272e-22)
(0.999996 0.000747028 -9.44383e-22)
(0.999996 0.000745711 0)
(0.999995 0.000743741 0)
(0.999995 0.000741254 -2.33726e-22)
(0.999994 0.000738152 -2.3299e-22)
(0.999994 0.000734305 -3.94287e-21)
(0.999994 0.000729773 3.24495e-21)
(0.999994 0.000724416 -4.14749e-21)
(0.999994 0.000718201 4.14267e-21)
(0.999994 0.000711191 -3.20258e-21)
(0.999994 0.000703221 3.20065e-21)
(0.999995 0.000694353 4.54959e-22)
(0.999995 0.000684511 4.53329e-22)
(0.999996 0.000673678 -4.5167e-22)
(0.999997 0.000661909 0)
(0.999998 0.000649083 0)
(0.999999 0.000635308 0)
(1 0.000620511 0)
(1 0.000604837 0)
(1 0.000588384 1.76497e-21)
(1 0.000570486 -1.76232e-21)
(1 0.000544928 0)
(1.00024 0.000609397 0)
(1.00023 0.000569555 1.98564e-21)
(1.00022 0.000522781 -1.97988e-21)
(1.0002 0.000479557 -9.87653e-22)
(1.00019 0.000441155 -9.88774e-22)
(1.00018 0.000406562 -2.95679e-21)
(1.00016 0.000375739 4.93542e-21)
(1.00015 0.000348592 0)
(1.00014 0.00032466 -4.91644e-22)
(1.00013 0.000304239 -9.8197e-22)
(1.00012 0.000286796 0)
(1.0001 0.00027244 4.89422e-22)
(1.00009 0.000260862 -4.39268e-21)
(1.00008 0.000251715 3.9076e-21)
(1.00007 0.000245128 0)
(1.00006 0.000240604 9.72679e-22)
(1.00005 0.000238174 0)
(1.00004 0.000237522 0)
(1.00003 0.000238203 0)
(1.00003 0.000240397 -1.92759e-21)
(1.00002 0.000243628 1.80797e-21)
(1.00001 0.000247655 -1.20219e-22)
(1 0.000252483 0)
(0.999999 0.000257623 -4.47779e-22)
(0.999995 0.000262936 4.70271e-22)
(0.999991 0.000268353 8.9253e-23)
(0.999987 0.000273429 1.18647e-22)
(0.999985 0.000278142 0)
(0.999983 0.000282503 -1.88532e-21)
(0.999981 0.000286085 1.88458e-21)
(0.999981 0.000288857 -3.5134e-21)
(0.99998 0.000290688 7.71603e-21)
(0.999981 0.000291257 -3.50102e-21)
(0.999982 0.000290643 4.6458e-22)
(0.999984 0.000288466 4.6308e-22)
(0.999986 0.000284646 4.61648e-22)
(0.99999 0.000279216 -4.59941e-22)
(0.999993 0.000271753 4.12106e-21)
(0.999998 0.000262388 -3.20214e-21)
(1 0.000250804 -1.36553e-21)
(1.00001 0.000236951 4.9847e-21)
(1.00002 0.000220832 -3.61998e-21)
(1.00002 0.000202052 -1.80104e-21)
(1.00003 0.000180823 3.5851e-21)
(1.00004 0.000156705 -7.15382e-21)
(1.00005 0.000129912 3.56786e-21)
(1.00006 0.000100375 1.77336e-21)
(1.00006 6.71997e-05 -2.785e-24)
(1.00008 2.46593e-05 0)
(1.00063 -0.000725654 2.98616e-21)
(1.0006 -0.000796084 -9.98536e-22)
(1.00056 -0.000874538 -3.97474e-21)
(1.00052 -0.000954258 1.98322e-21)
(1.00048 -0.00102131 -1.98123e-21)
(1.00045 -0.0010809 0)
(1.00041 -0.00113436 -1.97456e-21)
(1.00037 -0.00118176 -5.91096e-21)
(1.00034 -0.00122318 5.91299e-21)
(1.0003 -0.00125826 9.82642e-22)
(1.00027 -0.00128824 0)
(1.00024 -0.00131272 -5.87604e-21)
(1.00021 -0.0013319 9.48167e-24)
(1.00018 -0.00134694 3.91132e-21)
(1.00015 -0.00135748 0)
(1.00012 -0.00136399 -9.72807e-22)
(1.0001 -0.00136563 -9.72159e-22)
(1.00007 -0.00136462 0)
(1.00005 -0.00136183 -9.68324e-22)
(1.00003 -0.00135526 -1.92876e-21)
(1.00001 -0.00134636 1.92908e-21)
(0.999998 -0.00133535 -2.40696e-22)
(0.999983 -0.00132227 -2.39846e-22)
(0.999971 -0.00130786 0)
(0.999959 -0.00129237 3.72173e-23)
(0.99995 -0.00127578 -2.08174e-22)
(0.999942 -0.00125877 0)
(0.999936 -0.00124157 0)
(0.999932 -0.00122419 -1.88386e-21)
(0.999929 -0.00120733 1.88322e-21)
(0.999928 -0.00119107 -3.74494e-21)
(0.999928 -0.00117563 3.74321e-21)
(0.999931 -0.00116155 0)
(0.999934 -0.00114873 0)
(0.99994 -0.00113784 0)
(0.999947 -0.00112899 -9.22384e-22)
(0.999956 -0.0011222 -1.8387e-21)
(0.999966 -0.00111821 0)
(0.999978 -0.00111678 -9.13008e-22)
(0.999992 -0.00111856 -9.05343e-22)
(1.00001 -0.0011236 2.72457e-21)
(1.00002 -0.001132 0)
(1.00004 -0.00114447 3.59783e-21)
(1.00006 -0.00116064 -5.38561e-21)
(1.00008 -0.00118143 0)
(1.00011 -0.00120651 0)
(1.00013 -0.00123623 0)
(1.00016 -0.00127213 -1.76973e-21)
(1.00019 -0.00132082 -1.76128e-21)
(1.00121 -0.00252176 -1.99356e-21)
(1.00115 -0.00263735 3.98618e-21)
(1.00107 -0.00274944 3.98094e-21)
(1.001 -0.00285417 5.95633e-21)
(1.00092 -0.00294799 -1.98912e-21)
(1.00084 -0.00303252 -3.9563e-21)
(1.00077 -0.00310764 7.91243e-21)
(1.00069 -0.00317337 -3.98147e-24)
(1.00062 -0.00323094 -1.97094e-21)
(1.00055 -0.00327929 1.97076e-21)
(1.00049 -0.00332017 0)
(1.00043 -0.00335297 1.96118e-21)
(1.00036 -0.00337802 -1.95191e-21)
(1.00031 -0.00339672 7.82199e-21)
(1.00025 -0.00340829 -7.80659e-21)
(1.0002 -0.00341406 5.85037e-21)
(1.00015 -0.00341361 -9.74924e-22)
(1.0001 -0.00340767 9.70924e-22)
(1.00006 -0.00339776 9.67092e-22)
(1.00002 -0.00338262 -9.66662e-22)
(0.999985 -0.00336348 0)
(0.999952 -0.00334108 -1.43939e-21)
(0.999923 -0.0033151 1.20179e-21)
(0.999896 -0.00328655 9.57349e-22)
(0.999873 -0.00325587 4.46727e-23)
(0.999853 -0.00322299 8.90432e-23)
(0.999836 -0.00318889 1.42155e-21)
(0.999823 -0.0031539 -9.46794e-22)
(0.999813 -0.00311803 1.88291e-21)
(0.999806 -0.00308223 -1.88238e-21)
(0.999802 -0.00304665 0)
(0.999802 -0.00301158 4.66547e-21)
(0.999804 -0.00297779 -3.72934e-21)
(0.99981 -0.00294513 3.70658e-21)
(0.999819 -0.00291456 -3.70502e-21)
(0.999832 -0.00288622 0)
(0.999847 -0.00286017 3.6691e-21)
(0.999866 -0.00283749 -1.83621e-21)
(0.999888 -0.00281778 0)
(0.999913 -0.00280204 3.63151e-21)
(0.999942 -0.0027903 -3.62884e-21)
(0.999973 -0.00278272 1.80482e-21)
(1.00001 -0.00278042 1.8e-21)
(1.00005 -0.00278271 5.37648e-21)
(1.00009 -0.0027911 2.51332e-24)
(1.00013 -0.00280506 3.56474e-21)
(1.00018 -0.00282535 1.77152e-21)
(1.00023 -0.00285383 1.76245e-21)
(1.0003 -0.00289615 1.76282e-21)
(1.00197 -0.0048288 0)
(1.00187 -0.00497959 -3.98822e-21)
(1.00174 -0.00511839 -3.98002e-21)
(1.00161 -0.0052468 0)
(1.00148 -0.00536137 -3.96826e-21)
(1.00136 -0.00546378 9.27159e-24)
(1.00123 -0.00555343 7.93429e-21)
(1.00111 -0.00563011 -1.98537e-21)
(1.00099 -0.00569613 -9.17629e-24)
(1.00087 -0.00574956 -5.91632e-21)
(1.00076 -0.00579291 0)
(1.00066 -0.00582528 -5.89293e-21)
(1.00055 -0.00584718 1.96763e-21)
(1.00046 -0.00586047 0)
(1.00036 -0.00586382 -1.95642e-21)
(1.00027 -0.00585933 5.0364e-24)
(1.00019 -0.00584657 -1.94309e-21)
(1.00011 -0.00582583 6.79498e-21)
(1.00004 -0.00579936 -9.74126e-24)
(0.99997 -0.00576579 -9.74607e-22)
(0.999907 -0.00572646 -9.64976e-22)
(0.999849 -0.00568247 1.92033e-21)
(0.999797 -0.00563325 -1.92041e-21)
(0.99975 -0.00558015 -2.38162e-22)
(0.999708 -0.00552379 4.92392e-22)
(0.999671 -0.00546397 -2.66615e-22)
(0.99964 -0.005402 9.48037e-22)
(0.999615 -0.00533834 -9.46798e-22)
(0.999594 -0.00527291 9.43429e-22)
(0.999579 -0.00520702 1.87679e-21)
(0.999569 -0.0051408 -5.61746e-21)
(0.999565 -0.00507466 -9.225e-22)
(0.999566 -0.0050096 5.59045e-21)
(0.999572 -0.00494538 1.85574e-21)
(0.999584 -0.00488335 -3.6926e-21)
(0.999601 -0.00482357 3.69036e-21)
(0.999624 -0.00476616 5.41489e-24)
(0.999652 -0.0047126 5.48998e-21)
(0.999685 -0.00466223 -3.65657e-21)
(0.999724 -0.0046165 -9.09007e-21)
(0.999768 -0.00457534 3.61983e-21)
(0.999817 -0.00453898 1.80178e-21)
(0.999871 -0.00450894 7.18433e-21)
(0.999931 -0.00448421 -3.59046e-21)
(0.999996 -0.00446692 -7.07975e-24)
(1.00007 -0.00445628 -7.96203e-24)
(1.00015 -0.00445354 0)
(1.00024 -0.00446081 -3.53504e-21)
(1.00034 -0.0044815 -3.51485e-21)
(1.0029 -0.00779741 0)
(1.00275 -0.00798166 -6.0029e-21)
(1.00256 -0.00814393 5.99473e-21)
(1.00237 -0.00829295 0)
(1.00217 -0.00842441 0)
(1.00197 -0.00854027 -3.97082e-21)
(1.00178 -0.00863953 -1.49272e-24)
(1.00159 -0.00872176 -3.96761e-21)
(1.00141 -0.00879015 -2.52391e-24)
(1.00123 -0.0088419 0)
(1.00106 -0.00888044 0)
(1.0009 -0.00890448 1.96545e-21)
(1.00074 -0.00891461 0)
(1.00059 -0.00891338 0)
(1.00044 -0.00889887 -1.95458e-21)
(1.00031 -0.00887391 3.91581e-21)
(1.00018 -0.00883783 1.95189e-21)
(1.00005 -0.00879093 0)
(0.999937 -0.00873627 1.93075e-21)
(0.999829 -0.00867189 -4.84285e-21)
(0.999729 -0.00859952 -1.92972e-21)
(0.999637 -0.00852062 -1.92189e-21)
(0.999552 -0.00843436 1.92195e-21)
(0.999475 -0.00834252 6.36735e-25)
(0.999407 -0.00824585 1.49311e-23)
(0.999346 -0.00814409 2.37441e-22)
(0.999293 -0.00803892 -4.75006e-22)
(0.999249 -0.00793089 0)
(0.999213 -0.00781988 -9.419e-22)
(0.999184 -0.00770764 0)
(0.999164 -0.00759424 0)
(0.999152 -0.00748024 -1.86845e-21)
(0.999149 -0.00736695 -7.43782e-21)
(0.999153 -0.00725399 1.32559e-23)
(0.999166 -0.00714319 1.8531e-21)
(0.999187 -0.00703453 0)
(0.999216 -0.00692817 -1.83446e-21)
(0.999253 -0.0068261 -3.65745e-21)
(0.999298 -0.00672735 3.6432e-21)
(0.999352 -0.00663388 7.26138e-21)
(0.999413 -0.0065455 -7.23414e-21)
(0.999483 -0.00646253 -3.03049e-24)
(0.999561 -0.00638701 -3.59335e-21)
(0.999647 -0.00631747 -4.77763e-24)
(0.999741 -0.00625683 0)
(0.999846 -0.006204 -3.5545e-21)
(0.999962 -0.00616087 -1.76666e-21)
(1.00009 -0.00612975 1.76598e-21)
(1.00025 -0.00611049 3.5179e-21)
(1.00404 -0.011258 0)
(1.00381 -0.0114836 4.00557e-21)
(1.00355 -0.0116752 -1.20131e-20)
(1.00327 -0.0118502 0)
(1.00299 -0.0120034 0)
(1.0027 -0.0121368 -7.97476e-21)
(1.00242 -0.0122492 7.95896e-21)
(1.00215 -0.0123396 -3.98043e-21)
(1.00189 -0.0124123 -2.61383e-24)
(1.00163 -0.0124635 3.96357e-21)
(1.00138 -0.0124976 0)
(1.00114 -0.0125128 0)
(1.00091 -0.0125098 3.94533e-21)
(1.00068 -0.012492 0)
(1.00047 -0.0124567 0)
(1.00027 -0.0124074 -3.91289e-21)
(1.00007 -0.0123435 7.654e-24)
(0.999889 -0.012265 0)
(0.999716 -0.012176 1.93895e-21)
(0.999554 -0.0120739 4.84314e-21)
(0.999402 -0.0119608 -1.9382e-21)
(0.999262 -0.0118386 0)
(0.999133 -0.0117062 -9.59381e-22)
(0.999015 -0.011566 1.19849e-21)
(0.998908 -0.0114187 -5.23063e-22)
(0.998813 -0.011264 -2.38411e-22)
(0.998729 -0.0111042 4.72474e-22)
(0.998657 -0.0109399 -9.47622e-22)
(0.998597 -0.0107709 0)
(0.998549 -0.0105995 -3.75893e-21)
(0.998512 -0.0104257 5.617e-21)
(0.998488 -0.0102503 1.85338e-21)
(0.998475 -0.0100751 -5.92155e-24)
(0.998474 -0.00989931 1.84836e-21)
(0.998485 -0.0097256 -1.85425e-21)
(0.998508 -0.00955373 -3.67456e-21)
(0.998543 -0.00938395 7.33364e-21)
(0.998589 -0.00921896 -3.65454e-21)
(0.998647 -0.00905728 7.28473e-21)
(0.998717 -0.00890163 -1.55208e-24)
(0.998798 -0.0087516 7.22561e-21)
(0.998891 -0.00860764 -3.60031e-21)
(0.998996 -0.00847244 0)
(0.999113 -0.00834398 -5.58458e-24)
(0.999242 -0.00822613 7.11249e-21)
(0.999386 -0.00811747 0)
(0.999548 -0.00802068 0)
(0.999733 -0.00793826 6.15102e-21)
(0.999954 -0.00786497 8.78046e-22)
(1.00542 -0.0150226 1.00619e-21)
(1.00511 -0.0153002 7.05683e-21)
(1.00475 -0.015531 8.01432e-21)
(1.00437 -0.0157417 -8.04024e-21)
(1.00398 -0.0159258 0)
(1.00358 -0.0160858 -3.89332e-24)
(1.0032 -0.0162197 -4.00841e-21)
(1.00282 -0.0163263 -3.99819e-21)
(1.00245 -0.016411 1.1949e-20)
(1.00208 -0.0164686 -3.97537e-21)
(1.00173 -0.0165047 0)
(1.00139 -0.016517 7.91986e-21)
(1.00107 -0.0165062 -7.89105e-21)
(1.00075 -0.0164764 1.46429e-23)
(1.00045 -0.0164242 7.8619e-21)
(1.00016 -0.0163541 -1.97009e-21)
(0.99988 -0.0162648 -1.93795e-21)
(0.999617 -0.0161568 3.90753e-21)
(0.999368 -0.0160348 0)
(0.999133 -0.0158954 -1.93742e-21)
(0.998913 -0.0157417 1.93588e-21)
(0.998707 -0.0155754 1.92732e-21)
(0.998517 -0.0153955 -1.92738e-21)
(0.998343 -0.0152048 2.4028e-22)
(0.998184 -0.0150042 2.98357e-23)
(0.998041 -0.0147934 7.13769e-22)
(0.997914 -0.0145753 -1.44743e-24)
(0.997803 -0.0143503 0)
(0.997709 -0.0141186 0)
(0.997632 -0.013883 1.17306e-24)
(0.997571 -0.0136432 -1.86402e-21)
(0.997526 -0.0134007 3.74072e-21)
(0.997499 -0.0131573 -3.7209e-21)
(0.997488 -0.0129123 3.69941e-21)
(0.997493 -0.0126692 -7.39499e-21)
(0.997515 -0.0124275 8.10845e-24)
(0.997554 -0.0121875 3.67068e-21)
(0.997609 -0.0119528 3.64444e-21)
(0.997681 -0.0117213 -7.28421e-21)
(0.997768 -0.0114966 -7.25265e-21)
(0.997872 -0.0112782 -3.61436e-21)
(0.997991 -0.0110665 -3.59965e-21)
(0.998127 -0.010865 0)
(0.998279 -0.0106712 -3.56753e-21)
(0.99845 -0.0104899 -1.5067e-23)
(0.998641 -0.0103194 7.06626e-21)
(0.998858 -0.0101634 -8.79621e-21)
(0.999108 -0.0100245 1.73685e-21)
(0.999407 -0.00989074 0)
(1.00712 -0.0193738 0)
(1.00671 -0.019706 -8.06158e-21)
(1.00624 -0.0199796 0)
(1.00573 -0.0202299 8.03494e-21)
(1.00521 -0.0204486 4.01514e-21)
(1.00468 -0.0206389 -8.02519e-21)
(1.00416 -0.0207979 1.20088e-20)
(1.00365 -0.0209245 3.98876e-21)
(1.00315 -0.0210248 -3.98404e-21)
(1.00266 -0.0210925 0)
(1.00218 -0.0211343 3.97304e-21)
(1.00172 -0.0211471 -7.93514e-21)
(1.00127 -0.0211319 3.97089e-21)
(1.00083 -0.0210933 -3.94288e-21)
(1.00042 -0.021027 1.56902e-23)
(1.00001 -0.0209385 3.93807e-21)
(0.99963 -0.020826 -7.84898e-21)
(0.999263 -0.0206903 0)
(0.998914 -0.0205365 3.89657e-21)
(0.998584 -0.0203606 -3.89702e-21)
(0.998273 -0.0201664 -9.67742e-22)
(0.997982 -0.0199559 0)
(0.997712 -0.0197275 9.66073e-22)
(0.997462 -0.0194852 2.39866e-22)
(0.997233 -0.0192294 -5.09602e-22)
(0.997026 -0.01896 7.15414e-22)
(0.99684 -0.0186809 4.73045e-22)
(0.996677 -0.018392 -9.49347e-22)
(0.996536 -0.0180937 0)
(0.996418 -0.01779 -1.87817e-21)
(0.996322 -0.0174799 3.75449e-21)
(0.996249 -0.0171654 0)
(0.996199 -0.0168492 1.85864e-21)
(0.996172 -0.0165299 0)
(0.996167 -0.0162124 3.68945e-21)
(0.996185 -0.0158955 -7.35234e-21)
(0.996225 -0.01558 3.65346e-21)
(0.996287 -0.0152704 -1.45026e-23)
(0.996372 -0.0149639 3.61657e-21)
(0.996477 -0.0146651 -3.62458e-21)
(0.996605 -0.0143732 3.60347e-21)
(0.996754 -0.0140888 7.16787e-21)
(0.996924 -0.0138164 0)
(0.997118 -0.0135525 0)
(0.997336 -0.0133035 -7.09678e-21)
(0.997582 -0.0130672 -1.41128e-20)
(0.997864 -0.0128483 1.40548e-20)
(0.998192 -0.0126497 -7.88789e-21)
(0.998585 -0.0124508 7.83233e-21)
(1.00924 -0.0252234 0)
(1.0087 -0.0255989 8.12432e-21)
(1.00809 -0.0259085 8.10366e-21)
(1.00743 -0.0261913 1.21383e-20)
(1.00675 -0.0264367 -1.21231e-20)
(1.00606 -0.0266495 -4.02329e-21)
(1.00538 -0.0268259 1.20921e-20)
(1.00471 -0.0269648 -4.00831e-21)
(1.00405 -0.0270733 4.01158e-21)
(1.0034 -0.0271434 0)
(1.00276 -0.0271835 8.00376e-21)
(1.00215 -0.0271888 0)
(1.00155 -0.0271613 -3.96144e-21)
(1.00096 -0.0271058 -3.97584e-21)
(1.0004 -0.0270169 2.16587e-23)
(0.999859 -0.0269012 0)
(0.999337 -0.0267558 3.94049e-21)
(0.998838 -0.0265826 7.86e-21)
(0.998361 -0.0263868 0)
(0.997908 -0.0261629 1.94688e-21)
(0.99748 -0.0259167 -1.94666e-21)
(0.997077 -0.0256493 -1.93433e-21)
(0.996701 -0.0253592 1.93879e-21)
(0.996352 -0.0250515 -1.93487e-24)
(0.996031 -0.024726 -4.80313e-22)
(0.995739 -0.0243827 -2.10374e-22)
(0.995475 -0.024027 -4.76889e-22)
(0.995241 -0.023658 9.50135e-22)
(0.995037 -0.0232763 0)
(0.994863 -0.0228874 1.87861e-21)
(0.99472 -0.0224896 -3.75067e-21)
(0.994607 -0.0220855 0)
(0.994525 -0.0216786 0)
(0.994473 -0.0212671 3.69527e-21)
(0.994452 -0.0208573 -7.37782e-21)
(0.99446 -0.0204476 3.6867e-21)
(0.994499 -0.0200387 3.66431e-21)
(0.994566 -0.0196369 0)
(0.994663 -0.0192381 1.08662e-20)
(0.994788 -0.0188484 -7.22149e-21)
(0.994941 -0.0184666 -3.58317e-21)
(0.995122 -0.0180932 -9.68459e-24)
(0.995332 -0.0177343 -7.12262e-21)
(0.995572 -0.0173851 -7.08459e-21)
(0.995844 -0.0170537 -7.05795e-21)
(0.996155 -0.0167374 2.16717e-23)
(0.996513 -0.0164422 -2.46902e-23)
(0.996932 -0.0161711 0)
(0.997437 -0.015893 -1.38907e-20)
(1.01187 -0.0338085 0)
(1.01118 -0.0342088 2.06633e-21)
(1.01038 -0.0345418 -1.01135e-20)
(1.00954 -0.0348436 -8.08293e-21)
(1.00867 -0.0351007 8.06721e-21)
(1.00779 -0.0353205 4.06101e-21)
(1.00691 -0.0354976 -4.00832e-21)
(1.00604 -0.0356319 0)
(1.00518 -0.0357308 0)
(1.00433 -0.0357848 8.03795e-21)
(1.0035 -0.0358039 -7.97887e-21)
(1.00269 -0.0357813 3.98842e-21)
(1.0019 -0.0357203 -3.98623e-21)
(1.00113 -0.0356252 3.97846e-21)
(1.00039 -0.0354897 3.97338e-21)
(0.999663 -0.0353218 -3.95736e-21)
(0.998965 -0.0351165 -3.9316e-21)
(0.998294 -0.0348777 -3.91866e-21)
(0.997651 -0.0346101 3.912e-21)
(0.997038 -0.0343065 -3.91238e-21)
(0.996457 -0.0339754 0)
(0.995908 -0.0336167 1.94509e-21)
(0.995393 -0.0332283 -1.9295e-21)
(0.994914 -0.0328178 1.44559e-21)
(0.99447 -0.0323835 0)
(0.994065 -0.031926 9.56307e-22)
(0.993697 -0.0314524 0)