/*--------------------------------*- C++ -*----------------------------------*\
| =========                 |                                                 |
| \\      /  F ield         | OpenFOAM: The Open Source CFD Toolbox           |
|  \\    /   O peration     | Version:  2312                                  |
|   \\  /    A nd           | Website:  www.openfoam.com                      |
|    \\/     M anipulation  |                                                 |
\*---------------------------------------------------------------------------*/
FoamFile
{
    version     2.0;
    format      ascii;
    arch        "LSB;label=32;scalar=64";
    class       surfaceScalarField;
    location    "37.262218796202795";
    object      phi;
}
// * * * * * * * * * * * * * * * * * * * * * * * * * * * * * * * * * * * * * //

dimensions      [0 3 -1 0 0 0 0];

oriented        oriented;

internalField   nonuniform List<scalar> 
41713
(
0.00736433
0.0568821
0.00362773
0.067983
0.00211569
0.0657585
0.00148291
0.0648792
0.00109671
0.0646326
0.000842045
0.0645011
0.000666367
0.0644221
0.000538758
0.064374
0.000442606
0.0643426
0.000368256
0.0643208
0.000309585
0.0643051
0.000262536
0.0642935
0.000224346
0.0642846
0.000193074
0.0642777
0.000167329
0.0642722
0.000146089
0.0642677
0.000128595
0.0642639
0.000114264
0.0642608
0.000102644
0.0642581
9.33571e-05
0.0642557
8.60503e-05
0.0642537
8.03703e-05
0.0642521
7.604e-05
0.0642508
7.28965e-05
0.0548143
7.02637e-05
0.0456786
6.78889e-05
0.0380657
6.57472e-05
0.0317216
6.38415e-05
0.0264348
0.0220291
6.21303e-05
0.00999465
0.0468875
0.00842804
0.0695496
0.00571517
0.0684713
0.00412073
0.0664737
0.00311924
0.0656341
0.00242697
0.0651934
0.00192814
0.0649209
0.00155732
0.0647449
0.00127419
0.0646257
0.00105297
0.064542
0.000876709
0.0644814
0.00073403
0.0644362
0.000617087
0.0644016
0.000520341
0.0643745
0.000439806
0.0643527
0.000372565
0.0643349
0.000316452
0.06432
0.000269834
0.0643074
0.000231454
0.0642964
0.00020033
0.0642868
0.000175662
0.0642784
0.000156752
0.064271
0.000142898
0.0642646
0.000134196
0.054823
0.000128569
0.0456842
0.00012462
0.0380696
0.000121535
0.0317247
0.000118901
0.0264374
0.0220313
0.000116682
0.00859685
0.0382906
0.00970909
0.0684374
0.00747039
0.07071
0.00570044
0.0682436
0.00451123
0.0668233
0.00362502
0.0660796
0.00294154
0.0656044
0.0024092
0.0652772
0.00198934
0.0650456
0.00165338
0.064878
0.00138089
0.0647539
0.00115724
0.0646598
0.000971879
0.0645869
0.000817115
0.0645292
0.000687277
0.0644826
0.000578155
0.064444
0.000486585
0.0644116
0.000410171
0.0643838
0.000347077
0.0643595
0.000295875
0.064338
0.000255435
0.0643189
0.000224819
0.0643016
0.000203086
0.0642864
0.000190336
0.0548358
0.000182931
0.0456916
0.000178354
0.0380742
0.000175122
0.0317279
0.0001725
0.02644
0.0220335
0.000170351
0.00677548
0.0315151
0.00947682
0.0657361
0.00812235
0.0720645
0.00644199
0.069924
0.00525059
0.0680147
0.00434482
0.0669854
0.00361304
0.0663362
0.00301588
0.0658744
0.00252619
0.0655353
0.00212194
0.0652822
0.00178584
0.06509
0.0015045
0.0649411
0.00126763
0.0648238
0.00106734
0.0647295
0.000897579
0.0646523
0.000753742
0.0645879
0.000632288
0.0645331
0.000530499
0.0644856
0.000446279
0.0644438
0.000377994
0.0644063
0.000324361
0.0643725
0.000284319
0.0643417
0.00025672
0.064314
0.000241435
0.0548511
0.000233364
0.0456997
0.000228988
0.0380786
0.000226288
0.0317306
0.000224317
0.026442
0.0220349
0.000222871
0.00506548
0.0264497
0.00857231
0.0622292
0.00818547
0.0724514
0.00674191
0.0713675
0.00558686
0.0691698
0.00471138
0.0678608
0.0039938
0.0670538
0.00339021
0.0664779
0.00287968
0.0660458
0.00244625
0.0657157
0.00207697
0.0654592
0.00176132
0.0652568
0.00149083
0.0650943
0.00125874
0.0649616
0.00105967
0.0648514
0.000889367
0.0647582
0.000744511
0.0646779
0.000622501
0.0646076
0.000521313
0.0645449
0.000439367
0.0644883
0.000375416
0.0644364
0.000328415
0.0643887
0.000297118
0.0643452
0.000281011
0.0548672
0.000273654
0.0457071
0.000270643
0.0380816
0.000269498
0.0317317
0.00026909
0.0264424
0.0220349
0.000269141
0.00361863
0.022831
0.00731461
0.0585332
0.00778944
0.0719765
0.00673218
0.0724248
0.00567259
0.0702294
0.00484865
0.0686848
0.00416926
0.0677332
0.00358593
0.0670613
0.00308073
0.066551
0.00264211
0.0661543
0.00226056
0.0658408
0.0019282
0.0655891
0.0016386
0.0653839
0.00138648
0.0652137
0.00116756
0.0650703
0.000978376
0.0649474
0.000816189
0.0648401
0.000678834
0.064745
0.000564625
0.0646591
0.000472256
0.0645806
0.000400706
0.064508
0.000349097
0.0644403
0.000316239
0.0643781
0.000301079
0.0548823
0.000295925
0.0457122
0.000295567
0.038082
0.000297117
0.0317302
0.000299276
0.0264402
0.0220324
0.0003017
0.00252304
0.020308
0.0060229
0.0550334
0.00710698
0.0708925
0.00648107
0.0730507
0.00557203
0.0711384
0.00481952
0.0694373
0.00419313
0.0683596
0.00364554
0.0676089
0.00316072
0.0670358
0.00273104
0.066584
0.00235018
0.0662217
0.00201272
0.0659266
0.00171413
0.0656825
0.0014506
0.0654773
0.00121903
0.0653019
0.00101691
0.0651495
0.000842236
0.0650148
0.000693458
0.0648937
0.000569403
0.0647832
0.000469204
0.0646808
0.000392224
0.064585
0.0003379
0.0644946
0.000305238
0.0644108
0.000292524
0.054895
0.000290885
0.0457139
0.000294373
0.0380785
0.000299721
0.0317248
0.000305467
0.0264345
0.0220267
0.000311195
0.00175863
0.0185494
0.00489264
0.0518994
0.00633188
0.0694532
0.00609032
0.0732923
0.00535043
0.0718783
0.0046747
0.070113
0.00410468
0.0689296
0.00359973
0.0681138
0.00314361
0.0674919
0.00273118
0.0669964
0.00235891
0.0665939
0.00202363
0.0662619
0.00172254
0.0659836
0.00145328
0.0657465
0.00121391
0.0655412
0.00100288
0.0653605
0.000818981
0.0651987
0.000661375
0.0650513
0.000529504
0.0649151
0.00042306
0.0647873
0.00034191
0.0646661
0.000285931
0.0645506
0.000254456
0.0644422
0.000245126
0.0549044
0.000247952
0.045711
0.000256262
0.0380702
0.000266408
0.0317147
0.000276735
0.0264242
0.0220167
0.000286704
0.00124765
0.0173017
0.00397196
0.0491751
0.0055779
0.0678473
0.00564312
0.073227
0.00506775
0.0724537
0.0044636
0.0707172
0.00394277
0.0694504
0.00347793
0.0685786
0.00305164
0.0679182
0.00265934
0.0673887
0.0022992
0.0669541
0.00196975
0.0665913
0.00166964
0.0662837
0.00139775
0.0660184
0.0011532
0.0657858
0.000935334
0.0655784
0.000743788
0.0653902
0.000578437
0.0652167
0.0004394
0.0650541
0.000327007
0.0648997
0.000241739
0.0647514
0.000184026
0.0646083
0.000153611
0.0644727
0.000147756
0.0549102
0.000155441
0.0457034
0.000169122
0.0380565
0.000184778
0.031699
0.000200525
0.0264084
0.0220016
0.000215638
0.000913059
0.0163887
0.00324181
0.0468463
0.0048881
0.066201
0.00518278
0.0729324
0.00475851
0.0728779
0.00421972
0.071256
0.00373817
0.069932
0.00330592
0.0690109
0.00290546
0.0683187
0.00253162
0.0677625
0.00218335
0.0673023
0.00186017
0.0669145
0.00156176
0.0665821
0.00128795
0.0662922
0.00103872
0.066035
0.000814242
0.0658029
0.000614887
0.0655896
0.00044125
0.0653903
0.000294149
0.0652012
0.000174629
0.0650192
8.38821e-05
0.0648421
2.30811e-05
0.0646691
-7.24395e-06
0.064503
-1.05654e-05
0.0549135
9.81802e-07
0.0456918
1.96426e-05
0.0380378
4.0762e-05
0.0316779
6.20974e-05
0.0263871
0.021981
8.27587e-05
0.000695069
0.0156936
0.0026689
0.0448725
0.00427493
0.064595
0.00473008
0.0724772
0.0044386
0.0731694
0.00395998
0.0717346
0.00350944
0.0703825
0.00310157
0.0694188
0.00272095
0.0686993
0.00236153
0.0681219
0.00202235
0.0676415
0.0017035
0.0672334
0.00140531
0.0668803
0.00112825
0.0665693
0.000872978
0.0662903
0.000640318
0.0660355
0.000431304
0.0657986
0.000247223
0.0655744
8.95302e-05
0.0653589
-4.00821e-05
0.0651488
-0.000139709
0.0649418
-0.000207412
0.0647368
-0.000241991
0.0645376
-0.000245751
0.0549173
-0.000231676
0.0456777
-0.000208954
0.0380151
-0.000182801
0.0316518
-0.000156015
0.0263603
0.021955
-0.000130045
0.000550103
0.0151435
0.00221921
0.0432034
0.00373803
0.0630761
0.00429661
0.0719186
0.00411687
0.0733492
0.00369311
0.0721583
0.0032671
0.0708085
0.0028762
0.0698097
0.00250915
0.0690664
0.00215923
0.0684719
0.00182517
0.0679756
0.00150729
0.0675512
0.00120632
0.0671813
0.000923152
0.0668524
0.000658927
0.0665545
0.000414996
0.0662795
0.000192936
0.0660207
-5.47402e-06
0.0657728
-0.000178167
0.0655316
-0.000322726
0.0652934
-0.000436375
0.0650554
-0.000516285
0.0648167
-0.000560302
0.0645816
-0.000569185
0.0549262
-0.000556615
0.0456652
-0.000532423
0.0379909
-0.000502555
0.0316219
-0.000470464
0.0263282
0.0219228
-0.000438261
0.000448947
0.0146945
0.00186269
0.0417896
0.00327064
0.0616682
0.00388852
0.0713007
0.00379936
0.0734383
0.00342467
0.072533
0.00301808
0.0712151
0.0026377
0.07019
0.0022782
0.0694259
0.0019326
0.0688175
0.00159916
0.068309
0.00127816
0.0678722
0.000970488
0.0674889
0.000677308
0.0671456
0.000400083
0.0668318
0.000140489
0.066539
-9.95627e-05
0.0662607
-0.000317811
0.0659911
-0.000511531
0.0657253
-0.000677555
0.0654594
-0.000812398
0.0651902
-0.000912445
0.0649168
-0.000974707
0.0646438
-0.000996763
0.0549482
-0.000992419
0.0456608
-0.000972139
0.0379706
-0.000942658
0.0315924
-0.000908328
0.0262939
0.0218866
-0.000872177
0.000373956
0.0143206
0.00157565
0.0405879
0.00286377
0.0603801
0.00350815
0.0706564
0.00349007
0.0734564
0.00315858
0.0728645
0.00276742
0.0716063
0.00239228
0.0705652
0.00203485
0.0697833
0.00168856
0.0691638
0.0013511
0.0686465
0.00102255
0.0682008
0.000703741
0.0678077
0.000395958
0.0674534
0.000100721
0.067127
-0.000180173
0.0668199
-0.00044448
0.066525
-0.000689416
0.066236
-0.000911687
0.0659476
-0.00110754
0.0656553
-0.00127288
0.0653556
-0.00140354
0.0650474
-0.00149616
0.0647365
-0.00154355
0.0549956
-0.00155879
0.0456761
-0.00155215
0.037964
-0.00153063
0.0315709
-0.00149953
0.0262628
0.0218504
-0.00146325
0.000315075
0.0140055
0.00134244
0.0395606
0.00251156
0.0592109
0.00315798
0.0700099
0.00319239
0.073422
0.00289742
0.0731595
0.00251837
0.0719853
0.00214433
0.0709392
0.0017843
0.0701433
0.00143274
0.0695153
0.00108688
0.0689923
0.000746373
0.0685413
0.000411909
0.0681422
8.45813e-05
0.0677807
-0.000234201
0.0674458
-0.000542538
0.0671283
-0.000837878
0.0668204
-0.00111708
0.0665152
-0.0013764
0.0662069
-0.00161154
0.0658904
-0.00181788
0.0655619
-0.00199114
0.0652207
-0.00212872
0.064874
-0.00221802
0.0550849
-0.00227093
0.045729
-0.002296
0.037989
-0.00229833
0.0315732
-0.00228259
0.026247
0.0218221
-0.00225436
0.00022964
0.0137759
0.000981609
0.0388086
0.00187869
0.0583139
0.00241339
0.0694752
0.0024721
0.0733633
0.0022472
0.0733844
0.00193514
0.0722974
0.00161859
0.0712558
0.00131056
0.0704514
0.0010074
0.0698185
0.000706411
0.0692933
0.000406914
0.0688408
0.000109144
0.06844
-0.000186314
0.0680762
-0.00047845
0.0677379
-0.000765672
0.0674155
-0.00104584
0.0671005
-0.00131619
0.0667856
-0.00157326
0.066464
-0.00181289
0.06613
-0.0020305
0.0657795
-0.00222196
0.0654121
-0.00238569
0.0650378
-0.0025067
0.0552059
-0.0025965
0.0458188
-0.00266189
0.0380544
-0.00270397
0.0316153
-0.00272251
0.0262656
0.0218206
-0.00272098
0.00017079
0.0136051
0.000728851
0.0382505
0.00141802
0.0576247
0.00185237
0.0690409
0.00191715
0.0732985
0.00174382
0.0735577
0.00148795
0.0725533
0.0012225
0.0715212
0.000961748
0.0707121
0.00070335
0.0700769
0.000444732
0.0695519
0.000184967
0.0691006
-7.61454e-05
0.0687011
-0.000338419
0.0683385
-0.000601228
0.0680007
-0.000863522
0.0676778
-0.00112375
0.0673608
-0.00137976
0.0670416
-0.00162863
0.0667129
-0.00186665
0.066368
-0.00208928
0.0660022
-0.00229204
0.0656149
-0.00247244
0.0652182
-0.00261252
0.055346
-0.00272606
0.0459323
-0.00282436
0.0381527
-0.00291195
0.0317029
-0.00298637
0.02634
0.0218682
-0.00303397
0.000131161
0.0134739
0.000554068
0.0378276
0.0010899
0.0570889
0.001442
0.0686888
0.00150457
0.0732359
0.00136909
0.0736932
0.00115892
0.0727634
0.000936814
0.0717433
0.000716776
0.0709321
0.000497329
0.0702963
0.000276138
0.0697731
5.21337e-05
0.0693246
-0.000175147
0.0689284
-0.000405824
0.0685691
-0.000639675
0.0682346
-0.000876186
0.0679143
-0.00111443
0.067599
-0.00135294
0.0672801
-0.00158957
0.0669495
-0.00182132
0.0665998
-0.00204416
0.066225
-0.00225333
0.0658241
-0.00244412
0.065409
-0.00259167
0.0554936
-0.00270762
0.0460483
-0.0028086
0.0382537
-0.00290885
0.0318032
-0.00302638
0.0264575
0.0220132
-0.00317143
0.000100076
0.0133738
0.000428627
0.0374991
0.000853885
0.0566636
0.00114152
0.0684012
0.00119696
0.0731805
0.00108739
0.0738028
0.000913127
0.0729377
0.000727421
0.071929
0.000542472
0.0711171
0.00035694
0.0704819
0.000168687
0.0699614
-2.33579e-05
0.0695166
-0.000219751
0.0691248
-0.000420827
0.0687702
-0.000626734
0.0684405
-0.000837404
0.068125
-0.00105249
0.0678141
-0.00127122
0.0674988
-0.00149226
0.0671705
-0.00171361
0.0668211
-0.00193242
0.0664438
-0.0021451
0.0660368
-0.00234669
0.0656106
-0.0025049
0.0556518
-0.00261991
0.0461633
-0.00269827
0.0383321
-0.00274981
0.0318547
-0.00279259
0.0265003
-0.00296317
0.0221838
0.000106593
0.0219829
0.000148542
0.0219854
0.000181552
0.0219943
0.000212222
0.0219967
0.000237077
0.0220025
0.000257405
0.022007
0.000274705
0.0220101
0.000285691
0.0220164
0.000294673
0.0220184
0.000298636
0.0220234
0.000299533
0.0220265
0.000297905
0.022029
0.000291834
0.0220334
0.00028416
0.022035
0.000273237
0.0220383
0.000260006
0.0220406
0.000245439
0.0220419
0.000227891
0.0220449
0.000209276
0.022046
0.000189419
0.0220472
0.000167994
0.0220488
0.000145949
0.0220494
0.000123231
0.0220501
9.99983e-05
0.0220506
7.66509e-05
0.0220507
5.3356e-05
0.0220507
3.0499e-05
0.0220502
8.07701e-06
0.0220498
-1.3589e-05
0.022049
-3.38584e-05
0.0220476
-5.32285e-05
0.0220467
-7.08682e-05
0.022045
-8.64738e-05
0.022043
-0.000100811
0.0220417
-0.00011184
0.0220384
-0.000120886
0.0220364
-0.00012764
0.0220341
-0.000130208
0.0220299
-0.000130982
0.0220281
-0.00012707
0.0220234
-0.000119987
0.0220203
-0.000109768
0.0220171
-9.37345e-05
0.0220113
-7.5527e-05
0.0220091
-5.05863e-05
0.0220024
-2.21875e-05
0.021999
1.10347e-05
0.0219941
5.06285e-05
0.0219878
0.0219852
9.27391e-05
0.000160719
0.0219389
0.000202466
0.0219437
0.000235506
0.0219613
0.000266445
0.0219657
0.000291819
0.0219771
0.000312912
0.0219859
0.000331212
0.0219918
0.00034343
0.0220042
0.000353854
0.0220079
0.000359465
0.0220178
0.0003622
0.0220237
0.000362584
0.0220286
0.000358693
0.0220373
0.000353347
0.0220404
0.00034489
0.0220467
0.000334251
0.0220512
0.000322379
0.0220538
0.000307633
0.0220596
0.000291899
0.0220617
0.000274991
0.0220641
0.000256577
0.0220672
0.000237583
0.0220684
0.000217946
0.0220697
0.000197815
0.0220707
0.000177571
0.0220709
0.000157369
0.0220709
0.00013759
0.02207
0.000118208
0.0220692
9.95352e-05
0.0220677
8.22063e-05
0.022065
6.56969e-05
0.0220632
5.08322e-05
0.0220599
3.79015e-05
0.0220559
2.61155e-05
0.0220535
1.75175e-05
0.022047
1.0756e-05
0.0220432
6.12709e-06
0.0220387
5.52487e-06
0.0220305
6.52618e-06
0.0220271
1.20277e-05
0.0220179
2.04909e-05
0.0220118
3.18681e-05
0.0220058
4.88371e-05
0.0219944
6.77248e-05
0.0219903
9.30987e-05
0.021977
0.00012165
0.0219704
0.000154729
0.0219611
0.000193863
0.0219486
0.0219439
0.00023517
0.000214399
0.0218948
0.000256372
0.0219017
0.000289895
0.0219278
0.000321569
0.0219341
0.000347932
0.0219508
0.000370258
0.0219636
0.000390021
0.021972
0.000403929
0.0219902
0.000416248
0.0219956
0.000423958
0.0220101
0.000428975
0.0220187
0.000431811
0.0220258
0.00043054
0.0220386
0.000427955
0.022043
0.000422397
0.0220523
0.000414778
0.0220588
0.000406029
0.0220625
0.000394509
0.0220712
0.000382076
0.0220741
0.000368534
0.0220777
0.000353547
0.0220822
0.000338014
0.0220839
0.000321862
0.0220859
0.000305236
0.0220873
0.000288489
0.0220877
0.000271768
0.0220876
0.000255449
0.0220863
0.000239478
0.0220851
0.00022416
0.022083
0.000210122
0.022079
0.000196814
0.0220765
0.000185057
0.0220716
0.000175126
0.0220658
0.000166208
0.0220624
0.000160353
0.0220528
0.000156179
0.0220473
0.00015397
0.0220409
0.000155622
0.0220289
0.000158677
0.0220241
0.00016604
0.0220106
0.000176145
0.0220017
0.000188931
0.021993
0.000207078
0.0219762
0.000226875
0.0219705
0.000252902
0.021951
0.000281815
0.0219415
0.000314957
0.0219279
0.000353842
0.0219097
0.0219032
0.000394546
0.000267623
0.0218501
0.000310492
0.0218588
0.000345147
0.0218931
0.0003782
0.021901
0.000406197
0.0219228
0.000430405
0.0219394
0.000452288
0.0219501
0.000468551
0.021974
0.000483439
0.0219807
0.000493926
0.0219996
0.000501911
0.0220107
0.000507892
0.0220198
0.000509936
0.0220365
0.000510811
0.0220421
0.000508855
0.0220543
0.00050496
0.0220627
0.000500037
0.0220675
0.000492448
0.0220788
0.000484019
0.0220826
0.000474543
0.0220871
0.00046368
0.022093
0.000452299
0.0220953
0.000440321
0.0220978
0.000427879
0.0220998
0.000415302
0.0221003
0.000402727
0.0221001
0.000390522
0.0220985
0.000378607
0.022097
0.000367275
0.0220943
0.000357151
0.0220891
0.000347652
0.022086
0.000339597
0.0220797
0.00033325
0.0220722
0.000327767
0.0220679
0.000325208
0.0220554
0.000324161
0.0220484
0.000324897
0.0220402
0.000329316
0.0220245
0.000334921
0.0220185
0.000344631
0.0220009
0.000356851
0.0219895
0.000371507
0.0219783
0.000391286
0.0219564
0.000412435
0.0219493
0.000439555
0.0219239
0.000469262
0.0219118
0.000502892
0.0218943
0.000541956
0.0218707
0.0218627
0.000582479
0.000315497
0.0218037
0.000360153
0.0218142
0.000396826
0.0218565
0.000432141
0.0218657
0.000462655
0.0218923
0.000489634
0.0219124
0.000514534
0.0219252
0.000534058
0.0219545
0.000552427
0.0219624
0.000566616
0.0219854
0.000578502
0.0219988
0.000588567
0.0220097
0.000594877
0.0220302
0.000600169
0.0220368
0.000602776
0.0220516
0.000603574
0.0220619
0.000603448
0.0220676
0.000600764
0.0220814
0.000597314
0.022086
0.00059288
0.0220916
0.000587114
0.0220988
0.000580857
0.0221016
0.000574018
0.0221047
0.000566721
0.0221071
0.000559267
0.0221077
0.000551781
0.0221076
0.000544625
0.0221057
0.000537687
0.022104
0.000531251
0.0221008
0.000525936
0.0220944
0.000521126
0.0220909
0.000517639
0.0220832
0.000515722
0.0220741
0.000514503
0.0220691
0.000516056
0.0220538
0.000518929
0.0220455
0.000523385
0.0220358
0.000531329
0.0220165
0.000540224
0.0220096
0.000553004
0.0219881
0.000568047
0.0219744
0.000585263
0.0219611
0.000607354
0.0219343
0.000630522
0.0219261
0.000659393
0.021895
0.000690547
0.0218806
0.000725317
0.0218595
0.000765209
0.0218308
0.0218217
0.000806199
0.00035073
0.0217547
0.000398257
0.0217666
0.000438034
0.0218167
0.000476705
0.021827
0.000510842
0.0218581
0.000541714
0.0218815
0.000570766
0.0218962
0.000594704
0.0219305
0.000617727
0.0219393
0.000636805
0.0219663
0.000653798
0.0219818
0.000669169
0.0219943
0.000680979
0.0220184
0.000691937
0.0220258
0.000700369
0.0220432
0.00070713
0.0220552
0.000713081
0.0220616
0.000716589
0.0220779
0.000719411
0.0220832
0.000721312
0.0220897
0.000721939
0.0220982
0.000722099
0.0221014
0.000721688
0.0221051
0.000720822
0.0221079
0.000719767
0.0221088
0.000718635
0.0221088
0.000717782
0.0221065
0.000717061
0.0221047
0.000716743
0.0221011
0.000717443
0.0220937
0.000718506
0.0220898
0.000720749
0.0220809
0.000724404
0.0220704
0.000728563
0.0220649
0.000735318
0.0220471
0.000743176
0.0220377
0.000752388
0.0220265
0.000764871
0.022004
0.000778038
0.0219964
0.000794847
0.0219713
0.000813643
0.0219556
0.000834325
0.0219404
0.000859612
0.021909
0.000885655
0.0219001
0.000917119
0.0218636
0.000950537
0.0218472
0.000987244
0.0218228
0.00102875
0.0217893
0.0217795
0.00107096
0.000364141
0.0217017
0.000415808
0.021715
0.000459978
0.0217725
0.000503321
0.0217837
0.000542421
0.021819
0.000578551
0.0218454
0.000613154
0.0218616
0.00064293
0.0219007
0.000672063
0.0219102
0.000697514
0.0219409
0.000721126
0.0219582
0.000743343
0.0219721
0.000762217
0.0219995
0.000780427
0.0220076
0.000796292
0.0220273
0.000810642
0.0220408
0.000824313
0.022048
0.000835667
0.0220666
0.000846425
0.0220724
0.000856335
0.0220798
0.000865033
0.0220895
0.00087329
0.0220931
0.000880986
0.0220974
0.000888222
0.0221007
0.000895231
0.0221018
0.000902105
0.0221019
0.000909194
0.0220994
0.000916309
0.0220976
0.000923707
0.0220937
0.000931994
0.0220854
0.000940475
0.0220813
0.000949962
0.0220714
0.000960669
0.0220597
0.00097165
0.022054
0.000985014
0.0220337
0.000999224
0.0220234
0.00101452
0.0220113
0.00103282
0.0219857
0.0010515
0.0219777
0.00107353
0.0219492
0.00109724
0.0219319
0.00112249
0.0219152
0.00115204
0.0218795
0.00118198
0.0218702
0.00121702
0.0218285
0.00125365
0.0218106
0.00129321
0.0217833
0.00133719
0.0217453
0.0217352
0.00138147
0.000344946
0.0216435
0.00040219
0.0216577
0.000452225
0.0217225
0.000501759
0.0217342
0.000547386
0.0217734
0.000590386
0.0218024
0.000632202
0.0218197
0.000669522
0.0218634
0.000706525
0.0218732
0.000740155
0.0219072
0.000772237
0.0219261
0.000803198
0.0219412
0.000831071
0.0219717
0.000858513
0.0219802
0.000883821
0.022002
0.000907803
0.0220168
0.000931266
0.0220245
0.000952561
0.0220453
0.000973373
0.0220516
0.000993424
0.0220597
0.00101234
0.0220706
0.00103084
0.0220746
0.0010488
0.0220794
0.00106628
0.0220832
0.0010835
0.0220846
0.0011005
0.0220849
0.00111764
0.0220823
0.00113468
0.0220806
0.00115184
0.0220765
0.00116974
0.0220675
0.00118762
0.0220634
0.00120628
0.0220528
0.00122593
0.0220401
0.00124557
0.0220343
0.00126732
0.022012
0.00128961
0.0220012
0.00131264
0.0219882
0.00133836
0.02196
0.00136407
0.021952
0.0013928
0.0219205
0.0014228
0.0219019
0.00145396
0.021884
0.00148903
0.0218444
0.00152406
0.0218351
0.00156381
0.0217888
0.00160472
0.0217697
0.00164811
0.0217399
0.00169553
0.0216979
0.021688
0.00174274
0.000280674
0.0215784
0.000345042
0.0215934
0.000402536
0.021665
0.00045996
0.0216767
0.000513902
0.0217194
0.000565645
0.0217507
0.00061663
0.0217688
0.000663524
0.0218165
0.000710508
0.0218262
0.000754493
0.0218633
0.000797297
0.0218833
0.000839321
0.0218991
0.000878571
0.0219324
0.000917685
0.0219411
0.000954933
0.0219648
0.000991095
0.0219807
0.00102695
0.0219887
0.00106082
0.0220114
0.00109436
0.0220181
0.00112725
0.0220268
0.0011591
0.0220387
0.0011906
0.0220432
0.00122156
0.0220485
0.00125205
0.0220527
0.00128221
0.0220544
0.00131208
0.022055
0.00134197
0.0220524
0.0013716
0.0220509
0.00140116
0.022047
0.00143125
0.0220375
0.00146106
0.0220336
0.00149137
0.0220224
0.00152236
0.0220091
0.00155296
0.0220037
0.00158534
0.0219796
0.00161785
0.0219687
0.00165067
0.0219554
0.00168577
0.0219249
0.00172037
0.0219174
0.00175754
0.0218834
0.0017955
0.021864
0.00183409
0.0218454
0.00187614
0.0218024
0.00191759
0.0217937
0.0019633
0.0217431
0.00200961
0.0217234
0.0020579
0.0216916
0.00210969
0.0216461
0.021637
0.00216068
0.000156292
0.0215049
0.000229383
0.0215203
0.000296232
0.0215981
0.000363566
0.0216094
0.000427894
0.0216551
0.000490519
0.0216881
0.000552928
0.0217063
0.000611759
0.0217577
0.000671211
0.0217668
0.00072815
0.0218063
0.000784382
0.0218271
0.000840288
0.0218432
0.000893828
0.0218789
0.00094763
0.0218873
0.000999919
0.0219125
0.00105145
0.0219292
0.00110296
0.0219371
0.00115273
0.0219616
0.00120239
0.0219684
0.00125158
0.0219776
0.00129985
0.0219904
0.00134785
0.0219952
0.00139536
0.022001
0.00144239
0.0220057
0.00148904
0.0220078
0.00153529
0.0220088
0.00158143
0.0220063
0.0016271
0.0220053
0.00167246
0.0220016
0.00171808
0.0219918
0.00176305
0.0219887
0.00180816
0.0219773
0.00185354
0.0219637
0.00189805
0.0219592
0.00194387
0.0219338
0.00198927
0.0219233
0.00203442
0.0219103
0.0020813
0.021878
0.00212704
0.0218717
0.00217475
0.0218356
0.00222259
0.0218161
0.00227041
0.0217976
0.00232106
0.0217517
0.0023704
0.0217443
0.00242337
0.0216901
0.00247626
0.0216705
0.00253046
0.0216374
0.00258751
0.021589
0.0215815
0.00264302
-4.78664e-05
0.0214227
3.61357e-05
0.0214363
0.000114673
0.0215196
0.000194445
0.0215296
0.000271634
0.0215779
0.000347798
0.0216119
0.000424448
0.0216297
0.000498126
0.021684
0.000573085
0.0216918
0.000646139
0.0217333
0.000719108
0.0217541
0.000792349
0.02177
0.000863771
0.0218075
0.000936004
0.021815
0.00100721
0.0218413
0.00107812
0.0218583
0.00114942
0.0218658
0.00121934
0.0218917
0.00128946
0.0218983
0.00135936
0.0219077
0.00142855
0.0219213
0.0014976
0.0219261
0.00156624
0.0219323
0.00163443
0.0219375
0.00170217
0.02194
0.00176939
0.0219415
0.00183633
0.0219393
0.00190254
0.0219391
0.00196811
0.021936
0.00203357
0.0219264
0.00209792
0.0219243
0.0021619
0.0219134
0.00222558
0.0219
0.00228775
0.021897
0.00235058
0.0218709
0.00241225
0.0218616
0.00247288
0.0218496
0.00253448
0.0218164
0.00259406
0.0218121
0.00265479
0.0217749
0.00271477
0.0217562
0.00277381
0.0217386
0.00283484
0.0216907
0.0028936
0.0216856
0.00295517
0.0216285
0.00301574
0.0216099
0.00307673
0.0215764
0.00313973
0.021526
0.021521
0.00320024
-0.000344156
0.0213286
-0.000248871
0.021341
-0.000158528
0.0214292
-6.59015e-05
0.021437
2.60503e-05
0.021486
0.000118227
0.0215197
0.00021186
0.0215361
0.000303392
0.0215925
0.000397186
0.021598
0.000489981
0.0216405
0.000583601
0.0216605
0.000678377
0.0216752
0.000772128
0.0217137
0.000867473
0.0217197
0.000962494
0.0217463
0.00105788
0.0217629
0.00115427
0.0217694
0.0012498
0.0217962
0.00134601
0.0218021
0.00144238
0.0218113
0.00153836
0.0218253
0.00163443
0.02183
0.00173022
0.0218365
0.00182562
0.0218421
0.00192054
0.0218451
0.0020148
0.0218473
0.00210856
0.0218456
0.00220125
0.0218464
0.00229288
0.0218444
0.00238389
0.0218354
0.00247315
0.021835
0.00256134
0.0218252
0.00264845
0.0218129
0.00273312
0.0218124
0.00281755
0.0217865
0.00289977
0.0217794
0.00297984
0.0217695
0.0030598
0.0217365
0.0031365
0.0217354
0.0032132
0.0216982
0.00328788
0.0216815
0.00336036
0.0216661
0.00343365
0.0216174
0.00350336
0.0216159
0.00357472
0.0215572
0.00364383
0.0215408
0.00371217
0.021508
0.00378141
0.0214568
0.0214555
0.0038469
-0.000766292
0.0212227
-0.00065693
0.0212316
-0.000551039
0.0213234
-0.00044149
0.0213275
-0.000332326
0.0213768
-0.000221952
0.0214093
-0.000108672
0.0214228
3.94971e-06
0.0214799
0.000120289
0.0214817
0.000236843
0.0215239
0.000355561
0.0215418
0.000476954
0.0215538
0.000598498
0.0215922
0.00072286
0.0215953
0.000847992
0.0216211
0.000974446
0.0216364
0.0011028
0.0216411
0.00123105
0.0216679
0.00136068
0.0216725
0.00149108
0.0216809
0.00162157
0.0216948
0.00175253
0.0216991
0.00188348
0.0217056
0.00201418
0.0217114
0.00214439
0.0217149
0.00227381
0.0217178
0.00240248
0.0217169
0.00252963
0.0217192
0.00265516
0.0217189
0.00277937
0.0217112
0.00290095
0.0217135
0.00302047
0.0217056
0.00313778
0.0216956
0.00325135
0.0216988
0.00336336
0.0216745
0.00347166
0.0216711
0.00357621
0.021665
0.00367906
0.0216336
0.00377687
0.0216376
0.00387299
0.0216021
0.0039653
0.0215892
0.00405358
0.0215778
0.00414096
0.02153
0.00422292
0.0215339
0.00430492
0.0214752
0.00438293
0.0214628
0.00445856
0.0214324
0.00453357
0.0213818
0.0213859
0.0046032
-0.00134623
0.0211057
-0.00122368
0.0211091
-0.00110275
0.0212024
-0.000975816
0.0212005
-0.00084672
0.0212477
-0.000714075
0.0212767
-0.000576324
0.021285
-0.000437328
0.0213409
-0.000292465
0.0213368
-0.00014536
0.0213768
5.63495e-06
0.0213908
0.000160197
0.0213993
0.000316325
0.021436
0.000477268
0.0214344
0.00064045
0.021458
0.00080639
0.0214705
0.000975612
0.0214719
0.00114587
0.0214977
0.00131855
0.0214998
0.00149293
0.0215066
0.00166816
0.0215196
0.00184452
0.0215227
0.00202134
0.0215288
0.00219823
0.0215345
0.00237475
0.0215384
0.00255039
0.0215422
0.00272502
0.0215423
0.00289759
0.0215466
0.00306779
0.0215487
0.00323573
0.0215432
0.0033998
0.0215494
0.00356039
0.021545
0.00371716
0.0215388
0.00386828
0.0215477
0.00401591
0.0215269
0.00415758
0.0215294
0.00429315
0.0215294
0.00442466
0.0215021
0.0045485
0.0215137
0.00466812
0.0214825
0.00478126
0.021476
0.00488766
0.0214714
0.00499065
0.021427
0.00508551
0.0214391
0.00517805
0.0213826
0.00526415
0.0213767
0.0053456
0.021351
0.00542436
0.021303
0.0213147
0.00549558
-0.00212928
0.0209806
-0.00199504
0.0209748
-0.00185967
0.021067
-0.001715
0.0210559
-0.0015648
0.0210975
-0.00140727
0.0211192
-0.00124069
0.0211185
-0.00106925
0.0211694
-0.000888499
0.0211561
-0.000702628
0.0211909
-0.000510022
0.0211982
-0.000310556
0.0211998
-0.000107409
0.0212329
0.00010082
0.0212262
0.000312412
0.0212464
0.000528948
0.0212539
0.000750551
0.0212503
0.000974842
0.0212734
0.00120319
0.0212714
0.00143463
0.0212751
0.00166824
0.021286
0.00190407
0.0212869
0.00214131
0.0212915
0.00237933
0.0212965
0.0026174
0.0213003
0.00285472
0.0213049
0.00309084
0.0213062
0.00332432
0.0213132
0.00355444
0.0213185
0.00378104
0.0213166
0.00400197
0.0213285
0.00421736
0.0213297
0.00442652
0.0213297
0.00462716
0.021347
0.00482137
0.0213327
0.00500626
0.0213445
0.00518148
0.0213542
0.00534906
0.0213345
0.00550498
0.0213578
0.00565287
0.0213346
0.00579024
0.0213387
0.0059168
0.0213449
0.00603612
0.0213077
0.00614325
0.0213319
0.00624454
0.0212813
0.00633584
0.0212854
0.0064193
0.0212675
0.00649726
0.0212251
0.0212472
0.00656474
-0.00262066
0.0208803
-0.00250968
0.0208638
-0.00239297
0.0209503
-0.00226104
0.0209239
-0.00211676
0.0209532
-0.00195907
0.0209615
-0.00178761
0.020947
-0.0016073
0.0209891
-0.00141534
0.0209641
-0.00121636
0.020992
-0.00100976
0.0209916
-0.000796148
0.0209862
-0.000578157
0.0210149
-0.000353125
0.0210011
-0.000123713
0.021017
0.00010886
0.0210214
0.000345996
0.0210131
0.000588587
0.0210308
0.000835989
0.021024
0.00108768
0.0210234
0.00134289
0.0210307
0.00160163
0.0210281
0.00186306
0.0210301
0.00212649
0.0210331
0.00239092
0.0210359
0.00265531
0.0210405
0.0029189
0.0210426
0.00317988
0.0210522
0.00343714
0.0210613
0.00369008
0.0210637
0.00393623
0.0210823
0.00417528
0.0210906
0.00440621
0.0210988
0.00462652
0.0211267
0.0048379
0.0211213
0.00503741
0.021145
0.00522454
0.0211671
0.00540107
0.021158
0.00556318
0.0211957
0.00571416
0.0211836
0.00585165
0.0212012
0.00597535
0.0212212
0.00608843
0.0211946
0.00618637
0.021234
0.0062749
0.0211928
0.00635039
0.0212099
0.00641514
0.0212028
0.00647191
0.0211683
0.0212021
0.00651701
-0.00295678
0.0208031
-0.00287874
0.0207858
-0.00279135
0.0208629
-0.00267798
0.0208106
-0.00254063
0.0208159
-0.00238116
0.020802
-0.0022028
0.0207686
-0.00201287
0.0207992
-0.00181105
0.0207623
-0.00160266
0.0207836
-0.00138778
0.0207767
-0.0011672
0.0207656
-0.000943342
0.020791
-0.000714266
0.020772
-0.00048129
0.020784
-0.000242811
0.0207829
1.17332e-06
0.0207692
0.000244949
0.020787
0.000497075