/*--------------------------------*- C++ -*----------------------------------*\
| =========                 |                                                 |
| \\      /  F ield         | OpenFOAM: The Open Source CFD Toolbox           |
|  \\    /   O peration     | Version:  2312                                  |
|   \\  /    A nd           | Website:  www.openfoam.com                      |
|    \\/     M anipulation  |                                                 |
\*---------------------------------------------------------------------------*/
FoamFile
{
    version     2.0;
    format      ascii;
    arch        "LSB;label=32;scalar=64";
    class       volVectorField;
    location    "5.179539809561893";
    object      U;
}
// * * * * * * * * * * * * * * * * * * * * * * * * * * * * * * * * * * * * * //

dimensions      [0 1 -1 0 0 0 0];

internalField   nonuniform List<vector> 
21039
(
(0.914103 0.0479145 0)
(1.02586 0.0666693 0)
(1.00447 0.0291944 0)
(1.00178 0.0189146 0)
(1.0012 0.0138976 0)
(1.00079 0.0105136 0)
(1.00054 0.00820234 0)
(1.00039 0.00657778 0)
(1.00029 0.00538632 0)
(1.00022 0.00448422 0)
(1.00017 0.00378574 0)
(1.00014 0.00323548 0)
(1.00011 0.00279614 0)
(1.00008 0.00244181 0)
(1.00007 0.00215409 0)
(1.00005 0.00191955 0)
(1.00004 0.00172819 0)
(1.00003 0.0015724 0)
(1.00002 0.00144623 0)
(1.00002 0.00134478 0)
(1.00001 0.00126384 0)
(1.00001 0.00120139 0)
(1 0.00116019 0)
(1 0.00111783 0)
(1.00001 0.00108237 0)
(1.00001 0.00105194 0)
(1.00001 0.001023 0)
(1.00002 0.000983095 0)
(1.00002 0.000903635 0)
(0.795485 0.0734615 0)
(1.07416 0.12161 0)
(1.03977 0.070207 0)
(1.01817 0.0495607 0)
(1.01129 0.038077 0)
(1.00761 0.0292749 0)
(1.00535 0.022998 0)
(1.00392 0.0184391 0)
(1.00296 0.0150004 0)
(1.00229 0.012342 0)
(1.0018 0.0102462 0)
(1.00144 0.00856498 0)
(1.00117 0.00719687 0)
(1.00095 0.00607061 0)
(1.00078 0.00513519 0)
(1.00064 0.00435335 0)
(1.00053 0.00369747 0)
(1.00043 0.00314674 0)
(1.00035 0.00268527 0)
(1.00029 0.00230061 0)
(1.00023 0.00198228 0)
(1.00018 0.00172383 0)
(1.00014 0.00153177 0)
(1.00012 0.00137217 0)
(1.00012 0.00125932 0)
(1.00013 0.00117683 0)
(1.00014 0.00111185 0)
(1.00016 0.00104315 0)
(1.00017 0.000930127 0)
(0.668339 0.0573646 0)
(1.08287 0.124435 0)
(1.08418 0.0894604 0)
(1.04631 0.0672663 0)
(1.02906 0.053655 0)
(1.0202 0.0426806 0)
(1.01463 0.0344033 0)
(1.01093 0.0280397 0)
(1.00837 0.0230281 0)
(1.00655 0.0190374 0)
(1.00522 0.0158194 0)
(1.00422 0.0131901 0)
(1.00346 0.0110166 0)
(1.00286 0.00920241 0)
(1.00238 0.00767618 0)
(1.00199 0.00638483 0)
(1.00167 0.00528842 0)
(1.0014 0.00435669 0)
(1.00116 0.00356649 0)
(1.00096 0.00290006 0)
(1.00079 0.00234279 0)
(1.00064 0.00188392 0)
(1.00051 0.00153279 0)
(1.00043 0.00125327 0)
(1.00039 0.00106024 0)
(1.00038 0.000918586 0)
(1.0004 0.000809748 0)
(1.00042 0.000708926 0)
(1.00045 0.00056918 0)
(0.542255 0.0351995 0)
(1.05112 0.110269 0)
(1.11578 0.0959643 0)
(1.07604 0.0754995 0)
(1.04919 0.0612839 0)
(1.0352 0.0501822 0)
(1.02633 0.0415395 0)
(1.02015 0.0345319 0)
(1.01573 0.0287705 0)
(1.01249 0.0240267 0)
(1.01008 0.020092 0)
(1.00824 0.0168005 0)
(1.00682 0.0140256 0)
(1.00569 0.0116701 0)
(1.00478 0.00965914 0)
(1.00404 0.00793495 0)
(1.00341 0.00645315 0)
(1.00289 0.00517947 0)
(1.00243 0.00408749 0)
(1.00203 0.00315703 0)
(1.00168 0.00237209 0)
(1.00137 0.0017189 0)
(1.00109 0.00120807 0)
(1.00091 0.000805319 0)
(1.0008 0.000527872 0)
(1.00077 0.000321943 0)
(1.00077 0.000162539 0)
(1.00081 1.88789e-05 0)
(1.00084 -0.000164635 0)
(0.446019 0.0185481 0)
(0.998948 0.0911229 0)
(1.12908 0.0942579 0)
(1.10125 0.0781785 0)
(1.06812 0.0641483 0)
(1.04966 0.0535014 0)
(1.03813 0.0451432 0)
(1.0299 0.0381253 0)
(1.02381 0.032172 0)
(1.01924 0.027127 0)
(1.01575 0.0228268 0)
(1.01304 0.0191408 0)
(1.0109 0.0159663 0)
(1.00919 0.01322 0)
(1.00779 0.0108353 0)
(1.00664 0.00875925 0)
(1.00566 0.00694997 0)
(1.00482 0.00537458 0)
(1.00409 0.00400742 0)
(1.00345 0.00282883 0)
(1.00287 0.00182389 0)
(1.00235 0.000976263 0)
(1.00189 0.000300981 0)
(1.00157 -0.000229377 0)
(1.00137 -0.000601266 0)
(1.00129 -0.000876276 0)
(1.00129 -0.00109078 0)
(1.00133 -0.00128529 0)
(1.00136 -0.00151979 0)
(0.381198 0.00793953 0)
(0.942107 0.0708716 0)
(1.12752 0.0864319 0)
(1.12057 0.0766715 0)
(1.08528 0.0639864 0)
(1.0629 0.0540593 0)
(1.04912 0.0462154 0)
(1.03929 0.0394755 0)
(1.03188 0.0336203 0)
(1.02618 0.0285364 0)
(1.02175 0.0240986 0)
(1.01824 0.0202094 0)
(1.01543 0.0167905 0)
(1.01314 0.0137763 0)
(1.01125 0.0111129 0)
(1.00967 0.00875653 0)
(1.00832 0.00667213 0)
(1.00715 0.00483177 0)
(1.00612 0.00321379 0)
(1.00519 0.00180086 0)
(1.00436 0.000580047 0)
(1.00359 -0.000462577 0)
(1.00291 -0.00130673 0)
(1.00242 -0.00197368 0)
(1.00211 -0.00244836 0)
(1.00197 -0.00280019 0)
(1.00195 -0.00307441 0)
(1.00199 -0.00331879 0)
(1.00202 -0.00360481 0)
(0.336785 0.00213528 0)
(0.887402 0.052627 0)
(1.11542 0.0754268 0)
(1.13366 0.072049 0)
(1.10053 0.0615701 0)
(1.07509 0.0525885 0)
(1.05927 0.0453949 0)
(1.04814 0.0391041 0)
(1.03967 0.033514 0)
(1.03306 0.0285441 0)
(1.02783 0.0241085 0)
(1.02364 0.0201408 0)
(1.02022 0.0165848 0)
(1.01741 0.0133919 0)
(1.01505 0.0105219 0)
(1.01306 0.00794159 0)
(1.01133 0.00562429 0)
(1.00982 0.00354905 0)
(1.00847 0.00169913 0)
(1.00725 6.03998e-05 0)
(1.00614 -0.00137542 0)
(1.0051 -0.00261572 0)
(1.00417 -0.00363506 0)
(1.00347 -0.00444669 0)
(1.00304 -0.00503049 0)
(1.00283 -0.00546542 0)
(1.00278 -0.00580374 0)
(1.00281 -0.00609997 0)
(1.00283 -0.00644111 0)
(0.305445 -0.000409318 0)
(0.837717 0.0381047 0)
(1.09654 0.0639029 0)
(1.14059 0.0656838 0)
(1.11336 0.0576808 0)
(1.08619 0.0497286 0)
(1.06862 0.0432052 0)
(1.05641 0.0374341 0)
(1.04711 0.0322005 0)
(1.03977 0.0274392 0)
(1.03389 0.0230974 0)
(1.02912 0.0191354 0)
(1.02518 0.0155167 0)
(1.0219 0.0122089 0)
(1.01913 0.00918462 0)
(1.01674 0.00642144 0)
(1.01466 0.00390145 0)
(1.01281 0.00161101 0)
(1.01115 -0.000462733 0)
(1.00963 -0.00232737 0)
(1.00822 -0.00398294 0)
(1.00689 -0.00543091 0)
(1.00567 -0.00664014 0)
(1.00475 -0.0076122 0)
(1.00417 -0.00831951 0)
(1.00388 -0.00884981 0)
(1.00378 -0.00926083 0)
(1.00379 -0.00961469 0)
(1.00378 -0.0100163 0)
(0.283617 -0.00120632 0)
(0.794603 0.0273252 0)
(1.07422 0.0532259 0)
(1.14229 0.0586409 0)
(1.12353 0.0530286 0)
(1.09608 0.0461047 0)
(1.07713 0.0401899 0)
(1.06405 0.0349208 0)
(1.05412 0.0300699 0)
(1.04622 0.0255664 0)
(1.03983 0.0213768 0)
(1.03459 0.0174793 0)
(1.03023 0.0138527 0)
(1.02656 0.0104779 0)
(1.02342 0.00733901 0)
(1.02069 0.00442319 0)
(1.01828 0.00172131 0)
(1.01612 -0.000776119 0)
(1.01416 -0.00307495 0)
(1.01234 -0.00517297 0)
(1.01062 -0.0070642 0)
(1.00898 -0.00874354 0)
(1.00745 -0.010173 0)
(1.00629 -0.0113384 0)
(1.00554 -0.0121995 0)
(1.00515 -0.0128505 0)
(1.005 -0.0133538 0)
(1.00497 -0.0137801 0)
(1.0049 -0.0142542 0)
(0.268525 -0.00124466 0)
(0.758477 0.0195622 0)
(1.05103 0.0438 0)
(1.14012 0.0514998 0)
(1.13119 0.0480454 0)
(1.10478 0.0421497 0)
(1.08485 0.0367924 0)
(1.07106 0.0319828 0)
(1.06064 0.0275071 0)
(1.05235 0.0232799 0)
(1.04558 0.0192745 0)
(1.03999 0.0154789 0)
(1.0353 0.0118816 0)
(1.03131 0.00847313 0)
(1.02787 0.00524658 0)
(1.02486 0.00219773 0)
(1.02217 -0.000678786 0)
(1.01974 -0.00338662 0)
(1.0175 -0.0059219 0)
(1.01539 -0.00827572 0)
(1.01337 -0.0104359 0)
(1.01142 -0.0123903 0)
(1.00958 -0.0140933 0)
(1.00815 -0.015509 0)
(1.00723 -0.0165759 0)
(1.00671 -0.0173915 0)
(1.00649 -0.0180224 0)
(1.00639 -0.0185489 0)
(1.00625 -0.0191173 0)
(0.25788 -0.00102066 0)
(0.728896 0.0140127 0)
(1.02861 0.0356181 0)
(1.13529 0.0445317 0)
(1.13663 0.0429307 0)
(1.11232 0.0380679 0)
(1.09184 0.0332559 0)
(1.07746 0.0288715 0)
(1.06669 0.0247493 0)
(1.05812 0.0207929 0)
(1.0511 0.016976 0)
(1.04527 0.013291 0)
(1.04035 0.00973262 0)
(1.03614 0.00629817 0)
(1.03248 0.00298704 0)
(1.02924 -0.000201951 0)
(1.02634 -0.0032707 0)
(1.02369 -0.00621493 0)
(1.02122 -0.0090236 0)
(1.01885 -0.0116822 0)
(1.01656 -0.0141727 0)
(1.0143 -0.0164758 0)
(1.01215 -0.0185375 0)
(1.01046 -0.0202929 0)
(1.00935 -0.0216467 0)
(1.0087 -0.0226959 0)
(1.00837 -0.0235096 0)
(1.00816 -0.0241802 0)
(1.00791 -0.0248771 0)
(0.250192 -0.000767117 0)
(0.705105 0.00998813 0)
(1.00791 0.0285279 0)
(1.12878 0.037841 0)
(1.14012 0.0377467 0)
(1.11872 0.0338931 0)
(1.09814 0.0296222 0)
(1.08332 0.025622 0)
(1.0723 0.0218062 0)
(1.06357 0.0180794 0)
(1.05641 0.0144145 0)
(1.05045 0.0108061 0)
(1.0454 0.00725319 0)
(1.04106 0.00375723 0)
(1.03726 0.000318452 0)
(1.03389 -0.00306338 0)
(1.03085 -0.0063838 0)
(1.02804 -0.00963173 0)
(1.02539 -0.0127915 0)
(1.02282 -0.0158438 0)
(1.02029 -0.0187658 0)
(1.01776 -0.0215317 0)
(1.01533 -0.0240804 0)
(1.01339 -0.0263084 0)
(1.01209 -0.0280692 0)
(1.01129 -0.0294531 0)
(1.01081 -0.030531 0)
(1.01046 -0.0314099 0)
(1.01004 -0.0322843 0)
(0.244634 -0.000560539 0)
(0.686376 0.00697485 0)
(0.989482 0.0223462 0)
(1.12135 0.0314466 0)
(1.14195 0.0324851 0)
(1.12401 0.0295581 0)
(1.10378 0.0257945 0)
(1.08873 0.0221062 0)
(1.07757 0.0185077 0)
(1.06878 0.0149212 0)
(1.0616 0.011321 0)
(1.05561 0.00770342 0)
(1.05053 0.00406912 0)
(1.04615 0.000418298 0)
(1.04232 -0.003249 0)
(1.03892 -0.00692814 0)
(1.03582 -0.0106086 0)
(1.03293 -0.0142754 0)
(1.03017 -0.0179096 0)
(1.02746 -0.0214885 0)
(1.02475 -0.0249862 0)
(1.02201 -0.0283735 0)
(1.01933 -0.0315858 0)
(1.0172 -0.0344718 0)
(1.01572 -0.0368107 0)
(1.01475 -0.0386757 0)
(1.01408 -0.0401359 0)
(1.0135 -0.0413162 0)
(1.01285 -0.042436 0)
(0.240743 -0.000407927 0)
(0.672041 0.00464309 0)
(0.973627 0.016931 0)
(1.11366 0.0253576 0)
(1.1425 0.0271352 0)
(1.12833 0.0249796 0)
(1.1089 0.0216398 0)
(1.09385 0.018154 0)
(1.08267 0.014645 0)
(1.07394 0.0110676 0)
(1.06683 0.00740145 0)
(1.06092 0.00364264 0)
(1.05592 -0.000211055 0)
(1.05162 -0.00415981 0)
(1.04787 -0.00819904 0)
(1.04452 -0.0123196 0)
(1.04145 -0.0165079 0)
(1.03858 -0.0207466 0)
(1.03579 -0.0250145 0)
(1.03302 -0.029287 0)
(1.0302 -0.0335374 0)
(1.02731 -0.0377375 0)
(1.02448 -0.041828 0)
(1.02221 -0.0456065 0)
(1.02059 -0.0487505 0)
(1.01944 -0.051299 0)
(1.01851 -0.0533107 0)
(1.01761 -0.0549302 0)
(1.0166 -0.0563941 0)
(0.238203 -0.000310474 0)
(0.66149 0.00280598 0)
(0.960497 0.0122456 0)
(1.10626 0.0196659 0)
(1.14214 0.0217716 0)
(1.13183 0.0201496 0)
(1.11359 0.0170912 0)
(1.09879 0.0136694 0)
(1.08775 0.0101011 0)
(1.07918 0.00638084 0)
(1.07226 0.00249429 0)
(1.06653 -0.00156428 0)
(1.06173 -0.00579689 0)
(1.05761 -0.0102002 0)
(1.05403 -0.0147661 0)
(1.05083 -0.0194835 0)
(1.0479 -0.0243374 0)
(1.04512 -0.0293094 0)
(1.0424 -0.0343769 0)
(1.03965 -0.0395134 0)
(1.0368 -0.0446936 0)
(1.03388 -0.0498959 0)
(1.03103 -0.0550811 0)
(1.02881 -0.0600133 0)
(1.02721 -0.0642511 0)
(1.02594 -0.0677766 0)
(1.02472 -0.0706128 0)
(1.02339 -0.0729003 0)
(1.0219 -0.0748522 0)
(0.236892 -0.000232404 0)
(0.654614 0.00148077 0)
(0.950808 0.00855088 0)
(1.10019 0.0148558 0)
(1.14154 0.0169495 0)
(1.13472 0.0155953 0)
(1.11784 0.0126528 0)
(1.10349 0.00916709 0)
(1.09272 0.00542098 0)
(1.08441 0.00144212 0)
(1.07777 -0.00277794 0)
(1.07233 -0.00724473 0)
(1.0678 -0.0119576 0)
(1.06395 -0.0169115 0)
(1.06063 -0.0220987 0)
(1.05767 -0.0275088 0)
(1.05495 -0.0331282 0)
(1.05235 -0.0389391 0)
(1.04978 -0.0449178 0)
(1.04713 -0.0510342 0)
(1.04435 -0.0572598 0)
(1.04148 -0.0635728 0)
(1.03875 -0.0699487 0)
(1.03676 -0.0761346 0)
(1.03539 -0.0816106 0)
(1.03418 -0.0863317 0)
(1.03276 -0.0902701 0)
(1.03092 -0.0935061 0)
(1.02871 -0.0961485 0)
(0.236397 -0.000174211 0)
(0.65068 0.000628749 0)
(0.94444 0.00593551 0)
(1.09586 0.0112344 0)
(1.14107 0.0131221 0)
(1.13704 0.011829 0)
(1.12145 0.00887459 0)
(1.10762 0.00525146 0)
(1.09717 0.00127852 0)
(1.08918 -0.00299503 0)
(1.08284 -0.00757265 0)
(1.07772 -0.012458 0)
(1.07349 -0.0176496 0)
(1.06996 -0.0231439 0)
(1.06693 -0.028936 0)
(1.06425 -0.0350196 0)
(1.0618 -0.0413857 0)
(1.05945 -0.0480209 0)
(1.05709 -0.0549041 0)
(1.05463 -0.0620034 0)
(1.05199 -0.0692844 0)
(1.04924 -0.0767149 0)
(1.04671 -0.0842504 0)
(1.04507 -0.0915832 0)
(1.04413 -0.0981504 0)
(1.04332 -0.103999 0)
(1.0421 -0.109223 0)
(1.0402 -0.1139 0)
(1.0377 -0.117678 0)
(0.236243 -0.000111802 0)
(0.648254 0.000104918 0)
(0.940056 0.00411402 0)
(1.09271 0.00855632 0)
(1.14079 0.0101581 0)
(1.13902 0.00881418 0)
(1.12456 0.00578602 0)
(1.11125 0.00200576 0)
(1.10114 -0.00219324 0)
(1.09345 -0.00674858 0)
(1.08742 -0.0116587 0)
(1.0826 -0.0169259 0)
(1.07869 -0.0225496 0)
(1.07545 -0.028529 0)
(1.07272 -0.0348641 0)
(1.07034 -0.041555 0)
(1.06818 -0.0486006 0)
(1.06611 -0.0559955 0)
(1.06401 -0.0637259 0)
(1.06176 -0.0717646 0)
(1.05931 -0.0800766 0)
(1.05672 -0.0886166 0)
(1.05437 -0.0972935 0)
(1.05297 -0.105622 0)
(1.05236 -0.112884 0)
(1.05211 -0.11925 0)
(1.05186 -0.125183 0)
(1.05138 -0.131168 0)
(1.04977 -0.136488 0)
(0.236648 -0.000129804 0)
(0.647462 -0.00024659 0)
(0.937739 0.00290625 0)
(1.09093 0.00669186 0)
(1.14086 0.0079765 0)
(1.14072 0.00647832 0)
(1.12719 0.0033157 0)
(1.11437 -0.00062833 0)
(1.1046 -0.00503379 0)
(1.09721 -0.00984014 0)
(1.09149 -0.0150438 0)
(1.08698 -0.020646 0)
(1.08337 -0.0266471 0)
(1.08044 -0.0330503 0)
(1.07803 -0.0398615 0)
(1.07598 -0.0470895 0)
(1.07415 -0.0547433 0)
(1.07241 -0.0628301 0)
(1.07065 -0.0713483 0)
(1.06875 -0.0802869 0)
(1.06664 -0.0896314 0)
(1.06442 -0.0993449 0)
(1.06252 -0.109361 0)
(1.06156 -0.118977 0)
(1.0613 -0.127102 0)
(1.0614 -0.133593 0)
(1.0616 -0.138552 0)
(1.06212 -0.143402 0)
(1.06502 -0.152127 0)
(1.00002 0.000910352 0)
(1.00002 0.000907627 0)
(1.00002 0.000897687 0)
(1.00002 0.000888244 1.01388e-21)
(1.00002 0.000880641 5.05171e-21)
(1.00002 0.000874659 -9.08621e-21)
(1.00002 0.00087015 5.044e-21)
(1.00002 0.000866978 -4.01343e-21)
(1.00001 0.000865006 5.1538e-22)
(1.00001 0.000864273 4.00889e-21)
(1.00001 0.000864599 0)
(1.00001 0.000866018 -4.47358e-21)
(1.00001 0.000868389 5.10491e-22)
(1.00001 0.000871607 3.96929e-21)
(1.00001 0.000875682 0)
(1.00001 0.000880432 0)
(1.00001 0.000885875 -3.92296e-21)
(1 0.000891842 3.92544e-21)
(1 0.000898189 0)
(1 0.000904977 -1.9439e-21)
(1 0.000911988 2.06608e-21)
(1 0.000919138 1.81045e-21)
(0.999999 0.000926415 -2.89443e-21)
(0.999998 0.000933616 9.32633e-22)
(0.999997 0.000940688 2.98666e-23)
(0.999996 0.000947608 -5.96857e-23)
(0.999996 0.000954169 8.29878e-22)
(0.999995 0.000960325 -9.48598e-22)
(0.999995 0.000965976 0)
(0.999994 0.000970958 0)
(0.999994 0.000975352 -2.33801e-22)
(0.999994 0.000979072 -2.32783e-22)
(0.999994 0.00098198 -3.9325e-21)
(0.999994 0.000984106 3.23663e-21)
(0.999994 0.000985309 -4.12661e-21)
(0.999994 0.000985555 4.12128e-21)
(0.999995 0.000984868 -3.1782e-21)
(0.999995 0.0009831 3.17687e-21)
(0.999996 0.000980295 4.50666e-22)
(0.999997 0.000976362 4.48496e-22)
(0.999998 0.000971291 -4.46303e-22)
(0.999998 0.000965103 0)
(1 0.000957689 0)
(1 0.00094914 0)
(1 0.00093937 0)
(1 0.000928548 0)
(1 0.000916777 1.73029e-21)
(1.00001 0.000903067 -1.72754e-21)
(1.00001 0.000881964 0)
(1.00017 0.000917461 0)
(1.00016 0.000895624 2.04814e-21)
(1.00015 0.000868738 -2.03924e-21)
(1.00013 0.000845385 -1.01632e-21)
(1.00012 0.000826824 -1.01699e-21)
(1.0001 0.000812373 -3.03695e-21)
(1.00009 0.000801895 5.06977e-21)
(1.00008 0.000795349 0)
(1.00007 0.000792268 -5.03812e-22)
(1.00005 0.000792887 -1.00555e-21)
(1.00004 0.000796696 0)
(1.00003 0.000803726 5.00065e-22)
(1.00002 0.000813759 -4.48188e-21)
(1.00001 0.000826393 3.98671e-21)
(1 0.000841721 0)
(0.999991 0.000859286 9.8991e-22)
(0.999982 0.000879041 0)
(0.999973 0.000900757 0)
(0.999965 0.000923971 0)
(0.999958 0.000948787 -1.95186e-21)
(0.999952 0.000974798 1.83079e-21)
(0.999946 0.00100171 -1.21545e-22)
(0.99994 0.00102947 0)
(0.999936 0.00105768 -4.51328e-22)
(0.999932 0.00108612 4.74018e-22)
(0.999928 0.00111466 8.98116e-23)
(0.999926 0.00114288 1.19263e-22)
(0.999924 0.00117058 0)
(0.999924 0.00119767 -1.89009e-21)
(0.999924 0.00122374 1.88951e-21)
(0.999924 0.00124872 -3.51394e-21)
(0.999925 0.00127243 7.71291e-21)
(0.999927 0.00129459 -3.49762e-21)
(0.99993 0.00131516 4.63284e-22)
(0.999934 0.00133378 4.61224e-22)
(0.999938 0.00135036 4.59128e-22)
(0.999943 0.00136481 -4.56974e-22)
(0.999948 0.00137677 4.08692e-21)
(0.999955 0.00138628 -3.17579e-21)
(0.999962 0.00139301 -1.35155e-21)
(0.999969 0.0013969 4.92546e-21)
(0.999978 0.00139784 -3.57644e-21)
(0.999987 0.0013955 -1.77584e-21)
(0.999996 0.00139 3.52882e-21)
(1.00001 0.00138086 -7.03724e-21)
(1.00002 0.00136852 3.50759e-21)
(1.00003 0.00135256 1.73889e-21)
(1.00004 0.00133192 -4.10175e-24)
(1.00005 0.00130013 0)
(1.00043 0.000521427 3.08384e-21)
(1.0004 0.000470622 -1.03071e-21)
(1.00036 0.000422664 -4.09738e-21)
(1.00032 0.000382146 2.04148e-21)
(1.00028 0.00034953 -2.03862e-21)
(1.00024 0.000323632 0)
(1.0002 0.000304486 -2.02702e-21)
(1.00017 0.000292135 -6.06207e-21)
(1.00013 0.000285543 6.06211e-21)
(1.0001 0.000285311 1.00586e-21)
(1.00006 0.000290446 0)
(1.00003 0.000301038 -6.00224e-21)
(1 0.000316882 1.37758e-23)
(0.999975 0.000337142 3.99013e-21)
(0.999948 0.000362139 0)
(0.999923 0.000391044 -9.89652e-22)
(0.999899 0.000423758 -9.88232e-22)
(0.999877 0.000460085 0)
(0.999857 0.000499053 -9.82123e-22)
(0.999839 0.000540903 -1.95274e-21)
(0.999823 0.000585052 1.95335e-21)
(0.999808 0.000630886 -2.43433e-22)
(0.999796 0.000678365 -2.42279e-22)
(0.999785 0.000726858 0)
(0.999777 0.000775936 3.74969e-23)
(0.99977 0.000825452 -2.09653e-22)
(0.999766 0.000874808 0)
(0.999764 0.000923637 0)
(0.999764 0.000971795 -1.88974e-21)
(0.999765 0.00101875 1.88912e-21)
(0.999769 0.00106429 -3.74746e-21)
(0.999774 0.0011081 3.74576e-21)
(0.999781 0.00114972 0)
(0.99979 0.00118906 0)
(0.999801 0.00122553 0)
(0.999814 0.00125899 -9.1791e-22)
(0.999828 0.00128922 -1.82725e-21)
(0.999845 0.00131561 0)
(0.999863 0.00133827 -9.05185e-22)
(0.999883 0.00135653 -8.94231e-22)
(0.999905 0.00137036 2.69638e-21)
(0.999928 0.0013795 0)
(0.999953 0.00138334 3.54703e-21)
(0.99998 0.00138214 -5.30738e-21)
(1.00001 0.001375 0)
(1.00004 0.00136248 0)
(1.00007 0.00134394 0)
(1.0001 0.00131866 -1.73436e-21)
(1.00014 0.00127983 -1.72267e-21)
(1.0008 -0.000244545 -2.06092e-21)
(1.00074 -0.000313586 4.11987e-21)
(1.00066 -0.000384831 4.1104e-21)
(1.00058 -0.000444629 6.13944e-21)
(1.00051 -0.000492611 -2.05082e-21)
(1.00043 -0.000529578 -4.06815e-21)
(1.00036 -0.000557333 8.1314e-21)
(1.00029 -0.000575633 -5.91736e-24)
(1.00022 -0.000585636 -2.02083e-21)
(1.00015 -0.00058643 2.01981e-21)
(1.00009 -0.000579812 0)
(1.00003 -0.000565395 2.00483e-21)
(0.999967 -0.000543387 -1.99111e-21)
(0.999912 -0.000515397 7.98216e-21)
(0.99986 -0.000480708 -7.95855e-21)
(0.999812 -0.000440478 5.9611e-21)
(0.999766 -0.00039484 -9.92643e-22)
(0.999725 -0.000344021 9.87115e-22)
(0.999687 -0.000289571 9.81827e-22)
(0.999652 -0.000230912 -9.80786e-22)
(0.999622 -0.000168851 0)
(0.999595 -0.000104559 -1.45608e-21)
(0.999572 -3.7923e-05 1.21707e-21)
(0.999553 3.03515e-05 9.67755e-22)
(0.999538 9.95775e-05 4.50662e-23)
(0.999527 0.000169645 8.97261e-23)
(0.99952 0.000239775 1.43063e-21)
(0.999516 0.000309438 -9.52623e-22)
(0.999517 0.000378511 1.88981e-21)
(0.99952 0.00044618 -1.88929e-21)
(0.999528 0.000512088 0)
(0.999539 0.000575872 4.66554e-21)
(0.999553 0.000636848 -3.72895e-21)
(0.999572 0.000694901 3.69674e-21)
(0.999593 0.000749207 -3.6952e-21)
(0.999619 0.000799552 0)
(0.999647 0.000845657 3.64559e-21)
(0.99968 0.000886648 -1.82571e-21)
(0.999716 0.000922704 0)
(0.999755 0.000952854 3.59336e-21)
(0.999798 0.000977083 -3.59127e-21)
(0.999844 0.000995049 1.78227e-21)
(0.999893 0.00100583 1.77588e-21)
(0.999946 0.00100993 5.29608e-21)
(1 0.00100592 3.75047e-24)
(1.00006 0.000994263 3.50501e-21)
(1.00013 0.000974593 1.73734e-21)
(1.00019 0.000947844 1.72485e-21)
(1.00027 0.00090623 1.72539e-21)
(1.0013 -0.00165114 0)
(1.00119 -0.0017441 -4.1239e-21)
(1.00107 -0.00182585 -4.11216e-21)
(1.00094 -0.00189746 0)
(1.00081 -0.00195417 -4.09299e-21)
(1.00069 -0.00199157 1.36693e-23)
(1.00056 -0.00202232 8.17557e-21)
(1.00044 -0.00204962 -2.04598e-21)
(1.00033 -0.00205872 -1.33379e-23)
(1.00022 -0.00205467 -6.07579e-21)
(1.00011 -0.00204762 0)
(1.00001 -0.00202894 -6.03717e-21)
(0.999916 -0.00199544 2.01693e-21)
(0.999826 -0.0019578 0)
(0.99974 -0.00191396 -1.99938e-21)
(0.999661 -0.00185791 6.41325e-24)
(0.999587 -0.00179477 -1.97906e-21)
(0.999519 -0.00172696 6.91941e-21)
(0.999457 -0.0016536 -1.45031e-23)
(0.999401 -0.00157375 -9.9382e-22)
(0.999351 -0.00148935 -9.80114e-22)
(0.999307 -0.0014019 1.94514e-21)
(0.999269 -0.00131097 -1.94524e-21)
(0.999238 -0.00121772 -2.40457e-22)
(0.999213 -0.00112301 4.97518e-22)
(0.999194 -0.00102679 -2.68587e-22)
(0.999181 -0.000930164 9.54712e-22)
(0.999174 -0.000833875 -9.53125e-22)
(0.999173 -0.00073797 9.47974e-22)
(0.999178 -0.000643586 1.88207e-21)
(0.999189 -0.000551155 -5.6284e-21)
(0.999206 -0.000461096 -9.18396e-22)
(0.999229 -0.000374364 5.59028e-21)
(0.999258 -0.000291024 1.85233e-21)
(0.999293 -0.000212195 -3.67871e-21)
(0.999334 -0.000138137 3.67649e-21)
(0.99938 -6.91349e-05 7.75519e-24)
(0.999432 -6.42433e-06 5.45084e-21)
(0.99949 5.0346e-05 -3.62991e-21)
(0.999554 9.98641e-05 -9.0033e-21)
(0.999623 0.000142154 3.57876e-21)
(0.999698 0.00017683 1.77798e-21)
(0.999778 0.000202604 7.082e-21)
(0.999864 0.000220268 -3.5408e-21)
(0.999956 0.000227902 -1.03063e-23)
(1.00005 0.000226209 -1.15569e-23)
(1.00016 0.000213873 0)
(1.00027 0.000190057 -3.46424e-21)
(1.0004 0.000153064 -3.43709e-21)
(1.00193 -0.00378497 0)
(1.00178 -0.00389928 -6.22018e-21)
(1.00159 -0.00399346 6.20832e-21)
(1.0014 -0.004075 0)
(1.00121 -0.00413967 0)
(1.00102 -0.00418882 -4.09684e-21)
(1.00083 -0.00422294 -2.03443e-24)
(1.00065 -0.00424177 -4.0899e-21)
(1.00048 -0.00424699 -2.99574e-24)
(1.00031 -0.00423693 0)
(1.00015 -0.00421583 0)
(0.999993 -0.00418142 2.01594e-21)
(0.999848 -0.00413356 0)
(0.99971 -0.0040764 0)
(0.999581 -0.00400788 -1.99756e-21)
(0.99946 -0.00392964 4.00439e-21)
(0.999348 -0.00384214 1.99263e-21)
(0.999244 -0.00374559 0)
(0.999149 -0.00364298 1.96248e-21)
(0.999063 -0.0035327 -4.92707e-21)
(0.998986 -0.00341628 -1.95984e-21)
(0.998918 -0.00329553 -1.9482e-21)
(0.998858 -0.00316976 1.94828e-21)
(0.998808 -0.00304059 7.43376e-25)
(0.998767 -0.00290912 1.50906e-23)
(0.998735 -0.00277519 2.39338e-22)
(0.998712 -0.00264027 -4.79053e-22)
(0.998698 -0.00250529 0)
(0.998694 -0.00237022 -9.4673e-22)
(0.998698 -0.00223659 0)
(0.998711 -0.00210486 0)
(0.998734 -0.00197554 -1.8705e-21)
(0.998765 -0.00184988 -7.43341e-21)
(0.998805 -0.00172787 1.80442e-23)
(0.998854 -0.00161099 1.85031e-21)
(0.998912 -0.00149951 0)
(0.998978 -0.00139371 -1.82412e-21)
(0.999054 -0.00129527 -3.63041e-21)
(0.999137 -0.00120359 3.61272e-21)
(0.99923 -0.0011204 7.18882e-21)
(0.99933 -0.00104558 -7.15173e-21)
(0.999439 -0.00097958 -5.2718e-24)
(0.999556 -0.000924113 -3.5436e-21)
(0.999682 -0.000877997 -7.39721e-24)
(0.999816 -0.000843823 0)
(0.999959 -0.000820548 -3.49075e-21)
(1.00011 -0.000809889 -1.73063e-21)
(1.00028 -0.000813597 1.72994e-21)
(1.00047 -0.000832378 3.44066e-21)
(1.0027 -0.00667165 0)
(1.00248 -0.00680276 4.15268e-21)
(1.00222 -0.00690412 -1.24568e-20)
(1.00195 -0.00699038 0)
(1.00168 -0.00705602 0)
(1.00141 -0.00710338 -8.24532e-21)
(1.00114 -0.00713135 8.21928e-21)
(1.00088 -0.00713909 -4.10999e-21)
(1.00063 -0.00713104 -2.96064e-24)
(1.00039 -0.00710334 4.08332e-21)
(1.00016 -0.00706046 0)
(0.999944 -0.00700105 0)
(0.999735 -0.0069255 4.05173e-21)
(0.999536 -0.0068375 0)
(0.999349 -0.00673437 0)
(0.999174 -0.00661982 -4.00227e-21)
(0.99901 -0.0064934 9.63784e-24)
(0.998857 -0.00635499 0)
(0.998717 -0.00620889 1.97522e-21)
(0.99859 -0.00605275 4.92853e-21)
(0.998475 -0.0058885 -1.97213e-21)
(0.998372 -0.00571837 0)
(0.998282 -0.00554135 -9.7204e-22)
(0.998205 -0.00535956 1.21388e-21)
(0.998141 -0.00517427 -5.2924e-22)
(0.998089 -0.00498523 -2.40796e-22)
(0.998051 -0.00479439 4.75723e-22)
(0.998025 -0.00460277 -9.54956e-22)
(0.998013 -0.00441033 0)
(0.998013 -0.00421905 -3.77356e-21)
(0.998026 -0.0040294 5.63142e-21)
(0.998052 -0.00384204 1.85064e-21)
(0.998091 -0.00365854 -8.63697e-24)
(0.998142 -0.0034788 1.84275e-21)
(0.998206 -0.00330481 -1.85122e-21)
(0.998283 -0.00313671 -3.65569e-21)
(0.998372 -0.00297489 7.2906e-21)
(0.998473 -0.00282155 -3.62694e-21)
(0.998586 -0.00267573 7.22213e-21)
(0.998711 -0.00253972 -3.85666e-24)
(0.998848 -0.00241324 7.14053e-21)
(0.998997 -0.00229685 -3.55403e-21)
(0.999157 -0.00219275 0)
(0.999329 -0.00209928 -8.81755e-24)
(0.999513 -0.00201983 6.98332e-21)
(0.999711 -0.00195298 0)
(0.999925 -0.00190114 0)
(1.00016 -0.00186602 6.01173e-21)
(1.00043 -0.0018444 8.58129e-22)
(1.0036 -0.0103004 1.04612e-21)
(1.0033 -0.0104456 7.34224e-21)
(1.00295 -0.01055 8.31458e-21)
(1.00258 -0.010636 -8.34964e-21)
(1.00221 -0.0106966 0)
(1.00184 -0.0107348 -5.16931e-24)
(1.00147 -0.0107489 -4.15217e-21)
(1.00112 -0.0107376 -4.13638e-21)
(1.00077 -0.0107068 1.23388e-20)
(1.00044 -0.0106512 -4.1018e-21)
(1.00012 -0.0105766 0)
(0.999818 -0.0104811 8.14981e-21)
(0.999526 -0.0103652 -8.11002e-21)
(0.999249 -0.0102335 2.04394e-23)
(0.998987 -0.0100824 8.06098e-21)
(0.998739 -0.00991663 -2.02112e-21)
(0.998508 -0.00973549 -1.97613e-21)
(0.998292 -0.00953887 3.99419e-21)
(0.998092 -0.00933208 0)
(0.997909 -0.00911201 -1.97317e-21)
(0.997743 -0.00888123 1.96984e-21)
(0.997594 -0.00864236 1.95707e-21)
(0.997462 -0.00839412 -1.95717e-21)
(0.997348 -0.00813924 2.43562e-22)
(0.997251 -0.00787911 3.01847e-23)
(0.997172 -0.00761351 7.20866e-22)
(0.99711 -0.00734493 -1.88205e-24)
(0.997066 -0.00707443 0)
(0.997041 -0.0068021 0)
(0.997033 -0.00653048 2.50956e-24)
(0.997043 -0.00625996 -1.86564e-21)
(0.99707 -0.00599151 3.74965e-21)
(0.997115 -0.00572708 -3.72129e-21)
(0.997178 -0.00546648 3.69142e-21)
(0.997258 -0.00521235 -7.37542e-21)
(0.997355 -0.00496467 9.95445e-24)
(0.99747 -0.00472401 3.65148e-21)
(0.997601 -0.0044932 3.61419e-21)
(0.997748 -0.00427088 -7.22337e-21)
(0.997912 -0.00406002 -7.17964e-21)
(0.998091 -0.00386015 -3.57278e-21)
(0.998286 -0.00367198 -3.55301e-21)
(0.998497 -0.00349832 0)
(0.998724 -0.00333693 -3.50935e-21)
(0.998968 -0.00319216 -2.34961e-23)
(0.99923 -0.00306217 6.9205e-21)
(0.999516 -0.00295024 -8.60083e-21)
(0.999831 -0.00285802 1.68783e-21)
(1.00019 -0.00277616 0)
(1.00464 -0.0145997 0)
(1.00425 -0.0147615 -8.38663e-21)
(1.00379 -0.0148704 0)
(1.0033 -0.0149567 8.34417e-21)
(1.0028 -0.0150119 4.16772e-21)
(1.00231 -0.0150394 -8.32631e-21)
(1.00182 -0.015037 1.24411e-20)
(1.00134 -0.0150033 4.12611e-21)
(1.00088 -0.0149449 -4.11686e-21)
(1.00043 -0.0148556 0)
(0.999994 -0.0147425 4.09732e-21)
(0.999579 -0.0146028 -8.17816e-21)
(0.999181 -0.0144372 4.09163e-21)
(0.998801 -0.0142514 -4.05122e-21)
(0.998441 -0.0140408 2.20945e-23)
(0.9981 -0.0138111 4.04164e-21)
(0.99778 -0.0135615 -8.03996e-21)
(0.99748 -0.0132918 0)
(0.997202 -0.0130084 3.97765e-21)
(0.996945 -0.0127074 -3.9783e-21)
(0.996711 -0.0123922 -9.85421e-22)
(0.996499 -0.0120656 0)
(0.996311 -0.0117263 9.8174e-22)
(0.996145 -0.0113777 2.43011e-22)
(0.996003 -0.0110213 -5.16519e-22)
(0.995885 -0.0106571 7.23204e-22)
(0.995791 -0.0102882 4.76567e-22)
(0.995721 -0.00991568 -9.57932e-22)
(0.995676 -0.00953991 0)
(0.995655 -0.0091642 -1.88633e-21)
(0.995657 -0.0087888 3.76931e-21)
(0.995684 -0.0084152 0)
(0.995735 -0.0080458 1.85956e-21)
(0.99581 -0.00768035 0)
(0.995907 -0.00732244 3.67974e-21)
(0.996028 -0.00697176 -7.31938e-21)
(0.996173 -0.0066292 3.62831e-21)
(0.996339 -0.00629844 -2.03222e-23)
(0.996527 -0.00597758 3.57832e-21)
(0.996736 -0.00567054 -3.58777e-21)
(0.996967 -0.00537656 3.55979e-21)
(0.997219 -0.00509661 7.0611e-21)
(0.997491 -0.00483424 0)
(0.997784 -0.00458653 0)
(0.9981 -0.00435899 -6.96557e-21)
(0.998441 -0.0041493 -1.38183e-20)
(0.998812 -0.0039618 1.37386e-20)
(0.999224 -0.00379799 -7.70316e-21)
(0.999692 -0.00364062 7.62504e-21)
(1.00589 -0.0195362 0)
(1.00537 -0.0197202 8.4991e-21)
(1.00477 -0.0198395 8.46939e-21)
(1.00413 -0.0199314 1.26645e-20)
(1.00348 -0.019985 -1.26402e-20)
(1.00283 -0.0200047 -4.18318e-21)
(1.00219 -0.0199878 1.25805e-20)
(1.00156 -0.0199321 -4.15836e-21)
(1.00094 -0.019846 4.1621e-21)
(1.00035 -0.0197214 0)
(0.999768 -0.0195668 8.28899e-21)
(0.999212 -0.0193789 0)
(0.998678 -0.0191584 -4.08381e-21)
(0.998166 -0.0189117 -4.10116e-21)
(0.997679 -0.0186335 2.94864e-23)
(0.997216 -0.0183306 0)
(0.99678 -0.0180016 4.0476e-21)
(0.99637 -0.0176468 8.06141e-21)
(0.995987 -0.0172733 0)
(0.995632 -0.0168763 1.98794e-21)
(0.995307 -0.0164606 -1.98785e-21)
(0.995011 -0.016029 -1.96921e-21)
(0.994746 -0.0155801 1.97471e-21)
(0.994512 -0.0151184 -2.55726e-24)
(0.994309 -0.0146452 -4.87476e-22)
(0.994138 -0.014161 -2.13454e-22)
(0.993999 -0.0136699 -4.82484e-22)
(0.993892 -0.0131727 9.5907e-22)
(0.993819 -0.0126705 0)
(0.993777 -0.0121675 1.88818e-21)
(0.993768 -0.0116637 -3.76837e-21)
(0.993792 -0.0111616 0)
(0.993848 -0.010664 0)
(0.993936 -0.0101707 3.68906e-21)
(0.994055 -0.00968661 -7.35915e-21)
(0.994205 -0.00921102 3.67856e-21)
(0.994386 -0.0087453 3.64558e-21)
(0.994595 -0.00829425 0)
(0.994834 -0.00785535 1.0756e-20)
(0.995101 -0.00743365 -7.14066e-21)
(0.995395 -0.00702814 -3.52842e-21)
(0.995716 -0.0066401 -1.98913e-23)
(0.996064 -0.00627398 -6.99945e-21)
(0.99644 -0.0059261 -6.94926e-21)
(0.996844 -0.00560332 -6.91033e-21)
(0.997282 -0.00530281 3.47413e-23)
(0.99776 -0.00503012 -3.84229e-23)
(0.99829 -0.0047866 0)
(0.998894 -0.00454522 -1.35165e-20)
(1.00742 -0.0253817 0)
(1.00674 -0.0255891 2.19616e-21)
(1.00597 -0.0257232 -1.05847e-20)
(1.00515 -0.0258241 -8.44737e-21)
(1.00431 -0.0258784 8.42218e-21)
(1.00347 -0.0258917 4.25868e-21)
(1.00263 -0.0258604 -4.16702e-21)
(1.00181 -0.0257824 0)
(1.00101 -0.0256669 0)
(1.00022 -0.0255043 8.36644e-21)
(0.999462 -0.0253045 -8.27177e-21)
(0.998726 -0.025063 4.13114e-21)
(0.998016 -0.0247811 -4.12929e-21)
(0.997334 -0.0244656 4.11651e-21)
(0.996682 -0.0241103 4.10518e-21)
(0.99606 -0.0237229 -4.08198e-21)
(0.995471 -0.0233015 -4.04281e-21)
(0.994916 -0.0228475 -4.02367e-21)
(0.994395 -0.0223677 4.01045e-21)
(0.993911 -0.0218569 -4.01115e-21)
(0.993465 -0.0213215 0)
(0.993057 -0.020764 1.98744e-21)