/*--------------------------------*- C++ -*----------------------------------*\
| =========                 |                                                 |
| \\      /  F ield         | OpenFOAM: The Open Source CFD Toolbox           |
|  \\    /   O peration     | Version:  2312                                  |
|   \\  /    A nd           | Website:  www.openfoam.com                      |
|    \\/     M anipulation  |                                                 |
\*---------------------------------------------------------------------------*/
FoamFile
{
    version     2.0;
    format      ascii;
    arch        "LSB;label=32;scalar=64";
    class       volScalarField;
    location    "27.069217002401579";
    object      p;
}
// * * * * * * * * * * * * * * * * * * * * * * * * * * * * * * * * * * * * * //

dimensions      [0 2 -2 0 0 0 0];

internalField   nonuniform List<scalar> 
21039
(
0.588865
0.455152
0.412897
0.384646
0.363318
0.347226
0.334773
0.324857
0.316795
0.310136
0.304562
0.299844
0.29581
0.292328
0.289295
0.286629
0.284261
0.282137
0.280207
0.278431
0.276774
0.275206
0.273697
0.27231
0.271105
0.270041
0.269078
0.268181
0.267336
0.441836
0.403958
0.390102
0.371734
0.354956
0.341655
0.33089
0.322023
0.314662
0.308495
0.303278
0.298826
0.294997
0.291676
0.288772
0.286211
0.283932
0.281882
0.280016
0.278295
0.276685
0.275156
0.27368
0.272314
0.271117
0.270055
0.269093
0.268196
0.267351
0.352377
0.349971
0.352126
0.345383
0.336928
0.329119
0.321851
0.315302
0.309547
0.304525
0.300148
0.296328
0.292987
0.290051
0.287458
0.285153
0.283089
0.281222
0.279515
0.277933
0.276446
0.275024
0.273642
0.27235
0.271206
0.270183
0.269249
0.268376
0.267551
0.31424
0.316358
0.320831
0.31975
0.317124
0.313896
0.310081
0.306145
0.302357
0.298818
0.295573
0.292632
0.289984
0.287607
0.285473
0.283551
0.281811
0.280226
0.278765
0.277403
0.276112
0.274868
0.273648
0.272493
0.271455
0.270514
0.269644
0.268822
0.268034
0.289194
0.293167
0.299062
0.300778
0.300981
0.300252
0.298712
0.296772
0.294653
0.292483
0.290355
0.288329
0.286435
0.284686
0.283081
0.281612
0.280266
0.279027
0.277876
0.276795
0.275761
0.274754
0.273754
0.272789
0.271901
0.271077
0.2703
0.269548
0.268812
0.269521
0.274779
0.28214
0.286021
0.288039
0.288854
0.288788
0.288218
0.287329
0.286243
0.285063
0.283859
0.282677
0.281546
0.280482
0.279492
0.278573
0.277721
0.276923
0.276167
0.275438
0.274717
0.273988
0.273259
0.272559
0.271884
0.271223
0.270561
0.269893
0.256711
0.261735
0.268844
0.27381
0.277053
0.279013
0.280048
0.2805
0.280548
0.280322
0.279925
0.279429
0.278887
0.278334
0.277795
0.277283
0.276806
0.276362
0.275948
0.275555
0.27517
0.274779
0.274367
0.27392
0.273449
0.272956
0.27244
0.271889
0.271304
0.24937
0.25347
0.259227
0.264204
0.267941
0.270555
0.272327
0.273525
0.274296
0.27476
0.275013
0.275127
0.275153
0.275132
0.275091
0.275047
0.275012
0.274991
0.274982
0.27498
0.274976
0.274957
0.274909
0.274792
0.274592
0.274317
0.273975
0.27356
0.273077
0.244801
0.247998
0.252385
0.256912
0.26065
0.263493
0.265651
0.267319
0.268604
0.269596
0.270376
0.271004
0.27153
0.27199
0.272414
0.272821
0.273225
0.273631
0.274043
0.274456
0.274864
0.275256
0.275617
0.27588
0.275996
0.275979
0.275844
0.275594
0.275234
0.241347
0.243794
0.247141
0.251143
0.254699
0.257565
0.259896
0.261836
0.26346
0.264839
0.266029
0.267082
0.268038
0.26893
0.269784
0.27062
0.271451
0.272286
0.273128
0.273975
0.274823
0.275661
0.276479
0.277171
0.277651
0.277935
0.278046
0.277991
0.277782
0.238309
0.240153
0.242753
0.24625
0.249576
0.252396
0.254805
0.256907
0.258762
0.260423
0.261935
0.263336
0.26466
0.265935
0.267185
0.268426
0.269673
0.270933
0.272211
0.273507
0.274819
0.276137
0.277454
0.278625
0.27952
0.280152
0.280548
0.280722
0.280699
0.235374
0.236769
0.238841
0.241878
0.244962
0.247707
0.250144
0.252347
0.254366
0.256242
0.258011
0.259703
0.261346
0.262964
0.264577
0.266201
0.267849
0.269528
0.271245
0.273001
0.274795
0.276622
0.278477
0.280176
0.281536
0.282563
0.283285
0.283715
0.283878
0.232384
0.233466
0.23517
0.23781
0.240659
0.243312
0.245746
0.248009
0.250145
0.252189
0.254167
0.256105
0.258026
0.259951
0.261898
0.263883
0.265917
0.26801
0.270166
0.272388
0.274676
0.277028
0.279447
0.281712
0.283581
0.285053
0.286153
0.286892
0.287288
0.22927
0.230136
0.231577
0.233885
0.236518
0.239072
0.241481
0.243776
0.245995
0.248167
0.250315
0.25246
0.254624
0.256825
0.25908
0.261406
0.263814
0.266313
0.268906
0.271594
0.274376
0.277254
0.280236
0.283072
0.285466
0.287411
0.288927
0.290016
0.29069
0.226015
0.226729
0.227965
0.229982
0.232405
0.234855
0.237228
0.239536
0.241811
0.24408
0.246363
0.248681
0.251053
0.253498
0.256036
0.258684
0.261453
0.264351
0.267378
0.270531
0.273803
0.277188
0.280698
0.284043
0.286902
0.289281
0.291203
0.292658
0.293642
0.222895
0.2235
0.224572
0.226371
0.228626
0.230977
0.233308
0.235616
0.237927
0.240264
0.242648
0.2451
0.247639
0.25029
0.253074
0.256009
0.259109
0.262378
0.265817
0.269412
0.273142
0.276976
0.280892
0.284535
0.287575
0.290086
0.292158
0.293816
0.295047
0.220234
0.220767
0.221738
0.223398
0.225525
0.227789
0.230082
0.232392
0.234733
0.237125
0.239587
0.242144
0.24482
0.247643
0.250637
0.253823
0.257216
0.260826
0.264648
0.268662
0.272827
0.277068
0.281292
0.284996
0.28779
0.289817
0.291319
0.292542
0.293694
0.218015
0.2185
0.2194
0.220958
0.222986
0.225194
0.227478
0.229809
0.232187
0.23463
0.237163
0.239815
0.242615
0.245593
0.248779
0.252198
0.25587
0.259808
0.264011
0.268456
0.273085
0.277784
0.282369
0.286103
0.288357
0.289144
0.288705
0.287531
0.286688
0.216214
0.216748
0.217666
0.219123
0.220984
0.223087
0.225364
0.227736
0.230167
0.23267
0.235279
0.238027
0.240951
0.244084
0.247458
0.251106
0.255055
0.259326
0.263923
0.268829
0.27399
0.279274
0.284446
0.288536
0.290515
0.289875
0.286275
0.279141
0.268173
0.266517
0.265692
0.264872
0.264055
0.263241
0.262428
0.261615
0.260802
0.259987
0.259171
0.258351
0.257528
0.2567
0.255867
0.255029
0.254184
0.253332
0.252473
0.251607
0.250733
0.24985
0.24896
0.248061
0.247154
0.24624
0.245318
0.244388
0.243452
0.242509
0.24156
0.240606
0.239647
0.238683
0.237716
0.236747
0.235775
0.234803
0.233831
0.232861
0.231892
0.230926
0.229964
0.229008
0.228058
0.227115
0.22618
0.225254
0.224337
0.223431
0.266535
0.265719
0.26491
0.264103
0.263299
0.262496
0.261693
0.260889
0.260084
0.259276
0.258465
0.25765
0.256829
0.256003
0.255171
0.254331
0.253484
0.252629
0.251765
0.250893
0.250012
0.249121
0.248222
0.247314
0.246396
0.245471
0.244537
0.243595
0.242646
0.241691
0.240729
0.239761
0.238789
0.237813
0.236834
0.235853
0.23487
0.233887
0.232904
0.231924
0.230946
0.229972
0.229003
0.22804
0.227084
0.226136
0.225197
0.224269
0.223351
0.266757
0.265966
0.26518
0.264396
0.263614
0.262832
0.262049
0.261264
0.260476
0.259684
0.258887
0.258085
0.257275
0.256458
0.255633
0.254798
0.253955
0.253101
0.252236
0.251361
0.250475
0.249578
0.24867
0.247751
0.246822
0.245882
0.244933
0.243974
0.243006
0.24203
0.241046
0.240055
0.239059
0.238057
0.237052
0.236043
0.235032
0.234019
0.233007
0.231996
0.230987
0.229981
0.22898
0.227984
0.226995
0.226014
0.225042
0.22408
0.223129
0.267277
0.266524
0.265772
0.265021
0.264269
0.263515
0.262758
0.261997
0.261231
0.260458
0.259677
0.258888
0.258089
0.25728
0.25646
0.255628
0.254783
0.253925
0.253054
0.25217
0.251271
0.250359
0.249433
0.248494
0.247542
0.246577
0.245599
0.24461
0.24361
0.242599
0.241579
0.24055
0.239514
0.23847
0.237421
0.236368
0.235311
0.234251
0.233191
0.23213
0.231071
0.230014
0.22896
0.227912
0.226869
0.225834
0.224806
0.223789
0.222782
0.268103
0.2674
0.266693
0.265983
0.26527
0.264551
0.263827
0.263094
0.262352
0.261601
0.260838
0.260063
0.259274
0.258472
0.257654
0.25682
0.25597
0.255104
0.25422
0.253319
0.2524
0.251464
0.250512
0.249542
0.248556
0.247553
0.246536
0.245504
0.244458
0.243399
0.242328
0.241246
0.240155
0.239054
0.237946
0.236831
0.235711
0.234588
0.233461
0.232334
0.231206
0.230079
0.228955
0.227835
0.22672
0.225611
0.224509
0.223416
0.222334
0.269246
0.268604
0.267954
0.267295
0.266629
0.265953
0.265267
0.264568
0.263856
0.263129
0.262386
0.261625
0.260847
0.260049
0.259231
0.258393
0.257533
0.256652
0.255749
0.254824
0.253877
0.252909
0.251919
0.250908
0.249876
0.248825
0.247754
0.246666
0.24556
0.244439
0.243302
0.242151
0.240988
0.239814
0.238629
0.237437
0.236236
0.235031
0.233821
0.232608
0.231393
0.230178
0.228965
0.227755
0.226548
0.225347
0.224152
0.222965
0.221788
0.270733
0.270166
0.269583
0.268986
0.268376
0.267752
0.267111
0.266451
0.265772
0.265073
0.264351
0.263606
0.262837
0.262042
0.261222
0.260375
0.2595
0.258599
0.257669
0.256713
0.255728
0.254717
0.253679
0.252615
0.251526
0.250412
0.249275
0.248116
0.246935
0.245735
0.244516
0.24328
0.242028
0.240762
0.239483
0.238193
0.236894
0.235587
0.234274
0.232956
0.231636
0.230313
0.228991
0.22767
0.226352
0.225039
0.223731
0.22243
0.221141
0.272598
0.272119
0.271614
0.271089
0.270545
0.26998
0.26939
0.268776
0.268135
0.267465
0.266767
0.266038
0.265277
0.264484
0.263657
0.262797
0.261902
0.260973
0.26001
0.259013
0.257981
0.256917
0.255819
0.25469
0.25353
0.25234
0.251122
0.249876
0.248604
0.247308
0.245989
0.244649
0.24329
0.241913
0.24052
0.239114
0.237695
0.236267
0.234829
0.233385
0.231937
0.230486
0.229033
0.227581
0.226131
0.224684
0.223242
0.221808
0.220386
0.274863
0.274484
0.27407
0.273629
0.273161
0.272662
0.272133
0.271569
0.27097
0.270335
0.269661
0.268949
0.268196
0.267402
0.266566
0.265689
0.264769
0.263807
0.262802
0.261756
0.260668
0.25954
0.258371
0.257164
0.25592
0.254639
0.253324
0.251975
0.250595
0.249185
0.247747
0.246284
0.244797
0.243288
0.241759
0.240214
0.238653
0.237079
0.235494
0.233901
0.232301
0.230697
0.22909
0.227483
0.225877
0.224274
0.222675
0.221084
0.219508
0.277539
0.277268
0.276959
0.276615
0.276234
0.275813
0.275351
0.274846
0.274295
0.273698
0.273053
0.27236
0.271616
0.270822
0.269976
0.269079
0.26813
0.26713
0.266078
0.264976
0.263824
0.262623
0.261373
0.260076
0.258735
0.257349
0.255921
0.254453
0.252945
0.251403
0.249826
0.248217
0.246579
0.244914
0.243225
0.241515
0.239785
0.238039
0.236279
0.234508
0.232729
0.230943
0.229154
0.227364
0.225574
0.223788
0.222005
0.220233
0.218477
0.280622
0.280438
0.280264
0.280035
0.27975
0.279419
0.279038
0.278601
0.278109
0.277559
0.27695
0.276282
0.275552
0.274762
0.273909
0.272995
0.272018
0.27098
0.26988
0.268719
0.267498
0.266218
0.264879
0.263484
0.262034
0.26053
0.258975
0.25737
0.255718
0.254021
0.252282
0.250503
0.248688
0.246838
0.244959
0.243053
0.241121
0.23917
0.237201
0.235217
0.233224
0.231221
0.229215
0.227206
0.225198
0.223194
0.221194
0.219208
0.217242
0.283978
0.284019
0.28399
0.283907
0.283637
0.283435
0.283159
0.282809
0.28239
0.281902
0.281345
0.280716
0.280015
0.279242
0.278395
0.277475
0.27648
0.275412
0.274272
0.273057
0.271771
0.270413
0.268983
0.267486
0.26592
0.264287
0.262591
0.260834
0.259015
0.257141
0.255213
0.253234
0.251209
0.24914
0.247031
0.244889
0.242713
0.240512
0.238287
0.236045
0.233789
0.231521
0.22925
0.226976
0.224704
0.222437
0.220177
0.217934
0.21572
0.287572
0.287761
0.287871
0.287926
0.287918
0.287832
0.287661
0.28741
0.287089
0.286692
0.286215
0.285655
0.285012
0.284286
0.283474
0.282576
0.28159
0.280516
0.279357
0.278107
0.27677
0.275347
0.273834
0.272237
0.270555
0.268787
0.26694
0.265013
0.263007
0.260929
0.25878
0.256563
0.254286
0.251948
0.249559
0.247123
0.244643
0.242129
0.239584
0.237016
0.23443
0.23183
0.229227
0.22662
0.22402
0.221428
0.218847
0.216292
0.213775
0.29121
0.29159
0.291883
0.292107
0.292257
0.292333
0.292331
0.292249
0.292086
0.291834
0.291498
0.291087
0.290564
0.289948
0.28923
0.28841
0.287483
0.286452
0.285318
0.284071
0.282719
0.281258
0.279684
0.278003
0.276213
0.274311
0.272304
0.270191
0.267972
0.265655
0.263241
0.260733
0.258142
0.255466
0.252719
0.249907
0.247032
0.244111
0.241146
0.23815
0.235132
0.232096
0.229058
0.22602
0.222995
0.219988
0.217001
0.214054
0.211163
0.294432
0.295027
0.295543
0.296005
0.296402
0.296738
0.297003
0.297191
0.297296
0.297303
0.297209
0.297001
0.296685
0.296325
0.295795
0.295141
0.294356
0.293445
0.292408
0.291231
0.289921
0.288474
0.286882
0.28515
0.283274
0.281246
0.279077
0.276762
0.274298
0.271698
0.26896
0.266088
0.263096
0.259983
0.256766
0.253455
0.250053
0.246583
0.24305
0.239472
0.235864
0.232233
0.228604
0.224982
0.221387
0.217827
0.214311
0.21086
0.207498
0.296086
0.296863
0.297653
0.29849
0.29934
0.300174
0.30095
0.301639
0.30222
0.30267
0.302987
0.303156
0.303176
0.303044
0.302764
0.302448
0.301904
0.301204
0.300356
0.299335
0.298152
0.296798
0.295256
0.293533
0.291618
0.289498
0.287182
0.284662
0.281932
0.279007
0.275884
0.272569
0.269078
0.265413
0.261597
0.257643
0.253558
0.249373
0.245096
0.240752
0.236362
0.231941
0.227522
0.223119
0.218766
0.214483
0.210289
0.20622
0.202306
0.294928
0.295802
0.297047
0.29865
0.300406
0.302165
0.3038
0.30525
0.306485
0.30749
0.308286
0.30887
0.309269
0.309492
0.309529
0.309401
0.309134
0.308766
0.308174
0.307386
0.306415
0.305241
0.303838
0.302208
0.30033
0.298183
0.295772
0.293083
0.290103
0.286851
0.283322
0.279525
0.275484
0.271201
0.266711
0.262032
0.257175
0.252183
0.247065
0.241853
0.23657
0.231235
0.225887
0.220544
0.215257
0.210065
0.205017
0.200191
0.195649
0.28659
0.287925
0.291318
0.295503
0.299543
0.303092
0.306044
0.308439
0.310359
0.311871
0.313065
0.31398
0.314675
0.315185
0.315516
0.315692
0.315691
0.315559
0.315343
0.314864
0.314195
0.313305
0.31215
0.310721
0.308981
0.306892
0.304452
0.301634
0.29842
0.294831
0.290863
0.28653
0.281867
0.276883
0.27163
0.266134
0.26042
0.254541
0.248512
0.242374
0.236148
0.229846
0.2235
0.217107
0.210707
0.204333
0.198071
0.192119
0.186761
0.259945
0.270699
0.28293
0.292902
0.300294
0.305636
0.30949
0.312334
0.314489
0.31615
0.317466
0.318498
0.31933
0.319997
0.320524
0.320948
0.32124
0.32141
0.321489
0.321412
0.321121
0.320602
0.319791
0.318671
0.317187
0.31527
0.312897
0.310027
0.306632
0.302737
0.298343
0.293472
0.288176
0.282477
0.276443
0.270122
0.263551
0.256804
0.249906
0.24291
0.23584
0.228702
0.221509
0.214209
0.206761
0.199072
0.19105
0.182759
0.174834
0.222544
0.221626
0.220628
0.219538
0.218338
0.217018
0.215606
0.21427
0.213135
0.212231
0.211594
0.211261
0.211267
0.211665
0.212504
0.213849
0.215779
0.218392
0.221815
0.226213
0.231813
0.238926
0.247998
0.259707
0.275152
0.295931
0.323735
0.365559
0.498925
0.222449
0.221514
0.220496
0.219382
0.218149
0.21679
0.215333
0.213946
0.21276
0.211803
0.211108
0.210711
0.21065
0.210964
0.211704
0.212927
0.214704
0.217121
0.220286
0.224337
0.229453
0.235872
0.243901
0.253929
0.266583
0.282802
0.300711
0.314126
0.351684
0.222193
0.221219
0.220156
0.218984
0.217682
0.216238
0.214677
0.213175
0.211867
0.210782
0.209949
0.209399
0.209164
0.209277
0.209776
0.210707
0.212117
0.214066
0.216618
0.219849
0.223838
0.228668
0.234393
0.240934
0.248102
0.25599
0.262244
0.259601
0.2617
0.221788
0.22075
0.21961
0.218347
0.216936
0.215359
0.213638
0.211957
0.210463
0.209182
0.208137
0.207354
0.206856
0.206666
0.20681
0.207311
0.208193
0.209478
0.211182
0.213311
0.215845
0.218732
0.221865
0.224968
0.227565
0.229621
0.230184
0.225208
0.222824
0.22126
0.220134
0.218891
0.217505
0.215947
0.214194
0.212262
0.210349
0.208616
0.207085
0.205775
0.204704
0.203888
0.203339
0.203067
0.203078
0.203375
0.203948
0.204779
0.205829
0.207032
0.208283
0.209449
0.210301
0.210416
0.209652
0.207415
0.201047
0.196868
0.220615
0.219379
0.218006
0.216468
0.214728
0.212757
0.210568
0.208376
0.206361
0.20454
0.202928
0.201538
0.200376
0.199445
0.198745
0.198269
0.198001
0.197917
0.19798
0.198134
0.1983
0.198368
0.198203
0.197617
0.196218
0.193663
0.189282
0.181495
0.176083
0.219848
0.218479
0.21695
0.215228
0.21327
0.211041
0.20855
0.206037
0.203702
0.20156
0.199623
0.197894
0.196377
0.195067
0.193953
0.19302
0.192244
0.19159
0.191013
0.190451
0.189821
0.18901
0.187879
0.186241
0.183741
0.18
0.174575
0.167096
0.161965
0.218951
0.217423
0.21571
0.21377
0.211557
0.209028
0.206192
0.203317
0.200631
0.198145
0.195865
0.193794
0.191925
0.19025
0.188752
0.187409
0.186189
0.185055
0.183955
0.182826
0.181586
0.180127
0.178321
0.176011
0.172917
0.16874
0.163365
0.157306
0.153141
0.217907
0.216193
0.214263
0.212071
0.209561
0.206689
0.203463
0.20019
0.197125
0.194278
0.191652
0.189241
0.187037
0.185024
0.183182
0.181482
0.179891
0.178368
0.17686
0.175308
0.173638
0.171761
0.169573
0.166958
0.163715
0.159616
0.15477
0.150159
0.146929
0.216683
0.214751
0.21257
0.210084
0.207235
0.203974
0.200314
0.196608
0.193144
0.189927
0.186956
0.184221
0.181707
0.179394
0.177256
0.175263
0.173378
0.171559
0.169758
0.167922
0.165987
0.163884
0.161533
0.158848
0.15568
0.15186
0.14763
0.144136
0.14168
0.215221
0.213037
0.210562
0.207738
0.2045
0.2008
0.196661
0.192491
0.188614
0.185029
0.181727
0.178693
0.175905
0.173338
0.170961
0.168741
0.166641
0.164618
0.162628
0.160623
0.15855
0.156353
0.15397
0.151329
0.148323
0.144847
0.141221
0.138546
0.136712
0.21343
0.210948
0.208132
0.204915
0.201233
0.197041
0.192381
0.187724
0.18343
0.179489
0.175884
0.172589
0.169575
0.16681
0.164257
0.161879
0.159648
0.157502
0.155411
0.15333
0.151212
0.149013
0.146678
0.14415
0.141353
0.138244
0.135182
0.133102
0.131731
0.211162
0.208326
0.205109
0.201437
0.197249
0.192514
0.187297
0.182146
0.17745
0.173185
0.169321
0.16582
0.162643
0.159748
0.157093
0.154637
0.152338
0.150153
0.148043
0.145965
0.14388
0.141747
0.139524
0.137161
0.134604
0.131863
0.129303
0.12765
0.126605
0.208156
0.204898
0.201209
0.197014
0.192263
0.186944
0.18116
0.175535
0.170482
0.165955
0.161904
0.158276
0.155016
0.152074
0.1494
0.146947
0.144668
0.142523
0.140469
0.138467
0.136482
0.134477
0.132416
0.130255
0.127959
0.125575
0.123449
0.122111
0.121292
0.204004
0.200241
0.196005
0.191225
0.185872
0.179965
0.17365
0.167624
0.162307
0.157621
0.15349
0.14984
0.146603
0.143716
0.14112
0.138762
0.136593
0.134568
0.132646
0.130791
0.128966
0.127141
0.125281
0.123352
0.121335
0.119302
0.117563
0.116472
0.115805
0.198261
0.193958
0.189174
0.183851
0.177988
0.171635
0.164966
0.158729
0.153329
0.148652
0.144597
0.141069
0.137984
0.135267
0.132854
0.130685
0.128709
0.126878
0.125155
0.123499
0.121878
0.120263
0.118627
0.11694
0.115196
0.113474
0.112046
0.111151
0.11059
0.191006
0.186181
0.180981
0.175333
0.169228
0.162711
0.155967
0.149761
0.144478
0.13998
0.136141
0.132852
0.130016
0.127551
0.125386
0.123461
0.121722
0.120122
0.11862
0.117181
0.115771
0.114364
0.112938
0.111478
0.109987
0.10853
0.107338
0.106589
0.106104
0.181593
0.176544
0.171434
0.165949
0.159997
0.153627
0.147058
0.141079
0.136065
0.131863
0.128335
0.125357
0.122826
0.120655
0.118772
0.117113
0.115626
0.114266
0.112991
0.111766
0.11056
0.109343
0.108099
0.106826
0.105549
0.104322
0.103332
0.102711
0.102288
0.168613
0.164829
0.16093
0.156194
0.150744
0.144751
0.138528
0.132908
0.12826
0.124427
0.121261
0.11863
0.116427
0.114564
0.112967
0.111574
0.110335
0.109204
0.108144
0.107119
0.106096
0.105043
0.103948
0.10285
0.101821
0.100886
0.100101
0.0995313
0.0990899
0.214371
0.214685
0.215422
0.216902
0.218953
0.22126
0.223664
0.226099
0.228575
0.231135
0.233824
0.236679
0.239736
0.243031
0.246601
0.250483
0.254712
0.259314
0.264301
0.269662
0.27535
0.281236
0.287049
0.291672
0.293724
0.292008
0.285001
0.27036
0.239761
0.212531
0.212967
0.213818
0.215283
0.217248
0.21948
0.221848
0.224291
0.226815
0.229454
0.232245
0.235225
0.238431
0.241901
0.245677
0.249803
0.25432
0.259264
0.264658
0.270515
0.276828
0.283533
0.29045
0.296548
0.300541
0.30168
0.299379
0.295503
0.299894
0.21065
0.211168
0.212102
0.213559
0.215453
0.217608
0.219921
0.222348
0.224896
0.227589
0.230459
0.233539
0.236866
0.240485
0.244443
0.248791
0.253582
0.258869
0.264705
0.271149
0.278285
0.28622
0.295098
0.304348
0.313173
0.321696
0.330203
0.337502
0.354146
0.208702
0.209198
0.210104
0.211545
0.213442
0.215602
0.21791
0.220335
0.222896
0.225623
0.228547
0.231701
0.235125
0.238866
0.242978
0.247522
0.252564
0.258179
0.264456
0.271515
0.279552
0.288889
0.300104
0.313082
0.327337
0.343003
0.36071
0.37717
0.398577
0.206688
0.207149
0.208004
0.209412
0.211307
0.213479
0.215794
0.218223
0.220793
0.223542
0.226502
0.22971
0.233208
0.237046
0.241283
0.245989
0.251244
0.257143
0.263808
0.27142
0.280277
0.290874
0.304179
0.320265
0.338797
0.359874
0.383292
0.40709
0.433692
0.20461
0.205054
0.205874
0.207242
0.209103
0.211254
0.213556
0.215977
0.218545
0.221301
0.224278
0.227517
0.231061
0.234963
0.239286
0.244106
0.249514
0.255623
0.262576
0.270602
0.280062
0.291542
0.306276
0.324223
0.34487
0.368671
0.395996
0.425235
0.454455
0.202464
0.202897
0.203693
0.205017
0.206825
0.208929
0.211194
0.213587
0.216135
0.218876
0.221848
0.225088
0.228643
0.232567
0.236927
0.2418
0.247283
0.253504
0.2606
0.268853
0.278594
0.290469
0.305485
0.324897
0.347018
0.37139
0.397699
0.424953
0.452391
0.200243
0.200663
0.201433
0.202708
0.204452
0.206496
0.208708
0.211054
0.21356
0.216262
0.219198
0.222407
0.225933
0.229832
0.234171
0.239029
0.24449
0.250714
0.257772
0.26605
0.27559
0.287658
0.302952
0.322156
0.343553
0.366326
0.389666
0.413112
0.436476
0.197946
0.198353
0.199093
0.200312
0.201982
0.203951
0.206093
0.208374
0.210814
0.213452
0.216323
0.219464
0.222919
0.226742
0.230998
0.235767
0.241094
0.247218
0.253996
0.262066
0.271576
0.283241
0.297829
0.315492
0.33466
0.354595
0.374547
0.394252
0.413013
0.19557
0.195964
0.196673
0.197831
0.199416
0.201294
0.203348
0.205542
0.207896
0.210442
0.213216
0.216252
0.219592
0.223286
0.227391
0.232007
0.237058
0.242912
0.24953
0.257168
0.266144
0.276899
0.29002
0.305411
0.32166
0.338115
0.354222
0.370003
0.384484
0.193113
0.193493
0.194167
0.195257
0.196749
0.198524
0.200474
0.202563
0.204806
0.207234
0.20988
0.212775
0.215956
0.219467
0.223351
0.227693
0.232536
0.238004
0.244198
0.251226
0.259322
0.268816
0.280071
0.292819
0.305822
0.3185
0.330475
0.342069
0.352439
0.190575
0.190942
0.19158
0.192599
0.193987
0.195646
0.197475
0.199438
0.201547
0.203832
0.206319
0.209038
0.212019
0.2153
0.218924
0.222953
0.227446
0.232452
0.238047
0.244303
0.251348
0.259385
0.26857
0.278503
0.288176
0.297132
0.305165
0.312757
0.31933
0.187961
0.188319
0.188923
0.189866
0.191141
0.192666
0.194354
0.196169
0.198123
0.200239
0.20254
0.205049
0.207793
0.210805
0.214118
0.217776
0.221817
0.226273
0.231174
0.236547
0.242438
0.248918
0.255959
0.2631
0.269609
0.275199
0.279821
0.284002
0.287398
0.18527
0.185614
0.186178
0.18704
0.188197
0.189583
0.191118
0.192771
0.194549
0.196474
0.198563
0.200834
0.203309
0.206011
0.208965
0.212197
0.215727
0.219565
0.223709
0.228136
0.232821
0.237727
0.242691
0.247256
0.250979
0.253744
0.255636
0.25717
0.258195
0.182507
0.18284
0.183363
0.184141
0.185174
0.186409
0.187779
0.189252
0.190838
0.192552
0.194409
0.196419
0.198597
0.200956
0.203512
0.206277
0.209254
0.212433
0.215782
0.219236
0.222718
0.226114
0.229174
0.231503
0.232922
0.233463
0.233304
0.232945
0.232414
0.179678
0.180001
0.180484
0.181177
0.182079
0.183154
0.184347
0.185624
0.187003
0.188493
0.190099
0.191827
0.193683
0.195673
0.197801
0.200069
0.202464
0.204955
0.20749
0.209976
0.212297
0.214297
0.21568
0.216147
0.215755
0.21465
0.21306
0.211476
0.210092
0.176787
0.177099
0.177538
0.178142
0.178913
0.179825
0.180839
0.181901
0.18307
0.184322
0.185663
0.187093
0.188609
0.19021
0.191892
0.193642
0.195437
0.197231
0.198955
0.2005
0.201733
0.202476
0.202424
0.201401
0.199664
0.197437
0.194943
0.192671
0.190972
0.173843
0.174145
0.17454
0.175055
0.175692
0.176436
0.177249
0.17812
0.17906
0.180064
0.181129
0.182249
0.183415
0.184617
0.185841
0.187066
0.188257
0.189358
0.19029
0.190938
0.191166
0.190796
0.189544
0.187374
0.184698
0.18178
0.178789
0.176213
0.174559
0.170853
0.17115
0.171501
0.171929
0.172432
0.173001
0.173616
0.174278
0.174987
0.175739
0.176524
0.177329
0.178139
0.178936
0.1797
0.180399
0.18099
0.181412
0.181579
0.181379
0.180681
0.179328
0.177078
0.174039
0.17075
0.167476
0.164286
0.161676
0.160308
0.167824
0.168116
0.168419
0.168759
0.169129
0.169529
0.169952
0.1704
0.17088
0.171379
0.171883
0.172372
0.172826
0.173222
0.173529
0.173712
0.173719
0.173483
0.17292
0.171921
0.170371
0.168141
0.165049
0.161357
0.157708
0.15434
0.151185
0.148751
0.14785
0.16477
0.165055
0.165312
0.165562
0.165807
0.166041
0.16627
0.166509
0.166761
0.167011
0.167237
0.167417
0.167523
0.167526
0.167391
0.167075
0.166522
0.165662
0.164409
0.162664
0.160329
0.157305
0.153482
0.149282
0.145447
0.142176
0.139235
0.137145
0.136881
0.161693
0.161962
0.162194
0.162371
0.162482
0.162547
0.162587
0.162622
0.162653
0.162659
0.162616
0.162496
0.162267
0.161893
0.161336
0.160546
0.159464
0.158017
0.156122
0.153685
0.150623
0.146865
0.142368
0.13772
0.13378
0.130719
0.128111
0.126503
0.127059
0.158607
0.15887
0.159074
0.159175
0.159159
0.15906
0.158917
0.158756
0.158573
0.158347
0.158047
0.15764
0.157092
0.156362
0.155406
0.154173
0.152599
0.150612
0.148126
0.145054
0.141318
0.136868
0.13171
0.126579
0.122493
0.119632
0.117383
0.116344
0.117914
0.155522
0.155778
0.155947
0.15597
0.155833
0.155584
0.155272
0.154927
0.154545
0.1541
0.153559
0.152883
0.152035
0.150973
0.149649
0.148008
0.145986
0.143508
0.140492
0.136849
0.132506
0.127409
0.121587
0.115882
0.111488
0.108664
0.106645
0.106154
0.108894
0.152446
0.152701
0.152841
0.15279
0.152538
0.152141
0.151667
0.151152
0.150587
0.149941
0.149176
0.148253
0.147129
0.145763
0.144104
0.142096
0.139674
0.136765
0.133288
0.129155
0.124289
0.11862
0.112155
0.105765
0.1008
0.0976442
0.0954513
0.0952928
0.0993384
0.149386
0.149635
0.149738
0.149613
0.149252
0.148724
0.148109
0.147447
0.146721
0.145896
0.144929
0.14378
0.142407
0.140767
0.13881
0.136478
0.133709
0.130431
0.126566
0.122035
0.116758
0.110645
0.103654
0.096596
0.0908611
0.0868859
0.0837253
0.0832815
0.0887499
0.146372
0.146667
0.146791
0.146618
0.146124
0.145417
0.14463
0.143817
0.142947
0.141965
0.140821
0.139475
0.137885
0.136008
0.133793
0.131186
0.128125
0.124544
0.120373
0.115546
0.109989
0.103579
0.0961811
0.0885029
0.0819131
0.076807
0.0718662
0.0695387
0.0750616
0.135351
0.116482
0.0901262
0.0560121
0.0168613
-0.0219341
-0.0577679
-0.0901841
-0.120531
-0.151598
-0.183954
-0.219873
-0.256807
-0.291323
-0.319166
-0.337647
-0.346917
-0.349409
-0.349031
0.143486
0.129269
0.104251
0.0697334
0.0273903
-0.017783
-0.0630349
-0.106946
-0.150072
-0.195753
-0.241614
-0.287799
-0.332037
-0.370702
-0.400372
-0.419853
-0.430558
-0.435305
-0.437061
0.139227
0.126292
0.10276
0.0685751
0.0242547
-0.0255771
-0.0781474
-0.134016
-0.189987
-0.246045
-0.301858
-0.356228
-0.406241
-0.448366
-0.480036
-0.500996
-0.513212
-0.519541
-0.522676
0.129312
0.116704
0.0951955
0.0616808
0.0154572
-0.0393614
-0.0992662
-0.162617
-0.227627
-0.293197
-0.358362
-0.42083
-0.476814
-0.522554
-0.55604
-0.577918
-0.590945
-0.598253
-0.602361
0.116049
0.104542
0.0847996
0.0519796
0.0047144
-0.0531281
-0.118116
-0.187973
-0.261148
-0.335888
-0.409696
-0.478956
-0.539189
-0.586845
-0.620915
-0.643101
-0.65679
-0.665061
-0.670023
0.0980221
0.087265
0.069219
0.0378868
-0.0090289
-0.0682555
-0.136742
-0.212304
-0.292616
-0.374856
-0.455246
-0.529111
-0.591737
-0.64028
-0.674838
-0.697865
-0.713015
-0.723071
-0.729701
0.075673
0.0642421
0.0469093
0.0169585
-0.0289648
-0.0885594
-0.159122
-0.238381
-0.323249
-0.40985
-0.493306
-0.568165
-0.629878
-0.676596
-0.709483
-0.731558
-0.746571
-0.75687
-0.763765
0.0501813
0.0368925
0.0188525
-0.0107894
-0.0559664
-0.115254
-0.186279
-0.266675
-0.352919
-0.440362
-0.523289
-0.595934
-0.654404
-0.698004
-0.728743
-0.749831
-0.764769
-0.775329
-0.782568
0.0225286
0.00686764
-0.0129563
-0.0434983
-0.0885546
-0.147162
-0.217285
-0.296604
-0.381353
-0.466309
-0.545271
-0.612703
-0.665736
-0.704763
-0.732336
-0.751601
-0.765707
-0.775923
-0.782987
-0.0063974
-0.0244061
-0.0464834
-0.0786812
-0.124167
-0.181987
-0.250361
-0.327099
-0.408301
-0.488412
-0.561184
-0.621792
-0.668543
-0.702735
-0.727183
-0.744804
-0.758329
-0.768653
-0.776161
-0.0356228
-0.0556744
-0.0800108
-0.114108
-0.160367
-0.217504
-0.283756
-0.356905
-0.432825
-0.505773
-0.569925
-0.621614
-0.660411
-0.688301
-0.708128
-0.722481
-0.733603
-0.742173
-0.748368
-0.0640113
-0.0856239
-0.11186
-0.147577
-0.194506
-0.250856
-0.314656
-0.383466
-0.452941
-0.517511
-0.572296
-0.615036
-0.646375
-0.668627
-0.684397
-0.695824
-0.704627
-0.711396
-0.716199
-0.0905184
-0.113128
-0.140686
-0.177369
-0.224418
-0.279553
-0.340514
-0.404602
-0.467385
-0.523781
-0.570072
-0.605261
-0.63069
-0.648704
-0.661565
-0.67101
-0.678374
-0.684247
-0.688525
-0.114424
-0.137509
-0.165798
-0.202717
-0.249194
-0.302534
-0.360152
-0.41903
-0.474757
-0.52299
-0.561283
-0.58971
-0.610019
-0.62439
-0.634698
-0.642314
-0.648242
-0.653038
-0.656501
-0.135304
-0.158429
-0.186909
-0.223382
-0.268581
-0.319484
-0.373218
-0.426531
-0.475271
-0.516055
-0.547634
-0.57084
-0.587516
-0.599541
-0.608379
-0.615067
-0.620344
-0.624702
-0.627872
-0.153115
-0.175968
-0.204211
-0.239699
-0.283053
-0.331024
-0.380574
-0.428386
-0.470775
-0.505329
-0.531733
-0.551232
-0.565573
-0.576299
-0.584532
-0.591046
-0.596409
-0.601009
-0.604478
-0.168178
-0.190599
-0.218347
-0.25253
-0.293679
-0.338344
-0.383387
-0.425577
-0.461892
-0.490911
-0.513035
-0.529667
-0.542316
-0.552167
-0.56003
-0.566456
-0.57188
-0.576559
-0.580098
-0.180915
-0.202882
-0.230032
-0.262776
-0.301546
-0.342728
-0.38319
-0.419992
-0.450908
-0.475384
-0.494266
-0.50891
-0.520522
-0.52995
-0.53774
-0.544251
-0.549813
-0.554581
-0.558178
-0.191824
-0.213444
-0.240057
-0.271429
-0.30788
-0.34568
-0.381841
-0.41385
-0.44026
-0.461159
-0.477604
-0.4908
-0.501664
-0.510772
-0.518469
-0.52498
-0.530565
-0.53532
-0.5389
-0.201409
-0.222924
-0.249255
-0.279511
-0.313792
-0.34822
-0.380081
-0.407494
-0.429836
-0.447687
-0.462124
-0.4741
-0.484237
-0.492885
-0.500237
-0.506437
-0.511701
-0.516105
-0.519371
-0.209959
-0.231768
-0.258277
-0.287863
-0.320243
-0.351386
-0.379052
-0.40219
-0.420973
-0.436281
-0.449059
-0.459972
-0.469377
-0.47745
-0.484289
-0.48999
-0.494739
-0.498626
-0.501465
-0.217623
-0.240329
-0.267705
-0.297223
-0.327965
-0.355799
-0.379221
-0.398231
-0.413747