/*--------------------------------*- C++ -*----------------------------------*\
| =========                 |                                                 |
| \\      /  F ield         | OpenFOAM: The Open Source CFD Toolbox           |
|  \\    /   O peration     | Version:  2312                                  |
|   \\  /    A nd           | Website:  www.openfoam.com                      |
|    \\/     M anipulation  |                                                 |
\*---------------------------------------------------------------------------*/
FoamFile
{
    version     2.0;
    format      ascii;
    arch        "LSB;label=32;scalar=64";
    class       volScalarField;
    location    "54.63768606503838";
    object      p;
}
// * * * * * * * * * * * * * * * * * * * * * * * * * * * * * * * * * * * * * //

dimensions      [0 2 -2 0 0 0 0];

internalField   nonuniform List<scalar> 
21039
(
0.607488
0.473783
0.431476
0.403188
0.381813
0.365662
0.353141
0.343146
0.334995
0.328234
0.322549
0.317707
0.313536
0.309906
0.306711
0.303871
0.301316
0.29899
0.296845
0.294842
0.292943
0.29112
0.289343
0.287696
0.286262
0.285003
0.283873
0.282834
0.281869
0.460494
0.422596
0.408699
0.390294
0.373468
0.360109
0.349275
0.34033
0.33288
0.326612
0.321284
0.316709
0.312743
0.309274
0.306209
0.303475
0.301008
0.298757
0.296677
0.294728
0.292876
0.291091
0.289346
0.287719
0.286293
0.285035
0.283904
0.282866
0.281899
0.371078
0.368651
0.370768
0.363984
0.355481
0.347614
0.340278
0.333653
0.327809
0.322688
0.3182
0.314259
0.310783
0.3077
0.304947
0.302469
0.300218
0.298151
0.296229
0.294419
0.292689
0.29101
0.289358
0.287803
0.286428
0.285207
0.284103
0.283087
0.282139
0.333005
0.335107
0.339542
0.338419
0.335744
0.332459
0.328577
0.324566
0.320691
0.317055
0.313701
0.31064
0.30786
0.305337
0.303045
0.300951
0.299026
0.297241
0.295566
0.293975
0.29244
0.290938
0.289445
0.288024
0.286752
0.28561
0.284568
0.283599
0.282687
0.308042
0.312001
0.317863
0.319537
0.319692
0.318906
0.317301
0.315287
0.313084
0.310819
0.308585
0.306441
0.304417
0.302525
0.300764
0.299126
0.297596
0.296159
0.294795
0.293484
0.292206
0.290938
0.289663
0.288427
0.287301
0.286272
0.285318
0.284416
0.283553
0.288472
0.293719
0.301049
0.30489
0.306862
0.307623
0.307493
0.306852
0.305881
0.304703
0.30342
0.302102
0.300794
0.299524
0.298307
0.29715
0.29605
0.295001
0.293991
0.293006
0.292032
0.291048
0.290039
0.289035
0.288092
0.287207
0.286365
0.285548
0.284749
0.275787
0.280801
0.287882
0.29281
0.296008
0.297917
0.298891
0.299275
0.299245
0.298931
0.298435
0.29783
0.297166
0.296478
0.295791
0.295117
0.294462
0.293824
0.2932
0.292578
0.291948
0.291292
0.290596
0.28987
0.289149
0.28844
0.287737
0.287026
0.286305
0.268589
0.27268
0.278413
0.283354
0.287049
0.289614
0.291329
0.292462
0.29316
0.293541
0.293701
0.293711
0.293622
0.293472
0.293288
0.293088
0.292881
0.29267
0.292454
0.292226
0.291976
0.291691
0.291355
0.290953
0.290497
0.289999
0.289463
0.288883
0.288258
0.26418
0.267372
0.271737
0.276229
0.279928
0.282724
0.28483
0.286439
0.287655
0.288571
0.289265
0.289797
0.290215
0.290555
0.290845
0.291103
0.291341
0.291564
0.291774
0.291965
0.292129
0.292254
0.292325
0.292295
0.292149
0.291901
0.291566
0.291143
0.290635
0.260903
0.263346
0.266673
0.270642
0.274161
0.276984
0.279268
0.281154
0.282718
0.284027
0.285141
0.286107
0.286965
0.287747
0.288477
0.289175
0.289851
0.290512
0.291159
0.291791
0.292399
0.292972
0.293496
0.293891
0.2941
0.294146
0.294048
0.293813
0.293449
0.258052
0.259896
0.262479
0.265944
0.269234
0.272016
0.274383
0.276438
0.27824
0.279843
0.281288
0.282615
0.283854
0.285033
0.286172
0.287288
0.288393
0.289492
0.290587
0.291677
0.292756
0.293814
0.294838
0.295708
0.296325
0.296709
0.296886
0.296869
0.296678
0.255312
0.256711
0.258769
0.261775
0.264825
0.267536
0.269938
0.272102
0.274079
0.275909
0.277624
0.279256
0.28083
0.282367
0.283888
0.285404
0.286927
0.288463
0.290013
0.291578
0.293151
0.294727
0.296294
0.297693
0.298772
0.299546
0.300043
0.300276
0.300267
0.252519
0.253609
0.255304
0.257915
0.260733
0.263357
0.265762
0.267997
0.270103
0.272113
0.274054
0.275948
0.277819
0.279685
0.281561
0.283461
0.285394
0.287365
0.289378
0.291429
0.293515
0.295631
0.297775
0.299745
0.301334
0.302549
0.30342
0.303957
0.304174
0.249602
0.250478
0.251915
0.254199
0.256803
0.259333
0.261723
0.264
0.266203
0.268358
0.270486
0.272609
0.274745
0.276911
0.279123
0.281391
0.283728
0.286136
0.288615
0.291162
0.29377
0.296435
0.299163
0.301716
0.303836
0.305524
0.306807
0.307687
0.308174
0.246534
0.247264
0.248499
0.250497
0.252897
0.25533
0.257693
0.259996
0.26227
0.26454
0.266826
0.269145
0.271516
0.273957
0.276483
0.279109
0.281843
0.284688
0.28764
0.290691
0.293827
0.297037
0.300323
0.30341
0.306009
0.308138
0.309827
0.311071
0.311865
0.243575
0.244199
0.245278
0.247063
0.249299
0.251641
0.253972
0.256288
0.258614
0.260972
0.26338
0.265858
0.268426
0.271104
0.273911
0.276863
0.279969
0.283231
0.286641
0.290183
0.293826
0.297531
0.301269
0.30469
0.307496
0.309773
0.311621
0.313073
0.314114
0.241038
0.241594
0.242577
0.244229
0.246342
0.248603
0.250904
0.253234
0.255605
0.258034
0.260541
0.263149
0.26588
0.26876
0.271811
0.275051
0.278493
0.282138
0.28598
0.289991
0.294121
0.298286
0.302385
0.305913
0.308508
0.310326
0.311622
0.31265
0.31362
0.238912
0.239424
0.240341
0.241896
0.243915
0.246124
0.248425
0.250786
0.253206
0.255702
0.258298
0.261022
0.2639
0.266964
0.270238
0.273746
0.277504
0.281522
0.285791
0.290282
0.294929
0.299608
0.304123
0.307732
0.30983
0.310441
0.30982
0.308469
0.307456
0.23718
0.237744
0.238684
0.240144
0.242
0.244109
0.246408
0.248819
0.251303
0.253873
0.25656
0.259399
0.262423
0.265665
0.269156
0.272924
0.276995
0.281384
0.286091
0.291091
0.29632
0.301638
0.306795
0.310816
0.312682
0.311906
0.308154
0.300868
0.28976
0.28094
0.280003
0.27907
0.27814
0.277211
0.276283
0.275354
0.274424
0.273491
0.272556
0.271618
0.270675
0.269727
0.268774
0.267814
0.266848
0.265875
0.264894
0.263906
0.26291
0.261905
0.260893
0.259872
0.258844
0.257808
0.256765
0.255715
0.254658
0.253596
0.252528
0.251455
0.250378
0.249298
0.248215
0.247131
0.246045
0.24496
0.243876
0.242794
0.241716
0.240642
0.239573
0.238511
0.237456
0.23641
0.235373
0.234347
0.233332
0.232328
0.280972
0.280045
0.279122
0.278202
0.277282
0.276363
0.275443
0.274522
0.273598
0.272672
0.271741
0.270805
0.269864
0.268917
0.267962
0.267001
0.266031
0.265053
0.264067
0.263072
0.262067
0.261054
0.260032
0.259001
0.257962
0.256914
0.255859
0.254796
0.253727
0.252651
0.25157
0.250484
0.249394
0.248301
0.247206
0.24611
0.245013
0.243917
0.242823
0.241732
0.240645
0.239564
0.238488
0.23742
0.23636
0.23531
0.234271
0.233244
0.232228
0.281233
0.280329
0.279428
0.278529
0.27763
0.27673
0.275829
0.274925
0.274017
0.273104
0.272185
0.27126
0.270328
0.269388
0.268438
0.26748
0.266511
0.265532
0.264543
0.263543
0.262532
0.261509
0.260477
0.259433
0.258379
0.257315
0.256242
0.255159
0.254068
0.25297
0.251865
0.250754
0.249637
0.248517
0.247393
0.246267
0.24514
0.244013
0.242887
0.241764
0.240644
0.239529
0.23842
0.237317
0.236223
0.235139
0.234065
0.233003
0.231953
0.281815
0.280946
0.280077
0.279208
0.278337
0.277463
0.276585
0.275702
0.274812
0.273916
0.27301
0.272096
0.271171
0.270235
0.269288
0.268328
0.267355
0.266369
0.265369
0.264356
0.263329
0.262288
0.261234
0.260166
0.259085
0.257992
0.256887
0.255771
0.254645
0.253508
0.252363
0.25121
0.25005
0.248885
0.247714
0.246541
0.245365
0.244188
0.243011
0.241835
0.240662
0.239493
0.238329
0.237171
0.236021
0.23488
0.233749
0.232629
0.231522
0.282726
0.281904
0.281078
0.280247
0.279411
0.278568
0.277718
0.27686
0.275991
0.275112
0.27422
0.273315
0.272396
0.271462
0.270513
0.269547
0.268564
0.267564
0.266547
0.265512
0.26446
0.263391
0.262304
0.261201
0.260081
0.258947
0.257797
0.256633
0.255455
0.254266
0.253065
0.251855
0.250635
0.249408
0.248174
0.246935
0.245691
0.244446
0.243199
0.241953
0.240708
0.239465
0.238227
0.236995
0.235769
0.234551
0.233343
0.232145
0.23096
0.28398
0.283216
0.282441
0.281657
0.280864
0.28006
0.279244
0.278414
0.27757
0.276709
0.275831
0.274936
0.274021
0.273086
0.272131
0.271154
0.270156
0.269135
0.268092
0.267027
0.26594
0.264832
0.263702
0.262551
0.261379
0.260189
0.25898
0.257753
0.25651
0.255251
0.253978
0.252693
0.251396
0.250088
0.248773
0.24745
0.246121
0.244788
0.243452
0.242115
0.240778
0.239443
0.238112
0.236784
0.235463
0.234149
0.232844
0.231548
0.230265
0.285609
0.284914
0.284202
0.283474
0.282731
0.281972
0.281195
0.280399
0.279581
0.278742
0.277878
0.276991
0.276078
0.275139
0.274174
0.27318
0.272159
0.27111
0.270033
0.268928
0.267796
0.266636
0.26545
0.264238
0.263
0.261739
0.260455
0.259149
0.257823
0.256478
0.255115
0.253736
0.252343
0.250936
0.249519
0.248092
0.246657
0.245216
0.243771
0.242323
0.240874
0.239425
0.237979
0.236536
0.235098
0.233668
0.232244
0.230831
0.229431
0.287648
0.287036
0.286395
0.285733
0.28505
0.284343
0.28361
0.28285
0.282063
0.281245
0.280396
0.279516
0.278603
0.277656
0.276675
0.275659
0.274608
0.273522
0.272401
0.271245
0.270055
0.268832
0.267576
0.266288
0.26497
0.263622
0.262246
0.260844
0.259416
0.257966
0.256493
0.255001
0.253491
0.251964
0.250424
0.248871
0.247308
0.245737
0.244159
0.242578
0.240993
0.239408
0.237825
0.236244
0.234668
0.233098
0.231536
0.229984
0.228446
0.290128
0.289608
0.289051
0.288465
0.28785
0.287201
0.286519
0.285801
0.285046
0.284252
0.283418
0.282544
0.281627
0.280668
0.279666
0.278621
0.277533
0.276401
0.275227
0.27401
0.272751
0.271451
0.270111
0.268733
0.267318
0.265866
0.264381
0.262863
0.261315
0.259738
0.258135
0.256507
0.254857
0.253187
0.2515
0.249798
0.248081
0.246355
0.24462
0.24288
0.241135
0.239388
0.237642
0.235899
0.234159
0.232426
0.2307
0.228986
0.227288
0.293064
0.292646
0.292186
0.291688
0.29115
0.290569
0.289944
0.289273
0.288554
0.287786
0.286968
0.286099
0.285178
0.284205
0.283179
0.2821
0.280968
0.279783
0.278547
0.277258
0.27592
0.274531
0.273095
0.271611
0.270083
0.268511
0.266897
0.265245
0.263554
0.261829
0.260072
0.258284
0.256469
0.254629
0.252768
0.250887
0.24899
0.247079
0.245157
0.243227
0.241293
0.239354
0.237416
0.23548
0.233548
0.231623
0.229706
0.227802
0.225919
0.296447
0.29613
0.295798
0.295405
0.294952
0.294445
0.293886
0.293269
0.292594
0.291858
0.291061
0.290201
0.289278
0.288292
0.287242
0.286128
0.28495
0.283709
0.282405
0.281039
0.279613
0.278127
0.276582
0.274981
0.273325
0.271615
0.269855
0.268047
0.266192
0.264295
0.262357
0.260381
0.258372
0.25633
0.254261
0.252169
0.250054
0.247923
0.245778
0.243622
0.241459
0.239292
0.237125
0.234959
0.232799
0.230647
0.228504
0.226378
0.224277
0.300205
0.300078
0.299873
0.299594
0.299185
0.298782
0.298316
0.297772
0.297154
0.296462
0.295699
0.29486
0.293946
0.292957
0.291892
0.290751
0.289533
0.288239
0.286872
0.285429
0.283914
0.282326
0.280666
0.278938
0.277143
0.275281
0.273356
0.271372
0.269328
0.26723
0.265081
0.262883
0.260643
0.25836
0.256042
0.253694
0.251316
0.248917
0.246498
0.244067
0.241627
0.23918
0.236734
0.23429
0.231854
0.229428
0.227015
0.224623
0.222266
0.304287
0.304294
0.304215
0.304071
0.303857
0.303568
0.303195
0.302739
0.302186
0.30157
0.300869
0.300082
0.299205
0.298238
0.297182
0.296036
0.294799
0.293472
0.292058
0.29055
0.288955
0.287272
0.2855
0.283642
0.281701
0.279674
0.277568
0.275385
0.273125
0.270795
0.268396
0.265933
0.263413
0.260837
0.258213
0.255548
0.252842
0.250109
0.247349
0.244571
0.241783
0.238986
0.236192
0.233401
0.230623
0.22786
0.225114
0.2224
0.219731
0.308512
0.308696
0.308785
0.308799
0.308731
0.308581
0.308345
0.308022
0.307612
0.307102
0.306492
0.305926
0.305119
0.304219
0.303219
0.302116
0.300902
0.299581
0.298155
0.296614
0.294966
0.293208
0.291337
0.289358
0.28727
0.285071
0.282769
0.280363
0.277852
0.275248
0.272549
0.269761
0.266894
0.263948
0.260935
0.257863
0.254735
0.251567
0.248362
0.245133
0.241889
0.238635
0.235388
0.232149
0.22893
0.225738
0.222575
0.219458
0.216407
0.312464
0.312851
0.31315
0.313386
0.313549
0.31364
0.313652
0.313578
0.313412
0.313143
0.312765
0.312267
0.311655
0.310957
0.310124
0.309146
0.308035
0.306794
0.305422
0.303906
0.302255
0.300465
0.298528
0.29645
0.294228
0.291857
0.289344
0.286689
0.283888
0.280954
0.277887
0.274692
0.271382
0.267958
0.264437
0.260829
0.257139
0.253388
0.249585
0.245745
0.241885
0.238012
0.234151
0.230308
0.226502
0.222742
0.219036
0.215405
0.211874
0.314957
0.315515
0.316073
0.316669
0.317264
0.317832
0.318331
0.318731
0.319011
0.319148
0.319143
0.31898
0.318663
0.318186
0.317548
0.316831
0.315921
0.314839
0.313601
0.312187
0.310607
0.308853
0.306909
0.304784
0.302465
0.299943
0.297227
0.294311
0.291188
0.287875
0.28437
0.28068
0.276822
0.272799
0.268633
0.26434
0.259927
0.255424
0.250842
0.246204
0.241533
0.236843
0.232169
0.227524
0.222943
0.218445
0.21405
0.209791
0.205702
0.314657
0.315305
0.316309
0.317657
0.319144
0.320617
0.321951
0.323085
0.323991
0.324652
0.325089
0.325302
0.325317
0.325146
0.324783
0.324245
0.323541
0.322723
0.321681
0.320442
0.319015
0.317381
0.315515
0.31342
0.311077
0.308465
0.305593
0.302446
0.299014
0.295316
0.291348
0.287122
0.282661
0.27797
0.273084
0.268021
0.262795
0.257448
0.251989
0.246452
0.240861
0.235231
0.229606
0.224003
0.218471
0.213052
0.207794
0.202772
0.198053
0.307164
0.308267
0.31141
0.315329
0.319084
0.32233
0.32496
0.327016
0.32858
0.329718
0.330522
0.33103
0.331303
0.331374
0.331256
0.330973
0.330493
0.329865
0.329128
0.328139
0.326955
0.325543
0.323861
0.321904
0.319636
0.317019
0.314054
0.310717
0.306989
0.302894
0.29843
0.293612
0.288478
0.283036
0.27734
0.271418
0.265295
0.259025
0.252623
0.246132
0.239572
0.232956
0.226314
0.219646
0.212988
0.206376
0.199893
0.193739
0.1882
0.28137
0.291884
0.303862
0.313559
0.320651
0.325672
0.329184
0.331667
0.333442
0.334703
0.335598
0.33619
0.336561
0.336748
0.336777
0.336686
0.336448
0.33607
0.335592
0.334931
0.334061
0.332956
0.331553
0.329839
0.327761
0.32525
0.322287
0.318833
0.31486
0.310399
0.30545
0.300038
0.294217
0.288009
0.281486
0.274696
0.267677
0.260504
0.253203
0.245827
0.238402
0.230931
0.223429
0.21584
0.208126
0.200188
0.191934
0.183426
0.175305
0.231346
0.230324
0.229206
0.227975
0.226612
0.225106
0.223484
0.221936
0.220605
0.21952
0.218716
0.218228
0.218094
0.218365
0.21909
0.220334
0.222174
0.224708
0.228062
0.232401
0.237951
0.245022
0.254059
0.265741
0.281165
0.301929
0.329722
0.371559
0.504892
0.23123
0.230191
0.229053
0.227797
0.226401
0.224855
0.223187
0.221589
0.220206
0.219068
0.218207
0.217657
0.217454
0.217644
0.218271
0.219394
0.221082
0.223421
0.226518
0.23051
0.235577
0.241956
0.249951
0.259953
0.272588
0.288792
0.306691
0.320109
0.357666
0.23092
0.229842
0.228657
0.227343
0.225877
0.224244
0.222473
0.220759
0.219256
0.21799
0.216992
0.216291
0.215918
0.215908
0.216297
0.217129
0.218453
0.220326
0.222813
0.225987
0.22993
0.234721
0.240415
0.246932
0.254082
0.261959
0.268207
0.265567
0.267668
0.230429
0.229286
0.228022
0.226616
0.225039
0.223273
0.221341
0.219448
0.217759
0.216299
0.215091
0.21416
0.213527
0.213219
0.213255
0.213661
0.214461
0.215674
0.217317
0.219393
0.221884
0.224736
0.227841
0.230923
0.233506
0.235555
0.236117
0.23115
0.228767
0.229785
0.228551
0.227182
0.225651
0.223925
0.22198
0.219836
0.217712
0.215786
0.214078
0.212608
0.211393
0.210448
0.209784
0.20941
0.209333
0.209552
0.210059
0.210833
0.211837
0.213001
0.214222
0.215364
0.2162
0.216306
0.215539
0.213307
0.206952
0.202774
0.228989
0.227642
0.226141
0.224454
0.222544
0.22038
0.217978
0.215576
0.21337
0.211376
0.209609
0.20808
0.206795
0.205756
0.204962
0.204403
0.204065
0.203921
0.203934
0.204048
0.204182
0.204225
0.204044
0.203447
0.202044
0.199492
0.195123
0.187351
0.18194
0.228032
0.226549
0.224889
0.223015
0.220884
0.218461
0.215757
0.213035
0.210513
0.208203
0.206117
0.204257
0.202625
0.201215
0.200015
0.19901
0.198172
0.197468
0.19685
0.196255
0.195601
0.194774
0.193632
0.191991
0.189494
0.185763
0.180357
0.172896
0.167764
0.226901
0.225256
0.223407
0.221313
0.218924
0.2162
0.213151
0.210071
0.207202
0.204556
0.202136
0.199943
0.19797
0.196206
0.194634
0.19323
0.19196
0.190787
0.189657
0.188505
0.187251
0.185785
0.183978
0.181672
0.178589
0.17443
0.169081
0.163042
0.158874
0.225572
0.223737
0.221669
0.219318
0.216631
0.213563
0.210126
0.206653
0.203414
0.200416
0.197661
0.195142
0.192848
0.190761
0.188858
0.187112
0.185485
0.183936
0.182412
0.180851
0.179178
0.177304
0.175125
0.172525
0.169301
0.165229
0.160414
0.155824
0.152589
0.224005
0.221949
0.219625
0.216978
0.21395
0.210493
0.206626
0.202728
0.199101
0.195748
0.192665
0.189838
0.187252
0.184883
0.182703
0.180681
0.178777
0.17695
0.175149
0.173317
0.171394
0.169307
0.166977
0.164317
0.161178
0.157393
0.153199
0.149725
0.147265
0.222131
0.219818
0.217198
0.21421
0.210793
0.206899
0.202562
0.198214
0.194189
0.190486
0.187093
0.18399
0.181153
0.178552
0.176156
0.17393
0.171832
0.16982
0.167848
0.165866
0.163821
0.161655
0.159305
0.156701
0.153734
0.1503
0.146714
0.144059
0.142221
0.219845
0.217231
0.214266
0.210886
0.207026
0.202648
0.197801
0.192985
0.188567
0.184534
0.180864
0.177528
0.174494
0.171725
0.169182
0.166825
0.164615
0.162506
0.160456
0.158418
0.156347
0.154195
0.151908
0.149429
0.146681
0.143622
0.140604
0.138544
0.137171
0.216982
0.214012
0.210645
0.206811
0.202452
0.197542
0.19216
0.186875
0.182086
0.177764
0.173871
0.170365
0.167203
0.164339
0.161727
0.159322
0.157081
0.15496
0.152914
0.150903
0.148884
0.146817
0.144657
0.142355
0.139859
0.137176
0.134662
0.133031
0.131985
0.213258
0.209866
0.20603
0.201679
0.196768
0.191294
0.185374
0.179655
0.174552
0.170013
0.165979
0.162392
0.159192
0.156323
0.153733
0.151369
0.149184
0.147133
0.145172
0.143263
0.141366
0.139446
0.137465
0.13538
0.133156
0.130837
0.12876
0.127446
0.126628
0.208237
0.204342
0.199967
0.195043
0.189551
0.183521
0.177115
0.17105
0.165741
0.161102
0.157047
0.153496
0.150373
0.147611
0.145146
0.142921
0.140885
0.138991
0.137195
0.135459
0.133748
0.132028
0.130267
0.128428
0.126494
0.124533
0.122848
0.121783
0.121119
0.201514
0.197088
0.19218
0.186735
0.180766
0.174335
0.167637
0.161431
0.156111
0.151552
0.147642
0.144278
0.141368
0.138833
0.136602
0.134613
0.13281
0.131147
0.129581
0.128073
0.126589
0.1251
0.123578
0.121995
0.120345
0.118701
0.117331
0.116465
0.115907
0.193273
0.18834
0.183038
0.177299
0.17113
0.164592
0.157889
0.151793
0.146667
0.142361
0.138738
0.135677
0.133076
0.130846
0.128912
0.127209
0.125682
0.124281
0.122966
0.121698
0.120446
0.119181
0.117884
0.11654
0.11515
0.113777
0.112645
0.111926
0.111444
0.182903
0.177765
0.17258
0.167043
0.161077
0.154748
0.148297
0.142509
0.13773
0.133794
0.130548
0.127861
0.12562
0.123734
0.122125
0.120726
0.119485
0.118351
0.117287
0.116254
0.115222
0.114163
0.113058
0.11191
0.110741
0.109601
0.108673
0.108083
0.107664
0.168978
0.165154
0.161225
0.156485
0.151076
0.14519
0.139161
0.133812
0.129474
0.125976
0.123155
0.120871
0.119009
0.117474
0.116189
0.11509
0.114123
0.113244
0.112414
0.111598
0.110763
0.109878
0.108932
0.107966
0.10705
0.106205
0.105483
0.104944
0.104507
0.235396
0.23574
0.236501
0.237987
0.240039
0.242357
0.24479
0.247272
0.249811
0.252449
0.255231
0.258193
0.26137
0.264797
0.26851
0.272543
0.276928
0.281687
0.286826
0.292328
0.298136
0.304112
0.30997
0.314582
0.316574
0.314768
0.307655
0.292897
0.262186
0.233608
0.234074
0.234951
0.236428
0.238398
0.240646
0.243049
0.245546
0.248142
0.250871
0.253769
0.256872
0.260216
0.263841
0.267786
0.272093
0.2768
0.281939
0.287529
0.293576
0.300065
0.306922
0.313952
0.320107
0.324103
0.325207
0.322852
0.318894
0.32316
0.231771
0.23232
0.233283
0.234756
0.236661
0.238837
0.24119
0.243679
0.246307
0.249101
0.252091
0.255309
0.258795
0.262591
0.266743
0.271302
0.276318
0.281841
0.28792
0.294607
0.301978
0.310133
0.319195
0.328578
0.337473
0.346016
0.354518
0.361775
0.37829
0.22986
0.230388
0.231326
0.232787
0.234698
0.236885
0.239239
0.241732
0.244383
0.247221
0.250278
0.253586
0.257187
0.261127
0.26546
0.270246
0.27555
0.281443
0.28801
0.295369
0.303702
0.313335
0.324811
0.337997
0.352404
0.368147
0.385904
0.402384
0.423648
0.227875
0.22837
0.229258
0.230689
0.232604
0.234806
0.237173
0.239677
0.242346
0.245216
0.248322
0.2517
0.255393
0.259452
0.263937
0.268916
0.27447
0.28069
0.287694
0.295666
0.30488
0.315857
0.329511
0.345868
0.364661
0.385861
0.409406
0.433301
0.459922
0.225818
0.226296
0.227153
0.228547
0.230432
0.232618
0.234977
0.237478
0.240153
0.24304
0.246176
0.249599
0.253356
0.257501
0.262097
0.267222
0.272967
0.279441
0.286781
0.295235
0.305111
0.317057
0.332253
0.350474
0.371534
0.395594
0.423097
0.45245
0.481727
0.223684
0.224151
0.224986
0.226341
0.228176
0.23032
0.232646
0.235126
0.237787
0.240669
0.243809
0.247249
0.251034
0.255221
0.259879
0.265087
0.270947
0.277579
0.285103
0.293861
0.304078
0.316486
0.332066
0.351951
0.3745
0.399209
0.42577
0.453187
0.480708
0.221466
0.221922
0.222732
0.224041
0.225816
0.227903
0.23018
0.232618
0.235244
0.238095
0.24121
0.244631
0.248403
0.252585
0.257245
0.262465
0.268346
0.275031
0.282544
0.291407
0.301494
0.314186
0.330148
0.349949
0.371871
0.395066
0.418744
0.442441
0.465958
0.219161
0.219605
0.220388
0.221644
0.223349
0.225364
0.227575
0.229951
0.232518
0.235311
0.23837
0.241735
0.24545
0.249573
0.254171
0.259323
0.265117
0.271761
0.279009
0.28771
0.297895
0.310257
0.325624
0.344002
0.363813
0.384278
0.404665
0.424709
0.443713
0.216769
0.217201
0.217954
0.219151
0.220774
0.222701
0.224827
0.227121
0.229604
0.232313
0.235282
0.238552
0.242164
0.246173
0.250641
0.255646
0.261229
0.267591
0.274793
0.283093
0.29283
0.304371
0.318382
0.334621
0.351633
0.368735
0.385385
0.401604
0.416421
0.214286
0.214705
0.215424
0.216556
0.218088
0.219914
0.221938
0.224129
0.226505
0.2291
0.231948
0.235084
0.238548
0.242388
0.246659
0.251431
0.256771
0.262806
0.269651
0.277398
0.286321
0.2967
0.308956
0.322691
0.336588
0.350039
0.362677
0.37482
0.385631
0.211712
0.212118
0.212802
0.213865
0.215296
0.217008
0.218912
0.220978
0.223223
0.225677
0.228371
0.231336
0.234608
0.238228
0.242248
0.246733
0.251739
0.257351
0.263633
0.270668
0.278604
0.287623
0.297923
0.308982
0.319688
0.329555
0.338379
0.346641
0.353771
0.209051
0.209449
0.2101
0.211089
0.212408
0.213988
0.21575
0.21767
0.219761
0.222047
0.224556
0.227315
0.230354
0.233709
0.237425
0.241555
0.246134
0.251222
0.256841
0.263045
0.269888
0.277442
0.285711
0.294118
0.301804
0.308447
0.313997
0.318976
0.32305
0.206304
0.206688
0.2073
0.208209
0.209412
0.210852
0.212462
0.214219
0.216133
0.218227
0.220524
0.223044
0.225814
0.228864
0.232225
0.235935
0.240018
0.244508
0.249399
0.254698
0.260392
0.266454
0.272753
0.27872
0.283767
0.287735
0.290697
0.293167
0.294999
0.203475
0.203847
0.204419
0.205245
0.206324
0.207613
0.209057
0.210634
0.212353
0.214234
0.216295
0.218551
0.221021
0.223726
0.226689
0.229934
0.233471
0.237311
0.241426
0.245784
0.25032
0.254943
0.259435
0.263294
0.266183
0.268077
0.269139
0.269862
0.270274
0.200569
0.200932
0.201464
0.202205
0.203154
0.204283
0.205546
0.206928
0.208436
0.210086
0.211891
0.213858
0.216001
0.21833
0.22086
0.223602
0.226554
0.229707
0.233016
0.236422
0.239828
0.243109
0.246004
0.248118
0.249333
0.249732
0.249517
0.249167
0.248872
0.197593
0.197943
0.198431
0.199085
0.199902
0.200866
0.201944
0.203119
0.204403
0.20581
0.207342
0.209002
0.210794
0.212724
0.214795
0.217007
0.219346
0.221791
0.224282
0.226748
0.229076
0.231132
0.23265
0.233371
0.233363
0.232784
0.231821
0.230937
0.230477
0.194553
0.194892
0.195337
0.195902
0.196586
0.197382
0.198265
0.199223
0.20028
0.201431
0.202678
0.204016
0.205444
0.206957
0.208551
0.210216
0.211929
0.213655
0.215332
0.21688
0.218191
0.219138
0.219485
0.219121
0.218273
0.217132
0.21582
0.214784
0.214517
0.19146
0.191791
0.192194
0.192671
0.19322
0.193844
0.194516
0.195267
0.196085
0.196973
0.197926
0.198934
0.199987
0.201074
0.202182
0.20329
0.20437
0.205377
0.206247
0.206903
0.207249
0.207181
0.206515
0.205302
0.203902
0.202505
0.201126
0.200193
0.20035
0.18832
0.188642
0.188999
0.189389
0.189803
0.190251
0.190734
0.191266
0.191843
0.192466
0.193123
0.193798
0.194473
0.195131
0.195749
0.196302
0.19675
0.197045
0.197122
0.196909
0.196328
0.195309
0.193735
0.19183
0.190077
0.188644
0.187402
0.186755
0.187494
0.185144
0.18546
0.185769
0.186075
0.186356
0.186636
0.186928
0.18724
0.18758
0.18794
0.188304
0.188647
0.188949
0.189182
0.189318
0.189323
0.189152
0.188751
0.188055
0.186997
0.185517
0.18358
0.181143
0.178613
0.176606
0.175263
0.174284
0.174044
0.175489
0.181942
0.182253
0.182515
0.182743
0.18289
0.183019
0.183114
0.183211
0.183319
0.183423
0.183499
0.18352
0.183455
0.183275
0.182942
0.182416
0.181645
0.18057
0.179125
0.177244
0.174881
0.172028
0.168707
0.165516
0.163235
0.162002
0.161328
0.161556
0.163818
0.178727
0.179032
0.179255
0.179402
0.179444
0.179403
0.179305
0.179197
0.179083
0.178939
0.178738
0.178447
0.178031
0.177453
0.17667
0.175635
0.17429
0.172571
0.170406
0.167729
0.164493
0.160702
0.15642
0.152418
0.149693
0.148436
0.14798
0.148653
0.151821
0.175504
0.175797
0.175996
0.176069
0.175991
0.175789
0.175517
0.175219
0.174894
0.174517
0.174054
0.173468
0.172718
0.171763
0.170555
0.169039
0.167154
0.164827
0.161981
0.158541
0.154452
0.149705
0.144363
0.139324
0.135842
0.134238
0.133716
0.134669
0.138765
0.172288
0.172575
0.172751
0.172756
0.172555
0.172203
0.171767
0.171292
0.170774
0.170181
0.169475
0.168613
0.167552
0.166246
0.164643
0.162683
0.160298
0.157409
0.153933
0.149783
0.144885
0.139193
0.132717
0.126391
0.121713
0.119198
0.118001
0.118822
0.123814
0.169086
0.169364
0.169503
0.169435
0.169124
0.168641
0.168063
0.167435
0.166747
0.16596
0.165032
0.163917
0.162571
0.160944
0.158979
0.156614
0.153774
0.150377
0.14633
0.141536
0.135902
0.129332
0.121747
0.114015
0.107764
0.103642
0.100736
0.100578
0.106398
0.165928
0.166248
0.166408
0.166293
0.165856
0.165196
0.164442
0.163656
0.162814
0.161859
0.160736
0.159398
0.157799
0.155888
0.153605
0.150883
0.147646
0.143804
0.13926
0.133913
0.127653
0.120322
0.111704
0.102526
0.0944655
0.0882053
0.082492
0.0793601
0.084282
0.134208
0.113851
0.0858562
0.0495442
0.0082604
-0.0331032
-0.0708511
-0.105634
-0.137571
-0.170615
-0.204576
-0.242259
-0.280863
-0.316907
-0.346008
-0.365362
-0.375096
-0.37773
-0.377343
0.141627
0.125701
0.0991415
0.0623024
0.0178469
-0.0302198
-0.0773775
-0.124338
-0.16895
-0.21707
-0.265058
-0.313284
-0.359426
-0.399779
-0.430786
-0.451164
-0.462349
-0.467266
-0.469046
0.136307
0.121628
0.0966811
0.0600271
0.013606
-0.0395062
-0.0939671
-0.152866
-0.211469
-0.270157
-0.328373
-0.385044
-0.437176
-0.481127
-0.514202
-0.536089
-0.548803
-0.555323
-0.558505
0.125131
0.111022
0.0881862
0.0525157
0.0036774
-0.0542472
-0.11722
-0.183649
-0.251658
-0.320124
-0.388003
-0.453079
-0.511441
-0.559184
-0.594166
-0.617005
-0.630536
-0.638042
-0.642209
0.111063
0.0979818
0.0765298
0.0413562
-0.00877234
-0.0697663
-0.138172
-0.21136
-0.287759
-0.36571
-0.442601
-0.514797
-0.577656
-0.627459
-0.663078
-0.686229
-0.700418
-0.70889
-0.713918
0.0918797
0.0794079
0.0594233
0.025526
-0.024386
-0.0869512
-0.158937
-0.238088
-0.321953
-0.40776
-0.4916
-0.568711
-0.634181
-0.684983
-0.721129
-0.745131
-0.760795
-0.77108
-0.777812
0.0680102
0.0547427
0.0353743
0.00276441
-0.0462855
-0.109405
-0.183646
-0.266759
-0.355528
-0.446042
-0.533285
-0.611645
-0.676339
-0.725335
-0.75976
-0.782742
-0.798218
-0.808719
-0.815701
0.0408882
0.0256182
0.00541845
-0.026996
-0.0754693
-0.138464
-0.213403
-0.297911
-0.388358
-0.480019
-0.567012
-0.643343
-0.704856
-0.750698
-0.782901
-0.80483
-0.820194
-0.830937
-0.83826
0.0115888
-0.00623832
-0.0284192
-0.0619324
-0.110506
-0.173023
-0.247286
-0.330953
-0.420164
-0.509597
-0.592832
-0.664046
-0.720096
-0.761268
-0.790194
-0.810216
-0.824696
-0.83507
-0.842204
-0.0189942
-0.0393804
-0.0640639
-0.0994956
-0.148766
-0.210728
-0.283465
-0.364771
-0.450669
-0.535468
-0.612654
-0.677063
-0.72675
-0.762969
-0.788671
-0.806993
-0.820879
-0.831379
-0.838985
-0.0498496
-0.0725105
-0.0997357
-0.13737
-0.187721
-0.249269
-0.320133
-0.398088
-0.478927
-0.556725
-0.62532
-0.680689
-0.722203
-0.751885
-0.772772
-0.787687
-0.799085
-0.807779
-0.814039
-0.0797596
-0.104232
-0.133667
-0.173253
-0.224611
-0.285677
-0.354364
-0.428232
-0.502829
-0.572333
-0.631477
-0.677672
-0.711449
-0.735241
-0.751886
-0.763759
-0.772767
-0.77962
-0.78446
-0.107594
-0.133336
-0.16443
-0.205337
-0.25717
-0.317339
-0.383475
-0.452866
-0.520937
-0.582288
-0.632796
-0.671191
-0.698801
-0.718156
-0.731766
-0.741597
-0.749151
-0.75512
-0.759454
-0.13256
-0.159081
-0.191272
-0.232794
-0.284426
-0.343129
-0.406211
-0.470623
-0.53175
-0.584866
-0.627131
-0.658444
-0.680633
-0.696118
-0.707032
-0.714954
-0.721033
-0.725911
-0.729424
-0.15415
-0.181055
-0.213844
-0.255327
-0.306065
-0.362657
-0.422125
-0.481153
-0.535315
-0.580809
-0.616053
-0.641813
-0.660108
-0.673078
-0.682437
-0.689403
-0.694838
-0.699297
-0.702535
-0.172239
-0.199276
-0.232289
-0.273236
-0.322533
-0.37651
-0.432022
-0.485655
-0.533396
-0.572422
-0.602178
-0.623951
-0.639722
-0.651305
-0.66005
-0.666882
-0.672471
-0.677249
-0.680854
-0.187078
-0.214171
-0.247228
-0.287388
-0.33493
-0.38593
-0.437122
-0.485144
-0.526619
-0.559772
-0.584887
-0.603509
-0.617416
-0.628055
-0.63643
-0.643216
-0.648926
-0.653843
-0.657564
-0.199002
-0.22624
-0.259336
-0.298682
-0.34438
-0.392245
-0.438993
-0.481525
-0.517293
-0.545504
-0.56702
-0.583418
-0.596178
-0.606381
-0.614724
-0.621661
-0.627582
-0.632651
-0.636477
-0.208407
-0.236038
-0.269369
-0.308118
-0.352158
-0.39704
-0.439582
-0.477126
-0.508
-0.532214
-0.550967
-0.565728
-0.577673
-0.58757
-0.595879
-0.602893
-0.608914
-0.614039
-0.617902
-0.215704
-0.244138
-0.278124
-0.316753
-0.359494
-0.401516
-0.439826
-0.472452
-0.498734
-0.519393
-0.535774
-0.549111
-0.560245
-0.569663
-0.577642
-0.584365
-0.590083
-0.594868
-0.598421
-0.221038
-0.250861
-0.286153
-0.325399
-0.367405
-0.406828
-0.441007
-0.468916
-0.490992
-0.508529
-0.522857
-0.534913
-0.545215
-0.554024
-0.561479
-0.567697
-0.572889
-0.577143
-0.580252
-0.224409
-0.256415
-0.293916
-0.33475
-0.376683
-0.413728