/*--------------------------------*- C++ -*----------------------------------*\
| =========                 |                                                 |
| \\      /  F ield         | OpenFOAM: The Open Source CFD Toolbox           |
|  \\    /   O peration     | Version:  2312                                  |
|   \\  /    A nd           | Website:  www.openfoam.com                      |
|    \\/     M anipulation  |                                                 |
\*---------------------------------------------------------------------------*/
FoamFile
{
    version     2.0;
    format      ascii;
    arch        "LSB;label=32;scalar=64";
    class       surfaceScalarField;
    location    "22.17667554349638";
    object      phi;
}
// * * * * * * * * * * * * * * * * * * * * * * * * * * * * * * * * * * * * * //

dimensions      [0 3 -1 0 0 0 0];

oriented        oriented;

internalField   nonuniform List<scalar> 
41713
(
0.00736473
0.0568817
0.00362743
0.0679837
0.00211578
0.0657581
0.0014836
0.0648786
0.00109798
0.0646321
0.000843942
0.0645005
0.000668953
0.0644214
0.0005421
0.0643733
0.000446775
0.0643418
0.000373324
0.0643199
0.000315622
0.0643041
0.000269616
0.0642924
0.000232539
0.0642835
0.000202452
0.0642765
0.000177958
0.0642709
0.000158036
0.0642664
0.000141918
0.0642626
0.00012902
0.0642593
0.000118879
0.0642566
0.00011111
0.0642542
0.000105348
0.0642522
0.00010123
0.0642506
9.84638e-05
0.0642492
9.66471e-05
0.054813
9.5107e-05
0.0456775
9.36303e-05
0.0380648
9.22271e-05
0.0317208
9.09276e-05
0.0264342
0.0220286
8.97136e-05
0.00999289
0.0468888
0.0084271
0.0695495
0.00571558
0.0684696
0.0041224
0.0664718
0.00312243
0.065632
0.00243193
0.065191
0.0019351
0.0649183
0.00156647
0.0647419
0.00128573
0.0646225
0.00106711
0.0645385
0.000893645
0.0644776
0.000753969
0.0644321
0.000640232
0.0643973
0.00054689
0.0643699
0.000469952
0.0643479
0.000406491
0.0643298
0.000354328
0.0643147
0.000311813
0.0643019
0.000277669
0.0642907
0.000250888
0.064281
0.000230641
0.0642724
0.000216196
0.064265
0.000206818
0.0642586
0.000201907
0.0548179
0.000199395
0.04568
0.000197995
0.0380662
0.000196989
0.0317218
0.000196047
0.0264351
0.0220294
0.000195207
0.00859378
0.038295
0.00970536
0.068438
0.00746853
0.0707064
0.00570082
0.0682395
0.00451396
0.0668189
0.00363039
0.0660745
0.00294989
0.0655988
0.00242084
0.065271
0.00200459
0.0650388
0.00167256
0.0648705
0.00140431
0.0647458
0.00118522
0.0646512
0.00100475
0.0645777
0.00085519
0.0645194
0.000730865
0.0644722
0.000627552
0.0644331
0.00054207
0.0644002
0.000471997
0.0643719
0.000415464
0.0643473
0.000371006
0.0643254
0.000337448
0.064306
0.000313797
0.0642887
0.000299055
0.0642733
0.00029223
0.0548247
0.000289698
0.0456826
0.000289111
0.0380668
0.000289139
0.0317218
0.000289182
0.0264351
0.0220294
0.000289211
0.00677083
0.0315242
0.00946875
0.06574
0.00811551
0.0720597
0.00643816
0.0699169
0.00524976
0.0680073
0.00434718
0.0669771
0.00361897
0.066327
0.00302577
0.0658642
0.00254044
0.0655241
0.00214095
0.06527
0.00181003
0.0650768
0.0015343
0.0649269
0.00130346
0.0648086
0.00110961
0.0647133
0.000946727
0.0646351
0.000810168
0.0645697
0.000696379
0.064514
0.000602613
0.0644657
0.000526732
0.0644231
0.000467056
0.0643851
0.000422242
0.0643508
0.000391159
0.0643197
0.00037258
0.0642919
0.000364962
0.0548323
0.000363214
0.0456843
0.000364031
0.038066
0.000365587
0.0317203
0.000367105
0.0264335
0.022028
0.000368519
0.00505945
0.0264647
0.00855879
0.0622407
0.00817101
0.0724475
0.00673061
0.0713573
0.00557903
0.0691589
0.00470692
0.0678492
0.00399302
0.0670409
0.00339355
0.0664636
0.00288759
0.06603
0.00245919
0.0656984
0.00209543
0.0654405
0.0017858
0.0652366
0.00152186
0.0650725
0.00129683
0.0649383
0.00110534
0.0648266
0.000943145
0.0647319
0.000806889
0.0646502
0.000693947
0.0645786
0.000602254
0.0645148
0.000530175
0.0644572
0.000476396
0.0644046
0.00043979
0.0643563
0.000419017
0.0643127
0.000411901
0.0548395
0.000411991
0.0456842
0.000415117
0.0380628
0.000419017
0.0317164
0.000422752
0.0264298
0.0220245
0.000426208
0.00361122
0.0228535
0.0072949
0.058557
0.00776503
0.0719773
0.00671002
0.0724123
0.00565404
0.0702148
0.00483332
0.06867
0.00415722
0.067717
0.00357759
0.0670433
0.00307656
0.0665311
0.00264261
0.0661324
0.00226625
0.0658169
0.00193967
0.0655631
0.00165643
0.0653557
0.00141128
0.0651834
0.00119995
0.0650379
0.001019
0.0649128
0.00086565
0.0648036
0.000737727
0.0647066
0.000633503
0.0646191
0.000551618
0.0645391
0.000490981
0.0644652
0.000450625
0.0643967
0.000429255
0.064334
0.000423979
0.0548447
0.000427055
0.0456811
0.000433512
0.0380564
0.000440684
0.0317092
0.000447474
0.026423
0.0220183
0.000453715
0.0025142
0.0203393
0.00599657
0.0550746
0.00707081
0.0709031
0.0064449
0.0730382
0.00553902
0.0711207
0.00478924
0.0694197
0.00416527
0.0683409
0.00362037
0.0675882
0.00313869
0.0670128
0.00271264
0.0665584
0.00233597
0.0661935
0.00200333
0.0658958
0.0017102
0.0656489
0.00145284
0.0654408
0.00122817
0.0652626
0.00103368
0.0651073
0.000867394
0.0649699
0.000727732
0.0648462
0.000613498
0.0647333
0.000523778
0.0646288
0.000457866
0.0645311
0.000415109
0.0644395
0.000394394
0.0643548
0.000392059
0.0548471
0.000399124
0.0456741
0.00040986
0.0380456
0.000421218
0.0316978
0.000431939
0.0264123
0.0220085
0.000441783
0.00174824
0.0185911
0.0048596
0.0519633
0.00628287
0.0694798
0.00603756
0.0732835
0.00529953
0.0718588
0.00462562
0.0700936
0.00405671
0.0689099
0.00355287
0.068092
0.00309822
0.0674674
0.00268775
0.0669689
0.00231801
0.0665633
0.00198589
0.0662279
0.0016887
0.0659461
0.00142412
0.0657054
0.00119026
0.0654964
0.000985607
0.065312
0.000808991
0.0651465
0.000659568
0.0649956
0.000536764
0.0648561
0.000440237
0.0647253
0.000369799
0.0646016
0.000325251
0.064484
0.000305791
0.0643742
0.000307028
0.0548458
0.000318785
0.0456623
0.000334585
0.0380298
0.000350998
0.0316814
0.00036656
0.0263967
0.0219941
0.000380889
0.00123559
0.0173555
0.00393241
0.0492665
0.00551568
0.0678965
0.00557205
0.0732271
0.00499611
0.0724347
0.00439235
0.0706974
0.00387087
0.0694313
0.00340505
0.0685578
0.00297799
0.0678945
0.00258536
0.0673615
0.00222547
0.0669232
0.00189693
0.0665564
0.00159851
0.0662445
0.00132919
0.0659747
0.00108816
0.0657375
0.000874842
0.0655253
0.000688912
0.0653324
0.000530277
0.0651543
0.000399066
0.0649873
0.000295601
0.0648288
0.000220317
0.0646769
0.000173645
0.0645307
0.00015516
0.0643927
0.000159903
0.0548411
0.000176548
0.0456457
0.000197822
0.0380086
0.000219837
0.0316594
0.000241003
0.0263756
0.0219745
0.00026066
0.000899191
0.0164563
0.00319614
0.0469695
0.00481297
0.0662797
0.00509258
0.0729475
0.00466411
0.0728632
0.00412356
0.071238
0.00363919
0.0699157
0.00320339
0.0689936
0.0027994
0.0682985
0.00242243
0.0677385
0.00207156
0.067274
0.0017465
0.0668815
0.00144706
0.0665439
0.00117318
0.0662486
0.00092498
0.0659857
0.000702723
0.0657476
0.000506876
0.0655283
0.000338123
0.065323
0.00019732
0.0651281
8.54808e-05
0.0649406
3.77146e-06
0.0647586
-4.68911e-05
0.0645813
-6.60223e-05
0.0644118
-5.87947e-05
0.0548339
-3.77123e-05
0.0456246
-1.09225e-05
0.0379818
1.70076e-05
0.0316315
4.3796e-05
0.0263488
0.0219493
6.89728e-05
0.000679336
0.015777
0.00261761
0.0450312
0.00418766
0.0647097
0.00462082
0.0725144
0.00432031
0.0731637
0.00383696
0.0717213
0.00338095
0.0703717
0.00296657
0.069408
0.00257924
0.0686858
0.00221342
0.0681043
0.00186838
0.0676191
0.00154441
0.0672055
0.001242
0.0668463
0.000961832
0.0665288
0.000704696
0.0662428
0.000471589
0.0659807
0.000263687
0.0657362
8.23076e-05
0.0655044
-7.10434e-05
0.0652815
-0.000194591
0.0650642
-0.000286353
0.0648503
-0.000344292
0.0646393
-0.000367348
0.0644349
-0.000360227
0.0548267
-0.000336602
0.045601
-0.000305557
0.0379507
-0.000272169
0.0315981
-0.000239017
0.0263156
0.0219178
-0.000207564
0.000532507
0.0152445
0.00216283
0.0434009
0.00363968
0.0632328
0.00416901
0.071985
0.00397444
0.0733582
0.00354213
0.0721536
0.00310753
0.0708063
0.00270682
0.0698087
0.00232954
0.0690631
0.00196958
0.0684643
0.00162603
0.0679626
0.00129944
0.0675321
0.000990745
0.067155
0.000701094
0.0668184
0.000431844
0.066512
0.000184503
0.066228
-3.92621e-05
0.0659599
-0.000237519
0.0657027
-0.000407976
0.0654519
-0.000548003
0.0652042
-0.000654746
0.0649571
-0.000725341
0.0647099
-0.000757763
0.0644673
-0.000755187
0.0548242
-0.000732154
0.0455779
-0.000698733
0.0379173
-0.000660895
0.0315602
-0.000621979
0.0262767
0.0218798
-0.000583909
0.000429541
0.0148149
0.00180167
0.0420288
0.00316237
0.0618721
0.00374379
0.0714036
0.0036333
0.0734687
0.00324544
0.0725415
0.00282664
0.0712251
0.00243287
0.0702025
0.00205934
0.0694366
0.00169982
0.0688238
0.00135299
0.0683095
0.00101942
0.0678656
0.000700274
0.0674742
0.000397014
0.0671217
0.00011127
0.0667978
-0.000155122
0.0664944
-0.000399984
0.0662048
-0.000620695
0.0659234
-0.000814232
0.0656454
-0.000977226
0.0653672
-0.00110601
0.0650859
-0.0011969
0.0648008
-0.00124702
0.0645174
-0.00125659
0.0548337
-0.00124055
0.0455619
-0.00120972
0.0378865
-0.00117089
0.0315214
-0.00112836
0.0262342
0.0218365
-0.00108512
0.000352825
0.0144621
0.00151036
0.0408712
0.00274664
0.0606358
0.00334775
0.0708025
0.00330148
0.073515
0.00295154
0.0728914
0.00254409
0.0716326
0.00215172
0.0705949
0.00177629
0.069812
0.001412
0.0691881
0.00105706
0.0686644
0.000711885
0.0682108
0.000377664
0.0678084
5.58452e-05
0.0674435
-0.000251796
0.0671054
-0.000543095
0.0667857
-0.000815348
0.0664771
-0.00106539
0.0661734
-0.00128958
0.0658696
-0.00148385
0.0655615
-0.00164381
0.0652458
-0.00176515
0.0649221
-0.00184458
0.0645969
-0.00187786
0.054867
-0.00187948
0.0455635
-0.00186026
0.0378673
-0.00182742
0.0314886
-0.0017863
0.0261931
0.0217915
-0.00174126
0.000292253
0.0141698
0.00127307
0.0398904
0.00238641
0.0595225
0.00298334
0.0702056
0.00298271
0.0735156
0.0026636
0.0732105
0.00226379
0.0720324
0.00186846
0.0709902
0.00148632
0.0701942
0.00111256
0.0695619
0.000744954
0.069032
0.000383603
0.0685722
2.9411e-05
0.0681626
-0.000316232
0.0677891
-0.00065152
0.0674407
-0.00097396
0.0671081
-0.00128053
0.0667836
-0.00156764
0.0664605
-0.00183108
0.0661331
-0.00206607
0.0657965
-0.0022676
0.0654474
-0.00243112
0.0650856
-0.00255399
0.0647197
-0.0026269
0.0549399
-0.00266352
0.0456001
-0.00267316
0.0378769
-0.00266134
0.0314768
-0.00263292
0.0261646
0.0217521
-0.00259351
0.000209102
0.0139607
0.000920094
0.0391794
0.00176756
0.058675
0.00225623
0.0697169
0.00228024
0.0734916
0.00203042
0.0734603
0.00169721
0.0723656
0.00135947
0.0713279
0.00102956
0.0705241
0.000704349
0.0698871
0.000381655
0.0693547
6.11183e-05
0.0688927
-0.000256823
0.0684805
-0.000571234
0.0681035
-0.000880543
0.06775
-0.00118271
0.0674103
-0.00147512
0.067076
-0.0017545
0.0667399
-0.00201689
0.0663955
-0.00225762
0.0660372
-0.00247162
0.0656614
-0.00265446
0.0652685
-0.00280442
0.0648697
-0.00290961
0.0550451
-0.00298323
0.0456737
-0.00303285
0.0379265
-0.00306009
0.031504
-0.0030651
0.0261696
0.0217386
-0.0030516
0.000152878
0.0138079
0.000675633
0.0386567
0.00132186
0.0580288
0.00171512
0.0693236
0.00174753
0.0734592
0.00155022
0.0736577
0.00127412
0.0726417
0.000988722
0.0716133
0.000707458
0.0708053
0.000428319
0.0701662
0.00014919
0.0696338
-0.000130687
0.0691726
-0.000411215
0.0687611
-0.00069178
0.0683841
-0.000971347
0.0680296
-0.00124843
0.0676874
-0.00152102
0.0673486
-0.00178642
0.0670053
-0.00204122
0.0666503
-0.00228115
0.0662771
-0.00250119
0.0658814
-0.00269651
0.0654638
-0.0028645
0.0650377
-0.00299003
0.0551707
-0.00308847
0.0457722
-0.00317177
0.0380098
-0.00324485
0.0315771
-0.00330546
0.0262303
0.0217734
-0.00334026
0.000115771
0.0136921
0.000508471
0.038264
0.00100751
0.0575298
0.00132366
0.0690075
0.00135698
0.0734259
0.00119931
0.0738153
0.000970479
0.0728705
0.000730154
0.0718537
0.000491429
0.0710441
0.000253027
0.0704046
1.29504e-05
0.0698739
-0.00022963
0.0694152
-0.000474932
0.0690064
-0.000722705
0.0686319
-0.000972374
0.0682793
-0.00122301
0.067938
-0.00147324
0.0675988
-0.00172109
0.0672532
-0.00196389
0.0668931
-0.00219809
0.0665113
-0.00241916
0.0661025
-0.002622
0.0656666
-0.00280175
0.0652174
-0.00293618
0.0553051
-0.00303852
0.0458745
-0.00312608
0.0380974
-0.00321315
0.0316641
-0.00331736
0.0263345
0.0219053
-0.00344931
8.6971e-05
0.0136051
0.000389889
0.0379611
0.000783811
0.0571358
0.00104028
0.068751
0.00106978
0.0733964
0.00094024
0.0739449
0.000749214
0.0730615
0.000547245
0.0720556
0.000345608
0.0712457
0.000143095
0.0706071
-6.2148e-05
0.0700792
-0.00027099
0.069624
-0.000483739
0.0692191
-0.000700446
0.0688486
-0.000920932
0.0684998
-0.00114476
0.0681619
-0.00137114
0.0678252
-0.00159884
0.0674809
-0.00182602
0.0671202
-0.00205012
0.0667354
-0.00226781
0.0663202
-0.00247514
0.0658739
-0.00266703
0.0654093
-0.00281374
0.0554518
-0.00291709
0.0459779
-0.00298482
0.0381651
-0.00302727
0.0317066
-0.0030625
0.0263697
-0.00322597
0.0220688
0.000134542
0.0219825
0.000176843
0.0219851
0.000210198
0.021994
0.000241201
0.0219964
0.000266381
0.0220022
0.000287024
0.0220067
0.000304628
0.0220098
0.000315911
0.0220161
0.000325178
0.0220181
0.000329419
0.0220231
0.000330583
0.0220262
0.000329212
0.0220287
0.000323389
0.0220332
0.000315952
0.0220348
0.000305256
0.0220381
0.000292243
0.0220404
0.00027788
0.0220417
0.00026053
0.0220447
0.000242101
0.0220458
0.000222417
0.022047
0.000201158
0.0220486
0.000179266
0.0220492
0.00015669
0.0220499
0.00013359
0.0220505
0.000110364
0.0220506
8.71792e-05
0.0220505
6.44245e-05
0.0220501
4.20933e-05
0.0220497
2.05078e-05
0.0220489
3.09562e-07
0.0220476
-1.90039e-05
0.0220467
-3.65996e-05
0.022045
-5.21739e-05
0.0220429
-6.64951e-05
0.0220417
-7.75185e-05
0.0220384
-8.6572e-05
0.0220364
-9.33479e-05
0.0220341
-9.59475e-05
0.02203
-9.67682e-05
0.0220282
-9.29136e-05
0.0220235
-8.59014e-05
0.0220203
-7.57662e-05
0.0220172
-5.98276e-05
0.0220114
-4.17309e-05
0.0220093
-1.69119e-05
0.0220025
1.13505e-05
0.0219991
4.44239e-05
0.0219943
8.38586e-05
0.0219879
0.0219854
0.000125796
0.000240287
0.0219374
0.00028305
0.0219423
0.000317089
0.02196
0.000348999
0.0219644
0.000375322
0.0219759
0.000397338
0.0219847
0.000416532
0.0219906
0.000429624
0.022003
0.000440888
0.0220068
0.000447317
0.0220167
0.000450839
0.0220227
0.000451978
0.0220276
0.00044882
0.0220363
0.00044417
0.0220394
0.000436383
0.0220458
0.000426382
0.0220504
0.000415113
0.022053
0.000400946
0.0220589
0.000385753
0.022061
0.000369353
0.0220634
0.00035142
0.0220665
0.000332869
0.0220678
0.000313641
0.0220692
0.000293892
0.0220702
0.00027399
0.0220705
0.000254097
0.0220704
0.000234597
0.0220696
0.000215455
0.0220688
0.000196987
0.0220674
0.000179833
0.0220647
0.000163459
0.022063
0.000148698
0.0220597
0.000135838
0.0220558
0.000124082
0.0220534
0.000115487
0.022047
0.00010869
0.0220432
0.000103989
0.0220388
0.000103286
0.0220307
0.000104145
0.0220273
0.000109475
0.0220182
0.000117732
0.0220121
0.000128866
0.0220061
0.000145564
0.0219947
0.000164141
0.0219907
0.000189179
0.0219775
0.000217358
0.0219709
0.000250033
0.0219616
0.000288735
0.0219492
0.0219446
0.000329573
0.000334966
0.0218917
0.000378603
0.0218987
0.000413765
0.0219248
0.000447034
0.0219312
0.000474959
0.0219479
0.000498807
0.0219608
0.000520048
0.0219693
0.000535401
0.0219876
0.000549115
0.0219931
0.000558181
0.0220076
0.000564508
0.0220163
0.000568603
0.0220235
0.000568554
0.0220364
0.000567132
0.0220409
0.000562695
0.0220503
0.000556146
0.0220569
0.000548407
0.0220607
0.000537859
0.0220694
0.000526339
0.0220725
0.000513653
0.0220761
0.000499477
0.0220807
0.000484693
0.0220826
0.000469236
0.0220846
0.000453255
0.0220862
0.000437093
0.0220866
0.000420899
0.0220866
0.000405058
0.0220855
0.000389502
0.0220844
0.000374541
0.0220824
0.000360811
0.0220784
0.000347746
0.0220761
0.000336179
0.0220713
0.000326385
0.0220656
0.000317539
0.0220623
0.00031171
0.0220528
0.000307502
0.0220474
0.000305199
0.0220411
0.000306711
0.0220291
0.000309562
0.0220245
0.000316674
0.0220111
0.000326471
0.0220023
0.000338892
0.0219937
0.000356631
0.021977
0.000375957
0.0219714
0.000401472
0.021952
0.000429818
0.0219426
0.000462343
0.0219291
0.000500566
0.021911
0.0219046
0.00054055
0.000415616
0.0218446
0.000460775
0.0218535
0.00049769
0.0218879
0.000532945
0.0218959
0.000563101
0.0219178
0.000589418
0.0219345
0.000613352
0.0219454
0.000631624
0.0219694
0.000648453
0.0219763
0.000660832
0.0219952
0.000670648
0.0220065
0.000678391
0.0220157
0.000682146
0.0220326
0.000684657
0.0220384
0.000684277
0.0220507
0.00068189
0.0220593
0.000678396
0.0220642
0.000672181
0.0220756
0.000665046
0.0220796
0.000656789
0.0220844
0.00064708
0.0220904
0.000636771
0.0220929
0.000625789
0.0220956
0.000614275
0.0220977
0.000602543
0.0220984
0.000590733
0.0220984
0.000579226
0.022097
0.000567922
0.0220957
0.000557124
0.0220932
0.000547462
0.0220881
0.00053834
0.0220852
0.000530589
0.022079
0.000524471
0.0220717
0.000519131
0.0220676
0.000516652
0.0220553
0.000515602
0.0220485
0.000516255
0.0220405
0.000520528
0.0220249
0.000525902
0.0220191
0.000535316
0.0220016
0.000547166
0.0219904
0.000561376
0.0219795
0.000580648
0.0219577
0.000601211
0.0219508
0.000627688
0.0219255
0.000656679
0.0219136
0.000689527
0.0218962
0.000727749
0.0218728
0.021865
0.000767357
0.000475514
0.0217953
0.00052306
0.0218059
0.000562586
0.0218484
0.00060069
0.0218578
0.000633943
0.0218845
0.000663604
0.0219049
0.000691117
0.0219179
0.000713202
0.0219473
0.000734056
0.0219554
0.000750666
0.0219786
0.0007649
0.0219923
0.000777233
0.0220034
0.000785743
0.0220241
0.000793146
0.0220309
0.00079779
0.022046
0.000800539
0.0220566
0.000802269
0.0220625
0.000801368
0.0220765
0.000799605
0.0220814
0.000796762
0.0220872
0.000792505
0.0220947
0.000787656
0.0220977
0.000782129
0.0221011
0.000776056
0.0221038
0.000769724
0.0221047
0.000763259
0.0221049
0.000757036
0.0221032
0.000750927
0.0221018
0.00074522
0.0220989
0.000740543
0.0220928
0.000736266
0.0220895
0.000733218
0.0220821
0.000731647
0.0220733
0.000730669
0.0220686
0.000732378
0.0220536
0.000735308
0.0220455
0.000739723
0.0220361
0.000747545
0.0220171
0.000756215
0.0220104
0.000768689
0.0219892
0.000783334
0.0219758
0.000800062
0.0219627
0.000821589
0.0219362
0.000844098
0.0219283
0.00087224
0.0218974
0.000902578
0.0218832
0.000936453
0.0218624
0.000975379
0.0218338
0.021825
0.00101532
0.000506276
0.0217427
0.000557273
0.021755
0.000600475
0.0218052
0.000642509
0.0218158
0.000679952
0.0218471
0.000714065
0.0218708
0.000746288
0.0218856
0.000773333
0.0219202
0.000799381
0.0219294
0.00082141
0.0219566
0.00084127
0.0219724
0.000859418
0.0219853
0.000873924
0.0220096
0.000887477
0.0220174
0.000898413
0.0220351
0.000907579
0.0220474
0.000915828
0.0220542
0.000921539
0.0220708
0.000926453
0.0220765
0.000930335
0.0220833
0.00093284
0.0220922
0.000934761
0.0220958
0.000935997
0.0220999
0.000936668
0.0221031
0.000937031
0.0221043
0.000937198
0.0221047
0.000937535
0.0221028
0.00093788
0.0221015
0.000938511
0.0220982
0.000940048
0.0220912
0.000941826
0.0220877
0.00094467
0.0220792
0.000948814
0.0220691
0.00095334
0.0220641
0.000960358
0.0220466
0.000968364
0.0220375
0.00097761
0.0220268
0.000990027
0.0220046
0.00100301
0.0219974
0.00101954
0.0219726
0.00103796
0.0219574
0.00105815
0.0219425
0.00108286
0.0219115
0.00110822
0.0219029
0.00113892
0.0218667
0.00117147
0.0218507
0.00120723
0.0218266
0.0012477
0.0217934
0.021784
0.00128879
0.000498823
0.0216857
0.00055453
0.0216992
0.00060269
0.021757
0.000649963
0.0217685
0.000692933
0.0218041
0.000732866
0.0218308
0.000771197
0.0218473
0.000804629
0.0218868
0.000837334
0.0218967
0.000866273
0.0219277
0.00089328
0.0219454
0.000918797
0.0219598
0.000940872
0.0219875
0.000962178
0.0219961
0.000981031
0.0220162
0.000998258
0.0220302
0.00101469
0.0220378
0.00102868
0.0220568
0.00104196
0.0220632
0.00105426
0.022071
0.00106523
0.0220812
0.00107563
0.0220854
0.00108533
0.0220902
0.00109444
0.022094
0.00110319
0.0220956
0.00111167
0.0220963
0.00112023
0.0220943
0.00112867
0.022093
0.00113727
0.0220897
0.00114662
0.0220819
0.00115603
0.0220783
0.00116631
0.022069
0.00117768
0.0220578
0.00118919
0.0220526
0.00120296
0.0220328
0.00121744
0.022023
0.00123288
0.0220114
0.00125122
0.0219863
0.0012698
0.0219789
0.00129163
0.0219508
0.001315
0.021934
0.00133982
0.0219177
0.00136883
0.0218825
0.00139811
0.0218736
0.00143241
0.0218324
0.00146818
0.0218149
0.00150679
0.021788
0.00154973
0.0217504
0.0217408
0.00159287
0.00044379
0.0216228
0.000505626
0.0216374
0.000560204
0.0217024
0.000614238
0.0217145
0.000664307
0.021754
0.000711683
0.0217834
0.000757804
0.0218012
0.000799349
0.0218452
0.000840494
0.0218555
0.000878172
0.02189
0.000914205
0.0219094
0.000949014
0.0219249
0.000980623
0.0219559
0.00101169
0.021965
0.0010405
0.0219874
0.00106786
0.0220028
0.00109457
0.0220111
0.00111898
0.0220324
0.00114277
0.0220394
0.00116566
0.0220482
0.00118726
0.0220596
0.00120831
0.0220644
0.00122866
0.0220698
0.00124839
0.0220743
0.0012677
0.0220763
0.00128665
0.0220773
0.00130557
0.0220754
0.00132423
0.0220743
0.00134288
0.022071
0.0013621
0.0220627
0.00138115
0.0220593
0.00140084
0.0220493
0.00142136
0.0220372
0.00144172
0.0220322
0.00146406
0.0220105
0.00148678
0.0220003
0.00151011
0.021988
0.001536
0.0219604
0.00156175
0.0219531
0.00159038
0.0219222
0.00162016
0.0219042
0.00165097
0.0218869
0.00168559
0.0218478
0.00172005
0.0218392
0.00175912
0.0217933
0.00179924
0.0217748
0.00184175
0.0217455
0.00188818
0.021704
0.0216947
0.0019343
0.000330925
0.0215525
0.000400532
0.0215678
0.000463246
0.0216397
0.000525813
0.0216519
0.000584796
0.0216951
0.00064151
0.0217267
0.000697409
0.0217453
0.00074913
0.0217935
0.000800863
0.0218038
0.000849498
0.0218414
0.000896851
0.021862
0.000943317
0.0218785
0.000986885
0.0219124
0.0010302
0.0219217
0.00107151
0.0219461
0.0011116
0.0219627
0.00115124
0.0219715
0.00118874
0.0219949
0.00122576
0.0220024
0.00126198
0.0220119
0.00129698
0.0220246
0.00133147
0.0220299
0.00136526
0.022036
0.0013984
0.0220411
0.00143105
0.0220437
0.00146323
0.0220451
0.00149526
0.0220433
0.00152685
0.0220427
0.00155821
0.0220396
0.00158992
0.022031
0.00162117
0.022028
0.00165277
0.0220177
0.00168487
0.0220051
0.00171643
0.0220006
0.0017496
0.0219773
0.00178274
0.0219672
0.00181605
0.0219547
0.00185149
0.021925
0.00188629
0.0219183
0.00192352
0.021885
0.00196139
0.0218663
0.00199979
0.0218485
0.00204151
0.0218061
0.00208252
0.0217982
0.00212766
0.0217482
0.00217331
0.0217291
0.00222082
0.021698
0.00227175
0.0216531
0.0216447
0.00232177
0.000148122
0.0214734
0.000227397
0.0214885
0.000300115
0.021567
0.000373152
0.0215789
0.000443283
0.0216249
0.000511686
0.0216583
0.000579774
0.0216772
0.000644139
0.0217292
0.000709039
0.0217389
0.000771319
0.0217791
0.000832787
0.0218006
0.000893813
0.0218174
0.000952334
0.0218538
0.00101099
0.0218631
0.00106798
0.0218891
0.00112406
0.0219066
0.00117996
0.0219156
0.00123395
0.0219409
0.00128766
0.0219487
0.00134071
0.0219589
0.00139267
0.0219727
0.00144416
0.0219784
0.00149498
0.0219852
0.00154512
0.021991
0.00159469
0.0219941
0.00164366
0.0219961
0.00169232
0.0219947
0.00174032
0.0219947
0.00178783
0.0219921
0.00183538
0.0219834
0.00188211
0.0219813
0.00192879
0.021971
0.00197555
0.0219584
0.00202127
0.0219549
0.00206812
0.0219304
0.00211438
0.0219209
0.00216023
0.0219089
0.00220763
0.0218776
0.00225376
0.0218722
0.0023017
0.021837
0.00234964
0.0218184
0.00239742
0.0218007
0.0024479
0.0217556
0.00249695
0.0217491
0.00254952
0.0216956
0.0026019
0.0216768
0.00265548
0.0216444
0.00271182
0.0215967
0.02159
0.00276652
-0.000118578
0.0213844
-2.888e-05
0.0213988
5.57621e-05
0.0214823
0.000142162
0.0214925
0.000226204
0.0215409
0.000309197
0.0215753
0.000392123
0.0215943
0.000472127
0.0216492
0.0005534
0.0216576
0.000632654
0.0216998
0.0007117
0.0217215
0.000790892
0.0217383
0.000868095
0.0217766
0.000945965
0.0217852
0.00102263
0.0218124
0.00109882
0.0218305
0.00117523
0.0218391
0.00125004
0.0218661
0.00132486
0.0218739
0.00139926
0.0218845
0.00147273
0.0218992
0.00154585
0.0219053
0.00161834
0.0219127
0.00169014
0.0219192
0.00176128
0.0219229
0.00183168
0.0219257
0.00190156
0.0219248
0.0019705
0.0219258
0.00203859
0.0219241
0.00210632
0.0219157
0.00217275
0.0219149
0.0022386
0.0219051
0.00230394
0.021893
0.00236757
0.0218913
0.00243166
0.0218663
0.00249441
0.0218582
0.00255595
0.0218474
0.00261827
0.0218152
0.00267843
0.021812
0.00273957
0.0217759
0.00279981
0.0217582
0.00285897
0.0217416
0.00291999
0.0216946
0.00297864
0.0216905
0.00303996
0.0216343
0.00310018
0.0216165
0.00316072
0.0215838
0.00322317
0.0215343
0.0215301
0.00328304
-0.000482219
0.0212827
-0.000378661
0.0212953
-0.000280217
0.0213839
-0.000179855
0.0213921
-8.09051e-05
0.0214419
1.8003e-05
0.0214764
0.000119374
0.0214929
0.000218514
0.02155
0.000319723
0.0215564
0.000419716
0.0215998
0.000520375
0.0216209
0.000622054
0.0216366
0.000722535
0.0216762
0.000824485
0.0216832
0.000925901
0.021711
0.00102746
0.0217289
0.00112981
0.0217368
0.00123105
0.0217649
0.00133273
0.0217722
0.00143434
0.0217829
0.00153528
0.0217983
0.00163606
0.0218045
0.00173631
0.0218125
0.0018359
0.0218196
0.00193474
0.0218241
0.00203267
0.0218278
0.00212982
0.0218276
0.00222564
0.02183
0.00232016
0.0218295
0.00241379
0.021822
0.00250544
0.0218232
0.00259577
0.0218148
0.00268478
0.021804
0.00277115
0.0218049
0.00285704
0.0217804
0.00294052
0.0217747
0.00302167
0.0217662
0.0031025
0.0217344
0.00317992
0.0217346
0.00325715
0.0216986
0.00333222
0.0216831
0.00340495
0.0216688
0.00347834
0.0216212
0.00354805
0.0216208
0.00361928
0.021563
0.00368817
0.0215477
0.0037562
0.0215158
0.00382502
0.0214655
0.0214651
0.00389002
-0.000970345
0.0211679
-0.000852098
0.021177
-0.000737222
0.021269
-0.000618483
0.0212734
-0.000499709
0.0213232
-0.000379589
0.0213563
-0.000257203
0.0213705
-0.000135727
0.0214285
-1.0633e-05
0.0214313
0.000114577
0.0214746
0.000241649
0.0214938
0.000370854
0.0215074
0.000500435
0.0215466
0.000632516
0.0215512
0.000765067
0.0215785
0.000898742
0.0215952
0.00103408
0.0216014
0.00116901
0.0216299
0.00130505
0.0216362
0.00144154
0.0216464
0.0015778
0.021662
0.00171422
0.0216681
0.00185031
0.0216764
0.00198581
0.0216841
0.00212051
0.0216894
0.00225409
0.0216942
0.00238659
0.0216951
0.00251728
0.0216993
0.00264603
0.0217008
0.00277316
0.0216949
0.00289737
0.021699
0.00301924
0.0216929
0.00313864
0.0216846
0.00325404
0.0216895
0.00336762
0.0216669
0.00347726
0.0216651
0.00358294
0.0216605
0.00368671
0.0216307
0.00378526
0.0216361
0.00388193
0.021602
0.00397464
0.0215904
0.00406317
0.0215803
0.00415067
0.0215337
0.00423264
0.0215388
0.00431452
0.0214811
0.00439234
0.0214698
0.00446768
0.0214405
0.00454232
0.0213908
0.0213959
0.00461152
-0.00161344
0.0210401
-0.00147987
0.0210435
-0.0013478
0.021137
-0.00120971
0.0211353
-0.00106949
0.0211829
-0.000925693
0.0212125
-0.000776735
0.0212216
-0.000626586
0.0212784
-0.00047072
0.0212755
-0.000312882
0.0213168
-0.000151218
0.0213321
1.43841e-05
0.0213418
0.000180183
0.0213808
0.000349932
0.0213814
0.000521877
0.0214065
0.000696368
0.0214207
0.000873765
0.0214241
0.00105188
0.0214518
0.00123207
0.021456
0.00141355
0.0214649
0.00159547
0.0214801
0.00177812
0.0214854
0.00196081
0.0214937
0.00214317
0.0215017
0.00232474
0.0215078
0.00250504
0.0215139
0.0026839
0.0215163
0.00286033
0.0215229
0.003034
0.0215271
0.00320505
0.0215239
0.00337187
0.0215322
0.00353487
0.0215299
0.00369373
0.0215258
0.00384664
0.0215366
0.00399575
0.0215178
0.00413866
0.0215221
0.00427521
0.021524
0.00440747
0.0214984
0.00453186
0.0215117
0.00465184
0.021482
0.00476517
0.0214771
0.00487163
0.0214739
0.00497454
0.0214308
0.00506921
0.0214441
0.00516146
0.0213889
0.00524721
0.0213841
0.00532823
0.0213595
0.00540651
0.0213125
0.0213252
0.00547719
-0.00245512
0.0209017
-0.00230731
0.0208956
-0.00215815
0.0209878
-0.00199953
0.0209766
-0.00183526
0.0210187
-0.00166363
0.0210409
-0.00148307
0.021041
-0.00129778
0.0210931
-0.00110336
0.021081
-0.000904067
0.0211175
-0.000698481
0.0211265
-0.000486818
0.0211301
-0.000271366
0.0211653
-5.02489e-05
0.0211603
0.000172966
0.0211833
0.000399278
0.0211944
0.00063135
0.021192
0.000865227
0.021218
0.00110247
0.0212187
0.00134228
0.0212251
0.0015837
0.0212387
0.0018268
0.0212423
0.00207074
0.0212498
0.00231493
0.0212576
0.00255861
0.0212641
0.002801
0.0212715
0.00304167
0.0212756
0.00327918
0.0212854
0.00351285
0.0212934
0.00374252
0.0212942
0.00396607
0.0213086
0.00418365
0.0213123
0.0043946
0.0213148
0.00459667
0.0213345
0.00479196
0.0213225
0.00497762
0.0213365
0.00515332
0.0213483
0.00532112
0.0213306
0.00547706
0.0213557
0.00562475
0.0213343
0.00576176
0.02134
0.00588782
0.0213478
0.00600652
0.0213121
0.00611295
0.0213377
0.00621346
0.0212884
0.00630393
0.0212936
0.00638653
0.0212769
0.00646361
0.0212355
0.0212586
0.0065302
-0.0029374
0.0207875
-0.00281214
0.0207704
-0.00268084
0.0208565
-0.00253412
0.0208299
-0.00237494
0.0208595
-0.00220235
0.0208683
-0.00201607
0.0208547
-0.00182108
0.0208981
-0.00161467
0.0208746
-0.00140148
0.0209043
-0.00118092
0.020906
-0.000953677
0.0209029
-0.000722596
0.0209342
-0.000485516
0.0209232
-0.000243973
0.0209418
2.13138e-06
0.0209483
0.000249401
0.0209447
0.0005004
0.020967
0.000756226
0.0209629
0.00101587
0.0209654
0.00127852
0.020976
0.00154413
0.0209767
0.00181185
0.020982
0.00208096
0.0209884
0.00235047
0.0209946
0.00261934
0.0210027
0.00288682
0.0210081
0.00315112
0.0210211
0.00341116
0.0210334
0.00366636
0.021039
0.00391428
0.0210607
0.00415467
0.021072
0.0043865
0.021083
0.00460733
0.0211137
0.00481888
0.0211109
0.00501826
0.0211371
0.00520499
0.0211615
0.00538087
0.0211547
0.00554215
0.0211945
0.00569212
0.0211843
0.00582849
0.0212037
0.00595095
0.0212253
0.00606275
0.0212003
0.00615936
0.0212411
0.00624654
0.0212012
0.0063207
0.0212195
0.00638414
0.0212134
0.00643964
0.02118
0.0212148
0.00648349
-0.00324891
0.0206962
-0.00315603
0.0206775
-0.00305343
0.0207539
-0.00292469
0.0207012
-0.00277198
0.0207068
-0.00259727
0.0206936
-0.00240385
0.0206613
-0.00219909
0.0206934
-0.00198271
0.0206582
-0.00176008
0.0206817
-0.00153135
0.0206773
-0.00129738
0.0206689
-0.00106059
0.0206974
-0.000819169
0.0206818
-0.000574876
0.0206975
-0.000326867
0.0207003
-7.27478e-05
0.0206906
0.000183162
0.020711
0.000444167