/*--------------------------------*- C++ -*----------------------------------*\
| =========                 |                                                 |
| \\      /  F ield         | OpenFOAM: The Open Source CFD Toolbox           |
|  \\    /   O peration     | Version:  2312                                  |
|   \\  /    A nd           | Website:  www.openfoam.com                      |
|    \\/     M anipulation  |                                                 |
\*---------------------------------------------------------------------------*/
FoamFile
{
    version     2.0;
    format      ascii;
    arch        "LSB;label=32;scalar=64";
    class       volVectorField;
    location    "72.833519460126396";
    object      U;
}
// * * * * * * * * * * * * * * * * * * * * * * * * * * * * * * * * * * * * * //

dimensions      [0 1 -1 0 0 0 0];

internalField   nonuniform List<vector> 
21039
(
(0.913744 0.0474249 0)
(1.02607 0.0665085 0)
(1.00449 0.0295441 0)
(1.00176 0.0189457 0)
(1.0012 0.0139492 0)
(1.00079 0.0105814 0)
(1.00055 0.00826763 0)
(1.0004 0.00663809 0)
(1.0003 0.00544192 0)
(1.00023 0.00453525 0)
(1.00018 0.00383261 0)
(1.00014 0.00327901 0)
(1.00011 0.00283743 0)
(1.00009 0.00248229 0)
(1.00007 0.00219543 0)
(1.00006 0.00196368 0)
(1.00004 0.00177729 0)
(1.00003 0.00162887 0)
(1.00002 0.00151268 0)
(1.00002 0.00142402 0)
(1.00001 0.0013589 0)
(1.00001 0.00131517 0)
(1 0.00129419 0)
(1 0.00127588 0)
(1 0.00126335 0)
(1 0.00125382 0)
(1.00001 0.00124332 0)
(1.00001 0.00122241 0)
(1.00001 0.00117064 0)
(0.794484 0.0730682 0)
(1.07449 0.121753 0)
(1.03986 0.0709648 0)
(1.01807 0.0498407 0)
(1.01125 0.0384563 0)
(1.0076 0.0297076 0)
(1.00535 0.0234445 0)
(1.00392 0.0189046 0)
(1.00296 0.0154872 0)
(1.00229 0.012851 0)
(1.0018 0.0107794 0)
(1.00144 0.00912572 0)
(1.00116 0.00778917 0)
(1.00094 0.00669928 0)
(1.00076 0.00580565 0)
(1.00062 0.00507161 0)
(1.0005 0.00447 0)
(1.0004 0.00398035 0)
(1.00031 0.00358702 0)
(1.00023 0.00327766 0)
(1.00017 0.00304196 0)
(1.00011 0.00287316 0)
(1.00006 0.00277455 0)
(1.00003 0.00271088 0)
(1.00002 0.0026829 0)
(1.00003 0.0026741 0)
(1.00003 0.00267155 0)
(1.00004 0.00265741 0)
(1.00005 0.00260455 0)
(0.667184 0.0573021 0)
(1.08292 0.124911 0)
(1.08428 0.0904738 0)
(1.0462 0.0678848 0)
(1.02897 0.0544159 0)
(1.02015 0.0435074 0)
(1.01458 0.0352567 0)
(1.01088 0.0289341 0)
(1.00832 0.0239661 0)
(1.0065 0.0200214 0)
(1.00516 0.0168542 0)
(1.00415 0.0142823 0)
(1.00338 0.012174 0)
(1.00276 0.0104342 0)
(1.00227 0.00899256 0)
(1.00186 0.00779688 0)
(1.00152 0.00680801 0)
(1.00122 0.00599621 0)
(1.00097 0.00533865 0)
(1.00075 0.00481756 0)
(1.00055 0.00441822 0)
(1.00038 0.00412973 0)
(1.00023 0.0039568 0)
(1.00013 0.00385619 0)
(1.00007 0.00382043 0)
(1.00005 0.00381725 0)
(1.00005 0.00382508 0)
(1.00007 0.00382134 0)
(1.00008 0.00377655 0)
(0.540788 0.0352884 0)
(1.05051 0.110948 0)
(1.11573 0.0972388 0)
(1.07594 0.0765564 0)
(1.04905 0.062454 0)
(1.03507 0.0514128 0)
(1.02621 0.0428117 0)
(1.02003 0.0358611 0)
(1.0156 0.0301577 0)
(1.01236 0.0254764 0)
(1.00993 0.0216127 0)
(1.00807 0.0184027 0)
(1.00661 0.0157219 0)
(1.00545 0.013475 0)
(1.00451 0.0115886 0)
(1.00372 0.0100065 0)
(1.00306 0.00868538 0)
(1.00249 0.00759179 0)
(1.00199 0.00669978 0)
(1.00154 0.00598916 0)
(1.00115 0.00544334 0)
(1.00079 0.00504883 0)
(1.00048 0.00481152 0)
(1.00025 0.00468297 0)
(1.00012 0.00464496 0)
(1.00005 0.00465075 0)
(1.00003 0.00467145 0)
(1.00004 0.0046805 0)
(1.00005 0.00464416 0)
(0.443861 0.018687 0)
(0.997322 0.091992 0)
(1.12868 0.0958939 0)
(1.10115 0.0797908 0)
(1.06793 0.0658131 0)
(1.04944 0.0552121 0)
(1.03792 0.0469103 0)
(1.02969 0.0399631 0)
(1.02359 0.034081 0)
(1.01899 0.0291149 0)
(1.01547 0.0249064 0)
(1.01272 0.0213275 0)
(1.01053 0.018278 0)
(1.00875 0.0156776 0)
(1.00729 0.0134619 0)
(1.00606 0.0115798 0)
(1.00501 0.00999105 0)
(1.0041 0.00866396 0)
(1.00329 0.00757358 0)
(1.00257 0.00670036 0)
(1.00192 0.00602847 0)
(1.00132 0.00554392 0)
(1.00079 0.00525432 0)
(1.00039 0.00510796 0)
(1.00014 0.00507515 0)
(1.00001 0.0050963 0)
(0.999954 0.00513609 0)
(0.999956 0.0051639 0)
(0.99996 0.005139 0)
(0.378232 0.00812043 0)
(0.939119 0.0719497 0)
(1.12649 0.0885242 0)
(1.12041 0.078949 0)
(1.08506 0.0662738 0)
(1.06259 0.0563673 0)
(1.0488 0.0485867 0)
(1.03898 0.0419277 0)
(1.03154 0.0361564 0)
(1.0258 0.0311687 0)
(1.02131 0.0268445 0)
(1.01773 0.0230899 0)
(1.01483 0.01983 0)
(1.01245 0.0170027 0)
(1.01045 0.0145573 0)
(1.00876 0.0124525 0)
(1.00728 0.0106555 0)
(1.00599 0.00913995 0)
(1.00483 0.00788506 0)
(1.00378 0.00687462 0)
(1.00282 0.00609575 0)
(1.00194 0.00553613 0)
(1.00114 0.0052062 0)
(1.00053 0.00505258 0)
(1.00014 0.00503381 0)
(0.999912 0.00507842 0)
(0.999816 0.00514517 0)
(0.999797 0.00519915 0)
(0.999783 0.00519067 0)
(0.332952 0.00235073 0)
(0.882696 0.0539203 0)
(1.11338 0.0780324 0)
(1.1333 0.0750891 0)
(1.10032 0.0646193 0)
(1.07472 0.0556212 0)
(1.05885 0.0484834 0)
(1.0477 0.0422771 0)
(1.03919 0.0367793 0)
(1.03252 0.0319189 0)
(1.0272 0.0276158 0)
(1.02289 0.0238077 0)
(1.01935 0.0204431 0)
(1.01639 0.0174778 0)
(1.01388 0.0148755 0)
(1.01171 0.0126064 0)
(1.0098 0.0106467 0)
(1.00811 0.00897748 0)
(1.00657 0.00758416 0)
(1.00516 0.00645572 0)
(1.00385 0.00558404 0)
(1.00263 0.0049603 0)
(1.00151 0.00459904 0)
(1.00065 0.00444661 0)
(1.00008 0.0044497 0)
(0.99975 0.00452546 0)
(0.999593 0.00462716 0)
(0.999538 0.00471544 0)
(0.999493 0.0047298 0)
(0.300609 -0.000177747 0)
(0.830885 0.0396244 0)
(1.09305 0.0670628 0)
(1.13986 0.0695734 0)
(1.11318 0.0616219 0)
(1.0858 0.0536048 0)
(1.0681 0.0471061 0)
(1.05585 0.0414055 0)
(1.04648 0.036258 0)
(1.03904 0.0316055 0)
(1.03303 0.027402 0)
(1.0281 0.0236132 0)
(1.02398 0.0202086 0)
(1.0205 0.0171613 0)
(1.0175 0.0144487 0)
(1.01487 0.0120528 0)
(1.01253 0.00995946 0)
(1.01042 0.00815807 0)
(1.00848 0.00664134 0)
(1.00667 0.00540478 0)
(1.00498 0.00444638 0)
(1.00339 0.00376253 0)
(1.00191 0.00337305 0)
(1.00075 0.00322559 0)
(0.999974 0.00325536 0)
(0.999501 0.00336821 0)
(0.999259 0.00351209 0)
(0.999149 0.00364308 0)
(0.999056 0.00368852 0)
(0.277613 -0.000974798 0)
(0.785198 0.0291016 0)
(1.06879 0.0569863 0)
(1.14093 0.0634543 0)
(1.12338 0.057962 0)
(1.09575 0.0509044 0)
(1.07658 0.0449418 0)
(1.06339 0.03969 0)
(1.05335 0.0348836 0)
(1.04532 0.0304556 0)
(1.03875 0.0263801 0)
(1.03329 0.0226427 0)
(1.02867 0.0192295 0)
(1.02472 0.0161279 0)
(1.02126 0.0133283 0)
(1.0182 0.0108234 0)
(1.01543 0.00860856 0)
(1.0129 0.00668186 0)
(1.01055 0.00504391 0)
(1.00833 0.0036978 0)
(1.00622 0.00264896 0)
(1.00421 0.00189967 0)
(1.00233 0.00147608 0)
(1.00082 0.00133029 0)
(0.999793 0.00138661 0)
(0.999149 0.0015383 0)
(0.998794 0.00172825 0)
(0.9986 0.00190952 0)
(0.998432 0.00199799 0)
(0.261175 -0.00102393 0)
(0.746016 0.0216463 0)
(1.04316 0.0482289 0)
(1.13785 0.0573074 0)
(1.13107 0.0540368 0)
(1.10463 0.0478985 0)
(1.08438 0.0423573 0)
(1.0704 0.0374496 0)
(1.05984 0.0329211 0)
(1.05134 0.0286859 0)
(1.04433 0.0247252 0)
(1.03844 0.0210362 0)
(1.0334 0.0176162 0)
(1.02903 0.0144636 0)
(1.02516 0.0115788 0)
(1.02169 0.00896402 0)
(1.01852 0.00662335 0)
(1.01557 0.00456335 0)
(1.01279 0.00279286 0)
(1.01014 0.00132229 0)
(1.00758 0.00016441 0)
(1.00511 -0.000670698 0)
(1.00277 -0.00114749 0)
(1.00088 -0.00130745 0)
(0.999549 -0.00123486 0)
(0.998695 -0.00104844 0)
(0.998189 -0.000814515 0)
(0.997881 -0.000588666 0)
(0.997608 -0.000451807 0)
(0.248975 -0.000811296 0)
(0.712834 0.0164707 0)
(1.01777 0.0408199 0)
(1.13187 0.051428 0)
(1.13661 0.0500449 0)
(1.11257 0.0447741 0)
(1.09168 0.0395689 0)
(1.07701 0.0349028 0)
(1.06601 0.0305732 0)
(1.05716 0.0264765 0)
(1.0498 0.0225933 0)
(1.04356 0.0189261 0)
(1.03817 0.0154792 0)
(1.03344 0.0122587 0)
(1.02921 0.00927241 0)
(1.02536 0.00653014 0)
(1.02179 0.00404377 0)
(1.01844 0.00182744 0)
(1.01523 -0.000103804 0)
(1.01213 -0.00173228 0)
(1.00911 -0.0030353 0)
(1.00614 -0.00399224 0)
(1.00329 -0.00455674 0)
(1.00094 -0.00476138 0)
(0.999265 -0.00469391 0)
(0.998149 -0.0044829 0)
(0.997445 -0.00420259 0)
(0.996974 -0.00392252 0)
(0.996557 -0.00375939 0)
(0.239491 -0.000559331 0)
(0.684803 0.0128894 0)
(0.993532 0.034641 0)
(1.12398 0.0459711 0)
(1.14034 0.0461045 0)
(1.1197 0.0416295 0)
(1.09862 0.0367004 0)
(1.08337 0.0321902 0)
(1.07199 0.0279828 0)
(1.06286 0.023965 0)
(1.05523 0.0201121 0)
(1.04871 0.0164281 0)
(1.04303 0.012921 0)
(1.03799 0.00960172 0)
(1.03344 0.00648367 0)
(1.02924 0.00358246 0)
(1.02531 0.000915598 0)
(1.02156 -0.00149802 0)
(1.01794 -0.00363567 0)
(1.01438 -0.00547005 0)
(1.01085 -0.00696955 0)
(1.00735 -0.00810316 0)
(1.00394 -0.00881239 0)
(1.00108 -0.00911486 0)
(0.998988 -0.00909445 0)
(0.997543 -0.00888975 0)
(0.996569 -0.00858351 0)
(0.995863 -0.00825547 0)
(0.995232 -0.00805004 0)
(0.231849 -0.000357489 0)
(0.66108 0.0103649 0)
(0.970905 0.0295143 0)
(1.11493 0.041002 0)
(1.14257 0.0422957 0)
(1.12609 0.0385304 0)
(1.1053 0.0338337 0)
(1.08958 0.0294104 0)
(1.07787 0.0252559 0)
(1.06851 0.0212588 0)
(1.06067 0.0173872 0)
(1.05393 0.0136427 0)
(1.04802 0.010035 0)
(1.04273 0.00657778 0)
(1.0379 0.00328776 0)
(1.03339 0.000183646 0)
(1.02913 -0.00271368 0)
(1.02501 -0.00537888 0)
(1.02097 -0.00778109 0)
(1.01695 -0.00988509 0)
(1.01291 -0.0116512 0)
(1.00884 -0.013039 0)
(1.00482 -0.0139778 0)
(1.00139 -0.0144639 0)
(0.998812 -0.0145655 0)
(0.996959 -0.0144275 0)
(0.995628 -0.0141406 0)
(0.994596 -0.0137968 0)
(0.993665 -0.0135637 0)
(0.225535 -0.000223466 0)
(0.640925 0.00852238 0)
(0.950091 0.0252552 0)
(1.10529 0.0365256 0)
(1.14364 0.0386689 0)
(1.13185 0.0355231 0)
(1.11178 0.031027 0)
(1.09575 0.0266386 0)
(1.08375 0.0224785 0)
(1.07421 0.0184493 0)
(1.06621 0.0145114 0)
(1.05932 0.0106623 0)
(1.05323 0.00691069 0)
(1.04773 0.0032709 0)
(1.04267 -0.000239944 0)
(1.03791 -0.00360181 0)
(1.03334 -0.00678958 0)
(1.02888 -0.00977192 0)
(1.02444 -0.0125116 0)
(1.01997 -0.0149664 0)
(1.0154 -0.0170894 0)
(1.01074 -0.0188323 0)
(1.00609 -0.0201153 0)
(1.00204 -0.0209095 0)
(0.998918 -0.0212525 0)
(0.99657 -0.0212863 0)
(0.994773 -0.021104 0)
(0.993294 -0.0208097 0)
(0.991944 -0.0205911 0)
(0.220222 -0.000147286 0)
(0.623716 0.00713007 0)
(0.931122 0.0217269 0)
(1.09543 0.0325441 0)
(1.14376 0.0352677 0)
(1.13701 0.032642 0)
(1.11807 0.0283181 0)
(1.10188 0.0239278 0)
(1.08965 0.0197162 0)
(1.07996 0.01561 0)
(1.07186 0.0115635 0)
(1.06485 0.00756816 0)
(1.05864 0.00363007 0)
(1.053 -0.000238779 0)
(1.04776 -0.00402254 0)
(1.04279 -0.00769999 0)
(1.03797 -0.0112426 0)
(1.0332 -0.0146148 0)
(1.02839 -0.017774 0)
(1.02347 -0.0206712 0)
(1.01839 -0.0232528 0)
(1.01314 -0.0254654 0)
(1.00785 -0.0272258 0)
(1.0032 -0.0284902 0)
(0.999542 -0.029257 0)
(0.996668 -0.0296517 0)
(0.99432 -0.0297505 0)
(0.992264 -0.0296499 0)
(0.99035 -0.0295368 0)
(0.216059 -9.83785e-05 0)
(0.610016 0.00613011 0)
(0.915221 0.0190007 0)
(1.08646 0.0292776 0)
(1.14332 0.0323592 0)
(1.14139 0.0301418 0)
(1.12381 0.0259616 0)
(1.10763 0.0215518 0)
(1.09524 0.0172674 0)
(1.08546 0.0130623 0)
(1.07731 0.00888605 0)
(1.07025 0.00472332 0)
(1.06398 0.000574897 0)
(1.05827 -0.00355136 0)
(1.05294 -0.00764215 0)
(1.04784 -0.0116769 0)
(1.04284 -0.0156266 0)
(1.03784 -0.0194541 0)
(1.03273 -0.023113 0)
(1.02744 -0.026547 0)
(1.0219 -0.0296932 0)
(1.01612 -0.0324883 0)
(1.01024 -0.0348418 0)
(1.00509 -0.0366997 0)
(1.001 -0.0380443 0)
(0.997687 -0.0390058 0)
(0.994809 -0.0396321 0)
(0.992079 -0.0399647 0)
(0.989385 -0.0401268 0)
(0.212998 -7.08299e-05 0)
(0.59993 0.00544911 0)
(0.903043 0.0170478 0)
(1.07915 0.0268318 0)
(1.14265 0.0301241 0)
(1.14481 0.0282074 0)
(1.12856 0.024137 0)
(1.1125 0.0197035 0)
(1.10002 0.0153493 0)
(1.0902 0.0110516 0)
(1.08204 0.0067545 0)
(1.075 0.00243487 0)
(1.06873 -0.001912 0)
(1.06302 -0.00628346 0)
(1.05766 -0.0106705 0)
(1.05252 -0.0150556 0)
(1.04744 -0.0194132 0)
(1.0423 -0.0237083 0)
(1.03701 -0.0278943 0)
(1.03145 -0.0319108 0)
(1.02557 -0.035685 0)
(1.01936 -0.039139 0)
(1.01301 -0.0421536 0)
(1.00748 -0.0446343 0)
(1.00314 -0.0465642 0)
(0.999664 -0.0481573 0)
(0.996589 -0.0495445 0)
(0.993514 -0.0507533 0)
(0.990312 -0.0516336 0)
(0.21063 -2.81186e-05 0)
(0.59218 0.00498543 0)
(0.893411 0.0156324 0)
(1.07305 0.0249868 0)
(1.14183 0.0284055 0)
(1.1475 0.0267207 0)
(1.13251 0.0227467 0)
(1.11662 0.0183029 0)
(1.10409 0.0138974 0)
(1.09425 0.00952623 0)
(1.08612 0.00512888 0)
(1.07911 0.000675455 0)
(1.07289 -0.00384433 0)
(1.06721 -0.00843306 0)
(1.06189 -0.013087 0)
(1.05675 -0.0177945 0)
(1.05166 -0.0225364 0)
(1.04648 -0.0272833 0)
(1.04109 -0.0319934 0)
(1.03537 -0.0366078 0)
(1.02925 -0.0410493 0)
(1.02272 -0.045228 0)
(1.01598 -0.0489813 0)
(1.01008 -0.0520951 0)
(1.00553 -0.0544691 0)
(1.00206 -0.0563878 0)
(0.999276 -0.0582246 0)
(0.996849 -0.0603502 0)
(0.994177 -0.062226 0)
(0.20912 -3.92612e-05 0)
(0.586829 0.00462422 0)
(0.886538 0.0146255 0)
(1.06861 0.0236886 0)
(1.14128 0.0271858 0)
(1.14962 0.0256311 0)
(1.13567 0.0216959 0)
(1.11997 0.0172364 0)
(1.10744 0.0127975 0)
(1.09762 0.00837441 0)
(1.08954 0.00389799 0)
(1.0826 -0.000666357 0)
(1.07645 -0.00533287 0)
(1.07085 -0.0101093 0)
(1.0656 -0.0149981 0)
(1.06053 -0.019995 0)
(1.0555 -0.0250894 0)
(1.05035 -0.030261 0)
(1.04496 -0.0354771 0)
(1.03921 -0.0406875 0)
(1.03301 -0.0458221 0)
(1.02634 -0.0508005 0)
(1.01943 -0.0554496 0)
(1.01337 -0.0594046 0)
(1.00868 -0.0623476 0)
(1.00518 -0.0643493 0)
(1.00257 -0.0654569 0)
(1.00083 -0.0663793 0)
(1.00088 -0.0709178 0)
(1.00001 0.00118352 0)
(1.00001 0.00118867 0)
(1.00001 0.0011888 0)
(1.00001 0.00118969 1.0379e-21)
(1.00001 0.00119244 5.17103e-21)
(1.00001 0.00119688 -9.30068e-21)
(1 0.00120281 5.16312e-21)
(1 0.00121016 -4.10802e-21)
(1 0.00121874 5.27721e-22)
(1 0.00122857 4.1031e-21)
(1 0.0012395 0)
(0.999999 0.00125147 -4.57766e-21)
(0.999997 0.00126442 5.22917e-22)
(0.999996 0.00127817 4.06094e-21)
(0.999995 0.00129271 0)
(0.999994 0.0013079 0)
(0.999993 0.00132365 -4.01044e-21)
(0.999992 0.00133987 4.01297e-21)
(0.999991 0.00135639 0)
(0.99999 0.00137317 -1.98556e-21)
(0.999989 0.00139007 2.11037e-21)
(0.999989 0.00140697 1.84791e-21)
(0.999988 0.00142379 -2.95403e-21)
(0.999987 0.00144038 9.51592e-22)
(0.999987 0.00145665 3.04475e-23)
(0.999986 0.00147251 -6.08448e-23)
(0.999986 0.00148782 8.45151e-22)
(0.999986 0.00150247 -9.6612e-22)
(0.999985 0.00151641 0)
(0.999985 0.00152949 0)
(0.999985 0.00154168 -2.3778e-22)
(0.999986 0.00155278 -2.36616e-22)
(0.999986 0.0015627 -3.99291e-21)
(0.999986 0.00157153 3.28638e-21)
(0.999987 0.00157911 -4.18429e-21)
(0.999987 0.00158542 4.17857e-21)
(0.999988 0.0015904 -3.21744e-21)
(0.999989 0.00159396 3.21649e-21)
(0.99999 0.00159612 4.55773e-22)
(0.999991 0.00159676 4.53209e-22)
(0.999992 0.00159588 -4.50617e-22)
(0.999994 0.00159345 0)
(0.999995 0.00158937 0)
(0.999997 0.00158372 0)
(0.999998 0.00157644 0)
(1 0.00156753 0)
(1 0.00155688 1.73605e-21)
(1 0.00154396 -1.73305e-21)
(1.00001 0.00152469 0)
(1.00005 0.00262399 0)
(1.00004 0.00263552 2.09667e-21)
(1.00002 0.00264394 -2.0872e-21)
(1.00001 0.00265586 -1.04087e-21)
(0.999997 0.00267244 -1.0408e-21)
(0.999984 0.00269309 -3.1089e-21)
(0.999972 0.00271746 5.19037e-21)
(0.999961 0.00274558 0)
(0.99995 0.00277686 -5.15596e-22)
(0.999939 0.00281144 -1.02959e-21)
(0.999929 0.00284885 0)
(0.99992 0.00288891 5.11636e-22)
(0.999911 0.00293152 -4.58549e-21)
(0.999903 0.00297615 4.07886e-21)
(0.999896 0.00302281 0)
(0.999889 0.0030711 1.01276e-21)
(0.999883 0.00312072 0)
(0.999878 0.0031716 0)
(0.999874 0.00322322 0)
(0.99987 0.00327543 -1.99366e-21)
(0.999867 0.00332801 1.87003e-21)
(0.999865 0.00338055 -1.24206e-22)
(0.999863 0.00343287 0)
(0.999863 0.0034847 -4.60278e-22)
(0.999863 0.0035357 4.83418e-22)
(0.999864 0.00358565 9.15487e-23)
(0.999866 0.00363432 1.21464e-22)
(0.999869 0.00368138 0)
(0.999872 0.00372661 -1.92267e-21)
(0.999877 0.00376978 1.92224e-21)
(0.999882 0.00381065 -3.57098e-21)
(0.999888 0.00384895 7.83678e-21)
(0.999894 0.0038845 -3.55322e-21)
(0.999902 0.00391709 4.70155e-22)
(0.99991 0.00394644 4.6778e-22)
(0.999919 0.00397246 4.65724e-22)
(0.999928 0.00399486 -4.62847e-22)
(0.999938 0.00401346 4.13523e-21)
(0.999949 0.0040282 -3.21319e-21)
(0.999961 0.00403871 -1.36596e-21)
(0.999973 0.00404503 4.97144e-21)
(0.999986 0.0040469 -3.60904e-21)
(1 0.00404412 -1.78975e-21)
(1.00001 0.00403674 3.55045e-21)
(1.00003 0.00402435 -7.07581e-21)
(1.00004 0.00400718 3.5244e-21)
(1.00006 0.00398497 1.74363e-21)
(1.00008 0.00395705 -4.85559e-24)
(1.00009 0.00391874 0)
(1.00006 0.00379572 3.15647e-21)
(1.00003 0.00381441 -1.05387e-21)
(0.999988 0.00383542 -4.19432e-21)
(0.99995 0.00386246 2.0888e-21)
(0.999914 0.00389676 -2.0878e-21)
(0.999879 0.00393752 0)
(0.999845 0.00398432 -2.0742e-21)
(0.999814 0.00403735 -6.20661e-21)
(0.999784 0.00409542 6.20647e-21)
(0.999756 0.00415896 1.02916e-21)
(0.99973 0.00422705 0)
(0.999707 0.00429941 -6.14366e-21)
(0.999685 0.00437602 1.45612e-23)
(0.999665 0.00445581 4.08259e-21)
(0.999647 0.00453894 0)
(0.999632 0.00462469 -1.01172e-21)
(0.999618 0.00471253 -1.01109e-21)
(0.999607 0.00480255 0)
(0.999598 0.00489365 -1.00431e-21)
(0.999591 0.00498569 -1.9946e-21)
(0.999586 0.00507842 1.9952e-21)
(0.999584 0.005171 -2.48936e-22)
(0.999584 0.00526321 -2.47396e-22)
(0.999586 0.0053547 0)
(0.99959 0.0054448 3.822e-23)
(0.999597 0.0055332 -2.13709e-22)
(0.999606 0.00561957 0)
(0.999617 0.00570331 0)
(0.99963 0.00578407 -1.92225e-21)
(0.999646 0.00586156 1.92189e-21)
(0.999663 0.00593525 -3.8082e-21)
(0.999683 0.0060048 3.80694e-21)
(0.999704 0.00606992 0)
(0.999728 0.00613014 0)
(0.999753 0.00618514 0)
(0.999781 0.00623468 -9.29946e-22)
(0.99981 0.00627827 -1.85119e-21)
(0.999841 0.00631567 0)
(0.999874 0.00634669 -9.14905e-22)
(0.999908 0.00637075 -9.0117e-22)
(0.999945 0.00638789 2.72278e-21)
(0.999983 0.00639762 0)
(1.00002 0.00639964 3.56955e-21)
(1.00006 0.006394 -5.34109e-21)
(1.00011 0.00637992 0)
(1.00015 0.00635777 0)
(1.00019 0.00632686 0)
(1.00024 0.00628647 -1.73658e-21)
(1.00029 0.00623306 -1.72333e-21)
(1.00001 0.0046633 -2.10858e-21)
(0.999947 0.00469405 4.21976e-21)
(0.999876 0.00473354 4.20949e-21)
(0.999803 0.00478131 6.286e-21)
(0.999732 0.00483901 -2.10074e-21)
(0.999664 0.00490571 -4.16597e-21)
(0.9996 0.00498094 8.32685e-21)
(0.99954 0.00506515 -5.41598e-24)
(0.999483 0.00515636 -2.06823e-21)
(0.99943 0.00525545 2.07002e-21)
(0.999381 0.00536091 0)
(0.999336 0.00547242 2.05139e-21)
(0.999295 0.00559007 -2.03641e-21)
(0.999259 0.00571206 8.17025e-21)
(0.999226 0.0058389 -8.14466e-21)
(0.999198 0.00596938 6.1014e-21)
(0.999174 0.00610276 -1.01785e-21)
(0.999155 0.00623939 1.0104e-21)
(0.99914 0.00637738 1.00315e-21)
(0.999129 0.0065167 -1.00331e-21)
(0.999123 0.00665709 0)
(0.999121 0.00679716 -1.48701e-21)
(0.999124 0.00693674 1.24291e-21)
(0.999131 0.00707535 9.8771e-22)
(0.999143 0.00721191 4.59712e-23)
(0.999159 0.00734608 9.13963e-23)
(0.999179 0.00747746 1.45815e-21)
(0.999203 0.00760504 -9.70707e-22)
(0.999232 0.00772844 1.92365e-21)
(0.999265 0.00784728 -1.92334e-21)
(0.999302 0.00796071 0)
(0.999343 0.00806834 4.7421e-21)
(0.999388 0.00816972 -3.7896e-21)
(0.999437 0.00826416 3.75152e-21)
(0.999489 0.00835129 -3.75015e-21)
(0.999546 0.00843073 0)
(0.999605 0.00850175 3.6889e-21)
(0.999669 0.00856408 -1.84809e-21)
(0.999736 0.0086174 0)
(0.999806 0.00866094 3.62942e-21)
(0.99988 0.00869474 -3.62544e-21)
(0.999957 0.00871808 1.79722e-21)
(1.00004 0.00873058 1.7875e-21)
(1.00012 0.00873229 5.3267e-21)
(1.00021 0.00872211 6.67648e-24)
(1.00029 0.00870055 3.51775e-21)
(1.00039 0.00866648 1.73944e-21)
(1.00048 0.0086191 1.72518e-21)
(1.00059 0.0085562 1.72407e-21)
(0.999892 0.00516087 0)
(0.999788 0.00521088 -4.22447e-21)
(0.999672 0.00527685 -4.21201e-21)
(0.999554 0.00535331 0)
(0.999438 0.00544254 -4.19466e-21)
(0.999327 0.00554346 1.31394e-23)
(0.999222 0.0056556 8.38186e-21)
(0.999122 0.00577975 -2.09904e-21)
(0.999029 0.00591294 -1.35958e-23)
(0.998942 0.00605674 -6.22491e-21)
(0.998862 0.00620886 0)
(0.998789 0.00636899 -6.188e-21)
(0.998723 0.0065374 2.06826e-21)
(0.998663 0.00671138 0)
(0.998611 0.00689192 -2.05007e-21)
(0.998566 0.00707722 1.0655e-23)
(0.998528 0.00726631 -2.02752e-21)
(0.998498 0.0074599 7.0837e-21)
(0.998475 0.00765511 -1.59629e-23)
(0.998459 0.00785214 -1.01869e-21)
(0.998451 0.00805067 -1.00175e-21)
(0.99845 0.00824867 1.9888e-21)
(0.998456 0.00844609 -1.98909e-21)
(0.99847 0.00864227 -2.45339e-22)
(0.998491 0.00883568 5.08389e-22)
(0.998519 0.00902598 -2.73869e-22)
(0.998554 0.00921267 9.74761e-22)
(0.998597 0.00939429 -9.7268e-22)
(0.998647 0.00957043 9.67683e-22)
(0.998703 0.00974062 1.91733e-21)
(0.998766 0.00990365 -5.73153e-21)
(0.998836 0.0100591 -9.3114e-22)
(0.998913 0.0102063 5.68888e-21)
(0.998996 0.0103444 1.88425e-21)
(0.999085 0.010473 -3.73389e-21)
(0.999181 0.0105914 3.73166e-21)
(0.999282 0.0106989 9.95518e-24)
(0.999389 0.0107949 5.52087e-21)
(0.999502 0.0108792 -3.67838e-21)
(0.999621 0.0109507 -9.10153e-21)
(0.999745 0.0110096 3.61465e-21)
(0.999874 0.0110548 1.79539e-21)
(1.00001 0.0110859 7.13112e-21)
(1.00015 0.011103 -3.56005e-21)
(1.00029 0.0111047 -1.13493e-23)
(1.00044 0.0110917 -1.25057e-23)
(1.0006 0.0110624 0)
(1.00076 0.0110161 -3.46352e-21)
(1.00093 0.0109522 -3.43209e-21)
(0.99968 0.00521952 0)
(0.999527 0.00529816 -6.39566e-21)
(0.999356 0.00540073 6.38305e-21)
(0.99918 0.005516 0)
(0.999007 0.00564722 0)
(0.99884 0.00579306 -4.20978e-21)
(0.998681 0.00595309 -3.32072e-24)
(0.998531 0.00612855 -4.20599e-21)
(0.998391 0.0063153 -8.61612e-24)
(0.99826 0.00651577 0)
(0.998139 0.00672675 0)
(0.998029 0.00694798 2.06868e-21)
(0.997929 0.00717994 0)
(0.99784 0.00741882 0)
(0.997762 0.00766628 -2.05347e-21)
(0.997694 0.00791976 4.11739e-21)
(0.997638 0.00817807 2.04876e-21)
(0.997592 0.00844235 0)
(0.997558 0.0087085 2.01037e-21)
(0.997535 0.0089771 -5.0572e-21)
(0.997523 0.00924773 -2.01056e-21)
(0.997522 0.00951757 -1.99722e-21)
(0.997533 0.0097868 1.99741e-21)
(0.997555 0.0100545 1.42041e-24)
(0.997587 0.0103187 1.5478e-23)
(0.997631 0.0105789 2.45141e-22)
(0.997686 0.0108346 -4.90274e-22)
(0.997751 0.0110839 0)
(0.997828 0.0113263 -9.66418e-22)
(0.997914 0.0115612 0)
(0.998011 0.0117869 0)
(0.998118 0.0120031 -1.90984e-21)
(0.998235 0.012209 -7.57254e-21)
(0.998362 0.0124033 2.57838e-23)
(0.998498 0.0125855 1.88137e-21)
(0.998644 0.012755 0)
(0.998799 0.0129107 -1.84991e-21)
(0.998962 0.013052 -3.68431e-21)
(0.999134 0.0131786 3.65588e-21)
(0.999315 0.0132891 7.27178e-21)
(0.999503 0.0133838 -7.22501e-21)
(0.9997 0.0134614 -7.49757e-25)
(0.999904 0.0135214 -3.56811e-21)
(1.00012 0.0135641 -3.89619e-24)
(1.00034 0.0135875 0)
(1.00056 0.0135928 -3.49979e-21)
(1.0008 0.0135778 -1.73174e-21)
(1.00105 0.0135418 1.73047e-21)
(1.00131 0.0134872 3.43327e-21)
(0.999344 0.00477185 0)
(0.999131 0.00489093 4.27654e-21)
(0.998892 0.00504224 -1.28487e-20)
(0.998645 0.00520861 0)
(0.9984 0.00539468 0)
(0.998163 0.00559875 -8.50851e-21)
(0.997937 0.00582047 8.46977e-21)
(0.997722 0.00606156 -4.2447e-21)
(0.997522 0.00631652 -8.64286e-24)
(0.997335 0.00658887 4.21048e-21)
(0.997162 0.00687424 0)
(0.997004 0.00717251 0)
(0.996861 0.00748439 4.18501e-21)
(0.996733 0.00780478 0)
(0.996621 0.00813615 0)
(0.996524 0.00847501 -4.12611e-21)
(0.996443 0.00881997 1.67467e-23)
(0.996377 0.00917265 0)
(0.996328 0.00952752 2.03161e-21)
(0.996294 0.00988563 5.07734e-21)
(0.996277 0.0102464 -2.03395e-21)
(0.996276 0.0106062 0)
(0.99629 0.0109654 -9.9964e-22)
(0.996321 0.0113227 1.24853e-21)
(0.996368 0.0116756 -5.4402e-22)
(0.996431 0.0120238 -2.4776e-22)
(0.996509 0.0123664 4.87065e-22)
(0.996603 0.012701 -9.79829e-22)
(0.996712 0.0130271 0)
(0.996836 0.0133439 -3.86719e-21)
(0.996975 0.0136494 5.76165e-21)
(0.997128 0.0139431 1.88614e-21)
(0.997296 0.0142239 -9.98658e-24)
(0.997478 0.0144904 1.88055e-21)
(0.997673 0.014742 -1.89084e-21)
(0.997881 0.0149778 -3.71957e-21)
(0.998102 0.0151966 7.41308e-21)
(0.998336 0.0153976 -3.68675e-21)
(0.998582 0.0155804 7.33069e-21)
(0.99884 0.0157435 2.94411e-24)
(0.999109 0.0158872 7.22155e-21)
(0.999389 0.0160099 -3.58609e-21)
(0.99968 0.0161111 0)
(0.999981 0.0161912 -4.60479e-24)
(1.00029 0.0162478 7.02048e-21)
(1.00062 0.0162823 0)
(1.00095 0.0162921 0)
(1.0013 0.0162768 6.00981e-21)
(1.00167 0.0162425 8.56602e-22)
(0.998845 0.00375307 1.08319e-21)
(0.998558 0.00392723 7.61422e-21)
(0.998236 0.00414098 8.59817e-21)
(0.997901 0.00437229 -8.66062e-21)
(0.997568 0.00462807 0)
(0.997244 0.00490606 -1.21838e-23)
(0.996934 0.00520594 -4.31782e-21)
(0.996639 0.00552999 -4.30064e-21)
(0.996363 0.00587109 1.27928e-20)
(0.996105 0.00623403 -4.24973e-21)
(0.995866 0.00661307 0)
(0.995647 0.00700824 8.45391e-21)
(0.995449 0.00742049 -8.39587e-21)
(0.995271 0.00784324 3.0353e-23)
(0.995114 0.0082799 8.35079e-21)
(0.994979 0.00872591 -2.09733e-21)
(0.994865 0.00917959 -2.03289e-21)
(0.994773 0.00964311 4.1357e-21)
(0.994703 0.0101093 0)
(0.994655 0.0105798 -2.03781e-21)
(0.99463 0.0110538 2.03788e-21)
(0.994626 0.0115267 2.02285e-21)
(0.994645 0.0119989 -2.02279e-21)
(0.994686 0.0124691 2.52115e-22)
(0.994749 0.012934 3.10957e-23)
(0.994834 0.0133931 7.42868e-22)
(0.994941 0.0138454 -2.992e-24)
(0.995069 0.014288 0)
(0.995218 0.0147201 0)
(0.995388 0.0151409 1.68613e-25)
(0.995579 0.0155477 -1.91299e-21)
(0.99579 0.0159401 3.84801e-21)
(0.99602 0.0163166 -3.81332e-21)
(0.99627 0.0166755 3.7753e-21)
(0.996538 0.017016 -7.54622e-21)
(0.996824 0.0173372 1.86221e-23)
(0.997128 0.0176374 3.72371e-21)
(0.997449 0.0179159 3.67533e-21)
(0.997786 0.018172 -7.34494e-21)
(0.99814 0.018404 -7.2815e-21)
(0.998508 0.0186123 -3.6212e-21)
(0.998891 0.0187951 -3.59424e-21)
(0.999288 0.0189517 0)
(0.999699 0.0190827 -3.53188e-21)
(1.00012 0.0191852 -1.54066e-23)
(1.00056 0.0192612 6.94511e-21)
(1.00102 0.0193071 -8.61027e-21)
(1.00149 0.0193232 1.69041e-21)
(1.00199 0.0193213 0)
(0.998138 0.00209795 0)
(0.997768 0.00234167 -8.71554e-21)
(0.997344 0.00263053 0)
(0.996901 0.00294238 8.67482e-21)
(0.996458 0.00328594 4.34202e-21)
(0.996026 0.00365696 -8.67414e-21)
(0.99561 0.00405479 1.29468e-20)
(0.995215 0.0044825 4.29213e-21)
(0.994843 0.00493128 -4.28283e-21)
(0.994495 0.00540748 0)
(0.994172 0.00590373 4.27203e-21)
(0.993876 0.00642021 -8.51664e-21)
(0.993606 0.00695808 4.27693e-21)
(0.993364 0.00750906 -4.2141e-21)
(0.99315 0.00807764 3.45974e-23)
(0.992964 0.00865798 4.21206e-21)
(0.992808 0.00924808 -8.37954e-21)
(0.992681 0.00985065 0)
(0.992583 0.0104568 4.14144e-21)
(0.992515 0.0110687 -4.14137e-21)
(0.992477 0.0116851 -1.02284e-21)
(0.992468 0.0123003 0)
(0.99249 0.0129153 1.02312e-21)
(0.992542 0.0135279 2.52791e-22)
(0.992624 0.0141341 -5.36216e-22)
(0.992735 0.0147336 7.50336e-22)
(0.992876 0.0153248 4.93076e-22)
(0.993046 0.0159042 -9.917e-22)
(0.993245 0.016471 0)
(0.993472 0.0170237 -1.94671e-21)
(0.993726 0.0175593 3.89293e-21)
(0.994008 0.0180771 0)
(0.994316 0.0185755 1.90892e-21)
(0.99465 0.0190521 0)
(0.995009 0.019506 3.76662e-21)
(0.995392 0.0199361 -7.49407e-21)
(0.995799 0.0203402 3.7052e-21)
(0.996228 0.0207176 -2.6409e-23)
(0.996678 0.0210675 3.63283e-21)
(0.997149 0.0213877 -3.6491e-21)
(0.99764 0.0216789 3.60639e-21)
(0.99815 0.0219389 7.15474e-21)
(0.998677 0.0221668 0)
(0.999223 0.0223636 0)
(0.999785 0.0225258 -6.99877e-21)
(1.00037 0.0226559 -1.38602e-20)
(1.00097 0.0227496 1.37468e-20)
(1.00159 0.0228077 -7.68652e-21)
(1.00225 0.0228499 7.59302e-21)
(0.997199 -0.000249751 0)
(0.996696 9.67253e-05 8.92261e-21)
(0.996139 0.000436177 8.89681e-21)
(0.995562 0.000839128 1.33012e-20)
(0.994997 0.00128932 -1.3276e-20)
(0.994435 0.00177315 -4.39008e-21)
(0.993889 0.00229242 1.32247e-20)
(0.993366 0.00284941 -4.36641e-21)
(0.992873 0.00343301 4.36893e-21)
(0.992411 0.00405089 0)
(0.991981 0.00469366 8.73321e-21)
(0.991585 0.00536184 0)
(0.991224 0.00605678 -4.27864e-21)
(0.990899 0.00676834 -4.3222e-21)
(0.99061 0.00750218 5.70419e-23)
(0.990359 0.00825102 0)
(0.990146 0.00901248 4.25241e-21)
(0.989971 0.00978974 8.47536e-21)
(0.989835 0.0105721 0)
(0.989739 0.0113622 2.08413e-21)
(0.989682 0.0121583 -2.08345e-21)
(0.989666 0.0129536 -2.06176e-21)
(0.989689 0.0137491 2.07341e-21)
(0.989752 0.014542 -4.61256e-24)
(0.989855 0.0153278 -5.09447e-22)
(0.989998 0.0161054 -2.23946e-22)
(0.990181 0.0168731 -5.03112e-22)
(0.990402 0.0176266 1.00166e-21)
(0.990662 0.0183645 0)
(0.990959 0.0190851 1.95917e-21)
(0.991293 0.0197847 -3.90285e-21)
(0.991664 0.0204622 0)
(0.992069 0.0211154 0)
(0.99251 0.0217416 3.80191e-21)
(0.992982 0.0223393 -7.57564e-21)
(0.993487 0.0229075 3.77825e-21)
(0.994022 0.0234433 3.74095e-21)
(0.994586 0.0239456 0)
(0.995178 0.0244138 1.09894e-20)
(0.995796 0.0248449 -7.27227e-21)
(0.996439 0.02524 -3.59158e-21)
(0.997106 0.0255965 -3.24152e-24)
(0.997796 0.0259132 -7.08319e-21)
(0.998507 0.0261918 -7.01266e-21)
(0.999239 0.0264278 -6.95315e-21)
(0.999993 0.0266247 2.84521e-23)
(1.00077 0.0267769 -3.46765e-23)
(1.00158 0.0268865 0)
(1.00243 0.0269831 -1.34377e-20)
(0.996 -0.00355299 0)
(0.995327 -0.0030949 2.35858e-21)
(0.9946 -0.0025832 -1.11503e-20)
(0.993851 -0.00198477 -8.90633e-21)
(0.993102 -0.00138242 8.8848e-21)
(0.992368 -0.000809507 4.53364e-21)
(0.991658 -0.000163337 -4.39011e-21)
(0.990979 0.000547919 0)
(0.990341 0.00129651 0)
(0.989735 0.00208864 8.90071e-21)
(0.989168 0.00291271 -8.74222e-21)
(0.988645 0.0037694 4.38116e-21)
(0.988165 0.00465994 -4.37753e-21)
(0.987732 0.00557216 4.36812e-21)
(0.987346 0.00651282 4.36669e-21)
(0.987007 0.00747305 -4.32656e-21)
(0.986719 0.00844993 -4.26947e-21)
(0.98648 0.00944708 -4.2475e-21)
(0.986292 0.0104519 4.24566e-21)
(0.986156 0.0114674 -4.2446e-21)
(0.986073 0.0124912 0)
(0.986041 0.0135153 2.1087e-21)
(0.986063 0.0145403 -2.07082e-21)
(0.986138 0.0155629 1.55045e-21)
(0.986266 0.0165776 0)
(0.986447 0.0175827 1.02059e-21)
(0.98668 0.0185758 0)
(0.986965 0.0195518 -1.00052e-21)
(0.987301 0.0205086 1.88428e-23)
(0.987687 0.0214437 1.46713e-23)
(0.988123 0.0223529 3.94903e-21)
(0.988607 0.0232339 0)
(0.989136 0.0240845 0)
(0.989711 0.0249008 0)
(0.99033 0.0256809 0)
(0.990989 0.0264236 -7.53516e-21)
(0.991688 0.0271251 3.7522e-21)
(0.992424 0.0277839 0)
(0.993196 0.0283995 -3.67638e-21)