/*--------------------------------*- C++ -*----------------------------------*\
| =========                 |                                                 |
| \\      /  F ield         | OpenFOAM: The Open Source CFD Toolbox           |
|  \\    /   O peration     | Version:  2312                                  |
|   \\  /    A nd           | Website:  www.openfoam.com                      |
|    \\/     M anipulation  |                                                 |
\*---------------------------------------------------------------------------*/
FoamFile
{
    version     2.0;
    format      ascii;
    arch        "LSB;label=32;scalar=64";
    class       surfaceScalarField;
    location    "22.99612897315453";
    object      phi;
}
// * * * * * * * * * * * * * * * * * * * * * * * * * * * * * * * * * * * * * //

dimensions      [0 3 -1 0 0 0 0];

oriented        oriented;

internalField   nonuniform List<scalar> 
41713
(
0.0073636
0.0568828
0.00362658
0.0679835
0.00211459
0.0657584
0.00148177
0.0648793
0.00109557
0.0646326
0.000840944
0.0645011
0.000665333
0.064422
0.00053782
0.0643739
0.000441795
0.0643425
0.000367603
0.0643206
0.000309118
0.0643049
0.000262287
0.0642933
0.000224344
0.0642844
0.00019335
0.0642774
0.000167911
0.0642719
0.000147008
0.0642673
0.000129877
0.0642636
0.000115939
0.0642604
0.000104735
0.0642576
9.58878e-05
0.0642553
8.90418e-05
0.0642533
8.38409e-05
0.0642516
8.0005e-05
0.0642503
7.72935e-05
0.0548139
7.50267e-05
0.0456782
7.29604e-05
0.0380654
7.10778e-05
0.0317213
6.93884e-05
0.0264345
0.0220289
6.78577e-05
0.0099919
0.0468909
0.00842442
0.0695509
0.00571159
0.0684713
0.00411709
0.0664738
0.00311558
0.0656341
0.0024234
0.0651932
0.00192476
0.0649207
0.00155421
0.0647445
0.00127145
0.0646252
0.00105068
0.0645414
0.000874952
0.0644806
0.000732896
0.0644353
0.000616662
0.0644006
0.000520711
0.0643734
0.000441056
0.0643515
0.000374779
0.0643336
0.000319711
0.0643186
0.000274214
0.0643059
0.000237029
0.0642948
0.000207166
0.0642851
0.000183817
0.0642766
0.000166278
0.0642692
0.000153837
0.0642627
0.000146364
0.0548214
0.000141771
0.0456828
0.000138687
0.0380685
0.00013632
0.0317237
0.000134281
0.0264366
0.0220306
0.000132554
0.00859278
0.0382982
0.00970226
0.0684415
0.00746329
0.0707102
0.00569352
0.0682435
0.00450435
0.0668233
0.00361825
0.0660793
0.00293504
0.0656039
0.00240311
0.0652764
0.00198379
0.0650445
0.00164851
0.0648767
0.00137684
0.0647523
0.00115414
0.064658
0.000969877
0.0645849
0.000816345
0.0645269
0.000687878
0.06448
0.000580262
0.0644412
0.00049033
0.0644086
0.000415682
0.0643805
0.000354472
0.064356
0.000305265
0.0643344
0.000266917
0.064315
0.000238477
0.0642976
0.000218988
0.0642822
0.000208188
0.0548322
0.000202425
0.0456886
0.000199219
0.0380717
0.000197127
0.0317258
0.000195452
0.0264383
0.022032
0.000194088
0.00677032
0.0315278
0.00946638
0.0657454
0.00811059
0.072066
0.00643053
0.0699236
0.00523926
0.0680146
0.00433358
0.066985
0.00360203
0.0663354
0.00300529
0.0658732
0.00251619
0.0655336
0.0021127
0.0652802
0.00177754
0.0650875
0.00149733
0.0649382
0.00126178
0.0648204
0.00106298
0.0647257
0.00089491
0.0646481
0.000752948
0.0645832
0.000633553
0.064528
0.000534001
0.0644801
0.000452185
0.0644379
0.000386462
0.0644001
0.000335533
0.0643659
0.000298317
0.0643348
0.000273645
0.0643069
0.000260917
0.0548449
0.000255005
0.0456945
0.00025244
0.0380742
0.000251251
0.031727
0.000250539
0.026439
0.0220324
0.000250141
0.00505948
0.0264684
0.0085581
0.0622468
0.00816794
0.0724562
0.0067244
0.0713671
0.00556958
0.0691694
0.00469407
0.0678605
0.00397654
0.067053
0.0033732
0.0664765
0.00286311
0.0660437
0.00243034
0.0657129
0.00206192
0.0654559
0.00174736
0.0652528
0.00147819
0.0650896
0.00124764
0.0649563
0.00105035
0.0648454
0.000882067
0.0647515
0.000739466
0.0646706
0.000619942
0.0645996
0.000521463
0.0645363
0.000442436
0.0644791
0.000381599
0.0644267
0.000337882
0.0643785
0.000310018
0.0643347
0.000296931
0.054858
0.000292142
0.0456993
0.000291295
0.0380751
0.000291965
0.0317263
0.000293073
0.0264379
0.0220311
0.00029439
0.00361185
0.0228565
0.00729655
0.0585621
0.00776527
0.0719875
0.0067071
0.0724253
0.0056477
0.0702288
0.00482356
0.0686847
0.0041439
0.0677326
0.00356046
0.0670599
0.00305536
0.0665488
0.00261707
0.0661512
0.00223608
0.0658369
0.00190454
0.0655843
0.00161602
0.0653781
0.00136526
0.065207
0.00114797
0.0650626
0.000960708
0.0649387
0.000800735
0.0648305
0.000665883
0.0647344
0.00055446
0.0646478
0.000465148
0.0645684
0.000396912
0.064495
0.00034885
0.0644266
0.000319745
0.0643638
0.000307923
0.0548698
0.000305628
0.0457016
0.000307697
0.038073
0.000311292
0.0317227
0.000315168
0.026434
0.0220272
0.000319031
0.00251545
0.0203411
0.00600093
0.0550766
0.00707548
0.0709129
0.00644701
0.0730538
0.00553784
0.071138
0.0047849
0.0694376
0.00415777
0.0683598
0.00360952
0.0676082
0.00312425
0.0670341
0.00269434
0.0665811
0.00231352
0.0662177
0.00197637
0.0659215
0.00167837
0.0656761
0.00141575
0.0654696
0.00118543
0.065293
0.000984894
0.0651393
0.000812153
0.0650033
0.00066566
0.0648809
0.00054424
0.0647692
0.000447022
0.0646656
0.000373354
0.0645687
0.000322653
0.0644773
0.000293892
0.0643926
0.000284693
0.054879
0.000286097
0.0457002
0.000292189
0.0380669
0.000299748
0.0317151
0.000307364
0.0264264
0.0220199
0.000314667
0.00175015
0.0185909
0.00486672
0.05196
0.00629261
0.069487
0.00604608
0.0733003
0.0053053
0.0718788
0.00462876
0.0701142
0.00405742
0.0689311
0.00355108
0.0681145
0.00309373
0.0674914
0.0026803
0.0669946
0.00230729
0.0665907
0.00197156
0.0662572
0.00167035
0.0659773
0.00140132
0.0657387
0.00116256
0.0655317
0.000952525
0.0653493
0.000770049
0.0651858
0.000614288
0.0650367
0.000484693
0.0648988
0.000380953
0.0647694
0.000302929
0.0646467
0.000250487
0.0645298
0.000222927
0.0644202
0.000217179
0.0548847
0.000223124
0.0456942
0.000234133
0.0380559
0.000246609
0.0317027
0.000258938
0.026414
0.0220082
0.000270606
0.00123818
0.0173527
0.00394213
0.0492561
0.00553064
0.0678985
0.00558778
0.0732432
0.0050102
0.0724563
0.00440466
0.0707197
0.00388179
0.069454
0.00341465
0.0685817
0.00298615
0.0679199
0.00259185
0.0673889
0.00222998
0.0669526
0.00189909
0.0665881
0.00159791
0.0662785
0.00132533
0.0660112
0.00108052
0.0657765
0.000862868
0.065567
0.000672019
0.0653766
0.000507874
0.0652008
0.000370563
0.0650361
0.000260426
0.0648795
0.000177947
0.0647292
0.000123585
0.0645841
9.70782e-05
0.0644467
9.48102e-05
0.054887
0.000105566
0.0456835
0.000121952
0.0380395
0.000139975
0.0316846
0.000157856
0.0263962
0.0219913
0.000174782
0.000902493
0.0164502
0.00320814
0.0469504
0.00483285
0.0662738
0.00511577
0.0729602
0.00468734
0.0728848
0.00414627
0.0712608
0.00366183
0.0699384
0.00322621
0.0690173
0.00282236
0.0683238
0.00244533
0.0677659
0.00209412
0.0673038
0.00176832
0.0669139
0.00146768
0.0665792
0.00119207
0.0662868
0.000941531
0.0660271
0.000716278
0.0657922
0.000516725
0.0655762
0.000343508
0.0653741
0.000197484
0.0651821
7.96785e-05
0.0649973
-8.72966e-06
0.0648176
-6.66702e-05
0.0646421
-9.37124e-05
0.0644737
-9.36013e-05
0.0548869
-7.86132e-05
0.0456685
-5.69972e-05
0.0380179
-3.34734e-05
0.0316611
-1.03689e-05
0.0263731
0.0219692
1.17878e-05
0.000683333
0.0157669
0.00263148
0.0450023
0.00421183
0.0646934
0.00465115
0.0725209
0.00435296
0.073183
0.00387077
0.071743
0.0034163
0.0703929
0.00300386
0.0694297
0.00261853
0.0687091
0.00225454
0.0681299
0.00191105
0.0676473
0.00158822
0.0672367
0.00128646
0.0668809
0.00100633
0.066567
0.000748532
0.0662849
0.000513975
0.0660268
0.000303771
0.0657864
0.000119197
0.0655586
-3.82762e-05
0.0653396
-0.000166909
0.0651259
-0.000264733
0.0649154
-0.000329718
0.064707
-0.000360657
0.0645047
-0.000360797
0.054887
-0.000343477
0.0456512
-0.000317763
0.0379922
-0.000288819
0.0316322
-0.000259377
0.0263436
0.0219408
-0.000231045
0.000537163
0.0152297
0.00217815
0.0433613
0.00366732
0.0632043
0.00420575
0.0719825
0.0040162
0.0733725
0.00358717
0.072172
0.00315601
0.0708241
0.00275921
0.0698265
0.002386
0.0690823
0.00202999
0.0684859
0.00169009
0.0679872
0.00136673
0.0675601
0.00106072
0.0671869
0.000773071
0.0668546
0.000505002
0.0665529
0.000257952
0.0662738
3.35139e-05
0.0660108
-0.0001665
0.0657587
-0.000339915
0.065513
-0.000484171
0.0652702
-0.00059645
0.0650277
-0.000673899
0.0647845
-0.000714391
0.0645451
-0.000719504
0.0548921
-0.000703314
0.045635
-0.00067582
0.0379647
-0.000643055
0.0315994
-0.000608449
0.026309
0.0219064
-0.000574036
0.000434796
0.0147949
0.00181804
0.041978
0.00319259
0.0618297
0.0037859
0.0713892
0.00368341
0.073475
0.00330134
0.0725541
0.00288815
0.0712372
0.00250044
0.0702142
0.0021332
0.0694496
0.00177989
0.0688392
0.00143897
0.0683281
0.00111088
0.0678882
0.000796602
0.0675012
0.000497437
0.0671538
0.000214919
0.0668355
-4.92349e-05
0.066538
-0.000293028
0.0662546
-0.000514021
0.0659796
-0.000709342
0.0657083
-0.000875741
0.0654366
-0.00100964
0.0651616
-0.0011074
0.0648822
-0.00116606
0.0646038
-0.0011841
0.0549102
-0.0011758
0.0456267
-0.00115183
0.0379407
-0.00111898
0.0315666
-0.00108162
0.0262717
0.0218676
-0.00104281
0.000358616
0.0144363
0.00152747
0.0408092
0.00277863
0.0605786
0.00339405
0.0707737
0.00335884
0.0735102
0.00301746
0.0728955
0.00261802
0.0716367
0.00223402
0.0705982
0.0018672
0.0698164
0.00151149
0.0691949
0.00116484
0.0686748
0.000827486
0.0682255
0.000500427
0.0678283
0.000185011
0.0674692
-0.000117179
0.0671377
-0.000404201
0.066825
-0.000673595
0.066524
-0.000922393
0.0662284
-0.00114718
0.0659331
-0.00134407
0.0656335
-0.00150885
0.0653263
-0.0016373
0.0650107
-0.00172609
0.0646926
-0.00176902
0.0549531
-0.00177975
0.0456374
-0.0017688
0.0379298
-0.0017433
0.0315411
-0.00170859
0.0262369
0.0218281
-0.0016691
0.00029853
0.0141378
0.0012907
0.039817
0.00241946
0.0594498
0.00303267
0.0701605
0.00304599
0.0734969
0.00273834
0.0732031
0.00234912
0.0720259
0.00196456
0.0709828
0.00159344
0.0701875
0.00123068
0.0695577
0.000873829
0.0690316
0.00052275
0.0685766
0.000178235
0.0681728
-0.000158564
0.067806
-0.000486067
0.0674652
-0.000802098
0.067141
-0.0011039
0.0668258
-0.00138816
0.0665127
-0.00165094
0.0661959
-0.00188778
0.0658703
-0.0020939
0.0655325
-0.00226494
0.0651817
-0.00239832
0.064826
-0.00248251
0.0550373
-0.00253011
0.045685
-0.00254997
0.0379496
-0.00254741
0.0315385
-0.00252719
0.0262167
0.0217959
-0.00249494
0.000214739
0.013923
0.000935216
0.0390965
0.00179577
0.0585893
0.0022993
0.069657
0.00233712
0.0734591
0.00209919
0.073441
0.00177695
0.0723481
0.00145019
0.0713096
0.00113145
0.0705062
0.000817437
0.0698717
0.000505745
0.0693433
0.000195881
0.0688865
-0.000111893
0.0684806
-0.00041684
0.068111
-0.000717685
0.067766
-0.00101265
0.067436
-0.00129942
0.0671126
-0.00157501
0.0667883
-0.00183577
0.0664566
-0.00207737
0.0661119
-0.00229504
0.0657501
-0.00248458
0.0653713
-0.0026444
0.0649858
-0.00276055
0.0551535
-0.00284516
0.0457696
-0.00290531
0.0380098
-0.00294231
0.0315755
-0.00295612
0.0262305
0.0217901
-0.00295036
0.000157781
0.0137653
0.00068832
0.038566
0.00134534
0.0579322
0.00175153
0.0692508
0.00179669
0.0734139
0.0016108
0.0736269
0.00134527
0.0726137
0.00107035
0.0715845
0.000799724
0.0707769
0.000531268
0.0701402
0.00026269
0.0696119
-6.83749e-06
0.069156
-0.00027739
0.0687511
-0.000548611
0.0683822
-0.000819684
0.0680371
-0.00108939
0.0677057
-0.00135599
0.0673791
-0.00161711
0.0670494
-0.00186967
0.0667092
-0.00210972
0.066352
-0.0023326
0.065973
-0.00253369
0.0655724
-0.00271058
0.0651627
-0.00284624
0.0552891
-0.00295504
0.0458784
-0.00304848
0.0381032
-0.00313118
0.0316582
-0.00320075
0.0263001
0.0218331
-0.00324373
0.000119964
0.0136453
0.000519044
0.0381669
0.00102692
0.0574244
0.00135406
0.0689237
0.00139874
0.0733692
0.00125158
0.0737741
0.00103253
0.0728327
0.000801855
0.0718151
0.000572908
0.0710058
0.000344364
0.0703687
0.00011413
0.0698421
-0.000118806
0.0693889
-0.00035476
0.0689871
-0.000593662
0.0686211
-0.000835161
0.0682786
-0.00107858
0.0679491
-0.0013228
0.0676234
-0.00156617
0.0672928
-0.00180635
0.0669494
-0.00204012
0.0665858
-0.00226329
0.0661962
-0.00247102
0.0657801
-0.00265862
0.0653503
-0.00280219
0.0554327
-0.00291392
0.0459902
-0.00301072
0.0382
-0.00310675
0.0317542
-0.00321972
0.0264131
0.0219733
-0.00335995
9.05081e-05
0.0135548
0.000398651
0.0378588
0.00079978
0.0570232
0.00106551
0.0686579
0.00110494
0.0733298
0.000984788
0.0738942
0.000802566
0.0730149
0.000609269
0.0720084
0.000416417
0.0711987
0.00022278
0.0705624
2.64236e-05
0.0700385
-0.000173611
0.069589
-0.000377784
0.0691912
-0.000586289
0.0688296
-0.000799141
0.0684914
-0.00101612
0.0681661
-0.00123671
0.067844
-0.00145995
0.067516
-0.00168432
0.0671737
-0.0019076
0.066809
-0.00212681
0.0664154
-0.00233823
0.0659915
-0.00253696
0.065549
-0.00269172
0.0555874
-0.00280324
0.0461017
-0.00287862
0.0382754
-0.00292791
0.0318035
-0.00296911
0.0264543
-0.00313828
0.0221425
0.00011247
0.0219827
0.000154566
0.0219853
0.000187721
0.0219942
0.000218533
0.0219965
0.000243529
0.0220024
0.000263995
0.0220069
0.000281431
0.0220099
0.000292551
0.0220162
0.000301665
0.0220182
0.000305758
0.0220233
0.000306783
0.0220263
0.00030528
0.0220289
0.000299332
0.0220333
0.00029178
0.0220349
0.000280975
0.0220382
0.00026786
0.0220405
0.000253406
0.0220418
0.00023597
0.0220448
0.000217464
0.0220459
0.000197713
0.0220471
0.000176392
0.0220487
0.000154448
0.0220493
0.000131828
0.02205
0.000108692
0.0220505
8.54378e-05
0.0220506
6.22338e-05
0.0220506
3.94658e-05
0.0220501
1.71299e-05
0.0220497
-4.45267e-06
0.0220489
-2.46412e-05
0.0220475
-4.39343e-05
0.0220466
-6.15003e-05
0.0220449
-7.70354e-05
0.0220429
-9.13062e-05
0.0220416
-0.000102272
0.0220383
-0.000111257
0.0220363
-0.000117955
0.0220341
-0.000120469
0.0220299
-0.000121193
0.0220281
-0.000117235
0.0220234
-0.000110109
0.0220202
-9.98512e-05
0.0220171
-8.37819e-05
0.0220113
-6.55435e-05
0.0220091
-4.05751e-05
0.0220024
-1.21533e-05
0.0219989
2.10879e-05
0.0219941
6.06974e-05
0.0219877
0.0219852
0.000102819
0.000177012
0.0219383
0.000219176
0.0219431
0.00025263
0.0219607
0.000283978
0.0219652
0.000309758
0.0219766
0.000331252
0.0219854
0.000349948
0.0219912
0.000362558
0.0220036
0.000373368
0.0220074
0.000379361
0.0220173
0.000382471
0.0220232
0.000383225
0.0220281
0.0003797
0.0220368
0.000374711
0.0220399
0.000366606
0.0220463
0.000356313
0.0220508
0.00034478
0.0220533
0.000330368
0.0220592
0.000314959
0.0220613
0.000298369
0.0220637
0.000280268
0.0220668
0.000261578
0.022068
0.000242237
0.0220693
0.000222397
0.0220703
0.000202433
0.0220706
0.000182504
0.0220705
0.000162991
0.0220696
0.000143866
0.0220688
0.000125442
0.0220674
0.000108355
0.0220646
9.20766e-05
0.0220629
7.74353e-05
0.0220596
6.47198e-05
0.0220556
5.31382e-05
0.0220532
4.47375e-05
0.0220467
3.8163e-05
0.0220429
3.37109e-05
0.0220385
3.32779e-05
0.0220303
3.44368e-05
0.0220269
4.00877e-05
0.0220177
4.86899e-05
0.0220116
6.01954e-05
0.0220056
7.72843e-05
0.0219942
9.62798e-05
0.0219901
0.000121753
0.0219769
0.000150393
0.0219703
0.00018355
0.021961
0.000222752
0.0219485
0.0219439
0.000264116
0.00023883
0.0218935
0.000281489
0.0219004
0.000315694
0.0219265
0.000348043
0.0219328
0.000375077
0.0219495
0.000398066
0.0219624
0.000418485
0.0219708
0.000433043
0.0219891
0.000446003
0.0219945
0.000454346
0.0220089
0.000459988
0.0220176
0.00046344
0.0220247
0.000462777
0.0220375
0.000460787
0.0220419
0.000455817
0.0220512
0.000448775
0.0220578
0.00044059
0.0220615
0.000429626
0.0220702
0.000417737
0.0220732
0.000404726
0.0220767
0.00039026
0.0220812
0.000375234
0.022083
0.000359577
0.022085
0.000343435
0.0220865
0.000327158
0.0220869
0.000310893
0.0220868
0.000295019
0.0220855
0.000279477
0.0220844
0.000264574
0.0220823
0.00025094
0.0220783
0.000238019
0.0220758
0.000226635
0.0220709
0.000217065
0.0220652
0.00020849
0.0220618
0.000202966
0.0220522
0.000199106
0.0220468
0.000197196
0.0220404
0.000199134
0.0220284
0.000202457
0.0220236
0.000210074
0.0220101
0.000220417
0.0220013
0.000233425
0.0219926
0.00025178
0.0219758
0.000271766
0.0219701
0.000297969
0.0219507
0.000327041
0.0219412
0.000360326
0.0219277
0.000399339
0.0219095
0.0219031
0.000440152
0.00029586
0.0218478
0.000339686
0.0218566
0.000375296
0.0218909
0.000409293
0.0218988
0.000438229
0.0219206
0.000463367
0.0219373
0.00048617
0.021948
0.000503346
0.0219719
0.000519135
0.0219787
0.000530514
0.0219975
0.00053938
0.0220087
0.000546227
0.0220178
0.000549129
0.0220346
0.000550846
0.0220402
0.00054972
0.0220524
0.000546642
0.0220609
0.000542519
0.0220657
0.000535717
0.022077
0.00052806
0.0220808
0.000519338
0.0220854
0.000509215
0.0220914
0.000498557
0.0220937
0.000487283
0.0220962
0.000475531
0.0220982
0.000463624
0.0220988
0.0004517
0.0220987
0.000440131
0.0220971
0.00042883
0.0220957
0.000418094
0.022093
0.000408548
0.0220878
0.000399606
0.0220848
0.00039209
0.0220785
0.000386263
0.022071
0.000381277
0.0220668
0.000379199
0.0220543
0.00037861
0.0220474
0.000379783
0.0220392
0.000384622
0.0220235
0.000390623
0.0220176
0.00040071
0.022
0.000413287
0.0219887
0.000428276
0.0219776
0.000448371
0.0219557
0.000469812
0.0219487
0.000497205
0.0219233
0.000527163
0.0219113
0.000561023
0.0218938
0.000600296
0.0218703
0.0218623
0.000641006
0.000341979
0.0218002
0.00038786
0.0218107
0.000425755
0.021853
0.000462282
0.0218623
0.000494001
0.0218889
0.000522178
0.0219091
0.000548264
0.0219219
0.000568967
0.0219512
0.000588503
0.0219591
0.000603846
0.0219822
0.000616875
0.0219957
0.000628068
0.0220066
0.000635493
0.0220272
0.000641883
0.0220338
0.000645575
0.0220487
0.000647439
0.022059
0.000648362
0.0220647
0.00064671
0.0220786
0.000644274
0.0220833
0.000640833
0.0220889
0.000636043
0.0220962
0.000630739
0.022099
0.000624833
0.0221022
0.000618449
0.0221046
0.000611885
0.0221053
0.000605265
0.0221053
0.000598956
0.0221034
0.00059284
0.0221018
0.000587202
0.0220986
0.000582664
0.0220924
0.000578604
0.0220888
0.000575845
0.0220812
0.000574633
0.0220722
0.000574091
0.0220673
0.000576299
0.0220521
0.000579802
0.0220439
0.000584861
0.0220342
0.000593387
0.022015
0.000602835
0.0220081
0.000616146
0.0219867
0.000631692
0.0219732
0.000649386
0.0219599
0.000671932
0.0219332
0.000695526
0.0219251
0.000724802
0.021894
0.000756333
0.0218797
0.000791453
0.0218587
0.000831673
0.02183
0.0218211
0.000872962
0.000369556
0.0217497
0.000418571
0.0217617
0.000459832
0.0218118
0.000499982
0.0218222
0.000535591
0.0218533
0.000567927
0.0218768
0.000598436
0.0218914
0.00062382
0.0219258
0.000648279
0.0219347
0.000668781
0.0219617
0.000687185
0.0219773
0.000703953
0.0219898
0.000717145
0.022014
0.000729468
0.0220215
0.000739249
0.0220389
0.00074734
0.0220509
0.000754602
0.0220575
0.000759401
0.0220738
0.000763493
0.0220792
0.000766643
0.0220857
0.000768497
0.0220943
0.00076986
0.0220976
0.000770629
0.0221014
0.000770918
0.0221043
0.000770993
0.0221052
0.000770965
0.0221053
0.000771192
0.0221032
0.000771522
0.0221014
0.00077223
0.0220979
0.000773928
0.0220907
0.000775961
0.0220868
0.000779146
0.022078
0.000783716
0.0220676
0.000788761
0.0220623
0.000796373
0.0220445
0.000805062
0.0220352
0.000815074
0.0220242
0.000828329
0.0220017
0.000842238
0.0219942
0.000859762
0.0219692
0.000879243
0.0219537
0.00090058
0.0219386
0.000926495
0.0219073
0.000953135
0.0218985
0.000985169
0.021862
0.00101913
0.0218458
0.00105634
0.0218215
0.00109833
0.0217881
0.0217784
0.001141
0.000369367
0.021695
0.000422787
0.0217083
0.000468704
0.0217659
0.000513793
0.0217771
0.000554634
0.0218124
0.0005925
0.0218389
0.000628833
0.0218551
0.00066033
0.0218943
0.000691177
0.0219038
0.000718329
0.0219345
0.000743631
0.021952
0.000767526
0.021966
0.00078806
0.0219934
0.000807917
0.0220016
0.000825409
0.0220214
0.000841368
0.022035
0.000856628
0.0220422
0.000869549
0.0220609
0.000881853
0.0220669
0.000893286
0.0220743
0.000903482
0.0220841
0.000913211
0.0220879
0.000922354
0.0220922
0.00093101
0.0220957
0.000939412
0.0220968
0.000947651
0.0220971
0.000956076
0.0220947
0.000964497
0.022093
0.000973172
0.0220893
0.000982706
0.0220811
0.000992403
0.0220771
0.00100308
0.0220674
0.00101494
0.0220558
0.00102704
0.0220502
0.0010415
0.02203
0.00105677
0.0220199
0.00107309
0.0220078
0.00109239
0.0219824
0.00111204
0.0219746
0.001135
0.0219462
0.00115961
0.0219291
0.00118573
0.0219124
0.00121612
0.0218769
0.00124687
0.0218677
0.00128269
0.0218262
0.00132006
0.0218084
0.00136032
0.0217812
0.00140499
0.0217434
0.0217335
0.00144991
0.000330864
0.0216348
0.000390108
0.021649
0.000442148
0.0217138
0.000493699
0.0217255
0.000541343
0.0217648
0.00058636
0.0217939
0.000630193
0.0218112
0.000669522
0.021855
0.000708531
0.0218648
0.000744155
0.0218989
0.000778223
0.0219179
0.000811159
0.021933
0.00084099
0.0219636
0.000870376
0.0219722
0.000897611
0.0219942
0.0009235
0.0220091
0.000948853
0.0220169
0.000972012
0.0220377
0.000994668
0.0220442
0.00101654
0.0220524
0.00103724
0.0220634
0.00105752
0.0220676
0.00107721
0.0220725
0.00109641
0.0220765
0.00111531
0.0220779
0.00113397
0.0220784
0.00115273
0.022076
0.00117135
0.0220744
0.00119008
0.0220705
0.0012095
0.0220617
0.00122887
0.0220577
0.001249
0.0220472
0.00127008
0.0220347
0.00129111
0.0220291
0.00131423
0.0220069
0.00133784
0.0219963
0.00136217
0.0219835
0.00138915
0.0219555
0.0014161
0.0219477
0.00144602
0.0219163
0.00147718
0.0218979
0.00150946
0.0218802
0.00154563
0.0218407
0.00158172
0.0218316
0.0016225
0.0217854
0.0016644
0.0217665
0.00170876
0.0217368
0.0017571
0.021695
0.0216854
0.0018052
0.000242054
0.0215675
0.000308715
0.0215824
0.000368545
0.021654
0.000428284
0.0216658
0.000484524
0.0217086
0.000538573
0.0217398
0.000591876
0.0217579
0.000641083
0.0218058
0.000690384
0.0218155
0.000736679
0.0218526
0.000781787
0.0218728
0.000826109
0.0218887
0.000867639
0.0219221
0.000909024
0.0219308
0.000948523
0.0219547
0.000986919
0.0219707
0.00102499
0.0219788
0.00106105
0.0220017
0.00109676
0.0220085
0.0011318
0.0220174
0.00116577
0.0220294
0.00119936
0.022034
0.00123239
0.0220395
0.00126491
0.0220439
0.00129707
0.0220458
0.00132892
0.0220466
0.00136075
0.0220441
0.00139229
0.0220429
0.00142374
0.0220391
0.00145567
0.0220298
0.00148729
0.0220261
0.00151938
0.0220151
0.00155211
0.022002
0.00158443
0.0219968
0.00161848
0.0219729
0.00165263
0.0219621
0.00168706
0.0219491
0.00172373
0.0219188
0.00175987
0.0219115
0.00179855
0.0218776
0.00183797
0.0218585
0.001878
0.0218401
0.00192145
0.0217973
0.00196427
0.0217888
0.00201131
0.0217384
0.00205892
0.0217189
0.00210847
0.0216873
0.0021615
0.021642
0.0216332
0.00221368
8.77734e-05
0.0214915
0.000163999
0.0215062
0.000233701
0.0215843
0.000303713
0.0215958
0.000370799
0.0216415
0.000436189
0.0216744
0.000501328
0.0216928
0.000562839
0.0217443
0.000624973
0.0217534
0.000684581
0.021793
0.000743477
0.0218139
0.00080204
0.0218301
0.000858218
0.0218659
0.000914652
0.0218744
0.000969553
0.0218998
0.00102367
0.0219166
0.00107777
0.0219247
0.00113009
0.0219494
0.00118228
0.0219563
0.00123398
0.0219657
0.00128473
0.0219787
0.00133518
0.0219836
0.00138512
0.0219896
0.00143454
0.0219945
0.00148355
0.0219968
0.00153214
0.021998
0.00158058
0.0219957
0.00162852
0.0219949
0.00167612
0.0219915
0.00172394
0.021982
0.00177108
0.021979
0.00181833
0.0219679
0.00186581
0.0219545
0.0019124
0.0219502
0.00196025
0.021925
0.00200766
0.0219147
0.00205478
0.021902
0.00210359
0.02187
0.00215123
0.0218639
0.00220081
0.0218281
0.00225049
0.0218088
0.0023001
0.0217905
0.00235252
0.0217449
0.00240359
0.0217377
0.00245826
0.0216837
0.00251282
0.0216643
0.00256865
0.0216315
0.00262729
0.0215834
0.0215761
0.00268436
-0.000145776
0.0214062
-5.98571e-05
0.0214202
2.10067e-05
0.0215034
0.000103754
0.021513
0.000184271
0.021561
0.000263762
0.0215949
0.000343325
0.0216132
0.000420032
0.0216676
0.000498077
0.0216754
0.000574207
0.0217169
0.000650246
0.0217379
0.000726554
0.0217538
0.000801018
0.0217914
0.000876289
0.0217991
0.000950512
0.0218255
0.00102441
0.0218427
0.0010987
0.0218504
0.00117157
0.0218765
0.00124463
0.0218833
0.00131744
0.0218929
0.00138951
0.0219066
0.00146142
0.0219117
0.00153289
0.0219181
0.00160386
0.0219235
0.00167437
0.0219263
0.00174433
0.021928
0.00181397
0.0219261
0.00188285
0.021926
0.00195107
0.0219233
0.00201913
0.0219139
0.00208606
0.0219121
0.00215258
0.0219014
0.00221878
0.0218883
0.00228343
0.0218856
0.0023487
0.0218597
0.00241278
0.0218507
0.0024758
0.021839
0.00253975
0.021806
0.00260166
0.021802
0.00266467
0.0217651
0.00272691
0.0217466
0.00278817
0.0217292
0.00285139
0.0216816
0.00291232
0.0216768
0.00297602
0.02162
0.00303868
0.0216017
0.00310173
0.0215684
0.00316676
0.0215183
0.0215136
0.00322926
-0.000476652
0.0213088
-0.000377406
0.021321
-0.000283255
0.0214093
-0.000187176
0.021417
-9.2459e-05
0.0214662
2.42029e-06
0.0215001
9.97403e-05
0.0215159
0.000194938
0.0215724
0.000292352
0.0215779
0.000388657
0.0216206
0.00048578
0.0216407
0.00058406
0.0216555
0.000681297
0.0216942
0.000780153
0.0217003
0.000878651
0.021727
0.000977488
0.0217438
0.00107732
0.0217506
0.00117626
0.0217776
0.00127584
0.0217837
0.00137558
0.0217931
0.00147488
0.0218073
0.00157425
0.0218123
0.00167331
0.021819
0.00177195
0.0218249
0.00187008
0.0218281
0.00196752
0.0218306
0.00206442
0.0218292
0.00216023
0.0218302
0.00225495
0.0218285
0.00234901
0.0218198
0.0024413
0.0218198
0.00253249
0.0218102
0.00262256
0.0217982
0.00271018
0.021798
0.00279751
0.0217724
0.00288261
0.0217656
0.00296555
0.021756
0.00304832
0.0217233
0.00312783
0.0217225
0.00320729
0.0216856
0.00328472
0.0216691
0.00335991
0.0216541
0.00343588
0.0216057
0.00350825
0.0216044
0.00358223
0.021546
0.00365393
0.02153
0.00372484
0.0214975
0.0037966
0.0214466
0.0214456
0.00386459
-0.000933157
0.0211992
-0.000820043
0.0212079
-0.000710265
0.0212995
-0.000596654
0.0213033
-0.000483012
0.0213526
-0.000368049
0.0213851
-0.00025067
0.0213985
-0.000134061
0.0214557
-1.37131e-05
0.0214576
0.000106989
0.0214999
0.000229748
0.021518
0.000354898
0.0215304
0.000480437
0.0215687
0.000608766
0.0215719
0.000737821
0.021598
0.000868256
0.0216134
0.00100057
0.0216183
0.00113273
0.0216454
0.00126625
0.0216501
0.00140051
0.0216589
0.00153481
0.021673
0.00166956
0.0216775
0.00180427
0.0216843
0.00193868
0.0216905
0.00207259
0.0216942
0.00220567
0.0216975
0.00233796
0.0216969
0.00246872
0.0216995
0.00259781
0.0216994
0.00272557
0.0216921
0.00285067
0.0216947
0.00297368
0.0216872
0.00309446
0.0216775
0.00321148
0.0216809
0.00332691
0.021657
0.0034386
0.0216539
0.00354654
0.0216481
0.00365274
0.0216171
0.00375389
0.0216213
0.00385332
0.0215862
0.00394892
0.0215735
0.00404046
0.0215625
0.00413109
0.0215151
0.00421627
0.0215192
0.00430145
0.0214608
0.00438264
0.0214488
0.0044614
0.0214187
0.00453951
0.0213685
0.0213729
0.00461221
-0.00154757
0.0210777
-0.00142035
0.0210807
-0.00129468
0.0211738
-0.00116299
0.0211717
-0.00102915
0.0212187
-0.000891667
0.0212476
-0.000748977
0.0212558
-0.000604999
0.0213118
-0.000455152
0.0213077
-0.000303186
0.0213479
-0.000147209
0.021362
1.28416e-05
0.0213703
0.000173758
0.0214077
0.000338821
0.0214069
0.000506567
0.0214302
0.000676999
0.021443
0.00085066
0.0214446
0.0010254
0.0214707
0.00120254
0.021473
0.00138131
0.0214801
0.00156089
0.0214934
0.00174156
0.0214969
0.00192265
0.0215032
0.00210378
0.0215094
0.0022845
0.0215135
0.00246432
0.0215177
0.00264308
0.0215181
0.00281977
0.0215228
0.00299405
0.0215252
0.00316606
0.0215201
0.00333417
0.0215266
0.00349879
0.0215225
0.00365956
0.0215167
0.00381468
0.0215258
0.00396628
0.0215054
0.00411192
0.0215082
0.00425144
0.0215086
0.00438689
0.0214816
0.00451466
0.0214935
0.00463818
0.0214626
0.00475522
0.0214565
0.00486552
0.0214522
0.00497238
0.0214082
0.0050711
0.0214205
0.00516746
0.0213645
0.00525738
0.0213589
0.00534262
0.0213335
0.00542514
0.021286
0.021298
0.00550009
-0.00236445
0.0209472
-0.00222466
0.0209409
-0.00208363
0.0210328
-0.00193319
0.0210212
-0.00177713
0.0210627
-0.00161367
0.0210842
-0.00144118
0.0210833
-0.00126383
0.0211344
-0.00107715
0.0211211
-0.000885379
0.0211561
-0.000686997
0.0211636
-0.00048212
0.0211655
-0.000273235
0.0211989
-5.81951e-05
0.0211918
0.000158965
0.0212131
0.00037993
0.021222
0.00060716
0.0212174
0.000836607
0.0212412
0.00106992
0.0212397
0.00130631
0.0212437
0.00154481
0.0212549
0.0017855
0.0212562
0.00202754
0.0212612
0.00227033
0.0212666
0.00251314
0.0212707
0.00275515
0.0212757
0.00299594
0.0212773
0.00323405
0.0212847
0.0034688
0.0212904
0.00369999
0.0212889
0.00392551
0.021301
0.00414548
0.0213026
0.0043592
0.021303
0.00456441
0.0213206
0.00476318
0.0213066
0.00495264
0.0213188
0.00513242
0.0213288
0.00530456
0.0213095
0.00546506
0.021333
0.00561752
0.0213102
0.00575947
0.0213146
0.0058906
0.0213211
0.0060145
0.0212843
0.00612621
0.0213088
0.00623206
0.0212586
0.00632791
0.021263
0.0064159
0.0212455
0.00649837
0.0212035
0.021226
0.00657033
-0.00284455
0.0208414
-0.00272787
0.0208242
-0.00260534
0.0209103
-0.00246749
0.0208834
-0.00231722
0.0209124
-0.00215352
0.0209205
-0.00197604
0.0209059
-0.00178974
0.0209481
-0.00159182
0.0209231
-0.00138692
0.0209512
-0.00117439
0.0209511
-0.000954881
0.020946
-0.000731195
0.0209752
-0.000501068
0.0209617
-0.000265753
0.0209778
-2.54755e-05
0.0209817
0.000216629
0.0209753
0.00046295
0.0209949
0.000714681
0.020988
0.000970775
0.0209876
0.00123041
0.0209953
0.00149359
0.020993
0.00175945
0.0209953
0.00202727
0.0209988
0.00229608
0.0210019
0.00256482
0.0210069
0.00283273
0.0210094
0.00309801
0.0210194
0.00335956
0.0210289
0.00361677
0.0210317
0.00386719
0.0210506
0.00411052
0.0210592
0.00434573
0.0210678
0.00457034
0.021096
0.00478601
0.0210909
0.00498985
0.0211149
0.00518133
0.0211373
0.00536222
0.0211286
0.00552872
0.0211665
0.0056841
0.0211548
0.00582602
0.0211726
0.00595416
0.0211929
0.00607172
0.0211667
0.00617414
0.0212064
0.00626717
0.0211656
0.00634717
0.021183
0.00641643
0.0211763
0.0064777
0.0211422
0.0211765
0.00652726
-0.00316107
0.0207587
-0.00307723
0.0207404
-0.00298391
0.0208169
-0.00286453
0.020764
-0.0027212
0.0207691
-0.0025558
0.0207551
-0.00237158
0.0207217
-0.00217587
0.0207524
-0.00196836
0.0207156
-0.00175438
0.0207373
-0.00153402
0.0207307
-0.00130808
0.02072
-0.00107897
0.0207461
-0.000844789
0.0207275
-0.000607292
0.0207403
-0.000365448
0.0207399
-0.000116905
0.0207267
0.000134286
0.0207437