/*--------------------------------*- C++ -*----------------------------------*\
| =========                 |                                                 |
| \\      /  F ield         | OpenFOAM: The Open Source CFD Toolbox           |
|  \\    /   O peration     | Version:  2312                                  |
|   \\  /    A nd           | Website:  www.openfoam.com                      |
|    \\/     M anipulation  |                                                 |
\*---------------------------------------------------------------------------*/
FoamFile
{
    version     2.0;
    format      ascii;
    arch        "LSB;label=32;scalar=64";
    class       volScalarField;
    location    "32.50762617641287";
    object      p;
}
// * * * * * * * * * * * * * * * * * * * * * * * * * * * * * * * * * * * * * //

dimensions      [0 2 -2 0 0 0 0];

internalField   nonuniform List<scalar> 
21039
(
0.597619
0.463831
0.421645
0.39341
0.372107
0.356051
0.343642
0.333779
0.32578
0.319193
0.313703
0.309081
0.305155
0.301794
0.298897
0.29638
0.294178
0.292234
0.290501
0.288939
0.287513
0.286193
0.28495
0.283824
0.28285
0.281986
0.281193
0.280441
0.279717
0.450526
0.412661
0.398837
0.380482
0.363733
0.350468
0.339745
0.330931
0.323631
0.317535
0.312401
0.308044
0.304322
0.301121
0.298351
0.295939
0.293824
0.291954
0.290284
0.288777
0.287397
0.286116
0.284905
0.283802
0.282836
0.281975
0.281183
0.280432
0.279708
0.36105
0.358658
0.360831
0.354102
0.345674
0.337899
0.330671
0.324172
0.318476
0.313523
0.309225
0.305498
0.30226
0.299442
0.296981
0.294823
0.29292
0.291231
0.289718
0.288349
0.28709
0.285916
0.2848
0.283771
0.282859
0.282037
0.281276
0.280549
0.279846
0.322883
0.325004
0.329488
0.328423
0.32582
0.322621
0.318843
0.314953
0.31122
0.307746
0.304576
0.301723
0.299175
0.296911
0.294904
0.293124
0.291543
0.290132
0.288863
0.287711
0.286648
0.285651
0.284697
0.283806
0.283002
0.282264
0.281569
0.280894
0.280231
0.297783
0.301757
0.307659
0.309386
0.309607
0.308903
0.307394
0.305495
0.303426
0.301315
0.299258
0.297313
0.295514
0.293872
0.292388
0.291056
0.289863
0.288795
0.287832
0.286957
0.286149
0.285388
0.284655
0.283955
0.283304
0.282686
0.282086
0.281484
0.280876
0.278044
0.283305
0.290665
0.294549
0.296578
0.297412
0.297372
0.296836
0.29599
0.294956
0.293839
0.29271
0.291614
0.290584
0.289634
0.288773
0.288001
0.287312
0.286697
0.286144
0.285638
0.285161
0.284698
0.284236
0.283777
0.283311
0.282831
0.282322
0.281784
0.265156
0.270183
0.277286
0.282246
0.285491
0.287462
0.288515
0.288993
0.289076
0.288893
0.28855
0.288119
0.287654
0.287192
0.286758
0.286367
0.286027
0.285739
0.2855
0.285303
0.285137
0.284988
0.284841
0.284664
0.284436
0.284156
0.283823
0.28343
0.282978
0.257724
0.261828
0.267574
0.272535
0.276265
0.27888
0.280661
0.281875
0.28267
0.283167
0.283463
0.28363
0.283722
0.283779
0.283831
0.283896
0.283988
0.284111
0.284268
0.284454
0.284662
0.28488
0.285096
0.28525
0.285296
0.285239
0.285085
0.284832
0.284486
0.253052
0.256254
0.260626
0.265128
0.268849
0.271682
0.273838
0.275511
0.276807
0.27782
0.278629
0.279296
0.279872
0.280397
0.280899
0.2814
0.281915
0.282453
0.283017
0.283607
0.284217
0.284838
0.28546
0.285996
0.286362
0.286566
0.286624
0.28654
0.286322
0.249486
0.251937
0.255266
0.259237
0.262765
0.265609
0.267926
0.269856
0.271479
0.272862
0.274066
0.275141
0.27613
0.277067
0.277981
0.278892
0.279817
0.280766
0.281744
0.282752
0.283788
0.284843
0.285905
0.286886
0.287618
0.288124
0.288431
0.288547
0.288485
0.24633
0.248177
0.250757
0.254217
0.257504
0.26029
0.26267
0.264748
0.266585
0.268233
0.269739
0.271143
0.272479
0.273777
0.275064
0.276358
0.277675
0.279026
0.280419
0.281857
0.28334
0.284863
0.286422
0.287856
0.288998
0.289853
0.290446
0.29079
0.290912
0.243275
0.244672
0.246723
0.249716
0.252751
0.255449
0.257843
0.260005
0.261987
0.263831
0.265572
0.267242
0.268872
0.270487
0.272109
0.273757
0.275447
0.277189
0.278993
0.280864
0.282806
0.284816
0.286896
0.288845
0.290445
0.291694
0.292615
0.293219
0.293531
0.24017
0.241252
0.242932
0.245524
0.248314
0.250907
0.25328
0.255485
0.257563
0.259551
0.261476
0.263365
0.265243
0.267134
0.269058
0.271032
0.273073
0.275192
0.277399
0.279701
0.282102
0.284608
0.287225
0.289721
0.291821
0.29351
0.29481
0.295725
0.296276
0.236953
0.237816
0.239231
0.241486
0.244049
0.246529
0.248861
0.251077
0.253215
0.255305
0.257371
0.259436
0.261523
0.263652
0.265845
0.268118
0.270489
0.272969
0.275567
0.27829
0.281142
0.28413
0.287273
0.290309
0.292913
0.295063
0.296772
0.298034
0.29886
0.233614
0.234323
0.235527
0.237485
0.239829
0.24219
0.244468
0.246675
0.248845
0.251003
0.253172
0.255373
0.257629
0.25996
0.262388
0.264933
0.267612
0.270436
0.273412
0.276542
0.279826
0.283266
0.286881
0.29038
0.293415
0.295974
0.298072
0.299689
0.300821
0.230442
0.231038
0.232076
0.23381
0.235976
0.238225
0.240443
0.242629
0.244809
0.247007
0.249245
0.251543
0.253925
0.256415
0.259038
0.261817
0.264768
0.267904
0.271227
0.274734
0.278408
0.282228
0.28618
0.289912
0.293075
0.295724
0.297939
0.299735
0.301098
0.227761
0.228284
0.229217
0.230807
0.232839
0.23499
0.237155
0.239324
0.241513
0.24374
0.246027
0.248397
0.250878
0.253496
0.256282
0.25926
0.262451
0.265867
0.269511
0.273371
0.277412
0.281567
0.285753
0.289473
0.292322
0.294426
0.296018
0.297334
0.298584
0.225546
0.22602
0.226881
0.228365
0.230292
0.232377
0.234521
0.236697
0.238903
0.24116
0.243492
0.245928
0.248497
0.251234
0.25417
0.257334
0.260753
0.264443
0.26841
0.272638
0.277079
0.281624
0.286099
0.289774
0.292012
0.292801
0.292372
0.291208
0.290386
0.223764
0.224287
0.225164
0.226546
0.228302
0.230274
0.232401
0.234605
0.23685
0.239148
0.241533
0.24404
0.246704
0.249562
0.25265
0.256003
0.259653
0.263627
0.267936
0.27257
0.277483
0.282553
0.287549
0.291517
0.293411
0.292702
0.289019
0.281758
0.270576
0.279009
0.278297
0.277591
0.27689
0.276194
0.2755
0.274808
0.274117
0.273427
0.272735
0.272042
0.271347
0.270648
0.269945
0.269238
0.268525
0.267807
0.267082
0.266351
0.265612
0.264866
0.264113
0.263352
0.262583
0.261807
0.261024
0.260233
0.259436
0.258633
0.257823
0.257008
0.256188
0.255363
0.254534
0.253703
0.252869
0.252034
0.251199
0.250364
0.24953
0.248699
0.247871
0.247047
0.246229
0.245416
0.244611
0.243813
0.243024
0.242244
0.279004
0.278301
0.277606
0.276917
0.27623
0.275547
0.274865
0.274184
0.273503
0.272821
0.272137
0.271451
0.27076
0.270065
0.269365
0.268658
0.267945
0.267225
0.266497
0.265762
0.265018
0.264266
0.263505
0.262736
0.261958
0.261173
0.260379
0.259578
0.258769
0.257954
0.257132
0.256305
0.255473
0.254636
0.253796
0.252953
0.252109
0.251263
0.250418
0.249573
0.248731
0.247891
0.247056
0.246225
0.2454
0.244583
0.243773
0.242972
0.24218
0.279165
0.278488
0.277818
0.277152
0.27649
0.275829
0.275169
0.274508
0.273846
0.273182
0.272514
0.271842
0.271165
0.270481
0.26979
0.269091
0.268383
0.267667
0.266941
0.266205
0.265459
0.264702
0.263936
0.263159
0.262372
0.261574
0.260768
0.259952
0.259127
0.258294
0.257453
0.256605
0.255752
0.254892
0.254028
0.253161
0.25229
0.251418
0.250545
0.249673
0.248801
0.247932
0.247066
0.246205
0.24535
0.244501
0.243659
0.242827
0.242004
0.279588
0.278951
0.278318
0.277686
0.277056
0.276426
0.275795
0.275161
0.274524
0.273881
0.273233
0.272577
0.271914
0.271241
0.270558
0.269865
0.269161
0.268444
0.267715
0.266974
0.266219
0.265452
0.264671
0.263878
0.263072
0.262253
0.261423
0.260581
0.259728
0.258865
0.257992
0.25711
0.25622
0.255323
0.25442
0.253512
0.2526
0.251684
0.250767
0.249849
0.248931
0.248014
0.2471
0.246189
0.245283
0.244383
0.24349
0.242605
0.241729
0.280284
0.279699
0.279113
0.278526
0.277938
0.277346
0.276751
0.276149
0.27554
0.274923
0.274296
0.273659
0.27301
0.272348
0.271673
0.270983
0.270279
0.269558
0.268821
0.268069
0.2673
0.266514
0.265712
0.264893
0.264059
0.263209
0.262344
0.261465
0.260572
0.259666
0.258748
0.257819
0.25688
0.255931
0.254975
0.254011
0.253041
0.252067
0.251089
0.250109
0.249128
0.248147
0.247167
0.246189
0.245216
0.244247
0.243283
0.242327
0.241379
0.281256
0.280737
0.280211
0.279679
0.279142
0.278598
0.278045
0.277482
0.276907
0.27632
0.275718
0.275101
0.274468
0.273817
0.273148
0.272459
0.271751
0.271023
0.270274
0.269504
0.268713
0.267902
0.26707
0.266217
0.265345
0.264453
0.263543
0.262615
0.26167
0.260708
0.259732
0.258741
0.257738
0.256723
0.255698
0.254663
0.25362
0.252571
0.251516
0.250457
0.249396
0.248333
0.24727
0.246209
0.245149
0.244094
0.243043
0.241998
0.240962
0.282531
0.28209
0.281635
0.28117
0.280694
0.280206
0.279704
0.279186
0.278651
0.278098
0.277524
0.27693
0.276313
0.275673
0.275008
0.274319
0.273604
0.272864
0.272097
0.271304
0.270484
0.269639
0.268768
0.267872
0.266951
0.266007
0.265039
0.264049
0.263039
0.262008
0.260959
0.259892
0.25881
0.257712
0.256602
0.255479
0.254346
0.253205
0.252056
0.250901
0.249741
0.248579
0.247415
0.246251
0.245088
0.243928
0.242771
0.241619
0.240477
0.284134
0.283784
0.283414
0.283026
0.282622
0.282199
0.281756
0.28129
0.2808
0.280285
0.279743
0.279173
0.278573
0.277944
0.277283
0.27659
0.275865
0.275108
0.274318
0.273495
0.27264
0.271752
0.270833
0.269883
0.268903
0.267894
0.266857
0.265792
0.264702
0.263588
0.262451
0.261292
0.260114
0.258917
0.257704
0.256476
0.255234
0.253982
0.252719
0.251449
0.250172
0.248891
0.247607
0.24632
0.245034
0.24375
0.242467
0.241191
0.239924
0.286082
0.285837
0.285563
0.285265
0.284944
0.284597
0.284221
0.283814
0.283376
0.282904
0.282397
0.281854
0.281273
0.280654
0.279996
0.279298
0.27856
0.277782
0.276964
0.276105
0.275207
0.274269
0.273293
0.27228
0.27123
0.270144
0.269024
0.267872
0.266688
0.265475
0.264233
0.262965
0.261674
0.260359
0.259024
0.257671
0.256301
0.254917
0.25352
0.252113
0.250697
0.249275
0.247848
0.246418
0.244988
0.243557
0.242128
0.240705
0.239293
0.288374
0.288243
0.288079
0.287887
0.287662
0.287401
0.287103
0.286764
0.286385
0.285963
0.285497
0.284985
0.284427
0.283821
0.283167
0.282464
0.281712
0.280912
0.280063
0.279164
0.278218
0.277225
0.276185
0.2751
0.27397
0.272797
0.271583
0.270329
0.269036
0.267707
0.266344
0.264949
0.263524
0.262071
0.260592
0.259091
0.257569
0.256029
0.254473
0.252904
0.251324
0.249735
0.24814
0.246541
0.244939
0.243338
0.241737
0.240144
0.238564
0.290991
0.290997
0.290939
0.290868
0.290751
0.290589
0.290382
0.290124
0.289816
0.289455
0.289039
0.288567
0.288039
0.287454
0.28681
0.286108
0.285347
0.284527
0.283649
0.282713
0.281719
0.280668
0.27956
0.278398
0.277182
0.275912
0.274593
0.273224
0.271808
0.270348
0.268845
0.267301
0.26572
0.264104
0.262456
0.26078
0.259076
0.25735
0.255604
0.253841
0.252064
0.250276
0.24848
0.246679
0.244875
0.243071
0.241267
0.239473
0.237697
0.293774
0.293976
0.29411
0.294186
0.294192
0.29411
0.294013
0.293854
0.293633
0.293349
0.293001
0.292587
0.292107
0.291559
0.290942
0.290256
0.2895
0.288674
0.28778
0.286815
0.285781
0.284678
0.283506
0.282267
0.280963
0.279592
0.27816
0.276666
0.275111
0.273501
0.271836
0.270119
0.268355
0.266544
0.264693
0.262805
0.260882
0.25893
0.256951
0.254951
0.252934
0.250902
0.248861
0.246813
0.244763
0.242713
0.240666
0.238631
0.23662
0.296713
0.297071
0.297356
0.297587
0.297762
0.29787
0.297905
0.29787
0.297747
0.297576
0.297332
0.297015
0.296618
0.296142
0.295586
0.29495
0.29423
0.293429
0.292546
0.291576
0.290524
0.289389
0.288166
0.286863
0.285476
0.284005
0.282455
0.280826
0.279118
0.277338
0.275485
0.273564
0.27158
0.269533
0.267432
0.265282
0.263083
0.260847
0.258576
0.256277
0.253956
0.251615
0.249265
0.246908
0.24455
0.242195
0.239845
0.237515
0.235218
0.299535
0.300088
0.300562
0.300976
0.301324
0.301605
0.301817
0.301958
0.302026
0.302007
0.301905
0.301861
0.301594
0.301248
0.300813
0.300286
0.299659
0.298936
0.298116
0.297189
0.296161
0.295029
0.293788
0.292443
0.290991
0.289429
0.287763
0.285991
0.284113
0.282136
0.280061
0.27789
0.275632
0.273287
0.270867
0.268378
0.265821
0.263212
0.260554
0.257859
0.255135
0.252387
0.24963
0.246867
0.244109
0.24136
0.238626
0.235923
0.23327
0.301765
0.302537
0.303242
0.303903
0.304512
0.305072
0.305574
0.306012
0.306379
0.306662
0.306853
0.306941
0.306934
0.306861
0.306685
0.306373
0.30594
0.305388
0.304717
0.303911
0.30298
0.301916
0.300711
0.29937
0.297887
0.296255
0.294482
0.292564
0.290496
0.28829
0.285944
0.283461
0.280853
0.27812
0.275277
0.272334
0.269293
0.266178
0.262992
0.259752
0.256474
0.253165
0.249848
0.246529
0.243228
0.239953
0.23671
0.233525
0.230419
0.302282
0.303235
0.304216
0.30526
0.306333
0.307409
0.308443
0.309407
0.310279
0.311034
0.311673
0.312178
0.312548
0.31278
0.312878
0.3129
0.312794
0.312526
0.312105
0.311517
0.310775
0.309867
0.308778
0.307512
0.306056
0.304399
0.302546
0.300489
0.298221
0.295754
0.293086
0.29022
0.287173
0.283944
0.280556
0.277022
0.273348
0.269564
0.265677
0.261712
0.257691
0.253626
0.249552
0.245482
0.24145
0.237476
0.233579
0.229794
0.226155
0.299944
0.300981
0.302415
0.304232
0.306227
0.308248
0.310167
0.31192
0.313478
0.314822
0.315975
0.316934
0.317722
0.318349
0.318806
0.319097
0.31921
0.319518
0.319376
0.319067
0.318596
0.317933
0.317051
0.315948
0.314602
0.312989
0.311114
0.308959
0.306512
0.303787
0.30078
0.297497
0.293961
0.290174
0.286167
0.28196
0.277563
0.273017
0.268331
0.263536
0.258657
0.25371
0.248736
0.243753
0.23881
0.233948
0.229216
0.224691
0.220437
0.290353
0.29184
0.295441
0.299873
0.304188
0.308036
0.311306
0.314037
0.31631
0.318194
0.31978
0.321106
0.322234
0.323198
0.324006
0.324685
0.325181
0.325508
0.325929
0.32601
0.325914
0.325611
0.325052
0.324226
0.323094
0.321616
0.319786
0.317578
0.314969
0.311978
0.308599
0.304846
0.30075
0.29632
0.291605
0.286632
0.281422
0.276031
0.270471
0.264783
0.25899
0.253101
0.247151
0.241137
0.2351
0.229073
0.223143
0.21751
0.212456
0.262139
0.273194
0.285752
0.296063
0.303801
0.309491
0.313698
0.316905
0.319438
0.321496
0.323229
0.324703
0.326
0.327161
0.328206
0.329178
0.330046
0.330776
0.33136
0.332088
0.332403
0.332533
0.332392
0.331951
0.331152
0.329924
0.328241
0.326058
0.323343
0.32012
0.316385
0.31216
0.307493
0.302405
0.296963
0.291213
0.28519
0.278969
0.272574
0.266058
0.259445
0.25274
0.245958
0.239048
0.231974
0.224644
0.216972
0.209027
0.201438
0.241482
0.2407
0.239864
0.238966
0.237991
0.236935
0.235825
0.234799
0.233959
0.233335
0.232961
0.23287
0.233109
0.23372
0.234758
0.236287
0.238385
0.241151
0.244712
0.249236
0.254948
0.262159
0.271317
0.283101
0.298609
0.319443
0.347292
0.389104
0.522582
0.241404
0.240606
0.239751
0.238829
0.237824
0.236729
0.235574
0.234499
0.233608
0.23293
0.232499
0.232348
0.232516
0.233044
0.233982
0.235388
0.237333
0.239902
0.243205
0.24738
0.252608
0.259125
0.267239
0.277341
0.290057
0.306327
0.324284
0.337722
0.3753
0.241195
0.24036
0.239461
0.238484
0.23741
0.236233
0.234977
0.233787
0.232776
0.231971
0.231402
0.231099
0.231093
0.231419
0.232115
0.233226
0.234803
0.236903
0.239592
0.242945
0.247043
0.25197
0.257779
0.264392
0.27162
0.279559
0.28586
0.283253
0.285366
0.240865
0.239968
0.238996
0.237931
0.236752
0.235446
0.234033
0.232668
0.231472
0.230471
0.229691
0.229155
0.228886
0.228907
0.229246
0.229926
0.230972
0.232406
0.234244
0.236492
0.239133
0.242115
0.245329
0.248502
0.251159
0.253265
0.25387
0.248931
0.246564
0.240439
0.239459
0.238387
0.237204
0.235883
0.234405
0.232786
0.231193
0.229761
0.228512
0.227467
0.226642
0.226054
0.225714
0.225635
0.225823
0.22628
0.226999
0.227961
0.229128
0.230434
0.231776
0.233021
0.23394
0.234112
0.233396
0.231198
0.224859
0.220692
0.239927
0.238841
0.237645
0.236315
0.234819
0.23313
0.231259
0.229392
0.22768
0.226144
0.224797
0.223651
0.222715
0.221992
0.221481
0.221177
0.221066
0.221124
0.221313
0.221579
0.221845
0.222
0.22191
0.221388
0.220042
0.217532
0.213185
0.205421
0.200019
0.239328
0.238114
0.236769
0.235262
0.233555
0.231616
0.22945
0.227266
0.225238
0.223382
0.221708
0.220223
0.218929
0.217822
0.216893
0.216128
0.215503
0.214985
0.214529
0.214074
0.213538
0.21281
0.211748
0.21017
0.207719
0.204018
0.198621
0.191161
0.18604
0.23864
0.237275
0.235752
0.234036
0.232082
0.229851
0.227347
0.224807
0.22243
0.220229
0.218212
0.216381
0.214731
0.213254
0.211935
0.210753
0.209677
0.208672
0.207686
0.206657
0.205504
0.204121
0.202379
0.200122
0.197072
0.192928
0.187576
0.181533
0.177377
0.237852
0.236308
0.234578
0.232618
0.230377
0.227812
0.224926
0.221992
0.219238
0.216676
0.214308
0.212132
0.21014
0.208318
0.206646
0.205098
0.203642
0.202238
0.200835
0.199375
0.197784
0.195974
0.193843
0.191275
0.188069
0.183996
0.179168
0.174568
0.171345
0.236939
0.235187
0.233215
0.230972
0.228401
0.225455
0.222142
0.218779
0.215625
0.21269
0.209973
0.207465
0.205153
0.20302
0.20104
0.199187
0.197425
0.195713
0.194006
0.19225
0.190384
0.188338
0.186035
0.183389
0.18025
0.17645
0.172233
0.168747
0.166298
0.235855
0.23386
0.231605
0.229034
0.226084
0.222708
0.218922
0.215096
0.211526
0.208215
0.205157
0.202338
0.19974
0.197338
0.195105
0.193009
0.191016
0.189086
0.187174
0.185236
0.18322
0.181069
0.178723
0.176112
0.173126
0.169663
0.166046
0.163376
0.161546
0.234522
0.232239
0.229653
0.2267
0.223315
0.219454
0.21515
0.210834
0.206839
0.203162
0.199785
0.196689
0.193846
0.191227
0.1888
0.186528
0.184378
0.182308
0.180279
0.178249
0.176173
0.174005
0.171696
0.169186
0.1664
0.163298
0.160241
0.158164
0.156795
0.23281
0.230184
0.227206
0.223808
0.219926
0.215525
0.210662
0.205842
0.201431
0.197412
0.193755
0.190429
0.187398
0.184624
0.182069
0.179693
0.177457
0.175323
0.173253
0.171207
0.169145
0.167029
0.164817
0.162459
0.159905
0.157164
0.154604
0.152951
0.151905
0.23048
0.227443
0.224002
0.220088
0.215646
0.21066
0.20522
0.199909
0.195119
0.19081
0.186936
0.183451
0.180305
0.177451
0.174845
0.172441
0.170197
0.168076
0.166037
0.164043
0.16206
0.160054
0.157988
0.15582
0.153516
0.151125
0.148994
0.147652
0.146829
0.227156
0.223621
0.219639
0.215142
0.210096
0.204513
0.198521
0.19278
0.18769
0.183182
0.179187
0.175639
0.172473
0.169633
0.167065
0.16472
0.162551
0.160518
0.158583
0.156708
0.154862
0.153015
0.151133
0.149182
0.147145
0.145097
0.143348
0.142248
0.141574
0.22235
0.218278
0.213749
0.208704
0.203137
0.197084
0.190706
0.18471
0.179489
0.174941
0.170971
0.167493
0.16443
0.161714
0.159284
0.157087
0.155074
0.153201
0.151431
0.149729
0.148062
0.146404
0.144727
0.143004
0.14123
0.139485
0.138041
0.137132
0.13656
0.21604
0.211442
0.206489
0.201108
0.195276
0.189027
0.18253
0.176513
0.171356
0.166932
0.163124
0.159833
0.15697
0.154459
0.152235
0.150241
0.148429
0.146754
0.145177
0.143666
0.142188
0.140719
0.139237
0.137728
0.136197
0.134711
0.133498
0.13273
0.132231
0.207541
0.202716
0.197839
0.192599
0.186889
0.180749
0.174377
0.168532
0.163587
0.159403
0.155852
0.152822
0.150216
0.147955
0.145972
0.144208
0.142615
0.14115
0.139774
0.138455
0.137162
0.135867
0.134553
0.133221
0.131896
0.130634
0.129618
0.128974
0.128535
0.195472
0.191871
0.188172
0.183648
0.178405
0.172599
0.166522
0.16098
0.156346
0.152478
0.149238
0.146507
0.144186
0.142192
0.140459
0.138929
0.137554
0.136293
0.13511
0.133971
0.132845
0.131699
0.130523
0.129356
0.128274
0.1273
0.126484
0.125888
0.125428
0.221953
0.222256
0.222949
0.22435
0.226293
0.228464
0.23071
0.232967
0.235243
0.237582
0.240028
0.242618
0.245389
0.24838
0.25163
0.255179
0.259067
0.263326
0.267973
0.273007
0.27839
0.284
0.289573
0.294014
0.29592
0.29407
0.286893
0.271988
0.240848
0.220156
0.22058
0.221386
0.222771
0.224625
0.226716
0.22892
0.231176
0.233489
0.235893
0.238424
0.24112
0.244017
0.247156
0.250582
0.25434
0.258476
0.263032
0.268038
0.273515
0.279466
0.285837
0.292449
0.298318
0.302114
0.30311
0.300677
0.29675
0.301191
0.218331
0.218836
0.219724
0.2211
0.22288
0.224891
0.227034
0.229266
0.231592
0.234037
0.236632
0.239408
0.242405
0.245668
0.249244
0.253189
0.25756
0.262415
0.267813
0.273823
0.280542
0.288089
0.296598
0.305613
0.3142
0.322638
0.331151
0.338561
0.355613
0.216452
0.216935
0.217794
0.219152
0.220932
0.222945
0.225078
0.2273
0.22963
0.232096
0.234729
0.237561
0.240632
0.24399
0.24769
0.251795
0.256375
0.26151
0.267297
0.273865
0.281428
0.290335
0.301095
0.313905
0.32782
0.343414
0.361388
0.377883
0.399941
0.214522
0.214968
0.215774
0.217098
0.218874
0.220897
0.223033
0.225252
0.227582
0.230058
0.232712
0.235579
0.238702
0.24213
0.245923
0.250153
0.254902
0.260272
0.266393
0.273454
0.28177
0.29192
0.304623
0.32073
0.338715
0.359468
0.383975
0.407383
0.433452
0.212541
0.212969
0.213741
0.215023
0.216765
0.218765
0.220883
0.223088
0.225408
0.22788
0.230537
0.233418
0.236564
0.24003
0.243877
0.248184
0.253043
0.258569
0.264923
0.272332
0.281172
0.292226
0.306123
0.32451
0.344283
0.367864
0.395036
0.424452
0.454096
0.210507
0.210923
0.21167
0.212909
0.214596
0.216548
0.218628
0.220801
0.223093
0.225541
0.228179
0.231044
0.234181
0.237643
0.241495
0.245818
0.250708
0.256288
0.262736
0.270291
0.279332
0.290803
0.304945
0.323689
0.345733
0.370011
0.39616
0.423679
0.451489
0.208413
0.208817
0.209537
0.210727
0.212351
0.214242
0.216267
0.21839
0.220634
0.223035
0.225626
0.228445
0.231534
0.234946
0.238746
0.243014
0.247847
0.253354
0.259739
0.267188
0.276093
0.28715
0.301784
0.320125
0.341327
0.363928
0.387134
0.410619
0.43413
0.206258
0.206648
0.20734
0.208474
0.210026
0.211843
0.213798
0.215854
0.218029
0.220359
0.222875
0.225612
0.228612
0.231924
0.235611
0.239749
0.244433
0.249716
0.255895
0.262898
0.271495
0.282165
0.296021
0.31278
0.331382
0.350892
0.37053
0.390051
0.408776
0.204041
0.204419
0.205079
0.206153
0.207623
0.209352
0.21122
0.213189
0.215275
0.217508
0.219919
0.222541
0.225409
0.22857
0.23208
0.236007
0.240467
0.245331
0.251106
0.257775
0.2657
0.275378
0.287509
0.30185
0.317256
0.333041
0.348617
0.364012
0.37826
0.20176
0.202123
0.202749
0.203759
0.205137
0.206767
0.208535
0.2104
0.212375
0.214487
0.216765
0.219236
0.221931
0.224891
0.228162
0.231793
0.235867
0.240428
0.245636
0.251626
0.258583
0.266846
0.276839
0.288326
0.300258
0.312039
0.323262
0.334251
0.344163
0.199414
0.199764
0.200356
0.201296
0.202577
0.204095
0.205746
0.207489
0.209333
0.211301
0.213418
0.215707
0.218192
0.220904
0.223882
0.227174
0.230825
0.234896
0.239443
0.244545
0.250323
0.256967
0.264665
0.273105
0.281458
0.289272
0.296313
0.303064
0.308951
0.197009
0.19735
0.197909
0.198778
0.19995
0.201342
0.202858
0.20446
0.206153
0.207955
0.209886
0.211962
0.214202
0.216629
0.219273
0.222167
0.225332
0.228795
0.232579
0.236694
0.241183
0.246109
0.251454
0.256857
0.261778
0.265961
0.269341
0.272445
0.27493
0.194544
0.194872
0.195392
0.196185
0.197246
0.198505
0.199878
0.201326
0.202851
0.204468
0.20619
0.208028
0.209996
0.212106
0.214375
0.216819
0.219441
0.222237
0.225194
0.228271
0.231427
0.234619
0.23767
0.240242
0.242105
0.243194
0.243591
0.243815
0.243713
0.192024
0.19234
0.192823
0.193537
0.194482
0.1956
0.196817
0.198098
0.19944
0.200856
0.202353
0.203935
0.205607
0.207375
0.209238
0.211198
0.213241
0.215338
0.217438
0.21946
0.221298
0.222821
0.223752
0.22383
0.223116
0.221709
0.219804
0.217905
0.216034
0.189455
0.189761
0.190207
0.190842
0.191665
0.192634
0.193685
0.194788
0.195934
0.197138
0.198397
0.199707
0.201066
0.202469
0.203907
0.205363
0.206807
0.208188
0.209427
0.210408
0.21098
0.210957
0.210003
0.207963
0.205162
0.201835
0.198242
0.194883
0.191949
0.18684
0.187135
0.187541
0.188094
0.188795
0.189614
0.190496
0.19141
0.192359
0.193342
0.194351
0.19538
0.196415
0.197443
0.198443
0.199387
0.200228
0.200897
0.201293
0.201277
0.200669
0.199256
0.196674
0.192892
0.188466
0.183732
0.178966
0.174675
0.171207
0.184187
0.184473
0.184839
0.185311
0.18589
0.186556
0.187262
0.187986
0.188732
0.189489
0.190245
0.190988
0.191695
0.192347
0.19291
0.193346
0.193595
0.193572
0.193163
0.192214
0.190535
0.187896
0.183941
0.17877
0.173126
0.167407
0.161858
0.156999
0.153335
0.181505
0.181785
0.182113
0.182506
0.182963
0.183471
0.183998
0.184531
0.185071
0.185601
0.186105
0.186562
0.186945
0.187224
0.18736
0.187301
0.186979
0.186299
0.185135
0.183328
0.180686
0.176982
0.171883
0.165623
0.159092
0.152712
0.146657
0.141474
0.137828
0.178798
0.179072
0.179359
0.179674
0.180011
0.180363
0.180719
0.181066
0.181401
0.181708
0.181964
0.182141
0.182209
0.182129
0.181854
0.181326
0.180467
0.179174
0.177317
0.174734
0.171238
0.166614
0.16057
0.153469
0.146317
0.139536
0.133191
0.127868
0.124387
0.176076
0.176345
0.176593
0.176833
0.177048
0.177259
0.177443
0.177606
0.177745
0.177836
0.177853
0.177764
0.177532
0.177113
0.176456
0.175493
0.174142
0.172294
0.169817
0.166549
0.162311
0.156903
0.150082
0.142337
0.134775
0.127797
0.121334
0.116029
0.112863
0.173347
0.173607
0.173825
0.173994
0.174102
0.174163
0.17418
0.174169
0.17412
0.174006
0.173798
0.173459
0.172949
0.172219
0.171212
0.169858
0.168069
0.165734
0.162717
0.158862
0.153994
0.147928
0.140465
0.132217
0.124391
0.117369
0.110929
0.105794
0.103131
0.170619
0.170874
0.17107
0.171173
0.171169
0.171085
0.170945
0.170768
0.170542
0.170238
0.169822
0.169254
0.168491
0.167481
0.166164
0.164467
0.1623
0.159552
0.156088
0.151751
0.14637
0.139766
0.131773
0.123101
0.115069
0.108074
0.101741
0.096919
0.0949999
0.167899
0.16815
0.168318
0.168354
0.168244
0.168028
0.167747
0.167419
0.167031
0.166555
0.165951
0.165178
0.16419
0.162935
0.161351
0.159366
0.15689
0.153812
0.149999
0.145298
0.139538
0.132535
0.12413
0.115088
0.106835
0.0998339
0.0935882
0.0891587
0.0882279
0.165196
0.165448
0.165593
0.165567
0.165356
0.165013
0.164597
0.164131
0.163602
0.162973
0.162205
0.161253
0.160072
0.158611
0.156809
0.154594
0.151881
0.148563
0.144514
0.139585
0.133605
0.126375
0.117719
0.108376
0.0998338
0.0926511
0.0862728
0.0821853
0.0825315
0.162515
0.162761
0.162876
0.162787
0.162482
0.162028
0.161498
0.160921
0.160274
0.159517
0.158608
0.157506
0.156166
0.154539
0.152568
0.150186
0.147311
0.143847
0.13968
0.134673
0.128664
0.121444
0.112804
0.103379
0.0945875
0.0870033
0.0799731
0.0757834
0.0776411
0.159881
0.160175
0.160319
0.160191
0.159769
0.159156
0.15848
0.157786
0.157037
0.156177
0.155156
0.153935
0.152473
0.150723
0.148635
0.146146
0.143186
0.13967
0.135501
0.130569
0.124732
0.117771
0.109412
0.100155
0.0912599
0.0832179
0.0750426
0.0694927
0.071929
0.163644
0.146085
0.121443
0.0896212
0.0533582
0.0176034
-0.0150999
-0.0448793
-0.072355
-0.101213
-0.131133
-0.165043
-0.200035
-0.232812
-0.259264
-0.276793
-0.285535
-0.287811
-0.287375
0.172356
0.159498
0.136072
0.103765
0.0643039
0.0222339
-0.019642
-0.0608792
-0.100444
-0.143491
-0.186746
-0.230524
-0.272557
-0.309356
-0.3376
-0.356132
-0.366301
-0.3708
-0.372459
0.168923
0.157373
0.135341
0.103333
0.0619183
0.0152627
-0.033737
-0.0861977
-0.138815
-0.191814
-0.244713
-0.296416
-0.344066
-0.384246
-0.414464
-0.434465
-0.446132
-0.452193
-0.455208
0.15999
0.148659
0.128566
0.0972315
0.0539429
0.00247082
-0.0538087
-0.113479
-0.17497
-0.237163
-0.299106
-0.358648
-0.412077
-0.455751
-0.487727
-0.50863
-0.521101
-0.528132
-0.532109
0.147751
0.137493
0.119202
0.088553
0.0441679
-0.0103174
-0.0716423
-0.137717
-0.207098
-0.278161
-0.348473
-0.41456
-0.472062
-0.51756
-0.550091
-0.5713
-0.58443
-0.592413
-0.597229
0.131014
0.121506
0.104908
0.0756855
0.0315548
-0.0243676
-0.0891679
-0.16084
-0.237159
-0.315484
-0.392149
-0.462644
-0.522412
-0.568739
-0.601738
-0.623775
-0.638339
-0.64807
-0.654517
0.110213
0.100052
0.0841469
0.0562365
0.0130103
-0.0433385
-0.110226
-0.185532
-0.266302
-0.348839
-0.428426
-0.499812
-0.558639
-0.603172
-0.634557
-0.655687
-0.670135
-0.680117
-0.686827
0.086417
0.0744625
0.0578782
0.0302551
-0.0122779
-0.0683784
-0.135782
-0.212238
-0.294366
-0.377692
-0.456705
-0.525877
-0.581522
-0.623029
-0.65235
-0.672547
-0.686941
-0.697186
-0.704237
0.0605446
0.046326
0.0280471
-0.000430749
-0.0428504
-0.0983214
-0.164898
-0.240347
-0.321027
-0.401903
-0.47701
-0.54108
-0.591442
-0.628536
-0.654819
-0.673277
-0.686884
-0.696808
-0.703695
0.0334566
0.0170175
-0.00338244
-0.0334175
-0.0762271
-0.130937
-0.195837
-0.268794
-0.346022
-0.422157
-0.491217
-0.548654
-0.592949
-0.625401
-0.648703
-0.665603
-0.678667
-0.688704
-0.696022
0.00609555
-0.0122553
-0.0347613
-0.0665648
-0.110069
-0.164083
-0.226906
-0.296356
-0.368413
-0.437547
-0.498221
-0.54704
-0.583698
-0.610132
-0.629034
-0.642823
-0.653594
-0.66195
-0.668006
-0.0204499
-0.0402336
-0.0644827
-0.0977669
-0.141843
-0.195035
-0.255424
-0.3206
-0.386335
-0.447293
-0.498895
-0.539115
-0.568655
-0.589732
-0.604786
-0.615797
-0.624354
-0.630982
-0.6357
-0.0451785
-0.0658349
-0.0912553
-0.125376
-0.169484
-0.221426
-0.278992
-0.339507
-0.398677
-0.45168
-0.49509
-0.528087
-0.552011
-0.569077
-0.581376
-0.590503
-0.59768
-0.603442
-0.607647
-0.0673976
-0.0884045
-0.114409
-0.148657
-0.192129
-0.242263
-0.29651
-0.351887
-0.40415
-0.449241
-0.48498
-0.511554
-0.530645
-0.544281
-0.554172
-0.561561
-0.567361
-0.572081
-0.575494
-0.0867069
-0.107618
-0.133667
-0.167379
-0.209546
-0.257266
-0.307691
-0.357613
-0.403084
-0.441011
-0.470368
-0.492024
-0.507714
-0.519153
-0.527659
-0.53416
-0.539325
-0.543605
-0.546722
-0.103079
-0.123557
-0.149209
-0.181859
-0.222189
-0.267057
-0.313422
-0.358016
-0.397376
-0.429373
-0.453856
-0.472048
-0.485563
-0.495785
-0.50371
-0.510023
-0.515238
-0.519714
-0.523087
-0.116838
-0.136674
-0.16164
-0.192901
-0.231062
-0.272761
-0.314816
-0.354044
-0.387649
-0.414454
-0.434961
-0.450508
-0.46246
-0.471863
-0.479425
-0.485629
-0.490868
-0.495386
-0.498798
-0.128429
-0.147521
-0.171634
-0.201342
-0.237175
-0.275587
-0.313356
-0.347557
-0.376156
-0.398783
-0.416326
-0.430057
-0.441052
-0.450049
-0.457514
-0.463764
-0.469098
-0.473665
-0.477106
-0.138383
-0.156721
-0.179946
-0.208095
-0.241647
-0.276937
-0.310807
-0.340683
-0.365228
-0.384644
-0.399994
-0.412406
-0.422699
-0.431369
-0.438707
-0.444914
-0.450228
-0.454744
-0.458138
-0.147259
-0.164925
-0.187371
-0.214089
-0.245446
-0.277664
-0.307758
-0.333651
-0.354688
-0.371468
-0.385059
-0.396374
-0.405983
-0.414194
-0.421177
-0.42706
-0.432044
-0.436203
-0.439284
-0.155458
-0.172641
-0.19457
-0.220101
-0.249406
-0.278653
-0.305204
-0.327594
-0.345743
-0.360443
-0.372636
-0.383003
-0.391918
-0.399559
-0.406025
-0.411408
-0.415884
-0.419538
-0.422202
-0.163282
-0.180329
-0.202174
-0.226826
-0.254136
-0.28036
-0.30345
-0.322664