/*--------------------------------*- C++ -*----------------------------------*\
| =========                 |                                                 |
| \\      /  F ield         | OpenFOAM: The Open Source CFD Toolbox           |
|  \\    /   O peration     | Version:  2312                                  |
|   \\  /    A nd           | Website:  www.openfoam.com                      |
|    \\/     M anipulation  |                                                 |
\*---------------------------------------------------------------------------*/
FoamFile
{
    version     2.0;
    format      ascii;
    arch        "LSB;label=32;scalar=64";
    class       surfaceScalarField;
    location    "32.50762617641287";
    object      phi;
}
// * * * * * * * * * * * * * * * * * * * * * * * * * * * * * * * * * * * * * //

dimensions      [0 3 -1 0 0 0 0];

oriented        oriented;

internalField   nonuniform List<scalar> 
41713
(
0.00736435
0.0568821
0.00362758
0.0679832
0.00211554
0.0657585
0.00148278
0.0648792
0.0010966
0.0646326
0.00084196
0.0645011
0.000666308
0.0644221
0.000538732
0.064374
0.000442621
0.0643425
0.000368319
0.0643207
0.000309702
0.0643051
0.000262716
0.0642934
0.000224595
0.0642846
0.000193401
0.0642776
0.00016774
0.0642721
0.000146593
0.0642676
0.000129198
0.0642638
0.000114975
0.0642607
0.000103468
0.0642579
9.42997e-05
0.0642556
8.71174e-05
0.0642536
8.15667e-05
0.064252
7.73697e-05
0.0642506
7.43427e-05
0.0548142
7.18088e-05
0.0456785
6.95176e-05
0.0380656
6.74463e-05
0.0317215
6.55995e-05
0.0264347
0.022029
6.39376e-05
0.00999432
0.0468878
0.00842769
0.0695498
0.00571487
0.0684713
0.00412046
0.0664736
0.00311902
0.065634
0.00242683
0.0651933
0.00192811
0.0649208
0.00155742
0.0647447
0.00127444
0.0646255
0.00105338
0.0645418
0.000877311
0.0644811
0.000734845
0.0644359
0.000618137
0.0644013
0.000521648
0.0643741
0.000441393
0.0643524
0.000374454
0.0643345
0.000318663
0.0643196
0.000272387
0.0643069
0.000234368
0.064296
0.000203621
0.0642864
0.000179343
0.0642779
0.000160836
0.0642705
0.000147394
0.0642641
0.000139047
0.0548225
0.000133717
0.0456838
0.000130015
0.0380693
0.000127134
0.0317244
0.000124668
0.0264372
0.0220311
0.000122588
0.00859637
0.0382914
0.00970838
0.0684378
0.00746974
0.0707099
0.0056999
0.0682434
0.00451081
0.0668231
0.00362473
0.0660793
0.00294143
0.0656041
0.00240931
0.0652768
0.0019897
0.0650451
0.00165402
0.0648775
0.00138185
0.0647533
0.00115856
0.0646592
0.000973595
0.0645862
0.000819261
0.0645285
0.000689891
0.0644817
0.000581272
0.0644431
0.000490241
0.0644107
0.000414398
0.0643828
0.000351905
0.0643585
0.000301332
0.0643369
0.000261543
0.0643177
0.000231598
0.0643004
0.000210549
0.0642851
0.000198387
0.0548347
0.000191473
0.0456908
0.000187303
0.0380735
0.000184408
0.0317273
0.000182064
0.0264395
0.022033
0.000180144
0.00677483
0.0315166
0.00947563
0.065737
0.00812112
0.0720644
0.00644094
0.0699236
0.00524971
0.0680144
0.00434413
0.0669849
0.00361258
0.0663357
0.0030157
0.0658737
0.00252633
0.0655345
0.00212244
0.0652814
0.00178676
0.065089
0.00150589
0.06494
0.00126954
0.0648226
0.00106981
0.0647282
0.000900669
0.0646509
0.000757501
0.0645863
0.000636766
0.0645314
0.000535743
0.0644838
0.000452331
0.0644419
0.000384895
0.0644044
0.000332145
0.0643704
0.000293012
0.0643396
0.000266343
0.0643118
0.00025186
0.0548492
0.000244459
0.0456982
0.000240641
0.0380773
0.000238401
0.0317295
0.000236813
0.0264411
0.0220342
0.000235683
0.00506469
0.0264519
0.00857057
0.0622312
0.00818345
0.0724516
0.00674006
0.071367
0.00558523
0.0691692
0.00470995
0.0678602
0.00399261
0.067053
0.00338933
0.066477
0.00287914
0.0660447
0.00244612
0.0657144
0.0020773
0.0654578
0.00176218
0.0652552
0.00149228
0.0650925
0.00126085
0.0649596
0.00106249
0.0648492
0.000892977
0.0647558
0.000748971
0.0646754
0.000627873
0.0646049
0.000527655
0.0645421
0.000446732
0.0644853
0.000383852
0.0644333
0.00033796
0.0643855
0.000307802
0.064342
0.000292682
0.0548643
0.000286154
0.0457047
0.000283833
0.0380796
0.000283262
0.0317301
0.000283329
0.026441
0.0220337
0.000283774
0.00361771
0.0228342
0.00731225
0.0585366
0.00778642
0.0719774
0.00672922
0.0724242
0.00566987
0.0702286
0.00484613
0.0686839
0.00416695
0.0677322
0.00358389
0.0670601
0.00307902
0.0665496
0.00264079
0.0661526
0.0022597
0.0658389
0.00192787
0.065587
0.00163888
0.0653815
0.00138744
0.0652111
0.00116928
0.0650674
0.000980942
0.0649442
0.000819679
0.0648367
0.000683326
0.0647413
0.000570194
0.0646552
0.000478971
0.0645765
0.000408631
0.0645037
0.000358285
0.0644358
0.000326734
0.0643735
0.000312714
0.0548783
0.00030852
0.0457089
0.000308966
0.0380792
0.000311186
0.0317279
0.000313901
0.0264383
0.0220308
0.000316788
0.00252198
0.0203122
0.00601988
0.0550387
0.00710277
0.0708945
0.00647671
0.0730503
0.00556786
0.0711374
0.00481552
0.0694363
0.00418927
0.0683584
0.00364187
0.0676075
0.0031573
0.0670341
0.00272793
0.066582
0.00234747
0.0662194
0.00201048
0.065924
0.00171244
0.0656795
0.00144956
0.0654739
0.00121873
0.0652982
0.00101745
0.0651454
0.000843708
0.0650104
0.00069596
0.064889
0.000573028
0.0647781
0.000474042
0.0646755
0.000398357
0.0645793
0.000345402
0.0644888
0.000314171
0.0644047
0.000302715
0.0548898
0.000302143
0.0457095
0.000306528
0.0380748
0.000312626
0.0317218
0.000318998
0.0264319
0.0220246
0.000325247
0.0017574
0.0185548
0.00488892
0.0519072
0.00632636
0.0694571
0.00608427
0.0732924
0.00534446
0.0718772
0.00466882
0.0701119
0.00409883
0.0689284
0.00359394
0.0681124
0.00313793
0.0674901
0.00272568
0.0669942
0.00235366
0.0665914
0.00201872
0.0662589
0.00171807
0.0659802
0.00144935
0.0657427
0.00121063
0.0655369
0.00100035
0.0653557
0.000817337
0.0651934
0.000660726
0.0650456
0.000529965
0.0649089
0.000424744
0.0647807
0.000344923
0.0646592
0.000290371
0.0645433
0.000260408
0.0644347
0.00025243
0.0548978
0.000256402
0.0457055
0.000265682
0.0380655
0.000276645
0.0317108
0.000287656
0.0264209
0.022014
0.000298199
0.00124624
0.0173085
0.00396755
0.0491859
0.005571
0.0678536
0.00563518
0.0732282
0.00505965
0.0724528
0.00445546
0.0707161
0.00393451
0.0694493
0.00346954
0.0685773
0.00304316
0.0679165
0.00265083
0.0673866
0.00229075
0.0669515
0.00196144
0.0665882
0.00166158
0.06628
0.00139005
0.0660142
0.00114599
0.065781
0.000928744
0.065573
0.000737955
0.0653842
0.000573503
0.0652101
0.000435506
0.0650469
0.000324293
0.0648919
0.000240341
0.0647431
0.000184069
0.0645996
0.000155207
0.0644636
0.00015083
0.0549021
0.000159687
0.0456966
0.000174394
0.0380508
0.000190923
0.0316943
0.000207407
0.0264045
0.0219983
0.000223143
0.000911448
0.0163971
0.00323672
0.0468606
0.00487981
0.0662105
0.00517281
0.0729352
0.00474803
0.0728775
0.004209
0.0712551
0.00372713
0.0699312
0.0032945
0.06901
0.00289368
0.0683174
0.00251955
0.0677607
0.00217106
0.0672999
0.00184777
0.0669115
0.00154936
0.0665784
0.00127567
0.0662879
0.00102671
0.06603
0.000802646
0.065797
0.000603872
0.065583
0.000430983
0.065383
0.000284809
0.0651931
0.000166391
0.0650103
7.69194e-05
0.0648326
1.7565e-05
0.0646589
-1.11661e-05
0.0644923
-1.31869e-05
0.0549042
-2.63736e-07
0.0456837
1.95301e-05
0.038031
4.15943e-05
0.0316722
6.37125e-05
0.0263823
0.021977
8.50256e-05
0.000693245
0.0157038
0.00266315
0.0448907
0.00426528
0.0646084
0.00471804
0.0724824
0.00442556
0.07317
0.00394641
0.0717343
0.00349528
0.0703823
0.00308674
0.0694185
0.00270544
0.0686986
0.00234541
0.0681207
0.00200569
0.0676397
0.00168641
0.0672308
0.0013879
0.0668769
0.00111067
0.0665651
0.000855386
0.0662852
0.000622889
0.0660295
0.00041423
0.0657916
0.000230706
0.0655665
7.37811e-05
0.06535
-5.48521e-05
0.065139
-0.000153283
0.064931
-0.00021958
0.0647252
-0.000252538
0.0645252
-0.000254697
0.0549063
-0.000239303
0.0456683
-0.000215405
0.0380071
-0.000188222
0.031645
-0.00016054
0.0263546
0.0219503
-0.000133804
0.000548062
0.0151558
0.00221286
0.0432259
0.00372709
0.0630942
0.00428251
0.071927
0.00410117
0.0733514
0.00367649
0.072159
0.00324958
0.0708093
0.00285766
0.0698104
0.00248958
0.0690667
0.00213866
0.0684716
0.00180368
0.0679746
0.001485
0.0675495
0.00118335
0.0671786
0.000899664
0.0668488
0.000635103
0.0665498
0.000391041
0.0662736
0.000169067
0.0660136
-2.90249e-05
0.0657646
-0.000201156
0.0655221
-0.00034488
0.0652827
-0.000457411
0.0650435
-0.000535922
0.0648038
-0.000578264
0.0645676
-0.000585518
0.0549136
-0.000571478
0.0456543
-0.000545992
0.0379816
-0.000515005
0.031614
-0.000481952
0.0263216
0.0219172
-0.000448924
0.000446692
0.0147091
0.00185576
0.0418168
0.00325852
0.0616914
0.00387244
0.0713131
0.00378098
0.0734428
0.00340489
0.072535
0.00299701
0.0712171
0.00261524
0.0701922
0.00225429
0.0694277
0.00190728
0.0688187
0.0015725
0.0683094
0.00125027
0.0678717
0.000941518
0.0674874
0.000647431
0.0671429
0.000369506
0.0668277
0.000109432
0.0665337
-0.000130864
0.0662539
-0.000349078
0.0659828
-0.000542445
0.0657155
-0.000707783
0.065448
-0.000841589
0.0651774
-0.000940235
0.0649024
-0.00100074
0.0646281
-0.00102104
0.0549339
-0.00101508
0.0456483
-0.000993341
0.0379599
-0.000962579
0.0315833
-0.000927138
0.0262862
0.0218801
-0.000890031
0.000371493
0.0143376
0.00156819
0.0406201
0.00285056
0.0604091
0.0034902
0.0706734
0.00346908
0.0734639
0.00313561
0.0728685
0.00274272
0.07161
0.00236576
0.0705692
0.00200643
0.069787
0.00165827
0.0691668
0.00131902
0.0686487
0.000988778
0.068202
0.000668442
0.0678077
0.000359333
0.067452
6.29665e-05
0.0671241
-0.000218811
0.0668154
-0.000483712
0.0665188
-0.000728905
0.066228
-0.000951059
0.0659377
-0.00114639
0.0656434
-0.00131076
0.0653417
-0.00144
0.0650316
-0.00153075
0.0647188
-0.00157621
0.0549793
-0.00158961
0.0456617
-0.00158129
0.0379516
-0.00155826
0.0315603
-0.00152584
0.0262537
0.0218427
-0.00148841
0.000312407
0.0140252
0.00133447
0.0395981
0.00249735
0.0592462
0.0031383
0.0700325
0.00316888
0.0734334
0.00287131
0.0731661
0.00249002
0.0719913
0.00211369
0.0709455
0.00175129
0.0701494
0.00139737
0.0695208
0.00104921
0.0689968
0.000706532
0.0685446
0.000370055
0.0681442
4.08891e-05
0.0677811
-0.000279482
0.0674445
-0.000589129
0.0671251
-0.000885437
0.0668151
-0.00116522
0.0665078
-0.00142467
0.0661971
-0.00165946
0.0658782
-0.00186491
0.0655472
-0.00203672
0.0652034
-0.00217228
0.0648544
-0.00225941
0.0550665
-0.0023102
0.0457125
-0.00233328
0.0379746
-0.0023338
0.0315608
-0.00231646
0.0262364
0.0218131
-0.00228681
0.000227231
0.013798
0.000974511
0.0388508
0.001866
0.0583547
0.00239558
0.0695029
0.00245045
0.0733785
0.00222282
0.0733937
0.00190845
0.0723057
0.00158959
0.0712643
0.00127917
0.0704598
0.000973626
0.0698263
0.000670304
0.0693002
0.000368576
0.0688464
6.86965e-05
0.068444
-0.00022871
0.0680785
-0.000522588
0.0677383
-0.000811276
0.0674138
-0.00109258
0.0670964
-0.00136369
0.0667789
-0.00162108
0.0664545
-0.00186056
0.0661176
-0.00207748
0.0657641
-0.00226769
0.0653937
-0.00242959
0.0650163
-0.00254859
0.0551855
-0.00263635
0.0458003
-0.00269977
0.0380381
-0.00274001
0.031601
-0.00275688
0.0262533
0.0218101
-0.00275388
0.000168685
0.0136293
0.000722695
0.0382968
0.001407
0.0576704
0.00183674
0.0690732
0.00189792
0.0733173
0.00172192
0.0735697
0.00146381
0.0725638
0.00119616
0.071532
0.000933147
0.0707228
0.000672471
0.070087
0.000411613
0.069561
0.000149703
0.0691083
-0.000113484
0.0687072
-0.000377691
0.0683427
-0.000642238
0.0680029
-0.000906025
0.0676776
-0.00116745
0.0673578
-0.00142429
0.0670357
-0.00167361
0.0667038
-0.0019116
0.0663556
-0.00213371
0.0659862
-0.00233541
0.0655954
-0.00251421
0.0651951
-0.0026525
0.0553237
-0.00276421
0.045912
-0.00286068
0.0381345
-0.0029465
0.0316868
-0.00301922
0.026326
0.0218561
-0.00306525
0.000129351
0.0134999
0.000548786
0.0378774
0.00108043
0.0571387
0.00142848
0.0687251
0.00148776
0.073258
0.00134979
0.0737077
0.00113755
0.072776
0.000913402
0.0717561
0.000691281
0.070945
0.000469731
0.0703085
0.000246457
0.0697843
2.03995e-05
0.0693343
-0.000208801
0.0689364
-0.000441297
0.0685752
-0.000676811
0.0682384
-0.000914772
0.0679155
-0.0011542
0.0675973
-0.00139358
0.0672751
-0.00163071
0.066941
-0.00186253
0.0665874
-0.00208495
0.0662086
-0.00229322
0.0658036
-0.00248263
0.0653845
-0.00262862
0.0554697
-0.00274298
0.0460263
-0.0028424
0.0382339
-0.00294109
0.0317855
-0.003057
0.0264419
0.0219995
-0.00320038
9.8538e-05
0.0134014
0.000424136
0.0375518
0.000845823
0.056717
0.00112992
0.068441
0.00118243
0.0732055
0.0010706
0.0738195
0.000894452
0.0729522
0.000706914
0.0719437
0.00052009
0.0711318
0.000332658
0.070496
0.000142524
0.0699744
-5.13637e-05
0.0695282
-0.000249546
0.0691346
-0.000452308
0.068778
-0.000659762
0.0684459
-0.000871797
0.0681276
-0.00108802
0.0678135
-0.0013076
0.0674947
-0.00152916
0.0671625
-0.00175062
0.0668089
-0.00196912
0.0664271
-0.00218101
0.0660155
-0.0023814
0.0655849
-0.00253826
0.0556266
-0.00265195
0.04614
-0.00272916
0.0383112
-0.00277975
0.0318361
-0.00282174
0.0264839
-0.00299145
0.0221692
0.000108438
0.0219829
0.000150424
0.0219854
0.00018347
0.0219943
0.000214176
0.0219966
0.000239066
0.0220025
0.000259428
0.022007
0.000276762
0.02201
0.000287781
0.0220163
0.000296795
0.0220183
0.000300791
0.0220234
0.000301719
0.0220264
0.000300122
0.022029
0.00029408
0.0220334
0.000286436
0.022035
0.000275541
0.0220383
0.000262339
0.0220406
0.000247799
0.0220419
0.000230278
0.0220449
0.000211689
0.0220459
0.000191856
0.0220472
0.000170456
0.0220488
0.000148435
0.0220494
0.000125739
0.0220501
0.000102528
0.0220506
7.92022e-05
0.0220507
5.59279e-05
0.0220506
3.30909e-05
0.0220502
1.06881e-05
0.0220498
-1.09595e-05
0.022049
-3.12114e-05
0.0220476
-5.0565e-05
0.0220467
-6.81893e-05
0.022045
-8.37805e-05
0.0220429
-9.81045e-05
0.0220417
-0.000109121
0.0220384
-0.000118155
0.0220364
-0.0001249
0.0220341
-0.000127458
0.0220299
-0.000128224
0.0220281
-0.000124305
0.0220234
-0.000117216
0.0220203
-0.000106992
0.0220171
-9.09548e-05
0.0220113
-7.2745e-05
0.0220091
-4.78028e-05
0.0220024
-1.94039e-05
0.021999
1.38171e-05
0.0219941
5.34088e-05
0.0219878
0.0219852
9.55158e-05
0.000166734
0.0219387
0.00020859
0.0219435
0.000241736
0.0219612
0.00027278
0.0219656
0.000298258
0.021977
0.000319453
0.0219858
0.000337854
0.0219916
0.000350169
0.022004
0.00036069
0.0220078
0.000366396
0.0220177
0.000369224
0.0220236
0.000369698
0.0220285
0.000365897
0.0220372
0.000360637
0.0220403
0.000352264
0.0220466
0.000341707
0.0220511
0.000329915
0.0220537
0.000315247
0.0220595
0.000299588
0.0220616
0.000282752
0.022064
0.000264409
0.0220671
0.000245483
0.0220683
0.00022591
0.0220696
0.000205843
0.0220706
0.000185658
0.0220709
0.000165513
0.0220708
0.000145789
0.0220699
0.000126458
0.0220691
0.000107834
0.0220676
9.05518e-05
0.0220649
7.40854e-05
0.0220632
5.9261e-05
0.0220598
4.6368e-05
0.0220558
3.4616e-05
0.0220534
2.60497e-05
0.0220469
1.93165e-05
0.0220431
1.47126e-05
0.0220387
1.41329e-05
0.0220305
1.5153e-05
0.0220271
2.06707e-05
0.0220179
2.91467e-05
0.0220118
4.05333e-05
0.0220057
5.75092e-05
0.0219943
7.63999e-05
0.0219903
0.000101774
0.021977
0.000130323
0.0219704
0.000163396
0.0219611
0.00020252
0.0219486
0.021944
0.000243815
0.000224378
0.0218945
0.000266534
0.0219014
0.000300237
0.0219275
0.000332089
0.0219338
0.000358627
0.0219504
0.000381126
0.0219633
0.000401058
0.0219717
0.000415133
0.0219899
0.000427616
0.0219953
0.000435485
0.0220098
0.000440659
0.0220184
0.000443649
0.0220255
0.000442528
0.0220383
0.000440088
0.0220427
0.000434673
0.022052
0.000427192
0.0220586
0.000418576
0.0220623
0.000407186
0.0220709
0.000394879
0.0220739
0.000381457
0.0220774
0.000366587
0.022082
0.000351166
0.0220837
0.000335122
0.0220857
0.000318599
0.0220872
0.00030195
0.0220875
0.000285323
0.0220874
0.000269093
0.0220861
0.000253206
0.022085
0.000237967
0.0220829
0.000224003
0.0220789
0.000210763
0.0220764
0.00019907
0.0220715
0.000189199
0.0220657
0.000180334
0.0220623
0.000174528
0.0220527
0.000170397
0.0220473
0.000168227
0.0220409
0.000169912
0.0220288
0.000172995
0.022024
0.00018038
0.0220105
0.000190503
0.0220017
0.000203301
0.0219929
0.000221456
0.0219762
0.000241255
0.0219705
0.000267279
0.021951
0.000296184
0.0219415
0.000329313
0.0219279
0.00036818
0.0219098
0.0219033
0.00040886
0.000280699
0.0218495
0.000323827
0.0218582
0.00035874
0.0218925
0.000392046
0.0219004
0.000420293
0.0219222
0.000444748
0.0219388
0.000466872
0.0219496
0.000483374
0.0219734
0.000498494
0.0219802
0.000509211
0.0219991
0.00051742
0.0220102
0.000523619
0.0220193
0.000525878
0.0220361
0.000526961
0.0220416
0.000525208
0.0220538
0.000521511
0.0220623
0.000516779
0.022067
0.000509376
0.0220783
0.000501126
0.0220822
0.000491823
0.0220867
0.000481127
0.0220927
0.000469907
0.0220949
0.000458082
0.0220975
0.000445788
0.0220995
0.000433351
0.0221
0.000420908
0.0220998
0.00040883
0.0220982
0.000397034
0.0220968
0.000385814
0.0220941
0.000375796
0.0220889
0.000366394
0.0220858
0.00035843
0.0220795
0.000352166
0.022072
0.000346759
0.0220677
0.00034427
0.0220552
0.000343284
0.0220482
0.000344074
0.0220401
0.00034854
0.0220243
0.000354185
0.0220184
0.000363927
0.0220008
0.000376173
0.0219894
0.000390846
0.0219783
0.000410636
0.0219564
0.000431789
0.0219493
0.000458906
0.0219239
0.000488602
0.0219118
0.000522215
0.0218943
0.000561255
0.0218707
0.0218628
0.000601747
0.000330472
0.0218028
0.000375465
0.0218132
0.000412474
0.0218555
0.000448118
0.0218648
0.000478958
0.0218914
0.000506259
0.0219115
0.000531474
0.0219243
0.00055131
0.0219536
0.000569985
0.0219615
0.000584474
0.0219846
0.000596654
0.021998
0.000607007
0.0220089
0.000613599
0.0220295
0.000619164
0.0220361
0.00062204
0.0220509
0.000623098
0.0220612
0.000623224
0.0220669
0.000620785
0.0220808
0.000617573
0.0220854
0.000613367
0.022091
0.000607823
0.0220982
0.000601778
0.022101
0.000595142
0.0221041
0.000588041
0.0221066
0.000580772
0.0221072
0.000573462
0.0221072
0.000566475
0.0221052
0.000559696
0.0221036
0.000553409
0.0221004
0.000548235
0.022094
0.000543555
0.0220905
0.000540189
0.0220828
0.000538385
0.0220738
0.000537268
0.0220688
0.000538914
0.0220536
0.000541871
0.0220453
0.0005464
0.0220356
0.00055441
0.0220163
0.00056336
0.0220094
0.000576187
0.021988
0.000591267
0.0219743
0.00060851
0.021961
0.000630621
0.0219343
0.000653797
0.0219261
0.00068267
0.021895
0.000713816
0.0218807
0.000748568
0.0218596
0.000788436
0.0218309
0.0218218
0.000829392
0.000366238
0.0217533
0.000414181
0.0217653
0.00045437
0.0218153
0.000493449
0.0218257
0.00052799
0.0218568
0.00055926
0.0218803
0.000588704
0.0218949
0.000613029
0.0219293
0.000636433
0.0219381
0.000655885
0.0219651
0.000673245
0.0219807
0.000688975
0.0219932
0.000701138
0.0220173
0.000712438
0.0220247
0.000721207
0.0220421
0.000728294
0.0220541
0.000734562
0.0220606
0.000738378
0.022077
0.000741498
0.0220823
0.000743687
0.0220888
0.000744593
0.0220973
0.000745021
0.0221006
0.000744867
0.0221043
0.000744247
0.0221072
0.000743427
0.022108
0.000742519
0.0221081
0.00074188
0.0221059
0.00074136
0.0221041
0.000741233
0.0221005
0.000742112
0.0220932
0.000743341
0.0220893
0.00074574
0.0220804
0.000749539
0.02207
0.00075383
0.0220645
0.000760705
0.0220467
0.000768673
0.0220373
0.000777982
0.0220262
0.000790552
0.0220038
0.000803793
0.0219962
0.000820666
0.0219711
0.000839515
0.0219555
0.000860237
0.0219403
0.000885556
0.021909
0.000911617
0.0219001
0.000943091
0.0218636
0.000976507
0.0218472
0.0010132
0.0218229
0.00105469
0.0217894
0.0217796
0.00109687
0.000378693
0.0216999
0.000430856
0.0217131
0.000475518
0.0217707
0.000519348
0.0217819
0.000558932
0.0218172
0.000595539
0.0218437
0.000630614
0.0218598
0.000660855
0.021899
0.000690447
0.0219085
0.000716349
0.0219392
0.000740404
0.0219566
0.000763056
0.0219706
0.000782356
0.021998
0.000800983
0.0220061
0.000817255
0.0220259
0.000832002
0.0220394
0.000846058
0.0220466
0.000857788
0.0220652
0.000868909
0.0220711
0.000879171
0.0220785
0.000888209
0.0220883
0.000896793
0.022092
0.000904803
0.0220963
0.000912342
0.0220996
0.000919639
0.0221007
0.000926789
0.0221009
0.00093414
0.0220985
0.000941502
0.0220967
0.000949135
0.0220929
0.000957644
0.0220847
0.000966331
0.0220806
0.000976011
0.0220707
0.000986898
0.0220591
0.000998044
0.0220534
0.00101156
0.0220332
0.00102591
0.022023
0.00104133
0.0220108
0.00105974
0.0219853
0.00107852
0.0219774
0.00110064
0.021949
0.00112441
0.0219317
0.00114972
0.021915
0.00117932
0.0218794
0.0012093
0.0218701
0.00124436
0.0218285
0.001281
0.0218106
0.00132055
0.0217833
0.00136452
0.0217454
0.0217354
0.00140877
0.000357021
0.021641
0.000414842
0.0216553
0.000465452
0.0217201
0.000515557
0.0217318
0.000561751
0.021771
0.000605312
0.0218001
0.000647682
0.0218175
0.000685551
0.0218612
0.000723096
0.021871
0.000757258
0.0219051
0.000789865
0.021924
0.000821341
0.0219391
0.00084972
0.0219696
0.000877656
0.0219782
0.000903447
0.0220001
0.000927902
0.0220149
0.000951824
0.0220227
0.000973567
0.0220435
0.000994812
0.0220499
0.00101528
0.022058
0.0010346
0.0220689
0.0010535
0.0220731
0.00107183
0.0220779
0.00108968
0.0220818
0.00110724
0.0220832
0.00112458
0.0220836
0.00114203
0.022081
0.00115937
0.0220794
0.00117682
0.0220754
0.00119498
0.0220665
0.00121311
0.0220625
0.00123201
0.0220518
0.00125188
0.0220392
0.00127172
0.0220335
0.00129366
0.0220113
0.00131611
0.0220005
0.0013393
0.0219876
0.00136517
0.0219595
0.00139101
0.0219516
0.00141984
0.0219201
0.00144994
0.0219016
0.00148117
0.0218838
0.00151632
0.0218442
0.0015514
0.021835
0.00159119
0.0217887
0.00163212
0.0217697
0.00167553
0.0217399
0.00172295
0.021698
0.0216882
0.00177014
0.000288848
0.0215753
0.000353882
0.0215903
0.00041204
0.0216619
0.000470122
0.0216737
0.000524718
0.0217164
0.00057711
0.0217477
0.000628739
0.0217658
0.00067627
0.0218136
0.000723883
0.0218234
0.000768491
0.0218605
0.000811906
0.0218806
0.000854533
0.0218965
0.000894374
0.0219298
0.000934068
0.0219385
0.000971883
0.0219623
0.0010086
0.0219782
0.00104499
0.0219863
0.00107939
0.0220091
0.00111344
0.0220158
0.00114683
0.0220246
0.00117916
0.0220366
0.00121111
0.0220411
0.00124252
0.0220465
0.00127344
0.0220509
0.00130401
0.0220526
0.00133427
0.0220533
0.00136454
0.0220508
0.00139452
0.0220494
0.00142443
0.0220455
0.00145484
0.0220361
0.00148494
0.0220323
0.00151554
0.0220213
0.00154679
0.022008
0.00157764
0.0220027
0.00161025
0.0219786
0.00164296
0.0219678
0.00167597
0.0219546
0.00171125
0.0219242
0.00174601
0.0219168
0.00178332
0.0218828
0.0018214
0.0218635
0.00186011
0.0218451
0.00190225
0.0218021
0.00194378
0.0217935
0.00198955
0.0217429
0.00203591
0.0217233
0.00208423
0.0216916
0.00213604
0.0216462
0.0216372
0.00218704
0.0001593
0.0215011
0.000233183
0.0215164
0.000300788
0.0215943
0.000368883
0.0216056
0.000433971
0.0216514
0.000497349
0.0216843
0.000560502
0.0217027
0.000620068
0.0217541
0.000680248
0.0217632
0.000737906
0.0218028
0.000794848
0.0218237
0.000851452
0.0218398
0.000905679
0.0218756
0.000960156
0.021884
0.00101311
0.0219093
0.00106528
0.0219261
0.00111742
0.0219341
0.00116781
0.0219587
0.00121806
0.0219656
0.00126783
0.0219749
0.00131666
0.0219878
0.0013652
0.0219926
0.00141323
0.0219985
0.00146077
0.0220033
0.0015079
0.0220055
0.00155461
0.0220066
0.00160119
0.0220042
0.00164727
0.0220033
0.00169304
0.0219997
0.00173902
0.0219901
0.00178435
0.021987
0.0018298
0.0219758
0.00187549
0.0219623
0.00192029
0.0219579
0.00196639
0.0219325
0.00201204
0.0219221
0.00205742
0.0219092
0.00210452
0.0218771
0.00215045
0.0218709
0.00219834
0.0218349
0.00224634
0.0218155
0.00229429
0.0217971
0.00234507
0.0217513
0.00239452
0.021744
0.00244758
0.0216899
0.00250055
0.0216704
0.00255481
0.0216373
0.00261191
0.0215891
0.0215817
0.00266744
-5.07552e-05
0.021418
3.40193e-05
0.0214316
0.000113394
0.0215149
0.000194023
0.021525
0.000272115
0.0215733
0.000349121
0.0216073
0.00042662
0.0216252
0.000501145
0.0216796
0.000576946
0.0216874
0.000650832
0.0217289
0.000724623
0.0217499
0.000798676
0.0217658
0.000870897
0.0218033
0.000943914
0.021811
0.00101589
0.0218373
0.00108755
0.0218544
0.00115958
0.0218621
0.00123022
0.0218881
0.00130103
0.0218948
0.00137161
0.0219043
0.00144145
0.0219179
0.00151113
0.0219229
0.00158037
0.0219293
0.00164914
0.0219346
0.00171744
0.0219372
0.0017852
0.0219388
0.00185265
0.0219368
0.00191934
0.0219366
0.00198538
0.0219337
0.00205128
0.0219242
0.00211604
0.0219223
0.00218041
0.0219114
0.00224446
0.0218982
0.00230697
0.0218954
0.00237012
0.0218694
0.00243209
0.0218602
0.002493
0.0218483
0.00255485
0.0218153
0.00261467
0.0218111
0.00267561
0.021774
0.00273579
0.0217554
0.002795
0.0217379
0.00285619
0.0216901
0.0029151
0.0216851
0.00297679
0.0216282
0.00303746
0.0216097
0.00309855
0.0215763
0.00316163
0.021526
0.0215211
0.0032222
-0.000353831
0.0213229
-0.000257503
0.0213353
-0.000166141
0.0214236
-7.25195e-05
0.0214314
2.03242e-05
0.0214804
0.000113505
0.0215141
0.000208144
0.0215305
0.000300682
0.021587
0.000395435
0.0215927
0.000489181
0.0216352
0.000583754
0.0216553
0.000679475
0.0216701
0.000774161
0.0217087
0.000870426
0.0217147
0.000966345
0.0217414
0.00106261
0.0217581
0.00115985
0.0217648
0.00125622
0.0217917
0.00135323
0.0217978
0.00145038
0.0218071
0.00154711
0.0218212
0.00164391
0.0218261
0.00174041
0.0218328
0.00183648
0.0218385
0.00193204
0.0218416
0.00202692
0.021844
0.00212127
0.0218424
0.00221452
0.0218434
0.00230669
0.0218415
0.0023982
0.0218327
0.00248793
0.0218325
0.00257657
0.0218228
0.0026641
0.0218107
0.00274917
0.0218103
0.00283397
0.0217846
0.00291653
0.0217776
0.00299693
0.0217679
0.00307718
0.021735
0.00315416
0.0217341
0.00323111
0.021697
0.00330603
0.0216804
0.00337872
0.0216652
0.0034522
0.0216166
0.00352208
0.0216152
0.0035936
0.0215566
0.00366285
0.0215404
0.00373132
0.0215078
0.00380066
0.0214567
0.0214555
0.00386625
-0.000783017
0.0212159
-0.000672513
0.0212248
-0.000565466
0.0213165
-0.00045474
0.0213206
-0.000344347
0.02137
-0.000232804
0.0214026
-0.000118378
0.0214161
-4.65791e-06
0.0214733
0.00011284
0.0214752
0.00023051
0.0215175
0.000350272
0.0215355
0.00047288
0.0215475
0.000595556
0.021586
0.000721006
0.0215893
0.000847189
0.0216152
0.00097467
0.0216307
0.00110402
0.0216355
0.00123324
0.0216625
0.00136381
0.0216672
0.00149512
0.0216758
0.00162648
0.0216898
0.00175828
0.0216943
0.00189004
0.021701
0.00202151
0.021707
0.00215246
0.0217107
0.00228259
0.0217138
0.00241193
0.0217131
0.00253972
0.0217156
0.00266584
0.0217154
0.00279063
0.0217079
0.00291274
0.0217104
0.00303277
0.0217028
0.00315056
0.0216929
0.00326457
0.0216963
0.003377
0.0216722
0.00348568
0.0216689
0.00359059
0.021663
0.00369377
0.0216318
0.0037919
0.021636
0.0038883
0.0216006
0.00398088
0.0215879
0.0040694
0.0215767
0.00415701
0.021529
0.00423917
0.0215331
0.00432135
0.0214745
0.00439954
0.0214622
0.00447533
0.021432
0.00455047
0.0213815
0.0213858
0.00462022
-0.00137003
0.0210975
-0.00124611
0.0211009
-0.00112377
0.0211942
-0.00099543
0.0211923
-0.000864913
0.0212395
-0.000730826
0.0212685
-0.000591618
0.0212769
-0.00045114
0.0213328
-0.000304826
0.0213288
-0.000156244
0.0213689
-3.68322e-06
0.021383
0.00015204
0.0213917
0.000309366
0.0214286
0.000471446
0.0214272
0.000635812
0.0214509
0.000802918
0.0214636
0.000973276
0.0214651
0.00114464
0.0214911
0.0013184
0.0214934
0.00149382
0.0215004
0.00167006
0.0215136
0.00184738
0.021517
0.00202513
0.0215233
0.00220291
0.0215292
0.00238026
0.0215333
0.00255671
0.0215374
0.00273209
0.0215377
0.00290538
0.0215423
0.00307624
0.0215446
0.00324482
0.0215393
0.00340948
0.0215457
0.00357063
0.0215416
0.00372792
0.0215356
0.00387952
0.0215447
0.00402759
0.0215241
0.00416968
0.0215268
0.00430564
0.0215271
0.00443751
0.0215
0.00456168
0.0215118
0.00468161
0.0214807
0.00479503
0.0214744
0.0049017
0.02147
0.00500493
0.0214258
0.00510001
0.021438
0.00519276
0.0213817
0.00527905
0.0213759
0.00536068
0.0213504
0.0054396
0.0213026
0.0213144
0.00551097
-0.0021601
0.0209708
-0.0020242
0.020965
-0.00188714
0.0210571
-0.00174076
0.0210459
-0.00158884
0.0210876
-0.00142958
0.0211093
-0.00126128
0.0211086
-0.00108814
0.0211597
-0.000905713
0.0211464
-0.000718216
0.0211814
-0.000524087
0.0211888
-0.000322959
0.0211906
-0.000118215
0.0212239
9.17117e-05
0.0212173
0.00030485
0.0212377
0.000522771
0.0212456
0.000745775
0.0212421
0.000971417
0.0212655
0.00120106
0.0212638
0.00143375
0.0212677
0.00166853
0.0212788
0.00190549
0.02128
0.00214379
0.021285
0.00238283
0.0212902
0.00262185
0.0212943
0.00286006
0.0212992
0.00309702
0.0213007
0.00333128
0.021308
0.00356214
0.0213137
0.00378942
0.0213121
0.00401098
0.0213242
0.00422695
0.0213256
0.00443665
0.0213259
0.00463778
0.0213436
0.00483245
0.0213294
0.00501777
0.0213415
0.00519337
0.0213515
0.00536131
0.021332
0.00551756
0.0213555
0.00566576
0.0213325
0.0058034
0.0213368
0.00593022
0.0213432
0.00604978
0.0213062
0.00615714
0.0213306
0.00625864
0.0212802
0.00635013
0.0212844
0.00643377
0.0212667
0.0065119
0.0212244
0.0212468
0.00657954
-0.0026519
0.0208688
-0.00253919
0.0208523
-0.00242073
0.0209387
-0.00228702
0.0209122
-0.00214095
0.0209415
-0.00198148
0.0209498
-0.00180824
0.0209354
-0.00162616
0.0209776
-0.00143246
0.0209527
-0.00123176
0.0209807
-0.00102346
0.0209805
-0.000808178
0.0209753
-0.000588563
0.0210043
-0.000362057
0.0209908
-0.000131184
0.0210069
0.000102976
0.0210115
0.000341488
0.0210036
0.000585438
0.0210215
0.000834114
0.0210151
0.00108702
0.0210148
0.00134338
0.0210225
0.00160321
0.0210202
0.00186566
0.0210225
0.00213004
0.0210258
0.00239536
0.021029
0.00266058
0.021034
0.00292493
0.0210364
0.00318661
0.0210464
0.00344451
0.0210558
0.00369804
0.0210585
0.00394472
0.0210775
0.00418426
0.0210861
0.00441562
0.0210946
0.00463633
0.0211229
0.00484806
0.0211177
0.00504789
0.0211417
0.00523532
0.021164
0.0054121
0.0211552
0.00557446
0.0211932
0.00572565
0.0211813
0.00586335
0.0211991
0.00598723
0.0212193
0.0061005
0.021193
0.0061986
0.0212325
0.00628729
0.0211915
0.00636293
0.0212088
0.00642783
0.0212018
0.00648474
0.0211675
0.0212015
0.00652997
-0.00298639
0.02079
-0.00290658
0.0207724
-0.00281738
0.0208495
-0.00270218
0.020797
-0.00256303
0.0208024
-0.00240178
0.0207885
-0.00222166
0.0207553
-0.00202999
0.0207859
-0.00182646
0.0207492
-0.00161639
0.0207706
-0.00139985
0.020764
-0.00117764
0.0207531
-0.000952174
0.0207788
-0.000721515
0.0207601
-0.000487014
0.0207724
-0.000247136
0.0207716
-1.69518e-06
0.0207582
0.000243356
0.0207765
0.000496658