/*--------------------------------*- C++ -*----------------------------------*\
| =========                 |                                                 |
| \\      /  F ield         | OpenFOAM: The Open Source CFD Toolbox           |
|  \\    /   O peration     | Version:  2312                                  |
|   \\  /    A nd           | Website:  www.openfoam.com                      |
|    \\/     M anipulation  |                                                 |
\*---------------------------------------------------------------------------*/
FoamFile
{
    version     2.0;
    format      ascii;
    arch        "LSB;label=32;scalar=64";
    class       volScalarField;
    location    "200";
    object      div(phi);
}
// * * * * * * * * * * * * * * * * * * * * * * * * * * * * * * * * * * * * * //

dimensions      [0 0 -1 0 0 0 0];

internalField   nonuniform List<scalar> 
10720
(
-0.00143291
0.00456372
0.00026789
0.00398432
0.000955043
-0.000188613
-0.000136536
-0.000107342
-0.000319456
-0.000402015
1.18501e-05
0.000994378
0.00226297
0.0035592
0.00491218
0.00612954
0.00693688
0.00663165
0.00364217
-0.00494954
-0.0209854
-0.0371588
-0.0293683
0.0155773
0.0401799
0.00327241
-0.0214884
0.00675936
0.0185582
-0.0135159
-0.0216518
0.011588
0.0598471
-0.0192939
-0.0859464
0.0380094
0.00648727
-0.0167472
-0.00706824
0.00295331
0.000275251
0.00535699
0.0037068
0.00246553
0.00267079
0.00304755
0.00513781
0.00564719
0.0025226
0.00236164
0.00295147
0.00329159
0.00350075
0.00369249
0.00379915
0.00384372
0.00406669
0.00460253
0.00559598
0.00702466
0.00830338
0.00903612
0.00789759
0.00457452
-0.00013541
-0.00251532
0.000308979
0.00325776
-0.00173605
-0.00463699
0.00325018
0.000124932
-0.000688638
0.00124966
-0.0041707
0.00536733
-0.00278682
0.00118936
0.00323982
0.00349203
0.000255787
-0.00136597
-0.00172376
-0.00178745
-0.001894
-0.00193373
-0.00143771
-0.000104931
0.00201753
0.00448123
0.00689578
0.00914522
0.0108949
0.0114129
0.00878088
-0.000181499
-0.0177613
-0.0385424
-0.0417966
-0.00821574
0.0284888
0.0151927
0.000265277
0.0119767
0.00113662
-0.00711977
-0.000918691
-0.00195355
0.0293452
-0.00779701
-0.0236794
-0.0051772
-0.000773927
0.0344476
0.00425739
-0.0398447
0.00670017
0.00473343
0.00247511
0.000539994
0.00185233
0.00375777
0.00460378
0.00785131
0.00884783
0.00653756
0.00595619
0.00589763
0.00584255
0.0058351
0.00586272
0.00595015
0.00636763
0.00737791
0.0091666
0.0114029
0.0138119
0.0156746
0.015169
0.0119121
0.00622587
0.00066085
-0.000567466
0.000514108
-0.00176479
-0.00179992
0.00164089
-0.00465228
0.00229549
0.00179416
-0.00517045
0.00653335
-0.00732953
0.00818507
-0.00871012
0.00170662
0.00231705
0.00612539
0.00285804
-0.000244126
0.000132174
0.000232245
-0.000253459
-0.000713764
-0.00064118
0.000211103
0.0016435
0.00335157
0.00519741
0.00690484
0.00833971
0.00895335
0.00729049
0.00121517
-0.0105816
-0.0246194
-0.029022
-0.0122745
0.0118457
0.0126466
0.00626118
0.0083763
-0.0095177
-0.00169132
0.0120841
-0.00960042
0.0120716
-0.00390577
-0.00368048
-0.00665863
-0.0167431
0.00361327
0.0234891
0.00119302
-0.0120444
0.0070774
0.00485046
0.00185193
0.00264031
0.00282649
0.00363114
0.00382656
0.00250596
0.00244397
0.00299916
0.00345683
0.00385032
0.00433791
0.00482316
0.00519148
0.0056055
0.00636585
0.00764604
0.00953084
0.0117929
0.0132944
0.0136316
0.0110169
0.00579421
0.000798958
-0.000307055
0.000615901
-0.00166389
-0.00166586
0.0013385
-0.00464865
0.00230286
0.00164087
-0.00397828
0.00507352
-0.00558832
0.00680609
-0.00476186
0.0018089
2.47172e-05
0.00401788
0.000281117
-2.90805e-05
-6.64243e-05
-0.000500339
-0.00112244
-0.00137684
-0.000976149
7.97559e-05
0.00159073
0.00334822
0.00520389
0.00698793
0.00844558
0.00911111
0.00773161
0.00191264
-0.0101911
-0.024761
-0.0286149
-0.0100846
0.0147163
0.0137385
0.00421791
0.0109482
-0.0110952
-0.00305063
0.0234405
-0.018645
-0.000567076
-0.00182394
0.005606
-0.00717135
-0.0140314
0.00612611
0.0204666
0.0105277
-0.0242861
0.00499739
0.00099444
0.0022104
0.00341708
0.00314389
0.00296235
0.00319885
0.00289448
0.00280681
0.0030754
0.00345028
0.00380647
0.00406427
0.00421464
0.00435127
0.00468219
0.00541167
0.00663699
0.00837024
0.0104185
0.0118789
0.0121634
0.00991737
0.00502663
0.000434538
-0.000210455
0.00107643
-0.00127039
-0.00153021
0.0018331
-0.00419683
0.00227307
0.0017356
-0.0042435
0.00490772
-0.00595376
0.00646672
-0.00574933
0.00153691
0.00216476
0.00205399
0.000174463
0.000957714
0.000479379
-0.000360117
-0.00108338
-0.00126096
-0.00076819
0.000294958
0.00173119
0.00332916
0.00493596
0.00648376
0.00782071
0.00841724
0.00703699
0.00136754
-0.0104017
-0.0248073
-0.0287138
-0.00930962
0.016915
0.0129407
-0.00195501
0.0128982
-0.00247671
-0.0102241
0.0206656
-0.0170969
0.0068274
-0.0028807
0.00712779
-0.00431892
-0.00735968
-0.00082402
-0.000521956
0.0165954
-0.0821318
0.00281964
0.00139912
0.003358
0.00349103
0.00261054
0.00196199
0.00178929
0.00175285
0.00191748
0.00229903
0.00277331
0.00318164
0.00342149
0.00356056
0.00375403
0.00425364
0.00505609
0.00627722
0.00796283
0.00975406
0.0113088
0.0114692
0.00925755
0.00461297
0.000186386
-0.000421802
0.00088706
-0.00149506
-0.00193053
0.00158567
-0.00423677
0.00207645
0.00187131
-0.00406388
0.00509263
-0.00572011
0.00666259
-0.00529382
0.000429498
0.00248577
0.00245232
0.00162102
0.00150304
0.000444113
-0.000557138
-0.00118011
-0.00120485
-0.00065855
0.000332834
0.0015987
0.00301577
0.00454528
0.0060354
0.00738435
0.0080395
0.00670994
0.00107406
-0.0106146
-0.0247255
-0.0279493
-0.00721979
0.0202102
0.0129318
-0.00750583
0.0148204
0.00910257
-0.016693
0.0138736
-0.0144919
0.0102451
-0.0036589
0.00691697
-0.00127942
-0.00048706
-0.00305874
-0.0133381
0.011541
-0.143293
0.00254253
0.00291851
0.00297949
0.0022795
0.00145294
0.00108744
0.00115248
0.00136436
0.00168746
0.00211835
0.00253664
0.0028318
0.00299365
0.00314984
0.00342877
0.00404274
0.00490414
0.00610531
0.00772471
0.00935923
0.0108117
0.010913
0.00873469
0.00430575
0.000144213
-0.0002943
0.00111147
-0.00130179
-0.00192538
0.00171434
-0.00401848
0.00184397
0.00179263
-0.00420044
0.00478786
-0.00592166
0.00603546
-0.00350576
-0.000500533
0.00120284
0.00310894
0.00168536
0.000950197
-0.000148974
-0.000928997
-0.00128731
-0.00112019
-0.000494916
0.000500709
0.00173233
0.00308978
0.00455052
0.00599594
0.00725713
0.00781511
0.0063925
0.00072307
-0.0108068
-0.0245235
-0.0272411
-0.00600768
0.0216541
0.0127035
-0.011004
0.0140296
0.0103919
-0.0173935
0.0127392
-0.0133178
0.00733643
-0.00321341
0.00729253
0.000105522
0.0033257
-0.000868338
-0.0183305
-0.00123089
0.0992504
0.00364988
0.0031243
0.0021267
0.00148932
0.00115419
0.00118727
0.00139046
0.00160988
0.00187561
0.00216022
0.00241335
0.00257869
0.00270007
0.00289408
0.00324809
0.00389411
0.0047559
0.00591031
0.00742277
0.00898652
0.0103252
0.010409
0.00827494
0.00401262
5.42867e-05
-0.000258795
0.00121771
-0.00118732
-0.00196242
0.00177517
-0.00372753
0.0017741
0.00198913
-0.00394002
0.00486939
-0.00570161
0.00573043
-0.00200905
-0.000286402
0.00139821
0.00330469
0.00131917
0.000502923
-0.000362228
-0.000875885
-0.00104876
-0.000803948
-0.000185786
0.000756141
0.00190425
0.003149
0.00446183
0.00579673
0.00696466
0.00747894
0.00607456
0.000439108
-0.010909
-0.0242171
-0.0263252
-0.0044492
0.0233666
0.0127527
-0.0135992
0.0131209
0.0112219
-0.0177027
0.0123112
-0.0116687
0.00569902
-0.00292609
0.00691395
0.00070564
0.0037539
0.000210769
-0.01679
-0.019413
0.174229
0.00415215
0.00241436
0.00147348
0.00125793
0.00127923
0.00141143
0.00154607
0.00167423
0.00183362
0.0020037
0.00218191
0.00232912
0.00248078
0.00271133
0.0030854
0.00368688
0.00448396
0.00557593
0.0069801
0.00850935
0.00976542
0.00985054
0.00778223
0.00368223
-7.80125e-05
-0.000274409
0.00125787
-0.00114045
-0.0020705
0.0017166
-0.00356267
0.00151991
0.00196518
-0.00388914
0.00472627
-0.00572839
0.00515712
-0.00154093
0.00136703
0.00193076
0.002756
0.000908037
0.000249968
-0.000378326
-0.000739222
-0.000860395
-0.000641746
-7.91962e-05
0.00079929
0.0018859
0.00305818
0.00427846
0.00554789
0.00671254
0.00724926
0.00588868
0.000321424
-0.0108102
-0.0236594
-0.0252465
-0.003028
0.0247498
0.0129406
-0.0155077
0.0120654
0.0116926
-0.0178823
0.0123766
-0.0100037
0.00423398
-0.0027388
0.00575167
0.00102379
0.00256999
-0.000883199
-0.0139916
-0.00796657
0.0054552
0.00342802
0.0015663
0.00111206
0.00119534
0.00130119
0.00134117
0.00134076
0.00138582
0.0014917
0.00164022
0.0018359
0.00203621
0.00224682
0.00250691
0.0028724
0.00341536
0.00414786
0.00518913
0.00651784
0.0080233
0.00922187
0.00930032
0.00729943
0.0033547
-0.000212814
-0.000294342
0.00129025
-0.00108807
-0.00215953
0.00165745
-0.00337938
0.00128523
0.00197141
-0.00378007
0.0046287
-0.00571607
0.00456482
-0.00134872
0.00393748
0.00183263
0.00197221
0.000632251
0.000180823
-0.000283251
-0.000585762
-0.000727089
-0.000576692
-8.88711e-05
0.000724112
0.00175136
0.0028498
0.00396902
0.00513138
0.00623618
0.00674339
0.00538452
-0.000104394
-0.0109965
-0.0232995
-0.0243205
-0.00185361
0.0258185
0.0131509
-0.0168792
0.0110043
0.0121184
-0.0179874
0.012606
-0.00825047
0.00297683
-0.00245382
0.0043708
0.00119394
0.00153016
-0.00240752
-0.0105999
-0.00403978
-0.0236085
0.00234102
0.00108207
0.000983206
0.00113612
0.00116442
0.00107225
0.000969872
0.000968148
0.00106492
0.00124034
0.00149028
0.0017634
0.00203835
0.00233493
0.00270167
0.00320944
0.00390455
0.00490864
0.00617769
0.00763741
0.00877365
0.00881522
0.00686326
0.00306543
-0.000315991
-0.000287156
0.0013443
-0.00100843
-0.00221709
0.0016212
-0.00315078
0.00106985
0.00199032
-0.00364519
0.00454689
-0.00568948
0.0039135
-0.00131407
0.00505825
0.00135248
0.00141177
0.00049634
0.000186166
-0.000192926
-0.000485984
-0.000661987
-0.000571874
-0.000144231
0.00061866
0.0016
0.00263387
0.00365083
0.0046858
0.00569673
0.00616226
0.00479304
-0.000594423
-0.0112069
-0.0229105
-0.0234111
-0.000913022
0.0264947
0.0133825
-0.0176781
0.00990799
0.0123506
-0.0180892
0.0127364
-0.006501
0.00189474
-0.00212615
0.00298037
0.0012594
0.00107467
-0.00286619
-0.00656881
0.000133004
-0.0205733
0.00161587
0.000995571
0.000980246
0.00108262
0.00100065
0.000816142
0.000677279
0.000665985
0.000775161
0.000982791
0.00127684
0.00160361
0.00192611
0.0022559
0.00263129
0.00312353
0.00379808
0.004761
0.00597038
0.00734977
0.00839689
0.00837
0.00644432
0.00278647
-0.000414086
-0.000285105
0.00138288
-0.000934401
-0.00227372
0.0015654
-0.0029218
0.00083232
0.00198596
-0.00350348
0.00446882
-0.00559678
0.00326997
-0.00159681
0.00349317
0.000944554
0.00117218
0.000452334
0.000210045
-0.000129358
-0.000413112
-0.000596989
-0.000529655
-0.000130119
0.000604904
0.00155309
0.00252828
0.00344057
0.00433279
0.00520866
0.0055841
0.00416501
-0.00114433
-0.0114469
-0.0224957
-0.0225181
-0.000137887
0.0268674
0.0136772
-0.0178804
0.00888887
0.0124774
-0.0181217
0.0127027
-0.00476633
0.000961844
-0.00176545
0.00161518
0.00130648
0.000837065
-0.00214638
-0.00277722
0.00471733
-0.0120141
0.00136186
0.00107691
0.000997391
0.00102147
0.000868388
0.000665301
0.000540628
0.000547651
0.000672958
0.000893685
0.00119919
0.00153822
0.00187402
0.00222018
0.00260672
0.00309754
0.003767
0.00469498
0.00584539
0.00712968
0.00807523
0.0079631
0.00605093
0.0025321
-0.000488362
-0.000269133
0.00142498
-0.000842967
-0.00230172
0.00151914
-0.00265896
0.000608109
0.00198318
-0.00333945
0.00439502
-0.0054251
0.00272192
-0.00205098
0.00163269
0.000762746
0.00108729
0.000422064
0.0001988
-0.000116266
-0.00037627
-0.000540294
-0.000462743
-6.58412e-05
0.000656881
0.00158214
0.00251164
0.00332911
0.00407851
0.00480599
0.00506647
0.00358645
-0.00163617
-0.0115487
-0.0219641
-0.0215675
0.000503629
0.0269398
0.0140035
-0.0175645
0.00795061
0.0124557
-0.0180809
0.0124424
-0.00308601
0.000152817
-0.00136075
0.000289311
0.00141921
0.000460747
-0.000876209
5.837e-05
0.00710285
-0.00334247
0.00134179
0.00110296
0.000945245
0.000911874
0.000744752
0.000574864
0.000497003
0.000537464
0.000674742
0.000886748
0.00117118
0.00148558
0.00180416
0.00214934
0.00254521
0.00304835
0.0037273
0.00463434
0.00573637
0.00692731
0.00776938
0.0075708
0.00567115
0.00229201
-0.000547687
-0.000249473
0.00145832
-0.000747478
-0.00231362
0.00146635
-0.00238579
0.00038671
0.0019668
-0.00317066
0.00431442
-0.00516139
0.00234129
-0.00251622
0.000493783
0.000736273
0.000989249
0.00036309
0.000138091
-0.000151389
-0.000375244
-0.000503009
-0.000397674
9.3138e-06
0.000726628
0.00163492
0.00252984
0.00327375
0.00390002
0.00448406
0.00462123
0.00307456
-0.00204469
-0.0115142
-0.0213242
-0.0205422
0.00102966
0.0267124
0.014331
-0.0167924
0.00711159
0.0122989
-0.0179463
0.0119377
-0.00149
-0.000545384
-0.000907336
-0.00097196
0.00158968
-0.000144467
0.000352126
0.00162958
0.00575493
0.00180987
0.00128501
0.000995196
0.000804844
0.000746937
0.000608045
0.000497284
0.000475543
0.000549319
0.000691667
0.000882217
0.00112753
0.00139689
0.00167952
0.00201112
0.00241336
0.00293301
0.00362991
0.00452923
0.00559482
0.00670385
0.00744883
0.00717436
0.00529162
0.00205865
-0.000598635
-0.000229627
0.00148163
-0.000650696
-0.0023109
0.00141043
-0.00209919
0.000181275
0.00194705
-0.00299982
0.00422106
-0.00481115
0.00212367
-0.00290906
-6.54691e-05
0.000718785
0.000821381
0.000264088
3.69718e-05
-0.000219588
-0.000401979
-0.000490111
-0.000354776
6.09828e-05
0.000768852
0.00165877
0.00252606
0.00321526
0.00374565
0.00420389
0.00422543
0.00262352
-0.00236889
-0.0113757
-0.0205712
-0.0194537
0.00142864
0.026181
0.0145994
-0.0156533
0.00636368
0.0120014
-0.0177125
0.0111862
-1.85523e-06
-0.00112367
-0.000407217
-0.00211219
0.00173653
-0.000908891
0.00121882
0.00211936
0.00240984
0.00341409
0.00109239
0.000797177
0.000617696
0.000563361
0.000471342
0.000419691
0.000445007
0.000543842
0.000685609
0.000852169
0.00105656
0.0012782
0.00152154
0.00183337
0.00223638
0.00277057
0.00348227
0.00437634
0.00541016
0.00644671
0.00710372
0.00676356
0.00490684
0.00182619
-0.000646399
-0.000214919
0.00148831
-0.000561171
-0.00230198
0.00134436
-0.0018036
-1.29891e-05
0.00191827
-0.00283275
0.00410442
-0.00437697
0.0020478
-0.00314713
-0.000211352
0.000628187
0.000599876
0.000136693
-8.28723e-05
-0.000300217
-0.000441251
-0.000493175
-0.000334959
8.01487e-05
0.00076816
0.00163002
0.00246772
0.00311351
0.00356997
0.00392771
0.00384967
0.00221127
-0.00262753
-0.0111521
-0.0197073
-0.0183038
0.00169059
0.0253367
0.0147569
-0.0142469
0.0056997
0.0115743
-0.0173669
0.010219
0.00135226
-0.00156859
0.000122981
-0.00306379
0.00177055
-0.00173227
0.00166067
0.00193914
-0.00116813
0.00264036
0.000817617
0.000582329
0.000437118
0.00040226
0.000353833
0.000347101
0.000403974
0.000516138
0.000655253
0.000803686
0.000977766
0.00116377
0.00137595
0.00166926
0.00206852
0.00260678
0.00332363
0.00420432
0.0052021
0.00616769
0.00674155
0.00634587
0.00452292
0.00159952
-0.000688381
-0.000204472
0.0014778
-0.000481296
-0.00228786
0.00126386
-0.00150643
-0.000192621
0.0018783
-0.00267547
0.00394974
-0.00387505
0.0020714
-0.00318807
-9.54511e-05
0.000477163
0.000374834
1.2481e-05
-0.000189039
-0.000365171
-0.000467721
-0.000489177
-0.000318128
8.455e-05
0.000738963
0.00155766
0.00235469
0.00295985
0.00335628
0.00363076
0.0034712
0.00181867
-0.00283223
-0.0108505
-0.0187185
-0.0170749
0.00181464
0.024208
0.01476
-0.0126667
0.00511079
0.0110295
-0.0169086
0.00907075
0.0025461
-0.00186926
0.000662672
-0.00376893
0.00163821
-0.00252712
0.00174973
0.00141852
-0.00391535
0.00140084
0.000548908
0.000396443
0.000295982
0.000282917
0.000266646
0.000286979
0.000358457
0.000474253
0.000609849
0.000749056
0.000908095
0.00107684
0.00127327
0.0015556
0.00194868
0.00248206
0.00318839
0.00404371
0.00499349
0.00588532
0.00637598
0.00592965
0.00414826
0.00138534
-0.000720969
-0.000195506
0.00145141
-0.000411779
-0.00226889
0.00116675
-0.00121552
-0.000354042
0.00182722
-0.00253368
0.00374446
-0.00332831
0.00214765
-0.00302337
0.000145025
0.000316885
0.000192783
-7.86171e-05
-0.000255805
-0.000391765
-0.000459695
-0.000455654
-0.000280096
0.000101128
0.000710452
0.00147136
0.00221418
0.00277055
0.0031119
0.00331276
0.00308459
0.00144031
-0.00298902
-0.0104503
-0.0175797
-0.0158248
0.00181164
0.0228209
0.0145846
-0.0109833
0.00459449
0.0103908
-0.0163339
0.00778662
0.00355334
-0.00202089
0.00119862
-0.0041914
0.00134628
-0.00322214
0.00161647
0.000781319
-0.00545703
0.000578213
0.00033673
0.000260315
0.000204479
0.000210038
0.000212903
0.0002434
0.000315647
0.000427668
0.000559158
0.000695798
0.000853016
0.0010213
0.00121725
0.00149836
0.00188657
0.00240827
0.00309172
0.00390848
0.00479861
0.00560985
0.00601791
0.00552529
0.00378994
0.00118855
-0.000739965
-0.00018461
0.00141327
-0.000350857
-0.00224426
0.00105372
-0.000937217
-0.000492719
0.00176742
-0.00241111
0.00348161
-0.00276708
0.00222687
-0.00267353
0.000397523
0.000187111
7.23827e-05
-0.000128105
-0.000278817
-0.000377973
-0.000415274
-0.000388825
-0.000212654
0.00014337
0.000702236
0.00139515
0.00207145
0.00257016
0.00285322
0.00298571
0.00269741
0.00107952
-0.00309992
-0.00997073
-0.0163757
-0.014605
0.00170548
0.0212253
0.0142274
-0.00926934
0.00415135
0.00967958
-0.0156453
0.00641363
0.00435452
-0.00202767
0.00171752
-0.00431836
0.000948464
-0.00376246
0.00139132
0.000165028
-0.00586095
0.000232914
0.00019317
0.000179537
0.00015912
0.000178403
0.000189224
0.000218026
0.000282789
0.000385937
0.000511704
0.000648036
0.000810142
0.000987952
0.00119426
0.00148178
0.00186831
0.00237529
0.0030285
0.00379684
0.00461937
0.00534513
0.00566962
0.00513593
0.00345234
0.00101269
-0.000743714
-0.000168508
0.0013681
-0.00029584
-0.00221196
0.000927252
-0.000675977
-0.000603945
0.00170296
-0.002308
0.00316104
-0.00222319
0.00226384
-0.00218022
0.000589291
9.81752e-05
7.92599e-06
-0.000145965
-0.000270543
-0.000338014
-0.000348516
-0.000301764
-0.000125146
0.000206936
0.000715929
0.0013386
0.00194204
0.00237666
0.00259921
0.00266439
0.00232277
0.000745282
-0.00316442
-0.00944148
-0.0151626
-0.0134086
0.00152349
0.0194773
0.0137015
-0.00757205
0.00378479
0.00892678
-0.0148507
0.0049999
0.0049253
-0.00191112
0.00220813
-0.00415929
0.000522225
-0.0041112
0.00118553
-0.000359684
-0.00536331
0.000189595
0.00011211
0.000147377
0.000149037
0.000177901
0.000189395
0.000210054
0.000263522
0.000355453
0.000473153
0.000607701
0.000775047
0.0009647
0.00118476
0.00148285
0.00186969
0.00236199
0.00298239
0.00369785
0.00444812
0.00508847
0.0053323
0.00476262
0.00313622
0.000859181
-0.000730993
-0.000144917
0.00131989
-0.000244194
-0.00217001
0.000790412
-0.000434942
-0.000684472
0.00163701
-0.0022201
0.00278951
-0.00172557
0.00222538
-0.0015985
0.000683835
4.67027e-05
-1.73334e-05
-0.000144971
-0.000246367
-0.000288095
-0.000276422
-0.000211214
-3.32671e-05
0.000278704
0.00074292
0.00129869
0.00182997
0.00219889
0.00236049
0.00236052
0.00197161
0.000446327
-0.00317946
-0.0088664
-0.0139393
-0.0122304
0.00129873
0.0176455
0.0130307
-0.00593571
0.00349672
0.0081577
-0.0139618
0.00358318
0.00525164
-0.00170449
0.00265127
-0.00374933
0.000149421
-0.00424911
0.00107724
-0.00077033
-0.00422835
0.000239145
8.12498e-05
0.000148413
0.00016072
0.000195662
0.000204037
0.000214664
0.000256603
0.000336792
0.000444288
0.000573441
0.000741912
0.000939763
0.00117139
0.00147899
0.00186688
0.00234507
0.00293356
0.0035971
0.00427604
0.00483369
0.00500192
0.00440589
0.00284269
0.000727938
-0.000701578
-0.000112626
0.00127195
-0.000192582
-0.00211522
0.000646852
-0.000218164
-0.000730518
0.0015709
-0.00213868
0.00237998
-0.0012984
0.00209468
-0.000989982
0.000677685
2.47332e-05
-1.96099e-05
-0.000133967
-0.000216504
-0.000239344
-0.000210515
-0.000130115
4.95423e-05
0.000345136
0.000770586
0.00126636
0.00173051
0.00203693
0.00214085
0.00208107
0.00165137
0.000189471
-0.00314334
-0.00824974
-0.0127084
-0.0110703
0.00106653
0.0157962
0.0122447
-0.00439298
0.00328682
0.00739625
-0.0129903
0.00220613
0.00532226
-0.00145129
0.0030201
-0.00314334
-0.000114178
-0.00417811
0.00110906
-0.00106819
-0.00270076
0.000241693
8.25652e-05
0.000164786
0.000180712
0.000218581
0.000222555
0.000224382
0.000256398
0.000325615
0.0004217
0.000541983
0.000706034
0.000905098
0.00114261
0.00145554
0.00184273
0.00230805
0.00286645
0.00348067
0.00409396
0.00457461
0.00467594
0.00406222
0.00257034
0.000617599
-0.000657833
-7.2709e-05
0.00122561
-0.000139345
-0.00204503
0.000500193
-2.89773e-05
-0.000739247
0.00150989
-0.00205599
0.00195354
-0.000958572
0.00187277
-0.000415006
0.000592053
2.24624e-05
-1.10625e-05
-0.000118504
-0.000187429
-0.000197541
-0.000156919
-6.5659e-05
0.000114638
0.000396261
0.00078865
0.00123246
0.00163747
0.00188836
0.00194049
0.00182792
0.00136681
-2.19884e-05
-0.00305672
-0.00759831
-0.0114772
-0.00992089
0.000866597
0.0139718
0.0113797
-0.00297352
0.00315211
0.00667003
-0.011954
0.000900813
0.00514221
-0.00120027
0.003281
-0.00241981
-0.000243719
-0.00392056
0.00128126
-0.00126141
-0.0010008
0.000140257
9.73083e-05
0.000182669
0.000198458
0.000236629
0.00023658
0.000232162
0.00025694
0.000316805
0.000401308
0.000510187
0.00066505
0.000859081
0.00109564
0.00140846
0.00179138
0.00224289
0.00277335
0.00334275
0.00389571
0.00430721
0.00435207
0.00373045
0.002317
0.000525041
-0.000603727
-2.79497e-05
0.00118066
-8.4435e-05
-0.00195963
0.000353403
0.000128306
-0.000711061
0.00146226
-0.00196494
0.00153456
-0.000713695
0.00157618
7.46252e-05
0.000463336
2.96393e-05
-3.93377e-07
-0.000103224
-0.000163017
-0.000165606
-0.000118173
-2.10534e-05
0.000157394
0.000425613
0.00078884
0.0011883
0.00154277
0.00174633
0.00175574
0.00159922
0.00111714
-0.000189739
-0.00292638
-0.00692268
-0.0102575
-0.008777
0.000705802
0.012218
0.010464
-0.00169999
0.0030827
0.00599563
-0.0108624
-0.000290436
0.00473156
-0.000993413
0.00339611
-0.00165647
-0.000259683
-0.00352118
0.00155284
-0.00136511
0.000664341
-8.2527e-05
0.000111783
0.000194169
0.000207905
0.000244313
0.000241624
0.000234098
0.000254256
0.000306861
0.000380922
0.000477954
0.000620974
0.000805351
0.0010353
0.00134215
0.00171684
0.00215302
0.00265584
0.00318385
0.00368222
0.00403302
0.00403056
0.00341145
0.0020818
0.000447341
-0.000542914
1.82621e-05
0.00113595
-2.84791e-05
-0.00185946
0.000209272
0.000250038
-0.000651074
0.00142954
-0.00185659
0.00114923
-0.000560891
0.0012339
0.000440475
0.000331427
3.80742e-05
7.07901e-06
-9.1398e-05
-0.000145288
-0.000143965
-9.40498e-05
4.03819e-06
0.000177437
0.000431147
0.0007672
0.00112802
0.00143987
0.00160512
0.001581
0.0013909
0.000898361
-0.000318966
-0.00276237
-0.00624283
-0.0090585
-0.00767144
0.000566682
0.0105685
0.00952311
-0.000590194
0.00306551
0.00538427
-0.00973195
-0.00133267
0.00412374
-0.00086007
0.00334204
-0.000945999
-0.000208462
-0.00304315
0.00184931
-0.001405
0.00210461
-0.000423122
0.000119705
0.000196327
0.000206952
0.000240348
0.00023673
0.000228998
0.000246974
0.000294308
0.000360012
0.000446376
0.000577358
0.000750342
0.000970527
0.00126728
0.00162966
0.00204753
0.00252288
0.00301141
0.00345951
0.00375688
0.00371673
0.0031075
0.00186506
0.000383643
-0.000478707
6.32631e-05
0.00109083
2.65562e-05
-0.00174505
6.98977e-05
0.000336144
-0.000566106
0.0014125
-0.00172331
0.000820553
-0.00048811
0.000881001
0.000662067
0.000230067
4.33973e-05
8.99851e-06
-8.38298e-05
-0.000133554
-0.000130707
-8.15699e-05
1.33834e-05
0.000178288
0.000415727
0.000725174
0.00105155
0.00132685
0.00146109
0.00141212
0.00119896
0.000706488
-0.000415693
-0.0025739
-0.00557001
-0.00791471
-0.00663649
0.000438973
0.00903549
0.00857652
0.000344207
0.00308435
0.00485283
-0.00857752
-0.00219572
0.00336931
-0.000814426
0.0031019
-0.000358023
-0.000156513
-0.00255787
0.00208077
-0.00142079
0.00315917
-0.000873821
0.000119168
0.000188637
0.00019603
0.000225906
0.000223115
0.000217279
0.000234815
0.000278965
0.00033866
0.000416693
0.00053725
0.000699229
0.000908493
0.00119291
0.00154013
0.00193741
0.00238363
0.00283389
0.00323606
0.00348494
0.00341428
0.00282219
0.00167029
0.000334003
-0.00041177
0.00010571
0.00104359
7.9936e-05
-0.00162156
-6.19515e-05
0.000383742
-0.000465345
0.00140494
-0.00156023
0.000565315
-0.000475402
0.000552767
0.000737433
0.000179212
4.42594e-05
5.4461e-06
-7.95021e-05
-0.000125775
-0.000122683
-7.64654e-05
1.23092e-05
0.000165881
0.000384972
0.00066754
0.000961868
0.00120545
0.00131494
0.00124883
0.00102131
0.000538671
-0.000485271
-0.00237233
-0.0049216
-0.00684933
-0.00568871
0.000325185
0.00764205
0.00764157
0.00109453
0.00311588
0.00439763
-0.0074141
-0.0028507
0.00254119
-0.000855118
0.00269241
5.17922e-05
-0.000163886
-0.00213953
0.00216136
-0.00145682
0.00372283
-0.00141083
0.000110482
0.000172244
0.000177356
0.000203981
0.0002031
0.000200322
0.000218566
0.00026088
0.000316623
0.000388856
0.000501422
0.000654281
0.000853244
0.00112478
0.00145547
0.00183025
0.00224697
0.00265984
0.00301851
0.00322531
0.00313148
0.00256201
0.00149883
0.00029969
-0.000342557
0.000145263
0.000995307
0.000131302
-0.00148661
-0.000183701
0.00039554
-0.000358445
0.00140097
-0.00136838
0.000392211
-0.000499434
0.000278206
0.000682176
0.000181548
4.06341e-05
-2.43743e-06
-7.71613e-05
-0.000120106
-0.0001172
-7.49645e-05
5.82422e-06
0.000146135
0.000345423
0.000600904
0.000864791
0.00107964
0.00116927
0.00109154
0.000858394
0.000393032
-0.000531705
-0.00216419
-0.00430901
-0.00587038
-0.00483044
0.000226978
0.00638553
0.00673296
0.00165982
0.00314054
0.00401397
-0.00625839
-0.00328152
0.00170834
-0.000952057
0.00214672
0.000268041
-0.000270244
-0.00183955
0.00203292
-0.00154847
0.00376115
-0.00198906
9.48671e-05
0.000149426
0.000153766
0.000177489
0.000178951
0.000179641
0.000199119
0.00024036
0.000293659
0.000362209
0.000469113
0.00061508
0.00080535
0.00106432
0.00137794
0.00172998
0.00211655
0.00249341
0.00281151
0.00298191
0.00287037
0.00232829
0.00135319
0.000281277
-0.000270636
0.000181917
0.000946904
0.000179771
-0.0013447
-0.000292264
0.000371924
-0.00025569
0.00139082
-0.00115265
0.000301082
-0.000536632
7.70428e-05
0.000525236
0.000223985
3.29917e-05
-1.30339e-05
-7.58649e-05
-0.000115309
-0.000112546
-7.46382e-05
-2.59797e-06
0.000123464
0.00030225
0.000530625
0.000765279
0.000954345
0.00102696
0.000943317
0.00071041
0.000269142
-0.000557589
-0.00195492
-0.00373681
-0.0049818
-0.00406101
0.000146811
0.00527442
0.005862
0.00204387
0.00313577
0.00369134
-0.00513431
-0.003487
0.000939072
-0.00107221
0.00152641
0.000301747
-0.000481984
-0.00168271
0.00168353
-0.00170655
0.00332662
-0.00254002
7.4227e-05
0.000122895
0.000127849
0.000148986
0.000152962
0.000157102
0.000177754
0.000218169
0.000269864
0.000336129
0.000439209
0.000579927
0.000763001
0.00101058
0.00130727
0.00163639
0.00199384
0.0023356
0.00261723
0.00275572
0.00263363
0.00212277
0.00123348
0.000278747
-0.000195973
0.000216653
0.000898521
0.000225923
-0.00119671
-0.000384465
0.000319326
-0.00016653
0.00136611
-0.00092204
0.000282633
-0.000564745
-4.33306e-05
0.000304889
0.000283025
2.23162e-05
-2.47165e-05
-7.50698e-05
-0.000110794
-0.000107895
-7.42131e-05
-1.09209e-05
0.000100818
0.000259226
0.00046129
0.000668224
0.000833083
0.000891968
0.00080545
0.000578579
0.000165943
-0.000565335
-0.00174829
-0.00321027
-0.00418598
-0.00337703
8.55077e-05
0.00430781
0.00504056
0.00226448
0.00308362
0.00340575
-0.00407018
-0.00348137
0.000287529
-0.00117604
0.00090385
0.000199011
-0.000768382
-0.00165457
0.0011499
-0.001911
0.00254381
-0.0029792
5.12081e-05
9.54556e-05
0.000101869
0.000120868
0.000127197
0.000134343
0.00015589
0.000195362
0.00024577
0.000310488
0.000410611
0.000547473
0.000724171
0.000961086
0.00124158
0.00154861
0.00187764
0.00218714
0.00243569
0.00254816
0.00242046
0.00194432
0.00113879
0.000291219
-0.00011859
0.000250177
0.000852596
0.000269709
-0.00104363
-0.000456284
0.000243397
-9.72202e-05
0.00131886
-0.000689348
0.000320341
-0.000568057
-8.65465e-05
6.21925e-05
0.000332855
1.00859e-05
-3.60456e-05
-7.4295e-05
-0.000106153
-0.000102904
-7.30663e-05
-1.80407e-05
7.99557e-05
0.000218792
0.000395518
0.000576423
0.000719149
0.000766087
0.000679799
0.000462895
8.23375e-05
-0.000558172
-0.00154849
-0.00273032
-0.00347804
-0.00277346
4.75449e-05
0.00348441
0.00428448
0.00234026
0.00297535
0.00314033
-0.00309544
-0.00329827
-0.000208999
-0.00122619
0.000349294
2.48481e-05
-0.00107222
-0.00170694
0.000514733
-0.00211102
0.00158749
-0.00322602
2.8387e-05
6.92767e-05
7.75481e-05
9.48288e-05
0.000103155
0.000112726
0.00013472
0.000172989
0.000222047
0.000285369
0.000382976
0.000516212
0.00068699
0.000913303
0.00117798
0.00146337
0.00176593
0.00204527
0.00226456
0.00235629
0.00222921
0.00179124
0.00106632
0.000316587
-3.91798e-05
0.000283181
0.000809509
0.000311479
-0.00088785
-0.000505149
0.000153207
-5.16489e-05
0.00124362
-0.000467222
0.000392943
-0.000536946
-6.52657e-05
-0.000163874
0.000353578
-2.17128e-06
-4.58639e-05
-7.3073e-05
-0.000101057
-9.73251e-05
-7.09335e-05
-2.3422e-05
6.17842e-05
0.000182305
0.00033555
0.000492057
0.00061454
0.000651284
0.000567152
0.000363198
1.65957e-05
-0.000538529
-0.00135787
-0.00229867
-0.00285485
-0.00224169
3.53469e-05
0.00280091
0.00360263
0.0022999
0.00280735
0.00287387
-0.0022406
-0.00298469
-0.000545282
-0.00120611
-8.07731e-05
-0.000153479
-0.00132412
-0.0017724
-0.000115349
-0.0022423
0.000645397
-0.00321226
7.66898e-06
4.58685e-05
5.60941e-05
7.19485e-05
8.1794e-05
9.3151e-05
0.000115113
0.000151863
0.000199311
0.00026105
0.00035584
0.000485177
0.00064996
0.000865499
0.00111445
0.00137922
0.00165567
0.00190837
0.00210224
0.0021783
0.00205669
0.00165903
0.00101253
0.000352003
4.1018e-05
0.000315664
0.000770247
0.000351284
-0.000730669
-0.00052788
5.86126e-05
-2.99575e-05
0.00114021
-0.000268965
0.000478302
-0.000469814
2.70353e-06
-0.00034156
0.000337076
-1.32499e-05
-5.34481e-05
-7.10839e-05
-9.53865e-05
-9.11713e-05
-6.78153e-05
-2.6988e-05
4.65791e-05
0.000150379
0.000282029
0.000416303
0.000520272
0.000548229
0.000467676
0.000278546
-3.35481e-05
-0.000509954
-0.00117935
-0.00191404
-0.00231155
-0.00177576
5.00141e-05
0.00225254
0.00300805
0.00217524
0.0025859
0.00259482
-0.0015286
-0.00259713
-0.000736327
-0.00111485
-0.000358462
-0.000280489
-0.00146521
-0.0017837
-0.000634904
-0.00224432
-0.000119554
-0.00288651
-9.77584e-06