/*--------------------------------*- C++ -*----------------------------------*\
| =========                 |                                                 |
| \\      /  F ield         | OpenFOAM: The Open Source CFD Toolbox           |
|  \\    /   O peration     | Version:  2312                                  |
|   \\  /    A nd           | Website:  www.openfoam.com                      |
|    \\/     M anipulation  |                                                 |
\*---------------------------------------------------------------------------*/
FoamFile
{
    version     2.0;
    format      ascii;
    arch        "LSB;label=32;scalar=64";
    class       surfaceScalarField;
    location    "200";
    object      phi;
}
// * * * * * * * * * * * * * * * * * * * * * * * * * * * * * * * * * * * * * //

dimensions      [0 3 -1 0 0 0 0];

oriented        oriented;

internalField   nonuniform List<scalar> 
21254
(
-0.214651
0.234624
-0.0199747
0.256955
-0.0223267
0.276563
-0.0196074
0.294287
-0.0177191
0.311145
-0.0168572
0.324925
-0.0137808
0.336057
-0.0111316
0.345243
-0.00918667
0.351554
-0.00631136
0.355938
-0.00438488
0.358575
-0.00263643
0.359174
-0.000596739
0.357825
0.00135478
0.354187
0.00364773
0.347944
0.00625872
0.339127
0.00883794
0.327323
0.0118294
0.312464
0.0148865
0.294459
0.0180216
0.27413
0.0203038
0.252848
0.0211678
0.235308
0.0173173
0.227406
0.00770832
0.235877
-0.00835748
0.256021
-0.0198243
0.275233
-0.0191837
0.284472
-0.00944624
0.283335
0.00120916
0.277925
0.00562569
0.269081
0.00867087
0.254515
0.014262
0.229425
0.0252689
0.184306
0.0461378
0.110316
0.0736286
0.0453901
0.0631561
0.0132243
0.0330266
0.103145
-0.0897591
0.0525515
0.0501346
0.0252753
0.0270631
-0.191486
-0.0231621
-0.167379
-0.024107
-0.138083
-0.0292909
-0.106191
-0.0318876
-0.0727881
-0.0333996
-0.0385792
-0.0342053
-0.00535345
-0.0332212
0.0253973
-0.0307424
0.0535622
-0.0281549
0.0781962
-0.0246291
0.0992058
-0.0210046
0.116892
-0.0176793
0.131622
-0.0147213
0.14381
-0.0121789
0.154202
-0.0103809
0.1631
-0.00888524
0.170969
-0.00785454
0.178032
-0.00704618
0.184599
-0.00654744
0.190792
-0.00616552
0.19679
-0.00596012
0.20253
-0.00569065
0.207932
-0.00534347
0.212275
-0.00428666
0.215345
-0.00303434
0.217448
-0.00210409
0.218604
-0.00118054
0.21865
-4.20951e-05
0.217174
0.00151312
0.214095
0.00305701
0.209236
0.00479506
0.202744
0.00654118
0.194438
0.00830829
0.184042
0.0103828
0.171639
0.0124287
0.159025
0.0125205
0.146364
0.0127935
0.155803
-0.00951436
0.176249
-0.020411
-0.195617
0.217069
-0.0414233
0.239095
-0.044348
0.262212
-0.0427244
0.28389
-0.0393993
0.305154
-0.038123
0.325046
-0.0336765
0.343139
-0.0292276
0.359702
-0.0257526
0.374362
-0.0209747
0.387196
-0.0172192
0.398262
-0.0136971
0.407807
-0.0101302
0.416345
-0.00716382
0.424228
-0.00420766
0.431408
-0.000884488
0.437496
0.0027923
0.44223
0.00713026
0.445371
0.0117451
0.445903
0.0174038
0.443419
0.0225826
0.436887
0.0274558
0.425679
0.028473
0.408782
0.0248049
0.383598
0.0169434
0.354162
0.00961403
0.330754
0.00433542
0.316515
0.00480442
0.307326
0.0103182
0.29888
0.0140609
0.290173
0.0173515
0.281973
0.0228985
0.275582
0.0315317
0.267688
0.0536058
0.229289
0.111926
0.149543
0.142885
0.115814
0.0675796
0.124854
-0.0986866
0.0253128
0.148522
0.00427449
0.0483146
-0.173764
-0.0450104
-0.150377
-0.0474914
-0.123029
-0.0566381
-0.094169
-0.0607451
-0.0635713
-0.0639916
-0.0316234
-0.0661457
0.000401119
-0.0652319
0.0306308
-0.0609554
0.0577362
-0.055247
0.0818473
-0.0487272
0.102768
-0.0419116
0.12089
-0.0357867
0.136613
-0.0304283
0.15015
-0.025698
0.161975
-0.0221859
0.172385
-0.0192734
0.181679
-0.0171194
0.190166
-0.0154933
0.198094
-0.0144221
0.205582
-0.013582
0.21277
-0.0130592
0.219711
-0.0125365
0.226326
-0.0118762
0.232158
-0.010072
0.23693
-0.00780045
0.240877
-0.00605629
0.244001
-0.00429944
0.246568
-0.00262887
0.248991
-0.000931991
0.251378
0.000692501
0.253562
0.0025421
0.255595
0.00454506
0.257177
0.00675875
0.257974
0.0094852
0.258049
0.0124935
0.254795
0.0156015
0.250813
0.0169875
0.234947
0.00610381
0.215423
-0.000834228
-0.190011
0.211792
-0.0632021
0.233806
-0.0663531
0.25762
-0.0665342
0.279463
-0.0612431
0.300332
-0.0589915
0.32037
-0.0537138
0.338282
-0.0471401
0.354451
-0.0419232
0.368437
-0.0349623
0.380475
-0.0292567
0.390582
-0.0237999
0.39887
-0.0184087
0.405136
-0.0134138
0.409825
-0.00887353
0.4127
-0.0037291
0.414677
0.000850857
0.415792
0.00604738
0.416785
0.0107577
0.417708
0.0164258
0.418709
0.0214413
0.419476
0.026508
0.418841
0.0290236
0.415328
0.0284072
0.407438
0.0249368
0.395762
0.0213462
0.377585
0.0225945
0.35565
0.026637
0.33751
0.0284375
0.322869
0.0288598
0.310016
0.0300667
0.29876
0.0343442
0.287841
0.0423837
0.28178
0.0595967
0.272365
0.121202
0.244165
0.170701
0.214863
0.096973
0.150905
-0.0340762
0.0110951
0.288369
-0.014231
0.0732362
-0.168129
-0.0668832
-0.144268
-0.0713461
-0.115797
-0.0851059
-0.0862618
-0.0902761
-0.0554657
-0.0947827
-0.0235676
-0.0980369
0.00786452
-0.0966562
0.0370809
-0.0901664
0.0637166
-0.0818771
0.087733
-0.0727362
0.108806
-0.0629752
0.127166
-0.0541365
0.143197
-0.0464455
0.157168
-0.0396542
0.169399
-0.0343977
0.180241
-0.0300949
0.189967
-0.0268185
0.198847
-0.0243384
0.207093
-0.0226203
0.214864
-0.0212878
0.222352
-0.0204671
0.229576
-0.0196698
0.236391
-0.0186104
0.242463
-0.0160978
0.247497
-0.0128279
0.25165
-0.0102114
0.254996
-0.00763913
0.257542
-0.00519492
0.25939
-0.00280064
0.260619
-0.000518413
0.261267
0.00182202
0.261594
0.00425787
0.261669
0.00671398
0.261529
0.00954384
0.261647
0.0124905
0.261166
0.0159427
0.260661
0.0176792
0.24965
0.0169713
0.233827
0.0150492
-0.183191
0.205876
-0.0858877
0.22871
-0.0891799
0.253861
-0.0916853
0.276865
-0.0842466
0.299239
-0.0813664
0.320769
-0.075244
0.340599
-0.0669728
0.358585
-0.0599123
0.374921
-0.0513009
0.389385
-0.0437209
0.402101
-0.0365106
0.413062
-0.0293602
0.422316
-0.0226494
0.42992
-0.0164525
0.436231
-0.0100063
0.440896
-0.00377532
0.443926
0.00305406
0.445011
0.00968231
0.444414
0.016966
0.442067
0.0236371
0.438248
0.0301358
0.433228
0.0339702
0.426782
0.0349701
0.419118
0.0327208
0.410999
0.0295053
0.402523
0.0311842
0.391061
0.0379719
0.376398
0.0430622
0.360785
0.0447961
0.343986
0.0465836
0.327194
0.0511267
0.310175
0.0593697
0.295167
0.0747171
0.286333
0.129877
0.277536
0.179158
0.256828
0.117845
0.164117
0.0592354
0.00447582
0.448349
-0.0304691
0.10732
-0.160787
-0.0892796
-0.136833
-0.095299
-0.107806
-0.114129
-0.078064
-0.120011
-0.0471147
-0.125725
-0.0150098
-0.130135
0.0163549
-0.128013
0.0452666
-0.119071
0.0715838
-0.108187
0.0953374
-0.0964813
0.116204
-0.0838323
0.134485
-0.0724051
0.150618
-0.0625652
0.16485
-0.0538717
0.177508
-0.047039
0.188818
-0.0413858
0.199093
-0.0370688
0.208509
-0.0337228
0.217308
-0.0313741
0.225624
-0.0295427
0.233564
-0.0283317
0.241199
-0.0272189
0.248439
-0.0257736
0.254928
-0.0225435
0.260414
-0.01831
0.264994
-0.0147933
0.268733
-0.0113661
0.271647
-0.00812496
0.273802
-0.00497666
0.275309
-0.00199721
0.276067
0.000994353
0.27629
0.00407592
0.275902
0.00713625
0.274868
0.0104859
0.273484
0.0139917
0.271235
0.0180349
0.26849
0.020612
0.259217
0.026061
0.247108
0.0272115
-0.179728
0.203258
-0.109414
0.226976
-0.112894
0.253517
-0.118226
0.277269
-0.107997
0.300608
-0.104703
0.323155
-0.0977924
0.343781
-0.0876013
0.362614
-0.0787492
0.379926
-0.0686152
0.395081
-0.0588743
0.408454
-0.0498785
0.419978
-0.040873
0.429912
-0.032565
0.43794
-0.0244544
0.444249
-0.0162813
0.44882
-0.00830668
0.451852
5.73381e-05
0.453446
0.00809618
0.453385
0.0169639
0.451893
0.024967
0.448768
0.0330558
0.444007
0.0386585
0.437418
0.041702
0.42913
0.0411285
0.420126
0.0384899
0.411925
0.0395282
0.404349
0.0455172
0.396033
0.0512428
0.386752
0.0543791
0.375307
0.0577542
0.362107
0.064447
0.346244
0.0751773
0.326383
0.0947289
0.308163
0.147997
0.297438
0.189694
0.278494
0.136765
0.173835
0.163879
0.00972433
0.613026
-0.0406084
0.154579
-0.156284
-0.112718
-0.131605
-0.119976
-0.101324
-0.144402
-0.0707211
-0.150606
-0.0390342
-0.157406
-0.00627499
-0.162889
0.0255521
-0.159835
0.0545836
-0.148097
0.0808248
-0.134422
0.104457
-0.120106
0.12518
-0.104547
0.14338
-0.0905942
0.15956
-0.0787326
0.173935
-0.0682328
0.186827
-0.0599162
0.198508
-0.0530477
0.209161
-0.0476984
0.21898
-0.0435088
0.228167
-0.040516
0.236863
-0.0381778
0.245158
-0.03655
0.253091
-0.0350657
0.260601
-0.0332079
0.267384
-0.0292843
0.273171
-0.0240954
0.278031
-0.0196579
0.28202
-0.0153444
0.28515
-0.011275
0.287477
-0.0073306
0.289088
-0.0035832
0.289903
0.000104961
0.29019
0.00382872
0.289863
0.00750267
0.288827
0.0114282
0.287384
0.0155639
0.284904
0.0203558
0.281287
0.0244322
0.271943
0.0352277
0.260433
0.038737
-0.176916
0.201455
-0.133949
0.226458
-0.137892
0.254356
-0.14612
0.279273
-0.13291
0.303596
-0.129026
0.327451
-0.121649
0.348998
-0.109152
0.369045
-0.0988005
0.387299
-0.0868708
0.403633
-0.0752075
0.418284
-0.0645239
0.431073
-0.0536506
0.442215
-0.0436877
0.451702
-0.033915
0.45942
-0.0239648
0.465686
-0.0145325
0.470168
-0.00438725
0.472901
0.0053698
0.473939
0.0158565
0.473047
0.0256852
0.470238
0.0356512
0.465668
0.0431678
0.459172
0.0483813
0.450765
0.0496629
0.441195
0.047979
0.431883
0.0490138
0.422916
0.0546012
0.413712
0.0602118
0.404516
0.06379
0.394252
0.0677717
0.383371
0.0755195
0.371128
0.0873449
0.355271
0.110742
0.337369
0.165866
0.323712
0.203338
0.294123
0.166264
0.176542
0.281022
0.0570697
0.732914
-0.0396188
0.245606
-0.152508
-0.137121
-0.127004
-0.145474
-0.0954042
-0.175995
-0.0636514
-0.182353
-0.0309451
-0.190108
0.00276002
-0.196591
0.0353511
-0.192423
0.0648035
-0.177545
0.0912086
-0.160822
0.114856
-0.143746
0.135509
-0.125191
0.153593
-0.108667
0.16971
-0.0948382
0.184128
-0.0826371
0.197151
-0.0729241
0.209043
-0.0649213
0.219976
-0.0586059
0.230156
-0.0536555
0.239716
-0.0500293
0.248791
-0.0471902
0.257472
-0.0451536
0.265777
-0.0432839
0.27363
-0.0409846
0.280821
-0.0364332
0.287009
-0.030282
0.292221
-0.0248735
0.29657
-0.0196793
0.300007
-0.0147303
0.302607
-0.0099593
0.304466
-0.005414
0.305487
-0.000989443
0.305907
0.00344557
0.305651
0.00779816
0.304667
0.0123103
0.303182
0.0171768
0.300608
0.0227563
0.296851
0.0283836
0.287263
0.0446914
0.274485
0.0514951
-0.175291
0.201144
-0.159798
0.227194
-0.163934
0.256644
-0.175565
0.282808
-0.159071
0.308352
-0.15457
0.333256
-0.146555
0.355921
-0.131822
0.376777
-0.119659
0.396013
-0.106109
0.413217
-0.0924097
0.428627
-0.0799269
0.442374
-0.0673848
0.454334
-0.0556272
0.464577
-0.0441297
0.47317
-0.0325209
0.479954
-0.0212733
0.485067
-0.00946154
0.488399
0.00204163
0.489971
0.0142098
0.489687
0.0257836
0.487585
0.0375297
0.48372
0.0469793
0.478162
0.0541486
0.47062
0.0573377
0.461695
0.0567784
0.452717
0.0581668
0.443682
0.0637784
0.433952
0.0696815
0.423986
0.0739645
0.412877
0.078641
0.401365
0.0871761
0.389287
0.0993543
0.376197
0.124005
0.362751
0.179315
0.351001
0.215183
0.307168
0.210069
0.167236
0.42032
0.0900564
0.810046
-0.0349198
0.374723
-0.149677
-0.162726
-0.123066
-0.172077
-0.0900025
-0.209052
-0.0569277
-0.215423
-0.0229925
-0.22404
0.0119543
-0.231533
0.0455478
-0.226011
0.0757185
-0.20771
0.102527
-0.187623
0.126388
-0.167598
0.147058
-0.145852
0.165083
-0.126681
0.18114
-0.110884
0.195533
-0.097018
0.208599
-0.0859745
0.220621
-0.0769231
0.231784
-0.0697427
0.242234
-0.0640712
0.252116
-0.0598628
0.261525
-0.0565364
0.270538
-0.054087
0.279161
-0.0518196
0.287354
-0.0491003
0.294842
-0.0438803
0.301395
-0.0368348
0.30697
-0.0304508
0.311614
-0.0243072
0.315333
-0.0184669
0.318152
-0.0128101
0.320211
-0.00744119
0.321362
-0.00221278
0.321887
0.00295795
0.321721
0.00801124
0.320727
0.0132029
0.319266
0.0187745
0.316577
0.0252687
0.312786
0.0323696
0.303678
0.0537239
0.289697
0.0654643
-0.174299
0.20148
-0.186976
0.228946
-0.19139
0.260061
-0.206675
0.287414
-0.186423
0.314223
-0.181381
0.340348
-0.172683
0.364001
-0.155479
0.386017
-0.141678
0.406036
-0.126128
0.424126
-0.110497
0.440531
-0.0963236
0.455099
-0.0819374
0.467903
-0.0684102
0.47907
-0.0552663
0.488545
-0.0419568
0.496295
-0.0289783
0.502347
-0.0154743
0.506614
-0.00222288
0.508967
0.011775
0.509348
0.025206
0.50783
0.0388151
0.504462
0.0503056
0.499311
0.0595406
0.492247
0.0645438
0.483626
0.0652342
0.474804
0.0671628
0.465802
0.072943
0.455929
0.0792739
0.44564
0.0844671
0.433994
0.0900653
0.421653
0.0996352
0.408392
0.112549
0.394905
0.137665
0.382933
0.191307
0.373877
0.224352
0.323354
0.260599
0.16721
0.575852
0.0740397
0.902436
0.0528513
0.403584
-0.147451
-0.189562
-0.119679
-0.199842
-0.0849081
-0.243818
-0.0503117
-0.250015
-0.0149372
-0.259409
0.0214038
-0.267869
0.0562511
-0.260852
0.0873259
-0.238777
0.114721
-0.21501
0.138936
-0.191805
0.159747
-0.166653
0.177766
-0.144689
0.193771
-0.126877
0.208112
-0.111346
0.221161
-0.0990072
0.23327
-0.089012
0.244556
-0.0810029
0.255212
-0.0746916
0.265341
-0.0699438
0.275044
-0.0661759
0.284354
-0.0633169
0.293311
-0.0606891
0.301833
-0.0575447
0.309688
-0.0516959
0.316608
-0.0437556
0.322547
-0.0363934
0.327546
-0.0292878
0.331584
-0.0225229
0.334678
-0.0159394
0.336956
-0.00968748
0.338313
-0.00364246
0.338973
0.00233228
0.338899
0.00813345
0.337945
0.0140508
0.336443
0.0204181
0.333618
0.0279056
0.329632
0.0365421
0.32144
0.0618547
0.306686
0.080277
-0.174067
0.202618
-0.215521
0.231523
-0.220285
0.264327
-0.239476
0.293056
-0.215151
0.321308
-0.209634
0.348766
-0.200144
0.373609
-0.180326
0.39649
-0.164562
0.417578
-0.147217
0.436467
-0.129383
0.453545
-0.113392
0.468883
-0.0972602
0.482499
-0.0820033
0.494416
-0.0671519
0.504643
-0.0521427
0.513207
-0.0374951
0.519978
-0.0222037
0.524881
-0.00712363
0.527853
0.00871542
0.528806
0.0240453
0.527836
0.0395467
0.525067
0.0530442
0.520543
0.0643367
0.514059
0.0711819
0.505892
0.0732011
0.497332
0.0758928
0.48838
0.0820747
0.478441
0.0889121
0.468105
0.0950308
0.456277
0.101692
0.443644
0.112361
0.429719
0.126408
0.415278
0.152259
0.402096
0.204519
0.393246
0.233283
0.348034
0.30578
0.206932
0.716413
0.127955
0.981074
0.14402
0.387773
-0.145745
-0.217873
-0.116625
-0.228957
-0.0800743
-0.280364
-0.0438991
-0.286185
-0.00686944
-0.296433
0.0310761
-0.305808
0.0674137
-0.297183
0.0995679
-0.270925
0.127719
-0.243153
0.152445
-0.216522
0.173511
-0.187711
0.191616
-0.162784
0.207611
-0.142861
0.221903
-0.125625
0.23492
-0.112008
0.247018
-0.10109
0.258397
-0.0923561
0.269186
-0.0854459
0.279506
-0.080216
0.289454
-0.0760594
0.299067
-0.0728502
0.308303
-0.0698367
0.317133
-0.0662978
0.325336
-0.0598597
0.332637
-0.0510601
0.33892
-0.0426804
0.344267
-0.0346149
0.348595
-0.0268688
0.351974
-0.0193572
0.354494
-0.012175
0.356026
-0.00524791
0.356831
0.00155834
0.356839
0.00817696
0.35592
0.0148613
0.354426
0.022058
0.351519
0.0306145
0.347257
0.0409772
0.339998
0.0690574
0.325541
0.0949151
-0.174235
0.204387
-0.245667
0.234831
-0.250721
0.269514
-0.274156
0.299691
-0.245327
0.329226
-0.23917
0.358135
-0.229056
0.384129
-0.206324
0.408122
-0.188557
0.430167
-0.169263
0.449903
-0.149114
0.4678
-0.13128
0.483973
-0.113417
0.498259
-0.0962665
0.510856
-0.0797168
0.521898
-0.0631434
0.531126
-0.0466745
0.538622
-0.029659
0.544226
-0.0127288
0.547926
0.00491932
0.549581
0.0221707
0.549132
0.0397484
0.546939
0.0552168
0.542989
0.0685913
0.537049
0.0772879
0.529258
0.0807607
0.520865
0.0844506
0.511957
0.0911798
0.501921
0.0986272
0.491418
0.10578
0.479432
0.113502
0.466594
0.125268
0.452389
0.140551
0.437484
0.167286
0.42297
0.219069
0.411628
0.244677
0.37759
0.339728
0.279675
0.813896
0.228051
1.03252
0.232268
0.382397
-0.144535
-0.247564
-0.113951
-0.259536
-0.0754389
-0.318872
-0.0374041
-0.324215
0.00132706
-0.335158
0.0411198
-0.345595
0.0790192
-0.335076
0.112433
-0.304333
0.141509
-0.272224
0.166907
-0.241913
0.188341
-0.209137
0.206599
-0.181032
0.222643
-0.158893
0.2369
-0.139868
0.249867
-0.124959
0.261951
-0.113154
0.273343
-0.103722
0.28421
-0.0962771
0.294694
-0.090652
0.304837
-0.086138
0.314654
-0.0825854
0.324183
-0.0792764
0.333324
-0.0753628
0.341858
-0.0683555
0.349506
-0.0587129
0.356172
-0.0493505
0.36185
-0.040271
0.366519
-0.0315552
0.370174
-0.023055
0.372945
-0.0149121
0.374702
-0.00707764
0.375645
0.000642275
0.375778
0.00809929
0.374911
0.0156178
0.3734
0.0237202
0.370396
0.0334101
0.365938
0.045593
0.358811
0.0761259
0.344665
0.109306
-0.174964
0.206689
-0.277386
0.238709
-0.282735
0.275314
-0.310758
0.307152
-0.277164
0.338286
-0.270305
0.368653
-0.259426
0.395784
-0.233459
0.42098
-0.213756
0.444037
-0.19232
0.464686
-0.16976
0.483347
-0.149931
0.500128
-0.130181
0.515174
-0.111289
0.528568
-0.093079
0.54016
-0.0746941
0.550108
-0.0565756
0.558265
-0.037776
0.564582
-0.0190508
0.568848
0.000547106
0.571064
0.0197223
0.571223
0.0393341
0.569539
0.05689
0.56617
0.0722935
0.560794
0.0828449
0.553444
0.0878525
0.545378
0.0926746
0.536562
0.100209
0.526403
0.108444
0.515809
0.116637
0.5036
0.125565
0.49049
0.138425
0.476056
0.154927
0.460954
0.182477
0.445859
0.234205
0.430925
0.25965
0.406459
0.364082
0.356366
0.863706
0.334486
1.0544
0.313696
0.402121
-0.1436
-0.278922
-0.111502
-0.29163
-0.0709129
-0.359456
-0.0309362
-0.364186
0.00975542
-0.375844
0.0514308
-0.387265
0.0911179
-0.374759
0.125945
-0.339155
0.156107
-0.302382
0.182258
-0.268057
0.204192
-0.231063
0.222702
-0.199532
0.23886
-0.17504
0.253118
-0.154112
0.266044
-0.137868
0.278078
-0.125167
0.28946
-0.115077
0.300376
-0.107156
0.31093
-0.101156
0.32122
-0.0963615
0.33127
-0.0925524
0.34104
-0.0889567
0.350447
-0.0846927
0.359314
-0.0771866
0.367314
-0.0667183
0.374332
-0.0563728
0.380377
-0.0462932
0.385365
-0.0365603
0.389328
-0.0270646
0.392358
-0.0179067
0.394312
-0.00910286
0.395441
-0.000465095
0.395684
0.00791534
0.394876
0.0163129
0.393358
0.0253961
0.390291
0.0362597
0.385657
0.0503662
0.378316
0.0833921
0.364053
0.123749
-0.175982
0.209496
-0.310896
0.243268
-0.316501
0.281903
-0.34939
0.315341
-0.310601
0.348077
-0.303041
0.380013
-0.291365
0.408626
-0.262075
0.434944
-0.240077
0.459055
-0.216432
0.480586
-0.191287
0.500115
-0.169451
0.517727
-0.147776
0.533361
-0.126899
0.547344
-0.107029
0.559662
-0.0869713
0.570249
-0.0671157
0.57901
-0.0464994
0.585893
-0.0259451
0.590765
-0.00444153
0.593577
0.0166641
0.594318
0.0383283
0.593232
0.0579744
0.590439
0.0754485
0.585594
0.0878868
0.578659
0.0945107
0.57088
0.100603
0.562192
0.109127
0.552017
0.118256
0.541295
0.127637
0.52894
0.137806
0.515552
0.151837
0.500813
0.169615
0.485461
0.19788
0.470239
0.249472
0.452216
0.277704
0.432861
0.383348
0.419425
0.877015
0.421729
1.05234
0.383417
0.439776
-0.142977
-0.31192
-0.109156
-0.325445
-0.0664267
-0.402179
-0.0243564
-0.40625
0.0183867
-0.418581
0.0621254
-0.430999
0.103771
-0.4164
0.140118
-0.375499
0.171479
-0.333737
0.198554
-0.295126
0.22109
-0.253591
0.239948
-0.218379
0.256255
-0.191335
0.270562
-0.168403
0.283461
-0.150749
0.295456
-0.137139
0.306791
-0.126383
0.317705
-0.118031
0.328329
-0.111729
0.338719
-0.106682
0.348918
-0.102667
0.358891
-0.0988381
0.368588
-0.0943127
0.377762
-0.0863257
0.386105
-0.0750679
0.393479
-0.0637512
0.399866
-0.052655
0.405202
-0.0419126
0.409443
-0.0313558
0.412756
-0.0211833
0.414947
-0.0113625
0.416239
-0.00174028
0.416631
0.0075853
0.415871
0.0169591
0.414369
0.0270618
0.411222
0.0391849
0.406439
0.0552713
0.398934
0.0907964
0.384591
0.13818
-0.177456
0.212686
-0.346121
0.248311
-0.35212
0.289096
-0.390172
0.324375
-0.345879
0.358851
-0.337518
0.392418
-0.324935
0.422437
-0.292098
0.45007
-0.267714
0.47523
-0.241592
0.497727
-0.213779
0.518071
-0.189784
0.536397
-0.166082
0.552815
-0.14329
0.567466
-0.121647
0.580362
-0.0998255
0.591499
-0.0782061
0.600873
-0.0558384
0.608373
-0.0334621
0.613827
-0.0100236
0.617118
0.0131145
0.618397
0.0367766
0.617832
0.0585459
0.615595
0.0780741
0.611326
0.0923717
0.604904
0.100642
0.597437
0.108213
0.588936
0.117871
0.578737
0.12807
0.567943
0.138721
0.555469
0.150202
0.541853
0.165458
0.526846
0.184581
0.511098
0.213637
0.495768
0.264854
0.475774
0.297717
0.45785
0.401234
0.466529
0.868339
0.482595
1.03665
0.437149
0.485029
-0.142545
-0.346823
-0.107054
-0.360931
-0.0619616
-0.447265
-0.017695
-0.45051
0.0272969
-0.463568
0.0733108
-0.477008
0.116942
-0.460028
0.155007
-0.413559
0.187686
-0.366412
0.21579
-0.323223
0.239026
-0.276819
0.258315
-0.237657
0.274877
-0.207883
0.289284
-0.182794
0.302181
-0.163627
0.314133
-0.149067
0.325423
-0.137641
0.336309
-0.128876
0.346936
-0.122302
0.357401
-0.117076
0.367717
-0.112896
0.377884
-0.108912
0.387807
-0.10416
0.397286
-0.0957705
0.40595
-0.083741
0.413669
-0.0714744
0.420406
-0.059364
0.426052
-0.0475746
0.430615
-0.035972
0.434206
-0.0247373
0.436645
-0.0138668
0.438139
-0.00322256
0.438664
0.00712461
0.437991
0.0175185
0.436491
0.0287315
0.433301
0.0421519
0.428388
0.0602953
0.420679
0.098374
0.40641
0.152476
-0.179155
0.216326
-0.383287
0.253909
-0.389697
0.296984
-0.433245
0.334144
-0.383038
0.370395
-0.373771
0.405711
-0.360253
0.437263
-0.323654
0.4662
-0.296654
0.492574
-0.267966
0.516051
-0.23725
0.537338
-0.211057
0.556427
-0.185149
0.573529
-0.160365
0.588823
-0.136906
0.602228
-0.113188
0.613998
-0.0899302
0.623939
-0.0657467
0.631967
-0.0415127
0.637992
-0.0161863
0.641859
0.00897604
0.643636
0.0347194
0.643624
0.0585731
0.641948
0.0801627
0.638204
0.0963511
0.63222
0.10633
0.62509
0.115479
0.616809
0.126407
0.606659
0.137814
0.595826
0.149849
0.583257
0.162731
0.569417
0.179282
0.55419
0.199779
0.538031
0.229762
0.522472
0.280474
0.501536
0.318646
0.483147
0.419639
0.502061
0.849508
0.525279
1.01375
0.47834
0.532079
-0.142456
-0.383514
-0.104935
-0.398445
-0.0574551
-0.494738
-0.0108136
-0.497145
0.0365065
-0.510883
0.0848672
-0.525364
0.130768
-0.505924
0.170638
-0.453424
0.204802
-0.40057
0.234034
-0.352447
0.258075
-0.30085
0.277863
-0.257434
0.294737
-0.224743
0.309281
-0.197322
0.322206
-0.176532
0.334144
-0.16098
0.345391
-0.148856
0.356214
-0.139655
0.366828
-0.13286
0.377333
-0.127507
0.38774
-0.123215
0.398045
-0.119124
0.408193
-0.114232
0.417939
-0.105484
0.426909
-0.092722
0.434958
-0.0795274
0.442036
-0.0664115
0.448028
-0.0535817
0.452903
-0.0409026
0.456779
-0.0285762
0.459466
-0.016614
0.461147
-0.00489812
0.461834
0.00650484
0.461248
0.0179909
0.459774
0.0303814
0.456531
0.0451747
0.451508
0.0654251
0.443689
0.106032
0.429529
0.166633
-0.181146
0.220415
-0.422551
0.260019
-0.429295
0.305498
-0.478721
0.344609
-0.422148
0.382784
-0.411947
0.420037
-0.397509
0.45311
-0.356732
0.483478
-0.327025
0.511191
-0.295679
0.535754
-0.261806
0.557914
-0.233202
0.577829
-0.205041
0.595545
-0.17805
0.611485
-0.152809
0.625602
-0.127262
0.637898
-0.10218
0.648389
-0.0762069
0.656925
-0.0500778
0.663367
-0.0227761
0.667721
0.00433888
0.670033
0.0321226
0.670488
0.0581407
0.669348
0.0817362
0.66614
0.0998151
0.660639
0.111538
0.653916
0.122331
0.645836
0.134753
0.635759
0.147465
0.624953
0.160947
0.612329
0.175355
0.598316
0.19326
0.582883
0.215197
0.566398
0.246168
0.550461
0.296482
0.529244
0.339823
0.5099
0.439043
0.53154
0.827982
0.556967
0.988466
0.511419
0.577846
-0.142446
-0.422206
-0.103035
-0.43785
-0.0528982
-0.54487
-0.00376605
-0.546272
0.046051
-0.560695
0.0969864
-0.576295
0.145195
-0.554128
0.187055
-0.495278
0.222765
-0.436273
0.253277
-0.38295
0.278197
-0.325761
0.29861
-0.277835
0.315861
-0.241981
0.330611
-0.212055
0.343616
-0.189517
0.355536
-0.172875
0.366729
-0.160015
0.377515
-0.150398
0.388091
-0.143378
0.398588
-0.137928
0.409051
-0.133588
0.419491
-0.129469
0.429825
-0.124491
0.439812
-0.11544
0.449091
-0.102012
0.457453
-0.0878933
0.46486
-0.0737869
0.471169
-0.0599038
0.476356
-0.0461487
0.48051
-0.0326925
0.483465
-0.0196245
0.485371
-0.00680475
0.486206
0.00574025
0.485734
0.0183496
0.4843
0.0319962
0.48102
0.048243
0.475903
0.0706502
0.467945
0.113806
0.454003
0.180561
-0.183478
0.224903
-0.463971
0.266634
-0.47102
0.314622
-0.526708
0.355794
-0.463321
0.396074
-0.45223
0.435274
-0.436713
0.470041
-0.391504
0.501954
-0.358941
0.530952
-0.324675
0.556598
-0.287445
0.579736
-0.256324
0.600509
-0.225789
0.619067
-0.196576
0.635614
-0.169316
0.650286
-0.14189
0.663125
-0.114973
0.674116
-0.0871706
0.683149
-0.0591454
0.690165
-0.0299483
0.694961
-0.000750917
0.697699
0.029095
0.698684
0.0571842
0.69802
0.0828506
0.695315
0.102797
0.690266
0.116302
0.683915
0.128805
0.676129
0.142811
0.666163
0.156987
0.655367
0.172028
0.642729
0.188033
0.628581
0.207357
0.613009
0.230773
0.596194
0.262863
0.579832
0.31292
0.558715
0.360858
0.538681
0.459162
0.559032
0.807741
0.583374
0.964051
0.540669
0.62073
-0.142619
-0.463058
-0.101064
-0.479399
-0.0482178
-0.597712
0.00354629
-0.598032
0.0560152
-0.61316
0.109649
-0.629925
0.160369
-0.604843
0.204318
-0.539221
0.241742
-0.473689
0.273594
-0.414794
0.299525
-0.351682
0.320603
-0.298901
0.338298
-0.259662
0.353306
-0.227047
0.366427
-0.202617
0.378373
-0.184795
0.389529
-0.171137
0.400254
-0.161077
0.410782
-0.153846
0.421266
-0.148334
0.431751
-0.143981
0.442268
-0.139893
0.452768
-0.134917
0.463008
-0.125652
0.472546
-0.111564
0.481201
-0.0965522
0.488923
-0.0814757
0.495553
-0.0665456
0.501049
-0.0517076
0.505509
-0.0371142
0.50873
-0.022895
0.510832
-0.00891302
0.511866
0.0047785
0.511495
0.0186069
0.510113
0.0335627
0.506817
0.0513405
0.501613
0.0759711
0.493585
0.121637
0.479947
0.194193
-0.186012
0.229659
-0.507614
0.273712
-0.51507
0.324372
-0.577368
0.367772
-0.506723
0.410203
-0.494665
0.451431
-0.477946
0.488041
-0.42812
0.521552
-0.392455
0.551921
-0.355043
0.578784
-0.314301
0.603035
-0.280557
0.624647
-0.247374
0.643951
-0.215845
0.661199
-0.186524
0.676439
-0.157085
0.689837
-0.128326
0.701321
-0.0986295
0.710858
-0.0687236
0.718274
-0.0375291
0.723559
-0.00633737
0.726736
0.025627
0.728138
0.055815
0.727976
0.0834735
0.725749
0.10532
0.72119
0.120589
0.715206
0.134907
0.707699
0.150594
0.697883
0.166344
0.687127
0.183051
0.674532
0.20071
0.660273
0.221551
0.644582
0.24649
0.627521
0.279767
0.610743
0.329773
0.589856
0.381619
0.569541
0.479574
0.586911
0.790457
0.60846
0.942243
0.568893
0.660398
-0.142931
-0.506134
-0.099164
-0.523163
-0.0434457
-0.653427
0.0111518
-0.652626
0.066403
-0.668408
0.122859
-0.686377
0.176293
-0.658272
0.222446
-0.585368
0.261715
-0.512951
0.295027
-0.448096
0.322024
-0.378669
0.34386
-0.320725
0.362085
-0.277874
0.377407
-0.242353
0.390682
-0.215872
0.402698
-0.196785
0.41384
-0.182244
0.424518
-0.171708
0.434988
-0.164254
0.445425
-0.158693
0.455926
-0.15439
0.466502
-0.150375
0.477138
-0.14548
0.487566
-0.136054
0.497351
-0.121363
0.5063
-0.105506
0.514321
-0.0894608
0.521273
-0.0735089
0.527061
-0.0575616
0.531814
-0.0418298
0.535306
-0.0264293
0.537652
-0.0112716
0.538858
0.00364734
0.538603
0.018748
0.537289
0.035061
0.533986
0.054464
0.528745
0.0813389
0.520649
0.129536
0.507344
0.207508
-0.188854
0.234899
-0.553655
0.281385
-0.561554
0.334734
-0.630718
0.380583
-0.552575
0.425183
-0.53927
0.468666
-0.521434
0.507118
-0.466577
0.542332
-0.427673
0.574228
-0.386937
0.602383
-0.342448
0.627609
-0.305765
0.650236
-0.269973
0.670286
-0.23586
0.688225
-0.204422
0.704163
-0.172978
0.718065
-0.142183
0.730077
-0.110621
0.740062
-0.0787553
0.747962
-0.0456022
0.75364
-0.0123218
0.757227
0.0217485
0.759099
0.0539778
0.759324
0.0837159
0.757557
0.107401
0.753425
0.12447
0.747818
0.140627
0.740623
0.158065
0.730991
0.175505
0.720357
0.193929
0.70781
0.213379
0.693482
0.235803
0.677693
0.262328
0.660424
0.29685
0.643287
0.346975
0.622597
0.402139
0.602446
0.499818
0.61628
0.776672
0.634266
0.923875
0.597596
0.697112
-0.143433
-0.551552
-0.0972851
-0.569308
-0.0384847
-0.712224
0.0190271
-0.710135
0.0772744
-0.726652
0.136753
-0.745852
0.192946
-0.71446
0.241532
-0.633949
0.282727
-0.554137
0.317643
-0.483003
0.345818
-0.406833
0.368494
-0.343388
0.387299
-0.296664
0.402987
-0.258023
0.416477
-0.229341
0.428565
-0.208845
0.439735
-0.193376
0.45036
-0.182284
0.460771
-0.174602
0.471158
-0.169
0.481641
-0.164779
0.492258
-0.160899
0.503011
-0.156163
0.513625
-0.146643
0.523642
-0.131397
0.532839
-0.114707
0.541138
-0.0977228
0.548373
-0.0807542
0.554471
-0.0637283
0.559501
-0.0468245
0.563282
-0.0302442
0.56584
-0.013849
0.567256
0.00230802
0.567157
0.0187316
0.565885
0.0365146
0.562637
0.0575541
0.557342
0.0867733
0.549268
0.137426
0.53637
0.220435
-0.19192
0.240491
-0.602224
0.289449
-0.610511
0.345849
-0.68712
0.394014
-0.600744
0.441118
-0.58638
0.486861
-0.567183
0.527404
-0.507125
0.564343
-0.464615
0.597808
-0.4204
0.627284
-0.371915
0.653767
-0.332229
0.67731
-0.293486
0.698275
-0.256789
0.716944
-0.223049
0.733482
-0.189472
0.747966
-0.156625
0.760452
-0.12309
0.770869
-0.0892244
0.779145
-0.0540576
0.785245
-0.0187309
0.78927
0.0174323
0.791469
0.0518151
0.792105
0.0835466
0.790782
0.109051
0.787082
0.127945
0.781887
0.145931
0.774999
0.165228
0.765563
0.18446
0.755012
0.204694
0.742584
0.225964
0.728234
0.250073
0.712386
0.278249
0.694962
0.314072
0.677493
0.364492
0.657043
0.422379
0.637248
0.519698
0.647537
0.766394
0.661808
0.909169
0.627525
0.731414
-0.144032
-0.599438
-0.0953818
-0.617955
-0.0333639
-0.77424
0.0272252
-0.770721
0.0886195
-0.788043
0.151296
-0.808525
0.210504
-0.773662
0.261582
-0.685021
0.304863
-0.59741
0.34145
-0.51958
0.370905
-0.436277
0.394509
-0.366979
0.413962
-0.316101
0.43009
-0.274132
0.443834
-0.243062
0.456058
-0.221039
0.46725
-0.204529
0.477856
-0.192838
0.488209
-0.18489
0.498565
-0.179274
0.509001
-0.175122
0.519649
-0.171455
0.530483
-0.166928
0.54126
-0.157398
0.551486
-0.141641
0.560905
-0.124131
0.569485
-0.106265
0.577
-0.0882783
0.583358
-0.0701593
0.588698
-0.0521315
0.592743
-0.034315
0.595546
-0.0166775
0.597141
0.000791209
0.597189
0.0185671
0.596029
0.0378494
0.592807
0.060642
0.58753
0.0922
0.579465
0.145332
0.567045
0.232902
-0.195267
0.246455
-0.653411
0.298082
-0.662138
0.357531
-0.74657
0.408404
-0.651621
0.457949
-0.63593
0.506206
-0.615445
0.548762
-0.549686
0.587638
-0.503494
0.622788
-0.455547
0.653731
-0.402847
0.681378
-0.359855
0.70605
-0.318129
0.727878
-0.278579
0.747317
-0.242447
0.764472
-0.206583
0.779559
-0.171672
0.792515
-0.136032
0.803368
-0.100136
0.812095
-0.0629684
0.818551
-0.0254972
0.822914
0.0127798
0.825494
0.04927
0.82649