/*--------------------------------*- C++ -*----------------------------------*\
| =========                 |                                                 |
| \\      /  F ield         | OpenFOAM: The Open Source CFD Toolbox           |
|  \\    /   O peration     | Version:  2312                                  |
|   \\  /    A nd           | Website:  www.openfoam.com                      |
|    \\/     M anipulation  |                                                 |
\*---------------------------------------------------------------------------*/
FoamFile
{
    version     2.0;
    format      ascii;
    arch        "LSB;label=32;scalar=64";
    class       volScalarField;
    location    "200";
    object      turbulenceProperties:epsilon;
}
// * * * * * * * * * * * * * * * * * * * * * * * * * * * * * * * * * * * * * //

dimensions      [0 2 -3 0 0 0 0];

internalField   nonuniform List<scalar> 
10720
(
0.0598453
0.0831369
0.12317
0.160697
0.191929
0.22389
0.263537
0.314665
0.39057
0.507843
0.691245
0.994465
1.51792
2.39296
4.27812
9.43891
22.6242
70.2351
241.877
515.563
776.894
1130.71
1927.28
3783.57
7343.82
10300.1
12062.7
27279.7
47435
23481.4
7327.62
1017.42
242.301
26.1919
5.99025e-14
4.64045e-14
0.69729
24.0859
548.449
0.0606751
0.0336176
0.0188399
0.0629377
0.0140395
0.0314856
0.0436268
0.051913
0.062809
0.0769208
0.100352
0.140603
0.205667
0.327684
0.5635
1.30181
3.03643
14.2559
29.1107
40.9227
55.1939
80.2854
113.538
167.177
246.165
355.27
378.642
266.278
121.854
34.8169
4.29812
0.234894
0.0600927
0.0200036
4.04695e-14
4.0552
230.826
52.238
3435.81
0.0111321
0.0153751
0.011879
0.00937924
0.00680648
0.00480098
0.00352674
0.00269061
0.00216333
0.00181663
0.00157737
0.00139789
0.00141644
0.00188669
0.00320489
0.00733283
0.0176651
0.0419858
0.156737
1.30154
6.9065
19.9506
50.8151
94.5914
423.002
1018.2
4197.38
17600.2
14503.9
3848.78
1403.09
741.624
206.864
27.9854
0.651538
2.00582e-14
0.614001
22.5216
244.417
0.00266463
0.000464163
0.000337068
0.00523475
0.00351286
0.00269349
0.0015827
0.00144079
0.00144671
0.00145045
0.00141699
0.00133669
0.00120846
0.00105414
0.000778576
0.00556028
0.0057439
0.00685932
9.65153e-05
0.164731
2.18
0.00282391
0.0732377
1.09192
0.871331
0.872547
1.24777
1.01548
0.848159
0.52879
0.3072
0.147031
0.069832
0.0249114
0.000462465
0.0879761
4.91763
3.86312
307.94
0.000568998
1.06595e-05
0.000188274
0.000221432
0.00027218
0.000323605
0.00038638
0.000455348
0.000542412
0.000607773
0.000649207
0.00072347
0.000822297
0.000770145
0.00108551
0.00324434
0.00714298
0.0178951
0.0488579
0.105469
0.0599821
0.847067
2.1073
4.38896
10.5559
11.7164
490.712
3854.21
5577.4
3882.2
1501.28
540.129
264.679
72.2497
6.87391
1.1837
0.577914
20.9149
92.2249
0.000935256
0.00280638
0.00390642
0.00355981
0.00193376
0.000550233
6.29986e-05
0.000133714
0.000244392
0.000373511
0.000534051
0.000709313
0.000910117
0.00111284
0.00130545
0.00149456
0.00149773
0.00167472
0.0006038
0.00250866
9.05612e-05
0.00287538
0.0162193
0.00460155
0.000268179
0.00480681
0.00894744
0.00937144
0.00883412
0.00625499
0.00372859
0.00236936
0.00148551
0.000798153
0.000368993
0.000191882
0.10612
0.0518436
12.2076
0.00260521
0.00272401
0.00283588
0.00294952
0.00303682
0.00311603
0.00318476
0.0032422
0.00342947
0.00344869
0.00331657
0.00334709
0.00338046
0.00341373
0.00345343
0.00351785
0.00336835
0.0023706
0.000892094
0.00037138
3.88277e-16
2.74909e-16
2.03694e-17
5.863e-17
0.00754865
183784
439.311
1594.95
1225.24
854.926
499.412
199.099
28.0199
22.7177
10.5619
2.32729
0.22397
9.03053
42.2332
0.00433075
0.00355432
0.00159039
0.00015389
0.000305253
0.000261784
0.000225304
0.000234464
0.0002497
0.000268423
0.000290813
0.000319164
0.000353231
0.000386567
0.00042077
0.000457989
0.000486345
6.18746e-05
0.000209488
0.000358366
0.000428725
0.000581963
0.000554514
0.000510506
0.000611269
0.000657665
0.000683574
0.000703496
0.000750337
0.000801096
0.00082539
0.000807459
0.000780781
0.000724571
0.000821281
0.00043614
7.42891e-06
0.0436878
0.7042
0.00378736
0.00335118
0.00323835
0.00316455
0.00309209
0.00304698
0.00302331
0.00301638
0.00302618
0.00306985
0.00312316
0.00319041
0.00327259
0.00337268
0.00349422
0.00364898
0.00380236
0.00402474
0.00413338
0.00208557
0.00059643
0.00030825
4.01223e-16
2.94333e-16
4.15408e-17
1.02376e-10
873645
2.14082e+06
1.51812e+06
1.15902e+06
1.68822e+06
3.56722e+06
0.830523
12.3088
1.24803
1.39795
0.151675
6.40641
35.2919
0.00224722
0.000344675
0.000303164
0.000311488
0.000551404
0.00152558
0.00165267
0.00162957
0.00160744
0.00158434
0.0015587
0.00155159
0.00154475
0.00151877
0.00149521
0.00148258
0.00155559
0.00151213
0.00140745
0.00141737
0.00140614
0.00138479
0.0013604
0.001336
0.0013147
0.00129525
0.00127544
0.00125311
0.0012269
0.00119642
0.00115204
0.00110342
0.00105967
0.00103706
0.00088772
0.00118939
2.18609e-05
0.0362025
0.161823
0.000982173
0.00115726
0.000962176
0.000854865
0.000764919
0.000693838
0.000647875
0.00061919
0.000606226
0.000609749
0.000630203
0.000668957
0.00072627
0.000804115
0.000907821
0.00104699
0.0012071
0.00144727
0.00185317
0.0022598
0.00250616
0.00169354
0.000395507
0.000231764
3.89767e-16
9.7018e-11
1.95433e-05
1.89918e-05
1.12607e-05
4.66799e-06
1.50643e-06
3.74539e-07
8937.87
58.6172
1.02173
1.71472
1.34194
21.9161
91.0937
0.000375065
0.000253379
0.000532626
0.00183303
0.00236423
0.00257399
0.00259784
0.00261906
0.00264532
0.00267957
0.00271845
0.00278542
0.00285995
0.0028945
0.00293701
0.00301104
0.00309102
0.00318449
0.00326166
0.00331025
0.00333674
0.00334516
0.00333914
0.00332051
0.00329579
0.0032662
0.00322378
0.00316972
0.0031017
0.00301775
0.00292039
0.00277617
0.00259675
0.00242187
0.00209723
0.00205868
4.09769e-05
0.0284149
1.01049
0.000184455
0.000209736
0.000213609
0.000210246
0.000217289
0.000227349
0.000234693
0.000244723
0.000256127
0.000268899
0.00028523
0.00030454
0.000327094
0.000354188
0.000386733
0.000426804
0.000471054
0.000536229
9.42318e-05
0.000437658
0.00089441
0.00135944
0.00155414
0.00124306
0.000506216
0.0803856
8.62801e-06
1.42133e-05
1.23783e-05
7.03241e-06
2.99516e-06
1.06599e-06
3.80136e-07
1.50465e-07
2.73995
11.7903
6.39568e-09
735.772
4370.12
0.000387953
0.00130992
0.00222955
0.00215762
0.00166215
0.00129765
0.00133114
0.0013803
0.00144019
0.00151269
0.00159383
0.00167769
0.0017856
0.00191421
0.00205256
0.00220558
0.00232902
0.00242129
0.00248201
0.00251464
0.00252649
0.00252346
0.00250965
0.00248969
0.00246802
0.00244184
0.00240565
0.00236273
0.00231158
0.00225023
0.00218602
0.00212341
0.00205242
0.0019676
0.00184247
0.0019679
4.05981e-05
0.0143504
0.719852
0.000670461
0.000663586
0.000763257
0.000856947
0.000953156
0.0010512
0.00113342
0.00120063
0.00125927
0.00131288
0.00136237
0.00140778
0.00144928
0.00148939
0.00153025
0.00157211
0.00160752
0.00163313
0.00170897
0.0015999
0.00143677
0.00154949
0.00178216
0.00188489
0.00227516
0.19526
1135.82
9.21104e-06
1.10939e-05
8.33689e-06
4.51029e-06
2.04059e-06
9.40477e-07
5.15221e-07
3.31454e-07
1.5977e-07
5.90682e-08
2.59856e-08
6.7843e-09
0.00189679
0.00218914
0.00144878
0.000576284
7.09775e-05
0.000185016
0.000184953
0.000193585
9.1067e-06
5.73082e-05
9.64298e-05
0.000141763
0.000195076
0.00026013
0.000346676
0.000444776
0.000515515
0.000560771
0.000587066
0.000600654
0.000604674
0.000601975
0.00059491
0.000587228
0.000580123
0.00057193
0.000562797
0.000553553
0.000544164
0.000533432
0.000522993
0.000532529
0.00056821
0.000628215
0.000679786
0.0010249
4.46653e-05
0.0046576
0.247887
0.00197379
0.001745
0.00175539
0.00175506
0.00175707
0.00177471
0.00178645
0.0017905
0.00180374
0.00182799
0.00185902
0.0018935
0.00193165
0.00198219
0.00204381
0.00211007
0.00216651
0.0022732
0.00240534
0.00240171
0.00230473
0.00222995
0.00222839
0.00210774
0.00276021
0.242432
1375.98
5.42245e-06
8.69588e-06
8.41505e-06
5.66506e-06
3.11777e-06
1.70117e-06
1.04576e-06
7.24705e-07
4.26722e-07
1.97783e-07
9.84658e-08
3.52136e-08
0.00183291
0.000766893
0.000287004
0.000107909
7.33727e-05
6.65642e-05
6.50778e-05
7.02387e-05
7.46313e-05
7.60052e-05
8.22735e-05
9.14423e-05
0.000101194
0.00011248
0.000127423
0.000145338
0.000160098
0.000171303
0.000179821
0.000186479
0.000191552
0.000195429
0.000198571
0.00020142
0.00020372
0.000205176
0.000205894
0.000205999
0.000205422
0.000203914
0.000201655
0.000201756
0.000204152
0.000217805
0.000217253
2.09437e-06
9.78366e-05
0.000370706
0.0192483
0.00117543
0.00108179
0.000963444
0.000868292
0.000771561
0.000720571
0.000701875
0.000679719
0.000674657
0.000688068
0.000708217
0.000733106
0.000762748
0.000816478
0.00089128
0.000966965
0.00105628
0.00117994
0.00136903
0.00158907
0.00176678
0.00188021
0.00199009
0.00193622
0.0024807
0.214981
1206.93
2.9763e-06
6.16502e-06
7.50847e-06
6.19645e-06
4.06387e-06
2.54036e-06
1.70013e-06
1.23751e-06
8.20788e-07
4.37509e-07
2.4126e-07
1.20048e-07
0.000326575
0.000146253
0.000135419
0.000243973
0.000458808
0.000462291
0.00044449
0.000480585
0.000502481
0.00046385
0.000470092
0.000487964
0.000496167
0.000499195
0.000499027
0.000498759
0.000498113
0.000495482
0.000491977
0.000488124
0.000483982
0.000479894
0.000476556
0.000473747
0.000470336
0.000465848
0.00045986
0.000452479
0.000443399
0.000432609
0.000419415
0.000398848
0.000364073
0.000356178
0.00029322
0.000160165
0.000245667
2.84649e-05
0.00441216
2.39866e-05
6.90258e-05
0.000136284
0.000117782
0.000111998
0.000116139
0.000122478
0.000125619
0.000130499
0.000136751
0.000144393
0.000152649
0.000161626
0.000179138
0.000193526
0.000203922
0.000224593
0.000254055
2.66101e-05
0.000236097
0.000491402
0.000741142
0.00100501
0.00112675
0.00174359
0.155085
867.711
1.54355e-06
4.024e-06
6.05255e-06
6.04107e-06
4.66366e-06
3.29306e-06
2.37485e-06
1.79329e-06
1.27632e-06
7.48778e-07
4.47897e-07
2.74723e-07
0.000107565
9.61442e-05
0.000784059
0.00105008
0.00112247
0.00114585
0.00113531
0.00115229
0.00117951
0.00115328
0.00117015
0.0012121
0.00122518
0.00123645
0.00124601
0.00125386
0.00125705
0.00125647
0.00125292
0.00124704
0.00123939
0.00123123
0.001223
0.00121329
0.00120088
0.00118549
0.00116671
0.0011451
0.00111998
0.00109181
0.00106027
0.00102575
0.00097327
0.000903135
0.000811456
0.00070809
0.000623438
9.99228e-05
2.1633e-06
0.000150895
0.000107409
1.97918e-05
5.90196e-05
9.05207e-05
0.000150825
0.000214974
0.000248565
0.000277242
0.000300243
0.000318866
0.000334243
0.000346433
0.000385733
0.00037924
0.000341442
0.000350485
0.000359696
0.000362858
0.000357153
0.000395234
0.000490272
0.000645561
0.000715954
0.00123409
0.116129
651.602
7.62163e-07
2.44988e-06
4.47385e-06
5.32945e-06
4.79469e-06
3.79639e-06
2.94115e-06
2.33064e-06
1.73851e-06
1.09876e-06
7.04884e-07
4.94265e-07
0.000439574
0.000993939
0.00106469
0.000794736
0.000724058
0.000696035
0.000694086
0.000680822
0.000689711
0.000719398
0.000729774
0.000747613
0.000760545
0.000771321
0.000780022
0.000785713
0.000788766
0.000789449
0.000788024
0.000784819
0.000780213
0.000774586
0.000767658
0.000759177
0.000749154
0.000737735
0.000724938
0.000711089
0.000695822
0.00067934
0.000661696
0.00064728
0.000639814
0.000629258
0.000611561
0.000586329
0.000581051
0.000479371
4.3925e-05
0.000732568
0.000754588
0.000826907
0.000902403
0.000970303
0.00101508
0.00105301
0.00108604
0.00111612
0.00114283
0.00116664
0.00118875
0.00121025
0.00123141
0.00125803
0.00128305
0.00134021
0.00134958
0.00131415
0.00126805
0.00117596
0.0010863
0.00104568
0.000957321
0.00122849
0.113288
641.353
3.59932e-07
1.40308e-06
3.06496e-06
4.30255e-06
4.46742e-06
3.94546e-06
3.28287e-06
2.71325e-06
2.12909e-06
1.45211e-06
9.99756e-07
7.64732e-07
0.00105961
0.000864206
0.00034506
9.53574e-05
5.20706e-05
2.97572e-05
2.89463e-05
3.22227e-05
3.8235e-05
4.63131e-05
5.03264e-05
5.41943e-05
5.8349e-05
6.26187e-05
6.66881e-05
7.04191e-05
7.35887e-05
7.60858e-05
7.7818e-05
7.87947e-05
7.89948e-05
7.8499e-05
7.74596e-05
7.62754e-05
7.52338e-05
7.42842e-05
7.3449e-05
7.27932e-05
7.23522e-05
7.19611e-05
7.13456e-05
7.15389e-05
8.67326e-05
0.000114333
0.000149842
0.000200729
0.000253517
0.000329717
0.00014227
0.000944569
0.000835371
0.000803933
0.000796902
0.000788054
0.000781967
0.000779304
0.000781798
0.000792526
0.000807192
0.000823046
0.000842144
0.000866099
0.000894435
0.000926554
0.000961598
0.00100025
0.00104204
0.00108803
0.00113497
0.00117361
0.00118344
0.00115454
0.0010634
0.00121487
0.0992101
0.00529773
0.00340731
7.60162e-07
1.96133e-06
3.2069e-06
3.80701e-06
3.73191e-06
3.33497e-06
2.8739e-06
2.37346e-06
1.75284e-06
1.10535e-06
8.80972e-07
0.00060497
0.00010576
6.05208e-05
3.62389e-05
3.41782e-05
3.59405e-05
3.72065e-05
3.74919e-05
3.78382e-05
3.85392e-05
3.82589e-05
3.79933e-05
3.8137e-05
3.84407e-05
3.8996e-05
3.98567e-05
4.08478e-05
4.19675e-05
4.31739e-05
4.4401e-05
4.55611e-05
4.66496e-05
4.76613e-05
4.85365e-05
4.91874e-05
4.96714e-05
5.00597e-05
5.03649e-05
5.0566e-05
5.06024e-05
5.04524e-05
5.01789e-05
5.16211e-05
5.41273e-05
5.97222e-05
6.37886e-05
6.86786e-05
8.8687e-05
0.000110663
0.000292611
0.000281479
0.000212975
0.000173838
0.000143564
0.000120549
0.000104865
9.69778e-05
9.92277e-05
0.000105424
0.000111877
0.000122898
0.000140471
0.000162532
0.000188596
0.000218546
0.000253205
0.000288388
0.000324411
0.000393964
0.000506871
0.000615132
0.000709555
0.000753811
0.000916028
0.0607193
0.0211302
0.0169253
3.91046e-07
1.17899e-06
2.22237e-06
2.99011e-06
3.23769e-06
3.10575e-06
2.79908e-06
2.42237e-06
1.51787e-06
1.29954e-07
7.48605e-09
0.000110293
3.24332e-05
7.92836e-05
0.000158934
0.000181071
0.00020749
0.000214081
0.000215473
0.000214726
0.000213451
0.000211857
0.000210005
0.000208181
0.000206426
0.000204702
0.000203121
0.000201669
0.000200281
0.00019896
0.000197695
0.000196432
0.00019512
0.000193735
0.000192208
0.000190408
0.00018828
0.00018581
0.00018304
0.000179861
0.000176156
0.00017208
0.000166975
0.000155832
0.000137773
0.000125964
9.21701e-05
4.93294e-05
6.2417e-05
0.000101821
4.03979e-05
4.48585e-05
4.57326e-05
4.42077e-05
4.5082e-05
4.61798e-05
4.59515e-05
4.67046e-05
4.83953e-05
5.00449e-05
5.18308e-05
5.40841e-05
5.7249e-05
6.12731e-05
6.60067e-05
7.15526e-05
7.80823e-05
8.50481e-05
9.23758e-05
0.000107969
0.000125332
3.09388e-05
0.00014744
0.000252749
0.000411149
0.0211993
0.0264871
0.0261313
1.91435e-07
6.68394e-07
1.43987e-06
2.17876e-06
2.59342e-06
2.66777e-06
2.52068e-06
2.24304e-06
1.95878e-08
1.15766e-13
2.26463e-15
6.14204e-05
0.000145147
0.000427184
0.000528846
0.000529769
0.000538991
0.000541889
0.000540775
0.000538489
0.000536203
0.000534161
0.000532172
0.000530262
0.000528368
0.000526394
0.000524369
0.00052224
0.000519926
0.000517394
0.000514577
0.000511358
0.000507607
0.00050328
0.000498243
0.000492319
0.000485602
0.000478125
0.000470028
0.000461065
0.000451027
0.000440365
0.000428904
0.000413562
0.00038927
0.000356266
0.000311044
0.000263752
0.000196178
0.000161985
2.72264e-05
6.61952e-05
0.000115558
0.000152955
0.00018336
0.000207821
0.000224842
0.000236674
0.00024502
0.000250766
0.000254149
0.000255749
0.000256355
0.00025633
0.000255918
0.000255294
0.000254655
0.000254402
0.000253877
0.000269353
0.000236972
0.000185559
0.000185036
0.000209571
0.000259632
0.00739209
0.0318278
0.0383145
8.92972e-08
3.58325e-07
8.75804e-07
1.48075e-06
1.92956e-06
2.12558e-06
2.10801e-06
8.08528e-07
4.38083e-13
2.07804e-15
5.3672e-16
0.000336198
0.000507952
0.000494577
0.000374798
0.000357111
0.000349864
0.000346896
0.000343931
0.000341517
0.000339799
0.000338926
0.000338577
0.000338434
0.000338388
0.000338348
0.000338193
0.00033786
0.000337261
0.000336345
0.000335061
0.000333333
0.000331104
0.000328346
0.000325037
0.000321158
0.000316826
0.000312055
0.000306913
0.000301299
0.00029503
0.000288451
0.000282402
0.000279449
0.000277889
0.000274168
0.00026689
0.000253183
0.000217184
0.000183925
0.000478672
0.000486254
0.000520583
0.000550885
0.000571559
0.000586218
0.000595333
0.000599945
0.000601463
0.000600891
0.000599289
0.000597288
0.000595116
0.000593319
0.000592204
0.000591266
0.000590073
0.000588959
0.000587998
0.000585948
0.000564516
0.000539349
0.000474241
0.000401183
0.000359668
0.00338332
0.0419794
0.0611694
3.97121e-08
1.81966e-07
5.01648e-07
9.42692e-07
1.34039e-06
1.57953e-06
1.64536e-06
9.63951e-07
3.11673e-12
2.56139e-15
3.32659e-15
0.000539289
0.00036683
0.000125621
4.99593e-05
3.97259e-05
3.15087e-05
2.84827e-05
2.70614e-05
2.62003e-05
2.58591e-05
2.59217e-05
2.62977e-05
2.68733e-05
2.75804e-05
2.83643e-05
2.91896e-05
3.00119e-05
3.08132e-05
3.15573e-05
3.22275e-05
3.27964e-05
3.32627e-05
3.36314e-05
3.39406e-05
3.42072e-05
3.44171e-05
3.45689e-05
3.46631e-05
3.4718e-05
3.46719e-05
3.44733e-05
3.4145e-05
3.70727e-05
4.83838e-05
6.55009e-05
9.03688e-05
0.000118049
0.000133845
0.000135439
0.00045273
0.000414076
0.000398507
0.000391944
0.000381671
0.000371349
0.000363084
0.000356499
0.000352073
0.00034982
0.000349248
0.000350067
0.000351934
0.000354875
0.000358876
0.000363574
0.000368674
0.000374453
0.000381237
0.000392331
0.000411681
0.000426586
0.000428591
0.000420752
0.000382398
0.00145034
0.0433852
0.0759917
1.68405e-08
8.76412e-08
2.71225e-07
5.64151e-07
8.73225e-07
1.10032e-06
1.20588e-06
8.92602e-07
1.38949e-11
4.60168e-13
8.67566e-16
0.000217997
1.57962e-05
1.99932e-05
1.00727e-05
9.65526e-06
9.86163e-06
1.04556e-05
1.04935e-05
1.02677e-05
1.00296e-05
9.68347e-06
9.3726e-06
9.1944e-06
9.0707e-06
9.03558e-06
9.11484e-06
9.26193e-06
9.48407e-06
9.76731e-06
1.01007e-05
1.04634e-05
1.08509e-05
1.12583e-05
1.16481e-05
1.19654e-05
1.22291e-05
1.24672e-05
1.26795e-05
1.28661e-05
1.3008e-05
1.30895e-05
1.3092e-05
1.36154e-05
1.51132e-05
1.83722e-05
2.12446e-05
2.63838e-05
3.5403e-05
6.66768e-05
8.49979e-05
9.30569e-05
6.11609e-05
4.33008e-05
2.94175e-05
1.81392e-05
1.0104e-05
5.42133e-06
3.61933e-06
4.0328e-06
5.81623e-06
8.46139e-06
1.17365e-05
1.5703e-05
2.03569e-05
2.5619e-05
3.1613e-05
3.84873e-05
4.60821e-05
5.54212e-05
7.7101e-05
0.000117209
0.000168371
0.000217315
0.000236002
0.000562886
0.0331073
0.0692833
6.81091e-09
4.00703e-08
1.3869e-07
3.18309e-07
5.3557e-07
7.21859e-07
8.34085e-07
7.34649e-07
4.73437e-11
4.0328e-17
5.33024e-16
3.83131e-05
1.21881e-05
3.15503e-05
1.8815e-05
2.47399e-05
3.24277e-05
3.87678e-05
4.15534e-05
4.22101e-05
4.20456e-05
4.15056e-05
4.07839e-05
4.00937e-05
3.94547e-05
3.88368e-05
3.82898e-05
3.78059e-05
3.73685e-05
3.69794e-05
3.66405e-05
3.63383e-05
3.60566e-05
3.58079e-05
3.5589e-05
3.53415e-05
3.50201e-05
3.46346e-05
3.42003e-05
3.37126e-05
3.31468e-05
3.24937e-05
3.16473e-05
3.02235e-05
2.52281e-05
2.27309e-05
1.03993e-05
2.29544e-05
9.5792e-06
3.41141e-05
1.25057e-05
1.41984e-05
1.21073e-05
1.05066e-05
9.97256e-06
9.69708e-06
9.26766e-06
9.04225e-06
8.98185e-06
9.04355e-06
9.31867e-06
9.7014e-06
1.01693e-05
1.08004e-05
1.15799e-05
1.24894e-05
1.35413e-05
1.4764e-05
1.61402e-05
1.77937e-05
2.10521e-05
2.74668e-05
3.44259e-05
1.48966e-05
5.18617e-05
0.000189643
0.0174522
0.0434011
2.62779e-09
1.74093e-08
6.7194e-08
1.69783e-07
3.10326e-07
4.4779e-07
5.46969e-07
5.43266e-07
1.29926e-10
2.97302e-15
1.47916e-15
3.40793e-05
7.45179e-05
0.000198076
0.000230157
0.000229658
0.000231823
0.000236187
0.000237253
0.00023562
0.000233293
0.000231182
0.000229353
0.000227764
0.00022633
0.000224954
0.000223611
0.000222254
0.000220836
0.00021934
0.000217741
0.000215998
0.000214053
0.000211886
0.000209476
0.000206759
0.000203754
0.000200488
0.00019698
0.000193214
0.000189113
0.000184652
0.000179922
0.000175172
0.000165626
0.000150445
0.000129128
0.000103756
7.84326e-05
6.4101e-05
8.70626e-06
1.17766e-05
2.21693e-05
3.16758e-05
4.06849e-05
4.88775e-05
5.48695e-05
5.80449e-05
5.95776e-05
6.01977e-05
6.03788e-05
6.03566e-05
6.01498e-05
5.99533e-05
5.987e-05
5.97416e-05
5.95273e-05
5.92527e-05
5.89542e-05
5.83942e-05
5.53896e-05
5.31416e-05
3.46603e-05
1.87737e-05
1.73808e-05
8.44926e-05
0.0105508
0.0310308
9.67486e-10
7.19421e-09
3.08991e-08
8.58298e-08
1.70416e-07
2.63655e-07
3.415e-07
3.72149e-07
3.04385e-10
1.01834e-14
6.97361e-16
0.000188215
0.000257699
0.000249981
0.00021481
0.000216667
0.000212665
0.000210819
0.000209539
0.000207104
0.000204624
0.000202852
0.000201641
0.000200683
0.000199832
0.00019901
0.000198159
0.000197248
0.000196254
0.000195152
0.000193921
0.000192524
0.000190907
0.000189024
0.000186852
0.000184383
0.000181666
0.000178726
0.000175569
0.000172198
0.000168554
0.000164618
0.000160486
0.000157304
0.000154663
0.000149356
0.00014304
0.000131017
0.000106482
8.45546e-05
0.000252152
0.000241908
0.000247576
0.000253943
0.000257914
0.00026052
0.000262173
0.000261888
0.000260637
0.000259263
0.000257857
0.00025639
0.000254617
0.000252974
0.000251566
0.000250029
0.00024819
0.000246191
0.000244178
0.000241971
0.000239149
0.000226199
0.000202151
0.000173412
0.000144153
0.000141702
0.0144161
0.0509401
3.40063e-10
2.83103e-09
1.35069e-08
4.12148e-08
8.89475e-08
1.47881e-07
2.03775e-07
2.40065e-07
6.29495e-10
1.10409e-13
4.05592e-15
0.000286667
0.000184728
8.06899e-05
5.75305e-05
5.68508e-05
5.38099e-05
5.06003e-05
4.92499e-05
4.80903e-05
4.70346e-05
4.63798e-05
4.60258e-05
4.5779e-05
4.55588e-05
4.53565e-05
4.51608e-05
4.49738e-05
4.48005e-05
4.46377e-05
4.44857e-05
4.43389e-05
4.41852e-05
4.40165e-05
4.38191e-05
4.35671e-05
4.3256e-05
4.28919e-05
4.2444e-05
4.19358e-05
4.13338e-05
4.06258e-05
3.97202e-05
3.94181e-05
4.30253e-05
5.10176e-05
6.07686e-05
6.96899e-05
7.40131e-05
6.92598e-05
0.000259418
0.000247408
0.00024026
0.000236155
0.000231398
0.000226901
0.000223759
0.000220353
0.000216906
0.000214469
0.000212504
0.00021079
0.000208917
0.000207528
0.000206806
0.000206009
0.000205115
0.000204279
0.000203637
0.000203092
0.000204636
0.000207589
0.000205458
0.000200021
0.000183516
0.000174819
0.0151186
0.00173811
0.00243585
1.06176e-09
5.61935e-09
1.88406e-08
4.42343e-08
7.92336e-08
1.16551e-07
1.47563e-07
1.17556e-09
6.31875e-13
2.41604e-14
0.000119021
1.30578e-05
1.35197e-05
8.63564e-06
8.69243e-06
8.43688e-06
7.96923e-06
7.60137e-06
7.25449e-06
6.94842e-06
6.61425e-06
6.32649e-06
6.12409e-06
5.93776e-06
5.80718e-06
5.75273e-06
5.74324e-06
5.79236e-06
5.89275e-06
6.03726e-06
6.216e-06
6.42539e-06
6.65989e-06
6.87913e-06
7.03733e-06
7.15962e-06
7.27206e-06
7.36718e-06
7.44692e-06
7.50444e-06
7.53596e-06
7.52089e-06
7.61158e-06
8.46669e-06
1.02229e-05
1.26842e-05
6.5434e-06
2.50577e-05
3.76156e-05
6.54762e-05
6.48237e-05
5.82088e-05
5.51996e-05
5.20266e-05
4.89418e-05
4.63846e-05
4.48785e-05
4.37513e-05
4.29334e-05
4.23933e-05
4.20899e-05
4.20177e-05
4.20513e-05
4.23077e-05
4.28005e-05
4.35374e-05
4.45618e-05
4.59058e-05
4.73267e-05
5.00185e-05
6.10047e-05
7.74458e-05
9.67391e-05
0.000109848
0.000127491
0.00752851
0.00408721
0.00665721
3.79621e-10
2.22769e-09
8.20853e-09
2.10017e-08
4.06472e-08
6.40539e-08
8.70455e-08
2.00416e-09
2.98198e-12
1.19617e-13
2.33754e-05
4.12538e-06
9.98815e-06
1.14615e-05
1.21415e-05
1.3169e-05
1.38773e-05
1.4011e-05
1.39011e-05
1.3685e-05
1.31832e-05
1.2622e-05
1.21737e-05
1.17352e-05
1.1398e-05
1.12125e-05
1.11143e-05
1.11317e-05
1.12524e-05
1.1459e-05
1.17296e-05
1.20552e-05
1.24258e-05
1.27547e-05
1.29441e-05
1.30558e-05
1.31467e-05
1.32133e-05
1.32527e-05
1.32606e-05
1.32327e-05
1.31671e-05
1.30715e-05
1.26343e-05
1.14663e-05
9.67198e-06
9.15384e-06
1.10962e-05
1.18595e-05
8.99931e-06
9.02748e-06
8.65545e-06
7.86795e-06
7.48865e-06
7.12901e-06
6.62315e-06
6.37353e-06
6.17634e-06
5.98012e-06
5.8827e-06
5.82485e-06
5.8103e-06
5.84462e-06
5.92113e-06
6.04955e-06
6.22827e-06
6.46114e-06
6.75197e-06
7.0633e-06
7.57057e-06
9.34663e-06
1.19952e-05
1.68455e-05
1.87412e-05
4.36925e-05
0.00168431
0.00447676
0.0084543
1.2952e-10
8.41918e-10
3.41317e-09
9.53078e-09
1.99863e-08
3.38791e-08
4.94616e-08
3.09961e-09
1.21746e-11
3.2414e-15
1.09953e-05
1.68723e-05
6.52213e-05
7.48073e-05
7.79074e-05
8.24642e-05
8.65788e-05
8.92969e-05
9.07866e-05
9.14177e-05
9.14927e-05
9.12341e-05
9.08095e-05
9.03118e-05
8.97664e-05
8.91904e-05
8.85901e-05
8.79554e-05
8.72844e-05
8.65679e-05
8.5792e-05
8.49268e-05
8.39528e-05
8.28737e-05
8.16854e-05
8.03892e-05
7.89977e-05
7.75171e-05
7.59481e-05
7.42925e-05
7.25336e-05
7.06738e-05
6.87532e-05
6.51655e-05
5.80396e-05
4.80823e-05
3.81592e-05
2.58623e-05
2.09417e-05
2.1868e-05
1.44759e-05
1.46476e-05
1.36149e-05
1.34289e-05
1.3368e-05
1.29583e-05
1.2787e-05
1.26335e-05
1.23953e-05
1.22788e-05
1.2169e-05
1.20725e-05
1.20384e-05
1.20181e-05
1.20215e-05
1.2031e-05
1.20462e-05
1.20664e-05
1.20766e-05
1.20643e-05
1.16115e-05
1.03857e-05
8.73528e-06
1.04135e-05
1.4143e-05
0.000164361
0.00224977
0.00563114
4.22046e-11
3.03637e-10
1.35492e-09
4.13729e-09
9.42893e-09
1.72524e-08
2.71248e-08
4.21603e-09
4.22717e-11
4.03548e-14
6.58966e-05
0.000133188
0.000139819
0.000135353
0.000134077
0.000133673
0.000133552
0.00013308
0.000132114
0.000130755
0.000129265
0.000127799
0.000126422
0.000125168
0.00012401
0.000122915
0.00012186
0.000120812
0.000119747
0.000118643
0.000117474
0.000116191
0.000114756
0.000113164
0.000111429
0.000109561
0.000107574
0.000105475
0.00010327
0.000100961
9.85313e-05
9.60098e-05
9.36086e-05
9.10011e-05
8.66075e-05
8.03998e-05
7.07053e-05
5.45565e-05
4.14745e-05
0.000102904
0.000102141
9.67203e-05
9.39164e-05
9.17774e-05
9.03052e-05
8.93772e-05
8.87128e-05
8.8232e-05
8.78273e-05
8.74281e-05
8.70176e-05
8.65581e-05
8.60454e-05
8.54697e-05
8.47962e-05
8.39935e-05
8.31017e-05
8.21722e-05
8.11736e-05
8.01033e-05
7.63121e-05
6.7659e-05
5.65806e-05
4.79227e-05
3.40006e-05
8.21436e-05
0.00226345
0.00120207
0.00137545
1.046e-10
5.14177e-10
1.71899e-09
4.26934e-09
8.46146e-09
1.43637e-08
4.78374e-09
1.18472e-10
2.56878e-13
0.000157991
0.000121915
7.35203e-05
6.93765e-05
6.6267e-05
6.26598e-05
5.94898e-05
5.69316e-05
5.48777e-05
5.30724e-05
5.15306e-05
5.02799e-05
4.92567e-05
4.84205e-05
4.77171e-05
4.70931e-05
4.65215e-05
4.59806e-05
4.54397e-05
4.48955e-05
4.43268e-05
4.37171e-05
4.30584e-05
4.23468e-05
4.16036e-05
4.0835e-05
4.00449e-05
3.92317e-05
3.84045e-05
3.75534e-05
3.66785e-05
3.57576e-05
3.49705e-05
3.54027e-05
3.78244e-05
4.13324e-05
4.40239e-05
4.3466e-05
3.90253e-05
0.000153488
0.000141968
0.000138286
0.000134704
0.000131957
0.000129794
0.000128212
0.000126945
0.000125855
0.000124864
0.000123893
0.000122928
0.000121952
0.000120952
0.000119916
0.000118793
0.000117543
0.000116219
0.000114888
0.000113523
0.000112353
0.000110999
0.000106773
0.000100109
9.14857e-05
7.71238e-05
8.53931e-05
0.00159942
0.00395279
0.00541726
3.44701e-11
1.867e-10
6.84509e-10
1.85585e-09
3.99703e-09
7.34598e-09
4.37376e-09
2.568e-10
1.20656e-12
0.000100581
2.84935e-05
1.43117e-05
1.06374e-05
1.03244e-05
9.98783e-06
9.50225e-06
8.88491e-06
8.33837e-06
7.86212e-06
7.31932e-06
6.82211e-06
6.43906e-06
6.09304e-06
5.82312e-06
5.65093e-06
5.53457e-06
5.49e-06
5.50688e-06
5.5772e-06
5.68699e-06
5.83223e-06
6.00681e-06
6.15922e-06
6.23613e-06
6.27533e-06
6.31007e-06
6.33799e-06
6.35923e-06
6.37029e-06
6.3711e-06
6.35659e-06
6.35775e-06
6.57774e-06
7.17781e-06
8.38454e-06
6.90691e-06
1.63784e-05
2.18224e-05
6.32139e-05
6.33763e-05
5.84306e-05
5.58174e-05
5.43417e-05
5.32168e-05
5.23703e-05
5.16873e-05
5.10556e-05
5.0464e-05
4.98786e-05
4.93196e-05
4.87931e-05
4.83e-05
4.78476e-05
4.74193e-05
4.70065e-05
4.66419e-05
4.63528e-05
4.6117e-05
4.60879e-05
4.78052e-05
5.21916e-05
5.68831e-05
6.04181e-05
6.15068e-05
6.29822e-05
0.00050092
0.00381267
0.000407128
0.000320008
6.49675e-11
2.61523e-10
7.75611e-10
1.81942e-09
3.62974e-09
3.28496e-09
4.29101e-10
4.32087e-12
1.58979e-06
4.14776e-06
1.21978e-06
1.98027e-06
2.40828e-06
2.74037e-06
2.94412e-06
2.99735e-06
2.98323e-06
2.94463e-06
2.83294e-06
2.6969e-06
2.58218e-06
2.46351e-06
2.36426e-06
2.30044e-06
2.25675e-06
2.24244e-06
2.25532e-06
2.29328e-06
2.35094e-06
2.42848e-06
2.52359e-06
2.61218e-06
2.66472e-06
2.69609e-06
2.7237e-06
2.74665e-06
2.76444e-06
2.77607e-06
2.78051e-06
2.77727e-06
2.75824e-06
2.68223e-06
2.34667e-06
1.80137e-06
2.59153e-06
4.04097e-06
4.22812e-06
8.85413e-06
8.98177e-06
8.83383e-06
8.06668e-06
7.91267e-06
7.826e-06
7.52697e-06
7.37024e-06
7.2171e-06
7.01261e-06
6.88092e-06
6.7561e-06
6.64796e-06
6.58485e-06
6.53799e-06
6.51604e-06
6.50878e-06
6.51893e-06
6.54546e-06
6.58102e-06
6.64242e-06
6.9408e-06
7.90087e-06
2.72069e-06
1.15997e-05
2.10458e-05
2.91987e-05
0.000103289
0.0016727
0.00125305
0.00112158
2.17219e-11
9.60715e-11
3.1204e-10
7.9908e-10
1.73433e-09
2.12203e-09
5.59983e-10
1.19852e-11
1.33125e-06
8.05253e-06
7.7969e-06
1.2655e-05
1.51393e-05
1.68268e-05
1.80352e-05
1.87956e-05
1.92258e-05
1.94843e-05
1.95899e-05
1.95829e-05
1.95297e-05
1.94448e-05
1.93387e-05
1.92287e-05
1.91158e-05
1.9001e-05
1.88848e-05
1.87669e-05
1.86448e-05
1.8512e-05
1.83678e-05
1.82109e-05
1.80289e-05
1.78122e-05
1.7566e-05
1.72922e-05
1.69893e-05
1.66592e-05
1.62999e-05
1.59117e-05
1.5452e-05
1.46967e-05
1.2581e-05
9.45223e-06
6.37247e-06
2.8188e-06
3.35892e-06
4.56346e-06
3.07094e-06
3.07029e-06
2.85636e-06
2.8545e-06
2.89944e-06
2.84898e-06
2.84067e-06
2.82875e-06
2.78404e-06
2.76152e-06
2.73535e-06
2.70764e-06
2.69332e-06
2.6791e-06
2.66858e-06
2.65775e-06
2.64681e-06
2.63503e-06
2.62165e-06
2.59858e-06
2.54517e-06
2.20719e-06
2.11653e-06
3.03141e-06
3.89899e-06
8.54683e-08
1.2953e-05
0.000311042
0.00109271
0.00125534
6.99132e-12
3.40123e-11
1.21111e-10
3.39143e-10
8.02228e-10
1.22973e-09
5.78866e-10
2.59677e-11
7.86998e-06
5.13208e-05
5.54304e-05
5.9751e-05
6.17868e-05
6.23953e-05
6.24816e-05
6.22611e-05
6.18278e-05
6.12963e-05
6.07279e-05
6.01446e-05
5.95832e-05
5.90473e-05
5.85269e-05
5.80267e-05
5.75371e-05
5.70444e-05
5.65431e-05
5.6024e-05
5.54742e-05
5.48752e-05
5.42163e-05
5.34992e-05
5.27193e-05
5.18704e-05
5.09684e-05
5.00182e-05
4.90115e-05
4.79514e-05
4.68286e-05
4.56464e-05
4.43967e-05
4.30879e-05
4.06622e-05
3.69363e-05
3.15546e-05
2.50487e-05
1.86116e-05
2.58365e-05
2.12556e-05
1.9896e-05
1.9358e-05
1.91919e-05
1.92994e-05
1.94168e-05
1.95289e-05
1.96361e-05
1.96851e-05
1.96911e-05
1.9662e-05
1.95944e-05
1.94995e-05
1.93765e-05
1.92186e-05
1.90206e-05
1.87906e-05
1.85426e-05
1.82822e-05
1.79807e-05
1.75286e-05
1.5165e-05
1.18661e-05
9.20495e-06
5.15768e-06
2.33677e-06
4.22015e-06
5.46388e-05
0.000671723
0.00024569
0.000185854
1.16284e-11
4.54504e-11
1.39363e-10
3.5985e-10
6.58778e-10
4.88038e-10
4.4666e-11
7.25003e-05
7.32313e-05