/*--------------------------------*- C++ -*----------------------------------*\
| =========                 |                                                 |
| \\      /  F ield         | OpenFOAM: The Open Source CFD Toolbox           |
|  \\    /   O peration     | Version:  2312                                  |
|   \\  /    A nd           | Website:  www.openfoam.com                      |
|    \\/     M anipulation  |                                                 |
\*---------------------------------------------------------------------------*/
FoamFile
{
    version     2.0;
    format      ascii;
    arch        "LSB;label=32;scalar=64";
    class       volScalarField;
    location    "200";
    object      turbulenceProperties:L;
}
// * * * * * * * * * * * * * * * * * * * * * * * * * * * * * * * * * * * * * //

dimensions      [0 1 0 0 0 0 0];

internalField   nonuniform List<scalar> 
10720
(
0.00673073
0.00480708
0.00444587
0.0046066
0.00528378
0.00620314
0.00721007
0.00827167
0.00928134
0.010242
0.0112174
0.0123766
0.013921
0.0158576
0.018654
0.022125
0.023166
0.0214658
0.0162117
0.0146842
0.0167494
0.0226178
0.0340498
0.0533978
0.0777494
0.0981748
0.269743
0.267479
0.0897481
0.0492274
0.0261269
0.00777212
0.00357049
0.00141951
8.53192e-11
1.09613e-10
0.000864469
0.0150932
0.202203
0.0133581
0.0256732
0.0294997
0.00460995
0.0115813
0.0123359
0.0104471
0.00914038
0.00873975
0.008673
0.00879034
0.00914531
0.0097646
0.0108129
0.0111663
0.0109486
0.00810591
0.00649286
0.00578196
0.00598735
0.00691232
0.00855349
0.0102138
0.0115955
0.0123848
0.0124326
0.0104496
0.00725265
0.00427782
0.00212895
0.000750909
0.000189114
0.000109036
7.46336e-05
1.25301e-10
0.00156617
0.0142311
0.00778383
0.073269
0.00748394
0.00724758
0.00867618
0.0109641
0.0143538
0.0187143
0.0233348
0.0278753
0.0321102
0.036035
0.0398208
0.0432786
0.0495038
0.0642787
0.0928269
0.152239
0.245439
0.423359
0.475578
0.200294
0.105522
0.0829191
0.0805088
0.0703906
0.0940904
0.0883625
0.137345
0.108903
0.103292
0.183442
0.163587
0.0678477
0.0341308
0.0124714
0.00143983
2.46752e-10
0.00224171
0.0342273
0.187499
0.0148103
0.101124
0.115066
0.0209524
0.0461689
0.053133
0.0428155
0.0431472
0.0449359
0.0462425
0.0475551
0.0489425
0.0506185
0.0530458
0.0541434
0.190522
0.325327
1.05857
143.413
0.00442588
0.0154338
0.268021
0.134048
0.00119549
0.00154038
0.0017891
0.00293778
0.00310915
0.00277002
0.00257174
0.00187407
0.00127783
0.000892458
0.000563509
8.31821e-05
0.00127941
0.0109987
0.0116475
0.0894236
0.0199997
0.0023931
0.0103697
0.0115145
0.0129221
0.0141166
0.0152664
0.0162837
0.0173854
0.0179577
0.0180841
0.0185966
0.0193259
0.0182546
0.0211535
0.0356531
0.0515633
0.0796992
0.12253
0.205837
1.04708
0.173742
0.177971
0.160846
0.142317
0.117703
0.150083
0.099908
0.0673176
0.0649049
0.0792074
0.0769891
0.0345276
0.0118092
0.00315598
0.00156703
0.00196679
0.0282774
0.25518
0.0196247
0.0488586
0.0511917
0.0410512
0.0309509
0.017086
0.00591648
0.00869397
0.0116545
0.0141093
0.0163952
0.0182984
0.0200479
0.0214468
0.0224716
0.0232409
0.0224578
0.022878
0.0131952
0.0257381
0.0046606
0.0249166
0.0558532
0.0278482
0.00765096
0.0336472
0.0424735
0.0357692
0.029004
0.0245651
0.0184757
0.0105517
0.00666
0.00421078
0.00266672
0.00198066
0.0598211
0.200972
0.497449
0.0379271
0.0388733
0.0400721
0.0409175
0.0417306
0.0424069
0.0429283
0.0433472
0.0445417
0.0445212
0.0434029
0.0432325
0.0429741
0.0426087
0.0421641
0.0417315
0.0399174
0.0326606
0.019476
0.012116
3.74288e-09
4.07571e-09
5.09242e-09
4.90837e-09
19.0077
7.34876e-07
3.44876e-10
1.25896e-09
4.44621e-09
2.69564e-08
7.53647e-07
0.000184353
0.0201746
0.0223005
0.0129253
0.00741197
0.00352278
0.03371
0.378274
0.0466657
0.0474613
0.0317581
0.00985015
0.0138802
0.0127834
0.0118041
0.0119708
0.0122667
0.0126115
0.0129931
0.0134441
0.0139351
0.0143252
0.0146493
0.0149412
0.0150098
0.005203
0.00927112
0.0117037
0.0123961
0.0140214
0.0132966
0.0123838
0.013118
0.0131229
0.0128958
0.0125987
0.0125193
0.0124821
0.0123433
0.0119403
0.0114794
0.0108226
0.0112782
0.00811557
0.0011591
0.14265
4.7892
0.0492959
0.0463403
0.045367
0.0446053
0.043912
0.0432252
0.0427037
0.0422804
0.0419291
0.0417699
0.0416295
0.041526
0.0414527
0.041409
0.0413867
0.0414133
0.041281
0.0413735
0.0407336
0.0280108
0.0144413
0.010279
3.7083e-09
4.01454e-09
4.98891e-09
5.0755e-14
1.7178e-14
9.50072e-14
3.71084e-13
2.09599e-12
2.39211e-11
1.12245e-09
2.32402e-06
6.18311e-10
0.0188262
0.0208125
0.00502234
0.0373416
0.314154
0.0374421
0.0146164
0.0135436
0.0139085
0.0184738
0.0305391
0.0315064
0.0309429
0.0303554
0.0297337
0.0290593
0.0285268
0.0279647
0.0271972
0.0264218
0.0257079
0.0256709
0.0246062
0.0230105
0.0224627
0.021869
0.0212764
0.0207118
0.0201934
0.019737
0.0192962
0.0188945
0.0185555
0.0182958
0.0180568
0.0177683
0.0175205
0.0173835
0.0175417
0.0166325
0.0198992
0.00283319
0.122692
13.7981
0.0254494
0.0275369
0.024791
0.0231387
0.0216568
0.0204493
0.019621
0.0190395
0.0186822
0.0185584
0.0186622
0.0189885
0.0195044
0.0201908
0.0210563
0.0221316
0.0231932
0.0247254
0.0271553
0.0289849
0.0293693
0.0231459
0.0108411
0.0084163
3.73887e-09
5.35581e-14
2.65879e-19
2.736e-19
4.61442e-19
1.11315e-18
3.44931e-18
1.38735e-17
2.37166e-11
1.44877e-11
7.14586e-12
2.07253e-10
1.15047e-08
2.93747e-07
1.09572e-05
0.015692
0.0124502
0.0182449
0.0337233
0.0380566
0.0394613
0.0393539
0.0391422
0.0388844
0.0386135
0.0383097
0.0381414
0.0379614
0.0374555
0.036944
0.036556
0.0361125
0.0356418
0.0350299
0.0344841
0.0339742
0.0334677
0.0329483
0.0324206
0.0318598
0.0312756
0.0307468
0.0302666
0.0298641
0.0295957
0.0294049
0.0290675
0.0285439
0.0280455
0.0265093
0.0266374
0.00376566
0.0954227
1.25325
0.0111065
0.0117302
0.0116899
0.0114909
0.0115924
0.0118046
0.011936
0.012116
0.012303
0.0124888
0.0127184
0.0129703
0.0132418
0.0135461
0.0138819
0.0142618
0.0146109
0.0151618
0.00616034
0.0128034
0.0175705
0.0207953
0.0214773
0.0186411
0.0118555
2.8377e-09
6.02242e-19
3.65585e-19
4.19779e-19
7.38886e-19
1.73485e-18
4.87449e-18
1.36692e-17
3.45338e-17
2.98728e-13
3.42266e-12
8.12447e-16
1.01627e-09
2.67916e-08
0.0156917
0.0284674
0.0376633
0.036721
0.032117
0.0282789
0.0284751
0.028737
0.0290179
0.0293456
0.0296788
0.0299638
0.0303817
0.0308705
0.0313162
0.031734
0.0317986
0.0315268
0.031138
0.0307367
0.030325
0.0298977
0.0294518
0.0289846
0.0284761
0.0279675
0.027532
0.0271448
0.0268317
0.0266177
0.0265284
0.0265849
0.0266802
0.0267993
0.0266459
0.028355
0.00415699
0.0770712
0.666915
0.0212777
0.0209243
0.0223234
0.0234924
0.0247061
0.0258935
0.0267861
0.0274176
0.0278658
0.0281761
0.0283713
0.0284617
0.0284535
0.0283633
0.0281994
0.027954
0.027562
0.0270053
0.0267496
0.0249224
0.0226375
0.0226713
0.0235043
0.0233961
0.0250324
1.33605e-08
2.44819e-14
5.64122e-19
4.68381e-19
6.23273e-19
1.15207e-18
2.54639e-18
5.52502e-18
1.00853e-17
1.56768e-17
3.25227e-17
8.79687e-17
1.99963e-16
7.65909e-16
0.0348214
0.037798
0.0306467
0.0192731
0.00677207
0.0109188
0.010861
0.0110166
0.00236394
0.00585817
0.00749598
0.00895352
0.0103324
0.0117177
0.0132594
0.0146877
0.0154241
0.0156573
0.0156927
0.0156188
0.0154674
0.0152605
0.0150137
0.0147377
0.0144604
0.0142102
0.0140017
0.0138359
0.013732
0.0136778
0.0136907
0.0140362
0.0147908
0.0159542
0.0170765
0.0216721
0.00466158
0.0486762
0.369135
0.0365298
0.0343192
0.0343404
0.0342496
0.0342853
0.034418
0.0344136
0.0342624
0.0341263
0.0340326
0.0339523
0.0338543
0.033733
0.0336378
0.0335292
0.0333399
0.0329536
0.0328133
0.0326676
0.0314196
0.029718
0.0282649
0.0273065
0.0256982
0.0285897
4.97149e-08
9.88802e-14
9.58266e-19
5.97542e-19
6.17483e-19
9.17229e-19
1.66662e-18
3.05445e-18
4.96878e-18
7.17002e-18
1.21769e-17
2.6272e-17
5.27711e-17
1.47561e-16
0.0350663
0.0228697
0.0138695
0.00854938
0.00707245
0.00672965
0.00662268
0.00682818
0.00697289
0.0069606
0.00715111
0.00743227
0.00769529
0.00797066
0.00831824
0.00869084
0.00890313
0.00900748
0.00907314
0.00911707
0.00914065
0.00914607
0.00912765
0.00908457
0.0090324
0.00898562
0.00895237
0.00893445
0.00894083
0.00896549
0.00901236
0.00915248
0.00938181
0.00992698
0.0101889
0.00103307
0.00728461
0.0147455
0.105745
0.028698
0.0276151
0.0260121
0.0247342
0.0233519
0.0225554
0.0221995
0.0217439
0.021527
0.0215752
0.0216957
0.0218469
0.0220154
0.0224441
0.0230318
0.0234859
0.0239506
0.0246068
0.0256482
0.026756
0.0273867
0.0273814
0.0272662
0.0260228
0.0285836
1.65337e-07
3.51729e-13
1.74584e-18
8.42844e-19
6.92039e-19
8.38569e-19
1.27862e-18
2.04544e-18
3.05633e-18
4.19888e-18
6.33069e-18
1.18767e-17
2.15375e-17
4.32841e-17
0.015256
0.010163
0.00979813
0.0132571
0.0182326
0.0182951
0.0178832
0.0184899
0.0187605
0.0178483
0.017752
0.0178338
0.0177008
0.0174437
0.0171024
0.0167334
0.0163653
0.0160529
0.015789
0.0155625
0.0153602
0.01517
0.0149649
0.0147537
0.0145644
0.0143932
0.0142453
0.0141178
0.0140179
0.0139382
0.01387
0.0137201
0.0133393
0.0134911
0.0125554
0.00956145
0.0121984
0.0043386
0.0531113
0.0042364
0.0071885
0.0101156
0.00944055
0.00922717
0.00940257
0.00964225
0.00973685
0.009883
0.0100599
0.0102606
0.0104507
0.0106284
0.0110263
0.0112542
0.0113079
0.0115779
0.0119717
0.00376311
0.0109286
0.0153579
0.0183348
0.0207261
0.0212509
0.0256111
5.1993e-07
1.1733e-12
3.36637e-18
1.29129e-18
8.58506e-19
8.60138e-19
1.11418e-18
1.57791e-18
2.18799e-18
2.89756e-18
4.07121e-18
6.93951e-18
1.16012e-17
1.89142e-17
0.00898778
0.00846666
0.0244914
0.0285657
0.0296349
0.0299759
0.0297958
0.0298874
0.0300256
0.0294039
0.0292607
0.029363
0.0290583
0.0286838
0.0282518
0.027804
0.0274242
0.0270926
0.0267924
0.0265089
0.0262295
0.0259264
0.0255919
0.0252577
0.0249502
0.0246714
0.0244294
0.0242155
0.0240421
0.023896
0.0237903
0.0237075
0.0234565
0.0230478
0.0223478
0.0214441
0.0206662
0.00863571
0.00124071
0.0109949
0.00926424
0.00399691
0.00693415
0.00861464
0.0111375
0.0132933
0.0142718
0.0150252
0.0155537
0.0159064
0.0161232
0.0162136
0.0168498
0.0163994
0.0152307
0.015068
0.0149089
0.0146527
0.0142352
0.014647
0.0159448
0.0178338
0.0182319
0.0231962
1.74523e-06
4.14731e-12
6.81764e-18
2.12098e-18
1.16145e-18
9.74989e-19
1.08373e-18
1.36871e-18
1.76671e-18
2.22949e-18
2.98885e-18
4.72913e-18
7.37164e-18
1.05129e-17
0.0186951
0.0284109
0.0297701
0.0258637
0.0247721
0.0243193
0.0242448
0.023894
0.0238644
0.0241262
0.024003
0.0239597
0.0238001
0.0235835
0.0233501
0.0231444
0.0229542
0.0227698
0.0225825
0.0223834
0.0221616
0.021912
0.0216483
0.0213963
0.0211709
0.0209691
0.0207917
0.0206341
0.0205098
0.0204068
0.0203413
0.0203645
0.0205345
0.0207278
0.0208519
0.0209132
0.0213205
0.0201562
0.00591875
0.0249334
0.0252633
0.0265993
0.0279184
0.0290517
0.0297761
0.0303427
0.0307795
0.0310941
0.0312707
0.0313205
0.0312751
0.0311578
0.0309633
0.030757
0.0304915
0.0306438
0.0302586
0.0293524
0.028355
0.0268763
0.0253946
0.0244016
0.0227463
0.0250134
7.01158e-06
1.74241e-11
1.44365e-17
3.70339e-18
1.69534e-18
1.20769e-18
1.16312e-18
1.317e-18
1.58281e-18
1.91511e-18
2.44055e-18
3.57833e-18
5.19742e-18
6.79473e-18
0.0300526
0.0276386
0.0175148
0.0092316
0.00684628
0.0051797
0.00509437
0.00534317
0.00577278
0.00628993
0.00648411
0.00665044
0.00681726
0.00698776
0.00714806
0.00729023
0.00740396
0.00748531
0.0075294
0.00753437
0.00750063
0.00743823
0.00735806
0.00728191
0.00722546
0.0071831
0.00715613
0.00714623
0.00716242
0.00719668
0.00723531
0.00732853
0.0081747
0.00953754
0.0111203
0.0131532
0.0151044
0.0178744
0.0113305
0.0290383
0.027285
0.0269185
0.0269478
0.026911
0.0268858
0.0268793
0.026906
0.0270018
0.0270924
0.0271416
0.0271998
0.0273006
0.0274488
0.0276307
0.0278534
0.0281249
0.0283921
0.0286576
0.0289248
0.0290571
0.0287611
0.0278788
0.0261071
0.0271051
2.80022e-05
2.20546e-13
4.60821e-15
6.83558e-18
2.64931e-18
1.6203e-18
1.36489e-18
1.39236e-18
1.55808e-18
1.80805e-18
2.18927e-18
2.96442e-18
4.70093e-18
5.89821e-18
0.0235139
0.00996239
0.0075088
0.00582389
0.00568033
0.00583696
0.00593108
0.00593033
0.00592415
0.00593742
0.00587491
0.00581689
0.0057937
0.0057857
0.00579902
0.00583603
0.00588291
0.00593931
0.00599869
0.00605724
0.00611414
0.00616948
0.00622279
0.00627293
0.00631718
0.00635715
0.006398
0.0064397
0.00648698
0.00653871
0.00658757
0.0066423
0.00681981
0.00708795
0.00757165
0.0079826
0.00845042
0.00993394
0.0106869
0.0166806
0.016432
0.0143955
0.0130905
0.0119495
0.0109866
0.0102665
0.00986913
0.00995667
0.010218
0.0104682
0.0109092
0.0116024
0.0124144
0.0132891
0.0142156
0.0152133
0.0161292
0.0169689
0.0185471
0.0208507
0.0226913
0.0239543
0.0241217
0.0258467
9.8015e-05
2.0221e-12
3.57999e-14
1.32878e-17
4.40728e-18
2.33812e-18
1.73778e-18
1.60489e-18
1.67307e-18
1.85638e-18
2.14507e-18
3.42331e-18
3.99847e-17
6.94111e-16
0.0103921
0.00566678
0.00884745
0.0126119
0.013535
0.0145342
0.014768
0.014795
0.0147347
0.0146472
0.0145442
0.0144327
0.0143258
0.0142251
0.0141279
0.0140348
0.0139453
0.0138601
0.0137789
0.0136998
0.0136234
0.0135503
0.013481
0.013419
0.0133657
0.0133142
0.0132637
0.0132129
0.0131677
0.0131302
0.0130909
0.013037
0.012746
0.012157
0.0118121
0.0102966
0.00768009
0.00891448
0.0109949
0.00646533
0.00686666
0.00698487
0.00690961
0.00700419
0.00710913
0.00709723
0.00714259
0.00724902
0.00734798
0.00745526
0.00759749
0.00780434
0.00806053
0.0083435
0.00866125
0.00902314
0.0093818
0.00972569
0.0104575
0.0112067
0.00552349
0.0119023
0.0152859
0.019015
0.000270595
1.08637e-11
1.64648e-13
2.71431e-17
7.77408e-18
3.60877e-18
2.38492e-18
2.00359e-18
1.94775e-18
2.0614e-18
2.31657e-18
2.65276e-16
4.45004e-11
1.59165e-09
0.00806579
0.012431
0.0213833
0.0239959
0.0241321
0.0243805
0.0244378
0.0243903
0.0243122
0.0242296
0.0241509
0.0240756
0.0240059
0.0239393
0.0238704
0.0237977
0.023719
0.0236326
0.0235378
0.0234338
0.0233232
0.0232086
0.0230912
0.0229771
0.0228724
0.0227703
0.0226707
0.0225721
0.0224843
0.0224149
0.0223455
0.0222984
0.0221613
0.0218062
0.0211918
0.0201691
0.0189361
0.0168244
0.014854
0.00553098
0.00866439
0.011514
0.0133166
0.0146254
0.015591
0.0162095
0.0166024
0.0168683
0.0170559
0.0171742
0.0172433
0.0172867
0.0172992
0.0172742
0.0172352
0.0172019
0.0171676
0.0171
0.0175606
0.016432
0.0144829
0.0143493
0.0150665
0.0164526
0.000767899
5.9929e-11
7.84033e-13
5.81894e-17
1.45012e-17
5.93301e-18
3.50914e-18
2.69292e-18
2.44458e-18
2.46496e-18
6.42668e-18
1.18341e-11
1.68814e-09
3.38133e-09
0.0195634
0.0241482
0.0239309
0.0209522
0.0205027
0.0203036
0.020215
0.0201302
0.0200646
0.020017
0.0199926
0.0199843
0.0199833
0.0199852
0.0199854
0.0199787
0.0199644
0.0199409
0.0199068
0.0198609
0.0198046
0.01974
0.0196671
0.0195915
0.0195209
0.0194524
0.0193856
0.0193198
0.0192633
0.0192233
0.0191897
0.0192043
0.0193371
0.0195533
0.0197228
0.0198108
0.0196709
0.0187431
0.0168712
0.0238482
0.0240707
0.0250554
0.0259222
0.0264921
0.0268717
0.027098
0.0272209
0.027301
0.0273603
0.0274052
0.0274421
0.0274715
0.0274842
0.0274708
0.0274529
0.0274473
0.0274306
0.0273855
0.0273154
0.0268127
0.026178
0.0244473
0.0222959
0.0208358
0.00245023
3.64406e-10
4.14429e-12
1.30845e-16
2.85557e-17
1.03582e-17
5.51203e-18
3.87659e-18
3.28969e-18
3.15807e-18
5.39047e-18
1.66665e-12
1.45902e-09
1.20098e-09
0.0254273
0.0211657
0.0124401
0.00787264
0.00703387
0.00627237
0.00597183
0.00583106
0.00574774
0.00571857
0.00573243
0.00578029
0.00584936
0.00593163
0.00602049
0.00611191
0.0062017
0.00628859
0.00636917
0.00644191
0.00650517
0.00656024
0.00660778
0.00665337
0.00670164
0.00674985
0.00679787
0.00684562
0.00689814
0.00695462
0.00700739
0.00705774
0.00744688
0.00862663
0.0101903
0.0121794
0.0141863
0.0155157
0.015353
0.0236475
0.0226454
0.0223808
0.0223457
0.0221448
0.0219135
0.021738
0.0216208
0.0215848
0.021621
0.0216999
0.0218101
0.0219427
0.0220874
0.0222348
0.022402
0.0226042
0.0228245
0.0230529
0.0234123
0.0240368
0.024495
0.0245199
0.0241801
0.0228613
0.00658952
2.0699e-09
2.05857e-11
3.08551e-16
5.92889e-17
1.91581e-17
9.21056e-18
5.95053e-18
4.7224e-18
4.30902e-18
5.82136e-18
3.73934e-13
1.12674e-11
2.78231e-09
0.0165278
0.0045098
0.0050907
0.0036243
0.00355764
0.00360533
0.00372363
0.00374254
0.00371352
0.0036798
0.00362388
0.00357252
0.00354509
0.00352733
0.00352618
0.00354696
0.00358091
0.00362948
0.00368969
0.00375905
0.00383374
0.00391336
0.00399692
0.00407864
0.00415093
0.00421684
0.00428139
0.00434506
0.00440933
0.00447447
0.00453845
0.00459594
0.00474895
0.00507527
0.00568206
0.00621657
0.0070596
0.00838883
0.0113794
0.0104344
0.0109492
0.00895275
0.00759097
0.00629142
0.00496676
0.00372815
0.00274721
0.00225844
0.00239756
0.00289299
0.00350318
0.00414025
0.0048021
0.00547672
0.00615561
0.00685987
0.00759465
0.00833156
0.00916238
0.0108521
0.013421
0.0160991
0.0182553
0.0189357
0.0119803
1.06864e-08
9.34057e-11
7.62915e-16
1.29676e-16
3.74661e-17
1.63243e-17
9.70209e-18
7.19829e-18
6.22976e-18
7.07297e-18
1.09752e-13
4.99473e-09
3.38948e-09
0.00709469
0.00406056
0.00654508
0.00507049
0.00583497
0.00670635
0.00736279
0.00765467
0.00774544
0.00775744
0.00773183
0.00768694
0.00764276
0.00760148
0.00756039
0.0075247
0.00749468
0.00746937
0.00744916
0.00743426
0.00742411
0.00741837
0.00741833
0.00742499
0.00743509
0.00744242
0.00744744
0.00745251
0.00745819
0.00746681
0.00747883
0.00747629
0.00740731
0.00686799
0.00662236
0.00455828
0.00690295
0.00457121
0.00856631
0.00408723
0.00437377
0.00407507
0.003828
0.00375466
0.00372817
0.00367042
0.00364969
0.00366004
0.0036925
0.00376482
0.0038561
0.0039626
0.0040972
0.00425351
0.00443066
0.00463386
0.0048613
0.0051027
0.00537985
0.00588459
0.00675296
0.00758038
0.00498836
0.00929043
0.0127781
4.85874e-08
3.74828e-10
1.97738e-15
2.9847e-16
7.73306e-17
3.06047e-17
1.67442e-17
1.1604e-17
9.4999e-18
9.56466e-18
3.99927e-14
1.30786e-09
2.09593e-09
0.00686565
0.0102862
0.0167825
0.0181542
0.0182083
0.0183701
0.0186213
0.0187457
0.0187618
0.0187448
0.0187322
0.0187281
0.018731
0.0187377
0.0187439
0.0187487
0.0187517
0.0187517
0.0187481
0.0187396
0.0187268
0.018711
0.0186921
0.0186716
0.0186531
0.0186336
0.0186123
0.0185917
0.0185724
0.0185609
0.0185621
0.0185683
0.0185864
0.0183504
0.0177741
0.0167624
0.0153215
0.0136504
0.012309
0.00349256
0.00408033
0.00564795
0.00681154
0.00777843
0.00858957
0.00916487
0.00948421
0.00966117
0.00975785
0.00981291
0.00985014
0.00987509
0.00990049
0.00993089
0.009962
0.00999938
0.0100343
0.010059
0.010063
0.00986605
0.00972141
0.00788369
0.00581496
0.0055971
0.0111392
2.50982e-07
1.7157e-09
5.37077e-15
7.22268e-16
1.68165e-16
6.05402e-17
3.04909e-17
1.97081e-17
1.52157e-17
1.39626e-17
1.70709e-14
4.64629e-10
3.06131e-09
0.0165608
0.0195919
0.0193045
0.0179603
0.0181073
0.0180041
0.0179939
0.0180144
0.0179874
0.0179573
0.0179579
0.017983
0.0180188
0.0180581
0.0180967
0.0181314
0.0181614
0.0181862
0.0182042
0.0182148
0.0182186
0.0182178
0.0182123
0.0182034
0.0181963
0.0181901
0.0181826
0.0181758
0.0181703
0.0181696
0.0181804
0.0182018
0.0182932
0.0184278
0.0184129
0.0183488
0.017913
0.0165432
0.0147633
0.0192587
0.0189326
0.0193217
0.0197531
0.0200648
0.02031
0.0205016
0.020598
0.0206464
0.0206835
0.0207151
0.0207497
0.0207836
0.020826
0.0208713
0.0209187
0.0209777
0.021033
0.0210691
0.0210999
0.0211339
0.0206974
0.01967
0.0182837
0.016704
0.0161091
2.07046e-06
1.27067e-08
1.52799e-14
1.83543e-15
3.84703e-16
1.26075e-16
5.84182e-17
3.51374e-17
2.54994e-17
2.16447e-17
8.25446e-15
4.66405e-11
1.02774e-09
0.0209415
0.0169772
0.0112284
0.009513
0.00948585
0.009254
0.00900251
0.0089164
0.00884915
0.00879156
0.00877197
0.00878142
0.00880127
0.00882347
0.00884648
0.00886887
0.00889108
0.00891368
0.00893623
0.00895899
0.00898288
0.00900955
0.00903993
0.00907403
0.00911195
0.00915184
0.00919234
0.00923088
0.00926979
0.00930759
0.00934698
0.00937749
0.00948948
0.0100772
0.0111625
0.0124088
0.0135585
0.0143093
0.0139088
0.0199798
0.0195621
0.0194519
0.0194742
0.0194275
0.019362
0.0193326
0.019275
0.0192109
0.0191918
0.0191964
0.0192218
0.0192523
0.0193091
0.0193915
0.0194759
0.0195753
0.0196796
0.0197765
0.0198826
0.020122
0.0204258
0.0204466
0.0202667
0.0194752
0.0189073
1.58979e-05
1.44846e-08
2.1031e-10
4.89392e-15
9.24689e-16
2.75795e-16
1.17469e-16
6.55802e-17
4.45827e-17
3.52132e-17
4.42014e-15
8.21039e-12
2.06521e-10
0.0137898
0.00461359
0.00469933
0.00376593
0.00378657
0.00373822
0.00364367
0.00357253
0.00350598
0.00344818
0.00338192
0.00332548
0.00328972
0.00325689
0.00323799
0.00323942
0.00325311
0.00328316
0.00332753
0.00338412
0.00345056
0.00352685
0.00361218
0.00369623
0.00376813
0.00383452
0.00390164
0.00396793
0.00403385
0.00409824
0.00416217
0.00422096
0.00431594
0.00462894
0.00517609
0.00587382
0.00430514
0.00862404
0.0106443
0.0102407
0.0102092
0.00976674
0.00960608
0.0093959
0.0091675
0.00897107
0.00886643
0.00879817
0.00876256
0.00875742
0.00878108
0.0088341
0.00890007
0.00898778
0.00910324
0.00925363
0.00943631
0.00964562
0.00986557
0.0102322
0.0113978
0.0129317
0.0145301
0.0155459
0.0167671
8.90855e-05
1.46408e-07
1.9153e-09
1.36877e-14
2.33252e-15
6.33018e-16
2.47416e-16
1.27835e-16
8.11216e-17
5.96947e-17
2.59269e-15
1.74193e-12
4.30799e-11
0.00623154
0.00264649
0.00412207
0.00442397
0.00456025
0.00475816
0.00489942
0.00494422
0.00494985
0.00493853
0.00487569
0.00479949
0.00474171
0.00468288
0.00464141
0.0046289
0.00463353
0.00466193
0.00471193
0.00478007
0.00486258
0.00495912
0.00506887
0.00517495
0.005259
0.00533322
0.00540784
0.00548259
0.00555658
0.00562919
0.00570195
0.00577607
0.00585247
0.00585362
0.00567663
0.00531211
0.00527374
0.0059406
0.00619785
0.00386619
0.00387974
0.00383736
0.00369548
0.00363177
0.00356467
0.00345478
0.00340747
0.00337409
0.00334122
0.00333616
0.00334332
0.00336416
0.00339952
0.00344663
0.00350999
0.00359127
0.00368879
0.00379995
0.00391743
0.00409413
0.00459196
0.00524227
0.00624956
0.00662235
0.0101422
0.000347703
1.07902e-06
1.27341e-08
4.01182e-14
6.1718e-15
1.52238e-15
5.45197e-16
2.59986e-16
1.53373e-16
1.05054e-16
1.67639e-15
4.26766e-13
1.2251e-09
0.00435311
0.00545534
0.0107325
0.0115078
0.0117588
0.0121239
0.0124683
0.0127266
0.0129079
0.0130355
0.0131282
0.0131979
0.0132537
0.0133011
0.0133413
0.0133761
0.0134073
0.0134353
0.0134604
0.0134827
0.0135036
0.0135251
0.0135491
0.0135762
0.0136077
0.0136416
0.0136749
0.0137086
0.0137415
0.013773
0.0138062
0.0138441
0.0138913
0.0137646
0.0132276
0.0122686
0.0111531
0.00938896
0.00853621
0.0061335
0.00500255
0.00508541
0.00495277
0.00495574
0.00497652
0.00493039
0.00492898
0.00493311
0.00492221
0.00493594
0.00495168
0.00497071
0.00500237
0.00503609
0.00507669
0.00512353
0.00517298
0.00522048
0.00526741
0.00531773
0.0052701
0.00502656
0.00464052
0.00509277
0.00595683
0.000858914
5.74971e-06
6.56436e-08
1.23115e-13
1.7113e-14
3.83503e-15
1.25593e-15
5.51086e-16
3.01185e-16
1.91565e-16
1.23248e-15
1.2292e-13
1.25648e-10
0.0108545
0.0156143
0.0160013
0.0157563
0.0157047
0.0157251
0.0157897
0.0158564
0.0159069
0.0159412
0.0159703
0.0159985
0.0160267
0.016056
0.0160846
0.0161121
0.0161396
0.016167
0.0161942
0.0162208
0.0162483
0.0162783
0.0163118
0.0163484
0.0163891
0.0164327
0.0164753
0.0165185
0.0165618
0.0166036
0.0166475
0.0166985
0.0167791
0.016846
0.0167403
0.0164391
0.0157318
0.0141243
0.0124528
0.0135482
0.0135403
0.0133207
0.0132638
0.0132174
0.0132069
0.0132337
0.0132812
0.0133484
0.0134256
0.013504
0.0135817
0.0136552
0.0137229
0.013784
0.0138435
0.0139059
0.0139646
0.0140114
0.0140539
0.0141088
0.0139207
0.0132292
0.0121864
0.011279
0.00953867
0.00350894
4.61131e-05
2.04855e-07
4.04537e-09
4.96759e-14
1.01057e-14
3.0228e-15
1.21709e-15
6.14097e-16
3.61755e-16
1.08621e-15
4.38593e-14
2.01496e-11
0.0171309
0.0152223
0.0118211
0.0114925
0.0112542
0.0109838
0.0107617
0.0106014
0.0104898
0.0104013
0.0103355
0.0102933
0.0102675
0.0102546
0.0102495
0.0102484
0.0102507
0.0102558
0.0102617
0.0102691
0.0102774
0.0102877
0.0103012
0.0103169
0.0103365
0.0103597
0.0103844
0.0104112
0.0104417
0.0104731
0.0105087
0.0105462
0.0106165
0.010882
0.0114619
0.0122152
0.0128662
0.0130638
0.012527
0.0168672
0.016282
0.0162522
0.016218
0.0161944
0.0161939
0.0162257
0.0162763
0.0163429
0.0164188
0.0164951
0.0165698
0.0166409
0.0167074
0.0167705
0.0168371
0.0169123
0.0169884
0.0170548
0.0171191
0.0172186
0.017311
0.0171476
0.016737
0.0161
0.0148476
0.0100507
0.000323097
2.67905e-06
4.93677e-08
1.50739e-13
2.78315e-14
7.59105e-15
2.79987e-15
1.3e-15
7.07346e-16
1.18803e-15
2.02341e-14
4.30303e-12
0.0139446
0.0075056
0.00532056
0.00459258
0.00453678
0.00448255
0.00440056
0.00428887
0.00419095
0.00410653
0.00399854
0.00389442
0.00381496
0.00373986
0.00368249
0.00365242
0.00363871
0.00364827
0.00367898
0.00372897
0.00379436
0.00387496
0.00396964
0.00406139
0.00413247
0.00419493
0.00425897
0.0043244
0.00439192
0.00445979
0.00452956
0.00459974
0.00468366
0.00485524
0.00517028
0.00569893
0.00528006
0.0083085
0.00971486
0.0110463
0.0111051
0.0107899
0.0106721
0.0106338
0.0106196
0.010628
0.0106497
0.0106779
0.010711
0.0107439
0.0107778
0.0108128
0.0108489
0.0108897
0.0109402
0.0110051
0.0110811
0.0111615
0.0112484
0.0113729
0.0117211
0.0123765
0.013033
0.0135239
0.013712
0.0125862
0.00145562
2.01818e-05
8.86949e-08
2.58911e-09
7.99795e-14
1.98687e-14
6.69942e-15
2.85593e-15
1.43155e-15
1.5818e-15
1.21094e-14
1.20229e-12
0.00179005
0.00292449
0.00158728
0.00202628
0.00224232
0.00240466
0.00251053
0.00255509
0.00257299
0.00258116
0.00255634
0.00251737
0.00248469
0.00244663
0.00241493
0.00239914
0.00239282
0.00240193
0.00242614
0.00246487
0.00251567
0.00257929
0.00265502
0.00273011
0.00278901
0.00283934
0.00288978
0.00294029
0.00299121
0.00304165
0.00309214
0.00314239
0.00318887
0.00320597
0.003058
0.00273351
0.00334786
0.00427278
0.0044324
0.004222
0.00427027
0.00428859
0.00415161
0.00415618
0.00417417
0.00413198
0.0041254
0.00411934
0.00409805
0.00409717
0.00409757
0.0041018
0.0041188
0.00414103
0.00417416
0.00421721
0.00426879
0.00432477
0.00438373
0.00445548
0.00461038
0.00497321
0.00294539
0.00612695
0.00829763
0.00962363
0.00397731
0.000108061
1.0836e-06
2.90329e-08
2.39202e-13
5.40857e-14
1.66521e-14
6.50266e-15
2.99605e-15
2.44867e-15
9.27911e-15
4.33512e-13
0.00167386
0.0041674
0.00410766
0.00524697
0.00576241
0.00611078
0.00637586
0.00656906
0.00670969
0.00682349
0.00691118
0.00697642
0.00702961
0.00707326
0.00710927
0.0071418
0.00717263
0.00720324
0.00723484
0.00726834
0.00730449
0.00734392
0.00738815
0.00743647
0.00748493
0.00753046
0.00757276
0.00761303
0.00765249
0.00769023
0.00772801
0.00776521
0.00779275
0.00775037
0.0073151
0.00647157
0.00542766
0.00369083
0.00409091
0.00309742
0.00255212
0.00258658
0.00253015
0.00255864
0.00260553
0.00260787
0.002628
0.00264675
0.00265069
0.00266564
0.00267918
0.00269164
0.0027102
0.00272895
0.00275149
0.00277719
0.00280476
0.00283123
0.00285622
0.00287744
0.0028834
0.00271569
0.0026852
0.00323913
0.00369545
0.000547992
0.0041824
0.000383014
7.46037e-06
1.94887e-07
7.43122e-13
1.52768e-13
4.29035e-14
1.53214e-14
6.47714e-15
4.22543e-15
8.97643e-15
2.00093e-13
0.00416286
0.0107748
0.011225
0.0116913
0.0119418
0.0120747
0.0121822
0.0122782
0.0123617
0.0124383
0.0125097
0.0125727
0.0126297
0.0126817
0.0127283
0.012772
0.0128143
0.0128559
0.012898
0.0129409
0.0129855
0.0130325
0.013084
0.0131392
0.0131947
0.0132478
0.0132984
0.0133487
0.0134006
0.0134526
0.0135075
0.0135644
0.0136241
0.0136906
0.0135711
0.0132063
0.0124719
0.0113657
0.0099594
0.00753741
0.00686888
0.00674275
0.00675166
0.00680445
0.00689705
0.00698724
0.00707334
0.00715987
0.00723906
0.00731412
0.00738556
0.00745017
0.00750832
0.00756097
0.00761123
0.00766172
0.00771057
0.00775351
0.00779056
0.00781975
0.0078193
0.00735762
0.00657393
0.0058386
0.00439877
0.00297598
0.00359103
0.00117843
4.53084e-05
5.77902e-07
2.213e-08
4.46812e-13
1.14323e-13
3.72847e-14
1.44397e-14
7.88755e-15
1.0647e-14
1.16331e-13
0.0129406
0.0131989
0.012009
0.0113253
0.0111908
0.0110897
0.011025
0.011001
0.0109988
0.0110095
0.0110342
0.011066
0.0110992
0.0111337
0.0111681
0.0112015
0.0112344
0.0112672
0.0112995
0.0113314
0.011363
0.0113955
0.0114291
0.0114634
0.0114989
0.0115354
0.0115723
0.0116099
0.0116502
0.0116922
0.0117379
0.0117868
0.0118396
0.0119488
0.0121673
0.012384
0.0124312
0.0121686
0.0113693
0.0133764
0.0126829
0.0125764
0.012632
0.0127032
0.01279
0.012878
0.0129588
0.0130388
0.0131174
0.0131961
0.0132757
0.0133514
0.0134215
0.0134871
0.0135532
0.0136248
0.0136991
0.0137686
0.0138305
0.0138882
0.0139537
0.0137931
0.0133953
0.0127809
0.0118968
0.01098
0.0095928
0.00450244
0.000289063
8.47001e-06
5.9801e-08
2.91292e-09
3.14432e-13
9.35405e-14
3.31482e-14
1.56126e-14
1.48539e-14
8.33727e-14
0.0128584
0.00842432
0.00622783
0.00560725
0.00520019
0.00496666
0.00476606
0.00460522
0.00448215
0.00438497
0.00430706
0.00424558
0.00419517
0.0041529
0.00411831
0.00408822
0.00406272
0.00404045
0.00402173
0.0040056
0.00399408
0.00398743
0.00398708
0.00399327
0.0040046
0.00402242
0.00404468
0.00406968
0.00409782
0.00412805
0.00415955
0.00419123
0.00419621
0.00425018
0.00500378
0.0062037
0.00759137
0.00887879
0.00936643
0.0116333
0.0115024
0.0113752
0.0113494
0.0113491
0.0113532
0.011372
0.0113901
0.0114108
0.0114404
0.0114765
0.0115191
0.0115647
0.0116095
0.011654
0.0117024
0.0117594
0.0118232
0.0118875
0.0119493
0.0120077
0.0121246
0.0123498
0.0125266
0.0125645
0.0124351
0.0121278
0.0115043
0.00882903
0.00133758
6.12066e-05
1.4926e-06
6.73766e-08
8.91343e-13
2.41574e-13
7.82314e-14
3.23626e-14
2.34193e-14
7.25959e-14
0.00678399
0.00395641
0.00252183
0.00226904
0.00212028
0.00204794
0.00196691
0.00187769
0.00180173
0.00173835
0.00166803
0.00160122
0.00154625
0.00149296
0.00144811
0.00141585
0.00139143
0.00137824
0.00137609
0.00138402
0.00140123
0.00142811
0.00146452
0.00150174
0.0015295
0.00155455
0.00158239
0.0016122
0.00164411
0.00167747
0.00171188
0.00174689
0.00177113
0.00181643
0.00216543
0.00271862
0.00337489
0.00086922
0.00513786
0.004557
0.00531571
0.00494817
0.00473981
0.00462822
0.0045332
0.00444283
0.00435973
0.00428204
0.00421666
0.00416542
0.00412648
0.00409834
0.00407881
0.00406999
0.00407531
0.00409573
0.00413022
0.00417626
0.00423146
0.0042683
0.00436947
0.00520002
0.00633876
0.00744902
0.00852393
0.00938297
0.00986004
0.00949481
0.00393656
0.000301858
1.22562e-05
6.34731e-08
3.52029e-09
6.41844e-13
1.89638e-13
6.97036e-14
4.0446e-14