/*--------------------------------*- C++ -*----------------------------------*\
| =========                 |                                                 |
| \\      /  F ield         | OpenFOAM: The Open Source CFD Toolbox           |
|  \\    /   O peration     | Version:  2312                                  |
|   \\  /    A nd           | Website:  www.openfoam.com                      |
|    \\/     M anipulation  |                                                 |
\*---------------------------------------------------------------------------*/
FoamFile
{
    version     2.0;
    format      ascii;
    arch        "LSB;label=32;scalar=64";
    class       volSymmTensorField;
    location    "200";
    object      turbulenceProperties:devReff;
}
// * * * * * * * * * * * * * * * * * * * * * * * * * * * * * * * * * * * * * //

dimensions      [0 2 -2 0 0 0 0];

internalField   nonuniform List<symmTensor> 
10720
(
(0.00366421 0.00872128 -8.207e-21 -0.00393933 -1.32271e-19 0.00027512)
(0.00709278 0.0135759 9.40698e-21 -0.00735781 1.84747e-19 0.000265029)
(0.0121169 0.0174687 4.62504e-20 -0.0127414 1.97181e-19 0.000624549)
(0.0158695 0.0181079 2.71143e-19 -0.01658 1.82825e-18 0.000710476)
(0.0174594 0.0156672 -7.26849e-19 -0.0180672 -2.76826e-18 0.000607805)
(0.0186286 0.0126478 -6.53371e-19 -0.0193095 -1.31314e-18 0.000680922)
(0.0203765 0.0102315 1.67225e-19 -0.0210525 1.29979e-20 0.000676011)
(0.0231491 0.00803838 7.76937e-20 -0.023837 1.22848e-19 0.000687891)
(0.0275011 0.00560779 1.85274e-19 -0.0283004 -1.49658e-19 0.00079926)
(0.0338255 0.00248084 -2.84386e-20 -0.0347447 -2.85322e-20 0.000919163)
(0.0427597 -0.00223174 3.26884e-18 -0.0438759 1.36124e-18 0.00111622)
(0.0560913 -0.00981721 -7.91033e-19 -0.0575143 -6.0746e-19 0.00142306)
(0.0770835 -0.0229206 1.76362e-18 -0.0789811 -2.647e-18 0.00189758)
(0.108428 -0.045919 9.5256e-19 -0.111052 2.07661e-18 0.002624)
(0.167674 -0.0935458 1.90029e-18 -0.171741 -3.36903e-18 0.00406726)
(0.29677 -0.208915 7.54263e-19 -0.304043 1.63917e-17 0.00727344)
(0.50478 -0.438836 1.09908e-16 -0.517764 5.59973e-17 0.0129845)
(0.927679 -0.983235 -3.4543e-17 -0.952793 5.3625e-17 0.025114)
(1.56552 -2.02165 -2.24287e-17 -1.61168 -3.22758e-16 0.0461537)
(2.12092 -3.35495 1.79495e-17 -2.18846 -9.3602e-19 0.0675334)
(2.5726 -5.08276 -3.87105e-16 -2.66392 -2.82897e-16 0.0913254)
(3.25751 -8.33053 7.87337e-16 -3.39178 1.19254e-15 0.134269)
(4.5588 -16.1437 -5.44103e-16 -4.8096 -1.43522e-15 0.250803)
(6.36225 -34.9446 7.25522e-16 -6.92572 1.65848e-16 0.563468)
(7.40297 -70.6765 -2.73592e-16 -8.26424 -1.34963e-17 0.861269)
(5.6431 -103.902 8.14734e-17 -6.87204 -1.95297e-15 1.22894)
(3.28549 -226.802 7.26175e-16 -6.41114 -2.27653e-16 3.12564)
(-11.6892 -388.585 8.26017e-16 9.51784 1.49173e-15 2.17135)
(-21.7488 -262.186 1.5753e-14 23.2084 4.64895e-16 -1.45958)
(-11.5273 -90.5113 8.48213e-15 12.1672 4.74703e-15 -0.639899)
(-4.12473 -25.4012 -2.73505e-15 4.22734 -7.03076e-16 -0.102607)
(-0.474773 -2.47331 -4.469e-16 0.479311 -2.28563e-16 -0.00453756)
(-0.106936 -0.502905 -2.7759e-17 0.106536 -9.73666e-17 0.000399658)
(-0.0133698 -0.0614978 -1.77646e-17 0.0134417 -2.49697e-17 -7.19188e-05)
(-0.000143542 -0.000714896 1.36687e-19 0.000152352 4.82666e-19 -8.80927e-06)
(-8.69594e-05 -0.000155198 2.11916e-20 8.7527e-05 3.28872e-19 -5.67615e-07)
(-0.00332094 -0.0072109 -3.03967e-19 0.0032344 5.32262e-20 8.65438e-05)
(-0.152108 -0.505936 -2.35428e-16 0.1441 -2.95838e-16 0.00800869)
(10.5492 21.3725 8.53957e-15 -10.6302 3.12591e-14 0.0809829)
(0.00289632 0.00966241 4.58238e-21 -0.0030251 -1.33658e-20 0.000128787)
(0.00218779 0.0101061 -3.26162e-20 -0.00246042 3.51265e-20 0.000272631)
(0.00095803 0.00780662 -1.43586e-19 -0.00108863 -1.04361e-19 0.000130602)
(0.000484389 0.0130313 3.83056e-19 -0.000681728 -4.74695e-19 0.000197339)
(-6.68845e-05 0.00377925 -1.98574e-19 3.3464e-05 -3.39074e-20 3.34205e-05)
(-7.40111e-05 0.00607119 -1.91173e-18 0.000138774 2.45126e-18 -6.47625e-05)
(0.000646536 0.0067342 1.59405e-18 -0.000307127 2.82278e-18 -0.000339409)
(0.00223675 0.00694915 4.25895e-19 -0.00180731 -5.48857e-18 -0.000429443)
(0.00425498 0.00705056 2.07997e-18 -0.00409589 -1.71383e-19 -0.000159086)
(0.00595234 0.00724935 -1.14741e-18 -0.00598768 -3.45365e-19 3.53352e-05)
(0.007545 0.00823604 8.1322e-19 -0.00764099 1.94903e-18 9.59898e-05)
(0.00938178 0.0103391 1.44091e-18 -0.00950895 -6.96469e-19 0.000127175)
(0.0116674 0.013832 -1.36099e-18 -0.0118498 -2.0335e-19 0.000182395)
(0.0154068 0.0201708 3.4665e-19 -0.0156752 3.07215e-19 0.000268413)
(0.0208199 0.0302072 4.17559e-18 -0.0211755 4.88072e-19 0.000355641)
(0.0331413 0.0534605 4.61503e-18 -0.0337203 -1.0431e-18 0.000578987)
(0.0508365 0.0908074 2.1313e-18 -0.0517124 2.88183e-18 0.00087587)
(0.144138 0.28464 2.30593e-18 -0.14665 6.26298e-18 0.0025119)
(0.155041 0.337573 2.38324e-18 -0.157708 -1.33201e-18 0.00266749)
(0.173656 0.41811 3.39541e-18 -0.17676 1.8905e-19 0.00310449)
(0.219465 0.58704 -4.50402e-18 -0.223578 -2.7193e-17 0.00411296)
(0.287088 0.864808 -1.48066e-17 -0.293008 -4.98143e-20 0.00591997)
(0.328142 1.13868 1.05241e-17 -0.335932 1.48756e-17 0.0077896)
(0.378419 1.58133 4.68648e-18 -0.39026 -2.9719e-19 0.0118409)
(0.403352 2.14756 1.67009e-16 -0.420467 -2.42753e-17 0.0171151)
(0.382818 2.7709 7.87267e-20 -0.404281 -5.82846e-18 0.0214633)
(0.212459 2.35452 -2.32003e-20 -0.229808 -8.55092e-19 0.0173488)
(0.0583628 1.30163 -7.12793e-20 -0.0674384 2.18985e-21 0.0090756)
(0.000999639 0.499728 1.25412e-19 -0.00432852 1.6984e-21 0.00332888)
(-0.00505329 0.130847 3.19645e-18 0.00421126 -1.95789e-19 0.000842029)
(-0.00134253 0.0174009 -2.23389e-20 0.00123361 -1.11322e-21 0.000108919)
(-0.000269885 0.00237432 -8.68238e-21 0.000255484 2.39272e-20 1.44007e-05)
(-0.000249432 0.00168243 -2.56776e-19 0.000239661 -3.20511e-20 9.77107e-06)
(-0.000267789 0.00148029 -4.01657e-19 0.000259665 6.60023e-20 8.1241e-06)
(-0.000279979 0.00131999 3.35834e-19 0.000273241 1.95023e-20 6.73861e-06)
(-0.00924835 0.0379769 -5.65724e-20 0.00903898 -4.72538e-19 0.000209363)
(-0.611575 2.20471 -6.77782e-18 0.602117 8.32698e-18 0.00945835)
(-0.209252 0.656171 -3.86071e-18 0.200506 6.44599e-18 0.00874561)
(-14.584 38.5655 -1.33873e-14 14.3969 -1.34219e-15 0.187063)
(0.0126626 -0.00948517 -8.58786e-20 -0.0115045 -2.55844e-19 -0.00115808)
(0.011645 -0.0122819 1.45844e-19 -0.0102201 3.73093e-19 -0.00142486)
(0.00841318 -0.0133684 1.02789e-20 -0.00677993 5.15753e-21 -0.00163325)
(0.00379524 -0.00928932 2.00048e-19 -0.00255361 2.71186e-20 -0.00124163)
(0.00130677 -0.00580394 1.23092e-19 -0.000447677 8.02243e-19 -0.000859093)
(0.000194808 -0.00370212 4.19938e-19 0.000435117 7.45226e-19 -0.000629924)
(-0.000262386 -0.00266572 -1.52798e-19 0.000799564 2.48361e-20 -0.000537177)
(-0.000499947 -0.00210945 -1.1994e-19 0.00101 -3.34895e-20 -0.000510048)
(-0.000650824 -0.00176533 -7.21015e-19 0.00117106 -7.88409e-19 -0.000520235)
(-0.000729604 -0.0015188 -2.38663e-19 0.00127808 -8.27037e-20 -0.00054848)
(-0.000756144 -0.00133028 -2.30638e-18 0.00134245 -2.22821e-18 -0.000586309)
(-0.000733151 -0.0011869 -2.91072e-20 0.00135659 3.79168e-19 -0.000623436)
(-0.000736184 -0.00122667 -1.4262e-18 0.00146289 2.59304e-20 -0.000726709)
(-0.000865902 -0.00170682 1.39472e-18 0.00193447 8.24108e-19 -0.00106857)
(-0.00108199 -0.00316938 -5.18959e-18 0.00303689 -1.51541e-18 -0.0019549)
(-0.00104567 -0.00823224 2.69147e-17 0.00568092 6.43404e-18 -0.00463525)
(0.00190183 -0.0223905 -5.7844e-17 0.00867069 -4.8486e-17 -0.0105725)
(0.0150761 -0.0616277 -1.22956e-16 0.00771183 -4.47065e-17 -0.022788)
(0.0565325 -0.166613 -2.8935e-16 -0.0109148 1.17954e-16 -0.0456177)
(0.147278 -0.391204 5.90202e-17 -0.0709525 -4.44541e-20 -0.0763257)
(0.290912 -0.786728 4.53321e-16 -0.184724 5.26042e-16 -0.106188)
(0.464374 -1.37567 -6.67545e-16 -0.332896 -1.23347e-15 -0.131478)
(0.739956 -2.54764 5.38126e-17 -0.544504 1.33464e-15 -0.195451)
(0.906687 -3.55136 1.77336e-17 -0.622511 -3.08771e-16 -0.284176)
(2.65669 -10.7648 -0 -1.74133 -0 -0.915357)
(1.53074 -9.73613 -2.10956e-17 -0.400406 3.14278e-16 -1.13034)
(-0.0647155 -14.9839 -8.70228e-16 3.51327 2.48279e-16 -3.44855)
(0.182272 -8.96331 -1.2195e-16 1.52946 -8.82563e-16 -1.71173)
(2.66751 -5.18408 -1.11553e-14 -4.12268 -5.6595e-15 1.45517)
(4.13535 -4.90917 -5.68536e-16 -6.77902 -2.23198e-14 2.64367)
(1.61741 -3.07947 9.2924e-16 -2.61889 1.40313e-14 1.00147)
(0.0556442 -1.45123 2.22709e-16 -0.213106 6.57035e-15 0.157462)
(-0.1338 -0.827992 -1.21363e-15 0.111342 1.21783e-15 0.0224578)
(-0.0401678 -0.265079 3.93409e-16 0.0423787 7.15676e-16 -0.00221085)
(-0.00145825 -0.00817017 -6.78699e-19 0.00156294 -5.34612e-18 -0.000104686)
(-0.000190632 -0.000645567 3.27686e-19 0.000164983 -2.40584e-19 2.56483e-05)
(-0.00241846 -0.00673394 -3.41931e-19 0.00200684 7.6334e-20 0.000411624)
(0.50479 0.47635 1.28055e-15 -0.506427 1.96067e-15 0.00163751)
(-0.148394 -1.94547 -3.27837e-14 -0.0582933 -4.89214e-14 0.206687)
(0.0030643 -0.00151472 2.33361e-20 -0.0028546 6.61251e-20 -0.000209701)
(0.00175397 -0.000507752 -5.14837e-21 -0.00165007 -1.89803e-19 -0.000103893)
(0.00163394 -0.000114836 -1.15129e-19 -0.00156167 -2.69984e-19 -7.22646e-05)
(0.0037328 0.000667453 7.97582e-20 -0.00361937 1.12008e-18 -0.000113431)
(0.00311721 0.00150196 6.5352e-19 -0.00307695 -6.06875e-19 -4.02556e-05)
(0.00231708 0.00214019 -2.23044e-19 -0.00232909 -8.73589e-19 1.20098e-05)
(0.00101999 0.00172565 2.42382e-19 -0.00105052 -1.46692e-18 3.05297e-05)
(0.0005118 0.00180252 -1.16164e-18 -0.00056397 -5.94749e-20 5.21695e-05)
(1.58864e-05 0.00189865 -7.17078e-19 -6.72725e-05 1.46935e-18 5.13861e-05)
(-0.000514628 0.00183648 -3.05331e-19 0.000497888 -2.28123e-20 1.67405e-05)
(-0.000932686 0.00162251 -2.34476e-19 0.000972535 -9.56865e-19 -3.98483e-05)
(-0.0011813 0.00134107 4.20681e-20 0.00127732 -5.18104e-19 -9.60234e-05)
(-0.00128333 0.00105623 4.23043e-19 0.00142557 1.08918e-18 -0.000142236)
(-0.00128381 0.000815057 -4.77845e-19 0.00146324 -2.53336e-19 -0.00017943)
(-0.00109281 0.00056876 -2.38435e-19 0.00127953 -8.32994e-19 -0.000186719)
(-0.00879905 0.00399284 -9.6522e-18 0.0105845 -1.91493e-18 -0.0017855)
(-0.0126304 0.00536112 -2.416e-18 0.0156052 1.11826e-19 -0.00297475)
(-0.0304159 0.0129301 -4.11229e-19 0.038564 -3.86027e-18 -0.00814815)
(-0.0455218 0.0202367 -1.02367e-17 0.0590505 6.18874e-18 -0.0135287)
(-0.00151368 0.000721461 6.22553e-19 0.00201033 -2.0416e-19 -0.000496652)
(-0.0166062 0.00864094 -5.75179e-17 0.0226653 3.39447e-17 -0.00605907)
(-0.00592781 0.00331689 -4.53729e-18 0.00830755 8.60915e-19 -0.00237975)
(-0.031162 0.0183911 2.1429e-18 0.0452908 -1.86892e-17 -0.0141288)
(-0.00036358 0.000232677 1.60822e-18 0.000557412 -9.93329e-21 -0.000193831)
(-0.000426135 0.000332348 -1.85551e-18 0.000699253 1.6553e-19 -0.000273118)
(-0.000465063 0.000481701 -2.05502e-18 0.000809675 2.48833e-19 -0.000344612)
(-0.00089357 0.00124408 -2.2989e-20 0.00161711 2.12754e-20 -0.000723535)
(-0.000853797 0.00150036 2.04512e-22 0.00155883 1.07003e-20 -0.000705036)
(-0.000705509 0.00151205 -1.32381e-21 0.00125779 -1.79882e-23 -0.000552277)
(-0.000590246 0.0015048 3.62233e-20 0.00100745 1.55609e-19 -0.000417206)
(-0.000372376 0.00109167 3.4767e-21 0.000598841 -6.70841e-20 -0.000226464)
(-0.000217333 0.00070387 3.89877e-20 0.000325333 -1.12444e-19 -0.000108)
(-0.000142368 0.000489127 1.86339e-18 0.000197252 9.50404e-20 -5.48838e-05)
(-9.10589e-05 0.000320881 8.34373e-19 0.000117079 -2.17338e-19 -2.60201e-05)
(-4.98573e-05 0.000175046 -3.22116e-19 5.97262e-05 9.4002e-21 -9.86886e-06)
(-0.000443076 0.00151808 2.28794e-18 0.000511838 2.90189e-19 -6.87621e-05)
(-0.0303969 0.100267 -2.34547e-16 0.0328544 -3.36216e-17 -0.00245748)
(-0.0413637 0.1162 -2.1132e-16 0.0490164 -4.1225e-17 -0.00765265)
(-0.942684 3.06718 -1.21095e-14 1.10513 -3.2282e-15 -0.16245)
(0.00166197 -0.00139428 -7.0592e-21 -0.00177015 -1.99769e-20 0.000108184)
(0.000285268 -0.000364606 -3.578e-20 -0.000313984 -7.8206e-20 2.87154e-05)
(0.000995393 -0.00217028 1.3761e-19 -0.0011746 2.91764e-19 0.000179208)
(0.000421329 -0.00227946 1.87742e-19 -0.000641633 3.34912e-19 0.000220305)
(-0.0001579 -0.00228872 3.5046e-19 -0.000100451 5.00386e-19 0.000258352)
(-0.000751475 -0.00218074 -1.11173e-18 0.000447064 -1.86306e-18 0.000304412)
(-0.00132893 -0.00194983 8.20944e-19 0.000964407 1.55815e-18 0.000364525)
(-0.0018437 -0.00159662 1.14851e-18 0.00141735 1.03516e-18 0.000426349)
(-0.00226973 -0.00112629 -7.13688e-20 0.00177809 1.43689e-19 0.000491644)
(-0.00256332 -0.000575478 8.32247e-19 0.00200548 1.40464e-18 0.000557845)
(-0.00271176 7.72857e-06 -1.83349e-18 0.00209503 -1.17832e-19 0.000616731)
(-0.00272656 0.000585222 2.67181e-18 0.00205667 2.89318e-18 0.000669895)
(-0.00263215 0.00111426 1.31514e-18 0.00192657 5.53885e-19 0.000705588)
(-0.0024464 0.00156216 6.51211e-19 0.00173461 -6.17898e-19 0.000711792)
(-0.0022684 0.00196851 2.01327e-18 0.00155756 1.9568e-18 0.000710837)
(-0.00247547 0.00273348 -6.2205e-18 0.00165639 -6.26209e-18 0.000819079)
(-0.00345503 0.00467124 2.43643e-18 0.00227432 3.59864e-18 0.00118071)
(-0.00702767 0.0113683 4.79514e-17 0.00459911 1.38279e-17 0.00242855)
(-0.015908 0.030534 3.80402e-17 0.0104548 2.75603e-17 0.00545323)
(-0.0324576 0.0741592 -2.82432e-17 0.021625 -1.79877e-18 0.0108327)
(-0.0545752 0.154625 6.70629e-17 0.0366878 -1.50364e-16 0.0178874)
(-0.0699934 0.279879 2.32981e-17 0.0448499 1.98669e-16 0.0251435)
(-0.0549113 0.532665 8.46742e-16 0.0125017 -2.12677e-16 0.0424096)
(0.141581 0.786511 -1.05849e-15 -0.231031 -4.3683e-16 0.08945)
(0.53028 0.0760689 3.15141e-17 -0.641077 3.16154e-17 0.110797)
(0.615348 -0.772443 -9.22045e-16 -0.694239 2.64644e-16 0.078891)
(2.8274 -5.55989 7.4397e-16 -3.0142 9.86132e-17 0.186801)
(2.04102 -6.17321 -3.07876e-16 -2.10259 1.23354e-18 0.0615707)
(0.665105 -3.48567 -4.65083e-15 -0.528446 2.71488e-15 -0.136659)
(0.278831 -2.26358 -5.86927e-15 -0.116042 2.27022e-16 -0.162789)
(0.17555 -1.49907 1.12501e-14 -0.0437259 -3.11685e-15 -0.131825)
(0.124284 -0.533402 6.36201e-15 -0.0217762 2.55803e-15 -0.102507)
(0.0360668 0.0549616 2.37345e-16 -0.0215787 1.43253e-15 -0.0144882)
(0.0125856 0.0063658 4.0477e-16 -0.0106278 -2.2977e-16 -0.00195784)
(-0.00237424 -0.0153495 2.49166e-17 0.00253558 -1.0799e-17 -0.000161346)
(-0.00239255 -0.0078958 -8.18037e-18 0.00214194 -5.29364e-18 0.000250615)
(-0.00081986 -0.00469254 2.95181e-19 0.000860138 -7.90394e-19 -4.02781e-05)
(0.331185 0.200586 1.89055e-16 -0.302437 -3.83444e-16 -0.0287486)
(-0.0105481 -2.26573 3.94091e-14 -0.20155 -1.20251e-14 0.212098)
(0.00263248 -0.00139409 -5.19226e-20 -0.00276483 -1.14472e-19 0.000132343)
(0.00305072 -0.000910567 -4.22631e-20 -0.00316056 -6.99743e-21 0.000109834)
(0.00394633 -0.000264488 5.62894e-19 -0.00404928 7.98123e-19 0.000102945)
(0.00367828 0.000616828 -3.37943e-19 -0.0037367 -3.03316e-20 5.84227e-05)
(0.00272543 0.00120116 5.61301e-20 -0.00274969 2.41345e-19 2.42528e-05)
(0.00199364 0.00159742 -5.16769e-20 -0.00199809 9.21957e-19 4.44764e-06)
(0.000718062 0.0009855 -2.26195e-20 -0.000719536 3.61943e-19 1.4738e-06)
(0.000760323 0.00198708 2.3475e-18 -0.000770651 1.45932e-18 1.03285e-05)
(0.000236924 0.00238231 5.07078e-19 -0.000245979 -4.90978e-19 9.05446e-06)
(-0.000386568 0.00240961 1.50308e-18 0.000376164 1.79317e-19 1.04033e-05)
(-0.00096357 0.00232667 -1.69491e-18 0.000939291 -8.40162e-19 2.42788e-05)
(-0.00148228 0.00216264 -1.37884e-18 0.00142896 2.04007e-18 5.33218e-05)
(-0.00195684 0.00193353 2.31561e-18 0.00185578 -1.09675e-18 0.000101065)
(-0.00238769 0.00164556 1.88821e-18 0.00221347 -9.98765e-21 0.000174217)
(-0.00276756 0.00131283 -2.30149e-18 0.00249585 1.85819e-18 0.000271713)
(-0.00310114 0.00094178 -1.86e-18 0.00270002 4.00569e-18 0.000401118)
(-0.00299221 0.000477132 5.76362e-18 0.00249707 -3.08007e-18 0.000495141)
(-0.00267828 7.50225e-05 5.18241e-18 0.002125 -9.72201e-19 0.000553273)
(-0.000796592 -7.58317e-05 6.82896e-19 0.0006014 -7.50168e-20 0.000195192)
(-0.00259408 -0.000581133 -8.78508e-19 0.00184713 2.78366e-18 0.00074695)
(-9.6354e-05 -3.53725e-05 5.52073e-19 6.42596e-05 3.21548e-20 3.20944e-05)
(-0.00193936 -0.0010202 3.92872e-19 0.00122031 -1.80806e-18 0.000719046)
(-0.00779568 -0.00594767 -1.65094e-19 0.00435177 -5.12233e-19 0.00344391)
(-0.00162561 -0.00191782 -2.65175e-19 0.000629169 -1.32463e-18 0.000996444)
(-7.13587e-05 -0.000154309 -6.73183e-21 -1.11306e-05 5.63358e-20 8.24893e-05)
(-0.000418011 -0.00257128 3.40853e-17 -0.00110043 -2.00214e-18 0.00151845)
(0.0003567 -0.00399595 -4.58567e-19 -0.00300429 3.09667e-20 0.00264759)
(0.000944387 -0.00286079 -4.83266e-18 -0.00312326 4.56884e-20 0.00217887)
(0.00106917 -0.00206802 -4.36049e-20 -0.00268705 3.4259e-21 0.00161788)
(0.000972383 -0.00165209 -4.27954e-18 -0.00211223 -1.47014e-19 0.00113985)
(0.000663306 -0.00117101 4.57185e-18 -0.0012998 4.34133e-19 0.000636492)
(0.000314538 -0.000612303 -7.27786e-20 -0.000564241 -1.45806e-21 0.000249702)
(0.000169335 -0.000364274 -3.10788e-18 -0.000279769 3.18097e-19 0.000110434)
(8.94068e-05 -0.000208162 -2.71602e-21 -0.000136614 1.53839e-19 4.7207e-05)
(4.70607e-05 -0.00011702 1.00408e-20 -6.68593e-05 -9.31993e-20 1.97986e-05)
(3.52305e-05 -8.42419e-05 -2.62301e-20 -4.70612e-05 5.79887e-20 1.18306e-05)
(0.0111794 -0.0267311 1.13681e-17 -0.013868 -3.02634e-18 0.00268863)
(0.0303576 -0.0330629 6.82749e-16 -0.038579 1.67474e-16 0.0082214)
(0.280192 2.11346 7.07238e-14 -0.396117 1.53502e-14 0.115924)
(0.00409675 -0.00319934 -9.21299e-20 -0.00399551 -1.53703e-19 -0.000101245)
(0.00350936 -0.00385787 -1.87321e-19 -0.00339541 -3.05796e-19 -0.000113947)
(0.00270071 -0.00443392 3.72649e-19 -0.00255103 5.20533e-19 -0.000149676)
(0.00180566 -0.00488414 4.72988e-19 -0.00162034 5.11865e-19 -0.000185312)
(0.000847124 -0.00511811 5.78831e-20 -0.000619503 -1.79564e-20 -0.00022762)
(-0.000153159 -0.00516021 -1.67945e-19 0.0004335 4.4107e-19 -0.000280341)
(-0.00111818 -0.00500597 4.08798e-18 0.00145787 4.0699e-18 -0.000339688)
(-0.00199174 -0.00467404 -4.01513e-18 0.00239902 -5.1703e-18 -0.000407279)
(-0.00277886 -0.00423605 1.0881e-18 0.0032726 2.83711e-19 -0.000493748)
(-0.00339783 -0.00365396 5.94371e-18 0.00398092 4.38473e-18 -0.000583088)
(-0.00383308 -0.00298642 5.04961e-18 0.00451298 5.02725e-18 -0.000679893)
(-0.0041696 -0.00233442 5.90746e-18 0.00496608 1.77429e-18 -0.000796475)
(-0.0043803 -0.00168824 -7.19543e-18 0.00530645 -5.4011e-18 -0.000926146)
(-0.00448961 -0.0010583 -5.12388e-18 0.00555278 -4.96273e-18 -0.00106318)
(-0.00450953 -0.000463291 5.89671e-19 0.00572401 -1.85644e-18 -0.00121448)
(-0.00446606 0.000130735 -1.5861e-17 0.00584336 1.02477e-18 -0.00137729)
(-0.0043169 0.000823488 -5.19563e-18 0.00582844 -6.46578e-18 -0.00151155)
(-0.00394747 0.00158838 -3.38436e-17 0.00551953 -2.6e-17 -0.00157206)
(-0.00225289 0.00161584 2.63282e-18 0.00325387 -3.59731e-18 -0.00100098)
(-0.000717438 0.000862891 4.89913e-19 0.00106336 -1.1444e-18 -0.000345923)
(-2.6266e-05 5.24006e-05 -2.52392e-19 3.95388e-05 1.39176e-21 -1.32728e-05)
(-1.86955e-05 6.39263e-05 4.09518e-20 2.89195e-05 8.11576e-21 -1.0224e-05)
(-9.85338e-06 7.21749e-05 -2.03865e-19 1.71816e-05 -3.93618e-20 -7.32824e-06)
(-8.53001e-07 7.3529e-05 -6.75619e-20 5.90503e-06 7.48696e-20 -5.05203e-06)
(0.0312434 0.281628 7.25217e-17 -0.0204956 4.71961e-18 -0.0107478)
(1.36601e-05 4.88394e-05 6.29766e-20 -1.307e-05 2.89783e-20 -5.90036e-07)
(2.35795e-05 3.65333e-06 -5.1436e-21 -2.70115e-05 3.56696e-21 3.43208e-06)
(2.50076e-05 -3.13891e-05 6.30901e-21 -2.82235e-05 4.51083e-22 3.21587e-06)
(1.94244e-05 -5.10877e-05 8.68883e-20 -2.02753e-05 -1.4242e-20 8.50936e-07)
(1.41718e-05 -6.32966e-05 -8.65218e-21 -1.44085e-05 4.17654e-20 2.36703e-07)
(9.83814e-06 -6.59517e-05 -1.32926e-19 -1.04007e-05 -7.50192e-20 5.62597e-07)
(4.68072e-05 -0.000442058 1.74477e-18 -5.22556e-05 -1.51178e-18 5.44831e-06)
(0.00419129 -0.0850785 3.02575e-16 -0.00591374 -2.55802e-17 0.00172246)
(0.0167894 -0.00541319 -1.1989e-16 -0.0168439 -6.64421e-16 5.44444e-05)
(0.00288222 -0.0147718 -2.13433e-16 -0.00285836 -5.27405e-17 -2.3858e-05)
(-0.00538636 -0.0189291 7.32464e-18 0.00407056 3.64192e-17 0.0013158)
(0.00120592 -0.00230415 -1.71737e-17 -0.00104606 2.59936e-18 -0.000159856)
(0.259293 0.0274222 -3.05389e-16 -0.22955 -2.44663e-16 -0.029743)
(1.7122 -2.04764 -2.43781e-14 -2.69842 2.84448e-15 0.986217)
(0.00528081 -0.00278802 -5.37818e-20 -0.00520706 -2.32335e-20 -7.37553e-05)
(0.00494085 -0.00159898 1.65783e-19 -0.00488591 8.14639e-19 -5.49368e-05)
(0.00453226 -0.00048864 4.76854e-19 -0.00451454 9.42399e-19 -1.77153e-05)
(0.00267098 0.000311397 3.56093e-19 -0.00266827 -1.80293e-19 -2.71225e-06)
(0.00411227 0.00153207 -1.19852e-18 -0.00411823 -9.03916e-19 5.96293e-06)
(0.00324788 0.00226632 -1.8989e-19 -0.00324811 -1.29414e-18 2.21711e-07)
(0.00205516 0.00242075 -1.55255e-18 -0.00205611 -1.30827e-18 9.46917e-07)
(0.00130235 0.00271603 -2.09478e-18 -0.00130908 -3.4206e-21 6.73169e-06)
(0.000547009 0.00281852 -4.85692e-19 -0.000558737 -3.67603e-19 1.17281e-05)
(-0.000154082 0.00269279 8.10782e-19 0.000139175 -5.36887e-19 1.4907e-05)
(-0.000713865 0.00240098 7.15879e-19 0.000701589 1.64168e-18 1.22755e-05)
(-0.00111536 0.00204375 1.72719e-18 0.00111241 -6.75151e-19 2.9556e-06)
(-0.00137648 0.00167117 -1.574e-18 0.00138747 -1.44247e-18 -1.09831e-05)
(-0.00149665 0.00129519 -1.80794e-19 0.00152374 5.83439e-19 -2.70981e-05)
(-0.00151226 0.000965791 1.72148e-18 0.00155778 -4.08406e-19 -4.55225e-05)
(-0.00146725 0.000699828 3.599e-18 0.0015313 -3.38778e-19 -6.40541e-05)
(-0.00135909 0.000483306 -2.46745e-18 0.00143961 -4.45087e-19 -8.0514e-05)
(-0.000184819 4.805e-05 -9.1486e-20 0.000198845 -1.31174e-19 -1.40261e-05)
(-0.000456989 8.18071e-05 -1.12495e-19 0.000499489 6.50318e-20 -4.25006e-05)
(-0.000651595 6.7599e-05 2.37421e-18 0.000722626 -8.30088e-19 -7.1031e-05)
(-0.000672036 1.80376e-05 4.15775e-19 0.000755988 -5.48949e-19 -8.39524e-05)
(-0.000786184 -4.90243e-05 -3.37226e-18 0.000896357 8.62375e-19 -0.000110174)
(-0.000646551 -0.000112512 -1.00599e-19 0.000747596 3.34729e-19 -0.000101045)
(-0.000496796 -0.000156442 -3.27106e-20 0.000586278 -1.76689e-19 -8.94813e-05)
(-0.000471679 -0.000216679 2.20455e-20 0.000578625 -1.86701e-21 -0.000106946)
(-0.000398228 -0.000232264 -2.407e-18 0.000518481 -1.28734e-19 -0.000120253)
(-0.000327703 -0.000225643 -1.52286e-20 0.000457544 2.37985e-21 -0.000129841)
(-0.000269218 -0.000209754 5.02387e-19 0.000405507 -1.58598e-20 -0.000136289)
(-0.0002304 -0.000195877 -2.24492e-20 0.000376057 -3.29233e-22 -0.000145657)
(-0.000198485 -0.000178892 2.25145e-21 0.000351323 -7.94758e-20 -0.000152837)
(-0.000164453 -0.000159812 -1.51767e-18 0.00031561 5.31547e-20 -0.000151157)
(-0.000127002 -0.00014274 -3.09754e-20 0.000265992 -1.88055e-21 -0.00013899)
(-9.17085e-05 -0.000138511 3.96655e-20 0.000215135 -1.24695e-19 -0.000123426)
(-5.51222e-05 -0.000148769 3.70939e-18 0.000158463 5.79847e-19 -0.000103341)
(-2.15044e-05 -0.000215318 8.66893e-21 0.000121624 6.55302e-22 -0.00010012)
(1.82799e-05 -0.000172969 -3.68771e-18 3.05367e-05 -3.40354e-19 -4.88166e-05)
(5.11634e-06 -2.00526e-05 1.22266e-18 -1.97338e-06 1.7356e-19 -3.14296e-06)
(0.014736 -0.0321039 8.99675e-18 -0.0114161 -4.21183e-17 -0.00331994)
(2.0743 1.22192 1.69223e-15 -1.77757 -9.40121e-15 -0.296729)
(0.00614136 -0.00494361 -2.09085e-19 -0.00620726 -2.79378e-19 6.59054e-05)
(0.0051007 -0.00586004 -3.95189e-19 -0.00519763 -5.33829e-19 9.69299e-05)
(0.00386312 -0.00674952 1.35534e-18 -0.00397223 1.7123e-18 0.000109115)
(0.00243404 -0.0074193 -5.82022e-18 -0.0025769 -7.53308e-18 0.000142852)
(0.000869926 -0.00778534 1.47794e-18 -0.00105142 2.05397e-18 0.000181497)
(-0.000809559 -0.00787041 3.31991e-18 0.000586136 3.39222e-18 0.000223423)
(-0.00251166 -0.00759936 -3.0248e-18 0.00222816 -4.63314e-18 0.000283507)
(-0.00414834 -0.006975 -1.87444e-18 0.00379233 2.8448e-19 0.000356009)
(-0.00565541 -0.00600911 -1.34118e-17 0.00521531 -1.23877e-17 0.000440098)
(-0.00695315 -0.00474229 -2.24465e-18 0.00640592 -5.31253e-18 0.000547236)
(-0.00797522 -0.0032165 4.04475e-19 0.0073041 -1.31653e-18 0.000671117)
(-0.00866845 -0.00149503 -8.60388e-18 0.00785332 -1.04927e-17 0.000815131)
(-0.0089925 0.000340972 4.47137e-18 0.00801355 5.1724e-18 0.000978954)
(-0.00893346 0.00219695 -1.95638e-17 0.00777972 -1.00223e-17 0.00115374)
(-0.0085066 0.00398625 4.4213e-18 0.00717573 2.46158e-18 0.00133087)
(-0.00775646 0.00563624 2.18193e-17 0.00625608 1.7796e-17 0.00150039)
(-0.00680268 0.00703677 -3.18199e-17 0.00519695 -8.91325e-18 0.00160573)
(-0.00575281 0.00820937 -6.30337e-18 0.0040983 2.83326e-17 0.00165451)
(-0.00459884 0.00919934 -2.37508e-18 0.0029423 -3.95497e-18 0.00165654)
(-0.00259334 0.00781988 -2.44173e-17 0.00132695 -3.66464e-18 0.00126639)
(-0.000369821 0.0020717 7.07711e-18 6.88959e-05 4.28604e-18 0.000300925)
(-3.22139e-05 0.00101904 1.19052e-19 -0.000100111 -1.82602e-19 0.000132325)
(6.71086e-06 5.84264e-05 1.73924e-19 -1.34621e-05 4.78017e-20 6.75122e-06)
(1.28777e-05 5.3176e-05 1.25029e-19 -1.81955e-05 4.04042e-20 5.31777e-06)
(1.48341e-05 4.79429e-05 -1.25842e-20 -1.81112e-05 -1.13426e-21 3.27707e-06)
(1.39697e-05 4.51133e-05 1.24768e-21 -1.58261e-05 -4.33711e-21 1.8564e-06)
(1.25195e-05 3.94565e-05 1.35127e-20 -1.30148e-05 -3.45888e-21 4.95316e-07)
(1.26836e-05 2.48204e-05 -6.05279e-21 -1.24565e-05 -8.88356e-21 -2.27009e-07)
(1.31794e-05 7.44692e-06 -8.65914e-20 -1.2879e-05 -1.89206e-21 -3.00382e-07)
(1.25884e-05 -1.15696e-05 8.03638e-21 -1.26921e-05 4.55565e-22 1.03737e-07)
(1.04124e-05 -3.03352e-05 -1.50825e-20 -1.0934e-05 5.6946e-21 5.21572e-07)
(7.59199e-06 -4.57473e-05 -2.47348e-19 -8.33192e-06 -1.80324e-19 7.3993e-07)
(3.88389e-06 -5.99907e-05 -2.35616e-20 -4.53458e-06 -8.60453e-20 6.50682e-07)
(4.24368e-06 -4.8261e-05 -6.9369e-19 -4.22003e-06 5.19741e-20 -2.36456e-08)
(0.00220867 -0.0149908 2.75958e-17 -0.00262406 8.91193e-17 0.00041539)
(-0.00270044 -0.0234708 8.75605e-21 -0.00222626 -2.24428e-21 0.0049267)
(0.00336733 8.9405e-05 9.64294e-19 -0.00331606 2.05335e-18 -5.12756e-05)
(0.225925 -0.0505754 -3.19813e-17 -0.192442 1.59527e-16 -0.0334832)
(3.21455 -0.416357 3.29061e-14 -5.17361 8.09115e-14 1.95906)
(0.00673901 -0.0036708 3.82264e-19 -0.0068078 1.73796e-19 6.87905e-05)
(0.00436928 -0.00147535 -6.61734e-19 -0.00439163 -9.59859e-19 2.23531e-05)
(0.00392463 -0.00049793 -3.76031e-19 -0.00394446 5.90535e-19 1.98314e-05)
(0.00401892 0.000356604 1.64531e-18 -0.00402956 8.88373e-19 1.06442e-05)
(0.00641336 0.00211233 -9.2988e-19 -0.00642396 -5.01496e-18 1.05982e-05)
(0.00650689 0.00406861 -2.23005e-18 -0.00649998 2.13662e-18 -6.91316e-06)
(0.00537327 0.0056007 5.88843e-18 -0.0053669 4.48989e-18 -6.37296e-06)
(0.00387683 0.00683126 -2.33196e-18 -0.00388184 -5.26044e-18 5.00319e-06)
(0.00212346 0.00767718 -5.4876e-18 -0.00213505 -2.19305e-18 1.15897e-05)
(0.000249248 0.00808545 -4.63555e-18 -0.000265181 1.85456e-18 1.59323e-05)
(-0.00158003 0.00807766 6.26916e-18 0.00156186 -8.67966e-20 1.81675e-05)
(-0.00325777 0.00773434 -4.58963e-18 0.00323577 -3.24713e-18 2.19957e-05)
(-0.00422166 0.00635943 -5.3426e-18 0.00419122 3.9484e-18 3.04379e-05)
(-0.00433317 0.00458936 4.90581e-18 0.00429043 1.76184e-18 4.27434e-05)
(-0.00409122 0.00317986 -7.40268e-18 0.00403453 1.4102e-18 5.66933e-05)
(-0.00369015 0.00212667 -1.32961e-18 0.00361816 -4.34423e-18 7.19839e-05)
(-0.00340329 0.0014329 1.73531e-18 0.00331168 2.21788e-18 9.16064e-05)
(-0.00285165 0.000832321 -7.11622e-18 0.00274798 5.19224e-19 0.000103666)
(-0.00226395 0.000400225 2.48044e-18 0.00215633 -1.11963e-19 0.000107624)
(-0.00194732 0.000128342 -9.41655e-18 0.00182958 8.70751e-19 0.000117743)
(-0.00165937 -8.1303e-05 -9.79098e-19 0.00153605 2.72872e-19 0.000123321)
(-0.00140131 -0.000250876 6.94935e-18 0.00127499 2.51629e-19 0.000126322)
(-0.00116358 -0.000394467 6.22386e-18 0.001039 -1.24789e-18 0.000124571)
(-0.000921661 -0.000508781 -5.14668e-18 0.000797692 4.08419e-19 0.000123969)
(-0.000676797 -0.000567664 -6.23578e-20 0.00055091 2.60135e-20 0.000125887)
(-0.000458434 -0.000566779 -4.55552e-18 0.000331835 7.97512e-19 0.000126599)
(-0.000279354 -0.000533506 -4.35828e-20 0.000147672 1.32657e-21 0.000131682)
(-0.000135166 -0.000485948 2.23426e-22 -5.36806e-06 1.16922e-20 0.000140534)
(-1.90319e-05 -0.000431142 8.16235e-21 -0.000132075 -1.0061e-21 0.000151106)
(7.29122e-05 -0.000372235 1.48287e-18 -0.000233842 8.08994e-20 0.00016093)
(0.000137324 -0.000311102 2.72356e-22 -0.000300317 -1.65829e-19 0.000162993)
(0.000177743 -0.000254363 -6.23735e-20 -0.000336491 -9.39564e-21 0.000158748)
(0.000202067 -0.000204007 -8.24801e-18 -0.000353197 -1.06533e-18 0.00015113)
(0.000219308 -0.000164263 -7.47261e-18 -0.000362717 -5.49972e-19 0.000143409)
(0.000201862 -0.000115963 1.23625e-20 -0.000318714 7.56954e-21 0.000116852)
(0.000297332 -0.000143835 -1.49637e-17 -0.000440866 -2.84566e-18 0.000143534)
(1.17686e-05 -5.09609e-06 1.65915e-21 -1.63277e-05 -1.84255e-20 4.55914e-06)
(0.0184999 -0.00784652 1.04145e-18 -0.0228744 3.08351e-19 0.0043746)
(1.60847 0.775205 -1.06372e-13 -1.56015 -1.54582e-14 -0.0483157)
(0.0086069 -0.0069274 7.49438e-19 -0.00856862 7.95807e-19 -3.82809e-05)
(0.00758299 -0.00852075 -5.6837e-19 -0.00754806 -5.77746e-19 -3.49376e-05)
(0.00549377 -0.00911184 -1.02452e-20 -0.00543741 -5.32788e-20 -5.63611e-05)
(0.00322196 -0.00873513 -1.81505e-19 -0.00316088 1.36482e-19 -6.10829e-05)
(0.00133154 -0.00803759 5.18349e-18 -0.00126536 5.31653e-18 -6.61858e-05)
(-0.000222432 -0.00719574 -2.97623e-18 0.000301404 -3.58798e-18 -7.89714e-05)
(-0.00145989 -0.00635184 -1.79009e-19 0.0015495 7.41341e-19 -8.96103e-05)
(-0.00243338 -0.00547094 8.84605e-18 0.0025372 8.25819e-18 -0.000103815)
(-0.00319514 -0.00457615 -1.83167e-18 0.00331952 1.74714e-19 -0.000124374)
(-0.00378273 -0.00370196 -9.57073e-18 0.00393085 -6.3377e-18 -0.000148125)
(-0.0042329 -0.00285022 3.01963e-18 0.00441239 2.47454e-18 -0.000179491)
(-0.00457469 -0.00201621 -8.29939e-18 0.00479483 -2.69007e-18 -0.000220134)
(-0.00481185 -0.00119316 -3.28968e-18 0.00508255 -1.24455e-18 -0.000270695)
(-0.00494608 -0.000378203 -5.95105e-18 0.00528122 3.18653e-18 -0.000335137)