/*--------------------------------*- C++ -*----------------------------------*\
| =========                 |                                                 |
| \\      /  F ield         | OpenFOAM: The Open Source CFD Toolbox           |
|  \\    /   O peration     | Version:  2312                                  |
|   \\  /    A nd           | Website:  www.openfoam.com                      |
|    \\/     M anipulation  |                                                 |
\*---------------------------------------------------------------------------*/
FoamFile
{
    version     2.0;
    format      ascii;
    arch        "LSB;label=32;scalar=64";
    class       volSymmTensorField;
    location    "200";
    object      turbulenceProperties:R;
}
// * * * * * * * * * * * * * * * * * * * * * * * * * * * * * * * * * * * * * //

dimensions      [0 2 -2 0 0 0 0];

internalField   nonuniform List<symmTensor> 
10720
(
(0.0153236 0.00762408 -7.17449e-21 0.00867663 -1.1563e-19 0.0123609)
(0.0185528 0.0124333 8.61526e-21 0.00531842 1.69198e-19 0.0122997)
(0.0262013 0.0163303 4.32364e-20 0.00296291 1.84332e-19 0.0154579)
(0.0330598 0.0169729 2.54148e-19 0.00264424 1.71366e-18 0.0188509)
(0.0386839 0.0145849 -6.76635e-19 0.00561177 -2.57701e-18 0.0229966)
(0.044861 0.0116772 -6.03231e-19 0.00983439 -1.21237e-18 0.0282907)
(0.0528264 0.00940743 1.53755e-19 0.0147343 1.1951e-20 0.0347127)
(0.0633697 0.0074037 7.15593e-20 0.0200934 1.13148e-19 0.0426819)
(0.0779599 0.00520384 1.71928e-19 0.026178 -1.38877e-19 0.0531814)
(0.0984418 0.00232721 -2.66775e-20 0.0341178 -2.67653e-20 0.0675731)
(0.127654 -0.00211886 3.10351e-18 0.0454002 1.29239e-18 0.0881166)
(0.172367 -0.00943451 -7.60197e-19 0.0631903 -5.83779e-19 0.11983)
(0.244764 -0.0222754 1.71397e-18 0.0930927 -2.57249e-18 0.171695)
(0.357254 -0.0450238 9.3399e-19 0.142052 2.03613e-18 0.253512)
(0.577563 -0.0924177 1.87737e-18 0.242242 -3.3284e-18 0.41593)
(1.07708 -0.207578 7.49434e-19 0.480115 1.62867e-17 0.789438)
(1.9476 -0.437316 1.09528e-16 0.928597 5.58033e-17 1.45751)
(3.84793 -0.981566 -3.44844e-17 1.97065 5.3534e-17 2.9469)
(7.09005 -2.01986 -2.24089e-17 3.91565 -3.22473e-16 5.57202)
(10.6877 -3.35309 1.79395e-17 6.38069 -9.35501e-19 8.63543)
(14.8657 -5.08086 -3.8696e-16 9.6311 -2.82792e-16 12.3853)
(22.5464 -8.32863 7.87157e-16 15.8986 1.19227e-15 19.4238)
(40.7126 -16.1418 -5.44039e-16 31.3453 -1.43505e-15 36.4051)
(82.8754 -34.9428 7.25483e-16 69.5881 1.65839e-16 77.0769)
(160.347 -70.6746 -2.73585e-16 144.68 -1.34959e-17 153.806)
(229.523 -103.9 8.14719e-17 217.008 -1.95294e-15 225.109)
(491.244 -226.8 7.26169e-16 481.547 -2.27651e-16 491.084)
(824.313 -388.583 8.26013e-16 845.52 1.49172e-15 838.174)
(561.97 -262.184 1.57529e-14 606.927 4.64891e-16 582.259)
(233.233 -90.5096 8.48197e-15 256.927 4.74694e-15 244.121)
(69.6923 -25.3995 -2.73487e-15 78.0438 -7.03029e-16 73.7141)
(8.3458 -2.47171 -4.46611e-16 9.29927 -2.28415e-16 8.81573)
(1.91101 -0.501431 -2.76777e-17 2.12386 -9.70812e-17 2.01804)
(0.234454 -0.0602266 -1.73974e-17 0.260711 -2.44536e-17 0.247477)
(6.451e-16 -1.07409e-16 2.05364e-32 6.89557e-16 7.25178e-32 6.65343e-16)
(6.49801e-16 -3.01001e-17 4.11004e-33 6.83642e-16 6.37837e-32 6.66557e-16)
(0.0129364 -0.00634238 -2.67355e-19 0.0187021 4.68153e-20 0.0159334)
(0.98004 -0.505189 -2.3508e-16 1.27581 -2.95401e-16 1.13992)
(61.8434 21.372 8.53938e-15 40.6645 3.12584e-14 51.3754)
(0.0218996 0.00861317 4.08478e-21 0.0166212 -1.19144e-20 0.0194326)
(0.022119 0.00912172 -2.94393e-20 0.0179235 3.1705e-20 0.0203904)
(0.0158714 0.00692369 -1.27346e-19 0.0140562 -9.25581e-20 0.0151375)
(0.0101948 0.0122544 3.60221e-19 0.00909817 -4.46397e-19 0.00992483)
(0.00656476 0.00312386 -1.64138e-19 0.00664771 -2.80273e-20 0.00664767)
(0.0117622 0.00554134 -1.74489e-18 0.0119564 2.23733e-18 0.0117706)
(0.0137669 0.00631197 1.49411e-18 0.012873 2.64579e-18 0.0128428)
(0.0156394 0.00658732 4.0372e-19 0.0118059 -5.20279e-18 0.013112)
(0.0189428 0.00670198 1.97714e-18 0.0110048 -1.6291e-19 0.014747)
(0.0226127 0.00687628 -1.08836e-18 0.0112871 -3.27592e-19 0.0170002)
(0.0275929 0.00780829 7.70984e-19 0.0131956 1.8478e-18 0.0205307)
(0.0352021 0.00983539 1.3707e-18 0.0172317 -6.62537e-19 0.0263984)
(0.0465407 0.0132402 -1.30275e-18 0.0240298 -1.94649e-19 0.0355471)
(0.0665334 0.0194882 3.34918e-19 0.0365033 2.96818e-19 0.0519074)
(0.0960296 0.029438 4.06927e-18 0.0551035 4.75645e-19 0.0760864)
(0.163249 0.0526103 4.54164e-18 0.0974504 -1.02651e-18 0.131204)
(0.238351 0.0898834 2.10961e-18 0.136845 2.85251e-18 0.188898)
(0.598353 0.283648 2.29789e-18 0.308578 6.24116e-18 0.45722)
(0.832 0.336519 2.37579e-18 0.520227 -1.32785e-18 0.680102)
(1.04333 0.416997 3.38637e-18 0.693846 1.88547e-19 0.873232)
(1.38798 0.585872 -4.49505e-18 0.945821 -2.71388e-17 1.17306)
(2.0164 0.863585 -1.47857e-17 1.43712 -4.97439e-20 1.73563)
(2.78063 1.13741 1.05123e-17 2.1173 1.4859e-17 2.46064)
(3.83298 1.58 4.68256e-18 3.06494 -2.96941e-19 3.46671)
(5.07539 2.14619 1.66902e-16 4.2521 -2.42598e-17 4.6894)
(6.36493 2.7695 7.8687e-20 5.57823 -5.82552e-18 6.00376)
(5.77146 2.3531 -2.31863e-20 5.32946 -8.54575e-19 5.57646)
(3.50451 1.30019 -7.12004e-20 3.37885 2.18743e-21 3.45528)
(1.44033 0.49828 1.25049e-19 1.43502 1.69349e-21 1.44266)
(0.387128 0.1294 3.16111e-18 0.39629 -1.93624e-19 0.392958)
(0.0473008 0.0159625 -2.04923e-20 0.049664 -1.02119e-21 0.0486322)
(0.00267905 0.000952372 -3.48262e-21 0.00288978 9.5975e-21 0.00279308)
(0.000735857 0.000285102 -4.3513e-20 0.000818738 -5.43133e-21 0.000779781)
(0.000269232 0.000116345 -3.15685e-20 0.000310688 5.1875e-21 0.000290918)
(6.04402e-16 2.93552e-16 7.46861e-32 7.27433e-16 4.33711e-33 6.68165e-16)
(0.0672715 0.0367112 -5.46869e-20 0.0849494 -4.56789e-19 0.076414)
(4.29937 2.20351 -6.77413e-18 5.5124 8.32245e-18 4.92007)
(1.01078 0.655036 -3.85403e-18 1.41982 6.43483e-18 1.2284)
(74.0137 38.5644 -1.33869e-14 102.994 -1.34215e-15 88.7843)
(0.0165256 -0.00920359 -8.33293e-20 -0.00692403 -2.48249e-19 0.00311525)
(0.0164663 -0.0119396 1.41778e-19 -0.00478933 3.62694e-19 0.00376076)
(0.0130485 -0.0129717 9.97389e-21 -0.00169381 5.0045e-21 0.00330017)
(0.00850074 -0.00886787 1.90972e-19 0.00243994 2.58882e-20 0.0036924)
(0.00592543 -0.00538093 1.14121e-19 0.00429885 7.43773e-19 0.00391742)
(0.00463129 -0.00329659 3.73938e-19 0.00484527 6.63593e-19 0.0038969)
(0.00397848 -0.00229549 -1.31577e-19 0.00489294 2.13867e-20 0.00374185)
(0.00352918 -0.00178473 -1.01477e-19 0.00480669 -2.83344e-20 0.00352063)
(0.00320613 -0.00148929 -6.08272e-19 0.00474313 -6.65128e-19 0.0033163)
(0.00299019 -0.00128922 -2.02587e-19 0.0046944 -7.02023e-20 0.00314393)
(0.00286258 -0.0011415 -1.97908e-18 0.00466336 -1.912e-18 0.00300831)
(0.00278851 -0.00102987 -2.52561e-20 0.00460176 3.29001e-19 0.00288371)
(0.00312381 -0.00109125 -1.26876e-18 0.00508013 2.30679e-20 0.00313224)
(0.00464105 -0.00158393 1.2943e-18 0.00723979 7.64773e-19 0.00445297)
(0.00886173 -0.00305093 -4.99563e-18 0.0128267 -1.45877e-18 0.00802144)
(0.022884 -0.00810958 2.65137e-17 0.0295103 6.33818e-18 0.0193479)
(0.0609773 -0.0222526 -5.74878e-17 0.0677045 -4.81875e-17 0.0485798)
(0.16639 -0.0614628 -1.22627e-16 0.159046 -4.45869e-17 0.128628)
(0.450058 -0.166408 -2.88994e-16 0.382694 1.17809e-16 0.348033)
(1.05404 -0.390947 5.89813e-17 0.835948 -4.44248e-20 0.830579)
(2.09045 -0.786407 4.53136e-16 1.615 5.25828e-16 1.69351)
(3.57258 -1.37529 -6.67358e-16 2.77553 -1.23313e-15 2.97689)
(6.42415 -2.54721 5.38036e-17 5.1399 1.33442e-15 5.4889)
(8.77157 -3.55093 1.77315e-17 7.24255 -3.08734e-16 7.58085)
(28.5614 -10.7644 -0 24.1635 -0 24.9894)
(46.15 -9.73589 -2.10951e-17 44.2189 3.1427e-16 43.489)
(153.862 -14.9838 -8.70221e-16 157.44 2.48277e-16 150.478)
(343.075 -8.96324 -1.21949e-16 344.422 -8.82556e-16 341.181)
(293.62 -5.18403 -1.11552e-14 286.83 -5.65945e-15 292.408)
(180.333 -4.90914 -5.68532e-16 169.419 -2.23196e-14 178.842)
(84.9232 -3.07944 9.29231e-16 80.687 1.40311e-14 84.3073)
(30.3434 -1.45117 2.227e-16 30.0746 6.57008e-15 30.4452)
(8.04476 -0.827866 -1.21344e-15 8.28987 1.21764e-15 8.20099)
(1.06146 -0.264778 3.92962e-16 1.14392 7.14862e-16 1.09938)
(0.0199339 -0.00762892 -6.33737e-19 0.022755 -4.99195e-18 0.0211978)
(5.81131e-16 -2.89663e-16 1.47031e-31 7.40694e-16 -1.07949e-31 6.78175e-16)
(0.0251719 -0.0064743 -3.28748e-19 0.0294265 7.33908e-20 0.0278928)
(2.37288 0.476199 1.28014e-15 1.36199 1.96004e-15 1.86989)
(28.3098 -1.94544 -3.27832e-14 28.3999 -4.89207e-14 28.6649)
(0.0052269 -0.00131044 2.0189e-20 0.000106235 5.72075e-20 0.00239444)
(0.00421431 -0.00038291 -3.88254e-21 0.00164722 -1.43136e-19 0.00281324)
(0.00375114 -8.46824e-05 -8.48987e-20 0.00139462 -1.99093e-19 0.00249295)
(0.00842727 0.000596404 7.1268e-20 0.00185774 1.00085e-18 0.00499047)
(0.00939257 0.00134126 5.836e-19 0.00386113 -5.41945e-19 0.00657293)
(0.008154 0.00191563 -1.99641e-19 0.00399534 -7.81928e-19 0.0060908)
(0.00456503 0.00147425 2.0707e-19 0.00279617 -1.25321e-18 0.00371972)
(0.0039286 0.00155421 -1.00162e-18 0.00300102 -5.1282e-20 0.00353228)
(0.00360682 0.00166984 -6.30662e-19 0.00353368 1.29228e-18 0.00363804)
(0.00320751 0.00164492 -2.73481e-19 0.00411441 -2.04327e-20 0.00368345)
(0.00283187 0.00147516 -2.13183e-19 0.00456408 -8.6997e-19 0.00364363)
(0.00252186 0.00123302 3.86788e-20 0.0047824 -4.76362e-19 0.0035197)
(0.00226041 0.000979049 3.92132e-19 0.00477137 1.00959e-18 0.00331812)
(0.0020518 0.000760405 -4.45804e-19 0.00461465 -2.36349e-19 0.00308213)
(0.00167467 0.00052929 -2.21888e-19 0.00388239 -7.75187e-19 0.00251789)
(0.0143596 0.00396313 -9.58037e-18 0.0335989 -1.90068e-18 0.0213209)
(0.0211394 0.00533726 -2.40525e-18 0.0492493 1.11329e-19 0.0307521)
(0.0529597 0.0129095 -4.10575e-19 0.12183 -3.85413e-18 0.075192)
(0.0826283 0.0202181 -1.02272e-17 0.187104 6.18303e-18 0.114592)
(0.0165247 0.000703793 6.07307e-19 0.0199624 -1.9916e-19 0.0175168)
(0.215028 0.00862363 -5.74027e-17 0.254221 3.38767e-17 0.225554)
(0.0125582 0.00330002 -4.5142e-18 0.0267211 8.56535e-19 0.0160882)
(0.0707528 0.0183747 2.14099e-18 0.147137 -1.86725e-17 0.0877707)
(0.0262051 0.000216134 1.49388e-18 0.0270606 -9.22707e-21 0.0263628)
(0.0266368 0.000313876 -1.75238e-18 0.0276996 1.56329e-19 0.0267813)
(0.0294608 0.000459558 -1.96055e-18 0.0306769 2.37395e-19 0.0295757)
(0.0519567 0.00121721 -2.24924e-20 0.0544132 2.08159e-20 0.0521231)
(0.0469904 0.00146817 2.00124e-22 0.0493512 1.04707e-20 0.0471359)
(0.0385862 0.00147207 -1.28881e-21 0.0404976 -1.75127e-23 0.0387354)
(0.0267067 0.00145378 3.49951e-20 0.0282502 1.50333e-19 0.0268738)
(0.015029 0.00102587 3.26714e-21 0.0159416 -6.30405e-20 0.0151661)
(0.00709846 0.000619257 3.43009e-20 0.00757589 -9.89266e-20 0.00719465)
(0.00338214 0.000381351 1.45281e-18 0.00364693 7.40988e-20 0.00345035)
(0.0012407 0.000184878 4.80729e-19 0.00136062 -1.25221e-19 0.00127817)
(2.39619e-05 4.78107e-06 -8.79803e-21 2.6955e-05 2.5675e-22 2.50541e-05)
(0.00479915 0.00130657 1.96917e-18 0.00562102 2.49758e-19 0.00512132)
(0.2875 0.100027 -2.33985e-16 0.3506 -3.35409e-17 0.315372)
(0.239863 0.11592 -2.10812e-16 0.330025 -4.11257e-17 0.273493)
(19.3217 3.06706 -1.2109e-14 21.3694 -3.22808e-15 20.1019)
(0.00257545 -0.00121743 -6.16379e-21 -0.000421335 -1.74429e-20 0.00121875)
(0.00013716 -0.000150694 -1.47881e-20 -0.000110515 -3.2323e-20 3.11252e-05)
(0.00123207 -0.00192946 1.22341e-19 -0.000697137 2.5939e-19 0.000506453)
(0.000789659 -0.00202837 1.67062e-19 -0.000156215 2.9802e-19 0.000610778)
(0.000372998 -0.00204294 3.12826e-19 0.000424278 4.46652e-19 0.000744551)
(-6.24401e-05 -0.00195664 -9.97484e-19 0.00101294 -1.67161e-18 0.000884943)
(-0.000475193 -0.00176163 7.41707e-19 0.0015968 1.40776e-18 0.00105481)
(-0.00083284 -0.00145298 1.04518e-18 0.00213483 9.42027e-19 0.00123298)
(-0.00108807 -0.00103212 -6.54018e-20 0.00262131 1.31676e-19 0.00144243)
(-0.00126984 -0.00053056 7.67287e-19 0.00294235 1.295e-18 0.00160771)
(-0.0013651 7.16213e-06 -1.69911e-18 0.00308939 -1.09196e-19 0.00171944)
(-0.00128112 0.000544788 2.48721e-18 0.00317163 2.69328e-18 0.00188068)
(-0.00105452 0.00104103 1.22871e-18 0.0032046 5.17484e-19 0.00206386)
(-0.000996456 0.00146286 6.09818e-19 0.0029188 -5.78622e-19 0.00196099)
(-0.000334913 0.00184857 1.89061e-18 0.00325794 1.83758e-18 0.0024628)
(0.00292271 0.00259808 -5.91237e-18 0.00684991 -5.9519e-18 0.00605407)
(0.00807197 0.00452426 2.35977e-18 0.0136211 3.48541e-18 0.0125618)
(0.0212249 0.011213 4.72963e-17 0.0326928 1.3639e-17 0.0305519)
(0.057442 0.0303736 3.78403e-17 0.0836663 2.74155e-17 0.078691)
(0.14055 0.0739983 -2.81819e-17 0.194515 -1.79487e-18 0.183746)
(0.2966 0.15447 6.69956e-17 0.387772 -1.50213e-16 0.36899)
(0.549487 0.279738 2.32863e-17 0.664272 1.98569e-16 0.644576)
(1.10078 0.53255 8.46559e-16 1.16818 -2.12631e-16 1.19808)
(1.90341 0.786436 -1.05838e-15 1.53084 -4.36788e-16 1.85129)
(3.44513 0.0760642 3.15122e-17 2.27384 3.16134e-17 3.02567)
(3.36854 -0.772384 -9.21975e-16 2.05905 2.64624e-16 2.83212)
(41.8718 -5.5598 7.43958e-16 36.0303 9.86116e-17 39.2312)
(119.66 -6.17313 -3.07872e-16 115.516 1.23353e-18 117.681)
(116.319 -3.4856 -4.65073e-15 115.126 2.71482e-15 115.517)
(88.9314 -2.26352 -5.86912e-15 88.5366 2.27016e-16 88.4898)
(53.9124 -1.49903 1.12498e-14 53.6932 -3.11677e-15 53.6051)
(26.7973 -0.533382 6.36177e-15 26.6512 2.55794e-15 26.5705)
(9.7496 0.054954 2.37312e-16 9.69196 1.43233e-15 9.69905)
(2.01163 0.00636012 4.04409e-16 1.98843 -2.29565e-16 1.9971)
(0.170507 -0.015177 2.46367e-17 0.175361 -1.06777e-17 0.172695)
(0.0312736 -0.00750596 -7.77648e-18 0.0355842 -5.03227e-18 0.0337862)
(0.0234212 -0.00447455 2.81468e-19 0.0250232 -7.53675e-19 0.0241646)
(1.89678 0.200501 1.88976e-16 1.26342 -3.83283e-16 1.537)
(18.2389 -2.2657 3.94086e-14 18.0479 -1.2025e-14 18.4616)
(0.0039332 -0.00126407 -4.70799e-20 -0.000960719 -1.03796e-19 0.00166624)
(0.00869221 -0.000830727 -3.85574e-20 0.00302555 -6.38389e-21 0.00600919)
(0.0112665 -0.000245781 5.23082e-19 0.00383641 7.41673e-19 0.00769495)
(0.00957074 0.000571069 -3.12873e-19 0.00270583 -2.80815e-20 0.00621941)
(0.0058799 0.00109286 5.10694e-20 0.000898425 2.19585e-19 0.00342226)
(0.00278604 0.00143919 -4.65582e-20 -0.000810298 8.30635e-19 0.00099388)
(0.000696587 0.000798067 -1.83175e-20 -0.000467594 2.93105e-19 0.000116287)
(0.000931039 0.00179114 2.11602e-18 -0.000448973 1.31542e-18 0.000254998)
(0.00066481 0.00219493 4.67194e-19 0.00021989 -4.5236e-19 0.000454864)
(0.000312403 0.00224751 1.40197e-18 0.00102383 1.67255e-19 0.000682671)
(3.36081e-05 0.00219835 -1.60143e-18 0.00183151 -7.93822e-19 0.000966971)
(-0.000189805 0.00206756 -1.31822e-18 0.00259345 1.95038e-18 0.00127829)
(-0.000349466 0.00186711 2.23607e-18 0.00333219 -1.05908e-18 0.00163775)
(-0.00048239 0.00160202 1.83825e-18 0.00399702 -9.72337e-21 0.00201173)
(-0.000597716 0.00128621 -2.25483e-18 0.00455898 1.82052e-18 0.00237994)
(-0.000687218 0.000927145 -1.8311e-18 0.0050238 3.94344e-18 0.00276062)
(-0.000635947 0.00047064 5.6852e-18 0.00477865 -3.03816e-18 0.00280396)
(-0.000118415 7.40622e-05 5.11608e-18 0.00462338 -9.59757e-19 0.00307177)
(0.000118992 -7.30595e-05 6.57931e-19 0.00146588 -7.22744e-20 0.00107452)
(0.00100737 -0.000575559 -8.70082e-19 0.00540597 2.75696e-18 0.00431635)
(5.01155e-05 -2.75049e-05 4.2928e-19 0.000175005 2.50029e-20 0.000149994)
(0.00191253 -0.00101044 3.89112e-19 0.00504196 -1.79076e-18 0.00454549)
(0.0130251 -0.00593587 -1.64766e-19 0.0251485 -5.11217e-19 0.0242424)
(0.00403423 -0.00190425 -2.63299e-19 0.00627306 -1.31526e-18 0.00663774)
(0.000294121 -0.000139918 -6.10399e-21 0.000348732 5.10817e-20 0.00043362)
(0.00618093 -0.00255733 3.39003e-17 0.00550221 -1.99128e-18 0.00810688)
(0.0120147 -0.00398301 -4.57081e-19 0.00866457 3.08664e-20 0.0142981)
(0.011664 -0.00284933 -4.81329e-18 0.00761263 4.55053e-20 0.0128935)
(0.0100281 -0.00205685 -4.33695e-20 0.00629213 3.40741e-21 0.0105738)
(0.00734011 -0.00163963 -4.24726e-18 0.00427876 -1.45905e-19 0.00750631)
(0.00438903 -0.00115575 4.51228e-18 0.00245151 4.28476e-19 0.00436257)
(0.00220468 -0.000593081 -7.04939e-20 0.00135349 -1.41229e-21 0.00214188)
(0.00118239 -0.000340461 -2.90472e-18 0.000762648 2.97303e-19 0.00112734)
(0.000575773 -0.000179675 -2.34433e-21 0.000380683 1.32786e-19 0.000539348)
(0.000254021 -8.49806e-05 7.2917e-21 0.000171291 -6.76821e-20 0.000234223)
(0.000137357 -4.96413e-05 -1.54566e-20 8.88645e-05 3.4171e-20 0.000123568)
(0.0873579 -0.026707 1.13579e-17 0.062333 -3.02361e-18 0.0788748)
(0.136345 -0.0330399 6.82272e-16 0.0674567 1.67358e-16 0.114224)
(7.67692 2.11344 7.07231e-14 7.00062 1.53501e-14 7.51266)
(0.00865757 -0.00305198 -8.78865e-20 0.000938031 -1.46624e-19 0.00465293)
(0.0083218 -0.0036804 -1.78704e-19 0.00173465 -2.91729e-19 0.00486516)
(0.00779017 -0.00423005 3.55514e-19 0.00277991 4.96599e-19 0.00507085)
(0.00715073 -0.00466251 4.51524e-19 0.0038802 4.88637e-19 0.00525011)
(0.00641596 -0.00488971 5.53001e-20 0.00501479 -1.71551e-20 0.00538918)
(0.00561868 -0.00493602 -1.60648e-19 0.00617985 4.21907e-19 0.00549702)
(0.00482622 -0.00479601 3.91652e-18 0.00729423 3.8992e-18 0.00557206)
(0.0040951 -0.00448656 -3.85408e-18 0.00830975 -4.96291e-18 0.00561601)
(0.00367589 -0.00407659 1.04714e-18 0.00949955 2.73031e-19 0.00587498)
(0.00309417 -0.00352479 5.7336e-18 0.0102121 4.22974e-18 0.00580941)
(0.00239773 -0.00288738 4.88215e-18 0.010467 4.86054e-18 0.00544635)
(0.00208236 -0.00226333 5.72757e-18 0.0109399 1.72026e-18 0.00535278)
(0.00188184 -0.00164157 -6.99652e-18 0.0113008 -5.2518e-18 0.00524051)
(0.00176771 -0.0010321 -4.99705e-18 0.0115615 -4.83988e-18 0.00510932)
(0.00173963 -0.000453164 5.76781e-19 0.0117495 -1.81586e-18 0.00496266)
(0.00180251 0.000128265 -1.55612e-17 0.0119171 1.00541e-18 0.00483291)
(0.00158505 0.000810205 -5.11183e-18 0.0115667 -6.36149e-18 0.00434514)
(0.000145092 0.00156596 -3.33659e-17 0.00947848 -2.5633e-17 0.00248698)
(-0.000718381 0.00158443 2.58164e-18 0.00468133 -3.52738e-18 0.000509194)
(-7.76052e-05 0.000821806 4.66587e-19 0.0016184 -1.08991e-18 0.00027622)
(5.78382e-17 1.21461e-15 -5.85027e-30 1.58315e-15 3.226e-32 3.59012e-16)
(5.46108e-17 2.09283e-15 1.34069e-30 1.61344e-15 2.65695e-31 3.3195e-16)
(-3.68695e-15 3.18897e-14 -9.00755e-29 8.25819e-15 -1.73916e-29 -2.57124e-15)
(5.35727e-16 1.12871e-14 -1.03711e-29 1.57312e-15 1.14929e-29 -1.08845e-16)
(0.640287 0.281564 7.25053e-17 0.58856 4.71855e-18 0.598305)
(0.584973 1.77454e-06 2.2882e-21 0.584973 1.0529e-21 0.584973)
(6.31554e-05 6.71681e-13 -9.45674e-28 6.31554e-05 6.55801e-28 6.31554e-05)
(0.000353694 -4.98551e-11 1.00206e-26 0.000353694 7.16453e-28 0.000353694)
(0.000688012 -3.99675e-10 6.79754e-25 0.000688012 -1.11419e-25 0.000688012)
(0.00179962 -4.8552e-09 -6.63669e-25 0.00179962 3.20363e-24 0.00179962)
(0.0115844 -3.56927e-07 -7.19389e-22 0.0115843 -4.06e-22 0.0115844)
(0.245474 -0.000380029 1.49995e-18 0.245389 -1.29965e-18 0.245438)
(1.52346 -0.0850275 3.02394e-16 1.51336 -2.55649e-17 1.52099)
(1.42901 -0.00541015 -1.19823e-16 1.3954 -6.64047e-16 1.41229)
(0.592053 -0.0147497 -2.13113e-16 0.586321 -5.26613e-17 0.589151)
(0.142999 -0.0188308 7.28659e-18 0.152407 3.623e-17 0.149667)
(0.0201445 -0.00223547 -1.66618e-17 0.0179596 2.52188e-18 0.0188194)
(1.2648 0.0274101 -3.05254e-16 0.776176 -2.44555e-16 0.975894)
(15.8081 -2.04761 -2.43779e-14 11.3976 2.84445e-15 15.0821)
(0.0127247 -0.00267766 -5.1653e-20 0.00265198 -2.23139e-20 0.0075821)
(0.0115042 -0.00152741 1.58363e-19 0.00211727 7.78178e-19 0.00673203)
(0.00734409 -0.000464428 4.53226e-19 -0.00125445 8.95704e-19 0.00301957)
(0.00274733 0.000286112 3.27178e-19 -0.00215836 -1.65654e-19 0.000290748)
(0.00449845 0.00145917 -1.14149e-18 -0.0033404 -8.60903e-19 0.000587546)
(0.00358365 0.00215369 -1.80453e-19 -0.0025895 -1.22982e-18 0.000497391)
(0.0023633 0.00228126 -1.46309e-18 -0.00151106 -1.23288e-18 0.000427461)
(0.0016717 0.00256417 -1.97766e-18 -0.000793723 -3.22936e-21 0.000448522)
(0.000986625 0.00266871 -4.59877e-19 -6.03503e-05 -3.48065e-19 0.000479794)
(0.000354656 0.00255772 7.70114e-19 0.000633204 -5.09957e-19 0.000515169)
(-0.000141149 0.00228793 6.82171e-19 0.00120766 1.56438e-18 0.0005508)
(-0.00047975 0.0019543 1.65159e-18 0.00165051 -6.45599e-19 0.000589619)
(-0.000677733 0.00160352 -1.51029e-18 0.00197434 -1.38408e-18 0.000632495)
(-0.000744269 0.00124603 -1.73931e-19 0.00216147 5.61292e-19 0.000669496)
(-0.000710911 0.000931125 1.65969e-18 0.00224894 -3.93746e-19 0.000703181)
(-0.000616318 0.000675997 3.47644e-18 0.00228013 -3.27241e-19 0.000739096)
(-0.000477722 0.000467258 -2.38552e-18 0.00222805 -4.30309e-19 0.000758403)
(-3.99576e-05 3.75265e-05 -7.14495e-20 0.000259679 -1.02446e-19 9.34293e-05)
(-7.46999e-05 7.52976e-05 -1.03544e-19 0.000805669 5.98571e-20 0.000306807)
(-4.08634e-05 6.41977e-05 2.25475e-18 0.00126421 -7.88321e-19 0.000510489)
(3.44115e-05 1.72406e-05 3.97404e-19 0.00139934 -5.24694e-19 0.000596511)
(0.000141413 -4.7347e-05 -3.25688e-18 0.00176639 8.32871e-19 0.000794294)
(0.00021933 -0.000108326 -9.68563e-20 0.00156161 3.22276e-19 0.000744542)
(0.000283775 -0.000149896 -3.13418e-20 0.00132153 -1.69296e-19 0.000674047)
(0.000435894 -0.000208729 2.12366e-20 0.00144766 -1.79851e-21 0.000787246)
(0.000551032 -0.000223944 -2.32078e-18 0.00143491 -1.24123e-19 0.00081905)
(0.000632449 -0.000217479 -1.46776e-20 0.00138929 2.29375e-21 0.000823153)
(0.000692453 -0.000202006 4.83831e-19 0.00134225 -1.5274e-20 0.000820472)
(0.000767343 -0.000188732 -2.16303e-20 0.00135168 -3.17224e-22 0.000848994)
(0.000840051 -0.000172478 2.17073e-21 0.00137015 -7.66263e-20 0.000884063)
(0.000885824 -0.000154055 -1.463e-18 0.00134859 5.12398e-20 0.000898641)
(0.000884458 -0.000137336 -2.98026e-20 0.00126257 -1.80935e-21 0.000872923)
(0.000870836 -0.000132936 3.8069e-20 0.00116533 -1.19676e-19 0.000840395)
(0.000824455 -0.000142158 3.54454e-18 0.00102855 5.54078e-19 0.00077838)
(0.000959475 -0.000206596 8.31776e-21 0.00109681 6.28756e-22 0.000884045)
(0.000533033 -0.00016003 -3.41185e-18 0.000544373 -3.14894e-19 0.000470956)
(1.0318e-05 -3.84946e-06 2.34712e-19 8.95696e-06 3.3318e-20 8.73243e-06)
(0.0899811 -0.0320797 8.98997e-18 0.0638488 -4.20866e-17 0.0719388)
(7.07188 1.22192 1.69222e-15 3.22002 -9.40119e-15 4.70086)
(0.0132613 -0.00483158 -2.04347e-19 0.00119255 -2.73047e-19 0.00732356)
(0.0114041 -0.00572569 -3.86129e-19 0.00134188 -5.2159e-19 0.00651506)
(0.00996252 -0.00659607 1.32452e-18 0.00230531 1.67338e-18 0.00629386)
(0.00840417 -0.00725362 -5.69024e-18 0.00350513 -7.36486e-18 0.00616414)
(0.0067215 -0.00761565 1.44573e-18 0.00484203 2.0092e-18 0.00604807)
(0.00495995 -0.00770532 3.25028e-18 0.00632637 3.32107e-18 0.00597127)
(0.00321519 -0.00744722 -2.96424e-18 0.00786013 -4.54039e-18 0.00595441)
(0.00156057 -0.00684296 -1.83896e-18 0.00935092 2.79095e-19 0.00597965)
(5.61691e-05 -0.00590253 -1.31739e-17 0.0107341 -1.2168e-17 0.00604357)
(-0.0011877 -0.00466407 -2.20763e-18 0.011951 -5.2249e-18 0.00618898)
(-0.00215038 -0.00316743 3.98305e-19 0.0128959 -1.29645e-18 0.00636406)
(-0.00277139 -0.00147401 -8.4829e-18 0.0135181 -1.03452e-17 0.00657885)
(-0.00300908 0.000336558 4.41348e-18 0.0137768 5.10544e-18 0.00683329)
(-0.00284501 0.00217072 -1.93303e-17 0.0136687 -9.90265e-18 0.00712179)
(-0.00229025 0.00394227 4.37252e-18 0.0132191 2.43442e-18 0.00743868)
(-0.00137232 0.00557849 2.15957e-17 0.0124966 1.76136e-17 0.00778967)
(-0.000271654 0.00696983 -3.15172e-17 0.0116138 -8.82846e-18 0.00805676)
(0.00102361 0.00813752 -6.2482e-18 0.0107885 2.80846e-17 0.0083661)
(0.00221344 0.00912634 -2.35623e-18 0.00969473 -3.92358e-18 0.00841918)
(0.000776016 0.00774859 -2.41947e-17 0.00466057 -3.63123e-18 0.00460056)
(0.000576014 0.002004 6.84585e-18 0.00100039 4.14598e-18 0.00122484)
(0.000449179 0.000955734 1.11656e-19 0.000385499 -1.71259e-19 0.000603496)
(8.17201e-16 1.31059e-15 3.90136e-30 3.64693e-16 1.07226e-30 8.18106e-16)
(1.06044e-15 1.626e-15 3.82308e-30 1.10291e-16 1.23547e-30 8.29271e-16)
(3.88054e-15 1.0387e-14 -2.72642e-30 -3.2572e-15 -2.45742e-31 1.37666e-15)
(6.66668e-16 3.96596e-21 1.09685e-37 6.66665e-16 -3.8128e-37 6.66667e-16)
(1.35205e-05 1.67184e-16 5.72555e-32 1.35205e-05 -1.46559e-32 1.35205e-05)
(7.6856e-05 1.38679e-15 -3.38187e-31 7.6856e-05 -4.96351e-31 7.6856e-05)
(0.00015158 2.28231e-15 -2.65383e-29 0.00015158 -5.79874e-31 0.00015158)
(0.000401582 -3.25987e-14 2.26435e-29 0.000401582 1.28361e-30 0.000401582)
(0.00261574 -2.48961e-12 -1.23782e-27 0.00261574 4.67355e-28 0.00261574)
(0.056034 -8.15374e-10 -4.40858e-24 0.056034 -3.21399e-24 0.056034)
(0.000344506 -1.73088e-07 -6.79812e-23 0.000344481 -2.48262e-22 0.000344496)
(8.59809e-06 -5.86962e-12 -8.43683e-26 8.59809e-06 6.32122e-27 8.59809e-06)
(0.184501 -0.014963 2.75447e-17 0.179677 8.89543e-17 0.182711)
(0.207519 -0.0234342 8.74239e-21 0.207992 -2.24078e-21 0.215134)
(0.0218309 8.74975e-05 9.43719e-19 0.0152901 2.00954e-18 0.0184852)
(1.08219 -0.0505536 -3.19675e-17 0.664007 1.59458e-16 0.822897)
(14.2637 -0.41635 3.29056e-14 5.87573 8.091e-14 13.0083)
(0.0108497 -0.00358566 3.73397e-19 -0.00238286 1.69764e-19 0.00433422)
(0.00485466 -0.00141873 -6.36338e-19 -0.00357003 -9.23021e-19 0.000674555)
(0.00432145 -0.000475983 -3.59457e-19 -0.00320079 5.64505e-19 0.000588765)
(0.00443972 0.000341541 1.57581e-18 -0.00326878 8.50847e-19 0.000600762)
(0.00730136 0.00206086 -9.07226e-19 -0.0052232 -4.89278e-18 0.00105459)
(0.00925148 0.00398565 -2.18458e-18 -0.00349016 2.09305e-18 0.0028705)
(0.00837013 0.00549457 5.77684e-18 -0.0021665 4.40481e-18 0.00309244)
(0.00684231 0.00671223 -2.29132e-18 -0.000781156 -5.16877e-18 0.00303795)
(0.00505732 0.00755611 -5.40106e-18 0.000865971 -2.15847e-18 0.00297876)
(0.00314434 0.00797215 -4.57059e-18 0.00263712 1.82857e-18 0.00291429)
(0.00126302 0.00797878 6.19241e-18 0.00436645 -8.5734e-20 0.00284165)
(-0.000442798 0.00765277 -4.54123e-18 0.00598225 -3.21289e-18 0.00280237)
(-0.00144318 0.00629528 -5.2887e-18 0.00688483 3.90856e-18 0.00276602)
(-0.00163215 0.00454106 4.85417e-18 0.00690069 1.7433e-18 0.00269771)
(-0.00146857 0.00314491 -7.32132e-18 0.00656788 1.3947e-18 0.00263376)
(-0.0011312 0.00210237 -1.31441e-18 0.0060936 -4.29459e-18 0.00258794)
(-0.00076869 0.00141675 1.71576e-18 0.00587061 2.19289e-18 0.00268682)
(-0.000340631 0.000822311 -7.03063e-18 0.00519165 5.1298e-19 0.00257914)
(2.43431e-05 0.000394842 2.44708e-18 0.00438517 -1.10457e-19 0.00236402)
(0.000311943 0.000126564 -9.28612e-18 0.00403653 8.5869e-19 0.0023484)
(0.00054569 -8.01334e-05 -9.65013e-19 0.00369514 2.68946e-19 0.00230274)
(0.000739562 -0.000247115 6.84519e-18 0.00337574 2.47857e-19 0.00224429)
(0.000912276 -0.000388306 6.12665e-18 0.00308045 -1.2284e-18 0.0021803)
(0.00109223 -0.000500516 -5.06308e-18 0.00278366 4.01785e-19 0.00212088)
(0.00128231 -0.000558113 -6.13086e-20 0.00248936 2.55758e-20 0.00207149)
(0.00144919 -0.000556908 -4.47618e-18 0.0022257 7.83622e-19 0.00202404)
(0.00157971 -0.000523906 -4.27986e-20 0.00199905 1.30271e-21 0.00198335)
(0.00167768 -0.000476942 2.19285e-22 0.00180508 1.14755e-20 0.00194828)
(0.00174965 -0.000422947 8.0072e-21 0.00163875 -9.86977e-22 0.00191655)
(0.00179523 -0.000364978 1.45395e-18 0.00149446 7.93221e-20 0.00188153)
(0.00179745 -0.000304831 2.66866e-22 0.00136863 -1.62486e-19 0.0018226)
(0.00177475 -0.000249066 -6.10746e-20 0.00127123 -9.19999e-21 0.00175615)
(0.00174773 -0.000199658 -8.07218e-18 0.0012043 -1.04262e-18 0.00169788)
(0.00175177 -0.000160778 -7.31408e-18 0.00118209 -5.38304e-19 0.00167748)
(0.00153448 -0.000113189 1.20667e-20 0.00102636 7.38846e-21 0.0014515)
(0.00212409 -0.000141361 -1.47063e-17 0.00139859 -2.79671e-18 0.00197294)
(4.10068e-05 -2.69336e-06 8.76885e-22 2.61575e-05 -9.73816e-21 3.71965e-05)
(0.0785376 -0.00784263 1.04093e-18 0.0371838 3.08198e-19 0.0644194)
(5.40477 0.775203 -1.06372e-13 2.23616 -1.54581e-14 3.74799)
(0.0103925 -0.00683554 7.395e-19 -0.00655523 7.85254e-19 0.00186198)
(0.00971889 -0.0084109 -5.61043e-19 -0.00521709 -5.70297e-19 0.00219917)
(0.00725927 -0.00898593 -1.01036e-20 -0.00352085 -5.25425e-20 0.00178584)
(0.00479663 -0.00859774 -1.7865e-19 -0.00148582 1.34336e-19 0.00156522)
(0.00275194 -0.00789459 5.09127e-18 0.000201245 5.22195e-18 0.00137908)
(0.00108438 -0.00705327 -2.9173e-18 0.00159784 -3.51694e-18 0.001225)
(-0.000218288 -0.0062161 -1.75183e-19 0.00272678 7.25498e-19 0.00112271)
(-0.00122741 -0.00534753 8.64651e-18 0.00363105 8.07191e-18 0.00104961)
(-0.00200004 -0.00446961 -1.78903e-18 0.00436295 1.70646e-19 0.000999237)
(-0.00257399 -0.0036152 -9.3464e-18 0.0049588 -6.18916e-18 0.000975424)
(-0.0029862 -0.0027846 2.95011e-18 0.00546007 2.41758e-18 0.000973896)
(-0.00326392 -0.00197171 -8.1162e-18 0.00589879 -2.63069e-18 0.000994522)
(-0.00341102 -0.0011684 -3.22142e-18 0.00627807 -1.21873e-18 0.00103591)
(-0.00342635 -0.000370947 -5.83689e-18 0.00660475 3.1254e-18 0.00109614)
(-0.00331424 0.000421164 5.42747e-19 0.00690021 3.00648e-19 0.00118014)
(-0.00307695 0.00120997 5.34376e-18 0.00719778 1.18283e-18 0.00129769)
(-0.00262063 0.00196715 8.33532e-18 0.00732995 1.19186e-17 0.00143742)
(-0.00200892 0.00279542 3.56729e-17 0.00754591 9.5965e-18 0.00170241)
(-0.00119038 0.00386619 -1.73268e-17 0.00807986 -7.10542e-19 0.00219754)
(6.2933e-05 0.0047736 1.8351e-17 0.00803652 7.9742e-18 0.00273324)
(0.00152271 0.00509296 2.84725e-18 0.00708138 -8.41598e-18 0.00310463)
(0.00184068 0.00315155 -1.86708e-18 0.00371266 3.38449e-18 0.00213953)
(0.000586121 0.000648084 -2.43251e-18 0.00066369 -1.37453e-18 0.000509704)
(0.000422901 0.000328661 5.39551e-20 0.000308686 -6.68329e-20 0.000309179)
(9.2931e-16 5.81297e-16 2.11197e-31 4.7093e-16 -4.51338e-32 5.9976e-16)
(6.66668e-16 1.88161e-21 4.6492e-36 6.66666e-16 -1.37026e-36 6.66666e-16)
(6.66667e-16 8.62517e-27 -7.68018e-42 6.66667e-16 -2.68083e-42 6.66667e-16)
(6.66667e-16 8.87086e-27 -7.43651e-42 6.66667e-16 -3.77045e-43 6.66667e-16)
(6.66667e-16 1.40124e-26 6.69467e-41 6.66667e-16 2.79804e-41 6.66667e-16)
(6.66667e-16 2.7412e-26 -2.38161e-41 6.66667e-16 -9.8974e-41 6.66667e-16)
(6.66667e-16 4.85201e-26 -8.45416e-40 6.66667e-16 3.17654e-40 6.66667e-16)