/*--------------------------------*- C++ -*----------------------------------*\
| =========                 |                                                 |
| \\      /  F ield         | OpenFOAM: The Open Source CFD Toolbox           |
|  \\    /   O peration     | Version:  2312                                  |
|   \\  /    A nd           | Website:  www.openfoam.com                      |
|    \\/     M anipulation  |                                                 |
\*---------------------------------------------------------------------------*/
FoamFile
{
    version     2.0;
    format      ascii;
    arch        "LSB;label=32;scalar=64";
    class       volScalarField;
    location    "200";
    object      turbulenceProperties:nut;
}
// * * * * * * * * * * * * * * * * * * * * * * * * * * * * * * * * * * * * * //

dimensions      [0 2 -1 0 0 0 0];

internalField   nonuniform List<scalar> 
10720
(
6.94865e-05
0.000108816
0.000143453
0.000149542
0.000134751
0.000120309
0.000114153
0.000116653
0.000128823
0.000151483
0.000187708
0.000246525
0.000345236
0.000502954
0.000819205
0.00155205
0.00287672
0.00587859
0.0113181
0.0180253
0.0267859
0.043829
0.0855596
0.186522
0.376418
0.556097
1.21176
2.1027
1.45457
0.516635
0.150582
0.0154841
0.00340217
0.000473777
1.50244e-18
1.93947e-18
7.30248e-05
0.00675856
0.461496
8.20898e-05
9.26647e-05
7.84167e-05
0.00015775
4.76643e-05
0.000104583
0.00014949
0.000182055
0.000192266
0.000184317
0.000182541
0.00019525
0.000223712
0.000285471
0.000382744
0.000618804
0.000972693
0.00286009
0.0031924
0.00374657
0.00501336
0.00706441
0.00892265
0.0119307
0.0156983
0.0197837
0.0165276
0.00903179
0.00344279
0.000894303
0.000110971
6.69764e-06
2.04034e-06
8.52999e-07
2.2239e-18
0.000290038
0.0183448
0.00576661
0.337129
0.000326863
0.000348763
0.000327032
0.00021041
0.000127207
8.129e-05
6.20016e-05
5.49633e-05
5.39523e-05
5.61556e-05
6.04662e-05
6.5581e-05
8.05875e-05
0.000128889
0.000257561
0.000661135
0.00161416
0.00372809
0.00812061
0.0151787
0.0245057
0.0357376
0.0597735
0.0842247
0.321249
0.395946
1.14308
1.35277
1.18191
1.63345
1.00159
0.250481
0.0654773
0.00878074
0.000140949
4.48695e-18
0.000249362
0.0313832
0.670978
6.41507e-05
3.06718e-05
2.8084e-05
8.3942e-05
8.34667e-05
8.53067e-05
5.864e-05
6.25929e-05
7.29803e-05
8.58657e-05
0.000100118
0.000114119
0.000126858
0.000139134
0.0001341
0.00133371
0.00223751
0.00627779
0.010838
0.000398344
0.00498252
0.00195542
0.0111587
0.000130655
0.000169914
0.000207543
0.00045297
0.000456121
0.000368245
0.000284926
0.000155903
7.31868e-05
3.53836e-05
1.35936e-05
2.80801e-07
6.17736e-05
0.00415952
0.00414278
0.270038
6.88372e-05
7.04467e-06
8.01219e-05
8.07829e-05
8.31233e-05
8.7313e-05
9.36068e-05
0.000101152
0.000109606
0.000118117
0.000126441
0.000134734
0.000142162
0.000147324
0.000154128
0.000191883
0.000307819
0.000721879
0.00189309
0.00459739
0.00995434
0.0198093
0.046345
0.104566
0.162994
0.131014
0.629095
0.726851
0.485641
0.409949
0.389501
0.266729
0.0721874
0.0112005
0.000880199
0.000192538
0.000205258
0.0237359
0.731271
9.72192e-05
0.00010405
0.000131386
0.0001248
0.000100913
9.09566e-05
4.25789e-05
9.14148e-05
0.000117138
0.000138658
0.000171304
0.000217456
0.00028112
0.000367918
0.000483208
0.000633487
0.000724937
0.000771269
0.000263544
0.00103256
3.49598e-05
0.00103486
0.00503243
0.00140399
9.72217e-05
0.00183323
0.0030765
0.00248474
0.00184217
0.00131573
0.000757382
0.000308537
0.000142974
6.30733e-05
2.65241e-05
1.43469e-05
0.0110766
0.0143169
0.907559
0.000207113
0.000207383
0.000207481
0.000210368
0.000214088
0.000220177
0.000228425
0.000239312
0.000255649
0.000272889
0.000291548
0.000318402
0.000351738
0.000393991
0.000447484
0.000519208
0.000609963
0.000698554
0.000504433
0.000200024
2.31793e-16
3.27381e-16
4.4184e-15
1.53505e-15
0.0443345
3.77041e-07
1.83854e-12
1.5883e-11
7.82337e-11
7.67113e-10
5.44139e-08
6.12665e-05
0.0166813
0.0177776
0.00665535
0.00191512
0.00032552
0.0226769
0.952707
0.000242639
0.000213429
0.00019182
0.000113152
0.00020015
0.00019121
0.000163544
0.000168858
0.000178147
0.000189364
0.000202374
0.000218465
0.000237047
0.00025344
0.000268598
0.000283662
0.00029117
3.56596e-05
0.000115672
0.000188743
0.000216326
0.000282286
0.000258797
0.000228984
0.000262564
0.000269178
0.000266396
0.000260728
0.000264155
0.000268913
0.000267584
0.000254134
0.000238452
0.000215016
0.000236855
0.00012368
2.37575e-06
0.0132669
3.8561
0.000431296
0.000426167
0.000429852
0.000437807
0.000448796
0.000466738
0.000489518
0.000518241
0.000553833
0.000596296
0.000645515
0.000701217
0.000762465
0.000827858
0.000896385
0.000965834
0.0010412
0.00113253
0.00125017
0.00108687
0.000296024
0.000150974
2.24314e-16
3.05776e-16
2.16654e-15
8.7911e-22
4.23717e-17
5.5873e-16
3.06478e-15
2.81762e-14
8.20699e-13
1.78237e-10
2.8936e-08
1.21622e-12
0.00539209
0.0064012
0.000458683
0.0231808
0.565293
0.000421125
0.000250566
0.000216872
0.000226737
0.000400465
0.000480419
0.000517701
0.000563867
0.00062407
0.000703608
0.000806858
0.000938171
0.000981217
0.00094015
0.000899881
0.000865157
0.000877446
0.000821465
0.000733465
0.000711942
0.000685145
0.000657141
0.00063025
0.000605638
0.000584321
0.000564176
0.000545759
0.000529615
0.000516103
0.000502902
0.000486055
0.000470229
0.000459097
0.000461351
0.000408039
0.000571333
1.12096e-05
0.0201683
2.95026
0.000744104
0.00076565
0.000713635
0.000625775
0.000552074
0.00049506
0.000457922
0.000433326
0.000419548
0.000416649
0.000424402
0.000443049
0.000471927
0.000511262
0.000563003
0.000630957
0.000704253
0.000814779
0.00100256
0.00116838
0.00123082
0.000786255
0.000176122
0.000105158
2.30907e-16
9.27663e-22
4.60516e-27
4.73889e-27
7.99241e-27
1.92802e-26
5.97438e-26
2.40295e-25
1.4141e-13
1.37195e-14
1.38628e-15
1.46802e-13
2.86468e-11
5.46453e-09
1.09504e-06
0.000283317
0.000182595
0.00038934
0.000853471
0.000894687
0.000946171
0.00100792
0.00108663
0.00118991
0.00132427
0.00149599
0.00171092
0.00181096
0.00178599
0.00176208
0.00175193
0.00173878
0.00172568
0.0016998
0.00167281
0.00164427
0.00161302
0.00157878
0.00154228
0.00150306
0.00146202
0.00142295
0.00138556
0.00135124
0.00132292
0.0012973
0.00125611
0.00119903
0.00114429
0.00101176
0.00101201
2.01977e-05
0.0133061
1.3559
0.000141058
0.000158354
0.000158595
0.000154187
0.000157729
0.000164047
0.000168259
0.000174063
0.00018037
0.000187021
0.000195423
0.000205029
0.000215852
0.000228471
0.000243072
0.000260399
0.000277925
0.000304871
5.13892e-05
0.000227411
0.000440108
0.00063349
0.000691516
0.000531445
0.000215447
1.73386e-12
1.04311e-26
6.33211e-27
7.27078e-27
1.27979e-26
3.00484e-26
8.44287e-26
2.36758e-25
5.98144e-25
2.79435e-17
1.17398e-15
1.4072e-23
9.22414e-12
1.31068e-09
0.000286519
0.000951068
0.00148391
0.00153769
0.00120931
0.000939729
0.000956523
0.000980048
0.001007
0.00103906
0.00107335
0.00110586
0.00115012
0.00120242
0.00125446
0.00130779
0.00133537
0.00133738
0.00132634
0.00130928
0.00128797
0.00126333
0.001236
0.00120672
0.00117514
0.00114317
0.00111394
0.00108656
0.0010621
0.00104145
0.00102683
0.00101982
0.00101315
0.00100495
0.000975681
0.00108353
2.29725e-05
0.00797036
0.522206
0.000516049
0.00050292
0.00057443
0.000639079
0.000708151
0.000778905
0.000835621
0.000878704
0.000912295
0.000938821
0.000959264
0.000973927
0.000983028
0.000987824
0.0009891
0.000986476
0.000975288
0.000954128
0.000956462
0.000851435
0.000722603
0.000742503
0.000816292
0.000826582
0.000963104
1.83923e-11
7.41702e-18
9.77089e-27
8.1126e-27
1.07954e-26
1.99544e-26
4.41048e-26
9.56961e-26
1.74682e-25
2.71531e-25
5.6331e-25
1.52366e-24
3.46346e-24
1.32659e-23
0.00140756
0.00164708
0.00108521
0.000430011
5.30479e-05
0.000138029
0.000137039
0.000141804
6.5761e-06
4.0715e-05
6.72731e-05
9.69422e-05
0.000130517
0.000169898
0.000220466
0.00027457
0.000307854
0.00032301
0.000328972
0.000329412
0.000325884
0.000319608
0.000311506
0.00030258
0.000293819
0.000285703
0.000278627
0.000272728
0.000268465
0.000265285
0.000263876
0.00027444
0.000300716
0.000343981
0.000386655
0.000609202
2.76291e-05
0.00296809
0.166341
0.00152042
0.00134271
0.00134648
0.00134165
0.00134403
0.00135547
0.00135822
0.00135129
0.00134744
0.0013485
0.00135182
0.0013549
0.00135743
0.00136401
0.00137207
0.00137632
0.00136707
0.00138127
0.0013992
0.00132772
0.0012159
0.00112485
0.00107403
0.000972319
0.00122629
1.13985e-10
5.08569e-17
1.65977e-26
1.03497e-26
1.06951e-26
1.58869e-26
2.88668e-26
5.29047e-26
8.60618e-26
1.24188e-25
2.1091e-25
4.55045e-25
9.14023e-25
2.55583e-24
0.00140464
0.000594189
0.000219809
8.32272e-05
5.68335e-05
5.14917e-05
5.00252e-05
5.34481e-05
5.60864e-05
5.62959e-05
5.99218e-05
6.53448e-05
7.07975e-05
7.68572e-05
8.4812e-05
9.39454e-05
0.000100196
0.000104086
0.000106813
0.000108814
0.00011017
0.000110996
0.000111289
0.000111115
0.000110683
0.000110181
0.000109765
0.000109491
0.000109493
0.000109626
0.000109982
0.000112286
0.000116511
0.000128365
0.000132788
1.33615e-06
6.50692e-05
0.000259751
0.0134012
0.00092726
0.000856863
0.000761219
0.00068752
0.000612189
0.000571338
0.000554471
0.000533613
0.000525219
0.000530254
0.000539369
0.000550692
0.000563763
0.000591721
0.000630633
0.000665089
0.000703095
0.000756298
0.000839872
0.000933846
0.000997961
0.00101861
0.00103226
0.000961149
0.00118308
5.43615e-10
2.64346e-16
3.02388e-26
1.45985e-26
1.19865e-26
1.45244e-26
2.21464e-26
3.5428e-26
5.29372e-26
7.27267e-26
1.09651e-25
2.0571e-25
3.73041e-25
7.49703e-25
0.000260564
0.000115984
0.000107667
0.000196056
0.000370119
0.00037275
0.000356901
0.000382974
0.000396309
0.000361068
0.000360073
0.000366822
0.000365202
0.000358873
0.000349502
0.000339423
0.000329363
0.00032044
0.000312695
0.000305926
0.000299782
0.00029401
0.000288052
0.000282086
0.000276603
0.000271409
0.000266545
0.000261953
0.000257735
0.000253693
0.00024945
0.000241776
0.000225896
0.000227658
0.000193867
0.00011021
0.000175868
2.16058e-05
0.00327441
1.9769e-05
5.69099e-05
0.000112582
9.78039e-05
9.32885e-05
9.68253e-05
0.00010192
0.00010413
0.000107577
0.000111885
0.000116971
0.000122111
0.00012729
0.000138346
0.000145881
0.000149392
0.000159211
0.000173453
1.74748e-05
0.000149893
0.000301247
0.000437523
0.000570272
0.000612509
0.000908629
2.24621e-09
1.18033e-15
5.83072e-26
2.23658e-26
1.48698e-26
1.4898e-26
1.92981e-26
2.73302e-26
3.78971e-26
5.01871e-26
7.05154e-26
1.20196e-25
2.00939e-25
3.27603e-25
8.8871e-05
7.9054e-05
0.000655845
0.000887569
0.000953082
0.000974402
0.000963634
0.000972384
0.000986028
0.00095174
0.000950153
0.000965859
0.000955929
0.000942411
0.000925912
0.000908295
0.000892543
0.000878049
0.000864283
0.000850777
0.000837122
0.000822438
0.000806514
0.000790402
0.000774934
0.000760136
0.000746226
0.000732947
0.000720612
0.000708734
0.000697706
0.000686849
0.00066542
0.000634001
0.000587131
0.000531016
0.000484482
8.22152e-05
1.72424e-06
0.000130161
9.24896e-05
1.71578e-05
5.14821e-05
7.92925e-05
0.000132397
0.000188643
0.000217663
0.000241757
0.000259979
0.000273294
0.000282676
0.000288212
0.000314454
0.000301584
0.000263875
0.000262401
0.000260959
0.000255743
0.000244778
0.000262995
0.000316449
0.00040269
0.000429277
0.000709584
1.02514e-08
5.77673e-15
1.18085e-25
3.67365e-26
2.01169e-26
1.68873e-26
1.87708e-26
2.37067e-26
3.06003e-26
3.86159e-26
5.17683e-26
8.19109e-26
1.27681e-25
1.82089e-25
0.000377265
0.000865167
0.000942137
0.000708483
0.000648449
0.000624422
0.000621292
0.000605428
0.000607049
0.000624658
0.000623374
0.000626904
0.000624903
0.000620234
0.000614358
0.000608624
0.000602742
0.000596469
0.00058958
0.000581867
0.000573068
0.000563119
0.000552443
0.000541876
0.000531915
0.000522484
0.000513593
0.000505151
0.000497487
0.000490225
0.000483867
0.000481055
0.00048454
0.00048792
0.000487164
0.000482253
0.000493326
0.000429308
3.77756e-05
0.000656635
0.000674874
0.000745266
0.000818443
0.000884162
0.000927519
0.000962832
0.000991512
0.00101424
0.00103002
0.00103932
0.00104383
0.00104483
0.00104215
0.00104029
0.00103511
0.00105726
0.00104199
0.000991762
0.000935876
0.000849748
0.000767311
0.000718384
0.000635184
0.000783469
6.49355e-08
3.89553e-14
2.50047e-25
6.41446e-26
2.93642e-26
2.09178e-26
2.01458e-26
2.2811e-26
2.74151e-26
3.31706e-26
4.22716e-26
6.19786e-26
9.0022e-26
1.17688e-25
0.000952559
0.000795966
0.000319034
8.84751e-05
4.85442e-05
2.77718e-05
2.69144e-05
2.97248e-05
3.48873e-05
4.16961e-05
4.46409e-05
4.73281e-05
5.01369e-05
5.305e-05
5.58385e-05
5.83739e-05
6.04722e-05
6.20461e-05
6.30048e-05
6.3323e-05
6.29985e-05
6.217e-05
6.10065e-05
5.9858e-05
5.89692e-05
5.82614e-05
5.77519e-05
5.74734e-05
5.75303e-05
5.77931e-05
5.80407e-05
5.9093e-05
7.28936e-05
9.81684e-05
0.000131835
0.000181794
0.000236306
0.000322866
0.000132852
0.000875734
0.000773616
0.000750137
0.00074903
0.000744891
0.000742041
0.000740957
0.000742727
0.000749656
0.000757629
0.000764403
0.000772472
0.000783583
0.000797777
0.000814354
0.000833364
0.000855378
0.000878126
0.000901987
0.000926166
0.000942277
0.000932084
0.000886819
0.000790514
0.000868781
3.93648e-07
2.3229e-18
1.15393e-20
1.18396e-25
4.58873e-26
2.80645e-26
2.36406e-26
2.41163e-26
2.69868e-26
3.13164e-26
3.79193e-26
5.13453e-26
8.14225e-26
1.0216e-25
0.00056974
0.000101374
5.77292e-05
3.46745e-05
3.28913e-05
3.46825e-05
3.58413e-05
3.59267e-05
3.59869e-05
3.6316e-05
3.572e-05
3.51688e-05
3.5026e-05
3.50541e-05
3.53302e-05
3.58914e-05
3.65745e-05
3.73783e-05
3.82369e-05
3.90988e-05
3.99312e-05
4.07331e-05
4.14988e-05
4.22005e-05
4.27874e-05
4.32897e-05
4.37745e-05
4.42449e-05
4.47379e-05
4.52252e-05
4.56311e-05
4.60538e-05
4.81548e-05
5.1503e-05
5.81165e-05
6.37441e-05
7.04874e-05
9.52318e-05
0.000113015
0.000282952
0.00027378
0.000209128
0.000172183
0.000143048
0.000120653
0.000105222
9.72589e-05
9.91661e-05
0.000104745
0.000110342
0.000120293
0.00013654
0.000156873
0.000180512
0.000207428
0.000238482
0.000269241
0.000299619
0.000359904
0.000457572
0.000546347
0.000615897
0.000634305
0.000742182
1.77623e-06
7.06921e-17
3.02939e-19
2.30152e-25
7.63363e-26
4.04973e-26
3.00993e-26
2.77976e-26
2.89785e-26
3.21535e-26
3.71538e-26
5.92935e-26
6.92555e-25
1.20224e-23
0.000108756
3.2219e-05
7.86113e-05
0.000159019
0.000182484
0.000209985
0.000216748
0.000217747
0.000216313
0.000214177
0.000211641
0.000208868
0.000206209
0.000203702
0.000201285
0.000199002
0.000196842
0.000194791
0.000192844
0.000190964
0.00018914
0.00018737
0.000185652
0.000184028
0.000182481
0.000180865
0.000179161
0.000177357
0.000175519
0.000173644
0.000171607
0.000168961
0.00016022
0.000144374
0.00013485
0.000101187
5.55721e-05
7.33211e-05
0.000114166
4.13276e-05
4.63741e-05
4.77477e-05
4.6534e-05
4.76956e-05
4.90425e-05
4.88524e-05
4.95367e-05
5.11258e-05
5.26434e-05
5.43017e-05
5.64829e-05
5.96629e-05
6.37149e-05
6.83901e-05
7.38442e-05
8.029e-05
8.70168e-05
9.38455e-05
0.000108894
0.000125504
3.06516e-05
0.000143563
0.000239856
0.000377394
4.84396e-06
7.17213e-16
2.67792e-18
4.70132e-25
1.34651e-25
6.25056e-26
4.1308e-26
3.47032e-26
3.3736e-26
3.57046e-26
4.01242e-26
4.59471e-24
7.77427e-19
3.97416e-17
6.38214e-05
0.000151336
0.000446997
0.000559707
0.000564274
0.000575332
0.000578167
0.000576272
0.000573003
0.0005696
0.000566415
0.00056336
0.000560514
0.000557776
0.000554946
0.000551981
0.000548805
0.000545335
0.000541536
0.00053737
0.000532875
0.000528089
0.000523036
0.000517855
0.000512661
0.000507284
0.000501727
0.000495988
0.000490261
0.000484676
0.000478842
0.000473317
0.000463774
0.000444826
0.000415733
0.000371982
0.000323682
0.000250498
0.000199043
2.94261e-05
7.19878e-05
0.00012664
0.000168802
0.000203195
0.000230708
0.000249451
0.000261985
0.000270704
0.000276858
0.000280672
0.00028277
0.000283941
0.000284207
0.000283508
0.000282424
0.000281463
0.00028062
0.000278956
0.000294776
0.000258515
0.000201358
0.000198697
0.000221035
0.000266952
1.36981e-05
7.43222e-15
2.43725e-17
1.00787e-24
2.51168e-25
1.02763e-25
6.07801e-26
4.66428e-26
4.23413e-26
4.26943e-26
1.11313e-25
2.0544e-19
4.331e-17
1.67685e-16
0.000366542
0.000556914
0.000545369
0.00041646
0.000398122
0.000390299
0.000386929
0.000383666
0.000381106
0.000379263
0.000378321
0.000377982
0.000377904
0.000377936
0.000377924
0.000377698
0.000377214
0.000376398
0.0003752
0.000373571
0.000371518
0.000369078
0.000366239
0.000363136
0.000359948
0.000356646
0.000353223
0.000349684
0.000346184
0.000342814
0.000339455
0.000337406
0.000339331
0.000343756
0.000346175
0.000345127
0.000335925
0.00029927
0.000246078
0.000536975
0.000546518
0.000589793
0.000628902
0.000655404
0.000673618
0.000684703
0.000690623
0.000693918
0.000695706
0.000696608
0.000697084
0.000697231
0.000696958
0.000696069
0.000695097
0.000694441
0.00069344
0.000691544
0.000688383
0.000663253
0.000632712
0.000553318
0.000462823
0.000407738
4.95896e-05
9.04608e-14
2.62288e-16
2.26631e-24
4.94599e-25
1.79409e-25
9.54712e-26
6.71444e-26
5.6979e-26
5.46994e-26
9.33658e-26
2.88765e-20
3.51371e-17
2.70547e-17
0.000608612
0.000419114
0.000144363
5.7681e-05
4.59851e-05
3.65358e-05
3.3088e-05
3.15099e-05
3.05796e-05
3.02404e-05
3.03627e-05
3.08488e-05
3.15683e-05
3.24413e-05
3.34015e-05
3.44069e-05
3.54089e-05
3.63901e-05
3.73087e-05
3.81442e-05
3.88705e-05
3.94953e-05
4.00242e-05
4.05162e-05
4.10154e-05
4.14939e-05
4.19494e-05
4.23812e-05
4.28378e-05
4.32869e-05
4.36418e-05
4.39201e-05
4.84898e-05
6.44696e-05
8.90563e-05
0.000125749
0.000168467
0.000197954
0.000195963
0.000521187
0.000477531
0.000464136
0.00046061
0.000451085
0.000440769
0.000432809
0.000427086
0.000424366
0.000424408
0.000426241
0.000429464
0.000433719
0.000438752
0.000444317
0.000450726
0.000458282
0.000466661
0.000475736
0.000490318
0.000516046
0.000535517
0.000537082
0.000523946
0.000470947
0.000139839
9.2693e-13
2.3897e-15
5.34426e-24
1.02691e-24
3.31828e-25
1.59532e-25
1.03066e-25
8.17944e-26
7.46345e-26
1.00829e-25
6.47719e-21
1.95581e-19
1.03739e-16
0.000253378
1.86951e-05
2.37682e-05
1.20231e-05
1.15648e-05
1.18552e-05
1.26204e-05
1.27212e-05
1.24989e-05
1.22516e-05
1.18643e-05
1.15147e-05
1.13243e-05
1.1198e-05
1.11787e-05
1.12995e-05
1.15051e-05
1.18066e-05
1.21874e-05
1.26344e-05
1.31236e-05
1.36528e-05
1.42165e-05
1.4772e-05
1.52582e-05
1.56957e-05
1.61202e-05
1.65334e-05
1.69426e-05
1.73404e-05
1.77086e-05
1.80095e-05
1.90608e-05
2.1564e-05
2.67544e-05
3.1658e-05
4.03168e-05
5.59691e-05
0.000103788
0.000100252
0.000110177
7.32431e-05
5.23876e-05
3.58537e-05
2.22657e-05
1.24975e-05
6.75913e-06
4.54942e-06
5.10773e-06
7.41326e-06
1.08417e-05
1.51083e-05
2.02878e-05
2.63591e-05
3.32569e-05
4.12139e-05
5.04022e-05
6.05545e-05
7.30975e-05
0.00010226
0.000156087
0.000224469
0.00028899
0.0003119
0.000226341
7.55814e-12
1.74063e-14
1.32141e-23
2.24605e-24
6.48931e-25
2.82744e-25
1.68045e-25
1.24678e-25
1.07903e-25
1.22507e-25
1.90099e-21
2.2317e-15
1.68848e-16
4.59579e-05
1.49082e-05
3.8686e-05
2.31686e-05
3.06091e-05
4.03292e-05
4.84782e-05
5.22522e-05
5.33581e-05
5.33988e-05
5.29353e-05
5.22197e-05
5.15259e-05
5.0882e-05
5.02505e-05
4.96989e-05
4.92256e-05
4.88143e-05
4.84688e-05
4.81916e-05
4.79713e-05
4.77976e-05
4.76871e-05
4.76468e-05
4.76223e-05
4.75398e-05
4.74074e-05
4.72513e-05
4.70734e-05
4.68807e-05
4.66708e-05
4.62409e-05
4.49776e-05
3.82884e-05
3.52281e-05
1.64969e-05
3.73538e-05
1.61121e-05
5.68464e-05
1.51684e-05
1.73203e-05
1.49462e-05
1.31155e-05
1.25612e-05
1.23275e-05
1.18926e-05
1.17067e-05
1.17248e-05
1.18907e-05
1.23247e-05
1.28966e-05
1.35853e-05
1.44921e-05
1.55918e-05
1.68839e-05
1.84138e-05
2.02025e-05
2.22009e-05
2.46102e-05
2.93351e-05
3.85119e-05
4.84414e-05
2.0972e-05
7.28333e-05
0.000171633
4.59884e-11
9.4975e-14
3.42493e-23
5.16965e-24
1.33941e-24
5.30088e-25
2.90017e-25
2.00987e-25
1.64543e-25
1.65665e-25
6.927e-22
3.02722e-17
6.08453e-17
4.23064e-05
9.41367e-05
0.000250468
0.000292401
0.000293351
0.000297761
0.000305092
0.000308275
0.000307918
0.000306532
0.000305331
0.000304434
0.000303792
0.000303298
0.000302816
0.000302315
0.000301767
0.000301123
0.000300364
0.000299452
0.000298379
0.000297145
0.000295741
0.000294185
0.00029252
0.000290691
0.000288688
0.000286571
0.00028434
0.00028208
0.000279868
0.000277582
0.000275475
0.000265809
0.000246705
0.000216831
0.000178815
0.000139645
0.000113741
1.09011e-05
1.48343e-05
2.82557e-05
4.08542e-05
5.30071e-05
6.43178e-05
7.28807e-05
7.77301e-05
8.03651e-05
8.17207e-05
8.24186e-05
8.28256e-05
8.30105e-05
8.32045e-05
8.35065e-05
8.37956e-05
8.41142e-05
8.4376e-05
8.45103e-05
8.42871e-05
8.06616e-05
7.80041e-05
5.11584e-05
2.77915e-05
2.57419e-05
0.000109164
3.47231e-10
6.45433e-13
9.30246e-23
1.25101e-23
2.9127e-24
1.04859e-24
5.28119e-25
3.41355e-25
2.63543e-25
2.41839e-25
2.95678e-22
8.83788e-18
1.29058e-16
0.000241913
0.000336104
0.000326223
0.000281688
0.000285584
0.00028166
0.000280631
0.000280488
0.00027884
0.000277103
0.000276312
0.000276276
0.000276569
0.000276982
0.000277391
0.000277702
0.000277889
0.000277926
0.000277771
0.000277401
0.00027681
0.000276016
0.000274996
0.00027376
0.000272407
0.000270939
0.000269321
0.000267593
0.000265761
0.000263859
0.000261998
0.000260194
0.000260196
0.000261272
0.000257972
0.000253102
0.000238049
0.000199795
0.000158962
0.00032613
0.000314412
0.000325559
0.000338137
0.00034706
0.00035391
0.000359126
0.000361247
0.000361801
0.000362032
0.000362112
0.000362229
0.000362178
0.000362381
0.000362758
0.000363114
0.000363585
0.000363881
0.000363716
0.000363326
0.000362685
0.000346246
0.000311625
0.000268603
0.00022389
0.000212107
6.42252e-09
1.09917e-11
2.64656e-22
3.17905e-23
6.66326e-24
2.18368e-24
1.01183e-24
6.08598e-25
4.41663e-25
3.74898e-25
1.42972e-22
8.15154e-19
2.21898e-17
0.000380601
0.000248503
0.00010865
7.78137e-05
7.72112e-05
7.33489e-05
6.92685e-05
6.77727e-05
6.65612e-05
6.54978e-05
6.49989e-05
6.49262e-05
6.50053e-05
6.51193e-05
6.5249e-05
6.5375e-05
6.55027e-05
6.56402e-05
6.57819e-05
6.59304e-05
6.6092e-05
6.62771e-05
6.64904e-05
6.67249e-05
6.6968e-05
6.71985e-05
6.74051e-05
6.75455e-05
6.76532e-05
6.76942e-05
6.76855e-05
6.74713e-05
6.83736e-05
7.62713e-05
9.25243e-05
0.000112944
0.000133047
0.000145857
0.000137367
0.000345771
0.000330896
0.00032522
0.00032385
0.000320633
0.000317111
0.000315003
0.000312151
0.000309139
0.000307569
0.000306725
0.000306437
0.000306173
0.000306697
0.000308085
0.000309475
0.00031113
0.000312918
0.000314644
0.000316614
0.00032252
0.000330602
0.000329915
0.00032315
0.000297761
0.000281645
9.88459e-08
4.24524e-12
1.68279e-14
8.47653e-23
1.60161e-23
4.77691e-24
2.03462e-24
1.13588e-24
7.72194e-25
6.0991e-25
7.65591e-23
1.42433e-19
3.72511e-18
0.000162662
1.8086e-05
1.87515e-05
1.20207e-05
1.21351e-05
1.18108e-05
1.11993e-05
1.07382e-05
1.03106e-05
9.94067e-06
9.52895e-06
9.18035e-06
8.95144e-06
8.74203e-06
8.6104e-06
8.58845e-06
8.6321e-06
8.76345e-06
8.97294e-06
9.2514e-06
9.58717e-06
9.98043e-06
1.04275e-05
1.0869e-05
1.12366e-05
1.15676e-05
1.19001e-05
1.22232e-05
1.25396e-05
1.28401e-05
1.31262e-05
1.33651e-05
1.38227e-05
1.57234e-05
1.94324e-05
2.47162e-05
1.30994e-05
5.17521e-05
7.84534e-05
8.96333e-05
8.89683e-05
8.09088e-05
7.77512e-05
7.40161e-05
7.01824e-05
6.69756e-05
6.52145e-05
6.4001e-05
6.32567e-05
6.29411e-05
6.30168e-05
6.34883e-05
6.41384e-05
6.51143e-05
6.64881e-05
6.83445e-05
7.06952e-05
7.35184e-05
7.65359e-05
8.18466e-05
0.000100976
0.000129382
0.000162765
0.000185817
0.000215992
7.79792e-07
1.23376e-10
4.47452e-13
2.37079e-22
4.04005e-23
1.09642e-23
4.28537e-24
2.21417e-24
1.40507e-24
1.03394e-24
4.49067e-23
3.01813e-20
7.52404e-19
3.27879e-05
5.87105e-06
1.42336e-05
1.63743e-05
1.7381e-05
1.88989e-05
1.99968e-05
2.03058e-05
2.02833e-05
2.01162e-05
1.95309e-05
1.88496e-05
1.83255e-05
1.78039e-05
1.74238e-05
1.72665e-05
1.72389e-05
1.7389e-05
1.77017e-05
1.81535e-05
1.87176e-05
1.93909e-05
2.01677e-05
2.09138e-05
2.14731e-05
2.19408e-05
2.24029e-05
2.28552e-05
2.32905e-05
2.37019e-05
2.40943e-05
2.44723e-05
2.48443e-05
2.45706e-05
2.28347e-05
1.97482e-05
1.92026e-05
2.39974e-05
2.59624e-05
1.26216e-05
1.26938e-05
1.2335e-05
1.13636e-05
1.09217e-05
1.04802e-05
9.80802e-06
9.50684e-06
9.28508e-06
9.06658e-06
8.99887e-06
8.99496e-06
9.06224e-06
9.20753e-06
9.41878e-06
9.7196e-06
1.01186e-05
1.06157e-05
1.12076e-05
1.18487e-05
1.28605e-05
1.60774e-05
2.08462e-05
2.95094e-05
3.30331e-05
7.73238e-05
2.90905e-06
1.824e-09
6.05784e-12
6.94873e-22
1.06899e-22
2.63685e-23
9.44309e-24
4.50309e-24
2.65651e-24
1.81959e-24
2.9036e-23
7.39241e-21
2.77658e-17
1.58053e-05
2.46313e-05
9.52934e-05
0.000109472
0.000114203
0.00012123
0.000127903
0.000132809
0.000136087
0.000138202
0.000139552
0.000140408
0.00014098
0.000141394
0.000141678
0.000141866
0.000141988
0.000142042
0.000142033
0.000141956
0.000141823
0.000141646
0.000141435
0.000141203
0.000140959
0.000140676
0.000140315
0.000139891
0.000139386
0.000138788
0.000138127
0.000137438
0.0001368
0.000132747
0.00012112
0.000102893
8.38935e-05
5.8575e-05
4.80866e-05
3.13965e-05
2.08515e-05
2.13972e-05
2.0159e-05
2.00828e-05
2.01646e-05
1.97102e-05
1.96155e-05
1.95585e-05
1.93776e-05
1.93885e-05
1.94128e-05
1.94606e-05
1.96076e-05
1.97729e-05
1.99876e-05
2.02392e-05
2.05087e-05
2.07718e-05
2.1027e-05
2.12881e-05
2.07676e-05
1.87862e-05
1.59409e-05
1.91339e-05
2.61137e-05
4.47232e-06
1.34971e-08
4.7111e-11
2.13247e-21
2.96407e-22
6.64247e-23
2.17534e-23
9.54509e-24
5.21668e-24
3.318e-24
2.13471e-23
2.12909e-21
2.23022e-18
9.7073e-05
0.000199304
0.00020928
0.000202813
0.000201292
0.000201437
0.00020248
0.00020338
0.00020375
0.000203634
0.000203351
0.000203056
0.000202799
0.000202619
0.000202473
0.000202335
0.000202215
0.000202089
0.000201945
0.000201763
0.000201553
0.000201313
0.000201029
0.000200694
0.000200327
0.000199907
0.00019938
0.000198767
0.000198062
0.000197236
0.000196331
0.000195437
0.000195043
0.000194242
0.000189468
0.000180409
0.000163
0.00012949
9.99122e-05
0.000151351
0.000150858
0.000144947
0.000142715
0.000140963
0.000140057
0.000139954
0.000140275
0.000140966
0.000141836
0.000142726
0.000143595
0.000144378
0.000145045
0.000145581
0.000146034
0.000146446
0.000146748
0.000146853
0.000146848
0.000146961
0.000142041
0.000127493
0.000107661
9.18769e-05
6.55359e-05
2.31789e-05
2.17115e-07
1.28402e-10
7.16846e-13
8.6042e-22
1.75037e-22
5.23564e-23
2.10806e-23
1.06365e-23
6.26578e-24
1.88137e-23
7.59671e-22
3.5036e-19
0.000238736
0.000187065
0.00011281
0.000106567
0.000102059
9.69764e-05
9.27521e-05
8.9592e-05
8.72611e-05
8.5324e-05
8.37786e-05
8.26424e-05
8.1804e-05
8.12019e-05
8.07535e-05
8.03889e-05
8.0086e-05
7.98275e-05
7.95737e-05
7.93307e-05
7.90799e-05
7.8821e-05
7.85606e-05
7.82835e-05
7.80204e-05
7.77694e-05
7.75102e-05
7.72467e-05
7.69993e-05
7.67327e-05
7.64778e-05
7.61936e-05
7.63029e-05
7.91815e-05
8.67495e-05
9.72671e-05
0.000106454
0.000108179
9.86836e-05
0.000231605
0.000215281
0.000212884
0.000210438
0.000208592
0.000207438
0.000207133
0.000207307
0.000207841
0.000208578
0.000209326
0.000210042
0.000210684
0.000211228
0.000211684
0.000212139
0.000212652
0.000213123
0.000213413
0.000213634
0.000214549
0.000215213
0.000209777
0.00019879
0.000183183
0.000155336
9.55143e-05
2.59278e-06
5.88315e-09
3.18066e-11
2.61096e-21
4.82058e-22
1.31481e-22
4.84952e-23
2.25167e-23
1.22516e-23
2.05773e-23
3.50467e-22
7.45924e-20
0.000156092
4.48844e-05
2.25514e-05
1.67888e-05
1.63538e-05
1.59169e-05
1.5274e-05
1.44325e-05
1.37018e-05
1.30761e-05
1.23223e-05
1.16206e-05
1.10899e-05
1.06027e-05
1.02307e-05
1.00188e-05
9.89976e-06
9.90773e-06
1.00293e-05
1.02547e-05
1.05636e-05
1.09555e-05
1.14257e-05
1.1878e-05
1.22063e-05
1.24789e-05
1.27571e-05
1.30382e-05
1.33252e-05
1.36084e-05
1.38935e-05
1.41705e-05
1.45172e-05
1.54042e-05
1.72458e-05
2.068e-05
1.75098e-05
4.27354e-05
5.79272e-05
9.79996e-05
9.87801e-05
9.25207e-05
8.97963e-05
8.85723e-05
8.77994e-05
8.74238e-05
8.72792e-05
8.72287e-05
8.72506e-05
8.72674e-05
8.73063e-05
8.73712e-05
8.74646e-05
8.76275e-05
8.79065e-05
8.83436e-05
8.8927e-05
8.96028e-05
9.038e-05
9.16969e-05
9.66313e-05
0.000106987
0.000117956
0.000126433
0.000129551
0.000116484
1.31015e-05
8.584e-08
2.93163e-11
2.43176e-13
1.38531e-21
3.44138e-22
1.16037e-22
4.94662e-23
2.47952e-23
2.73976e-23
2.09741e-22
2.08291e-20
2.53669e-06
6.71952e-06
1.97834e-06
3.21989e-06
3.93398e-06
4.50825e-06
4.89035e-06
5.03639e-06
5.07551e-06
5.07494e-06
4.94581e-06
4.76669e-06
4.61698e-06
4.45255e-06
4.31624e-06
4.23979e-06
4.198e-06
4.21037e-06
4.27521e-06
4.3908e-06
4.54938e-06
4.75458e-06
5.0053e-06
5.25503e-06
5.44274e-06
5.59588e-06
5.74831e-06
5.89912e-06
6.04873e-06
6.19378e-06
6.33461e-06
6.46973e-06
6.58254e-06
6.56816e-06
5.89841e-06
4.65045e-06
6.87928e-06
1.10436e-05
1.17734e-05
1.41169e-05
1.44011e-05
1.44035e-05
1.3382e-05
1.33158e-05
1.33436e-05
1.29942e-05
1.2876e-05
1.27612e-05
1.25525e-05
1.24698e-05
1.23956e-05
1.23461e-05
1.23749e-05
1.24344e-05
1.25532e-05
1.27213e-05
1.29359e-05
1.31805e-05
1.34449e-05
1.37816e-05
1.4637e-05
1.69073e-05
5.89408e-06
2.5379e-05
4.63796e-05
6.30337e-05
2.95668e-05
6.10988e-07
1.19991e-09
9.27108e-12
4.14328e-21
9.36802e-22
2.88424e-22
1.1263e-22
5.18932e-23
4.24122e-23
1.60719e-22
7.50927e-21
2.18631e-06
1.3442e-05
1.30447e-05
2.12471e-05
2.55568e-05
2.86283e-05
3.10045e-05
3.27107e-05
3.39025e-05
3.4826e-05
3.54879e-05
3.59309e-05
3.62638e-05
3.65113e-05
3.66924e-05
3.68463e-05
3.69858e-05
3.71218e-05
3.72629e-05
3.74149e-05
3.75814e-05
3.7762e-05
3.79664e-05
3.81885e-05
3.83919e-05
3.85479e-05
3.86571e-05
3.87282e-05
3.8767e-05
3.87678e-05
3.87394e-05
3.86762e-05
3.84812e-05
3.75696e-05
3.30267e-05
2.54991e-05
1.76842e-05
8.05725e-06
9.7985e-06
7.48914e-06
5.06943e-06
5.16052e-06
4.89177e-06
4.96427e-06
5.11248e-06
5.08875e-06
5.13619e-06
5.17784e-06
5.16065e-06
5.18544e-06
5.20404e-06
5.2186e-06
5.25733e-06
5.29651e-06
5.34791e-06
5.40728e-06
5.47144e-06
5.53217e-06
5.58788e-06
5.62671e-06
5.60332e-06
4.9331e-06
4.79193e-06
6.93616e-06
8.99236e-06
1.9753e-07
1.58255e-05
1.88463e-06
1.50147e-08
1.21889e-10
1.28731e-20
2.6461e-21
7.43117e-22
2.65375e-22
1.12188e-22
7.31867e-23
1.55477e-22
3.46584e-21
1.33203e-05
8.84393e-05
9.58296e-05
0.000103737
0.000107909
0.000109872
0.000111229
0.000112267
0.000113022
0.00011363
0.000114145
0.000114543
0.000114876
0.000115161
0.000115384
0.000115581
0.000115765