/*--------------------------------*- C++ -*----------------------------------*\
| =========                 |                                                 |
| \\      /  F ield         | OpenFOAM: The Open Source CFD Toolbox           |
|  \\    /   O peration     | Version:  2312                                  |
|   \\  /    A nd           | Website:  www.openfoam.com                      |
|    \\/     M anipulation  |                                                 |
\*---------------------------------------------------------------------------*/
FoamFile
{
    version     2.0;
    format      ascii;
    arch        "LSB;label=32;scalar=64";
    class       volScalarField;
    location    "200";
    object      turbulenceProperties:I;
}
// * * * * * * * * * * * * * * * * * * * * * * * * * * * * * * * * * * * * * //

dimensions      [0 0 0 0 0 0 0];

internalField   nonuniform List<scalar> 
10720
(
0.00431503
0.00393473
0.00401583
0.00414246
0.00433351
0.0045732
0.00487598
0.00524868
0.00572517
0.00635401
0.00718677
0.00833985
0.00999103
0.0122271
0.0158871
0.0223731
0.0313603
0.0464822
0.0674678
0.0898491
0.116633
0.159034
0.231647
0.33913
0.440988
0.496118
0.687402
0.890354
0.758858
0.504488
0.288132
0.107239
0.0590317
0.0279442
4.32753e-09
8.31965e-09
0.00846135
0.0676691
0.764699
0.00602495
0.00696123
0.00704067
0.00707049
0.00788641
0.0163643
0.0321726
0.0435056
0.0258144
0.0172016
0.0140439
0.0131079
0.0132593
0.0144768
0.0162204
0.0200285
0.0228413
0.0340216
0.0399783
0.0437809
0.0491622
0.0580531
0.0672526
0.0779134
0.0889829
0.0994918
0.0952448
0.0747514
0.0484574
0.0255582
0.0091596
0.00225562
0.00123642
0.000792421
1.27903e-09
0.0148261
0.127977
0.0707358
0.473935
0.00280678
0.00282308
0.0025237
0.0023296
0.0021327
0.0019452
0.00178552
0.00164853
0.0015407
0.00145751
0.00139492
0.00134354
0.00138129
0.00162665
0.00215633
0.00330145
0.00512781
0.00813816
0.0130732
0.0198886
0.0283065
0.0379482
0.0530451
0.0654593
0.128784
0.1833
0.359676
0.553816
0.524426
0.42003
0.297631
0.184505
0.0976087
0.0369558
0.0072324
2.68262e-09
0.00882138
0.118433
0.58304
0.00241459
0.00286889
0.00311347
0.0053088
0.00769719
0.00998954
0.010616
0.0115926
0.00970715
0.00739468
0.00587739
0.0048924
0.00419088
0.00366806
0.00307471
0.00842159
0.00962028
0.0144118
0.0171252
0.00617708
0.0213831
0.00584107
0.0133092
0.00660755
0.00651573
0.00672845
0.0088154
0.00829614
0.00744299
0.00614298
0.00456997
0.00311984
0.00214458
0.00129853
0.000181523
0.00260085
0.0209089
0.0197779
0.192028
0.00152019
0.000183184
0.000717657
0.0007271
0.000755823
0.000774842
0.000798133
0.000820747
0.000853085
0.000864819
0.000860807
0.00087992
0.000913252
0.000864817
0.00100907
0.0017198
0.00252122
0.00395057
0.0063603
0.00975032
0.0138582
0.0183908
0.0252331
0.0315629
0.0416686
0.0419023
0.168064
0.309023
0.320784
0.293223
0.236994
0.173296
0.108576
0.048964
0.0158561
0.00832307
0.00621402
0.148377
0.502424
0.00194725
0.00421007
0.00541147
0.00568676
0.00506482
0.00333881
0.00135707
0.00213786
0.00268674
0.00282182
0.00283658
0.00280521
0.00279364
0.00277449
0.0027458
0.0027199
0.00254526
0.00253347
0.00143848
0.00278063
0.000501906
0.00268923
0.00607685
0.00308031
0.000758596
0.00319288
0.004183
0.00396598
0.0035955
0.00301439
0.00229883
0.00163678
0.00120109
0.00083831
0.000557044
0.000405563
0.0104195
0.0122928
0.112415
0.0031867
0.0030219
0.00286921
0.00272374
0.00259094
0.0024704
0.00236232
0.0022678
0.00223068
0.0021497
0.00203502
0.00198155
0.00193753
0.00190081
0.00187189
0.00185421
0.00178561
0.00147902
0.000898502
0.00057475
6.07248e-10
6.13365e-10
6.21509e-10
6.31915e-10
0.0194791
0.0194687
0.000207215
0.000508102
0.00073808
0.00124956
0.00333094
0.0161386
0.0424518
0.0423496
0.0285178
0.0151276
0.00506857
0.143258
0.463874
0.00438016
0.00450506
0.0033517
0.00118119
0.00191138
0.00203424
0.00211723
0.00228165
0.00229214
0.00217149
0.00201378
0.00188048
0.00178148
0.00169901
0.0016349
0.00158867
0.00153664
0.000517457
0.00090258
0.00112232
0.00117202
0.00130823
0.00122666
0.00113354
0.00119833
0.00120467
0.00119466
0.00118231
0.00119428
0.00121133
0.00121387
0.00118969
0.0011617
0.00111413
0.00118344
0.000864561
0.000117538
0.0106694
0.0923221
0.00398041
0.00349709
0.00320444
0.00295751
0.00274362
0.00256098
0.00240963
0.00228491
0.00218264
0.0021065
0.00204549
0.00199904
0.00196575
0.00194497
0.00193606
0.00194071
0.00194887
0.00197769
0.00198155
0.00139455
0.000740351
0.00053506
6.39121e-10
6.50465e-10
6.64168e-10
6.788e-10
9.85625e-05
0.000239524
0.000343953
0.000575231
0.00151688
0.00730495
0.000602145
0.000101246
0.0157475
0.0174581
0.00503276
0.131591
0.411217
0.00327296
0.00138127
0.00141061
0.00159106
0.00235645
0.00434372
0.00491015
0.00508889
0.00500803
0.00470856
0.00430877
0.00393235
0.00359434
0.00328423
0.0030251
0.00281631
0.00271375
0.00252935
0.00231551
0.00221587
0.0021145
0.00201759
0.00192862
0.00184957
0.00178309
0.00172704
0.00167963
0.00163917
0.00160468
0.00157357
0.00153898
0.00150706
0.00148339
0.00148083
0.00138767
0.0016354
0.000227933
0.00962183
0.0805075
0.00203403
0.00207467
0.00176886
0.00156232
0.00138975
0.00124849
0.00114264
0.00106246
0.00100378
0.000965025
0.000944179
0.00093966
0.000949121
0.000971367
0.00100694
0.00105793
0.00111424
0.00120006
0.00133924
0.00146195
0.00152545
0.0012459
0.000602981
0.000471513
6.67194e-10
6.82241e-10
6.97329e-10
7.12418e-10
7.28557e-10
7.46517e-10
7.66389e-10
7.89904e-10
0.000281388
4.6899e-05
1.02809e-05
3.89688e-05
0.00014352
0.00383994
0.0155609
0.00133627
0.00115916
0.00181945
0.00367049
0.00453553
0.00512631
0.00549346
0.0057199
0.0057497
0.00559846
0.00533065
0.00504139
0.00475553
0.00445904
0.00420175
0.00399731
0.00382163
0.00367389
0.00353414
0.00340254
0.00327851
0.00316095
0.00304986
0.00294648
0.00285352
0.002772
0.00270035
0.00263677
0.00258017
0.00253045
0.00248572
0.00242902
0.00236095
0.00229812
0.00215914
0.00216389
0.000308962
0.00815536
0.0665893
0.000878939
0.000884518
0.000839541
0.000784611
0.000754119
0.000731195
0.000706131
0.00068761
0.000672805
0.000661417
0.00065568
0.000654176
0.000656697
0.000663948
0.000676024
0.000693869
0.000714101
0.000748408
0.000308918
0.000656763
0.000928104
0.00113528
0.00121171
0.00108816
0.000706251
2.42291e-05
7.01082e-10
7.16124e-10
7.32827e-10
7.51689e-10
7.72263e-10
7.95689e-10
8.20397e-10
8.47756e-10
4.81623e-06
1.82552e-05
1.06928e-09
0.0021065
0.00609842
0.0013347
0.00258549
0.00361627
0.00381033
0.00358695
0.00338409
0.00361377
0.00379697
0.00389683
0.00391296
0.00385995
0.00376048
0.0036618
0.00357202
0.00348761
0.00341565
0.00332428
0.00321808
0.00310656
0.00299511
0.00288635
0.00278181
0.00268255
0.00259054
0.00250775
0.00243477
0.00237077
0.00231461
0.00226539
0.0022222
0.00218734
0.00216212
0.00213954
0.00211679
0.00207558
0.00218015
0.000318889
0.00604978
0.0480475
0.0016643
0.00157024
0.00159594
0.00160173
0.00160623
0.00160586
0.00159009
0.00156447
0.00153497
0.00150526
0.0014767
0.00144962
0.00142443
0.00140228
0.00138383
0.00136893
0.00135426
0.00133868
0.00134598
0.00128226
0.00119897
0.0012357
0.00132145
0.00136132
0.00150695
5.49336e-05
1.23262e-05
7.19221e-10
7.35547e-10
7.54247e-10
7.75117e-10
7.99181e-10
8.25852e-10
8.50343e-10
8.86585e-10
9.02989e-10
1.10665e-09
4.19656e-09
1.0793e-08
0.00291223
0.00330047
0.00283734
0.00190094
0.000708672
0.00120942
0.00126438
0.00132955
0.000290449
0.000719713
0.000907544
0.00105779
0.00118456
0.00130113
0.00142701
0.0015358
0.00157246
0.00156203
0.001529
0.00148512
0.00143534
0.00138319
0.0013312
0.00128276
0.00123995
0.00120251
0.00117048
0.00114377
0.00112234
0.00110458
0.00109173
0.00110419
0.00114741
0.00121875
0.00128499
0.00160535
0.000342379
0.00356998
0.0274967
0.00282839
0.00254347
0.00243113
0.00231569
0.00221408
0.00212617
0.00204034
0.00195741
0.00188579
0.00182616
0.00177582
0.0017324
0.0016956
0.00166834
0.00164904
0.00163454
0.00161923
0.00162509
0.00164106
0.00161252
0.00156053
0.00152271
0.00151544
0.00147376
0.00169535
9.21846e-05
2.10597e-05
7.23188e-10
7.38973e-10
7.57024e-10
7.77334e-10
8.00819e-10
8.28179e-10
8.53402e-10
8.9093e-10
8.98644e-10
1.06364e-09
2.92409e-09
4.12061e-09
0.00284308
0.0019274
0.00123516
0.000800257
0.000695507
0.000694723
0.000713828
0.000760051
0.000790231
0.000791942
0.000807355
0.00082563
0.000836575
0.000845729
0.000861025
0.00087856
0.000880791
0.000871899
0.000857625
0.000840842
0.000822533
0.000803651
0.000784905
0.000767139
0.000750853
0.000736369
0.000723983
0.000713666
0.000705372
0.000698453
0.000693078
0.000694475
0.000702308
0.00073225
0.00074078
7.39657e-05
0.000516583
0.00103289
0.00769276
0.00217292
0.00200465
0.00181058
0.00164599
0.00148841
0.00137904
0.00130572
0.00123464
0.00118358
0.00115234
0.00112942
0.00111232
0.0011005
0.00110643
0.00112528
0.00114305
0.00116731
0.0012078
0.00127586
0.00135292
0.00141021
0.00144248
0.00147624
0.00145384
0.00165066
0.000133199
3.0974e-05
7.27362e-10
7.42729e-10
7.60256e-10
7.79986e-10
8.02655e-10
8.29331e-10
8.54333e-10
8.94198e-10
9.05622e-10
9.89838e-10
1.71676e-09
1.84607e-09
0.00119443
0.000830163
0.000835034
0.00117777
0.00169092
0.00176944
0.0017952
0.00190934
0.00197089
0.00188705
0.00187166
0.00186193
0.00182094
0.00176302
0.00169617
0.00162853
0.00156237
0.00149883
0.00143936
0.00138428
0.00133322
0.0012861
0.00124275
0.00120337
0.00116813
0.00113679
0.00110899
0.00108435
0.00106245
0.00104272
0.00102408
0.000999788
0.000959558
0.000957188
0.00087894
0.000660012
0.000834587
0.000292342
0.00373523
0.000310549
0.000507982
0.000686364
0.000613609
0.000575968
0.000564199
0.000557578
0.000544166
0.000535147
0.000529369
0.000526464
0.000524666
0.000524087
0.000536372
0.000542692
0.000543144
0.000556707
0.00057932
0.000183956
0.000540068
0.000770326
0.00093791
0.00108612
0.00114688
0.00142811
0.000176408
4.17425e-05
7.31713e-10
7.46635e-10
7.63673e-10
7.82897e-10
8.04917e-10
8.30728e-10
8.54715e-10
8.93916e-10
9.17094e-10
9.35083e-10
1.20095e-09
1.26963e-09
0.000681735
0.000666911
0.00198879
0.00240578
0.00259089
0.00271704
0.00278907
0.00286905
0.00293076
0.002894
0.00288276
0.00287861
0.00282206
0.00275153
0.00267203
0.00258815
0.00250305
0.00241871
0.00233638
0.00225687
0.00218069
0.00210816
0.00203965
0.00197573
0.00191713
0.0018643
0.00181708
0.00177506
0.00173766
0.00170421
0.00167441
0.00164762
0.00161075
0.00156314
0.0014978
0.00141984
0.00135848
0.000559381
8.41445e-05
0.000779775
0.000636049
0.000263698
0.000439374
0.000525443
0.000654403
0.000754009
0.000783415
0.000800139
0.000806099
0.000805082
0.000799681
0.00079083
0.000811523
0.000783395
0.000724745
0.000717197
0.000711669
0.000702634
0.000687535
0.000715394
0.000790548
0.000902269
0.000947122
0.00124308
0.000241807
5.82028e-05
7.36216e-10
7.50651e-10
7.67175e-10
7.85885e-10
8.07315e-10
8.32392e-10
8.55577e-10
8.91883e-10
9.26679e-10
9.07882e-10
9.89617e-10
1.03685e-09
0.0013727
0.00213862
0.00230199
0.0020684
0.0020478
0.00207585
0.00213079
0.00215037
0.00218417
0.0022302
0.00222714
0.00221988
0.00219285
0.0021538
0.00210684
0.0020546
0.00199889
0.00194117
0.00188253
0.00182389
0.00176594
0.00170939
0.00165483
0.00160331
0.00155586
0.00151295
0.00147461
0.00144065
0.00141079
0.00138447
0.00136178
0.00134661
0.00134261
0.00134004
0.00133401
0.00132398
0.0013422
0.00125237
0.000386163
0.00171764
0.00168984
0.00171375
0.00173224
0.00173925
0.00172093
0.00169597
0.00166797
0.00163816
0.00160696
0.00157521
0.00154406
0.0015146
0.00148693
0.00146443
0.00144361
0.00144439
0.00142289
0.00138171
0.00133971
0.00127778
0.0012197
0.00119085
0.0011357
0.00128515
0.000384451
9.41017e-05
7.40904e-10
7.54811e-10
7.70782e-10
7.88941e-10
8.09749e-10
8.34086e-10
8.56884e-10
8.89878e-10
9.31482e-10
8.99801e-10
9.01232e-10
9.39597e-10
0.00212896
0.0019913
0.00130019
0.000707589
0.00054047
0.000420989
0.000425514
0.000456577
0.000501626
0.000552449
0.000572311
0.000586884
0.000599
0.000608516
0.00061448
0.000616762
0.000615001
0.000609407
0.000600191
0.000587871
0.000572888
0.000556092
0.000538424
0.000521598
0.000506862
0.000494099
0.000483393
0.000474857
0.000468673
0.000464198
0.000460489
0.000460785
0.000508459
0.000587044
0.000678019
0.000794645
0.00090844
0.00106281
0.000708832
0.00194853
0.00178108
0.00169691
0.0016392
0.00158246
0.00152885
0.0014804
0.00143903
0.00140631
0.00137825
0.00135253
0.00133084
0.00131444
0.00130291
0.00129559
0.0012922
0.00129326
0.00129789
0.00130678
0.00131891
0.00132905
0.00132554
0.00130247
0.00124515
0.00132809
0.000588597
4.46646e-07
1.07819e-07
7.59122e-10
7.74515e-10
7.92091e-10
8.12244e-10
8.35756e-10
8.58327e-10
8.88558e-10
9.31783e-10
9.01298e-10
8.68045e-10
8.99916e-10
0.00160835
0.000693586
0.000539459
0.000430786
0.000431264
0.000454628
0.000473217
0.000482734
0.000489324
0.000494939
0.000491445
0.00048581
0.000481008
0.000475786
0.000470972
0.000466983
0.00046287
0.000458761
0.00045446
0.000449789
0.000444614
0.000439119
0.000433468
0.000427683
0.000421734
0.000416074
0.000411133
0.000406985
0.000403679
0.000400997
0.000398722
0.00039719
0.000403511
0.000415218
0.000439688
0.000459755
0.000484841
0.000564411
0.000638692
0.0010863
0.00103961
0.000880656
0.000773953
0.000684315
0.000609525
0.000552584
0.000516711
0.000508288
0.000509814
0.000511515
0.000522771
0.000545819
0.00057419
0.000605635
0.000639469
0.000676538
0.000710975
0.000743919
0.000810793
0.00091183
0.000997692
0.00106559
0.00109338
0.00120168
0.000765457
1.49399e-06
3.66819e-07
7.63589e-10
7.78379e-10
7.95347e-10
8.14825e-10
8.37452e-10
8.59731e-10
8.87888e-10
9.29255e-10
9.05839e-10
8.60587e-10
8.88326e-10
0.000687071
0.000382468
0.000613798
0.000895816
0.000983548
0.00108022
0.00112097
0.00114238
0.00115138
0.0011524
0.00114669
0.0011355
0.00112061
0.00110292
0.001083
0.00106152
0.00103887
0.00101534
0.000991297
0.00096701
0.000942759
0.000918816
0.000895479
0.000873104
0.000851987
0.000832283
0.000814126
0.000797596
0.000782632
0.000768998
0.000756648
0.000744297
0.000719946
0.000679946
0.000655068
0.000566595
0.00042101
0.000484527
0.000626467
0.000405957
0.000418691
0.00041257
0.000395329
0.000389087
0.000383443
0.000372332
0.000365452
0.000362309
0.000359186
0.000356797
0.000356221
0.00035873
0.000363712
0.000370338
0.000378815
0.000389473
0.00040069
0.000412323
0.000441162
0.000471609
0.000232907
0.00050594
0.000659712
0.000838952
0.000762915
2.84368e-06
7.09957e-07
7.68208e-10
7.82376e-10
7.98712e-10
8.17499e-10
8.39222e-10
8.61072e-10
8.87636e-10
9.25546e-10
9.10067e-10
8.64483e-10
8.89836e-10
0.000514208
0.000809088
0.00142367
0.00163008
0.00167421
0.00172826
0.00176706
0.00179143
0.00180474
0.00180918
0.00180605
0.00179636
0.00178139
0.00176202
0.00173887
0.00171251
0.00168335
0.00165176
0.00161815
0.00158295
0.00154663
0.0015097
0.0014727
0.00143631
0.00140129
0.00136827
0.00133762
0.00130956
0.00128408
0.001261
0.00124028
0.0012221
0.00120129
0.00117026
0.00112758
0.00106488
0.000995544
0.000877558
0.000807572
0.000335252
0.000511957
0.000660972
0.000742269
0.000793289
0.000823363
0.000834712
0.000835112
0.000829227
0.000819718
0.000807408
0.000793404
0.000779075
0.000764787
0.000750749
0.000737568
0.000725796
0.000715799
0.000706622
0.00072079
0.000671245
0.000590899
0.000587769
0.000623651
0.000692819
0.000767172
5.38514e-06
1.36662e-06
7.72978e-10
7.86507e-10
8.0219e-10
8.20267e-10
8.41086e-10
8.62385e-10
8.87608e-10
9.21717e-10
9.12915e-10
8.725e-10
8.96375e-10
0.00120612
0.00151573
0.00153201
0.00136842
0.00136707
0.00138187
0.00140118
0.00141494
0.00142341
0.0014271
0.00142695
0.00142319
0.00141598
0.00140573
0.00139275
0.0013771
0.00135897
0.00133851
0.0013159
0.00129139
0.00126531
0.00123805
0.00121003
0.00118189
0.00115447
0.00112844
0.00110412
0.00108173
0.0010614
0.00104297
0.00102663
0.0010141
0.00100962
0.0010106
0.00101061
0.00100732
0.000995578
0.000941538
0.000878018
0.00140855
0.001391
0.0014088
0.00141717
0.00141142
0.0013959
0.00137371
0.0013478
0.00132019
0.00129247
0.0012656
0.00123996
0.00121579
0.0011933
0.00117256
0.00115363
0.00113658
0.00112143
0.00110819
0.00109627
0.00106895
0.00103996
0.000972036
0.000892191
0.000844091
0.000878424
1.08682e-05
2.80266e-06
7.77897e-10
7.90771e-10
8.05783e-10
8.2313e-10
8.43048e-10
8.63709e-10
8.87698e-10
9.18264e-10
9.14513e-10
8.81254e-10
9.04206e-10
0.00152735
0.00128813
0.000770881
0.000497575
0.000453266
0.000411725
0.000398308
0.000393601
0.000391
0.000390598
0.000391833
0.000394248
0.000397129
0.000400054
0.000402677
0.00040477
0.000406066
0.000406498
0.000405885
0.000404201
0.000401411
0.000397672
0.000393168
0.000388348
0.000383604
0.000379046
0.000374805
0.000370977
0.000367791
0.000365033
0.000362421
0.000360094
0.000375492
0.000430474
0.00050407
0.000597858
0.000692975
0.000752636
0.000767429
0.00136941
0.00128493
0.00123629
0.00120119
0.00116104
0.00112066
0.00108459
0.00105291
0.00102596
0.00100368
0.000984951
0.000969083
0.000955571
0.000944207
0.000934799
0.000927305
0.000921747
0.000918236
0.00091704
0.000922501
0.000939291
0.000952069
0.000951641
0.000941526
0.000897609
0.000929634
1.97699e-05
5.17893e-06
7.82959e-10
7.95167e-10
8.09492e-10
8.26092e-10
8.45112e-10
8.65071e-10
8.87871e-10
9.15343e-10
9.15333e-10
8.89415e-10
9.11798e-10
0.000970341
0.000267131
0.000306785
0.000222493
0.000222252
0.000228892
0.000239668
0.000243338
0.000243012
0.000241583
0.000237987
0.000234094
0.000231293
0.000228735
0.000226927
0.000226216
0.000226013
0.000226385
0.000227122
0.000228059
0.000228955
0.000229787
0.000230533
0.000230906
0.00023056
0.000229849
0.000229155
0.000228564
0.000228167
0.000227895
0.000227661
0.000227316
0.000231988
0.000245242
0.000272062
0.000295309
0.000333571
0.000393727
0.000547724
0.000593205
0.000610051
0.000485903
0.000401233
0.00032451
0.000249868
0.000182924
0.000131538
0.000105566
0.00010952
0.000129333
0.000153463
0.000177922
0.000202709
0.000227446
0.000251711
0.000276262
0.000301573
0.000326865
0.000355686
0.000417236
0.000512448
0.000612672
0.000695311
0.000724984
0.000835349
3.14888e-05
8.37665e-06
7.88155e-10
7.99691e-10
8.13317e-10
8.29157e-10
8.47281e-10
8.66492e-10
8.88132e-10
9.12964e-10
9.15783e-10
8.96634e-10
9.1865e-10
0.000406937
0.000234534
0.000384497
0.000302979
0.000354115
0.000412794
0.000458663
0.000481047
0.000489408
0.000491407
0.000489734
0.000485734
0.000480892
0.000475519
0.000469577
0.000463449
0.000457156
0.000450647
0.00044396
0.000437135
0.000430153
0.00042301
0.000415861
0.000408843
0.000401884
0.000394912
0.000388115
0.000381693
0.000375718
0.000370167
0.00036504
0.000359678
0.000351764
0.000322443
0.00030791
0.00021017
0.00031636
0.000208064
0.000398021
0.000227792
0.000238944
0.000217078
0.000198755
0.000190319
0.000184354
0.000177079
0.000171952
0.000168529
0.000166371
0.000166221
0.000167007
0.000168488
0.000171205
0.000174886
0.000179358
0.000184697
0.000190965
0.000197922
0.000206327
0.000223303
0.000254172
0.000283934
0.000186632
0.000348532
0.000599437
4.24999e-05
1.14771e-05
7.93475e-10
8.04337e-10
8.17256e-10
8.32326e-10
8.49559e-10
8.67986e-10
8.88496e-10
9.11097e-10
9.16117e-10
9.02934e-10
9.2468e-10
0.000384411
0.000579924
0.000961916
0.00105683
0.00107492
0.00109852
0.00112579
0.00114235
0.00114882
0.00115012
0.00114882
0.00114562
0.00114089
0.0011348
0.00112737
0.00111868
0.00110871
0.00109742
0.0010848
0.00107082
0.00105552
0.00103895
0.00102127
0.00100279
0.000983962
0.000965287
0.000947119
0.00092978
0.000913454
0.000898215
0.000884175
0.00087145
0.000860571
0.000839516
0.000804828
0.00075227
0.000682929
0.000604037
0.000553547
0.000190537
0.000218398
0.000295131
0.000347205
0.000387306
0.00041757
0.000435196
0.000440447
0.000439174
0.00043467
0.000428845
0.000422625
0.000416177
0.000410135
0.000404785
0.000399729
0.000394979
0.000390525
0.0003864
0.000382016
0.000370345
0.000361601
0.000291467
0.000214394
0.000206508
0.00044143
6.26535e-05
1.71717e-05
7.9891e-10
8.091e-10
8.21307e-10
8.35602e-10
8.51949e-10
8.69567e-10
8.88983e-10
9.09702e-10
9.16476e-10
9.08444e-10
9.29955e-10
0.000905406
0.00107902
0.00107994
0.00101921
0.00104108
0.0010479
0.00105826
0.0010674
0.0010705
0.00107051
0.00106978
0.00106836
0.00106585
0.00106215
0.00105729
0.0010512
0.00104388
0.00103529
0.00102538
0.00101411
0.00100146
0.000987475
0.000972195
0.000955855
0.000938986
0.000922119
0.00090557
0.000889626
0.000874506
0.000860282
0.00084712
0.000835278
0.000827713
0.00082339
0.000813813
0.000803318
0.000778301
0.000713232
0.000644213
0.00102852
0.000993517
0.000990957
0.000989
0.000982173
0.000971916
0.000959838
0.000944662
0.000928225
0.000912332
0.000897183
0.000882758
0.000868744
0.000855738
0.000843758
0.000832416
0.0008217
0.000811642
0.000802309
0.000793793
0.000785813
0.000762045
0.000719157
0.000665815
0.000607763
0.000598584
0.000141684
3.97929e-05
8.04447e-10
8.13971e-10
8.25466e-10
8.38984e-10
8.54457e-10
8.7125e-10
8.89613e-10
9.08745e-10
9.1693e-10
9.13294e-10
9.34572e-10
0.00111976
0.000914345
0.000613537
0.000526847
0.000532011
0.000525232
0.00051611
0.000514796
0.000512979
0.000510352
0.000508738
0.00050783
0.000506757
0.000505209
0.000503224
0.000500782
0.000497921
0.000494679
0.000491025
0.000486955
0.000482467
0.000477561
0.000472256
0.000466593
0.000460676
0.000454672
0.000448729
0.000442827
0.0004372
0.000431785
0.000426645
0.000421377
0.000420207
0.000440428
0.000482304
0.000530804
0.000575182
0.000602054
0.000590173
0.00104617
0.0010081
0.000980498
0.000959014
0.000936352
0.000913638
0.000893848
0.000874152
0.000854994
0.000838654
0.000824063
0.000810753
0.00079798
0.000786814
0.000777424
0.000768574
0.000760449
0.000753176
0.000746848
0.000741652
0.000741598
0.000745007
0.000740031
0.000729945
0.000700006
0.000683421
0.000286419
1.3588e-05
3.74225e-06
8.18942e-10
8.2973e-10
8.42474e-10
8.57084e-10
8.73046e-10
8.90402e-10
9.08194e-10
9.17514e-10
9.17595e-10
9.38624e-10
0.00072274
0.000243321
0.000251174
0.000203909
0.000207569
0.000207298
0.00020399
0.000201317
0.00019827
0.000195197
0.000191211
0.00018745
0.000184618
0.000181773
0.000179576
0.000178386
0.000177743
0.000177854
0.000178578
0.000179769
0.000181252
0.000182959
0.000184797
0.000186227
0.000186741
0.000186788
0.000186771
0.000186659
0.000186537
0.000186377
0.000186208
0.000185845
0.000187178
0.000198047
0.000218821
0.000245722
0.000178494
0.000354473
0.000439903
0.000526799
0.000517516
0.000484537
0.00046597
0.000446572
0.000427124
0.000409998
0.000397809
0.000387613
0.000379185
0.000372363
0.00036692
0.000362819
0.000359429
0.000357174
0.000356149
0.000356445
0.000358134
0.00036122
0.000364883
0.000373817
0.000411906
0.00046348
0.000517875
0.000552471
0.000596379
0.000406668
3.9374e-05
1.10032e-05
8.24002e-10
8.34093e-10
8.4607e-10
8.59834e-10
8.74966e-10
8.91362e-10
9.08018e-10
9.18242e-10
9.21427e-10
9.42185e-10
0.000320729
0.000136887
0.000215902
0.000234659
0.000244797
0.000258227
0.000268234
0.000272254
0.000273351
0.000272845
0.000268929
0.000263853
0.0002595
0.000254887
0.000251078
0.000248704
0.000247105
0.000246606
0.000247051
0.000248209
0.000249811
0.000251747
0.000253894
0.000255388
0.000255386
0.000254641
0.000253782
0.000252851
0.000251892
0.000250925
0.000250001
0.000249193
0.000248607
0.000245199
0.000234848
0.000217375
0.000213762
0.000238628
0.000249716
0.000195695
0.00019366
0.000187552
0.000176749
0.000170358
0.000164056
0.000156069
0.000151181
0.000147031
0.000143034
0.00014035
0.000138252
0.000136779
0.000135961
0.000135686
0.000136071
0.000137104
0.000138773
0.000141057
0.000143604
0.000148217
0.000164376
0.000186009
0.000220395
0.000232711
0.000356118
0.00039198
7.96013e-05
2.25637e-05
8.29141e-10
8.38548e-10
8.49772e-10
8.62707e-10
8.77016e-10
8.92504e-10
9.08188e-10
9.19117e-10
9.24856e-10
9.4531e-10
0.000220268
0.000277081
0.00055172
0.000598892
0.000618956
0.000644612
0.000668092
0.000685223
0.000696413
0.000703109
0.000706548
0.000707691
0.00070734
0.000705998
0.000703866
0.000701085
0.00069773
0.000693785
0.00068923
0.000684014
0.000678097
0.000671414
0.000663929
0.000655719
0.000646976
0.000637907
0.000628667
0.000619436
0.000610346
0.000601504
0.000593013
0.000585045
0.000577854
0.000564393
0.000535441
0.000491005
0.000441911
0.000368541
0.000335426
0.000305696
0.000245962
0.00024494
0.000233616
0.000229415
0.000226142
0.000219985
0.000216028
0.000212378
0.000208201
0.000205214
0.000202422
0.000199877
0.000197964
0.000196259
0.000194882
0.000193731
0.000192769
0.000191954
0.000191244
0.000190643
0.000186749
0.000176471
0.000161838
0.000176881
0.000206572
0.000245988
0.000111397
3.42805e-05
8.34345e-10
8.43087e-10
8.53573e-10
8.65704e-10
8.79205e-10
8.9383e-10
9.08675e-10
9.20135e-10
9.27932e-10
9.48043e-10
0.000540157
0.000779358
0.000808027
0.000805107
0.000810991
0.000819356
0.000828185
0.000834819
0.000838429
0.000839355
0.000838517
0.000836554
0.000833875
0.000830769
0.000827288
0.000823421
0.000819173
0.000814473
0.000809243
0.000803388
0.00079684
0.000789477
0.00078119
0.000772009
0.000762162
0.000751901
0.000741382
0.000730804
0.000720338
0.000710099
0.000700223
0.000690993
0.000683339
0.000675971
0.00066285
0.000643266
0.000609123
0.000541562
0.000477195
0.00066483
0.000655599
0.000632124
0.000616747
0.000603411
0.000591977
0.00058251
0.000574316
0.000567073
0.00056049
0.000554295
0.000548364
0.000542587
0.000536915
0.000531313
0.000525785
0.000520341
0.000515013
0.000509847
0.000504919
0.000500464
0.000487931
0.000459201
0.000419991
0.000386922
0.000326545
0.000314634
0.000225151
3.01501e-05
8.58973e-06
8.47699e-10
8.57471e-10
8.68821e-10
8.81533e-10
8.95343e-10
9.09451e-10
9.21284e-10
9.30701e-10
9.50421e-10
0.000838276
0.000746815
0.000586434
0.000576503
0.000569983
0.000560643
0.00055231
0.00054556
0.000539935
0.000534408
0.000529215
0.000524668
0.000520625
0.000517025
0.00051369
0.000510418
0.000507126
0.000503734
0.000500082
0.000496149
0.000491823
0.000487032
0.00048174
0.000475924
0.000469792
0.000463495
0.000457116
0.000450748
0.000444544
0.000438505
0.000432755
0.000427264
0.000423239
0.00042728
0.000443898
0.000467269
0.000486718
0.000489129
0.000468022
0.000814541
0.000775998
0.000759478
0.000742856
0.000728391
0.000715205
0.000703806
0.000693713
0.000684492
0.000676001
0.000667973
0.000660292
0.000652908
0.000645766
0.00063884
0.000632142
0.000625676
0.000619469
0.000613554
0.000608027
0.000603783
0.000599685
0.000588049
0.000569616
0.000545129
0.000501437
0.00045631
0.000386662
0.00010637
3.14279e-05
8.52375e-10
8.61456e-10
8.72055e-10
8.84002e-10
8.97039e-10
9.10486e-10
9.22552e-10
9.33204e-10
9.52483e-10
0.00067077
0.000361841
0.000259174
0.000226009
0.000225168
0.000223963
0.000220826
0.000215594
0.000210545
0.00020579
0.000199589
0.000193443
0.000188466
0.000183688
0.000179789
0.000177215
0.000175395
0.000174625
0.000174757
0.000175657
0.000177088
0.000178968
0.000181181
0.000182934
0.00018348
0.000183443
0.00018334
0.00018318
0.000183011
0.000182811
0.000182639
0.00018247
0.000182816
0.000186594
0.0001959
0.000213166
0.000195188
0.000303789
0.000353879
0.000524713
0.000520792
0.000496292
0.000481184
0.000470816
0.000461729
0.000453931
0.000447081
0.000440674
0.000434718
0.000429042
0.000423681
0.000418655
0.00041395
0.000409618
0.000405676
0.000402157
0.000399129
0.00039661
0.000394589
0.000393894
0.000401005
0.000419049
0.000437747
0.000451692
0.000456567
0.000447907
0.000436933
0.000207455
1.62246e-05
4.64774e-06
8.65521e-10
8.754e-10
8.86608e-10
8.98912e-10
9.11754e-10
9.23925e-10
9.35475e-10
9.54263e-10
8.46197e-05
0.000138465
7.58615e-05
9.77338e-05
0.000108961
0.000117511
0.000123101
0.000125397
0.000126111
0.000126126
0.00012437
0.000121843
0.000119588
0.000117066
0.000114856
0.000113402
0.000112374
0.000112027
0.000112318
0.000113188
0.000114488
0.000116204
0.000118257
0.000120061
0.000120968
0.000121364
0.000121664
0.000121877
0.000122023
0.000122099
0.000122122
0.000122111
0.000121929
0.000120663
0.000113426
0.000100037
0.000121006
0.000152634
0.000157482
0.000197213
0.00019701
0.000194075
0.000184154
0.000181033
0.000178577
0.000173701
0.000170529
0.000167472
0.000163915
0.0001613
0.00015884
0.000156643
0.000155038
0.000153693
0.000152744
0.000152094
0.000151751
0.00015166
0.000151759
0.000152299
0.000155668
0.000166153
9.75844e-05
0.000201768
0.000272273
0.000319453
0.000363535
0.000277669
5.46954e-05
1.58898e-05
8.69656e-10
8.78848e-10
8.89346e-10
9.00953e-10
9.13228e-10
9.25389e-10
9.37549e-10
9.55787e-10
7.774e-05
0.000193651
0.000192467
0.000247854
0.000273979
0.000291939
0.000305396
0.000314706
0.00032084
0.000325146
0.00032779
0.000329114
0.000329729
0.000329811
0.000329495
0.000328967
0.000328275
0.000327448
0.000326504
0.000325438
0.000324231
0.000322831
0.000321231
0.000319402
0.000317249
0.000314735
0.000311935
0.00030892
0.000305745
0.000302458
0.000299113
0.000295759
0.000292063
0.000285868
0.000265807
0.000231891
0.000191955
0.000128899
0.000141868
0.000142246
0.000115803
0.000115118
0.00011036
0.000109598
0.000109646
0.000107878
0.000106943
0.000105979
0.000104463
0.000103426
0.000102371
0.000101331
0.000100576
9.98635e-05
9.92821e-05
9.87741e-05
9.83292e-05
9.79091e-05
9.75067e-05
9.70042e-05
9.60216e-05
8.94783e-05
8.77153e-05
0.000105133
0.000119456
1.77136e-05
0.000186376
0.000243278
0.000100027
3.12944e-05
8.73848e-10
8.82387e-10
8.92207e-10
9.0315e-10
9.14881e-10
9.26929e-10
9.39451e-10
9.57082e-10
0.000189871
0.000491068
0.000515349
0.000540658
0.000555444
0.000563957
0.000570089
0.000574351
0.000576893
0.00057824
0.000578698
0.000578403
0.000577644
0.000576554
0.000575166
0.000573582
0.000571819
0.000569848
0.000567657
0.000565205
0.000562426
0.000559238
0.000555583
0.000551437
0.000546787
0.000541663
0.000536193
0.000530483
0.000524606
0.00051862
0.000512599
0.000506629
0.000500767
0.000495163
0.000483404
0.000463652
0.000431908
0.000388361
0.000337403
0.000340201
0.000306406
0.000294978
0.000289453
0.000286523
0.000285413
0.000284335
0.000283276
0.00028226
0.000280975
0.00027955
0.000278012
0.000276315
0.000274511
0.000272606
0.00027061
0.000268533
0.000266399
0.000264236
0.000262088
0.000259812
0.000256651
0.000238935
0.000211623
0.000186695
0.000140023
9.44895e-05
0.000122753
0.000199484
0.000156126
2.62481e-05
8.12258e-06
8.86008e-10
8.9518e-10
9.05488e-10
9.16691e-10