/*--------------------------------*- C++ -*----------------------------------*\
| =========                 |                                                 |
| \\      /  F ield         | OpenFOAM: The Open Source CFD Toolbox           |
|  \\    /   O peration     | Version:  2312                                  |
|   \\  /    A nd           | Website:  www.openfoam.com                      |
|    \\/     M anipulation  |                                                 |
\*---------------------------------------------------------------------------*/
FoamFile
{
    version     2.0;
    format      ascii;
    arch        "LSB;label=32;scalar=64";
    class       volScalarField;
    location    "200";
    object      turbulenceProperties:k;
}
// * * * * * * * * * * * * * * * * * * * * * * * * * * * * * * * * * * * * * //

dimensions      [0 2 -2 0 0 0 0];

internalField   nonuniform List<scalar> 
10720
(
0.0181805
0.0180854
0.022311
0.0272775
0.0336461
0.0414931
0.0511367
0.0630725
0.0786596
0.100066
0.130585
0.177694
0.254776
0.376409
0.617868
1.17332
2.16685
4.38274
8.28885
12.8519
18.441
28.9344
54.2315
114.77
229.417
335.82
731.938
1254
875.578
367.141
110.725
13.2304
3.02646
0.371321
1e-15
1e-15
0.023786
1.69788
76.9417
0.0289767
0.0302164
0.0225325
0.0146089
0.00993007
0.0177446
0.0197413
0.0202787
0.0223474
0.02545
0.0306596
0.0394161
0.0530588
0.0774721
0.11361
0.195952
0.282047
0.682076
1.01616
1.3052
1.75343
2.59457
3.67929
5.18232
7.00844
8.97346
8.33869
5.16931
2.15901
0.588188
0.0727985
0.00418096
0.00116719
0.000435419
1e-15
0.114317
7.36592
1.8295
132.896
0.00635843
0.00771886
0.00732744
0.00731654
0.00707085
0.00668673
0.00630663
0.00592825
0.00563278
0.00541426
0.00526712
0.00513699
0.00566809
0.00816691
0.0148549
0.0358711
0.0886308
0.227032
0.590392
1.36028
2.69948
4.6625
8.52647
11.7975
38.8571
66.9289
230.89
514.339
436.429
264.297
124.959
45.4316
12.2678
1.65238
0.0319434
1e-15
0.0412456
2.80238
42.6873
0.00386379
0.00433738
0.00381935
0.00763774
0.00991331
0.00912007
0.00554046
0.00523095
0.00538927
0.00550268
0.00551979
0.00541198
0.00517495
0.00487429
0.00403747
0.0346397
0.0505704
0.124991
0.192162
0.027002
0.347401
0.0276838
0.15283
0.0398142
0.0405588
0.0448567
0.0792465
0.0717387
0.0589095
0.0409153
0.0230683
0.0109345
0.00523971
0.00193975
3.79855e-05
0.00777075
0.476736
0.421691
30.3965
0.00168643
2.88854e-05
0.000520695
0.000622112
0.000770913
0.000917719
0.00108821
0.00126748
0.00148784
0.00164011
0.00172186
0.0018856
0.00210697
0.00194167
0.00269291
0.00791335
0.0171274
0.0422348
0.1099
0.259406
0.526681
0.929167
1.73352
2.64277
4.37232
4.12986
58.5667
176.429
173.481
132.979
80.6053
40.0095
14.5703
2.99858
0.259281
0.050322
0.0363045
2.3486
27.3742
0.00231936
0.00886347
0.0113989
0.00924799
0.0051003
0.00148481
0.00017264
0.000368532
0.000669782
0.00100945
0.00141605
0.00184097
0.00231024
0.00276318
0.0031706
0.0035486
0.00347333
0.00378837
0.00132969
0.00536484
0.000187558
0.00575
0.031208
0.00847252
0.000538236
0.00989501
0.0174887
0.0160851
0.013447
0.0095626
0.00560155
0.00285002
0.00153619
0.000747902
0.000329768
0.000174894
0.114283
0.159013
11.0951
0.00712426
0.00746081
0.00782047
0.00814052
0.00840997
0.00864778
0.00884625
0.00901043
0.00952521
0.00955783
0.00915554
0.0091875
0.00921158
0.00921927
0.00922588
0.00927627
0.00874846
0.00605528
0.00223607
0.000908509
1e-15
1e-15
1e-15
1e-15
0.913576
0.87746
9.47331e-05
0.000530541
0.00103202
0.00269943
0.0173765
0.36815
2.27891
2.11835
0.883763
0.222537
0.0284618
1.50844
21.1439
0.0114794
0.0101768
0.0045546
0.00043986
0.0008728
0.00074577
0.000639852
0.000663251
0.000703034
0.000751514
0.000808653
0.00088019
0.000964551
0.00104335
0.0011206
0.00120145
0.00125437
0.000156575
0.000518888
0.000866918
0.00101513
0.00135105
0.00126274
0.00113968
0.0013354
0.00140249
0.00142244
0.00142759
0.00148401
0.00154713
0.00156653
0.00150998
0.00143828
0.00131569
0.00147016
0.000774181
1.40037e-05
0.112884
7.49638
0.0108887
0.00963052
0.00928085
0.00903672
0.0088058
0.0086288
0.00851486
0.00844557
0.00841691
0.00847616
0.00855477
0.00866276
0.00880051
0.00897274
0.00918374
0.00945699
0.00969947
0.0100891
0.0101637
0.00501857
0.00140062
0.000719087
1e-15
1e-15
1e-15
1e-15
2.02808e-05
0.000115284
0.000227369
0.000602373
0.0039236
0.084051
0.000516742
1.28971e-05
0.273445
0.315322
0.0278031
1.28455
16.5739
0.00640054
0.00097959
0.000854712
0.000885851
0.00156638
0.00431591
0.00464803
0.00454956
0.00445102
0.00434787
0.00423556
0.00417091
0.00410384
0.00398312
0.00386654
0.00377517
0.00389437
0.00371508
0.00338676
0.00334844
0.00327178
0.0031798
0.00308652
0.00299839
0.00292158
0.00284946
0.00278106
0.00271552
0.00265247
0.00258561
0.00249434
0.00240107
0.00232496
0.00230567
0.00200617
0.00274781
5.21804e-05
0.0900704
5.69446
0.00284964
0.00335049
0.00276213
0.00243802
0.00216613
0.00195361
0.0018156
0.00172663
0.00168107
0.00168012
0.00172388
0.0018147
0.00195148
0.00213727
0.00238306
0.00270926
0.00307337
0.0036197
0.00454351
0.00541635
0.00585436
0.00384643
0.000879757
0.000520383
1e-15
1e-15
1e-15
1e-15
1e-15
1e-15
1e-15
1e-15
0.000118505
2.98924e-06
1.2545e-07
1.67241e-06
2.06673e-05
0.00115355
0.0332919
0.0010866
0.000716984
0.00151794
0.00521129
0.00669306
0.00725655
0.00728805
0.00730138
0.00731781
0.00734652
0.00737846
0.00747716
0.00758599
0.00757888
0.00758307
0.00765589
0.00772772
0.00781409
0.00784869
0.00784391
0.00780778
0.00774297
0.00765345
0.00754332
0.00741903
0.00728413
0.00713931
0.00698556
0.00682409
0.00666019
0.00648812
0.00622465
0.00588178
0.00554909
0.00485558
0.00481134
9.58957e-05
0.0648152
3.90175
0.000537679
0.000607477
0.000613526
0.00060016
0.000617098
0.000643738
0.000662396
0.000687968
0.000716454
0.000747513
0.00078698
0.00083293
0.000885713
0.000948224
0.001022
0.00111125
0.00120608
0.00134776
0.00023196
0.0010516
0.00209135
0.00309335
0.00345561
0.00270928
0.00110082
1.24444e-06
1e-15
1e-15
1e-15
1e-15
1e-15
1e-15
1e-15
1e-15
2.9167e-08
3.92168e-07
1e-15
0.000274608
0.00797762
0.00111133
0.00372054
0.00639199
0.006149
0.00472587
0.00368094
0.0037613
0.00387694
0.00401423
0.00417902
0.00435983
0.0045403
0.00477686
0.0050571
0.00534878
0.00566121
0.00587849
0.00599832
0.00604795
0.0060483
0.00601299
0.00595162
0.00587077
0.00577769
0.00567674
0.00556919
0.00545664
0.00534088
0.00522295
0.00510283
0.00499408
0.00490522
0.00480673
0.00468726
0.00446923
0.00486744
0.000101797
0.0356492
2.04372
0.0019607
0.00192565
0.00220715
0.00246679
0.00273857
0.00301623
0.00324398
0.00342377
0.00357278
0.00370069
0.00381061
0.00390309
0.00397867
0.00404318
0.00410091
0.0041511
0.00417372
0.00416095
0.00426167
0.00389047
0.00339642
0.00357538
0.00402045
0.00416069
0.00493425
6.31688e-06
3.05948e-07
1e-15
1e-15
1e-15
1e-15
1e-15
1e-15
1e-15
1e-15
1e-15
1e-15
1e-15
1e-15
0.00544656
0.00632955
0.00417961
0.00165935
0.000204538
0.000532683
0.000530679
0.000552278
2.57955e-05
0.000161014
0.000268476
0.000390766
0.000531881
0.000700759
0.000921534
0.00116487
0.00132792
0.00141866
0.00146488
0.00148273
0.00147969
0.0014621
0.00143495
0.00140508
0.00137619
0.00134743
0.00131998
0.00129516
0.00127405
0.00125393
0.0012383
0.00127431
0.00137788
0.00154953
0.00170894
0.0026339
0.000117098
0.0123936
0.67687
0.00577446
0.0051023
0.00512466
0.00511498
0.00512245
0.00516995
0.0051923
0.00518489
0.00519662
0.00523349
0.00528423
0.00533906
0.0053976
0.005481
0.00558196
0.00568049
0.00573661
0.0059066
0.00611515
0.00595242
0.00558006
0.00527928
0.00515683
0.0047719
0.00613262
1.75225e-05
8.81778e-07
1e-15
1e-15
1e-15
1e-15
1e-15
1e-15
1e-15
1e-15
1e-15
1e-15
1e-15
1e-15
0.0053485
0.00225013
0.000837232
0.000315893
0.000215252
0.00019515
0.000190191
0.000204236
0.000215659
0.000218041
0.000234046
0.000257666
0.00028214
0.000309927
0.000346522
0.000389498
0.00042218
0.0004451
0.000461967
0.000474826
0.000484234
0.000490939
0.000495522
0.000498674
0.000500537
0.000501182
0.00050111
0.000500612
0.000499915
0.000498379
0.000496414
0.000501713
0.00051409
0.00055736
0.000566162
5.57613e-06
0.000265961
0.00103436
0.0535361
0.00347999
0.00320927
0.00285461
0.00257546
0.0022909
0.00213877
0.00207945
0.0020075
0.00198422
0.00201343
0.00206018
0.00211795
0.00218584
0.00231691
0.00249905
0.00267315
0.0028726
0.00314888
0.0035743
0.00406058
0.00442616
0.00461303
0.0047776
0.00454728
0.00571049
3.6035e-05
1.88281e-06
1e-15
1e-15
1e-15
1e-15
1e-15
1e-15
1e-15
1e-15
1e-15
1e-15
1e-15
1e-15
0.000972361
0.00043414
0.000402495
0.00072902
0.00137361
0.00138371
0.00132765
0.00143004
0.00148749
0.00136415
0.0013714
0.00141026
0.00141892
0.00141086
0.00139208
0.0013715
0.00135014
0.00132821
0.00130741
0.00128811
0.00126969
0.00125208
0.00123501
0.00121855
0.0012023
0.00118526
0.00116702
0.0011476
0.00112684
0.00110428
0.00107818
0.00103512
0.000955932
0.000949192
0.000794744
0.000442867
0.000692861
8.26643e-05
0.0126698
7.25865e-05
0.000208919
0.000412892
0.000357764
0.000340721
0.000353478
0.000372424
0.000381237
0.000394951
0.000412316
0.000433203
0.000455096
0.000478113
0.000524754
0.000560077
0.000581802
0.000630322
0.000699735
7.18799e-05
0.000627069
0.0012825
0.00189815
0.00252351
0.00276916
0.0041956
6.22141e-05
3.3734e-06
1e-15
1e-15
1e-15
1e-15
1e-15
1e-15
1e-15
1e-15
1e-15
1e-15
1e-15
1e-15
0.000325907
0.000290605
0.00239031
0.00321804
0.00344771
0.00352218
0.00348652
0.00352841
0.0035948
0.00349224
0.00351476
0.00360665
0.00360737
0.00359821
0.00358035
0.00355727
0.00353077
0.00350118
0.00346871
0.00343342
0.00339529
0.00335428
0.00331053
0.00326427
0.00321559
0.00316427
0.00311024
0.00305378
0.00299457
0.00293221
0.00286698
0.00279788
0.00268252
0.00252232
0.0023008
0.00204398
0.00183195
0.000302125
6.43779e-06
0.00046715
0.000332235
6.1426e-05
0.00018374
0.000282403
0.000471036
0.000671262
0.000775339
0.000862974
0.000931288
0.000984007
0.0010246
0.00105328
0.00116092
0.0011273
0.00100054
0.00101087
0.00102125
0.00101543
0.00098558
0.00107468
0.00131295
0.00169954
0.00184795
0.00311927
0.000115011
6.46712e-06
1e-15
1e-15
1e-15
1e-15
1e-15
1e-15
1e-15
1e-15
1e-15
1e-15
1e-15
1e-15
0.00135743
0.00309107
0.00333847
0.00250124
0.00228404
0.00219752
0.00218894
0.00214006
0.00215687
0.00223452
0.00224826
0.00228201
0.00229799
0.00230555
0.00230751
0.00230508
0.00229836
0.00228736
0.00227206
0.00225255
0.00222889
0.00220147
0.00217073
0.00213796
0.00210419
0.0020695
0.00203394
0.0019978
0.00196119
0.00192362
0.00188613
0.00186004
0.00185597
0.001847
0.00181943
0.0017725
0.00178465
0.00151217
0.000135781
0.00231188
0.00237873
0.00261675
0.00286466
0.00308744
0.00323437
0.00335638
0.003459
0.00354653
0.00361653
0.00367047
0.00371312
0.00374835
0.00377612
0.00381331
0.00384144
0.00396786
0.00395284
0.00380544
0.00363126
0.00333211
0.00304326
0.00288905
0.00259931
0.00327021
0.000285899
1.66614e-05
1e-15
1e-15
1e-15
1e-15
1e-15
1e-15
1e-15
1e-15
1e-15
1e-15
1e-15
1e-15
0.00334886
0.00276461
0.00110597
0.000306173
0.000167588
9.58245e-05
9.30395e-05
0.000103162
0.000121743
0.00014648
0.000157995
0.000168817
0.000180291
0.00019212
0.000203409
0.000213714
0.000222363
0.000229027
0.000233403
0.000235455
0.000235149
0.000232863
0.000229142
0.000225233
0.000222023
0.000219289
0.000217098
0.000215604
0.000215057
0.000214964
0.000214501
0.00021673
0.000265042
0.000353142
0.000468503
0.000636756
0.000815868
0.00108758
0.000458268
0.00303167
0.00267967
0.00258857
0.00257532
0.0025539
0.00253914
0.00253296
0.00254004
0.00256931
0.00260673
0.00264394
0.00268852
0.00274603
0.00281575
0.00289548
0.00298396
0.00308328
0.00318859
0.00330217
0.00341755
0.00350534
0.00350089
0.00337288
0.0030562
0.00342451
0.000658735
3.69776e-10
2.09014e-11
1e-15
1e-15
1e-15
1e-15
1e-15
1e-15
1e-15
1e-15
1e-15
1e-15
1e-15
0.00195697
0.000345146
0.000197028
0.00011816
0.000111762
0.000117686
0.000121725
0.000122337
0.000123003
0.000124704
0.000123226
0.000121846
0.000121828
0.000122361
0.000123726
0.000126074
0.00012884
0.000132022
0.000135435
0.000138885
0.000142178
0.000145304
0.000148245
0.000150859
0.00015292
0.00015457
0.000156039
0.000157353
0.000158543
0.000159461
0.000159937
0.00016024
0.000166193
0.000175996
0.00019638
0.000212554
0.000231924
0.000306337
0.000372777
0.000959135
0.000925344
0.000703476
0.000576695
0.000477686
0.000402003
0.000350144
0.000323728
0.000330656
0.00035028
0.000370357
0.000405294
0.000461639
0.000532258
0.000615032
0.000709715
0.000819112
0.000928834
0.00103923
0.00125516
0.0016053
0.0019324
0.00220356
0.00230494
0.00274845
0.00109469
4.07395e-09
2.38685e-10
1e-15
1e-15
1e-15
1e-15
1e-15
1e-15
1e-15
1e-15
1e-15
1e-15
1e-15
0.000365072
0.000107753
0.000263156
0.000529921
0.000605922
0.00069578
0.000718035
0.000722023
0.000718394
0.000712712
0.000705831
0.000698119
0.000690643
0.000683531
0.000676622
0.000670171
0.000664137
0.00065839
0.000652927
0.000647667
0.000642506
0.000637352
0.000632168
0.000626913
0.000621341
0.000615116
0.000608184
0.000600587
0.000592256
0.000582984
0.00057281
0.000559883
0.000526703
0.000470116
0.000434437
0.000321911
0.000174526
0.000225499
0.000359389
0.0001362
0.000152033
0.000155764
0.000151186
0.000154568
0.000158632
0.000157933
0.000160333
0.000165806
0.000171092
0.000176839
0.000184235
0.000194812
0.000208274
0.000223959
0.000242298
0.000263928
0.000286756
0.000310359
0.000361436
0.00041806
0.00010265
0.000484962
0.000820727
0.00131303
0.00106817
1.45285e-08
8.81775e-10
1e-15
1e-15
1e-15
1e-15
1e-15
1e-15
1e-15
1e-15
1e-15
1e-15
1e-15
0.000208698
0.000494029
0.00145659
0.00181353
0.0018225
0.00185622
0.00186578
0.0018608
0.00185159
0.00184216
0.00183351
0.00182515
0.00181726
0.00180958
0.00180161
0.00179333
0.00178453
0.00177493
0.00176442
0.00175283
0.00174002
0.00172582
0.00171021
0.00169318
0.00167462
0.00165442
0.00163261
0.00160945
0.0015848
0.0015585
0.00153067
0.00150188
0.00145983
0.00138707
0.00128284
0.00113384
0.000973949
0.000738936
0.000598535
9.43497e-05
0.000230103
0.00040324
0.000535611
0.000643409
0.000729884
0.000789422
0.000830027
0.000858472
0.000878298
0.000890272
0.000896401
0.00089932
0.000899697
0.000897868
0.000895055
0.000892412
0.000890631
0.000887071
0.00093926
0.000825031
0.000644325
0.000639149
0.000717422
0.000877556
0.0010607
5.12674e-08
3.22115e-09
1e-15
1e-15
1e-15
1e-15
1e-15
1e-15
1e-15
1e-15
1e-15
1e-15
1e-15
0.00117014
0.0017729
0.00173117
0.00131693
0.00125686
0.00123176
0.00122122
0.00121085
0.00120256
0.00119663
0.00119361
0.00119246
0.00119208
0.00119205
0.00119196
0.00119133
0.00118998
0.00118764
0.00118414
0.00117931
0.00117303
0.00116525
0.00115592
0.00114519
0.00113333
0.00112049
0.00110667
0.001092
0.00107654
0.00106009
0.00104305
0.00102894
0.00102646
0.00103024
0.00102692
0.00101166
0.000972114
0.000849814
0.000709146
0.00168995
0.00171835
0.00184703
0.00196201
0.00204016
0.00209467
0.00212819
0.00214563
0.00215346
0.00215521
0.00215373
0.00215087
0.00214718
0.00214351
0.00214013
0.00213694
0.00213378
0.00213023
0.00212558
0.00211701
0.00203966
0.00194723
0.00170752
0.00143634
0.0012765
0.00136535
2.05413e-07
1.33517e-08
1e-15
1e-15
1e-15
1e-15
1e-15
1e-15
1e-15
1e-15
1e-15
1e-15
1e-15
0.00190968
0.001307
0.000448887
0.000178938
0.00014247
0.000113098
0.00010233
9.73368e-05
9.43514e-05
9.32136e-05
9.35149e-05
9.49417e-05
9.70879e-05
9.97076e-05
0.0001026
0.000105637
0.000108663
0.000111619
0.000114376
0.000116871
0.000119015
0.000120817
0.000122296
0.00012361
0.000124857
0.000125967
0.000126936
0.000127761
0.000128549
0.000129136
0.000129292
0.000129085
0.000141329
0.000186168
0.000254586
0.000355337
0.000470076
0.000542577
0.000543047
0.00161918
0.00148224
0.00143357
0.00141631
0.0013831
0.00134858
0.00132139
0.00130067
0.00128844
0.00128438
0.0012861
0.00129246
0.00130231
0.0013153
0.00133106
0.00134937
0.00137014
0.00139341
0.00141958
0.00146199
0.0015364
0.00159319
0.00159927
0.00156508
0.00141456
0.00150116
6.68457e-07
4.49194e-08
1e-15
1e-15
1e-15
1e-15
1e-15
1e-15
1e-15
1e-15
1e-15
1e-15
1e-15
0.000783408
5.72822e-05
7.26638e-05
3.66826e-05
3.52232e-05
3.60419e-05
3.82904e-05
3.85126e-05
3.77618e-05
3.69502e-05
3.57285e-05
3.46287e-05
3.40131e-05
3.35946e-05
3.35006e-05
3.38285e-05
3.44093e-05
3.52726e-05
3.63682e-05
3.76557e-05
3.90609e-05
4.05716e-05
4.21707e-05
4.37247e-05
4.50395e-05
4.61812e-05
4.7255e-05
4.82626e-05
4.92144e-05
5.00625e-05
5.07497e-05
5.11839e-05
5.36987e-05
6.01758e-05
7.39022e-05
8.64459e-05
0.000108715
0.000148379
0.000277294
0.000307701
0.000337519
0.0002231
0.00015876
0.000108255
6.69894e-05
3.74574e-05
2.01779e-05
1.3526e-05
1.51285e-05
2.18879e-05
3.19262e-05
4.43869e-05
5.94961e-05
7.72146e-05
9.72972e-05
0.000120319
0.000146812
0.000176083
0.000212162
0.00029598
0.000450861
0.000648022
0.000835343
0.000904366
0.00118979
1.66743e-06
1.15757e-07
1e-15
1e-15
1e-15
1e-15
1e-15
1e-15
1e-15
1e-15
1e-15
1e-15
1e-15
0.000139873
4.49324e-05
0.000116455
6.95954e-05
9.17283e-05
0.000120544
0.000144507
0.000155323
0.000158193
0.000157945
0.000156244
0.00015383
0.000151506
0.000149352
0.000147255
0.00014541
0.000143798
0.000142366
0.00014112
0.00014007
0.000139172
0.00013838
0.000137743
0.000137263
0.00013675
0.000136009
0.000135069
0.000133999
0.000132789
0.0001314
0.000129808
0.000127515
0.000122899
0.000103599
9.43261e-05
4.36599e-05
9.76064e-05
4.14113e-05
0.00014679
4.59095e-05
5.22729e-05
4.48402e-05
3.91294e-05
3.73076e-05
3.64449e-05
3.49947e-05
3.42952e-05
3.42069e-05
3.45662e-05
3.57227e-05
3.7285e-05
3.91796e-05
4.17027e-05
4.47899e-05
4.84045e-05
5.26358e-05
5.75684e-05
6.30984e-05
6.97542e-05
8.28362e-05
0.000108413
0.000136123
5.89172e-05
0.000204865
0.000601379
2.98626e-06
2.1401e-07
1e-15
1e-15
1e-15
1e-15
1e-15
1e-15
1e-15
1e-15
1e-15
1e-15
1e-15
0.000126569
0.000279183
0.000742456
0.00086473
0.000865194
0.000875771
0.000894792
0.000901476
0.000897847
0.000891389
0.000885607
0.0008808
0.000876818
0.000873342
0.000869991
0.000866672
0.000863256
0.000859578
0.000855581
0.000851163
0.000846228
0.000840665
0.000834421
0.000827477
0.000819764
0.000811237
0.000801932
0.000791966
0.0007813
0.000769885
0.000757762
0.000744932
0.000732237
0.000699403
0.00064218
0.000557763
0.000454033
0.000348851
0.000284623
3.24735e-05
4.40578e-05
8.34272e-05
0.000119912
0.000154797
0.000186895
0.00021079
0.000223901
0.00023065
0.000233795
0.000235144
0.00023568
0.000235539
0.000235428
0.000235691
0.000235846
0.000235869
0.000235691
0.000235283
0.000233854
0.000222806
0.000214613
0.000140363
7.61395e-05
7.05073e-05
0.000320131
6.38013e-06
4.71738e-07
1e-15
1e-15
1e-15
1e-15
1e-15
1e-15
1e-15
1e-15
1e-15
1e-15
1e-15
0.000711272
0.000981008
0.000951897
0.000819955
0.000829167
0.00081581
0.000810776
0.000808107
0.000801033
0.000793738
0.000789166
0.000786756
0.0007853
0.000784218
0.000783182
0.000781944
0.000780407
0.000778489
0.000776083
0.000773118
0.000769506
0.000765168
0.000759978
0.000753899
0.000747048
0.000739523
0.000731321
0.000722504
0.00071308
0.000702965
0.000692256
0.000681155
0.000674371
0.000670068
0.0006543
0.000634242
0.000588677
0.000486194
0.00038645
0.000955884
0.000919292
0.000946342
0.000976772
0.000997283
0.00101215
0.00102281
0.00102527
0.0010236
0.00102123
0.00101857
0.00101583
0.00101224
0.00100925
0.00100696
0.00100437
0.00100132
0.000997686
0.000993375
0.000988346
0.000981699
0.00093286
0.000836629
0.000719406
0.000598837
0.000577888
3.20742e-05
2.49425e-06
1e-15
1e-15
1e-15
1e-15
1e-15
1e-15
1e-15
1e-15
1e-15
1e-15
1e-15
0.00110104
0.000714187
0.000312107
0.000223026
0.000220845
0.000209414
0.000197344
0.000192579
0.00018859
0.000185012
0.000183019
0.000182217
0.000181839
0.00018156
0.000181337
0.00018112
0.000180921
0.000180761
0.000180627
0.000180523
0.000180445
0.000180384
0.000180329
0.000180241
0.000180049
0.000179714
0.000179231
0.000178478
0.000177548
0.000176322
0.000174794
0.000172561
0.00017305
0.000190951
0.000229016
0.000276154
0.000320971
0.000346335
0.000325132
0.000998328
0.000953743
0.00093177
0.000921825
0.000907951
0.000894133
0.000884966
0.00087422
0.000863159
0.000856115
0.000851014
0.000847177
0.000843041
0.000840954
0.000841386
0.000841657
0.000842071
0.000842763
0.000843754
0.00084526
0.000856345
0.000873239
0.000867843
0.000847458
0.000779202
0.000739647
0.000128859
2.86331e-07
2.13412e-08
1e-15
1e-15
1e-15
1e-15
1e-15
1e-15
1e-15
1e-15
1e-15
1e-15
0.000463804
5.12253e-05
5.30737e-05
3.39617e-05
3.4235e-05
3.32743e-05
3.14907e-05
3.01156e-05
2.88286e-05
2.77032e-05
2.64632e-05
2.54033e-05
2.468e-05
2.40158e-05
2.35707e-05
2.343e-05
2.34701e-05
2.37489e-05
2.42385e-05
2.49116e-05
2.57323e-05
2.66933e-05
2.77781e-05
2.88231e-05
2.96416e-05
3.03351e-05
3.10086e-05
3.16317e-05
3.22114e-05
3.27207e-05
3.31526e-05
3.34194e-05
3.4191e-05
3.846e-05
4.69817e-05
5.90203e-05
3.08607e-05
0.000120036
0.000181079
0.000255361
0.000253142
0.000228755
0.000218374
0.00020685
0.000195359
0.000185791
0.000180331
0.000176387
0.000173712
0.000172185
0.000171671
0.000172164
0.000173112
0.000174955
0.000177818
0.000181828
0.000187092
0.000193647
0.000200615
0.000213277
0.000261619
0.000333669
0.000418273
0.000476232
0.000553143
0.000255401
2.36705e-06
1.81927e-07
1e-15
1e-15
1e-15
1e-15
1e-15
1e-15
1e-15
1e-15
1e-15
1e-15
9.22815e-05
1.64047e-05
3.97447e-05
4.56648e-05
4.84231e-05
5.25864e-05
5.55278e-05
5.62242e-05
5.59721e-05
5.53062e-05
5.34873e-05
5.14154e-05
4.97872e-05
4.81815e-05
4.69749e-05
4.63802e-05
4.61398e-05
4.63764e-05
4.70446e-05
4.80764e-05
4.93907e-05
5.09641e-05
5.27679e-05
5.44415e-05
5.55728e-05
5.64166e-05
5.72057e-05
5.79263e-05
5.85625e-05
5.90952e-05
5.95195e-05
5.98358e-05
6.00697e-05
5.87304e-05
5.39373e-05
4.60681e-05
4.41937e-05
5.43937e-05
5.84904e-05
3.55256e-05
3.56827e-05
3.44424e-05
3.15186e-05
3.01458e-05
2.88123e-05
2.68659e-05
2.5947e-05
2.52428e-05
2.45446e-05
2.42528e-05
2.4128e-05
2.41878e-05
2.44528e-05
2.48931e-05
2.55602e-05
2.6462e-05
2.76063e-05
2.89968e-05
3.04943e-05
3.28906e-05
4.08615e-05
5.27104e-05
7.43191e-05
8.29377e-05
0.000193749
0.000233327
9.52519e-06
7.54356e-07
1e-15
1e-15
1e-15
1e-15
1e-15
1e-15
1e-15
1e-15
1e-15
1e-15
4.39423e-05
6.79532e-05
0.000262788
0.000301649
0.000314418
0.000333286
0.000350772
0.000363003
0.000370508
0.000374672
0.000376652
0.000377271
0.000377158
0.000376675
0.000375912
0.000374953
0.00037385
0.000372579
0.000371143
0.000369517
0.000367685
0.000365597
0.000363225
0.000360587
0.000357682
0.000354477
0.000350944
0.000347114
0.000342963
0.000338476
0.000333647
0.000328519
0.000323273
0.000310027
0.000279478
0.000234458
0.0001886
0.000129738
0.000105778
8.73421e-05
5.79121e-05
5.9012e-05
5.52231e-05
5.47408e-05
5.47276e-05
5.32719e-05
5.27913e-05
5.23974e-05
5.16603e-05
5.14315e-05
5.12331e-05
5.10923e-05
5.12125e-05
5.13844e-05
5.16699e-05
5.20148e-05
5.23929e-05
5.27721e-05
5.31177e-05
5.34193e-05
5.17626e-05
4.65602e-05
3.93345e-05
4.70521e-05
6.40595e-05
9.03743e-05
1.83683e-05
1.71687e-06
1e-15
1e-15
1e-15
1e-15
1e-15
1e-15
1e-15
1e-15
1e-15
1e-15
0.0002666
0.000543088
0.000570198
0.000552283
0.000547607
0.000546978
0.000548144
0.000548389
0.000546891
0.000543918
0.000540434
0.000536971
0.000533732
0.000530842
0.000528191
0.000525675
0.000523257
0.000520841
0.000518356
0.000515727
0.000512913
0.000509802
0.000506285
0.000502344
0.00049802
0.00049331
0.000488171
0.000482643
0.000476722
0.000470379
0.000463618
0.000456604
0.000450404
0.000443174
0.000426997
0.000401453
0.000357848
0.000280169
0.000214575
0.000415994
0.000413773
0.000394677
0.000385909
0.00037914
0.000374876
0.000372808
0.000371845
0.000371748
0.000372038
0.000372354
0.000372608
0.000372635
0.000372386
0.000371824
0.000370931
0.000369693
0.000368103
0.000366169
0.000363931
0.000361664
0.000347042
0.000309589
0.00026016
0.000221183
0.000157348
0.000145449
7.38939e-05
1.30957e-06
1.04668e-07
1e-15
1e-15
1e-15
1e-15
1e-15
1e-15
1e-15
1e-15
1e-15
0.000647372
0.000503389
0.000303568
0.000286613
0.000274128
0.00025984
0.000247606
0.000238062
0.000230668
0.00022431
0.000219017
0.000214871
0.000211592
0.000209014
0.000206917
0.000205095
0.000203462
0.000201949
0.000200438
0.00019893
0.000197354
0.00019567
0.00019387
0.000191922
0.00018991
0.000187845
0.000185709
0.000183501
0.000181265
0.000178934
0.000176544
0.000173989
0.000172187
0.000176485
0.000190941
0.000211352
0.000228194
0.000228573
0.000206859
0.000628479
0.000582742
0.000571925
0.000561216
0.000553023
0.000546953
0.00054321
0.000540745
0.000539113
0.000537938
0.0005368
0.000535621
0.000534304
0.000532796
0.000531082
0.000529157
0.000527002
0.000524605
0.000521948
0.000519107
0.000517529
0.000515195
0.000498872
0.000470233
0.000431517
0.000364845
0.00030104
0.000214656
1.60744e-05
1.38365e-06
1e-15
1e-15
1e-15
1e-15
1e-15
1e-15
1e-15
1e-15
1e-15
0.000417664
0.000119206
5.9884e-05
4.45457e-05
4.33132e-05
4.20284e-05
4.01577e-05
3.77465e-05
3.56293e-05
3.37978e-05
3.16563e-05
2.96793e-05
2.81679e-05
2.6792e-05
2.57283e-05
2.50811e-05
2.46736e-05
2.4584e-05
2.47724e-05
2.52086e-05
2.58361e-05
2.66448e-05
2.76148e-05
2.8511e-05
2.90823e-05
2.94976e-05
2.99069e-05
3.03015e-05
3.06844e-05
3.10357e-05
3.13612e-05
3.16361e-05
3.20237e-05
3.35534e-05
3.70865e-05
4.38928e-05
3.66573e-05
8.81878e-05
0.000118514
0.00026236
0.000263741
0.000245086
0.00023599
0.000231257
0.00022785
0.000225546
0.000223885
0.000222449
0.000221184
0.000219919
0.000218732
0.000217642
0.000216655
0.000215839
0.000215212
0.000214805
0.000214676
0.000214821
0.000215202
0.000216695
0.000226556
0.000249083
0.000273042
0.000291335
0.000297551
0.000285509
0.000270037
6.03029e-05
3.64165e-07
2.94049e-08
1e-15
1e-15
1e-15
1e-15
1e-15
1e-15
1e-15
1e-15
6.69396e-06
1.75977e-05
5.1781e-06
8.41707e-06
1.026e-05
1.17162e-05
1.26481e-05
1.29511e-05
1.29707e-05
1.28857e-05
1.24772e-05
1.19514e-05
1.15094e-05
1.10398e-05
1.06483e-05
1.04101e-05
1.02599e-05
1.02423e-05
1.03505e-05
1.05774e-05
1.09012e-05
1.13267e-05
1.18469e-05
1.235e-05
1.26944e-05
1.29473e-05
1.31895e-05
1.34176e-05
1.36306e-05
1.3822e-05
1.39895e-05
1.41296e-05
1.42034e-05
1.3991e-05
1.24014e-05
9.64779e-06
1.40743e-05
2.22677e-05
2.35182e-05
3.72668e-05
3.79103e-05
3.76e-05
3.46327e-05
3.42156e-05
3.40632e-05
3.29658e-05
3.24721e-05
3.19894e-05
3.1274e-05
3.08768e-05
3.05043e-05
3.01986e-05
3.009e-05
3.00548e-05
3.01473e-05
3.03316e-05
3.06102e-05
3.0961e-05
3.13547e-05
3.18928e-05
3.35977e-05
3.85259e-05
1.33483e-05
5.71926e-05
0.000104142
0.000143004
0.000184208
0.000106562
4.0873e-06
3.39907e-07
1e-15
1e-15
1e-15
1e-15
1e-15
1e-15
1e-15
1e-15
5.68675e-06
3.46798e-05
3.36168e-05
5.46587e-05
6.55669e-05
7.31608e-05
7.88227e-05
8.26516e-05
8.51013e-05
8.68305e-05
8.7889e-05
8.84202e-05
8.87082e-05
8.88165e-05
8.87935e-05
8.87258e-05
8.86324e-05
8.85281e-05
8.84247e-05
8.83279e-05
8.82357e-05
8.81318e-05
8.80252e-05
8.79044e-05
8.76967e-05
8.7345e-05
8.68621e-05
8.62616e-05
8.55456e-05
8.47113e-05
8.37622e-05
8.26911e-05
8.12821e-05
7.83261e-05
6.79469e-05
5.17497e-05
3.53855e-05
1.58856e-05
1.91231e-05
1.94868e-05
1.31521e-05
1.32683e-05
1.246e-05
1.25479e-05
1.28337e-05
1.2692e-05
1.27324e-05
1.2757e-05
1.26348e-05
1.26138e-05
1.25764e-05
1.253e-05
1.25431e-05
1.25565e-05
1.25925e-05
1.26365e-05
1.2685e-05
1.27268e-05
1.27582e-05
1.2746e-05
1.25881e-05
1.09991e-05
1.06156e-05
1.52848e-05
1.97375e-05
4.3311e-07
4.77246e-05
8.07051e-05
1.35018e-05
1.3039e-06
1e-15
1e-15
1e-15
1e-15
1e-15
1e-15
1e-15
1e-15
3.41289e-05
0.000224568
0.000242942
0.000262433
0.000272179
0.000275993
0.000277884
0.000278685
0.000278646
0.000278191
0.000277525
0.000276669
0.000275776
0.000274873
0.000273924
0.000272983
0.000272045
0.000271075
0.000270072
0.000269012
0.000267862
0.000266573
0.00026513
0.000263526
0.000261693
0.00025957
0.000257205
0.000254638
0.000251861
0.000248858
0.000245623
0.000242149
0.000238406
0.000234457
0.000224259
0.000206554
0.00017901
0.000144255
0.000108365
0.000111991
9.2424e-05
8.73534e-05
8.58473e-05
8.57999e-05
8.68993e-05
8.80105e-05
8.90733e-05
9.01265e-05
9.09406e-05
9.15868e-05
9.20916e-05
9.24155e-05
9.25955e-05
9.26361e-05
9.25399e-05
9.23093e-05
9.19525e-05
9.14797e-05
9.09097e-05
9.01318e-05
8.86114e-05
7.72558e-05
6.08557e-05
4.74714e-05
2.67138e-05
1.21444e-05
2.04132e-05
5.35488e-05
3.24931e-05
9.07207e-07
8.55684e-08
1e-15
1e-15
1e-15
1e-15
1e-15
1e-15
1e-15
0.000319454
0.000325863
0.000268777
0.000237971
0.000230954
0.000224902
0.000219804
0.000215964
0.000212849
0.000210206
0.000208159
0.000206544
0.000205169
0.000204006
0.000202983
0.000202026
0.000201105
0.000200189
0.000199238
0.000198222
0.000197104
0.000195856
0.000194418
0.000192779
0.000191006
0.000189136
0.000187172
0.000185097
0.000182911
0.00018061
0.000178177
0.000175612
0.000172908
0.000171478
0.000173024
0.000174278
0.00017059
0.000158557
0.000135221
0.000341775
0.000305172
0.000293943
0.000290379
0.000288814
0.000288505
0.00028852
0.000288419
0.00028824
0.000287821
0.000287178
0.000286388
0.000285403
0.000284258
0.000282968
0.000281518
0.000279922
0.000278175
0.000276274
0.000274216
0.000271997
0.000269884
0.000259599
0.000241506
0.000217321
0.000186565
0.000157644
0.000123161
0.000101262
8.33594e-05
1.43963e-05
5.63223e-08
4.65082e-09
1e-15
1e-15
1e-15
1e-15
1e-15
1e-15
0.000304883
0.00012817
6.98107e-05
5.63484e-05
4.81795e-05
4.35791e-05
3.9672e-05
3.65374e-05
3.41094e-05
3.21625e-05
3.05744e-05
2.92935e-05
2.82279e-05
2.73217e-05
2.65577e-05
2.58822e-05
2.52858e-05
2.47444e-05
2.42555e-05
2.38018e-05
2.34008e-05
2.30451e-05
2.27402e-05
2.24852e-05
2.22678e-05
2.21051e-05
2.19756e-05
2.18565e-05
2.1744e-05
2.16284e-05
2.14925e-05
2.13255e-05
2.0858e-05
2.08328e-05
2.80926e-05
4.1975e-05
6.10462e-05
8.0991e-05
8.79585e-05
0.00024998
0.0002426
0.000232175
0.000226156
0.000222334
0.000219167
0.000216813
0.000214626
0.000212537
0.000210671
0.000208886
0.000207202
0.000205607
0.000204062
0.000202569
0.000201129
0.000199746
0.0001984
0.000197069
0.000195747
0.000194353
0.000194727
0.000198828
0.00020171
0.000200504
0.000194472
0.000183384
0.000164711
0.000139741
0.000122384
5.22551e-05
2.96202e-06
2.55602e-07
1e-15
1e-15
1e-15
1e-15
1e-15
1e-15
8.1852e-05
2.72551e-05
1.10444e-05
8.90735e-06
7.73413e-06
7.15442e-06
6.52247e-06
5.86126e-06
5.31588e-06
4.8723e-06
4.41753e-06
4.01149e-06
3.68964e-06
3.39561e-06
3.15629e-06
2.98277e-06