/*--------------------------------*- C++ -*----------------------------------*\
| =========                 |                                                 |
| \\      /  F ield         | OpenFOAM: The Open Source CFD Toolbox           |
|  \\    /   O peration     | Version:  2312                                  |
|   \\  /    A nd           | Website:  www.openfoam.com                      |
|    \\/     M anipulation  |                                                 |
\*---------------------------------------------------------------------------*/
FoamFile
{
    version     2.0;
    format      ascii;
    arch        "LSB;label=32;scalar=64";
    class       volVectorField;
    location    "200";
    object      U;
}
// * * * * * * * * * * * * * * * * * * * * * * * * * * * * * * * * * * * * * //

dimensions      [0 1 -1 0 0 0 0];

internalField   nonuniform List<vector> 
10720
(
(0.587152 25.507 6.04339e-18)
(2.19082 27.8203 -5.51755e-18)
(4.22662 30.074 0)
(6.59223 31.879 -3.3272e-16)
(9.22771 33.306 3.71399e-16)
(12.0696 34.307 2.82137e-16)
(14.9688 34.7826 4.05304e-16)
(17.831 34.7619 0)
(20.5732 34.3018 0)
(23.1134 33.4382 0)
(25.413 32.2445 1.15646e-16)
(27.45 30.8171 0)
(29.1761 29.1601 2.29362e-15)
(30.5607 27.2865 0)
(31.5659 25.2107 0)
(32.1767 22.964 0)
(32.3508 20.5495 -4.11851e-15)
(32.0632 18.0076 -6.3562e-15)
(31.2778 15.3516 5.86138e-15)
(30.0213 12.6511 0)
(28.3545 9.98881 5.31992e-15)
(26.5705 7.52921 -1.09964e-14)
(25.3703 5.48761 5.57537e-15)
(25.4864 3.96533 -1.51449e-16)
(27.9223 2.60992 0)
(30.0867 2.0933 1.21091e-15)
(32.0961 1.58494 1.18193e-17)
(32.4744 0.0221358 -2.38778e-16)
(31.7795 -1.92316 -9.19214e-16)
(30.8894 -2.74692 -3.53079e-15)
(29.6767 -2.90405 2.12471e-15)
(27.5376 -2.93948 6.05696e-15)
(23.9165 -2.6441 6.19847e-15)
(17.6899 -2.01936 2.53587e-14)
(5.92328 -0.716197 -1.70726e-14)
(-3.09524 -0.226033 -2.55708e-16)
(14.5284 -3.22721 2.53059e-17)
(15.4924 -2.6791 2.09628e-14)
(-9.13824 2.05197 -1.6431e-14)
(-0.651996 23.0596 -5.30423e-18)
(-1.61768 20.3244 -2.36306e-17)
(-2.23426 17.2639 8.20017e-17)
(-2.38596 13.7522 -2.23512e-16)
(-1.91652 10.1374 -7.41553e-16)
(-0.820106 6.59566 1.31908e-15)
(0.739438 3.48828 7.78783e-15)
(2.49289 0.963376 3.22203e-15)
(4.5279 -1.36196 0)
(6.82659 -3.27685 0)
(9.0804 -4.60213 1.73418e-15)
(11.1197 -5.41203 6.40183e-16)
(12.9223 -5.84926 -1.08149e-15)
(14.496 -6.02521 8.91733e-16)
(15.8588 -6.03102 1.47213e-15)
(17.0446 -5.92783 9.48248e-16)
(18.0879 -5.76462 1.19481e-15)
(19.0232 -5.56532 7.84938e-16)
(19.8838 -5.33828 0)
(20.6875 -5.09769 0)
(21.4528 -4.84067 -1.01457e-15)
(22.1959 -4.53717 -4.19972e-17)
(22.9071 -4.19325 5.99024e-16)
(23.5546 -3.7826 -3.55485e-16)
(24.0654 -3.30813 2.78455e-17)
(24.4261 -2.77921 0)
(24.6556 -2.21507 -1.78015e-17)
(24.7788 -1.65894 0)
(24.7324 -1.13134 0)
(24.4926 -0.635707 -9.91633e-17)
(24.0507 -0.170589 0)
(23.4045 0.261948 5.01455e-16)
(22.5516 0.655644 9.16642e-16)
(21.4775 0.998507 4.34096e-15)
(20.1456 1.2928 -1.40815e-15)
(18.5624 1.46517 5.12894e-18)
(17.2186 1.82931 0)
(15.5529 1.36608 1.76849e-15)
(19.5783 3.33655 2.03195e-15)
(6.97922 22.1216 -1.30145e-17)
(8.73266 23.8625 5.32649e-18)
(10.889 25.464 0)
(13.3935 26.8215 0)
(16.1145 27.8695 -1.09055e-16)
(19.0565 28.5478 -2.70861e-16)
(22.1117 28.8075 0)
(25.1527 28.6636 0)
(28.1261 28.1226 6.091e-16)
(30.9473 27.2285 0)
(33.5654 26.0379 2.30875e-15)
(35.9509 24.5918 0)
(38.1055 22.9885 8.40036e-16)
(40.0488 21.3019 -8.24394e-16)
(41.8023 19.5556 1.67618e-15)
(43.3338 17.7824 -3.35552e-15)
(44.6202 16.0054 3.58534e-15)
(45.633 14.2452 3.26576e-15)
(46.3333 12.4969 3.18737e-15)
(46.6577 10.7544 1.94516e-16)
(46.5337 8.98089 -3.34822e-15)
(45.9082 7.13497 3.23039e-15)
(44.6465 5.18283 -1.83542e-16)
(42.722 3.21515 0)
(39.4848 1.69267 0)
(36.439 0.453408 0)
(34.4934 -0.235544 5.75786e-17)
(33.4293 -0.666041 -9.73662e-18)
(32.5082 -1.06996 6.65121e-16)
(31.5608 -1.62189 -1.95762e-17)
(30.5888 -2.17809 4.48322e-18)
(29.7149 -2.59549 -3.99981e-17)
(29.1562 -2.887 4.1184e-15)
(28.2455 -2.96388 -6.74081e-15)
(20.059 -2.181 -3.83797e-17)
(9.52067 -1.41253 -1.16233e-14)
(18.4452 -3.6236 0)
(11.5108 -0.835223 -4.77348e-15)
(-8.87666 2.21841 -8.08473e-15)
(5.52208 20.2809 1.77702e-17)
(4.27834 18.2489 -6.44228e-17)
(3.22818 15.8823 -7.3668e-16)
(2.47669 13.2111 9.22569e-16)
(2.20717 10.3284 0)
(2.50665 7.3922 -1.95377e-15)
(3.36728 4.62984 -1.52629e-15)
(4.61594 2.15462 -9.60899e-15)
(6.17476 -0.036713 2.27585e-15)
(8.00244 -1.74612 -1.67686e-15)
(9.90008 -2.91821 2.11265e-15)
(11.7204 -3.65638 -5.98604e-16)
(13.4091 -4.0773 0)
(14.9441 -4.26518 -3.87417e-16)
(16.3166 -4.29933 6.29397e-17)
(17.5412 -4.23255 -8.44422e-16)
(18.6388 -4.10734 0)
(19.6372 -3.94578 0)
(20.5579 -3.7674 -8.34842e-17)
(21.427 -3.55844 8.10807e-17)
(22.2602 -3.31751 -9.19696e-16)
(23.0588 -3.0388 -9.21363e-17)
(23.833 -2.67972 4.02601e-17)
(24.5576 -2.20768 3.83394e-16)
(25.1846 -1.62164 -1.99072e-16)
(25.6815 -1.00603 -1.06276e-16)
(26.0707 -0.395156 0)
(26.3598 0.204089 0)
(26.614 0.786423 0)
(26.8518 1.34605 9.58148e-18)
(27.0717 1.87023 0)
(27.2654 2.35165 0)
(27.4178 2.7874 -1.39449e-15)
(27.5107 3.17494 -1.25298e-15)
(27.5001 3.50414 9.75977e-16)
(27.4063 3.8396 -5.65939e-16)
(26.6664 3.98501 1.82616e-16)
(26.3986 4.6693 -1.42704e-15)
(23.051 4.26553 -1.0357e-15)
(8.39928 20.3949 -3.16747e-18)
(9.64523 21.928 -1.61878e-17)
(11.1746 23.4335 1.03547e-17)
(12.9456 24.8375 -2.13358e-17)
(14.9129 26.0241 -1.37062e-16)
(17.0763 26.9712 4.99678e-16)
(19.3654 27.6377 -3.55145e-16)
(21.7091 27.984 -4.37891e-16)
(24.0523 28.0078 1.10544e-17)
(26.3378 27.7176 -5.93867e-16)
(28.5129 27.1325 5.64766e-16)
(30.5435 26.2805 -1.48378e-15)
(32.3987 25.1891 -7.12505e-16)
(34.0651 23.8815 0)
(35.5196 22.3942 -1.74895e-15)
(36.7854 20.7484 3.55744e-15)
(37.9117 18.9476 0)
(38.9106 17.031 -6.80196e-15)
(39.817 15.0245 -3.41237e-15)
(40.6297 12.9732 3.99617e-16)
(41.3477 10.893 -3.92676e-16)
(41.8785 8.8131 -1.79298e-16)
(42.0655 6.75106 -2.52697e-15)
(41.7736 4.84822 1.24092e-15)
(40.8494 3.18473 0)
(39.5562 1.83934 9.69727e-16)
(37.1761 0.517992 -7.4886e-17)
(35.0929 -0.401974 0)
(33.5078 -1.07128 9.91224e-16)
(32.0649 -1.71092 1.61748e-15)
(30.8487 -2.25896 -3.19755e-15)
(29.6813 -2.68146 -3.70338e-15)
(28.5583 -2.89689 -8.74554e-17)
(28.7259 -2.93883 -5.7287e-15)
(26.0755 -2.75549 -4.35409e-15)
(21.8167 -2.88372 7.78677e-15)
(24.647 -4.39553 0)
(8.42101 0.453797 -3.4608e-15)
(-8.22445 2.15725 1.47686e-14)
(7.39644 18.7904 -2.16874e-17)
(6.52997 17.051 -7.21047e-17)
(5.8347 15.0153 3.00328e-16)
(5.30427 12.7479 0)
(5.08894 10.3272 5.35942e-16)
(5.23047 7.83828 0)
(5.75455 5.42036 3.85828e-15)
(6.60848 3.17551 1.93874e-15)
(7.775 1.18599 1.57794e-15)
(9.18171 -0.459903 0)
(10.6914 -1.73798 -2.21568e-15)
(12.1968 -2.68336 -4.64256e-16)
(13.6425 -3.35079 2.09481e-15)
(14.9974 -3.79255 0)
(16.2442 -4.06006 -9.48025e-16)
(17.3829 -4.19756 -2.84851e-16)
(18.4237 -4.24234 1.15302e-15)
(19.3829 -4.218 5.89378e-16)
(20.2796 -4.13976 1.56409e-16)
(21.1303 -4.01018 -8.73098e-17)
(21.9474 -3.83042 8.44721e-16)
(22.7412 -3.5906 0)
(23.5091 -3.27429 0)
(24.2299 -2.86489 2.79471e-17)
(24.8568 -2.38178 0)
(25.3689 -1.87121 2.39622e-16)
(25.778 -1.3524 -2.22726e-18)
(26.0972 -0.83225 8.77515e-18)
(26.3316 -0.317705 0)
(26.4869 0.185935 7.42625e-17)
(26.5742 0.677582 -1.54802e-16)
(26.606 1.15401 0)
(26.5952 1.61314 6.62012e-16)
(26.557 2.05248 0)
(26.5016 2.48197 0)
(26.4662 2.90055 5.31675e-17)
(26.2775 3.35664 -1.06818e-16)
(26.2075 3.83228 1.30792e-15)
(23.8292 4.18129 7.73345e-16)
(10.8931 18.6826 -1.72367e-17)
(12.0545 19.984 -1.81558e-17)
(13.4601 21.2635 1.38658e-17)
(15.089 22.4465 5.23487e-18)
(16.9005 23.443 0)
(18.9017 24.2362 0)
(21.0405 24.7809 -5.94824e-16)
(23.2597 25.0398 7.34685e-16)
(25.5145 25.0036 0)
(27.7517 24.6713 -9.36346e-16)
(29.9211 24.0539 -1.21446e-15)
(31.9848 23.1705 -1.1533e-15)
(33.9077 22.0484 1.39619e-15)
(35.6614 20.7208 1.32144e-15)
(37.2266 19.2223 0)
(38.5938 17.5853 2.13234e-15)
(39.7189 15.8632 7.39594e-16)
(40.5789 14.0991 6.02343e-15)
(41.1668 12.3218 3.66655e-16)
(41.4999 10.5478 -3.63056e-16)
(41.6012 8.78888 3.10771e-15)
(41.4998 7.05634 -5.12795e-16)
(41.195 5.37249 2.83511e-15)
(40.6795 3.83341 1.17294e-15)
(39.9805 2.5891 -6.6458e-17)
(39.2533 1.58973 -9.91875e-16)
(38.3443 0.754864 6.28308e-18)
(37.0136 -0.0836914 -6.13147e-18)
(35.5263 -0.915175 -1.49172e-15)
(33.9095 -1.65047 -4.02556e-17)
(32.2354 -2.22971 2.55928e-15)
(30.582 -2.65973 -4.53887e-15)
(28.8928 -2.86973 -3.76469e-15)
(27.9204 -2.80579 -4.3544e-17)
(26.7731 -2.76783 3.95722e-15)
(25.2512 -3.26643 0)
(26.8189 -4.39642 1.35715e-15)
(6.82496 1.55558 2.74202e-15)
(-7.74522 2.34933 -8.57357e-15)
(9.9308 17.3281 -3.38008e-17)
(9.08048 15.8691 1.00961e-16)
(8.36091 14.1557 4.11628e-16)
(7.78324 12.231 0)
(7.47406 10.1689 -4.65852e-16)
(7.46235 8.02865 0)
(7.76459 5.90513 -2.75947e-15)
(8.35388 3.89208 -1.01159e-16)
(9.21502 2.0715 1.16481e-15)
(10.2952 0.509531 1.00405e-15)
(11.5049 -0.757749 3.11652e-17)
(12.7645 -1.73368 1.6726e-15)
(14.0216 -2.45138 -1.05489e-15)
(15.2399 -2.95056 3.36579e-16)
(16.395 -3.27106 1.12928e-15)
(17.4767 -3.45267 1.22725e-15)
(18.485 -3.52915 -1.08478e-15)
(19.4269 -3.52594 9.75065e-18)
(20.3139 -3.46083 0)
(21.158 -3.34159 1.07598e-15)
(21.9687 -3.17028 5.01036e-17)
(22.7515 -2.93987 -7.57221e-16)
(23.5052 -2.64084 0)
(24.2123 -2.25289 2.81519e-17)
(24.8354 -1.78025 0)
(25.3513 -1.26259 -1.2297e-16)
(25.7666 -0.723162 0)
(26.0926 -0.173653 -8.436e-18)
(26.3342 0.376332 9.0498e-19)
(26.497 0.915972 -7.28671e-19)
(26.5842 1.42975 1.42433e-16)
(26.6008 1.90609 4.3785e-18)
(26.5521 2.34186 0)
(26.4416 2.73362 -4.73041e-16)
(26.2734 3.086 -6.83135e-18)
(26.0554 3.40732 4.75067e-16)
(25.7273 3.7243 -3.01923e-17)
(25.3899 4.05592 2.49641e-18)
(23.857 4.14495 0)
(12.4664 17.4001 -2.31814e-17)
(13.4456 18.5526 -9.85603e-18)
(14.6358 19.7064 2.36085e-17)
(16.0061 20.7982 2.94827e-17)
(17.5212 21.7461 -2.41105e-17)
(19.2018 22.5475 -1.39611e-16)
(21.0045 23.1618 2.50416e-16)
(22.8851 23.5525 0)
(24.8146 23.7087 1.05784e-15)
(26.7483 23.6217 5.083e-16)
(28.6461 23.2912 0)
(30.4746 22.7263 1.10722e-15)
(32.1995 21.9432 -5.93769e-16)
(33.7921 20.961 1.65366e-15)
(35.2311 19.803 0)
(36.4966 18.4918 -2.8068e-15)
(37.5775 17.0427 2.70358e-15)
(38.482 15.4534 -1.67427e-16)
(39.2018 13.7421 0)
(39.7206 11.9431 2.96883e-15)
(40.0221 10.0889 -3.0199e-15)
(40.0851 8.22712 -1.56053e-16)
(39.8877 6.40724 -2.39961e-15)
(39.4116 4.73072 -2.23511e-15)
(38.7357 3.29413 0)
(37.9784 2.12126 0)
(37.2886 1.15536 -2.34839e-16)
(36.5999 0.245038 -2.6163e-17)
(35.7891 -0.639816 1.62563e-15)
(34.8086 -1.41382 -4.2783e-17)
(33.6551 -2.03878 4.34034e-17)
(32.3068 -2.51726 4.47579e-15)
(30.6964 -2.80212 0)
(28.8317 -2.74042 1.0169e-14)
(26.9812 -2.66973 -3.32601e-17)
(26.0674 -3.19504 0)
(26.7897 -3.75599 -4.41776e-17)
(6.60933 2.40233 0)
(-7.51448 2.97896 1.78007e-14)
(11.6482 16.2065 3.62098e-17)
(10.9219 14.9333 -2.15825e-16)
(10.2869 13.4365 -4.59924e-17)
(9.74993 11.7571 9.20229e-16)
(9.4227 9.9634 -1.44877e-15)
(9.32806 8.09216 -1.87275e-15)
(9.4854 6.20907 2.09002e-15)
(9.88756 4.39961 -2.01312e-15)
(10.5259 2.74196 -8.85597e-16)
(11.3618 1.28414 -7.76435e-16)
(12.3325 0.057104 1.49075e-15)
(13.3772 -0.932414 -1.41343e-15)
(14.4521 -1.70413 -6.10216e-16)
(15.5231 -2.28485 5.94979e-16)
(16.5646 -2.70051 -1.26774e-15)
(17.5619 -2.9812 2.35268e-16)
(18.5094 -3.15322 0)
(19.4074 -3.23793 -8.52412e-16)
(20.2619 -3.25061 2.9804e-16)
(21.0807 -3.19952 -1.1337e-15)
(21.8703 -3.08687 0)
(22.6341 -2.90879 6.59736e-16)
(23.3697 -2.65612 4.98788e-16)
(24.0616 -2.31672 -3.38092e-16)
(24.6781 -1.89702 0)
(25.1962 -1.43025 -1.64029e-16)
(25.6184 -0.941888 0)
(25.9532 -0.444859 0)
(26.2054 0.050952 0)
(26.3792 0.535534 -4.28512e-17)
(26.4782 1.00138 0)
(26.5082 1.44757 0)
(26.4743 1.87223 4.78805e-16)
(26.378 2.27177 4.56306e-16)
(26.2209 2.64865 0)
(25.9979 3.00728 3.49059e-16)
(25.6566 3.36409 9.56902e-17)
(25.1984 3.69339 0)
(23.8539 4.08756 -2.39289e-16)
(13.9427 16.2721 2.93953e-17)
(14.8305 17.2916 -2.0904e-17)
(15.9055 18.3178 0)
(17.1384 19.2916 1.00762e-17)
(18.4949 20.1402 -5.57795e-17)
(20.0039 20.8663 1.30785e-16)
(21.6281 21.4312 4.42326e-17)
(23.3322 21.8019 -6.33312e-16)
(25.0967 21.9648 -8.60831e-17)
(26.8852 21.9071 1.0219e-15)
(28.6637 21.6231 -3.66832e-16)
(30.4031 21.1142 8.46617e-16)
(32.0708 20.3881 4.26202e-16)
(33.6379 19.457 3.044e-16)
(35.0799 18.3378 0)
(36.374 17.0501 -6.061e-16)
(37.5035 15.6142 -1.35669e-15)
(38.4387 14.0748 -5.03664e-15)
(39.157 12.4722 1.49241e-15)
(39.6501 10.8319 -1.90824e-15)
(39.9127 9.17614 -2.98876e-16)
(39.9417 7.52523 0)
(39.7265 5.90879 2.13706e-15)
(39.257 4.39481 1.37258e-16)
(38.577 3.07339 -6.08888e-17)
(37.7941 1.97575 -8.46885e-16)
(37.0123 1.04017 1.92688e-16)
(36.2422 0.167916 4.02187e-16)
(35.4336 -0.658317 -1.50594e-15)
(34.5593 -1.38851 -7.8989e-17)
(33.6312 -1.99458 2.49758e-15)
(32.5937 -2.4725 3.95347e-15)
(31.4669 -2.75942 0)
(29.9779 -2.71223 2.46207e-17)
(28.004 -2.65204 -3.48704e-15)
(26.926 -3.03227 0)
(25.7159 -2.75714 -1.23569e-15)
(6.48387 3.18036 0)
(-8.04273 5.19362 -8.14934e-14)
(13.1929 15.2194 -3.5662e-17)
(12.5235 14.1032 8.67816e-17)
(11.9245 12.7866 -2.12066e-16)
(11.404 11.3059 0)
(11.0592 9.72637 6.10152e-16)
(10.9066 8.07061 2.99078e-15)
(10.9646 6.38581 0)
(11.2335 4.75247 -1.46139e-15)
(11.7072 3.24224 -1.38424e-15)
(12.3569 1.88919 1.37613e-15)
(13.1373 0.720182 -5.39918e-17)
(14.0024 -0.251718 5.91122e-16)
(14.9181 -1.03687 3.54294e-17)
(15.8551 -1.65248 1.52663e-15)
(16.7891 -2.11491 1.35084e-15)
(17.7043 -2.44598 -1.25798e-15)
(18.5913 -2.66605 1.73871e-16)
(19.4461 -2.79311 -3.21885e-16)
(20.2696 -2.84113 1.4826e-16)
(21.0651 -2.81895 8.41916e-16)
(21.836 -2.7302 1.0764e-16)
(22.5834 -2.57318 -7.26001e-17)
(23.3035 -2.34147 -4.2081e-16)
(23.9821 -2.02673 0)
(24.5918 -1.6335 1.35651e-17)
(25.1111 -1.18811 3.16835e-16)
(25.5384 -0.714106 -8.47074e-19)
(25.8801 -0.223892 8.48685e-19)
(26.14 0.272981 0)
(26.3218 0.766693 4.05111e-17)
(26.4288 1.24822 0)
(26.4655 1.70554 0)
(26.4371 2.13256 -4.48025e-16)
(26.3455 2.5242 -3.71825e-16)
(26.1928 2.88214 0)
(25.9754 3.2094 -3.29628e-16)
(25.6374 3.52826 -3.48554e-16)
(25.2074 3.7769 5.6611e-18)
(23.884 4.02228 4.06059e-16)
(15.1458 15.3167 1.73841e-18)
(15.9434 16.231 -1.9161e-17)
(16.9085 17.1584 2.23191e-17)
(18.01 18.0436 -2.16247e-17)
(19.2133 18.8217 4.19274e-17)
(20.5524 19.5012 0)
(21.9933 20.0482 -2.69824e-16)
(23.5062 20.4329 3.19209e-19)
(25.0797 20.6438 -3.01666e-16)
(26.6828 20.6681 -6.16157e-16)
(28.2882 20.4973 0)
(29.8725 20.1295 -1.5329e-15)
(31.4059 19.5674 -1.33409e-15)
(32.8617 18.8181 -3.27055e-15)
(34.2151 17.8937 0)
(35.4427 16.8096 -2.04852e-15)
(36.5218 15.5861 -2.16723e-15)
(37.4357 14.2379 2.38116e-15)
(38.1741 12.7744 -2.35118e-15)
(38.7229 11.2193 2.18596e-15)
(39.0694 9.60153 2.708e-16)
(39.2003 7.96061 -2.33962e-15)
(39.1001 6.34331 0)
(38.7573 4.82107 -2.03788e-15)
(38.2 3.47561 1.20525e-16)
(37.5203 2.33361 8.82311e-16)
(36.8041 1.34517 0)
(36.0524 0.436272 -2.96743e-17)
(35.2308 -0.414913 6.35728e-17)
(34.3292 -1.17124 2.42663e-15)
(33.3855 -1.80026 -2.20703e-15)
(32.3679 -2.30298 -3.71923e-15)
(31.3644 -2.60562 2.92609e-15)
(30.3447 -2.61017 -7.82189e-18)
(28.8328 -2.63547 3.22704e-15)
(27.8668 -2.82274 4.16741e-15)
(24.1008 -1.49434 4.92776e-16)
(5.04702 3.97302 -4.07849e-17)
(-9.93672 6.6532 3.87878e-16)
(14.4663 14.3744 1.42528e-17)
(13.8562 13.381 1.62658e-16)
(13.2985 12.2067 2.11434e-16)
(12.8011 10.8849 -4.12782e-16)
(12.4511 9.47858 -1.60652e-15)
(12.2605 7.9976 5.0629e-16)
(12.2493 6.47798 1.19774e-15)
(12.422 4.99711 2.98071e-15)
(12.7725 3.61888 1.18383e-15)
(13.2799 2.36717 -1.10506e-15)
(13.9097 1.26523 -3.108e-17)
(14.6266 0.327461 -5.21066e-16)
(15.4044 -0.452451 0)
(16.2188 -1.08587 -2.33224e-17)
(17.0487 -1.58294 -8.31041e-16)
(17.879 -1.95923 3.57916e-16)
(18.6993 -2.22961 -3.51943e-16)
(19.5023 -2.40781 0)
(20.2858 -2.50499 5.17903e-16)
(21.0497 -2.52888 -8.84695e-16)
(21.7947 -2.48273 0)
(22.5197 -2.36563 6.19458e-16)
(23.2199 -2.17295 0)
(23.882 -1.89924 -2.00576e-17)
(24.4823 -1.54879 2.00321e-17)
(24.9999 -1.1433 -1.61267e-16)
(25.4308 -0.705054 -3.27875e-18)
(25.7788 -0.247598 -1.08037e-18)
(26.0467 0.218471 -2.63004e-19)
(26.238 0.682579 2.34759e-17)
(26.3551 1.13388 7.39144e-17)
(26.4022 1.56606 -1.6867e-16)
(26.3842 1.97615 -5.78776e-18)
(26.3024 2.36037 3.29995e-17)
(26.1576 2.71935 0)
(25.9493 3.0563 -1.02679e-18)
(25.611 3.38271 2.00767e-16)
(25.2216 3.63609 -1.0631e-17)
(23.9751 3.92192 8.5459e-16)
(16.1978 14.4754 5.43049e-18)
(16.9286 15.2996 2.92719e-17)
(17.8112 16.1391 0)
(18.8145 16.9418 -2.36278e-17)
(19.9037 17.649 -1.09583e-18)
(21.1154 18.2727 0)
(22.4188 18.7817 -9.97334e-17)
(23.788 19.1494 8.1817e-16)
(25.2168 19.3658 -1.17003e-15)
(26.68 19.4173 3.71752e-16)
(28.1552 19.2942 5.25279e-16)
(29.6239 18.9913 1.9399e-15)
(31.0604 18.5071 1.40304e-15)
(32.4406 17.8432 1.69158e-15)
(33.7407 17.0061 4.51508e-16)
(34.9367 16.006 1.50302e-15)
(36.0059 14.8563 2.07314e-15)
(36.9277 13.5741 2.02591e-15)
(37.678 12.1907 -1.49885e-15)
(38.2391 10.7346 -4.61096e-15)
(38.5987 9.23323 0)
(38.7488 7.71588 9.12493e-17)
(38.681 6.21873 1.82476e-15)
(38.3896 4.79646 1.92862e-15)
(37.8971 3.5142 -1.0995e-16)
(37.2793 2.40222 -7.91144e-16)
(36.6116 1.43091 5.60346e-18)
(35.8957 0.540782 -3.96299e-16)
(35.1017 -0.291971 4.17689e-17)
(34.217 -1.03508 -4.52099e-15)
(33.2699 -1.65287 -8.90118e-18)
(32.2362 -2.15178 -5.90358e-17)
(31.1685 -2.44911 -2.79628e-15)
(30.2627 -2.47913 -1.03329e-17)
(29.0094 -2.56825 -3.02711e-15)
(28.4797 -2.55224 -7.10773e-15)
(23.3298 -0.291514 5.30619e-16)
(4.37334 4.32767 2.43643e-15)
(-2.15543 1.03784 -6.33223e-14)
(15.5704 13.6271 -5.99776e-17)
(15.0053 12.7363 -2.18713e-16)
(14.4797 11.6814 -1.53512e-16)
(14.002 10.4918 -3.89747e-16)
(13.651 9.22838 8.88636e-16)
(13.4351 7.89212 -6.27565e-17)
(13.3749 6.51253 -2.94986e-15)
(13.4766 5.16381 -1.01082e-15)
(13.734 3.90227 2.09354e-17)
(14.1314 2.74493 0)
(14.6416 1.7121 -9.33036e-16)
(15.2367 0.817799 8.64302e-16)
(15.8964 0.0574352 -8.26997e-16)
(16.6018 -0.576748 -4.21641e-16)
(17.3351 -1.0905 3.46937e-16)
(18.0833 -1.49458 3.45667e-16)
(18.836 -1.79897 1.2225e-15)
(19.585 -2.01328 -2.88257e-16)
(20.3255 -2.14589 -4.81173e-16)
(21.0552 -2.2031 0)
(21.7722 -2.18776 -7.09761e-16)
(22.4736 -2.09963 -5.11975e-16)
(23.1536 -1.93542 -1.30394e-17)
(23.7993 -1.69182 -5.22132e-17)
(24.3894 -1.37277 -1.42584e-17)
(24.9042 -0.995807 2.0692e-16)
(25.3373 -0.581324 -2.58341e-18)
(25.6905 -0.142996 1.73783e-17)
(25.9652 0.308596 4.47444e-19)
(26.1644 0.762937 -2.1817e-17)
(26.2901 1.21009 -1.31951e-17)
(26.3454 1.6408 3.14019e-16)
(26.3348 2.04864 2.86373e-16)
(26.2597 2.42813 2.98258e-16)
(26.12 2.77832 6.1036e-18)
(25.9177 3.10086 -2.29601e-18)
(25.5802 3.40629 -3.61597e-16)
(25.2029 3.62079 -1.3775e-15)
(24.1269 3.8369 -1.60488e-15)
(17.1073 13.7317 -1.67162e-17)
(17.7805 14.4794 -1.17936e-17)
(18.5921 15.2437 -4.33932e-17)
(19.5108 15.976 9.69569e-17)
(20.5021 16.622 5.35746e-18)
(21.6031 17.1969 -9.47179e-17)
(22.7856 17.6725 3.62936e-16)
(24.0263 18.025 0)
(25.3228 18.2468 3.55016e-16)
(26.6536 18.3251 1.43291e-17)
(28.0006 18.2501 -4.48122e-16)
(29.3497 18.0159 -1.78347e-15)
(30.6787 17.6187 -7.34792e-16)
(31.9662 17.0576 0)
(33.1906 16.3355 0)
(34.3285 15.4593 0)
(35.3569 14.44 0)
(36.2536 13.2935 -1.94702e-15)
(36.9995 12.0342 1.96162e-15)
(37.5769 10.6819 1.9274e-15)
(37.9708 9.26228 -1.55434e-15)
(38.17 7.80865 1.37343e-15)
(38.1642 6.36181 -1.42307e-15)
(37.9464 4.97572 -1.04549e-16)
(37.5325 3.70999 -4.73089e-17)
(36.9852 2.5948 7.95849e-16)
(36.3712 1.61038 1.69879e-16)
(35.6958 0.710247 0)
(34.94 -0.125626 0)
(34.096 -0.870363 3.87853e-17)
(33.1825 -1.49049 0)
(32.1801 -1.99447 3.19295e-15)
(31.0919 -2.298 -2.65167e-15)
(30.164 -2.34772 -3.76259e-15)
(28.8753 -2.471 5.71565e-15)
(28.6437 -2.25171 3.14198e-15)
(24.2692 0.532809 -4.31383e-16)
(7.93117 3.88158 -4.47987e-15)
(6.15282 -1.18572 3.39608e-14)
(16.5255 12.9627 0)
(15.9995 12.1582 6.13324e-17)
(15.5029 11.2032 2.91894e-16)
(15.0446 10.1244 -1.25159e-15)
(14.6971 8.98059 1.09754e-15)
(14.4651 7.76656 -8.33797e-16)
(14.3698 6.50719 1.42537e-17)
(14.4184 5.27342 7.77993e-16)
(14.6047 4.11534 8.13698e-16)
(14.9164 3.04524 0)
(15.3313 2.08053 3.83864e-16)
(15.8264 1.23432 -1.17108e-15)
(16.3862 0.50248 1.83834e-15)
(16.9958 -0.120893 3.31097e-16)
(17.6408 -0.639295 -6.7109e-16)
(18.3109 -1.06001 -6.19533e-16)
(18.9964 -1.38948 -5.64035e-16)
(19.6891 -1.63398 0)
(20.3834 -1.79915 0)
(21.0751 -1.88949 0)
(21.7604 -1.90706 6.63171e-16)
(22.435 -1.85158 0)
(23.0923 -1.72049 -4.06629e-16)
(23.7196 -1.51184 -5.06374e-17)
(24.2975 -1.22923 -2.75956e-16)
(24.8073 -0.887114 -1.81287e-16)
(25.241 -0.503888 0)
(25.598 -0.0933059 -1.39516e-17)
(25.8791 0.333741 -5.23433e-19)
(26.0861 0.766529 -2.01242e-20)
(26.2207 1.19441 -9.50407e-17)
(26.2853 1.60846 -2.21622e-17)
(26.2838 2.00358 -2.7757e-16)
(26.2173 2.37461 2.14754e-16)
(26.0848 2.72006 0)
(25.8891 3.03993 -4.50175e-19)
(25.5589 3.34199 -7.97669e-17)
(25.175 3.54668 1.31739e-15)
(24.2707 3.74623 -1.31158e-17)
(17.9067 13.0655 1.82371e-17)
(18.5317 13.7468 0)
(19.2839 14.4449 9.51409e-17)
(20.1321 15.1141 -6.31453e-17)
(21.0422 15.7044 -1.02705e-17)
(22.0514 16.2325 8.84539e-17)
(23.1331 16.6727 -1.5876e-16)
(24.2661 17.0041 -2.05076e-16)
(25.4508 17.2205 0)
(26.6685 17.3101 -3.85511e-16)
(27.9048 17.2637 -4.19499e-16)
(29.1489 17.0747 4.15756e-16)
(30.3821 16.7377 1.58057e-15)
(31.5864 16.2492 6.43453e-16)
(32.7424 15.6091 -1.95388e-15)
(33.8277 14.8209 -1.42056e-15)
(34.8203 13.8918 1.126e-15)
(35.6982 12.8328 8.38934e-16)
(36.4401 11.6601 -4.26408e-16)
(37.025 10.3972 4.28588e-16)
(37.4367 9.06991 1.09239e-15)
(37.6643 7.70815 2.0326e-16)
(37.6993 6.34758 -1.91776e-16)
(37.5355 5.03371 -1.2796e-15)
(37.1841 3.8167 0)
(36.6962 2.72558 -6.69043e-16)
(36.1286 1.75018 -3.17291e-16)
(35.4877 0.856821 -2.91259e-16)
(34.7635 0.0299312 -1.07005e-15)
(33.9547 -0.708455 3.96583e-15)
(33.0764 -1.32706 1.60473e-15)
(32.1158 -1.83278 8.77555e-18)
(31.0594 -2.1443 2.35434e-17)
(30.1412 -2.21301 0)
(28.778 -2.36364 -2.73744e-15)
(28.4428 -1.96583 0)
(26.068 0.941016 0)
(14.7625 2.87487 2.08727e-15)
(13.7687 -2.45833 -1.44423e-16)
(17.3632 12.3651 -6.09117e-17)
(16.8705 11.634 2.00904e-16)
(16.3997 10.7645 1.42482e-17)
(15.9596 9.78065 2.79122e-16)
(15.6178 8.73857 -9.81997e-16)
(15.3763 7.62915 6.84232e-16)
(15.2554 6.47419 2.73549e-17)
(15.2638 5.34123 -6.45972e-16)
(15.3954 4.27496 -6.28171e-16)
(15.6398 3.28444 -6.66134e-16)
(15.9781 2.38493 -1.30761e-15)
(16.3913 1.58833 0)
(16.8669 0.890218 -6.63054e-16)
(17.3932 0.28552 -2.31474e-17)
(17.959 -0.227796 0)
(18.5561 -0.655065 -5.46606e-16)
(19.1766 -0.999964 -2.59809e-16)
(19.813 -1.26618 -2.42325e-16)
(20.4594 -1.457 8.23099e-16)
(21.1107 -1.57497 7.2548e-16)
(21.762 -1.62092 -7.30286e-17)
(22.4078 -1.59431 5.42196e-16)
(23.0407 -1.49297 9.9912e-17)
(23.6485 -1.31557 -4.89438e-17)
(24.2129 -1.06547 2.44927e-16)
(24.7159 -0.754555 1.45358e-17)
(25.1485 -0.399068 0)
(25.5082 -0.0124219 0)
(25.7944 0.394399 -1.95091e-19)
(26.0085 0.810706 -3.89153e-19)
(26.1511 1.2259 6.65749e-17)
(26.2242 1.63056 -2.17462e-17)
(26.231 2.01802 -1.97582e-16)
(26.1724 2.38206 -2.04542e-16)
(26.0467 2.72013 -2.66812e-18)
(25.8569 3.03026 3.71592e-18)
(25.5369 3.31928 8.70417e-16)
(25.151 3.50086 -1.34304e-15)
(24.3295 3.67093 1.39087e-17)
(18.6122 12.4642 7.03841e-18)
(19.1954 13.0876 0)
(19.8962 13.7274 -5.10711e-17)
(20.6836 14.3406 0)
(21.5237 14.8811 -3.88578e-17)
(22.4537 15.3665 3.75411e-17)
(23.448 15.7735 1.19127e-16)
(24.4873 16.0834 1.92704e-16)
(25.5733 16.2914 0)
(26.6899 16.3873 -2.48554e-16)
(27.8254 16.3626 4.28467e-16)
(28.972 16.2107 -8.84898e-16)
(30.1137 15.9258 -4.98767e-16)
(31.2353 15.5032 -5.11412e-16)
(32.3198 14.9408 1.2428e-15)
(33.3469 14.2395 1.35373e-15)
(34.2957 13.4042 -1.46e-15)
(35.1444 12.4435 -1.45962e-15)
(35.8718 11.3704 0)
(36.458 10.2019 3.9242e-16)
(36.8857 8.96084 -7.60381e-16)
(37.1429 7.6762 1.8751e-16)
(37.2207 6.38306 4.3061e-18)
(37.1117 5.12399 3.0096e-15)
(36.8224 3.94384 -1.64457e-16)
(36.3944 2.87024 1.0008e-16)
(35.8758 1.89983 2.9266e-16)
(35.2725 1.00977 3.08135e-16)
(34.5812 0.188837 9.18076e-16)
(33.8057 -0.544948 -1.8173e-15)
(32.9594 -1.16267 -1.46513e-15)
(32.0342 -1.66915 -5.59917e-15)
(31.0174 -1.98843 4.54615e-15)
(30.1375 -2.07336 -5.99279e-17)
(28.7963 -2.24884 2.62669e-15)
(28.1009 -1.72907 -5.59796e-17)
(27.5919 1.06409 1.91991e-17)
(21.422 1.82343 -3.86816e-17)
(20.0781 -3.23258 1.87536e-14)
(18.1025 11.8233 3.05752e-17)
(17.6394 11.1553 -1.02301e-16)
(17.1919 10.3598 1.98614e-16)
(16.7692 9.45849 0)
(16.4342 8.50434 5.56445e-16)
(16.1877 7.48541 0)
(16.0486 6.42216 0)
(16.0264 5.37798 0)
(16.1155 4.39341 1.16042e-15)
(16.3065 3.47526 -5.66996e-16)
(16.5833 2.63709 6.42136e-16)
(16.9291 1.88971 0)
(17.3339 1.22811 0)
(17.7884 0.647324 -5.66304e-16)
(18.2836 0.146011 0)
(18.8138 -0.279887 5.07229e-16)
(19.3726 -0.632619 1.10735e-17)
(19.9537 -0.91378 0)
(20.5516 -1.12464 -5.86717e-16)
(21.1609 -1.26616 -8.57533e-16)
(21.7761 -1.33803 -5.87708e-16)
(22.3911 -1.33909 -4.97974e-16)
(22.9979 -1.26703 8.30164e-16)
(23.5847 -1.1208 0)
(24.1339 -0.90343 2.54377e-16)
(24.6283 -0.624629 2.16834e-16)
(25.0581 -0.298653 7.15092e-17)
(25.4191 0.0616257 0)
(25.7094 0.445201 -2.97643e-18)
(25.9299 0.841388 -6.294e-18)
(26.0804 1.23955 -3.93648e-17)
(26.1621 1.62982 -2.10061e-17)
(26.1775 2.00582 1.79859e-16)
(26.1271 2.36096 -1.27179e-16)
(26.0091 2.69202 -2.12502e-18)
(25.8256 2.99525 -1.74074e-18)
(25.5158 3.2755 -9.61494e-16)
(25.1364 3.44365 1.24406e-15)
(24.3572 3.59096 4.43214e-15)
(19.2399 11.9169 3.8056e-18)
(19.7865 12.4892 -2.09428e-17)
(20.4424 13.0772 0)
(21.177 13.6402 -4.0298e-17)
(21.9566 14.1356 0)
(22.8181 14.5815 0)
(23.7367 14.9566 2.01337e-17)
(24.6944 15.2443 1.70584e-16)
(25.6944 15.4408 4.01107e-16)
(26.7219 15.5373 1.05207e-15)
(27.7676 15.5263 6.06134e-16)
(28.8259 15.4016 7.09537e-16)
(29.8835 15.1571 0)
(30.9278 14.7871 1.41179e-15)
(31.944 14.2883 -5.01786e-16)
(32.9139 13.6598 0)
(33.8182 12.9037 1.2118e-15)
(34.6359 12.026 1.39329e-15)
(35.3464 11.0373 0)
(35.9294 9.9533 1.38688e-15)
(36.3666 8.7961 -1.35825e-15)
(36.6458 7.59235 0)
(36.758 6.37378 -1.61465e-16)
(36.6955 5.17794 2.88249e-17)
(36.461 4.04384 7.72418e-17)
(36.088 2.99738 1.15019e-15)
(35.6168 2.04029 -3.93486e-18)
(35.0519 1.15898 -3.01341e-17)
(34.3949 0.347028 -2.47583e-17)
(33.6537 -0.380332 5.50528e-17)
(32.8394 -0.996055 1.46453e-15)
(31.9471 -1.50256 5.02872e-15)
(30.9649 -1.8303 4.81393e-17)
(30.1166 -1.92988 -3.16953e-15)
(28.872 -2.12182 -2.38628e-15)
(27.8196 -1.5512 -2.70334e-15)
(28.4211 1.02804 -7.88156e-16)
(26.071 1.0167 5.46049e-17)
(24.6369 -3.62634 -1.64472e-14)
(18.7598 11.3284 -6.70648e-17)
(18.3229 10.7159 -2.42213e-16)
(17.8968 9.98529 4.74713e-16)
(17.4906 9.15627 0)
(17.1631 8.27878 8.78768e-16)
(16.9149 7.33928 0)
(16.7631 6.35704 -4.58029e-16)
(16.7173 5.39155 1.83231e-15)
(16.7733 4.47993 -1.40946e-15)
(16.9218 3.62771 0)
(17.1486 2.84673 1.03223e-15)
(17.4389 2.14682 9.91238e-16)
(17.7842 1.52253 0)
(18.1769 0.968867 -9.66123e-16)
(18.61 0.4846 2.31413e-16)
(19.0795 0.0660371 -2.318e-16)
(19.5807 -0.28806 2.23759e-16)
(20.1085 -0.577947 3.88361e-16)
(20.6583 -0.803416 -1.64359e-17)
(21.2249 -0.963963 4.59079e-16)
(21.8027 -1.05816 1.30856e-16)
(22.3852 -1.08408 -1.27301e-16)
(22.9646 -1.03918 -3.93244e-16)
(23.529 -0.922246 3.28367e-16)
(24.0616 -0.735727 -2.24312e-16)
(24.5457 -0.487613 -2.19251e-16)
(24.9709 -0.190191 -6.74076e-17)
(25.3318 0.144455 -5.67519e-19)
(25.6252 0.505467 3.38572e-18)
(25.8511 0.882334 5.95092e-18)
(26.0088 1.26449 1.10766e-17)
(26.0985 1.64186 -2.02984e-17)
(26.1222 2.0074 -1.06117e-16)
(26.08 2.35375 1.29224e-16)
(25.9698 2.67681 -9.44089e-19)
(25.7931 2.97113 -4.28168e-17)
(25.4939 3.23952 4.91586e-16)
(25.1247 3.39225 0)
(24.3867 3.50942 -4.17817e-15)
(19.801 11.4161 1.14191e-17)
(20.3153 11.9429 0)
(20.9314 12.4844 0)
(21.6193 13.0022 5.36263e-17)
(22.3459 13.4569 -2.03147e-17)
(23.1471 13.8665 0)
(23.9993 14.2117 0)
(24.8852 14.4774 -5.44491e-16)
(25.8088 14.6613 -2.86079e-17)
(26.7571 14.7554 -3.58656e-17)
(27.722 14.7533 -1.40057e-15)
(28.6999 14.6493 -3.73144e-16)
(29.6796 14.4374 7.14294e-16)
(30.6506 14.112 -6.25793e-17)
(31.6006 13.6688 0)
(32.5132 13.1053 0)
(33.3709 12.4221 -3.31139e-15)
(34.1542 11.623 -6.14e-16)
(34.8428 10.7168 6.2989e-16)
(35.4175 9.71557 -1.34298e-15)
(35.8599 8.63897 2.55236e-15)
(36.1572 7.51141 1.20861e-15)
(36.2999 6.36227 -1.17017e-15)
(36.2796 5.22577 -1.32315e-15)
(36.0956 4.13662 2.09313e-16)
(35.7746 3.11884 -1.12594e-15)
(35.35 2.17761 -1.26301e-16)
(34.8246 1.30687 2.78419e-17)
(34.2034 0.50488 -2.78567e-17)
(33.4976 -0.215069 9.12679e-17)
(32.7168 -0.827934 -3.78983e-17)
(31.8584 -1.3337 -2.4644e-15)
(30.9108 -1.67002 -7.89687e-17)
(30.0794 -1.78444 7.06202e-17)
(28.9474 -1.98023 0)
(27.6828 -1.41936 2.55695e-15)
(28.6807 0.908424 7.60912e-16)
(28.6455 0.483738 0)
(27.2305 -3.69262 0)
(19.3476 10.8741 0)
(18.934 10.3106 2.15126e-16)
(18.5276 9.63741 -7.04027e-16)
(18.1372 8.8722 -3.36467e-16)
(17.8179 8.0623 -7.93472e-16)
(17.5701 7.19312 0)
(17.4096 6.28297 0)
(17.3461 5.38774 -8.17537e-16)
(17.3758 4.54176 8.4882e-16)
(17.4902 3.74942 0)
(17.6763 3.02133 -4.3386e-16)
(17.9207 2.36661 -4.65511e-16)
(18.2159 1.77952 4.37415e-16)
(18.5558 1.25462 4.50874e-16)
(18.9345 0.790514 -8.34192e-16)
(19.3494 0.383771 0)
(19.7974 0.0334927 -1.85004e-16)
(20.2747 -0.259798 1.32693e-17)
(20.7776 -0.494948 8.10594e-16)
(21.3015 -0.670319 -1.45887e-16)
(21.8412 -0.783417 1.39764e-16)
(22.3903 -0.831621 -1.03665e-16)
(22.9409 -0.811954 1.45851e-16)
(23.4816 -0.722868 -6.6736e-16)
(23.9962 -0.566046 -2.28096e-16)
(24.4684 -0.347903 1.83005e-16)
(24.8874 -0.0789848 -1.07701e-17)
(25.2466 0.22958 0)
(25.5419 0.567231 -4.1017e-18)
(25.7724 0.923647 1.62704e-17)
(25.9367 1.28841 2.47337e-18)
(26.0341 1.65117 -3.64487e-17)
(26.066 2.00475 1.67793e-16)
(26.0321 2.34125 -1.31473e-16)
(25.93 2.65584 1.86651e-18)