/*--------------------------------*- C++ -*----------------------------------*\
| =========                 |                                                 |
| \\      /  F ield         | OpenFOAM: The Open Source CFD Toolbox           |
|  \\    /   O peration     | Version:  2312                                  |
|   \\  /    A nd           | Website:  www.openfoam.com                      |
|    \\/     M anipulation  |                                                 |
\*---------------------------------------------------------------------------*/
FoamFile
{
    version     2.0;
    format      ascii;
    arch        "LSB;label=32;scalar=64";
    class       volVectorField;
    location    "450";
    object      momentError;
}
// * * * * * * * * * * * * * * * * * * * * * * * * * * * * * * * * * * * * * //

dimensions      [0 1 -2 0 0 0 0];

internalField   nonuniform List<vector> 
10720
(
(0.688853 -3.09154 -2.10345e-15)
(0.72526 -2.92787 -1.87638e-15)
(0.482492 -1.97176 -1.99024e-14)
(0.307031 -1.51594 8.66414e-14)
(0.206573 -0.984139 6.51543e-14)
(0.16828 -0.542678 -1.60576e-13)
(0.172043 -0.244437 -1.26552e-13)
(0.206193 -0.0326929 -9.86009e-14)
(0.239032 0.0995763 1.93622e-14)
(0.259553 0.184775 5.13575e-15)
(0.261384 0.225776 -1.59403e-14)
(0.238423 0.220494 6.4106e-14)
(0.206745 0.222999 -2.0938e-13)
(0.117685 0.141332 -3.84223e-13)
(0.0142743 0.0576515 7.1195e-14)
(-0.0691899 -0.00932937 -1.02026e-13)
(-0.110919 -0.0661165 1.11162e-13)
(-0.138785 -0.0744179 8.70528e-13)
(-0.147911 -0.026491 2.34583e-13)
(-0.10583 0.0168499 -4.83751e-13)
(-0.0651807 0.058815 -2.14923e-13)
(0.00335591 0.146731 6.06087e-14)
(0.180993 0.107884 4.33932e-13)
(0.191575 -0.0608155 -3.24393e-13)
(-0.424169 -0.130184 5.88498e-14)
(-0.984306 -0.161305 -3.43652e-14)
(-1.19311 -0.209127 -4.86795e-14)
(-0.885511 -0.263992 1.96668e-14)
(-0.851006 -0.0169679 -3.03701e-15)
(-0.848877 0.208167 1.34244e-13)
(-0.219829 0.0775648 6.21841e-14)
(-0.560972 0.0777519 -1.12224e-13)
(-1.61003 0.259758 -8.70714e-14)
(-2.6457 0.410098 -2.32313e-13)
(-7.92587 1.07279 -1.07903e-13)
(1.21469 -0.799343 3.50257e-14)
(14.0864 -2.20356 1.35383e-14)
(-11.6765 4.35902 -8.44453e-14)
(-20.4261 -0.767179 1.03469e-13)
(0.519714 -2.86415 1.02491e-14)
(0.419346 -2.34002 -2.24892e-14)
(0.390424 -1.92585 2.53654e-14)
(0.395299 -1.59516 1.11014e-13)
(0.426245 -1.24221 4.39421e-14)
(0.37568 -0.700664 -2.96859e-13)
(0.155636 -0.153967 -1.2401e-13)
(0.04596 -0.0242458 1.40638e-13)
(0.138052 -0.148937 -6.99189e-14)
(0.261374 -0.24691 6.00176e-14)
(0.249443 -0.158312 -7.52969e-14)
(0.137212 -0.0423616 -1.32207e-13)
(0.0603804 -0.000378984 3.38164e-14)
(0.0514921 -0.0152153 6.70082e-14)
(0.0952012 -0.0524626 -1.09998e-13)
(0.157661 -0.105912 -9.48274e-14)
(0.237368 -0.0219024 -6.70387e-14)
(0.228037 -0.186468 -8.093e-14)
(0.249067 -0.106487 -2.95762e-14)
(0.268419 -0.0358138 -2.18367e-15)
(0.256309 -0.0318058 2.72256e-14)
(0.451037 0.455565 5.43421e-14)
(0.228997 -0.0475508 -2.47765e-14)
(0.260087 0.115406 -1.7913e-14)
(0.18098 -0.0109559 1.98738e-14)
(0.0891125 -0.124308 -3.57943e-15)
(0.112946 -0.0168481 -1.47193e-16)
(0.0880629 -0.00723034 -5.57929e-16)
(0.0307524 -0.00300592 -1.88877e-16)
(-0.00839712 -0.00257448 7.22849e-16)
(-0.0233652 0.000158556 2.62952e-15)
(-0.0341571 0.00142772 -1.39925e-15)
(-0.0649143 -0.00256759 -2.45845e-15)
(-0.0645699 -0.00370552 -3.13489e-14)
(-0.0883223 -0.00365866 -2.89971e-14)
(-0.180466 -0.0169393 1.51544e-14)
(-0.295061 -0.0254067 2.20571e-15)
(-0.508332 -0.0501403 -7.3057e-15)
(-1.18452 -0.00460409 -2.58322e-14)
(-0.649156 -1.81321 -4.47917e-15)
(-0.662099 -1.78412 3.15753e-15)
(-0.67804 -1.24965 -1.37052e-15)
(-0.897458 -0.969287 -6.52016e-15)
(-1.02268 -0.703372 8.56164e-15)
(-1.02851 -0.480957 5.87434e-14)
(-0.991098 -0.3221 7.1866e-14)
(-0.905679 -0.223323 2.52749e-14)
(-0.802618 -0.15811 -7.96073e-14)
(-0.71454 -0.113236 -3.66916e-14)
(-0.636505 -0.0972918 -2.4202e-13)
(-0.580583 -0.111492 -4.41779e-13)
(-0.574393 -0.179661 -2.16263e-14)
(-0.565284 -0.19455 -1.89253e-14)
(-0.542302 -0.208501 -8.13009e-14)
(-0.490214 -0.217719 8.40137e-14)
(-0.426609 -0.183977 3.72588e-13)
(-0.33346 -0.131083 -6.8e-13)
(-0.249532 -0.10999 -5.43674e-13)
(-0.250581 -0.145403 -3.58051e-13)
(-0.280229 -0.230052 2.48317e-13)
(-0.384643 -0.300291 2.04578e-13)
(-0.811647 -0.248659 -3.20896e-13)
(-1.46664 -0.0507232 5.33034e-14)
(-1.26867 -0.00165822 -2.16366e-15)
(-1.18182 -0.227248 -3.11795e-14)
(-1.49588 -0.263997 -1.10142e-15)
(-1.13977 0.0427713 1.11099e-14)
(-0.731849 0.249219 -1.59849e-14)
(-0.951502 0.250774 5.7518e-14)
(-0.912798 0.175319 2.88935e-14)
(-0.403796 0.0909492 5.16896e-15)
(0.83171 0.0564373 -1.08814e-13)
(0.196046 0.335362 -1.56718e-13)
(-20.357 3.00241 1.8125e-13)
(19.5131 -3.42065 7.72862e-14)
(6.52582 -0.286119 6.8842e-14)
(-35.7748 7.25875 -3.77487e-14)
(1.64762 -5.18662 4.32205e-14)
(-0.662011 -1.68417 -1.74453e-14)
(-0.532152 -1.43916 1.60306e-13)
(-0.368068 -1.23534 -4.98783e-14)
(-0.239686 -1.11309 -1.2152e-13)
(-0.0819497 -0.912799 7.8327e-14)
(0.0776566 -0.590419 7.83559e-14)
(0.121239 -0.239164 -4.5191e-14)
(0.12025 -0.139227 1.62136e-13)
(0.203296 -0.178607 5.90054e-14)
(0.267767 -0.137044 -6.01885e-14)
(0.276213 -0.00407991 6.90074e-14)
(0.213327 0.0828942 -9.50873e-14)
(0.149451 0.0868219 2.24718e-14)
(0.126454 0.0396859 9.59824e-15)
(0.142739 -0.0205738 2.23845e-14)
(0.220972 -0.0537285 2.47698e-14)
(0.208649 -0.127155 4.41636e-14)
(0.287288 0.00670802 -1.30193e-14)
(0.315047 -0.0240773 2.74269e-15)
(0.25747 -0.0799738 -6.27143e-15)
(0.293765 -0.0772229 1.62666e-14)
(-0.0479473 -0.554838 4.69193e-14)
(0.20824 -0.0156585 -1.52863e-15)
(0.117201 -0.16207 -1.37494e-14)
(0.16452 -0.0128709 -1.22062e-14)
(0.286094 0.234212 1.48215e-14)
(0.137021 0.0067992 3.68603e-15)
(0.0909721 -0.0104574 -1.00784e-15)
(0.0777791 -0.00372772 4.6312e-17)
(0.0372521 0.00901832 -9.63782e-17)
(-0.011919 0.00999113 -2.11886e-16)
(-0.0201663 0.00954672 -3.99745e-15)
(-0.00518536 0.0014652 6.21295e-15)
(-0.0252882 -0.00137881 2.46588e-14)
(-0.0446241 -0.00114744 5.61383e-15)
(-0.111433 -0.0131387 -1.06762e-14)
(-0.191069 -0.0313116 2.38763e-15)
(-0.435692 -0.0718532 1.0036e-14)
(-2.23762 -0.365613 8.2489e-17)
(0.113865 -1.2741 1.96125e-15)
(0.212992 -1.23466 1.51297e-15)
(0.22109 -0.883288 -7.07359e-16)
(0.105109 -0.771205 -3.03514e-15)
(0.0243742 -0.705001 4.89691e-14)
(-0.0064094 -0.623405 -5.71496e-14)
(-0.0127529 -0.573443 -7.5516e-14)
(-0.00241007 -0.542296 1.41802e-13)
(0.00939011 -0.491524 5.9627e-14)
(0.0137304 -0.451896 8.36381e-14)
(0.00322051 -0.43068 1.875e-14)
(-0.0244269 -0.424269 1.69672e-15)
(-0.0725081 -0.425935 3.34474e-13)
(-0.126148 -0.455501 1.02874e-14)
(-0.186916 -0.467551 2.10078e-13)
(-0.254516 -0.439191 -3.33332e-15)
(-0.247368 -0.388353 -6.61299e-13)
(-0.183819 -0.312428 4.0395e-13)
(-0.148685 -0.228112 9.0714e-13)
(-0.214159 -0.198483 1.67229e-13)
(-0.390591 -0.209907 -5.24756e-14)
(-0.581879 -0.199068 -2.09782e-14)
(-0.709592 -0.155614 1.28695e-13)
(-0.931652 -0.235221 1.16718e-13)
(-1.79362 -0.507024 -9.28093e-14)
(-1.05629 -0.13669 -1.11609e-14)
(-1.16803 -0.094523 -3.39936e-14)
(-0.696971 0.0763961 1.33169e-14)
(-0.508813 0.156868 -3.21673e-14)
(-0.739636 0.136343 -8.95485e-14)
(-0.639485 0.10112 1.89457e-14)
(-0.576277 0.130556 1.57387e-13)
(0.191866 0.181141 2.23615e-14)
(1.74592 0.46784 1.31247e-13)
(-7.03683 2.10119 1.43005e-13)
(14.3757 -2.95415 5.65454e-14)
(-10.2744 1.56637 -8.87111e-14)
(-64.5059 14.1226 1.19035e-13)
(14.0143 -10.0047 1.95106e-13)
(-0.0186374 -1.23013 2.61219e-14)
(-0.105253 -1.07475 -4.03197e-14)
(-0.128512 -0.934411 -5.16367e-14)
(-0.134582 -0.882566 -1.06639e-14)
(-0.0863398 -0.757557 9.18033e-15)
(0.0133357 -0.535617 -1.11006e-13)
(0.076764 -0.298988 3.05317e-14)
(0.104962 -0.234583 -1.56026e-13)
(0.199026 -0.23338 -1.26401e-13)
(0.240758 -0.171181 -1.12404e-13)
(0.237033 -0.0906744 1.13661e-13)
(0.197519 -0.0516341 1.06773e-13)
(0.152368 -0.0608236 -6.30183e-14)
(0.130073 -0.0970244 -1.43194e-13)
(0.139242 -0.133131 3.96492e-14)
(0.170843 -0.141687 6.68452e-14)
(0.215347 -0.15184 -1.80615e-14)
(0.229073 -0.0972359 -8.59241e-14)
(0.249302 -0.0783797 -2.45853e-14)
(0.258629 -0.0523452 2.59535e-15)
(0.249842 -0.0492504 -1.79932e-14)
(0.315395 -0.0186755 -3.68426e-14)
(0.205105 -0.0873933 8.06668e-15)
(0.221277 0.0010235 -6.82991e-16)
(0.154807 -0.0723868 1.59823e-15)
(0.0856214 -0.211623 -5.98388e-15)
(0.114417 0.0104413 -1.14909e-14)
(0.0926071 0.0259376 2.35513e-15)
(0.0564041 0.0062839 3.73959e-16)
(0.0134591 -0.00664894 -1.02165e-15)
(-0.0171589 0.00996135 1.25397e-16)
(-0.0208366 0.0169041 3.93884e-15)
(-0.0118878 0.0164314 -4.2549e-15)
(-0.0169052 0.0168753 -6.90945e-15)
(-0.0247681 0.0199392 9.79707e-16)
(-0.0516839 0.0143198 -3.92591e-16)
(-0.0791635 0.0054454 4.85528e-15)
(-0.0225926 0.00799656 3.12585e-15)
(-3.36129 -0.592218 -3.31397e-14)
(-0.195685 -0.899499 1.1254e-14)
(-0.120933 -0.843515 3.90729e-15)
(-0.0818689 -0.605154 2.64528e-16)
(-0.151621 -0.559248 -5.93798e-15)
(-0.216219 -0.54468 -1.2613e-16)
(-0.243314 -0.491189 -1.26344e-14)
(-0.250762 -0.435268 9.27996e-14)
(-0.257396 -0.377751 2.53047e-14)
(-0.251113 -0.316926 -2.29749e-13)
(-0.239505 -0.270187 7.74867e-14)
(-0.239082 -0.249103 2.52788e-13)
(-0.251387 -0.250873 3.19615e-13)
(-0.264938 -0.280199 7.36668e-14)
(-0.304098 -0.307076 -3.66541e-13)
(-0.342469 -0.322426 -9.24564e-14)
(-0.339887 -0.321482 -9.01523e-14)
(-0.312595 -0.283636 -1.71358e-13)
(-0.272424 -0.205002 -3.61457e-13)
(-0.232656 -0.151071 -6.266e-13)
(-0.248868 -0.139168 1.57188e-13)
(-0.337896 -0.161207 -1.19485e-13)
(-0.449192 -0.185234 -1.84749e-13)
(-0.588528 -0.151446 -1.26088e-15)
(-0.752927 -0.197366 -2.39544e-13)
(-1.2197 0.668226 -4.04882e-14)
(-0.83237 -0.172213 3.54655e-14)
(-0.960244 -0.102919 4.15245e-14)
(-0.471898 0.029568 -1.84564e-14)
(-0.246222 0.134235 2.55339e-14)
(-0.372568 0.151011 4.77919e-14)
(-0.42887 0.116013 -4.80998e-14)
(-0.466722 0.115832 2.02332e-14)
(-0.422508 0.248219 1.55648e-13)
(-0.110985 0.622931 1.09635e-13)
(-1.20866 0.937053 -1.69742e-14)
(7.87495 -2.0671 -1.38122e-13)
(-26.0812 5.19799 -1.38729e-14)
(-74.1504 17.9351 -1.91729e-14)
(15.0258 -9.00259 -4.78872e-13)
(-0.259198 -0.898926 -2.62523e-15)
(-0.265429 -0.82271 -3.99e-14)
(-0.217304 -0.748598 -3.58599e-14)
(-0.185708 -0.724543 -3.26459e-14)
(-0.108558 -0.630345 1.24282e-13)
(-0.0171226 -0.470088 2.00451e-13)
(0.0463056 -0.338041 1.3953e-14)
(0.0938105 -0.296371 1.47235e-13)
(0.169861 -0.272169 -4.60009e-15)
(0.211888 -0.212784 -3.61605e-14)
(0.219062 -0.15092 -8.43256e-14)
(0.202517 -0.110674 -3.08576e-14)
(0.181262 -0.0918553 -1.93381e-14)
(0.168493 -0.0940963 7.27943e-14)
(0.174321 -0.100477 -3.86081e-14)
(0.19727 -0.0982209 -1.24658e-13)
(0.224401 -0.0854841 -1.65727e-14)
(0.244675 -0.0620793 8.02237e-14)
(0.256559 -0.0522679 -2.70639e-15)
(0.256289 -0.0434613 -2.24666e-14)
(0.248698 -0.0301438 -5.93567e-14)
(0.234112 -0.0184224 2.39501e-14)
(0.203281 0.0244164 3.10813e-14)
(0.188176 -0.0139738 -5.5558e-15)
(0.156056 0.0296468 -2.1753e-15)
(0.121731 0.07684 3.97156e-15)
(0.11449 -0.0063661 5.62777e-15)
(0.0874444 -0.0193797 -1.14254e-15)
(0.0503947 -0.0117811 -1.72606e-16)
(0.00856402 -0.00225871 4.40383e-16)
(-0.023233 -0.00405372 -9.88148e-16)
(-0.0285259 -0.00362471 -1.86421e-15)
(-0.02431 -0.00882669 -9.98293e-16)
(-0.0313904 -0.0130814 2.55618e-15)
(-0.0430949 -0.0125381 5.14329e-15)
(-0.0861972 -0.0193854 3.49519e-16)
(-0.128744 -0.00855143 -8.50831e-15)
(-0.18161 -0.132056 -1.27066e-14)
(-3.62238 -1.15618 -2.65771e-14)
(-0.098948 -0.692957 -9.62172e-15)
(-0.0204568 -0.647956 6.14128e-15)
(0.0229533 -0.48374 1.37025e-15)
(-0.0213599 -0.479705 -1.22742e-14)
(-0.076008 -0.489366 -7.09031e-15)
(-0.104896 -0.455867 2.72017e-14)
(-0.129524 -0.418749 -1.31853e-14)
(-0.13973 -0.369336 1.52117e-14)
(-0.134656 -0.323562 -8.66085e-14)
(-0.131574 -0.293134 -2.65426e-13)
(-0.138064 -0.28408 -9.68412e-15)
(-0.158188 -0.293796 -1.19795e-13)
(-0.198034 -0.319091 -7.57355e-14)
(-0.240612 -0.336987 -1.53665e-14)
(-0.280356 -0.339053 -3.12722e-13)
(-0.297972 -0.306406 2.89232e-13)
(-0.282737 -0.235785 1.64216e-13)
(-0.225857 -0.170916 -3.6397e-13)
(-0.187552 -0.124346 1.22284e-13)
(-0.204255 -0.114801 -1.97363e-13)
(-0.270898 -0.149182 -1.3214e-13)
(-0.376589 -0.158089 2.50159e-13)
(-0.487789 -0.147473 1.44923e-14)
(-0.501391 -0.172902 2.17387e-13)
(0.210477 -0.662397 9.67827e-14)
(-1.09714 -0.0178047 -2.11364e-14)
(-0.827754 -0.105457 5.70772e-15)
(-0.446291 -0.00116568 2.2427e-14)
(-0.134021 0.133302 -2.85091e-14)
(-0.311862 0.18171 -4.99101e-14)
(-0.439407 0.125962 2.26331e-14)
(-0.544448 0.123972 -4.71564e-14)
(-0.659001 0.33089 -3.86599e-14)
(-1.41589 0.626997 -1.29176e-13)
(-1.34539 0.439621 -2.20589e-13)
(9.90104 0.105356 4.58651e-14)
(-39.6026 10.6806 -3.41825e-14)
(-67.388 14.854 -6.33079e-14)
(11.5997 -5.4617 4.35706e-13)
(-0.166524 -0.706174 2.07644e-14)
(-0.191839 -0.674095 3.8982e-14)
(-0.178884 -0.616824 -4.78516e-14)
(-0.165826 -0.590173 -2.3182e-14)
(-0.126314 -0.515084 6.43457e-14)
(-0.060006 -0.390356 -1.48969e-13)
(-2.71259e-05 -0.329405 -1.00503e-13)
(0.059505 -0.317034 1.85671e-13)
(0.127466 -0.293321 1.91268e-13)
(0.168103 -0.244994 -3.8201e-15)
(0.181966 -0.195001 -5.32379e-14)
(0.181581 -0.164407 -3.65107e-14)
(0.17341 -0.149203 1.15339e-13)
(0.167115 -0.144913 -5.35398e-14)
(0.175727 -0.145077 -1.22698e-14)
(0.193033 -0.142646 9.2487e-14)
(0.215022 -0.136577 -4.17449e-14)
(0.235151 -0.1202 3.7512e-14)
(0.248187 -0.102504 2.30204e-14)
(0.25195 -0.0864925 3.6095e-15)
(0.246991 -0.071495 6.20445e-14)
(0.233683 -0.0554091 -2.28689e-14)
(0.213714 -0.0381045 -4.15647e-14)
(0.19031 -0.0193973 -6.91312e-15)
(0.165701 -0.00531687 1.5992e-14)
(0.140862 0.00110722 1.87396e-16)
(0.115986 0.00594871 6.61591e-15)
(0.0874334 0.00939755 -1.24248e-15)
(0.0515005 0.0104062 -8.28057e-17)
(0.00980424 0.0132937 2.03314e-16)
(-0.0224743 0.0190345 3.69436e-16)
(-0.0282282 0.0232091 1.05726e-15)
(-0.0238176 0.0212805 -1.85424e-15)
(-0.0319361 0.0182146 -7.39813e-15)
(-0.0463791 0.0199191 -3.26757e-15)
(-0.095098 0.0118417 4.06195e-16)
(-0.130961 -0.00703964 -2.63171e-15)
(-0.299138 -0.050338 -1.01929e-14)
(-3.2018 -1.2502 -2.41519e-15)
(-0.0623813 -0.594591 1.96729e-15)
(0.00748949 -0.559721 -4.19354e-16)
(0.0461594 -0.440362 2.32161e-15)
(0.00174815 -0.442635 -2.44522e-15)
(-0.0504709 -0.454027 7.74248e-15)
(-0.0780648 -0.428799 -3.69314e-15)
(-0.104032 -0.403803 -3.51293e-14)
(-0.117899 -0.371985 6.99743e-14)
(-0.119245 -0.336405 1.52961e-13)
(-0.123572 -0.313017 -9.63961e-14)
(-0.136134 -0.304123 -9.87225e-14)
(-0.160775 -0.310753 6.15996e-14)
(-0.201454 -0.326929 -1.38392e-13)
(-0.25042 -0.33944 -2.23192e-14)
(-0.292757 -0.335469 -4.32365e-14)
(-0.307258 -0.305752 2.08076e-14)
(-0.276394 -0.253836 4.10167e-14)
(-0.229592 -0.1843 4.30784e-13)
(-0.193887 -0.12315 3.47553e-13)
(-0.215584 -0.116537 -1.50565e-13)
(-0.282961 -0.142144 2.13992e-13)
(-0.375251 -0.157995 2.02063e-14)
(-0.492556 -0.124644 -6.38474e-14)
(-0.615126 -0.0967677 -1.24107e-13)
(-0.760551 -0.0961773 9.79825e-15)
(-0.872329 -0.114985 2.92963e-14)
(-0.827295 -0.0700935 3.63898e-14)
(-0.405507 0.0167461 -3.43353e-14)
(-0.0938204 0.142283 8.10661e-15)
(-0.267174 0.188939 6.89112e-14)
(-0.395568 0.146423 -2.78955e-14)
(-0.486903 0.163303 -1.53745e-13)
(-0.396151 0.418543 -7.61092e-14)
(-0.84857 0.566566 -7.72077e-14)
(-3.24719 0.213151 6.08871e-14)
(9.95427 2.11628 5.09902e-14)
(-33.7834 13.3046 5.66792e-14)
(-53.3191 7.63489 2.09417e-14)
(31.7491 -11.3377 -2.36935e-13)
(-0.137661 -0.602736 -9.20283e-15)
(-0.167388 -0.549142 -1.21062e-14)
(-0.194474 -0.462117 2.20805e-15)
(-0.195994 -0.450447 3.5936e-14)
(-0.1614 -0.4072 3.4542e-14)
(-0.080756 -0.335884 -1.94891e-13)
(-0.0218192 -0.312197 -1.17392e-13)
(0.0389961 -0.314104 -1.7037e-13)
(0.0957212 -0.28994 3.00094e-14)
(0.133381 -0.250983 2.10321e-14)
(0.153623 -0.212603 -5.42395e-14)
(0.161826 -0.183477 4.87748e-15)
(0.161068 -0.16924 -2.40395e-14)
(0.166653 -0.163427 -4.34257e-14)
(0.177528 -0.162816 -1.3713e-13)
(0.191551 -0.160219 -1.22495e-14)
(0.210693 -0.151619 8.19608e-14)
(0.229686 -0.136487 -1.27111e-14)
(0.243408 -0.116901 1.59087e-14)
(0.248107 -0.096604 -2.81857e-14)
(0.243335 -0.0774157 -4.28072e-14)
(0.229504 -0.057797 -3.43888e-15)
(0.209334 -0.040213 1.51914e-14)
(0.18676 -0.025083 1.64062e-14)
(0.16333 -0.0118332 -9.33672e-16)
(0.139464 -0.00332901 -7.28885e-15)
(0.114855 0.000834036 -1.23202e-14)
(0.0859874 0.00289975 2.37275e-15)
(0.049529 0.00518891 2.6695e-17)
(0.00755209 0.00809449 -1.90074e-16)
(-0.0246412 0.0106291 -3.55635e-16)
(-0.030429 0.00889247 -9.84104e-16)
(-0.0259306 0.00403087 1.80484e-15)
(-0.0336731 -0.00131539 6.35049e-15)
(-0.0477266 -0.00685019 2.19932e-15)
(-0.0931634 -0.0176915 -3.28259e-15)
(-0.133815 -0.0370831 9.30156e-15)
(-0.265021 -0.117561 1.88657e-14)
(-2.21673 -0.474676 -1.80437e-14)
(-0.0237528 -0.477867 8.25628e-16)
(0.0262912 -0.467678 -2.99153e-16)
(0.0597506 -0.380762 -4.58801e-16)
(0.0195811 -0.386744 3.25502e-15)
(-0.0288413 -0.399129 -4.5269e-15)
(-0.0487295 -0.383642 -1.51854e-14)
(-0.0686348 -0.366385 3.97506e-14)
(-0.0785766 -0.343534 -1.03848e-14)
(-0.0788325 -0.316674 4.86658e-14)
(-0.085127 -0.302954 9.46857e-14)
(-0.0988976 -0.30178 1.8896e-14)
(-0.12253 -0.312526 3.0644e-14)
(-0.162799 -0.331199 2.01038e-13)
(-0.210423 -0.343819 3.46476e-13)
(-0.249871 -0.33972 3.13569e-13)
(-0.265868 -0.314549 -5.62859e-15)
(-0.241405 -0.260943 3.84539e-13)
(-0.192345 -0.196493 1.60907e-14)
(-0.160277 -0.148778 -1.13845e-13)
(-0.191797 -0.141206 1.5372e-13)
(-0.270872 -0.157636 -2.56513e-13)
(-0.354359 -0.163519 1.05569e-13)
(-0.45452 -0.143268 1.17474e-13)
(-0.585274 -0.118849 4.01006e-14)
(-0.703005 -0.125962 1.15187e-13)
(-0.840215 -0.112472 -4.62773e-14)
(-0.790363 -0.056818 -3.88704e-14)
(-0.375026 0.0265957 5.40068e-15)
(-0.0854403 0.11291 2.5178e-14)
(-0.267948 0.155888 -6.45168e-14)
(-0.367033 0.151567 -6.24211e-14)
(-0.42809 0.177423 1.20308e-13)
(-0.272648 0.437958 2.52851e-14)
(-0.0431327 0.513949 -4.35284e-14)
(-3.77302 0.0782812 8.31054e-15)
(6.17178 3.88281 -1.27681e-13)
(-14.7469 13.1822 -4.47513e-15)
(-5.12659 -5.22737 6.90186e-15)
(55.3407 -14.57 1.64066e-13)
(-0.115835 -0.431663 -6.59083e-15)
(-0.186474 -0.364932 -1.15555e-14)
(-0.195103 -0.349907 6.54874e-15)
(-0.173749 -0.40389 8.02731e-14)
(-0.106403 -0.385813 3.50783e-14)
(-0.0180089 -0.328446 5.94396e-15)
(0.0331437 -0.298687 1.73156e-13)
(0.0862321 -0.29226 -8.72943e-14)
(0.13178 -0.266143 -1.38733e-13)
(0.163979 -0.231131 4.60029e-14)
(0.182546 -0.196303 9.56946e-14)
(0.191263 -0.16685 -2.24591e-14)
(0.193998 -0.144867 6.48773e-14)
(0.195536 -0.130376 7.574e-15)
(0.197522 -0.126164 3.35373e-14)
(0.205035 -0.123486 1.34074e-14)
(0.217736 -0.117139 -3.63967e-14)
(0.230731 -0.105851 3.05141e-14)
(0.240279 -0.091397 -2.28715e-14)
(0.242932 -0.0757017 3.41567e-15)
(0.236915 -0.0599133 5.9175e-14)
(0.221863 -0.0439087 -2.03369e-14)
(0.200747 -0.029357 -2.70457e-14)
(0.177599 -0.0171612 5.79254e-15)
(0.154546 -0.00776685 -1.19174e-15)
(0.131752 -0.00189614 2.06366e-15)
(0.107999 0.00158875 6.35483e-15)
(0.0797306 0.00354694 -1.07418e-15)
(0.0437369 0.00510126 2.18886e-17)
(0.00232787 0.00640372 1.1221e-16)
(-0.0288394 0.00639129 -6.98169e-16)
(-0.0331995 0.00626942 2.87202e-16)
(-0.0283846 0.0014567 2.00907e-15)
(-0.0357424 -0.00462524 -3.27314e-16)
(-0.0494596 -0.00709979 -4.76528e-16)
(-0.0892838 -0.0128642 1.66997e-15)
(-0.147577 -0.0306 -2.87172e-15)
(-0.190231 -0.111081 -2.97788e-15)
(-1.33657 -0.101335 -1.95873e-14)
(-0.0753857 -0.318231 2.99769e-15)
(-0.0504755 -0.332383 -3.28817e-15)
(-0.0175438 -0.257573 1.08711e-15)
(-0.0483074 -0.257602 -1.82881e-15)
(-0.0775953 -0.26311 7.02678e-16)
(-0.0836548 -0.248104 3.17278e-15)
(-0.0899286 -0.237309 7.33512e-15)
(-0.086752 -0.218679 -9.86544e-14)
(-0.0763963 -0.197201 -1.11379e-14)
(-0.070959 -0.189558 1.53399e-13)
(-0.0765531 -0.200661 -6.42921e-14)
(-0.0951348 -0.219895 -1.41275e-13)
(-0.129941 -0.244837 -2.78747e-13)
(-0.172364 -0.264886 -2.33394e-13)
(-0.204657 -0.271145 -1.60563e-13)
(-0.214066 -0.251343 -6.04045e-14)
(-0.18948 -0.205765 -2.16289e-13)
(-0.137717 -0.151635 -2.97028e-13)
(-0.118738 -0.121507 -1.43071e-13)
(-0.160681 -0.125715 3.50842e-13)
(-0.243767 -0.153827 3.24949e-13)
(-0.325307 -0.166517 -2.81706e-14)
(-0.431808 -0.147482 -4.78831e-14)
(-0.57302 -0.123823 -1.56814e-13)
(-0.704494 -0.120689 -8.78142e-14)
(-0.824932 -0.105717 4.02955e-14)
(-0.768543 -0.0425107 3.02594e-14)
(-0.353759 0.0335714 3.49317e-15)
(-0.0782854 0.0964316 -1.80658e-14)
(-0.273924 0.138826 6.66865e-14)
(-0.369455 0.165963 1.41088e-13)
(-0.409381 0.204387 -3.62555e-15)
(-0.327028 0.457848 1.89855e-14)
(0.185827 0.51418 3.67913e-14)
(-3.00175 0.0148388 -2.06272e-14)
(3.35528 4.81601 1.33704e-13)
(-2.07496 11.6112 1.93826e-14)
(46.0086 -15.7678 -9.64046e-14)
(60.2082 -12.2105 6.5365e-15)
(-0.12803 -0.288817 1.68824e-14)
(-0.172018 -0.344076 2.07702e-14)
(-0.142615 -0.402419 6.60951e-15)
(-0.103854 -0.41566 1.0322e-13)
(-0.0598088 -0.361506 -1.75454e-13)
(-0.00835073 -0.312053 8.5322e-14)
(0.037368 -0.293746 1.49372e-13)
(0.0869753 -0.284283 7.19486e-14)
(0.129073 -0.259782 -3.4207e-14)
(0.158306 -0.228288 -3.35701e-14)
(0.177848 -0.198661 2.23567e-14)
(0.189562 -0.172824 3.57642e-14)
(0.195338 -0.151631 -8.52952e-14)
(0.198895 -0.135998 6.34262e-14)
(0.203283 -0.12467 1.55544e-14)
(0.210326 -0.115941 -1.14119e-14)
(0.220199 -0.107498 -5.47599e-14)
(0.23005 -0.0966214 -5.47322e-14)
(0.237533 -0.083431 4.56149e-14)
(0.239155 -0.068952 1.34231e-14)
(0.232476 -0.0540088 4.63554e-15)
(0.21687 -0.0388786 4.64651e-14)
(0.19545 -0.0250429 1.84493e-14)
(0.172224 -0.0134424 -2.18219e-15)
(0.149476 -0.00467894 5.521e-15)
(0.127186 0.000811719 -3.70272e-15)
(0.103815 0.00405309 -7.29194e-15)
(0.0757949 0.00580031 1.12917e-15)
(0.0400047 0.00683085 -8.12223e-16)
(-0.00101348 0.00704768 1.57236e-17)
(-0.0313785 0.00553297 8.02219e-16)
(-0.0350848 0.00173248 -7.70319e-16)
(-0.0301774 -0.00448851 -3.69922e-15)
(-0.0370237 -0.0122291 -3.28229e-15)
(-0.051717 -0.0180189 -1.9772e-15)
(-0.0849881 -0.0259225 -1.46406e-15)
(-0.163417 -0.0502404 1.88228e-16)
(-0.139203 -0.140977 1.4958e-14)
(-0.821807 0.0210311 2.5514e-14)
(-0.101859 -0.287683 7.6123e-16)
(-0.0589688 -0.275262 1.84659e-15)
(-0.027052 -0.218245 -2.05746e-15)
(-0.0546477 -0.224641 1.07102e-15)
(-0.0740432 -0.233902 -1.02438e-14)
(-0.0704444 -0.220148 1.18246e-14)
(-0.0699168 -0.214071 -1.27437e-14)
(-0.0679155 -0.202082 -1.92402e-14)
(-0.0599432 -0.188502 -3.07107e-14)
(-0.0554237 -0.185267 -4.15842e-14)
(-0.0617886 -0.195093 1.75342e-14)
(-0.0826321 -0.214873 1.65942e-13)
(-0.117073 -0.239729 2.24016e-13)
(-0.159297 -0.260131 3.61881e-14)
(-0.19486 -0.264411 7.22642e-15)
(-0.202397 -0.239565 1.29849e-14)
(-0.176097 -0.193035 -4.02923e-14)
(-0.126961 -0.142064 1.24671e-13)
(-0.10088 -0.117999 1.12958e-13)
(-0.137542 -0.131574 -2.7175e-13)
(-0.21786 -0.163609 -2.93358e-14)
(-0.295477 -0.177417 5.86593e-14)
(-0.398503 -0.161524 -6.97249e-14)
(-0.54412 -0.140706 8.13159e-14)
(-0.682152 -0.132772 3.31972e-16)
(-0.80464 -0.10458 -1.35169e-14)
(-0.742638 -0.0330156 -3.89323e-14)
(-0.331706 0.0410534 1.80994e-15)
(-0.0653141 0.0866823 -1.75957e-16)
(-0.266228 0.129034 3.51532e-14)
(-0.363359 0.18245 1.44353e-14)
(-0.385971 0.23268 -6.57643e-14)
(-0.362643 0.468661 -2.1185e-14)
(0.0857636 0.528183 1.37579e-13)
(-2.21951 0.0284267 1.9634e-14)
(2.32535 5.05892 -5.89869e-14)
(1.96111 9.22188 -3.7039e-14)
(49.5417 -17.7034 6.33822e-14)
(49.0141 -11.7889 1.37502e-13)
(-0.124305 -0.35739 3.65162e-15)
(-0.125682 -0.410715 -4.93726e-14)
(-0.107734 -0.370278 2.14481e-14)
(-0.104611 -0.332579 2.35034e-14)
(-0.0929069 -0.286328 4.69099e-14)
(-0.0657969 -0.276334 -1.60842e-14)
(-0.0253947 -0.28263 -3.24127e-14)
(0.0204231 -0.281368 -4.62069e-15)
(0.0616683 -0.268008 -5.45154e-15)
(0.0944588 -0.248143 1.17655e-14)
(0.124013 -0.226851 3.70829e-14)
(0.144055 -0.207424 6.31177e-14)
(0.160739 -0.18759 -3.03673e-15)
(0.17434 -0.170739 -1.31136e-13)
(0.186727 -0.156041 2.49358e-14)
(0.198452 -0.142172 7.27475e-14)
(0.210569 -0.129171 5.54516e-14)
(0.221889 -0.115321 2.5279e-14)
(0.230653 -0.100104 -2.01493e-14)
(0.233477 -0.0836512 -5.05421e-15)
(0.227931 -0.0665435 -2.1215e-14)
(0.213369 -0.0493074 -3.88641e-14)
(0.193025 -0.0334169 1.58374e-14)
(0.170771 -0.0199992 1.49314e-14)
(0.148774 -0.0097059 2.51971e-15)
(0.126894 -0.00269892 1.37446e-14)
(0.103611 0.00194856 4.50591e-15)
(0.0754883 0.00485532 -8.64584e-16)
(0.0395409 0.00657159 6.56679e-16)
(-0.00147083 0.00675848 -1.19717e-16)
(-0.0315682 0.00440827 8.94216e-17)
(-0.0351351 0.00103788 4.27432e-17)
(-0.030481 -0.00489172 1.8618e-15)
(-0.0372772 -0.0128946 1.37329e-15)
(-0.0529341 -0.0191535 -1.76849e-15)
(-0.0820236 -0.0275972 9.08947e-17)
(-0.168722 -0.052665 5.72737e-15)
(-0.13436 -0.14081 -7.18248e-15)
(-0.678041 0.019082 -7.46052e-15)
(-0.0685312 -0.327384 3.79523e-15)
(-0.0244405 -0.280827 -1.21764e-15)
(0.00175828 -0.233911 -3.9697e-15)
(-0.0225946 -0.243481 -2.53832e-15)
(-0.0384216 -0.255283 1.25809e-14)
(-0.0336903 -0.247747 -1.54833e-14)
(-0.0355397 -0.243329 -3.63266e-15)
(-0.0362345 -0.234656 2.99695e-14)
(-0.0320638 -0.225992 1.73479e-14)
(-0.0357238 -0.228021 3.36429e-14)
(-0.0493336 -0.23647 7.36182e-14)
(-0.0739541 -0.253991 6.08177e-14)
(-0.112273 -0.27459 -1.42384e-13)
(-0.155977 -0.288204 -2.29544e-13)
(-0.191416 -0.285303 3.90975e-14)
(-0.20174 -0.257398 2.93866e-13)
(-0.177182 -0.207121 6.19023e-14)
(-0.132679 -0.15399 -1.67742e-13)
(-0.112114 -0.124711 -2.88587e-14)
(-0.149631 -0.131883 3.41583e-14)
(-0.220762 -0.156811 -6.89613e-14)
(-0.286217 -0.166575 -8.46467e-14)
(-0.380657 -0.152248 6.33911e-15)
(-0.526874 -0.13491 6.28917e-14)
(-0.666462 -0.125434 5.71869e-14)
(-0.782208 -0.092375 -3.15301e-15)
(-0.717457 -0.0144037 3.29573e-14)
(-0.31282 0.0565426 5.88088e-15)
(-0.0537832 0.085911 5.61817e-14)
(-0.252632 0.125681 -4.34165e-14)
(-0.347721 0.197762 -1.44303e-13)
(-0.355543 0.257389 -4.87639e-14)
(-0.345673 0.473233 2.86616e-14)
(-0.000855812 0.533605 2.33513e-14)
(-1.84073 0.0969651 -2.11679e-14)
(1.92745 4.92869 -2.07077e-14)
(4.30438 6.70057 2.7691e-14)
(27.9092 -14.9746 6.87994e-14)
(27.693 -10.0187 -1.58231e-13)
(-0.0972165 -0.362456 -8.59265e-15)
(-0.115155 -0.324385 -7.93889e-15)
(-0.128877 -0.271108 -1.30096e-14)
(-0.140721 -0.26282 -2.02188e-14)
(-0.124973 -0.241617 3.10572e-14)
(-0.0944862 -0.246684 -4.18566e-14)
(-0.0581817 -0.261578 -1.86038e-14)
(-0.0180674 -0.264699 6.43494e-14)
(0.0192905 -0.257776 -3.61543e-14)
(0.0526171 -0.246945 6.8138e-14)
(0.0821305 -0.233719 6.66754e-14)
(0.107117 -0.219626 4.36836e-14)
(0.12931 -0.205908 3.06656e-14)
(0.148509 -0.191025 4.712e-14)
(0.165701 -0.177184 -1.34095e-14)
(0.181274 -0.163259 3.45179e-15)
(0.19644 -0.149201 3.3763e-14)
(0.209888 -0.134109 2.551e-14)
(0.220294 -0.117891 -2.48321e-15)
(0.22468 -0.100322 -5.11506e-14)
(0.220669 -0.0818031 -9.40178e-15)
(0.207606 -0.0630304 2.04451e-16)
(0.188775 -0.0455756 -3.40628e-14)
(0.167949 -0.0306827 3.69722e-15)
(0.147194 -0.0190138 -5.05867e-15)
(0.126117 -0.0105432 -1.06954e-14)
(0.103233 -0.004393 8.10123e-16)
(0.0752874 -7.11797e-05 7.70504e-17)
(0.039437 0.00274346 2.52949e-17)
(-0.00135849 0.00350638 7.26768e-19)
(-0.0310426 0.00115586 -5.89759e-17)
(-0.0343417 -0.00286325 9.02707e-17)
(-0.0299794 -0.00890794 7.42577e-16)
(-0.0369348 -0.017513 1.71539e-15)
(-0.0529189 -0.0244957 1.06733e-15)
(-0.0804334 -0.0340403 3.56557e-15)
(-0.164882 -0.0598907 -1.47823e-14)
(-0.146647 -0.151902 -9.4878e-15)
(-0.620809 -0.0347959 2.02803e-14)
(-0.0643317 -0.284028 -2.8449e-15)
(-0.0403602 -0.255145 8.39671e-16)
(-0.0170087 -0.206131 4.45947e-15)
(-0.0384928 -0.21235 4.24214e-15)
(-0.0490262 -0.217388 3.85248e-15)
(-0.0394117 -0.20742 3.98726e-15)
(-0.0360685 -0.20245 -1.48587e-14)
(-0.0322345 -0.195096 -4.38573e-14)
(-0.0240672 -0.189179 -4.09492e-14)
(-0.0241356 -0.194568 -9.93955e-15)
(-0.0347878 -0.208896 -5.4286e-14)
(-0.056735 -0.230565 -1.73905e-14)
(-0.0922142 -0.254825 1.32454e-13)
(-0.13307 -0.271507 6.65847e-14)
(-0.166028 -0.271494 -3.77955e-15)
(-0.175429 -0.24752 -2.26044e-13)
(-0.152595 -0.202729 -6.10278e-14)
(-0.112896 -0.155669 2.07618e-13)
(-0.0991841 -0.132973 9.88995e-14)
(-0.14846 -0.1456 -4.72941e-14)
(-0.221408 -0.165238 -3.99677e-15)
(-0.279127 -0.169469 4.73514e-14)
(-0.364761 -0.154317 1.21152e-14)
(-0.509698 -0.136354 -8.62527e-14)
(-0.64879 -0.121668 -1.45376e-13)
(-0.756311 -0.0834008 4.29658e-14)
(-0.69029 -0.000535814 -7.83635e-15)
(-0.295576 0.0687633 -8.7918e-15)
(-0.0440998 0.0850471 -3.12679e-14)
(-0.237145 0.121887 -2.68938e-14)
(-0.328351 0.208049 4.32009e-14)
(-0.326147 0.275563 1.47108e-13)
(-0.31644 0.47412 4.1343e-14)
(-0.00752061 0.534557 -1.11167e-13)
(-1.61706 0.187317 1.50219e-14)
(1.50059 4.62217 -3.64732e-14)
(6.37217 4.76362 -3.30698e-15)
(11.5785 -12.102 -3.81798e-14)
(11.0791 -8.16471 -1.84306e-14)
(-0.101306 -0.267297 8.3276e-15)
(-0.130969 -0.240864 2.56325e-14)
(-0.141267 -0.21912 -5.86457e-14)
(-0.134387 -0.223276 -6.73079e-15)
(-0.114596 -0.2161 -1.20933e-13)
(-0.0878838 -0.225995 8.29205e-15)
(-0.0562197 -0.23963 3.31786e-14)
(-0.0222366 -0.243157 -1.33117e-13)
(0.0103889 -0.24019 2.77258e-14)
(0.0415679 -0.232241 -1.12482e-14)
(0.0683652 -0.223878 -6.55547e-14)
(0.0951381 -0.213165 -7.67544e-14)
(0.117119 -0.201501 -1.11611e-15)
(0.13751 -0.189361 5.76358e-14)
(0.155936 -0.17702 2.29086e-14)
(0.172463 -0.164055 -2.28433e-14)
(0.188049 -0.150806 -3.23744e-14)
(0.201602 -0.136562 -8.97231e-15)
(0.212046 -0.121172 1.6925e-14)
(0.216616 -0.104251 4.35736e-14)
(0.213036 -0.0861339 4.38722e-14)
(0.200699 -0.0675727 3.98852e-14)
(0.182792 -0.0501664 -1.82874e-15)
(0.163104 -0.035275 -3.6604e-14)
(0.143419 -0.0235839 3.33335e-15)
(0.123145 -0.014875 -1.13327e-14)
(0.100799 -0.00822516 -6.71211e-15)
(0.0732668 -0.00327351 -1.01681e-15)
(0.0378289 5.04969e-05 3.90195e-16)
(-0.00239435 0.000972209 4.98354e-16)
(-0.0314446 -0.00173804 7.92381e-17)
(-0.0342693 -0.00607165 -2.04863e-16)
(-0.0296914 -0.0118244 -1.6036e-16)