/*--------------------------------*- C++ -*----------------------------------*\
| =========                 |                                                 |
| \\      /  F ield         | OpenFOAM: The Open Source CFD Toolbox           |
|  \\    /   O peration     | Version:  2312                                  |
|   \\  /    A nd           | Website:  www.openfoam.com                      |
|    \\/     M anipulation  |                                                 |
\*---------------------------------------------------------------------------*/
FoamFile
{
    version     2.0;
    format      ascii;
    arch        "LSB;label=32;scalar=64";
    class       volScalarField;
    location    "450";
    object      p;
}
// * * * * * * * * * * * * * * * * * * * * * * * * * * * * * * * * * * * * * //

dimensions      [0 2 -2 0 0 0 0];

internalField   nonuniform List<scalar> 
10720
(
-26.6258
-95.024
-175.742
-256.086
-331.246
-408.164
-477.139
-535.879
-587.519
-628.747
-661.155
-685.7
-703.364
-715.414
-722.035
-722.794
-718.597
-708.471
-693.619
-673.088
-647.988
-617.054
-579.342
-533.004
-480.012
-437.569
-410.228
-361.341
-304.359
-268.988
-240.276
-206.195
-167.551
-125.756
-101.352
-78.7498
-31.9124
-36.2534
-72.7453
41.069
102.504
166.977
226.445
276.388
312.571
331.348
335.857
330.192
313.655
290.62
266.022
241.677
218.369
196.812
176.741
158.126
140.487
123.527
106.69
89.9012
72.8521
55.6823
38.8369
24.1664
12.85
3.80314
-3.50766
-9.17732
-13.1397
-15.424
-16.0954
-15.2664
-13.0407
-9.48575
-4.55177
1.42818
11.2777
29.9069
65.74
13.9299
-44.4669
-106.884
-171.376
-237.709
-302.496
-363.69
-420.563
-471.378
-515.715
-553.58
-585.088
-610.227
-628.986
-640.898
-646.637
-646.079
-639.987
-628.007
-610.485
-585.792
-552.091
-507.734
-458.876
-416.398
-379.69
-346.71
-314.325
-279.966
-243.864
-206.659
-167.425
-125.741
-101.36
-78.6974
-31.5744
-37.1333
-74.298
112.136
156.112
199.633
241.135
277.102
304.802
321.153
326.507
322.006
308.607
289.711
268.408
246.288
224.293
203.174
183.109
164.163
146.094
128.652
111.484
94.4863
77.4324
60.3867
43.8193
29.2325
17.5252
7.9405
0.106302
-6.0017
-10.3455
-12.9817
-13.9931
-13.4883
-11.5679
-8.28727
-3.56751
2.20387
12.9984
31.3388
77.1544
30.6654
-21.9775
-80.3071
-141.131
-203.861
-266.936
-327.792
-384.873
-437.142
-483.341
-523.101
-555.993
-581.911
-601.258
-614.32
-621.296
-622.105
-617.052
-606.034
-589.14
-565.519
-534.204
-493.998
-449.423
-408.784
-372.814
-343.418
-313.089
-278.379
-241.822
-204.771
-166.463
-125.982
-101.213
-77.7377
-30.5258
-37.9716
-75.4001
118.868
159.044
198.66
235.79
267.332
291.585
306.664
312.713
310.193
299.946
284.273
265.422
245.007
224.141
203.641
183.901
165.059
147.027
129.619
112.558
95.6918
78.8787
62.1802
45.9436
31.3747
19.3808
9.54772
1.51924
-4.74851
-9.24416
-12.0331
-13.1827
-12.7928
-10.9678
-7.74829
-3.06549
2.91669
13.7925
31.9119
95.1366
56.1359
11.39
-38.0251
-90.1485
-144.966
-200.864
-256.123
-309.456
-359.715
-405.79
-446.989
-482.769
-512.911
-537.287
-556.091
-569.044
-575.824
-576.403
-570.692
-558.625
-539.665
-513.183
-478.687
-439.767
-402.612
-369.925
-340.74
-309.719
-275.54
-239.771
-203.37
-165.801
-126.413
-100.915
-76.4143
-29.4885
-38.998
-76.6749
129.919
163.108
196.148
227.688
254.836
276.245
290.413
297.037
296.23
288.708
276.104
260.15
242.216
223.337
204.287
185.528
167.286
149.603
132.388
115.464
98.7157
82.0593
65.5487
49.5317
35.001
22.8097
12.7498
4.48375
-2.04661
-6.82874
-9.91638
-11.3507
-11.225
-9.64243
-6.63226
-2.10218
3.84716
14.6943
32.7419
98.9342
64.2595
24.2865
-20.1514
-67.1443
-117.13
-168.771
-220.513
-271.381
-320.235
-365.956
-407.762
-444.969
-477.062
-503.702
-524.728
-539.701
-548.532
-551.07
-547.337
-537.279
-520.573
-496.751
-465.673
-430.058
-395.235
-364.134
-335.275
-304.85
-271.883
-237.149
-201.63
-164.917
-126.599
-100.642
-75.5683
-29.1552
-40.7436
-78.2401
129.932
159.352
188.737
216.809
241.017
260.427
273.902
280.949
281.537
276.279
266.332
253.015
237.425
220.476
202.902
185.194
167.656
150.433
133.527
116.855
100.34
83.9393
67.7213
52.0064
37.604
25.2909
15.0276
6.54014
-0.226886
-5.25364
-8.56951
-10.2111
-10.2643
-8.83506
-5.94376
-1.48598
4.48894
15.2729
32.9388
100.489
69.7809
34.2128
-5.29701
-47.0717
-91.8241
-138.316
-185.309
-232.094
-277.637
-320.997
-361.431
-398.21
-430.728
-458.538
-481.29
-498.657
-510.414
-516.266
-516.037
-509.548
-496.491
-476.496
-449.64
-418.194
-386.396
-356.919
-328.886
-299.496
-267.742
-234.008
-199.427
-163.742
-126.566
-100.485
-75.1164
-29.7758
-43.3586
-79.082
127.956
153.938
180.087
205.258
227.093
244.915
257.798
265.121
266.779
263.319
255.596
244.629
231.287
216.34
200.443
184.063
167.53
151.045
134.687
118.443
102.287
86.2163
70.3186
54.8959
40.6335
28.2394
17.8023
9.1219
2.14362
-3.11046
-6.65844
-8.53227
-8.80947
-7.59083
-4.88269
-0.569373
5.35237
16.0077
32.7087
98.7678
71.0651
38.8999
3.1482
-34.5705
-75.1846
-117.596
-160.723
-204.094
-246.797
-288.019
-327.098
-363.301
-395.984
-424.617
-448.725
-467.858
-481.558
-489.458
-491.329
-487.039
-476.393
-459.162
-435.572
-407.472
-378.207
-350.187
-323.013
-294.503
-263.757
-230.959
-197.29
-162.613
-126.533
-100.393
-74.8625
-31.182
-46.1981
-78.3629
123.576
146.976
170.656
193.557
213.507
230.061
242.415
249.876
252.356
250.316
244.422
235.477
224.166
211.115
196.886
181.893
166.46
150.824
135.114
119.382
103.653
87.9653
72.4246
57.3199
43.241
30.8305
20.2658
11.4195
4.24485
-1.23183
-5.01388
-7.11489
-7.6008
-6.56685
-4.01103
0.193604
6.08068
16.5982
32.4598
95.708
70.5619
41.313
8.83618
-25.3272
-62.2205
-100.834
-140.225
-180.087
-219.645
-258.199
-295.2
-329.974
-361.893
-390.391
-414.931
-434.971
-450.067
-459.822
-463.934
-462.185
-454.35
-440.216
-420.046
-395.352
-368.807
-342.548
-316.497
-289.013
-259.399
-227.677
-195.011
-161.381
-126.441
-100.254
-74.7674
-33.0189
-48.2819
-75.4792
118.266
139.502
161.12
182.132
200.521
216.017
227.874
235.375
238.47
237.54
233.131
225.895
216.378
205.081
192.473
178.901
164.666
150.008
135.086
119.995
104.804
89.5837
74.4594
59.7088
45.8564
33.4872
22.8397
13.8578
6.51063
0.830589
-3.16849
-5.48742
-6.18419
-5.3486
-2.96782
1.09601
6.90413
17.2203
32.3064
91.6936
68.6713
41.8675
12.1324
-19.0437
-52.7601
-88.1026
-124.221
-160.947
-197.607
-233.617
-268.535
-301.756
-332.693
-360.791
-385.48
-406.181
-422.383
-433.601
-439.448
-439.659
-434.047
-422.449
-405.156
-383.432
-359.386
-334.825
-309.893
-283.427
-254.933
-224.291
-192.632
-160.034
-126.243
-100.056
-74.7974
-35.1387
-49.1998
-70.7407
112.38
131.831
151.731
171.158
188.23
202.818
214.207
221.682
225.222
225.159
221.95
216.142
208.179
198.461
187.371
175.191
162.181
148.566
134.513
120.146
105.565
90.8713
76.2053
61.8389
48.2482
35.9703
25.2833
16.1959
8.69786
2.82957
-1.3795
-3.91405
-4.82075
-4.17988
-1.96843
1.96019
7.68614
17.7807
32.1877
87.2104
66.0087
41.3122
13.9519
-14.6371
-45.5741
-78.0077
-111.171
-144.992
-178.88
-212.359
-245.077
-276.496
-306.108
-333.377
-357.732
-378.587
-395.386
-407.643
-414.95
-416.979
-413.521
-404.401
-389.884
-371.021
-349.451
-326.674
-302.986
-277.625
-250.284
-220.756
-190.135
-158.581
-125.935
-99.828
-74.8863
-37.4437
-49.0751
-65.0896
106.297
124.224
142.658
160.726
176.665
190.45
201.398
208.795
212.65
213.26
211.019
206.395
199.761
191.442
181.747
170.896
159.103
146.568
133.449
119.881
105.985
91.8838
77.7293
63.7881
50.5025
38.3709
27.695
18.5391
10.9188
4.88392
0.480318
-2.25986
-3.37222
-2.92846
-0.894726
2.88301
8.50079
18.3344
32.0739
82.4926
62.8636
39.9929
14.6912
-11.6504
-40.1594
-70.0351
-100.579
-131.776
-163.115
-194.208
-224.786
-254.378
-282.541
-308.791
-332.58
-353.328
-370.474
-383.485
-391.954
-395.483
-393.85
-386.881
-374.809
-358.515
-339.259
-318.245
-295.851
-271.634
-245.456
-217.065
-187.512
-157.022
-125.513
-99.5751
-74.9797
-39.7858
-48.2896
-59.3224
100.196
116.813
133.977
150.863
165.815
178.88
189.401
196.688
200.757
201.887
200.422
196.778
191.274
184.179
175.742
166.133
155.519
144.064
131.912
119.194
106.04
92.584
78.9857
65.5058
52.564
40.6271
30.009
20.8204
13.1046
6.92324
2.33853
-0.600155
-1.91483
-1.6673
0.187678
3.80981
9.3054
18.8543
31.9324
77.7133
59.4636
38.1971
14.7053
-9.66479
-36.0307
-63.6338
-91.8294
-120.651
-149.643
-178.491
-206.992
-234.745
-261.373
-286.44
-309.435
-329.806
-346.997
-360.463
-369.807
-374.599
-374.585
-369.571
-359.741
-345.823
-328.772
-309.521
-288.481
-265.455
-240.456
-213.229
-184.768
-155.355
-124.974
-99.287
-75.0503
-42.0299
-47.1944
-53.7864
94.2079
109.679
125.729
141.568
155.652
168.059
178.167
185.321
189.527
191.056
190.215
187.378
182.829
176.793
169.479
161.01
151.513
141.118
129.942
118.106
105.737
92.9744
79.9753
66.996
54.4384
42.7449
32.2336
23.052
15.2721
8.969
4.2213
1.09616
-0.414091
-0.361692
1.31057
4.76646
10.1189
19.3511
31.7697
72.9802
55.9479
36.1031
14.2142
-8.41282
-32.877
-58.4567
-84.5486
-111.224
-138.078
-164.843
-191.379
-217.341
-242.415
-266.219
-288.289
-308.106
-325.135
-338.834
-348.812
-354.63
-355.987
-352.678
-344.839
-333.068
-318.073
-300.548
-280.894
-259.092
-235.29
-209.244
-181.897
-153.573
-124.314
-98.957
-75.0885
-44.0999
-46.0483
-48.6626
88.4023
102.867
117.924
132.83
146.135
157.941
167.653
174.65
178.935
180.766
180.425
178.252
174.507
169.385
163.06
155.625
147.171
137.793
127.583
116.641
105.086
93.05
80.6866
68.244
56.1087
44.7033
34.3454
25.2107
17.3982
10.9985
6.10648
2.80679
1.10781
0.967303
2.45492
5.73688
10.9286
19.8181
31.5884
68.3616
52.4138
33.8396
13.3824
-7.6908
-30.4564
-54.2258
-78.4267
-103.162
-128.064
-152.906
-177.593
-201.835
-225.369
-247.872
-268.925
-288.046
-304.734
-318.465
-328.849
-335.475
-337.989
-336.169
-330.104
-320.278
-307.2
-291.354
-273.102
-252.554
-229.959
-205.109
-178.895
-151.67
-123.524
-98.5781
-75.0921
-45.9687
-44.9547
-44.0779
82.8255
96.3905
110.56
124.625
137.226
148.475
157.807
164.634
168.952
171.01
171.068
169.441
166.37
162.032
156.575
150.067
142.571
134.156
124.884
114.832
104.104
92.8177
81.1202
69.2466
57.5693
46.4944
36.3356
27.2885
19.4773
13.0087
7.99354
4.53407
2.65546
2.32556
3.62654
6.72539
11.7373
20.2593
31.3891
63.8989
48.9264
31.4952
12.3261
-7.35405
-28.5948
-50.7336
-73.2322
-96.2088
-119.327
-142.397
-165.362
-187.973
-210.017
-231.215
-251.2
-269.532
-285.747
-299.352
-309.962
-317.193
-320.658
-320.114
-315.605
-307.521
-296.21
-281.976
-265.126
-245.849
-224.471
-200.828
-175.761
-149.642
-122.601
-98.1407
-75.0599
-47.6319
-43.9418
-40.0779
77.5009
90.2562
103.621
116.924
128.882
139.613
148.583
155.229
159.543
161.767
162.143
160.965
158.462
154.794
150.093
144.411
137.789
130.27
121.893
112.712
102.809
92.2877
81.2782
70.0005
58.8128
48.1073
38.1905
29.2715
21.496
14.9871
9.87139
6.26818
4.22005
3.70535
4.81858
7.72608
12.5402
20.6737
31.1708
59.6173
45.5296
29.1337
11.1315
-7.29221
-27.1539
-47.8181
-68.7762
-90.1555
-111.646
-133.09
-154.455
-175.53
-196.143
-216.059
-234.956
-252.438
-268.081
-281.43
-292.105
-299.764
-303.993
-304.529
-301.376
-294.842
-285.15
-272.451
-256.989
-238.991
-218.832
-196.404
-172.493
-147.485
-121.539
-97.634
-74.9881
-49.0907
-43.0239
-36.6512
72.4385
84.4607
97.0941
109.699
121.066
131.313
139.936
146.394
150.678
153.02
153.649
152.838
150.81
147.715
143.67
138.718
132.886
126.194
118.661
110.32
101.229
91.4737
81.1652
70.505
59.8357
49.5347
39.8999
31.1485
23.4437
16.9245
11.7327
8.00371
5.79789
5.10443
6.02948
8.73755
13.3363
21.0626
30.9327
55.5327
42.2508
26.7986
9.86057
-7.42341
-26.0316
-45.3582
-64.9159
-84.8408
-104.847
-124.797
-144.677
-164.315
-183.568
-202.242
-220.054
-236.654
-251.659
-264.649
-275.262
-283.188
-288.012
-289.445
-287.459
-282.293
-274.071
-262.82
-248.715
-231.993
-213.054
-191.841
-169.091
-145.197
-120.336
-97.0481
-74.8704
-50.3482
-42.2119
-33.7607
67.6405
78.9956
90.957
102.921
113.742
123.532
131.823
138.092
142.322
144.745
145.572
145.063
143.434
140.827
137.352
133.043
127.917
121.981
115.236
107.694
99.3927
90.3949
80.792
70.7639
60.6355
50.7696
41.4538
32.9079
25.3088
18.8101
13.5678
9.73247
7.38217
6.51731
7.25465
9.756
14.1231
21.4263
30.6749
51.652
39.1079
24.5231
8.55708
-7.68448
-25.1513
-43.2564
-61.5387
-80.1355
-98.7825
-117.358
-135.87
-154.166
-172.137
-189.619
-206.367
-222.073
-236.392
-248.945
-259.393
-267.45
-272.716
-274.881
-273.888
-269.918
-263.021
-253.123
-240.331
-224.872
-207.146
-187.145
-165.558
-142.777
-118.992
-96.3746
-74.6986
-51.4102
-41.5091
-31.3564
63.1045
73.8477
85.1902
96.5633
106.875
116.236
124.209
130.284
134.447
136.919
137.901
137.641
136.346
134.155
131.172
127.428
122.931
117.681
111.664
104.874
97.33
89.0729
80.172
70.7838
61.2135
51.8087
42.8445
34.5397
27.0808
20.6338
15.3675
11.4467
8.96648
7.9391
8.49015
10.7784
14.8987
21.7659
30.3986
47.9767
36.1126
22.3255
7.25592
-8.03206
-24.4509
-41.4386
-58.5526
-75.9355
-93.3362
-110.649
-127.896
-144.945
-161.711
-178.057
-193.773
-208.59
-222.199
-234.26
-244.461
-252.532
-258.107
-260.854
-260.692
-257.759
-252.044
-243.401
-231.868
-217.646
-201.12
-182.323
-161.897
-140.224
-117.507
-95.6057
-74.465
-52.2848
-40.9124
-29.3867
58.8252
69.0042
79.7746
90.599
100.433
109.39
117.056
122.94
127.022
129.519
130.621
130.564
129.551
127.715
125.157
121.907
117.97
113.338
107.987
101.899
95.0731
87.5313
79.3204
70.5736
61.5737
52.6506
44.0662
36.0353
28.7497
22.3851
17.1221
13.1379
10.5435
9.36388
9.73117
11.8009
15.6608
22.0818
30.1049
44.5063
33.2712
20.2216
5.97946
-8.4295
-23.8855
-39.8451
-55.8884
-72.1566
-88.4126
-104.563
-120.64
-136.53
-152.166
-167.439
-182.164
-196.108
-208.998
-220.53
-230.419
-238.411
-244.177
-247.372
-247.896
-245.851
-241.185
-233.692
-223.354
-210.336
-194.991
-177.385
-158.112
-137.541
-115.881
-94.7359
-74.1625
-52.9821
-40.4146
-27.8018
54.7946
64.4517
74.6908
85.0032
94.3894
102.963
110.335
116.027
120.02
122.523
123.717
123.826
123.05
121.518
119.328
116.51
113.068
108.989
104.244
98.8044
92.6542
85.7966
78.2576
70.1465
61.7223
53.2958
45.1151
37.3874
30.3062
24.0545
18.8221
14.7973
12.1057
10.7854
10.9726
12.8198
16.4076
22.3749
29.7951
41.2366
30.5856
18.2214
4.7465
-8.85097
-23.4174
-38.4301
-53.4874
-68.7295
-83.9319
-99.0119
-114.008
-128.824
-143.406
-157.665
-171.446
-184.541
-196.715
-207.693
-217.223
-225.06
-230.916
-234.441
-235.521
-234.228
-230.481
-224.036
-214.823
-202.964
-188.773
-172.34
-154.208
-134.73
-114.118
-93.7606
-73.785
-53.5131
-40.0057
-26.5559
51.005
60.1762
69.9194
79.752
88.7168
96.9266
104.015
109.52
113.417
115.91
117.173
117.419
116.841
115.569
113.697
111.256
108.251
104.667
100.471
95.6257
90.1047
83.8954
77.0044
69.5167
61.6673
53.7473
45.989
38.59
31.7421
25.6323
20.4579
16.416
13.645
12.1967
12.209
13.8311
17.1369
22.6461
29.4715
38.163
28.0561
16.3297
3.56897
-9.27579
-23.0188
-37.1554
-51.3029
-65.5969
-79.8281
-93.9203
-107.919
-121.738
-135.337
-148.646
-161.528
-173.808
-185.275
-195.69
-204.824
-212.447
-218.308
-222.062
-223.581
-222.916
-219.97
-214.469
-206.304
-195.553
-182.484
-167.2
-150.192
-131.795
-112.222
-92.6768
-73.3278
-53.8892
-39.6748
-25.6083
47.4457
56.1633
65.4416
74.8232
83.3903
91.2555
98.0721
103.39
107.187
109.659
110.972
111.329
110.92
109.871
108.274
106.163
103.543
100.399
96.6966
92.3937
87.4548
81.8542
75.5818
68.7001
61.4196
54.0105
46.6883
39.6392
33.0503
27.1101
22.0202
17.9847
15.1531
13.5903
13.4343
14.8305
17.8468
22.8963
29.1367
35.2787
25.6798
14.5498
2.45559
-9.69082
-22.6676
-35.9922
-49.2971
-62.7158
-76.0481
-89.2278
-102.303
-115.197
-127.881
-140.3
-152.334
-163.833
-174.613
-184.462
-193.177
-200.542
-206.337
-210.23
-212.088
-211.941
-209.682
-205.026
-197.829
-188.129
-176.141
-161.976
-146.072
-128.742
-110.196
-91.4825
-72.787
-54.1222
-39.4114
-24.9221
44.1061
52.4
61.2413
70.1971
78.3885
85.9256
92.4805
97.6165
101.309
103.752
105.099
105.547
105.28
104.422
103.064
101.241
98.9596
96.2066
92.9469
89.1361
84.7323
79.6994
74.0128
67.715
60.9921
54.0926
47.2152
40.5326
34.2253
28.4799
23.5001
19.4943
16.6214
14.9587
14.6422
15.8137
18.5354
23.1265
28.7933
32.5761
23.4531
12.8818
1.41131
-10.0835
-22.3473
-34.9167
-47.44
-60.0467
-72.5485
-84.8833
-97.1026
-109.138
-120.97
-132.556
-143.792
-154.549
-164.664
-173.953
-182.235
-189.31
-194.981
-198.94
-201.048
-201.318
-199.644
-195.738
-189.429
-180.715
-169.764
-156.682
-141.858
-125.576
-108.046
-90.1772
-72.1599
-54.2229
-39.2036
-24.461
40.9759
48.8713
57.3014
65.8557
73.6908
80.9147
87.2175
92.1754
95.7639
98.1686
99.5388
100.06
99.9133
99.22
98.069
96.4979
94.515
92.1085
89.2446
85.8781
81.9631
77.456
72.3203
66.5803
60.399
54.0029
47.5735
41.27
35.2629
29.735
24.8893
20.9361
18.0412
16.2937
15.8262
16.7761
19.2007
23.3376
28.4443
30.0466
21.3713
11.3248
0.438993
-10.4461
-22.0444
-33.9096
-45.7057
-57.559
-69.2899
-80.8417
-92.2671
-103.506
-114.547
-125.354
-135.84
-145.893
-155.371
-164.113
-171.954
-178.717
-184.218
-188.181
-190.462
-191.063
-189.881
-186.635
-181.131
-173.337
-163.372
-151.332
-137.558
-122.305
-105.777
-88.7611
-71.4436
-54.2017
-39.0399
-24.1912
38.0444
45.5649
53.6064
61.7802
69.2769
76.202
82.263
87.0479
90.5312
92.8928
94.2753
94.8561
94.8118
94.2605
93.2898
91.939
90.2186
88.1187
85.6076
82.6408
79.1704
75.1471
70.5257
65.3149
59.6551
53.7521
47.7696
41.8525
36.1607
30.8702
26.1804
22.3014
19.404
17.5873
16.9795
17.7128
19.8407
23.5305
28.0928
27.6823
19.4288
9.8762
-0.460101
-10.7738
-21.7492
-32.9566
-44.075
-55.2272
-66.2415
-77.0668
-87.7553
-98.2544
-108.558
-118.639
-128.421
-137.809
-146.68
-154.889
-162.293
-168.728
-174.026
-177.942
-180.331
-181.186
-180.413
-177.74
-172.963
-166.019
-156.985
-145.943
-133.185
-118.935
-103.394
-87.2344
-70.6369
-54.0672
-38.9084
-24.08
35.3009
42.4673
50.1415
57.954
65.1293
71.7695
77.5974
82.2145
85.593
87.9078
89.2947
89.9235
89.966
89.5375
88.7239
87.5659
86.0764
84.2477
82.0507
79.4425
76.3746
72.7942
68.6499
63.9371
58.7762
53.3519
47.8108
42.2834
36.9176
31.8807
27.3667
23.5825
20.7016
18.8312
18.0949
18.6191
20.4532
23.7063
27.7418
25.4752
17.6194
8.53326
-1.28575
-11.0627
-21.4538
-32.0457
-42.5313
-53.0296
-63.3766
-73.5267
-83.5307
-93.3428
-102.96
-112.364
-121.487
-130.249
-138.542
-146.238
-153.21
-159.308
-164.379
-168.207
-170.648
-171.693
-171.255
-169.078
-164.949
-158.786
-150.623
-140.53
-128.749
-115.476
-100.902
-85.5999
-69.7379
-53.8273
-38.7982
-24.097
32.7349
39.5666
46.8928
54.3627
61.2314
67.6
73.2037
77.6576
80.9326
83.1978
84.5828
85.2499
85.3661
85.0439
84.3679
83.3792
82.0931
80.5042
78.5861
76.2985
73.5935
70.4171
66.713
62.4665
57.7789
52.8152
47.7059
42.5673
37.5342
32.7641
28.4426
24.772
21.9257
20.0176
19.1655
19.4898
21.0361
23.8654
27.3942
23.4169
15.9375
7.29156
-2.03857
-11.3109
-21.1528
-31.1674
-41.0616
-50.9489
-60.6744
-70.1956
-79.5637
-88.7357
-97.7154
-106.486
-114.994
-123.166
-130.911
-138.115
-144.665
-150.426
-155.253
-158.961
-161.409
-162.587
-162.418
-160.665
-157.113
-151.66
-144.309
-135.111
-124.265
-111.938
-98.3085
-83.8589
-68.746
-53.4888
-38.6972
-24.2144
30.3367
36.8516
43.8482
50.9919
57.5683
63.6774
69.0655
73.3612
76.5341
78.748
80.1263
80.8239
81.0031
80.7733
80.2174
79.3775
78.2703
76.8933
75.2229
73.2213
70.8425
68.033
64.7334
60.9202
56.6787
52.1551
47.4647
42.7098
38.0125
33.5185
29.4041
25.8635
23.069
21.1388
20.1844
20.3199
21.5871
24.0086
27.0528
21.4995
14.3765
6.14747
-2.72055
-11.5174
-20.8427
-30.3147
-39.6545
-48.9707
-58.1161
-67.0505
-75.8261
-84.4033
-92.7879
-100.97
-108.901
-116.521
-123.748
-130.483
-136.623
-142.047
-146.621
-150.185
-152.605
-153.868
-153.911
-152.517
-149.474
-144.664
-138.063
-129.704
-119.747
-108.331
-95.621
-82.0152
-67.6609
-53.0554
-38.5952
-24.4061
28.0971
34.3117
40.995
47.8279
54.1258
59.9865
65.1676
69.3098
72.3828
74.5442
75.9118
76.6334
76.8665
76.7175
76.2667
75.5576
74.6084
73.4186
71.9678
70.2212
68.1352
65.6573
62.727
59.3148
55.491
51.385
47.0978
42.7185
38.356
34.1441
30.2476
26.8519
24.1247
22.1875
21.1449
21.1044
22.1038
24.136
26.72
19.7157
12.9305
5.09681
-3.33401
-11.6818
-20.5198
-29.4817
-38.3009
-47.0822
-55.6849
-64.0723
-72.2952
-80.3181
-88.1489
-95.7811
-103.175
-110.277
-117.016
-123.304
-129.05
-134.143
-138.459
-141.861
-144.222
-145.532
-145.739
-144.647
-142.048
-137.815
-131.904
-124.328
-115.211
-104.667
-92.847
-80.0738
-66.4828
-52.5329
-38.4809
-24.6492
26.0073
31.9364
38.322
44.859
50.8907
56.5135
61.4959
65.4896
68.4649
70.5733
71.9272
72.6676
72.9464
72.8682
72.51
71.9163
71.1065
70.0819
68.8256
67.3059
65.4818
63.3028
60.7087
57.6657
54.2308
50.5184
46.6162
42.601
38.5691
34.6419
30.9717
27.7326
25.0871
23.1569
22.0408
21.8382
22.5835
24.2477
26.3976
18.058
11.5937
4.13504
-3.88123
-11.8047
-20.1829
-28.6642
-36.9944
-45.2738
-53.3689
-61.245
-68.9522
-76.4583
-83.7725
-90.8923
-97.7832
-104.4
-110.68
-116.546
-121.913
-126.684
-130.742
-133.97
-136.251
-137.575
-137.904
-137.061
-134.849
-131.133
-125.851
-119
-110.672
-100.96
-89.9971
-78.0401
-65.2138
-51.9247
-38.3459
-24.9265
24.0588
29.7167
35.8186
42.0733
47.8507
53.2456
58.0366
61.8876
64.7675
66.8228
68.1604
68.915
69.2335
69.2169
68.9405
68.4485
67.762
66.8836
65.7996
64.4814
62.8913
60.9809
58.6917
55.9866
52.9122
49.5684
46.0312
42.3662
38.6577
35.0144
31.5754
28.5027
25.9513
24.0413
22.8663
22.5168
23.024
24.3432
26.0873
16.5196
10.3601
3.25792
-4.36511
-11.8872
-19.8308
-27.8589
-35.7292
-43.5376
-51.1567
-58.5548
-65.7801
-72.8039
-79.6362
-86.2782
-92.6999
-98.8627
-104.711
-110.177
-115.184
-119.642
-123.446
-126.493
-128.677
-129.99
-130.405
-129.767
-127.888
-124.632
-119.921
-113.739
-106.149
-97.2238
-87.0824
-75.9222
-63.8572
-51.2347
-38.1821
-25.2237
22.2436
27.6437
33.475
39.4598
44.9942
50.1708
54.7778
58.4909
61.2779
63.2806
64.6002
65.3656
65.718
65.7553
65.5511
65.1494
64.5715
63.8227
62.8912
61.7519
60.3702
58.7006
56.687
54.2904
51.548
48.5474
45.3539
42.0231
38.628
35.2649
32.0595
29.1603
26.7135
24.836
23.6163
23.1357
23.4225
24.4218
25.7899
15.0937
9.22422
2.46106
-4.78859
-11.9303
-19.4628
-27.0629
-34.4997
-41.8654
-49.038
-55.9888
-62.7639
-69.3374
-75.7208
-81.9166
-87.9001
-93.6379
-99.0821
-104.171
-108.835
-112.993
-116.548
-119.411
-121.486
-122.768
-123.24
-122.767
-121.175
-118.325
-114.131
-108.562
-101.658
-93.4753
-84.1157
-73.7293
-62.417
-50.4674
-37.9829
-25.5277
20.5541
25.7085
31.2817
37.0086
42.3105
47.2778
51.7082
55.2878
57.9849
59.9354
61.2357
62.0083
62.3899
62.4751
62.3346
62.0127
61.5313
60.8968
60.1004
59.1198
57.9235
56.4695
54.704
52.5877
50.15
47.467
44.5953
41.5811
38.4871
35.3979
32.4253
29.7044
27.3708
25.5369
24.2862
23.691
23.7766
24.4825
25.5055
13.7739
8.18055
1.74005
-5.1547
-11.9357
-19.0791
-26.2746
-33.3029
-40.2515
-47.0051
-53.5366
-59.8905
-66.0431
-72.0074
-77.7874
-83.362
-88.7028
-93.7679
-98.5011
-102.841
-106.712
-110.026
-112.705
-114.663
-115.899
-116.404
-116.063
-114.714
-112.222
-108.493
-103.484
-97.2157
-89.7297
-81.1115
-71.4723
-60.9003
-49.6263
-37.7431
-25.8273
18.9831
23.9033
29.2299
34.7103
39.7895
44.5562
48.8163
52.2674
54.8771
56.776
58.056
58.8336
59.24
59.3672
59.2835
59.0323
58.6362
58.1032
57.4262
56.5863
55.5548
54.293
52.7504
50.888
48.7286
46.3385
43.7659
41.0496
38.2427
35.4185
32.6757
30.1353
27.9218
26.1413
24.8725
24.1792
24.0839
24.5238
25.2338
12.5541
7.22372
1.09058
-5.46667
-11.9054
-18.6799
-25.493
-32.1356
-38.6918
-45.0513
-51.1895
-57.1493
-62.9089
-68.4815
-73.8731
-79.0661
-84.0358
-88.7456
-93.1454
-97.179
-100.777
-103.859
-106.356
-108.194
-109.372
-109.89
-109.652
-108.51
-106.331
-103.019
-98.5208
-92.8389
-86.0036
-78.0849
-69.1635
-59.3144
-48.7172
-37.4589
-26.1117
17.5235
22.2201
27.3113
32.5556
37.4215
41.9955
46.0921
49.4193
51.9442
53.7924
55.0514
55.8314
56.2593
56.4238
56.3902
56.2016
55.8813
55.4381
54.8669
54.1514
53.2661
52.1757
50.8329
49.1996
47.2935
45.1718
42.8759
40.4379
37.9025
35.3326
32.8144
30.4543
28.3657
26.6474
25.3726
24.5975
24.3421
24.5439
24.9732
11.4282
6.34865
0.508368
-5.72764
-11.8413
-18.266
-24.7168
-30.9953
-37.1817
-43.1705
-48.9396
-54.53
-59.9218
-65.129
-70.1583
-74.995
-79.6179
-83.9954
-88.0821
-91.827
-95.1667
-98.0273
-100.348
-102.063
-103.176
-103.693
-103.533
-102.563
-100.658
-97.7182
-93.684
-88.5422
-82.3127
-75.0513
-66.8162
-57.6687
-47.7451
-37.1269
-26.3709
16.1688
20.652
25.5178
30.5363
35.1977
39.5868
43.5259
46.7333
49.1762
50.9747
52.2122
52.9928
53.439
53.636
53.647
53.5142
53.2611
52.8972
52.4196
51.8143
51.0585
50.1204
48.9563
47.5293
45.8526
43.976
41.9347
39.7551
37.4747
35.1468
32.8455
30.6639
28.7032
27.0542
25.7846
24.9438
24.5493
24.541
24.7219
10.3905
5.55033
-0.0107638
-5.94094
-11.7456
-17.8384
-23.9462
-29.8805
-35.7177
-41.3579
-46.7801
-52.0244
-57.072
-61.9375
-66.6285
-71.1328
-75.4322
-79.4987
-83.2921
-86.7658
-89.8614
-92.5115
-94.6615
-96.2557
-97.2985
-97.8023
-97.7007
-96.8751
-95.2073
-92.5992
-88.9847
-84.3388
-78.6716
-72.0264
-64.4437
-55.9733
-46.715
-36.7448
-26.5957
14.9127
19.192
23.8422
28.6443
33.1096
37.321
41.1086
44.2005
46.5637
48.3135
49.5289
50.3087
50.7704
50.9961
51.0466
50.9632
50.7696
50.4761
50.0812
49.5732
48.9322
48.1293
47.1244
45.8826
44.4131
42.7592
40.951
39.01
36.9672
34.8677
32.7743
30.7673
28.9359
27.362
26.1079
25.2166
24.7037
24.5128
24.4771
9.43565
4.82399
-0.470847
-6.10953
-11.6205
-17.3981
-23.1809
-28.7895
-34.297
-39.6088
-44.7054
-49.625
-54.3505
-58.8965
-63.2718
-67.4655
-71.4629
-75.2391
-78.7578
-81.9768
-84.8428
-87.294
-89.2813
-90.757
-91.727
-92.2093
-92.1496
-91.4432
-89.9807
-87.6671
-84.4318
-80.2405
-75.0942
-69.0245
-62.06
-54.2393
-45.6334
-36.3111
-26.7774
13.7489
17.8335
22.2771
26.8718
31.1491
35.1899
38.8314
41.812
44.0979
45.8
46.9929
47.7703
48.245
48.4959
48.5813
48.5419
48.401
48.1696
47.8478
47.4257
46.8862
46.2031
45.34
44.2639
42.981
41.5288
39.9329
38.2109
36.3882
34.5025
32.6066
30.7687
29.0661
27.572
26.3426
25.4154
24.8042
24.4572
24.2354
8.5584
4.16479
-0.875774
-6.23664
-11.4684
-16.9463
-22.4208
-27.7212
-32.9178
-37.92
-42.7103
-47.3251
-51.7489
-55.9966
-60.0767
-63.9807
-67.6962
-71.2013
-74.4633
-77.4437
-80.0939
-82.3577
-84.1905
-85.5519
-86.4491
-86.9039
-86.8728
-86.2646
-84.9792
-82.9259
-80.0322
-76.2569
-71.5923
-66.0595
-59.6781
-52.4773
-44.5066
-35.8254
-26.9086
12.672
16.5702
20.8162
25.2119
29.3088
33.1854
36.6865
39.5593
41.7705
43.4257
44.5959
45.3696
45.8549
46.1278
46.2441
46.2436
46.1494
45.9729
45.7155
45.3692
44.9191
44.3421
43.605
42.6768
41.5615
40.2912
38.8878
37.3657
35.7456
34.0586
32.3486
30.6729
29.0974
27.6863
26.4897
25.5401
24.8498
24.3721
23.9932
7.75373
3.56849
-1.22946
-6.3254
-11.2913
-16.4845
-21.6665
-26.6752
-31.5776
-36.2881
-40.79
-45.1189
-49.2602
-53.2285
-57.0332
-60.667
-64.1195
-67.3714
-70.3935
-73.1509
-75.5989
-77.6868
-79.3739
-80.6261
-81.4517
-81.8753
-81.8627
-81.3348
-80.2016
-78.378
-75.7916
-72.3958
-68.1757
-63.143
-57.31
-50.6981
-43.341
-35.288
-26.9826
11.6763
15.3964
19.4529
23.6579
27.5816
31.3005
34.666
37.4348
39.5734
41.1827
42.3299
43.0987
43.5925
43.8844
44.028
44.0617
44.0087
43.8807
43.68
43.4005
43.0292
42.5458
41.9203
41.1239
40.1584
39.0517
37.8223
36.4818
35.047
33.5434
32.0071
30.4855
29.034
27.7079
26.5511
25.5917
24.8403
24.2555
23.7468
7.0169
3.03074
-1.53548
-6.37878
-11.0917
-16.0142
-20.9183
-25.6509
-30.2752
-34.7105
-38.9413
-43.0016
-46.878
-50.5851
-54.1324
-57.5138
-60.721
-63.7369
-66.5352
-69.0841
-71.3434
-73.2664
-74.8168
-75.9654
-76.722
-77.1126
-77.1108
-76.6483
-75.6457
-74.024
-71.7131
-68.6631
-64.8526
-60.2848
-54.9663
-48.9118
-42.1431
-34.7002
-26.9945
10.7569
14.3063
18.1815
22.2033
25.9607
29.5278
32.7627
35.4311
37.4992
39.0635
40.1874
40.9501
41.4505
41.7588
41.9262
41.9901
41.9733
41.8879
41.7371
41.5162
41.2142
40.8132
40.2863
39.607
38.7754
37.8151
36.7423
35.566
34.2998
32.9644
31.5892
30.2128
28.881
27.6406
26.5296
25.5715
24.7757
24.106
23.4923
6.34333
2.5475
-1.7974
-6.39969
-10.8716
-15.5367
-20.1771
-24.6479
-29.0094
-33.1849
-37.1605
-40.9685
-44.5966
-48.0592
-51.366
-54.5122
-57.4905
-60.2862
-62.8758
-65.2304
-67.3133
-69.0823
-70.505
-71.5564
-72.2471
-72.6043
-72.6078
-72.1988
-71.3078
-69.8633
-67.7988
-65.0629
-61.6291
-57.4929
-52.6558
-47.1269
-40.9193
-34.0638
-26.941
9.90857
13.2947
16.9959
20.8421
24.4397
27.8608
30.9699
33.5411
35.5407
37.0607
38.1613
38.9167
39.422
39.7441
39.9321
40.0225
40.0376
39.9895
39.8824
39.7127
39.4715
39.1429
38.703
38.1274
37.4148
36.5854
35.6529
34.6245
33.511
32.3288
31.1019
29.8612
28.6441
27.4892
26.4285
25.4818
24.6569
23.9223
23.2264
5.7288
2.11481
-2.01853
-6.39097
-10.6332
-15.0534
-19.4436
-23.6662
-27.779
-31.7093
-35.4444
-39.0154
-42.4107
-45.6447
-48.7268
-51.6533
-54.4185
-57.0091
-59.4041
-61.5777
-63.4961
-65.1218
-66.4253
-67.3859
-68.0146
-68.3389
-68.3439
-67.9789
-67.1835
-65.8942
-64.0494
-61.5981
-58.5095
-54.7731
-50.3856
-45.3506
-39.6751
-33.3816
-26.8203
9.12675
12.3566
15.891
19.5687
23.0127
26.2932
29.2809
31.7579
33.691
35.1677
36.2446
36.9918
37.5002
37.8339
38.0398
38.1531
38.196
38.1805
38.1115
37.9867
37.7986
37.5333
37.1699
36.6858
36.0789
35.3661
34.5589
33.6631
32.687
31.6439
30.5526
29.4378
28.3294
27.2587
26.2521
25.3255
24.4852
23.7038
22.946
5.16917
1.72907
-2.20221
-6.35524
-10.3788
-14.566
-18.7182
-22.7056
-26.5831
-30.2821
-33.7907
-37.1388
-40.316
-43.3358
-46.2081
-48.9297
-51.4961
-53.8957
-56.1097
-58.1146
-59.8802
-61.3725
-62.5653
-63.4415
-64.0123
-64.3052
-64.3089
-63.9805
-63.2674
-62.1141
-60.4645
-58.2698
-55.4967
-52.1297
-48.1607
-43.5887
-38.4154
-32.656
-26.6318
8.40705
11.4871
14.8617
18.3774
21.6738
24.819
27.6894
30.0755
31.9438
33.3778
34.4309
35.169
35.6789
36.022
36.243
36.3763
36.4433
36.4562
36.4202
36.3344
36.1924
35.9826
35.6862
35.2828
34.7692
34.1598
33.4641
32.6868
31.8342
30.9164
29.9485
28.9498
27.9437
26.955
26.005
25.1059
24.2624
23.4504
22.6489
4.66058
1.38675
-2.35149
-6.29512
-10.1104
-14.0757
-18.002
-21.7664
-25.4212
-28.9015
-32.1968
-35.3353
-38.3078
-41.1274
-43.8037
-46.3342
-48.7156
-50.9374
-52.9829
-54.831
-56.4546
-57.8231
-58.9132
-59.7111
-60.2282
-60.4917
-60.4931
-60.1953
-59.5533
-58.5188
-57.0426
-55.0785
-52.5927
-49.5655
-45.9848
-41.8453
-37.1442
-31.8898
-26.376