/*--------------------------------*- C++ -*----------------------------------*\
| =========                 |                                                 |
| \\      /  F ield         | OpenFOAM: The Open Source CFD Toolbox           |
|  \\    /   O peration     | Version:  2312                                  |
|   \\  /    A nd           | Website:  www.openfoam.com                      |
|    \\/     M anipulation  |                                                 |
\*---------------------------------------------------------------------------*/
FoamFile
{
    version     2.0;
    format      ascii;
    arch        "LSB;label=32;scalar=64";
    class       surfaceScalarField;
    location    "450";
    object      phi;
}
// * * * * * * * * * * * * * * * * * * * * * * * * * * * * * * * * * * * * * //

dimensions      [0 3 -1 0 0 0 0];

oriented        oriented;

internalField   nonuniform List<scalar> 
21254
(
-0.221628
0.241416
-0.0197881
0.263571
-0.0221538
0.282887
-0.0193141
0.300274
-0.0173872
0.31678
-0.0165068
0.330156
-0.0133769
0.340855
-0.0106999
0.349597
-0.00874304
0.355443
-0.00584666
0.359355
-0.00391198
0.361517
-0.00216199
0.361567
-4.93337e-05
0.359522
0.00204578
0.355136
0.00438658
0.348167
0.00697032
0.338679
0.00949
0.326317
0.0123628
0.311138
0.0151795
0.293299
0.0178394
0.274025
0.0192738
0.255109
0.018917
0.24131
0.0138025
0.237783
0.00353371
0.248611
-0.0108145
0.267475
-0.0188416
0.283107
-0.0156107
0.288715
-0.00561116
0.285545
0.00311605
0.2794
0.00603251
0.270454
0.00893682
0.256153
0.014583
0.232323
0.0237618
0.188218
0.0433383
0.115436
0.0730823
0.0360649
0.080912
-0.0125414
0.048624
0.0640656
-0.0796001
0.0373868
0.0270166
0.0221002
0.0161249
-0.198537
-0.0230895
-0.174529
-0.0240048
-0.145236
-0.0292919
-0.113258
-0.0319778
-0.0796873
-0.0335693
-0.0452217
-0.0344619
-0.0115603
-0.0336553
0.019598
-0.0311439
0.0481167
-0.0285025
0.073134
-0.0250086
0.0945154
-0.0213748
0.112587
-0.0180659
0.127698
-0.0151044
0.140241
-0.0125357
0.150948
-0.0107006
0.16013
-0.0091763
0.168254
-0.00811669
0.175543
-0.00728151
0.182305
-0.00675395
0.188659
-0.00634513
0.194783
-0.00611607
0.200629
-0.0058391
0.206135
-0.00550097
0.210614
-0.00447561
0.213842
-0.00322418
0.216104
-0.00225823
0.217409
-0.00129957
0.217647
-0.000226097
0.216405
0.001265
0.213526
0.00291324
0.208917
0.00464368
0.202576
0.0063475
0.194397
0.00814106
0.184087
0.0102957
0.171263
0.0128851
0.155434
0.0157986
0.138069
0.0172992
0.146586
-0.00852032
0.168786
-0.0221194
-0.202096
0.223545
-0.0412398
0.245547
-0.044151
0.268597
-0.0423651
0.290184
-0.0389722
0.311334
-0.0376548
0.331079
-0.0331216
0.349003
-0.0286249
0.365382
-0.0251247
0.379843
-0.0203112
0.392471
-0.0165434
0.403316
-0.0130096
0.412725
-0.00946099
0.421247
-0.00647882
0.429113
-0.00348155
0.436171
-9.05458e-05
0.442024
0.00363475
0.446398
0.00798752
0.449064
0.0125121
0.449004
0.0179011
0.445779
0.0225041
0.438226
0.0264822
0.42547
0.026581
0.406082
0.0229535
0.37895
0.0163505
0.350693
0.0094199
0.330407
0.00460814
0.318015
0.00665782
0.309004
0.0120788
0.300251
0.0149094
0.291308
0.0178247
0.28279
0.0227741
0.276071
0.0306157
0.26906
0.0507152
0.233868
0.108512
0.154581
0.157914
0.0958101
0.107812
0.0853635
-0.0685354
0.013178
0.100305
0.00260556
0.0271321
-0.180219
-0.0449635
-0.156805
-0.047418
-0.129406
-0.0566863
-0.100462
-0.0609171
-0.0697464
-0.0642786
-0.037641
-0.0665558
-0.00555673
-0.065723
0.0249004
-0.0615828
0.0523945
-0.0559799
0.0768722
-0.0494718
0.0981374
-0.0426261
0.11657
-0.0364843
0.132586
-0.031106
0.146403
-0.0263386
0.158489
-0.0227714
0.169143
-0.0198137
0.178661
-0.0176173
0.187348
-0.0159506
0.19545
-0.0148383
0.203085
-0.0139627
0.210397
-0.013413
0.21745
-0.0128776
0.224173
-0.0122093
0.23012
-0.0104091
0.235039
-0.00812922
0.23916
-0.00635768
0.24246
-0.00456695
0.2452
-0.00291653
0.247765
-0.0012416
0.250249
0.000471006
0.252569
0.00232339
0.254646
0.00426621
0.256309
0.00650398
0.257277
0.00929145
0.25728
0.0128744
0.255101
0.01797
0.252546
0.0198389
0.235235
0.00877227
0.211753
0.00139137
-0.196284
0.218026
-0.0629786
0.239966
-0.0660903
0.263681
-0.0660828
0.285409
-0.0607009
0.306126
-0.0583726
0.325986
-0.0529828
0.343696
-0.0463364
0.359643
-0.0410727
0.373383
-0.0340523
0.385162
-0.0283226
0.394998
-0.022845
0.402982
-0.0174445
0.408936
-0.0124314
0.413325
-0.00786821
0.415941
-0.0027054
0.417764
0.00181337
0.418802
0.00695048
0.419767
0.0115487
0.420656
0.0170137
0.421507
0.0216555
0.421821
0.0261739
0.420275
0.0281377
0.415548
0.0276994
0.40631
0.0256146
0.392128
0.0236125
0.372606
0.024089
0.35258
0.0265925
0.336594
0.0279983
0.322981
0.0285382
0.31058
0.0301855
0.299367
0.0338917
0.288267
0.0418025
0.281737
0.0573134
0.274331
0.116111
0.243839
0.18809
0.195766
0.156382
0.114654
0.0126594
-0.00248496
0.217669
-0.0149336
0.0401889
-0.17443
-0.0668162
-0.150554
-0.0712946
-0.122035
-0.0852036
-0.09242
-0.0905275
-0.061515
-0.095177
-0.0294861
-0.0985756
0.00215476
-0.097352
0.0316264
-0.0910425
0.0584985
-0.0828424
0.0827851
-0.0737496
0.104148
-0.0639795
0.122793
-0.0551201
0.139101
-0.0474037
0.153343
-0.0405705
0.165834
-0.0352516
0.176921
-0.0308903
0.186875
-0.0275589
0.195964
-0.0250269
0.204396
-0.0232571
0.212325
-0.0218793
0.219945
-0.0210208
0.227276
-0.0202002
0.2342
-0.0191245
0.240407
-0.0166087
0.245613
-0.0133256
0.249933
-0.0106625
0.253437
-0.00804292
0.256168
-0.0056028
0.258202
-0.00322047
0.259554
-0.000840087
0.260351
0.00152873
0.26071
0.0039026
0.260834
0.00639409
0.260792
0.00930021
0.260961
0.0127145
0.261109
0.0178068
0.261222
0.019691
0.250137
0.0198363
0.231571
0.0199714
-0.189235
0.211912
-0.0856541
0.234708
-0.0888848
0.259805
-0.0911765
0.282741
-0.0836361
0.305023
-0.0806534
0.326433
-0.074394
0.346134
-0.0660393
0.363969
-0.0589105
0.38014
-0.050226
0.394427
-0.0426117
0.40695
-0.0353709
0.417705
-0.0282007
0.426748
-0.0214762
0.434144
-0.015266
0.440256
-0.00881849
0.444667
-0.00259917
0.447431
0.0041845
0.448262
0.0107164
0.447467
0.0178085
0.444982
0.0241441
0.440978
0.030184
0.435517
0.0336124
0.428511
0.0347281
0.420634
0.0335211
0.412453
0.0318051
0.402448
0.0340429
0.388897
0.040005
0.373374
0.0434064
0.357616
0.0443053
0.341336
0.0464042
0.325083
0.0502325
0.308922
0.0580461
0.293704
0.0724719
0.286607
0.123396
0.28092
0.193667
0.248096
0.189582
0.131836
0.129024
-0.00933761
0.358888
-0.0300755
0.0613679
-0.166843
-0.089207
-0.142872
-0.0952629
-0.113812
-0.114261
-0.0840123
-0.120324
-0.0529751
-0.12621
-0.0207444
-0.130801
0.0107976
-0.128887
0.0399109
-0.120148
0.066443
-0.109367
0.0904315
-0.0977298
0.111553
-0.0850918
0.130088
-0.0736452
0.14647
-0.0637755
0.160947
-0.0550364
0.173842
-0.0481356
0.185381
-0.0424178
0.195869
-0.0380348
0.205484
-0.034628
0.21446
-0.0322186
0.222929
-0.030334
0.230998
-0.0290764
0.23874
-0.02793
0.246087
-0.0264612
0.252709
-0.0232208
0.258362
-0.0189663
0.263113
-0.0153964
0.267016
-0.0119157
0.270124
-0.00866464
0.272478
-0.00551685
0.274124
-0.0024439
0.275065
0.000589191
0.27536
0.00360347
0.275058
0.006715
0.274149
0.0101757
0.272754
0.0141191
0.27083
0.019718
0.268144
0.0223461
0.259176
0.0288012
0.245202
0.0339558
-0.185676
0.209192
-0.10917
0.232875
-0.112567
0.259368
-0.117668
0.283054
-0.107322
0.306308
-0.103909
0.32875
-0.0968377
0.34926
-0.0865507
0.367957
-0.0776098
0.38512
-0.0673909
0.400106
-0.0575993
0.413295
-0.0485605
0.424617
-0.0395232
0.434339
-0.0311976
0.442144
-0.0230707
0.44822
-0.0148933
0.452551
-0.00693024
0.455366
0.00136977
0.45677
0.00931313
0.456558
0.0180215
0.454951
0.0257552
0.451653
0.0334886
0.446492
0.0387872
0.439325
0.0419203
0.430802
0.0420773
0.422077
0.0405418
0.413738
0.0422977
0.405525
0.0479808
0.396527
0.0522461
0.386381
0.0546135
0.374414
0.0582715
0.360544
0.0640708
0.344593
0.0741104
0.324593
0.0924017
0.307125
0.141041
0.300599
0.200092
0.272394
0.218106
0.142049
0.259553
-0.00330009
0.504133
-0.0349924
0.0932055
-0.162235
-0.112646
-0.137536
-0.119959
-0.107216
-0.144577
-0.0765557
-0.15098
-0.0447788
-0.157982
-0.011898
-0.163676
0.0200891
-0.160867
0.049301
-0.149351
0.075735
-0.135792
0.0995737
-0.12156
0.120517
-0.106026
0.138939
-0.0920578
0.15534
-0.0801678
0.169937
-0.0696237
0.18305
-0.0612385
0.194945
-0.0543027
0.205805
-0.0488826
0.215816
-0.0446265
0.225178
-0.0415673
0.234026
-0.0391704
0.242452
-0.0374905
0.250498
-0.0359661
0.258125
-0.0340789
0.265051
-0.030138
0.271015
-0.0249199
0.276058
-0.0204225
0.280219
-0.016048
0.283555
-0.0119541
0.286095
-0.0079993
0.287853
-0.00416126
0.288858
-0.000416497
0.289218
0.00323571
0.288979
0.00697082
0.288086
0.0110308
0.28663
0.01558
0.284482
0.0218512
0.280874
0.0259203
0.271931
0.0377411
0.258705
0.0472136
-0.182781
0.207309
-0.133698
0.232293
-0.137547
0.26015
-0.145524
0.285017
-0.132189
0.309271
-0.128165
0.333045
-0.120613
0.354498
-0.108005
0.374439
-0.0975528
0.392569
-0.085523
0.408768
-0.0737993
0.423268
-0.063062
0.43589
-0.0521451
0.446851
-0.0421594
0.456148
-0.0323675
0.463663
-0.0224089
0.469728
-0.0129948
0.473988
-0.0028913
0.476516
0.00678535
0.47739
0.0171477
0.476382
0.0267668
0.473417
0.0364612
0.468469
0.0437496
0.461375
0.0490395
0.452615
0.0508722
0.443143
0.0500292
0.433664
0.0516691
0.424342
0.0569891
0.415029
0.0613923
0.405516
0.0643913
0.395038
0.0686421
0.383546
0.0754408
0.370778
0.0870125
0.354658
0.108452
0.33572
0.160142
0.32341
0.21228
0.293702
0.248087
0.158658
0.394719
0.0360571
0.626613
-0.0141074
0.142208
-0.158373
-0.137051
-0.132853
-0.145477
-0.101215
-0.176212
-0.0694038
-0.182788
-0.0366151
-0.190766
-0.00278712
-0.197498
0.029961
-0.193607
0.0595709
-0.178953
0.0861484
-0.162362
0.109981
-0.145384
0.130828
-0.126866
0.149109
-0.110331
0.165425
-0.0964763
0.180042
-0.0842324
0.193266
-0.0744529
0.205358
-0.0663839
0.216485
-0.0599972
0.226849
-0.0549767
0.236576
-0.0512818
0.245799
-0.0483805
0.254608
-0.0462877
0.263026
-0.0443729
0.270996
-0.0420395
0.278331
-0.0374643
0.2847
-0.0312775
0.290098
-0.0258034
0.294621
-0.0205414
0.298269
-0.0155545
0.30109
-0.010762
0.303099
-0.00612775
0.304316
-0.00163486
0.304816
0.00272801
0.304654
0.00715136
0.303826
0.0118211
0.302333
0.0170794
0.300111
0.0240598
0.296339
0.029665
0.287353
0.0467049
0.27311
0.0615012
-0.181118
0.206969
-0.159548
0.232997
-0.163573
0.262413
-0.174939
0.288537
-0.158314
0.314025
-0.153655
0.338858
-0.145448
0.361445
-0.130595
0.382207
-0.118316
0.401339
-0.104657
0.418425
-0.0908863
0.4337
-0.0783378
0.447298
-0.0657435
0.459092
-0.053954
0.469155
-0.0424299
0.477555
-0.0308086
0.484131
-0.0195703
0.489027
-0.0077871
0.492171
0.00364215
0.493605
0.0157148
0.493246
0.0271307
0.491037
0.0386779
0.486836
0.0479645
0.480702
0.0551995
0.472808
0.0588012
0.463968
0.058883
0.454744
0.0607846
0.445234
0.0661785
0.435398
0.0710563
0.425233
0.0748319
0.414104
0.0796682
0.40232
0.0871219
0.389988
0.0994878
0.376695
0.121638
0.361685
0.175308
0.347907
0.225927
0.32044
0.275837
0.198624
0.516574
0.103023
0.722555
0.0650424
0.178068
-0.155501
-0.162665
-0.128871
-0.172105
-0.0957683
-0.209313
-0.0626321
-0.215921
-0.0286156
-0.224778
0.00645475
-0.232562
0.0401953
-0.227341
0.0705103
-0.209261
0.0974764
-0.189321
0.121508
-0.169408
0.14235
-0.147701
0.160549
-0.128522
0.176784
-0.112704
0.191358
-0.0987973
0.204606
-0.0876909
0.216812
-0.0785784
0.228155
-0.0713277
0.238778
-0.0655869
0.248819
-0.0613098
0.258372
-0.0579208
0.26751
-0.0554133
0.276246
-0.0530983
0.284557
-0.050341
0.292195
-0.0450934
0.298935
-0.0380061
0.304701
-0.0315517
0.309524
-0.0253342
0.313462
-0.0194438
0.316516
-0.0137553
0.31873
-0.00829854
0.320085
-0.00299195
0.320695
0.00210932
0.320626
0.00724125
0.319798
0.0126094
0.318329
0.0185534
0.316018
0.0263589
0.312166
0.033495
0.303851
0.0549811
0.289139
0.0762277
-0.180107
0.207291
-0.18673
0.234741
-0.191021
0.265829
-0.206026
0.293149
-0.185634
0.319912
-0.18042
0.345978
-0.171516
0.369566
-0.154185
0.391507
-0.14026
0.411435
-0.124586
0.429426
-0.108879
0.445717
-0.0946301
0.460154
-0.0801804
0.472812
-0.0666124
0.483817
-0.0534346
0.493113
-0.0401052
0.500669
-0.0271264
0.506524
-0.0136414
0.510608
-0.000442051
0.512833
0.0134913
0.513155
0.0268137
0.511558
0.0402829
0.507881
0.0516571
0.502161
0.0609457
0.494741
0.0662566
0.486213
0.067426
0.477123
0.0697634
0.467596
0.0753777
0.457603
0.08087
0.447086
0.0856311
0.435388
0.0912659
0.422826
0.0995866
0.409579
0.112889
0.395907
0.13517
0.383252
0.18811
0.370107
0.238946
0.34836
0.297903
0.261171
0.603772
0.189711
0.794437
0.155313
0.211823
-0.153257
-0.189513
-0.125463
-0.199898
-0.0906465
-0.244127
-0.0559869
-0.250578
-0.0205299
-0.260231
0.0159244
-0.269011
0.050907
-0.262317
0.0821234
-0.240471
0.109665
-0.216856
0.134036
-0.193772
0.155005
-0.168663
0.173181
-0.146691
0.189346
-0.128861
0.203849
-0.113291
0.217063
-0.100895
0.229339
-0.0908432
0.240792
-0.0827685
0.251609
-0.0763906
0.261889
-0.0715766
0.271728
-0.0677474
0.281158
-0.0648313
0.290225
-0.0621548
0.298864
-0.0589708
0.306872
-0.0530913
0.313982
-0.0451047
0.320116
-0.0376674
0.325295
-0.0304823
0.329558
-0.0236564
0.332896
-0.0170312
0.335333
-0.0106919
0.336898
-0.00456017
0.337648
0.00134894
0.337677
0.00723449
0.336903
0.0133419
0.33539
0.0200679
0.332968
0.0287687
0.328893
0.0375535
0.321384
0.0624442
0.306784
0.0907583
-0.17988
0.208434
-0.215282
0.237327
-0.219913
0.27011
-0.238809
0.298811
-0.214336
0.327027
-0.208638
0.354436
-0.198927
0.379225
-0.178977
0.402039
-0.163076
0.423052
-0.1456
0.441854
-0.127682
0.458829
-0.111607
0.474052
-0.095403
0.487537
-0.0800977
0.499305
-0.0652028
0.509364
-0.050165
0.517746
-0.035508
0.524326
-0.0202214
0.529055
-0.00517084
0.53192
0.0106278
0.532847
0.0258912
0.531837
0.041302
0.52879
0.0547195
0.523707
0.066056
0.51687
0.0731313
0.508807
0.0755028
0.49996
0.0784957
0.490455
0.0845469
0.480422
0.0907135
0.469857
0.09648
0.457936
0.103087
0.445023
0.112407
0.431216
0.126862
0.416442
0.149775
0.403654
0.201037
0.390381
0.252094
0.373175
0.315451
0.325533
0.651419
0.286794
0.833445
0.242015
0.256609
-0.151549
-0.217842
-0.122404
-0.229041
-0.0858088
-0.28072
-0.0495744
-0.28681
-0.012462
-0.29734
0.0255921
-0.30706
0.0620622
-0.298782
0.0943516
-0.272755
0.122643
-0.245142
0.147515
-0.218638
0.168726
-0.189867
0.186974
-0.164932
0.203113
-0.144993
0.21755
-0.12772
0.230716
-0.11405
0.242966
-0.103083
0.254496
-0.0942865
0.265435
-0.0873165
0.275895
-0.0820246
0.285971
-0.0778106
0.295698
-0.0745466
0.30504
-0.0714868
0.313988
-0.0679082
0.322345
-0.0614382
0.329841
-0.0525888
0.336323
-0.0441303
0.341853
-0.0359801
0.346412
-0.0281631
0.350045
-0.0206004
0.352729
-0.0133304
0.354474
-0.00630906
0.355375
0.000437745
0.355488
0.00714476
0.35476
0.0140285
0.353255
0.0215739
0.350759
0.0312527
0.346458
0.0418465
0.339296
0.0695559
0.324854
0.105058
-0.180065
0.210224
-0.24544
0.240661
-0.250349
0.275328
-0.273477
0.305482
-0.244491
0.334985
-0.238142
0.363853
-0.227798
0.389802
-0.204927
0.413739
-0.187015
0.435719
-0.167582
0.455379
-0.147343
0.473187
-0.129415
0.489256
-0.111473
0.503423
-0.0942648
0.515883
-0.0776623
0.526771
-0.0610534
0.535826
-0.0445622
0.543141
-0.0275372
0.548586
-0.010615
0.552198
0.00701722
0.553854
0.0242407
0.553396
0.0417691
0.550951
0.0571822
0.546444
0.0705904
0.540153
0.0794606
0.53248
0.0831889
0.523782
0.0870747
0.514294
0.0936888
0.5042
0.100608
0.493485
0.107477
0.481399
0.115074
0.468262
0.125457
0.454215
0.141087
0.438798
0.164995
0.425179
0.214786
0.410822
0.266314
0.395164
0.33144
0.376995
0.669583
0.363314
0.847203
0.311538
0.308351
-0.150358
-0.247548
-0.119748
-0.25965
-0.0811888
-0.319277
-0.0430926
-0.324903
-0.00428156
-0.336147
0.0356209
-0.346958
0.0736463
-0.336802
0.107192
-0.306295
0.136402
-0.274346
0.161938
-0.244168
0.183506
-0.211428
0.201894
-0.183313
0.218069
-0.16116
0.232458
-0.1421
0.245559
-0.12714
0.257778
-0.115291
0.269308
-0.105805
0.28031
-0.0983062
0.290923
-0.092626
0.301185
-0.0880606
0.311109
-0.0844586
0.320739
-0.0811065
0.329997
-0.0771557
0.338686
-0.0701172
0.346532
-0.0604223
0.353399
-0.0509781
0.359262
-0.0418097
0.364167
-0.033014
0.368086
-0.0244537
0.371025
-0.0162222
0.372998
-0.00828695
0.374045
-0.000619329
0.374287
0.00692868
0.373622
0.0146516
0.372103
0.0230924
0.36951
0.0338344
0.365058
0.0463003
0.357851
0.0767152
0.343407
0.119371
-0.18083
0.212561
-0.27717
0.244576
-0.282364
0.281169
-0.31007
0.312992
-0.276316
0.344102
-0.269253
0.374435
-0.258133
0.401525
-0.232019
0.426675
-0.212166
0.449677
-0.190585
0.47026
-0.167928
0.488841
-0.147997
0.505528
-0.128161
0.520467
-0.109203
0.533737
-0.0909321
0.545184
-0.0725005
0.55497
-0.0543487
0.562958
-0.035524
0.569129
-0.0167852
0.573328
0.00282069
0.575572
0.0220028
0.575755
0.0415968
0.57384
0.0591155
0.569919
0.074542
0.564192
0.0852266
0.556976
0.0904178
0.54859
0.0953384
0.539165
0.102759
0.528978
0.110585
0.518188
0.118544
0.505873
0.127292
0.492481
0.13877
0.478238
0.15552
0.462537
0.180473
0.448274
0.229168
0.432702
0.281727
0.416509
0.347923
0.414717
0.671355
0.41656
0.845307
0.362639
0.362121
-0.149453
-0.278925
-0.117328
-0.291773
-0.0766895
-0.359912
-0.0366531
-0.364936
0.0041233
-0.376919
0.0459073
-0.388737
0.0857141
-0.376604
0.120668
-0.341244
0.150961
-0.304633
0.177242
-0.270442
0.199302
-0.233481
0.217932
-0.201936
0.23421
-0.17743
0.248585
-0.156465
0.261629
-0.140175
0.273786
-0.127437
0.285291
-0.117298
0.296329
-0.109333
0.307001
-0.103285
0.317399
-0.0984467
0.327546
-0.0945945
0.337412
-0.0909617
0.346932
-0.0866659
0.355955
-0.0791299
0.364154
-0.0686085
0.371375
-0.0581791
0.377607
-0.0480071
0.382835
-0.0381866
0.387072
-0.0286223
0.390273
-0.019375
0.392445
-0.0104642
0.393687
-0.00187198
0.394041
0.00660195
0.393447
0.0152041
0.391923
0.024613
0.38927
0.0364757
0.384662
0.0509183
0.377307
0.0840289
0.363022
0.133579
-0.181889
0.215415
-0.310696
0.249186
-0.316135
0.287814
-0.348698
0.321239
-0.309742
0.353955
-0.30197
0.385865
-0.290044
0.414447
-0.260603
0.440725
-0.238445
0.464788
-0.214649
0.486261
-0.189402
0.50572
-0.167457
0.523249
-0.145689
0.538784
-0.124738
0.552651
-0.104799
0.564836
-0.0846856
0.575272
-0.0647841
0.583875
-0.0441263
0.590629
-0.0235374
0.595452
-0.00199955
0.598321
0.0191403
0.599117
0.0408123
0.59782
0.0604328
0.594475
0.077919
0.58928
0.0904615
0.582495
0.0972166
0.574386
0.103321
0.565064
0.11172
0.55489
0.120539
0.543984
0.129722
0.531512
0.139668
0.51787
0.15234
0.503351
0.17024
0.487416
0.19616
0.472718
0.243976
0.456339
0.297921
0.438879
0.365617
0.443964
0.666237
0.453622
0.835545
0.400428
0.415154
-0.148869
-0.311943
-0.115017
-0.325622
-0.0722388
-0.402688
-0.0301058
-0.407065
0.012719
-0.419739
0.0565614
-0.432575
0.0983261
-0.418364
0.134796
-0.377709
0.166282
-0.336113
0.193483
-0.297637
0.216139
-0.256131
0.235109
-0.220899
0.251524
-0.193837
0.265937
-0.170869
0.278943
-0.153171
0.291045
-0.139529
0.30249
-0.128732
0.313512
-0.120343
0.32424
-0.114002
0.334726
-0.108921
0.345014
-0.104871
0.355076
-0.101013
0.364882
-0.096462
0.374211
-0.088449
0.382754
-0.0771381
0.390332
-0.0657363
0.396907
-0.0545455
0.402486
-0.0437086
0.407009
-0.0330759
0.410497
-0.0228131
0.412907
-0.0128797
0.41432
-0.00329677
0.414827
0.00612481
0.414291
0.0156987
0.412787
0.026111
0.410057
0.0391937
0.405313
0.0556775
0.39787
0.091441
0.383788
0.147634
-0.183414
0.218656
-0.345937
0.254286
-0.351763
0.295068
-0.389481
0.33034
-0.345015
0.364802
-0.336433
0.398347
-0.32359
0.428342
-0.290598
0.455943
-0.266048
0.48106
-0.239767
0.503507
-0.211849
0.523788
-0.187738
0.542037
-0.163938
0.558366
-0.141067
0.572912
-0.119345
0.585684
-0.0974572
0.596679
-0.0757792
0.605909
-0.0533546
0.613297
-0.0309243
0.618724
-0.00742284
0.622099
0.0157723
0.623463
0.0394617
0.622706
0.061212
0.619917
0.0807409
0.615299
0.0951215
0.609043
0.103486
0.601239
0.110995
0.592083
0.120509
0.581914
0.13048
0.570945
0.140954
0.558339
0.15218
0.544498
0.166118
0.529727
0.185225
0.513479
0.212141
0.498366
0.259192
0.481548
0.31453
0.462975
0.384363
0.469582
0.659587
0.481732
0.823272
0.430966
0.465837
-0.148483
-0.346872
-0.112963
-0.36114
-0.0678194
-0.447828
-0.0234909
-0.451389
0.0215831
-0.464809
0.0676996
-0.478687
0.111446
-0.462105
0.149631
-0.415889
0.182431
-0.368908
0.210656
-0.325855
0.234005
-0.279474
0.253398
-0.240285
0.270062
-0.210492
0.284564
-0.185363
0.297556
-0.166153
0.309604
-0.151566
0.320989
-0.140106
0.331969
-0.131311
0.342687
-0.124709
0.353237
-0.119459
0.363631
-0.115254
0.373878
-0.111249
0.383906
-0.10648
0.393538
-0.0980704
0.402403
-0.0859896
0.410326
-0.0736378
0.41725
-0.0614315
0.423142
-0.0495423
0.427995
-0.0378572
0.431765
-0.0265318
0.434423
-0.0155438
0.436045
-0.00493164
0.436689
0.00551247
0.43625
0.0160974
0.434751
0.0276004
0.431982
0.0419502
0.427123
0.060554
0.419551
0.0989931
0.405758
0.161438
-0.185169
0.222355
-0.383122
0.259946
-0.389353
0.303024
-0.432558
0.340182
-0.382174
0.376424
-0.372675
0.411722
-0.35889
0.443256
-0.322133
0.472165
-0.294958
0.498504
-0.266106
0.521937
-0.235282
0.543168
-0.208969
0.562187
-0.182957
0.579208
-0.158087
0.594404
-0.134541
0.607693
-0.110746
0.619333
-0.087419
0.629142
-0.0631622
0.637075
-0.0388548
0.643097
-0.0134415
0.647077
0.0118003
0.648966
0.0375861
0.648779
0.0614222
0.646554
0.0830007
0.642462
0.0992564
0.636656
0.109305
0.629188
0.118333
0.620234
0.129092
0.610143
0.140335
0.599145
0.152205
0.586427
0.164807
0.572393
0.180099
0.557405
0.20044
0.54085
0.228416
0.525306
0.274836
0.508217
0.33139
0.489006
0.403694
0.494503
0.654049
0.5061
0.81154
0.458278
0.513683
-0.148452
-0.383587
-0.110897
-0.398692
-0.0633676
-0.495354
-0.0166624
-0.49809
0.0307367
-0.512204
0.0791972
-0.527143
0.125213
-0.508117
0.165199
-0.45587
0.199482
-0.403185
0.22883
-0.355198
0.252979
-0.303617
0.272866
-0.260165
0.289832
-0.22745
0.304464
-0.199986
0.317473
-0.179152
0.329493
-0.163577
0.340824
-0.151425
0.351727
-0.142203
0.36242
-0.13539
0.372996
-0.130024
0.38347
-0.125717
0.393848
-0.121617
0.404095
-0.116718
0.413992
-0.107956
0.423162
-0.0951464
0.431414
-0.0818676
0.438677
-0.068656
0.444918
-0.0557225
0.45009
-0.0429555
0.454148
-0.0305384
0.457053
-0.0184549
0.45887
-0.00676303
0.45968
0.00473677
0.459337
0.0164005
0.457868
0.0290569
0.455049
0.0447547
0.450096
0.0655231
0.442489
0.106593
0.428995
0.174969
-0.187224
0.226512
-0.422408
0.266126
-0.428965
0.311611
-0.478043
0.350724
-0.421286
0.388894
-0.410845
0.426137
-0.396134
0.459195
-0.355192
0.489541
-0.325305
0.517226
-0.293792
0.54175
-0.259806
0.563859
-0.231078
0.583712
-0.202809
0.60135
-0.175725
0.617201
-0.150391
0.631213
-0.124757
0.643389
-0.099594
0.65376
-0.0735324
0.662218
-0.0473107
0.66868
-0.0198993
0.673174
0.00731396
0.675623
0.0351516
0.675919
0.0611499
0.674235
0.0847211
0.67068
0.102855
0.665367
0.11463
0.658309
0.125257
0.649543
0.137486
0.63955
0.150085
0.628591
0.163403
0.615799
0.177511
0.601627
0.194229
0.586425
0.215881
0.569647
0.24491
0.553631
0.290952
0.536279
0.348499
0.516861
0.423189
0.520323
0.65056
0.529731
0.801989
0.4848
0.558748
-0.148504
-0.422305
-0.109062
-0.438131
-0.0588726
-0.545541
-0.00967743
-0.547281
0.0402185
-0.562095
0.0912539
-0.578174
0.139574
-0.556433
0.181549
-0.49784
0.217372
-0.439003
0.247997
-0.385816
0.27302
-0.328634
0.293526
-0.280663
0.310864
-0.244781
0.325692
-0.214806
0.338773
-0.192223
0.350765
-0.175559
0.362028
-0.162678
0.372883
-0.153047
0.383523
-0.146019
0.394079
-0.140568
0.404598
-0.136225
0.4151
-0.132109
0.425528
-0.127135
0.435663
-0.118081
0.44514
-0.104608
0.453703
-0.0904079
0.461293
-0.0762069
0.467851
-0.0622181
0.473342
-0.048371
0.477681
-0.0348252
0.480852
-0.0216332
0.482902
-0.00882862
0.483863
0.0038121
0.483644
0.0165817
0.48222
0.0304647
0.479366
0.0475921
0.474338
0.0705624
0.466665
0.114268
0.453555
0.188134
-0.189628
0.231074
-0.463852
0.272817
-0.470706
0.320815
-0.52604
0.361992
-0.462463
0.402273
-0.451126
0.441467
-0.435328
0.476224
-0.389949
0.508121
-0.357202
0.537094
-0.322765
0.562708
-0.285419
0.5858
-0.25417
0.606516
-0.223524
0.625006
-0.194214
0.641469
-0.166854
0.656044
-0.139332
0.668772
-0.112322
0.679658
-0.0844166
0.688631
-0.0562808
0.69569
-0.0269545
0.700654
0.00235901
0.70355
0.0322699
0.704392
0.0603319
0.703189
0.0859611
0.700137
0.105951
0.69528
0.119499
0.6886
0.131802
0.680121
0.145594
0.670264
0.159693
0.659327
0.174565
0.646499
0.190253
0.632228
0.20847
0.616875
0.231485
0.599852
0.261654
0.583397
0.307513
0.565801
0.365848
0.546452
0.442582
0.547659
0.649353
0.554265
0.795238
0.511909
0.601341
-0.148745
-0.463185
-0.107157
-0.479716
-0.0542591
-0.598435
-0.00243034
-0.599106
0.050118
-0.614639
0.103849
-0.631901
0.154678
-0.607257
0.198738
-0.541896
0.236273
-0.476532
0.268234
-0.417772
0.294265
-0.354658
0.315431
-0.301822
0.333204
-0.262547
0.348286
-0.229879
0.361471
-0.205399
0.373481
-0.187558
0.384695
-0.17388
0.395476
-0.163817
0.406055
-0.156587
0.416585
-0.151086
0.427114
-0.146743
0.437685
-0.142669
0.448271
-0.137711
0.458654
-0.128453
0.468387
-0.114327
0.47724
-0.0992372
0.485143
-0.0840689
0.492021
-0.0690326
0.497827
-0.0541002
0.502474
-0.039419
0.505907
-0.0250749
0.508161
-0.0110989
0.509324
0.0026869
0.509216
0.0166538
0.507851
0.0318108
0.504983
0.0504415
0.499886
0.0756616
0.492217
0.121951
0.47955
0.200862
-0.192235
0.235903
-0.507518
0.279973
-0.514773
0.330647
-0.576714
0.374056
-0.505871
0.416493
-0.493563
0.457718
-0.476554
0.494324
-0.426556
0.527824
-0.390703
0.558173
-0.353114
0.585009
-0.312255
0.609221
-0.278382
0.630781
-0.245083
0.650021
-0.213454
0.667194
-0.184025
0.682345
-0.154483
0.695643
-0.125619
0.707035
-0.0958062
0.716531
-0.065774
0.724013
-0.0344325
0.729488
-0.00310751
0.732845
0.0289291
0.73412
0.0590816
0.733428
0.0866896
0.730853
0.10857
0.726487
0.123875
0.720182
0.137972
0.71198
0.153426
0.702292
0.169126
0.69141
0.185654
0.678603
0.202978
0.664256
0.222798
0.64877
0.247235
0.631569
0.278589
0.61472
0.324477
0.596873
0.383453
0.577642
0.461836
0.57671
0.650324
0.580444
0.791365
0.540288
0.641823
-0.149128
-0.506289
-0.105327
-0.523514
-0.0495564
-0.654202
0.00510711
-0.653766
0.060436
-0.669964
0.116986
-0.688446
0.170528
-0.660794
0.216788
-0.588152
0.256166
-0.515904
0.289582
-0.451182
0.316674
-0.381744
0.338593
-0.323734
0.356893
-0.28084
0.37228
-0.245257
0.385614
-0.218724
0.397682
-0.199617
0.408873
-0.18506
0.419594
-0.174526
0.430102
-0.167084
0.440572
-0.161544
0.451104
-0.157264
0.461725
-0.153279
0.472439
-0.148415
0.483007
-0.139009
0.492982
-0.124287
0.502126
-0.108356
0.510322
-0.0922236
0.517521
-0.0761666
0.523623
-0.0601242
0.528566
-0.0443079
0.532265
-0.0287833
0.53477
-0.0136221
0.536107
0.00138953
0.536125
0.0166034
0.534837
0.0330765
0.531962
0.0532963
0.52685
0.0807634
0.519182
0.12964
0.506963
0.213139
-0.195154
0.241223
-0.553585
0.28773
-0.561277
0.341094
-0.630077
0.386959
-0.551735
0.431565
-0.53817
0.475052
-0.520041
0.513503
-0.465006
0.548711
-0.425911
0.580592
-0.384995
0.608725
-0.340388
0.633916
-0.303571
0.656496
-0.267662
0.676488
-0.233445
0.694358
-0.201894
0.710217
-0.17034
0.724029
-0.13943
0.735964
-0.107739
0.745925
-0.0757317
0.753915
-0.0424175
0.759804
-0.00898725
0.76359
0.025159
0.765352
0.0573442
0.765059
0.08702
0.762944
0.110727
0.758998
0.127828
0.75308
0.143754
0.745195
0.160945
0.735709
0.178352
0.724964
0.196584
0.712183
0.215681
0.697802
0.237173
0.682201
0.263108
0.664844
0.295701
0.647665
0.341784
0.629517
0.401369
0.610474
0.480892
0.607491
0.653392
0.608428
0.790307
0.570236
0.680414
-0.149705
-0.551736
-0.103521
-0.569695
-0.0446671
-0.713053
0.0129089
-0.711338
0.0712332
-0.728284
0.130804
-0.748013
0.1871
-0.717086
0.235793
-0.636841
0.277092
-0.557198
0.31211
-0.486194
0.340375
-0.410003
0.363131
-0.346483
0.382006
-0.299707
0.397753
-0.260995
0.411294
-0.232256
0.423426
-0.211739
0.434633
-0.196257
0.445289
-0.185171
0.455726
-0.177509
0.466133
-0.17194
0.476636
-0.167755
0.487286
-0.163918
0.498111
-0.159229
0.508857
-0.149743
0.51906
-0.134474
0.528446
-0.117717
0.536916
-0.10065
0.544396
-0.0835796
0.550811
-0.0664595
0.556033
-0.0494761
0.560014
-0.0327743
0.562739
-0.0163665
0.564287
-0.000117656
0.56447
0.0163907
0.563236
0.0342874
0.560414
0.0560949
0.555271
0.0858822
0.547691
0.137248
0.535971
0.224909
-0.198299
0.246896
-0.602179
0.295876
-0.610254
0.352298
-0.686498
0.400478
-0.599914
0.447597
-0.585288
0.493346
-0.56579
0.533895
-0.505554
0.57083
-0.462846
0.604285
-0.41845
0.633743
-0.369845
0.660197
-0.330024
0.683697
-0.291161
0.704612
-0.254358
0.723219
-0.2205
0.739686
-0.186806
0.754091
-0.153834
0.766513
-0.120158
0.776924
-0.0861375
0.785309
-0.0507969
0.791641
-0.0153096
0.795882
0.0209342
0.797986
0.0552657
0.79812
0.0869225
0.796451
0.112437
0.792925
0.131358
0.787431
0.149111
0.779864
0.168153
0.770588
0.187364
0.759944
0.207389
0.747261
0.228289
0.732887
0.251551
0.717209
0.279064
0.699734
0.312957
0.682245
0.359418
0.663874
0.419527
0.644945
0.499837
0.640004
0.658463
0.638331
0.791892
0.601857
0.717338
-0.150381
-0.599651
-0.101694
-0.618379
-0.0396216
-0.775122
0.0210294
-0.771985
0.0824991
-0.78975
0.145266
-0.810776
0.204575
-0.77639
0.255756
-0.688017
0.299138
-0.600574
0.335823
-0.522873
0.365366
-0.439539
0.389045
-0.370155
0.408562
-0.319216
0.424744
-0.277169
0.438532
-0.246034
0.450791
-0.223988
0.462011
-0.207466
0.472638
-0.195786
0.483005
-0.187864
0.493368
-0.182292
0.503812
-0.178188
0.514485
-0.17458
0.525382
-0.170116
0.536284
-0.160633
0.546689
-0.144863
0.556291
-0.127293
0.565036
-0.109351
0.572792
-0.0912672
0.57947
-0.0730568
0.585003
-0.0549552
0.589241
-0.0370222
0.592217
-0.0193634
0.593946
-0.00180433
0.594283
0.0160273
0.593175
0.0353726
0.590377
0.0588676
0.585275
0.0909428
0.577765
0.14479
0.56659
0.236119
-0.201728
0.252943
-0.653392
0.304595
-0.661903
0.364068
-0.745969
0.414962
-0.650808
0.464523
-0.634848
0.512793
-0.61406
0.555357
-0.548117
0.594235
-0.501725
0.62938
-0.453594
0.66031
-0.400775
0.687932
-0.357645
0.712569
-0.315797
0.734351
-0.276138
0.753735
-0.239882
0.770825
-0.203895
0.785845
-0.168852
0.798751
-0.13306
0.809615
-0.0969968
0.81847
-0.0596447
0.825175
-0.0220043
0.829768
0.016358
0.83227
0.0527898
0.832784
0.0864441
0.831505
0.113755