/*--------------------------------*- C++ -*----------------------------------*\
| =========                 |                                                 |
| \\      /  F ield         | OpenFOAM: The Open Source CFD Toolbox           |
|  \\    /   O peration     | Version:  2312                                  |
|   \\  /    A nd           | Website:  www.openfoam.com                      |
|    \\/     M anipulation  |                                                 |
\*---------------------------------------------------------------------------*/
FoamFile
{
    version     2.0;
    format      ascii;
    arch        "LSB;label=32;scalar=64";
    class       volScalarField;
    location    "450";
    object      turbulenceProperties:nuEff;
}
// * * * * * * * * * * * * * * * * * * * * * * * * * * * * * * * * * * * * * //

dimensions      [0 2 -1 0 0 0 0];

internalField   nonuniform List<scalar> 
10720
(
7.54568e-05
0.000119235
0.000153199
0.00016004
0.000147291
0.000135323
0.000131868
0.000137302
0.000152543
0.000178809
0.000220348
0.00028721
0.000396985
0.000589514
0.000939956
0.00169217
0.00322079
0.00666681
0.0131125
0.0222215
0.0358532
0.0612877
0.118061
0.240407
0.438533
0.626553
1.291
2.17595
1.51819
0.543801
0.162203
0.0179745
0.003664
0.000516356
1e-05
1e-05
1e-05
0.00687091
0.438638
7.40676e-05
0.00010119
0.00011888
0.000177455
7.43557e-05
0.000108169
0.000166524
0.000220125
0.000229934
0.000217903
0.00021274
0.00022406
0.000254634
0.000323931
0.000430126
0.000674311
0.00101994
0.00292242
0.00315191
0.00362504
0.00465719
0.00688206
0.00863249
0.0114999
0.0150641
0.0189384
0.0154308
0.00830198
0.00311993
0.000799688
0.000100126
1.44315e-05
1.08293e-05
1.02454e-05
1.00194e-05
1.00053e-05
1.00001e-05
0.0046208
0.295426
0.000399638
0.000502311
0.00034365
0.00023348
0.000161331
0.00013036
0.000125129
0.000128501
0.000135602
0.000145714
0.000159441
0.000174149
0.000205583
0.000283961
0.000469882
0.00093105
0.00199496
0.00434078
0.00904291
0.0172121
0.0294186
0.0468608
0.0782337
0.134297
0.43724
0.5224
1.32074
1.45619
1.25951
1.73393
1.06275
0.265958
0.0697351
0.00939454
0.000160642
1e-05
0.000132408
0.0154155
0.615176
8.59418e-05
4.17414e-05
4.79897e-05
8.34056e-05
0.000100506
0.000137548
0.000145496
0.000152786
0.000176827
0.000203584
0.000236255
0.000271712
0.000305991
0.000341539
0.000363824
0.00147874
0.000194386
0.00637968
0.0106872
0.000498861
0.00464481
0.00219708
0.0103954
0.00342654
0.000566954
0.00147138
6.2021e-05
0.000195328
0.000194927
0.000170562
0.000101076
5.03743e-05
2.43809e-05
1.39101e-05
1.02838e-05
1.00095e-05
1e-05
0.00332256
0.219656
7.98266e-05
9.84741e-05
9.46994e-05
9.40455e-05
9.52203e-05
9.84697e-05
0.000103789
0.000110576
0.000118395
0.000126502
0.000134739
0.000143037
0.000149984
0.000155667
0.000167589
0.000115293
0.00036595
0.000855507
0.00217865
0.00536232
0.0121719
0.0261861
0.0609404
0.180753
0.278456
0.473922
0.91173
0.850311
0.543022
0.448197
0.420078
0.284136
0.0761864
0.0117475
0.0009117
0.000159501
0.000140809
0.0151367
0.679438
0.000107074
7.44795e-05
0.000140173
0.000182904
0.00016741
0.00013309
0.000114192
0.000124514
0.000141499
0.000167568
0.000207373
0.000262784
0.000335559
0.000433291
0.000564957
0.000738149
0.00092578
0.00114665
0.000895758
0.00058069
0.00034452
0.00124999
0.00483658
0.000154574
0.00504946
0.0116589
0.000541291
0.00116601
0.00106234
0.000877948
0.000574974
0.000277054
0.000150886
0.00010087
7.49657e-05
0.000108228
1e-05
0.00983025
0.7164
0.000201238
0.000200573
0.000200806
0.000203018
0.000206143
0.000211546
0.00021764
0.000227837
0.000242937
0.000259949
0.000281364
0.000311232
0.000344051
0.0003812
0.000433764
0.000504229
0.000593582
0.000691785
0.000527009
0.000229566
1e-05
1e-05
1e-05
0.000230205
0.00583008
1.00002e-05
1e-05
1e-05
1.00001e-05
1.00009e-05
1.00613e-05
7.69561e-05
0.0174919
0.0184751
0.00677994
0.00149704
0.00023631
0.0154766
0.855843
0.000242004
0.000247421
0.000240615
0.00021207
0.000207556
0.000221598
0.000238601
0.000240767
0.000255993
0.000274606
0.000303173
0.00031846
0.000326146
0.000347055
0.000373259
0.000411627
0.000115362
0.000241525
0.000347355
0.000460636
0.000596215
0.000698348
0.000811513
0.000901767
0.000944896
0.00095242
0.000959186
0.000943846
0.000923297
0.000907419
0.000881031
0.000838557
0.000774957
0.00070501
0.000583609
0.000856797
2.6266e-05
0.00849532
2.24921
0.000455479
0.000446499
0.000453592
0.000463821
0.000476282
0.000495636
0.000519788
0.000549365
0.000585957
0.000629223
0.00067949
0.000736384
0.000798704
0.000864374
0.000932386
0.00100061
0.0010754
0.00116256
0.00126452
0.00120305
0.000490856
0.000277813
1e-05
1e-05
0.00134492
1.00001e-05
1e-05
1e-05
1e-05
1e-05
1e-05
1.00002e-05
1.00294e-05
1e-05
0.00590019
0.00638821
0.000373669
0.0171149
0.573754
0.000458605
0.000431458
0.000200587
0.000316659
0.000329442
0.000452916
0.000517164
0.000562668
0.000612677
0.000579617
0.000582917
0.00049671
0.000400958
0.000397641
0.000399301
0.000408457
0.000437517
0.000469546
0.000492742
0.000497195
0.000491477
0.000481566
0.000458964
0.000430165
0.000416285
0.000409943
0.000396878
0.000384301
0.00037711
0.000371363
0.000364153
0.000369859
0.000390119
0.000437674
0.000392173
0.000832155
2.61308e-05
0.0130388
1.56343
0.000776062
0.00077482
0.000786183
0.000798134
0.000815921
0.000837507
0.000863488
0.000897021
0.000939703
0.000992822
0.0010586
0.00113904
0.00123662
0.00135499
0.00149823
0.00167351
0.00187663
0.00202258
0.00215602
0.00225053
0.00220751
0.00140474
0.000319055
0.000203753
1e-05
1e-05
1e-05
1e-05
1e-05
1e-05
1e-05
1e-05
1e-05
1e-05
1e-05
1e-05
1e-05
1.0004e-05
1.06376e-05
0.000460228
0.00032162
0.000347979
0.000756674
0.000894864
0.000951291
0.00101391
0.00109181
0.00119295
0.00132488
0.00149368
0.0017055
0.00196652
0.00225787
0.00222165
0.00218202
0.00213509
0.0020781
0.0020159
0.00195808
0.00190335
0.00185095
0.00179828
0.00174567
0.00169509
0.00164578
0.00159872
0.00155437
0.00151487
0.00148159
0.00144854
0.00140491
0.00142763
0.00135259
0.0010742
0.00112686
0.000159609
0.00736238
0.749221
0.000260654
9.24428e-05
0.000279472
0.000253781
0.000245847
0.000253044
0.000265461
0.000273988
0.000284873
0.000295442
0.000308158
0.00032235
0.000338085
0.000365527
0.000382759
0.000392044
0.000425357
6.66992e-05
0.000292296
0.000572107
0.000880209
0.00113318
0.00121884
0.000989182
0.000314647
1e-05
1e-05
1e-05
1e-05
1e-05
1e-05
1e-05
1e-05
1e-05
1e-05
1e-05
1e-05
1e-05
1.00008e-05
0.000295036
0.000598344
0.00147659
0.00153483
0.00159049
0.00166264
0.0017569
0.00187956
0.00203881
0.00209725
0.00212864
0.00217043
0.00220757
0.00224398
0.00228706
0.00232392
0.00232753
0.00230421
0.00227172
0.00223574
0.00219662
0.00215425
0.00210867
0.00205952
0.00200574
0.00195118
0.00190113
0.0018536
0.00181031
0.00177302
0.00172816
0.00170384
0.00170757
0.00166934
0.00154042
0.00151475
0.000616611
0.0036543
0.238025
8.06055e-05
0.000165181
0.000273925
0.000295423
0.000295095
0.000371765
0.000483708
0.000530183
0.000576418
0.000599586
0.000611394
0.000620992
0.000627171
0.000692492
0.000671402
0.000585146
0.000578324
0.000538444
0.000496156
0.000518197
0.000622886
0.000782841
0.000975988
0.00105259
0.00130898
1e-05
1e-05
1e-05
1e-05
1e-05
1e-05
1e-05
1e-05
1e-05
1e-05
1e-05
1e-05
1e-05
1e-05
0.00140917
0.00228706
0.00211378
0.00137256
0.000737338
0.000457103
0.000473916
0.000504119
0.00054026
0.00058477
0.000636188
0.000671038
0.00071111
0.000767503
0.000848226
0.000928104
0.000965421
0.000980486
0.000987119
0.000984134
0.000973757
0.000957775
0.000937641
0.000914183
0.000889378
0.000865537
0.000843873
0.000824349
0.000807843
0.00079406
0.000784933
0.000791991
0.00081729
0.000860322
0.000898519
0.000980948
0.000866671
0.00110486
0.0603899
0.00194332
0.00185179
0.00187651
0.00191204
0.00194681
0.00195814
0.00197349
0.00198708
0.00203561
0.00201872
0.00196654
0.00196669
0.00196367
0.00195563
0.001947
0.00192863
0.0019034
0.00186771
0.00176007
0.00159675
0.00144883
0.00134342
0.00131142
0.00120485
0.00165013
1.00002e-05
1e-05
1e-05
1e-05
1e-05
1e-05
1e-05
1e-05
1e-05
1e-05
1e-05
1e-05
1e-05
1e-05
0.00230045
0.0015036
0.000477547
0.00024882
0.000111481
7.871e-05
8.12179e-05
8.46462e-05
8.86796e-05
9.48318e-05
0.000103
0.000108491
0.000115879
0.000126282
0.000141346
0.000157434
0.000167565
0.000175021
0.000181306
0.00018598
0.000189235
0.00019124
0.000192081
0.000191789
0.000190795
0.000189562
0.000188414
0.00018742
0.00018677
0.000186392
0.000186777
0.000190622
0.000198576
0.000212669
8.60227e-05
0.000162408
0.000451592
0.000100978
0.0042336
0.00184785
0.00164277
0.00154882
0.00149709
0.00145491
0.00142523
0.00140861
0.00139815
0.00139378
0.00140705
0.0014207
0.00143738
0.00145804
0.00148256
0.00151089
0.0015434
0.00158123
0.00161504
0.00169225
0.0017763
0.00174952
0.00165655
0.00160079
0.00143401
0.00173354
1.00008e-05
1e-05
1e-05
1e-05
1e-05
1e-05
1e-05
1e-05
1e-05
1e-05
1e-05
1e-05
1e-05
1e-05
0.000862235
0.000303952
0.000115678
0.000120655
1.65816e-05
4.42228e-05
3.58959e-05
2.79132e-05
1.71594e-05
0.000155653
1.20992e-05
0.00015168
0.00015041
0.000148801
0.00014736
0.000146397
0.000145776
0.000145927
0.000146655
0.000147712
0.000148913
0.000150099
0.000150985
0.000151429
0.000151473
0.00015132
0.000151152
0.000150933
0.000150739
0.000150548
0.000150346
0.000149901
0.000145653
0.000137594
0.000144751
0.000150613
0.00011932
7.90735e-05
0.00104198
0.000393202
0.000439482
0.000324405
0.000264637
0.000220741
0.000185537
0.000161128
0.000144623
0.000135307
0.000133837
0.000140145
0.000154441
0.000176604
0.000207722
0.000248462
0.000297372
0.000358657
0.0004268
0.000530374
0.000720954
0.000924588
0.00106636
0.00118452
0.00117221
0.00152037
1.00037e-05
1e-05
1e-05
1e-05
1e-05
1e-05
1e-05
1e-05
1e-05
1e-05
1e-05
1e-05
1e-05
1e-05
0.000163262
0.000136277
0.000338026
0.000846439
0.00108335
0.00108506
0.00107815
0.00107114
0.00106167
0.00104986
0.00103529
0.00103718
0.00102415
0.00100385
0.000980169
0.000956065
0.000934738
0.000915702
0.000898418
0.000882307
0.000866827
0.000850938
0.000834235
0.000817626
0.000801869
0.000786924
0.000772921
0.000759456
0.000746861
0.000734861
0.000723529
0.000711438
0.00068108
0.00063308
0.000572818
0.000493922
0.000452062
0.000321017
7.6113e-05
0.000105549
0.000116142
0.000111981
0.000106462
0.000109495
0.000114475
0.000117533
0.000122012
0.000126586
0.000130734
0.000135936
0.000141713
0.000148237
0.000156108
0.000165079
0.000175817
0.000189098
0.000203613
0.000232593
1.09414e-05
0.000158592
0.000330949
0.000524533
0.000622649
0.00104966
1.00148e-05
1e-05
1e-05
1e-05
1e-05
1e-05
1e-05
1e-05
1e-05
1e-05
1e-05
1e-05
1e-05
1e-05
0.000229099
0.000757925
0.00125271
0.00124896
0.0012298
0.00123182
0.00123146
0.00123286
0.00123321
0.00123247
0.00122886
0.00122217
0.00121073
0.00119579
0.00117979
0.00116509
0.00115118
0.00113758
0.00112381
0.00110937
0.00109367
0.00107635
0.00105797
0.00103959
0.00102193
0.00100494
0.000988622
0.00097264
0.000957575
0.00094337
0.000929786
0.000918313
0.00090604
0.00088077
0.000848139
0.000810217
0.000702285
0.000626945
0.000286943
0.000402431
0.000423525
0.000453765
0.000494802
0.000550134
0.000608929
0.000661061
0.000705124
0.000740899
0.000767719
0.000786751
0.000799336
0.00080629
0.000808593
0.000805643
0.000802675
0.000801311
0.00079572
0.000834857
0.000759961
0.000626256
0.000592858
0.000614863
0.000594369
0.000878393
1.00738e-05
1e-05
1e-05
1e-05
1e-05
1e-05
1e-05
1e-05
1e-05
1e-05
1e-05
1e-05
1e-05
1e-05
0.00106588
0.00129175
0.00096074
0.000466019
0.000331595
0.000344961
0.000355072
0.000363542
0.00037215
0.00038169
0.0003887
0.000393973
0.000398254
0.000402122
0.000405473
0.000408035
0.000409612
0.000410066
0.000409153
0.000406643
0.000402551
0.000397237
0.000391065
0.000384625
0.000378422
0.000372439
0.000366809
0.000361529
0.000356887
0.000354354
0.000350647
0.000351122
0.000364796
0.000381938
0.000416889
0.000462712
0.000480666
0.000516292
0.000416209
0.00123592
0.00115523
0.00113245
0.00113536
0.00116003
0.0011814
0.00120149
0.0012166
0.00122776
0.00123543
0.00124018
0.00124341
0.00124585
0.00124834
0.00124576
0.00125459
0.00127425
0.00127217
0.00126431
0.00124056
0.00116579
0.00106224
0.000975063
0.000854058
0.00096344
1.04464e-05
1e-05
1e-05
1e-05
1e-05
1e-05
1e-05
1e-05
1e-05
1e-05
1e-05
1e-05
1e-05
1e-05
0.00117062
0.000601972
8.04364e-05
8.32505e-05
5.73191e-05
6.07943e-05
6.29354e-05
6.37767e-05
6.46201e-05
6.58308e-05
6.62431e-05
6.65844e-05
6.73571e-05
6.82433e-05
6.94179e-05
7.09112e-05
7.25091e-05
7.42179e-05
7.59185e-05
7.75199e-05
7.8962e-05
8.02523e-05
8.1357e-05
8.22378e-05
8.28529e-05
8.33082e-05
8.37263e-05
8.41088e-05
8.45162e-05
8.52937e-05
8.56907e-05
8.69585e-05
9.11724e-05
9.61879e-05
0.000106173
3.53053e-05
0.00012256
0.000230623
0.000287229
0.000856662
0.000795069
0.000738304
0.000691261
0.000651104
0.00061746
0.00059377
0.000576031
0.000564436
0.000558841
0.000558634
0.000564096
0.000575087
0.000591236
0.000613149
0.000639855
0.000670676
0.000706073
0.00074035
0.000811045
0.000902462
0.000933516
0.000929628
0.000879851
0.000957332
1.22713e-05
1e-05
1e-05
1e-05
1e-05
1e-05
1e-05
1e-05
1e-05
1e-05
1e-05
1e-05
1e-05
1e-05
0.000289752
0.000122169
4.67072e-05
7.64353e-05
8.28341e-05
8.36733e-05
8.31742e-05
8.14814e-05
7.98951e-05
7.8651e-05
7.67825e-05
7.50776e-05
7.40518e-05
7.32481e-05
7.29269e-05
7.31254e-05
7.36706e-05
7.45812e-05
7.57982e-05
7.72283e-05
7.87863e-05
8.04569e-05
8.2175e-05
8.37551e-05
8.49771e-05
8.59744e-05
8.68515e-05
8.75892e-05
8.8217e-05
8.87603e-05
8.91627e-05
8.93922e-05
8.83378e-05
8.40015e-05
7.66438e-05
7.27382e-05
8.33018e-05
2.06876e-05
0.000133268
8.81748e-05
0.000114315
4.35291e-05
0.000109447
0.00010148
9.8186e-05
9.39103e-05
9.1644e-05
9.03443e-05
8.96226e-05
9.04217e-05
9.2236e-05
9.51092e-05
9.92001e-05
0.000104462
0.000110835
0.000118227
0.000127655
2.02329e-05
6.30001e-05
0.000156981
0.000290498
0.000426507
0.000510001
0.000633271
1.73455e-05
1e-05
1e-05
1e-05
1e-05
1e-05
1e-05
1e-05
1e-05
1e-05
1e-05
1e-05
1e-05
1e-05
6.14995e-05
8.55846e-05
0.000202228
0.000489417
0.000524159
0.000515139
0.000507305
0.000502749
0.000499433
0.000496654
0.000493995
0.000491203
0.000488341
0.000485437
0.000482329
0.00047908
0.000475887
0.00047283
0.000469883
0.000466984
0.000464102
0.000461183
0.000458141
0.000454972
0.000451705
0.000448159
0.000444299
0.000440053
0.00043561
0.000431166
0.000426376
0.000421132
0.000409775
0.000382436
0.000341028
0.000288609
0.000234454
0.00017103
0.000164542
5.87857e-05
5.54423e-05
5.23269e-05
5.18304e-05
5.82138e-05
6.42973e-05
6.76269e-05
7.0749e-05
7.31681e-05
7.46411e-05
7.6234e-05
7.76232e-05
7.88539e-05
8.01393e-05
8.13173e-05
8.25287e-05
8.37416e-05
8.49076e-05
8.77528e-05
9.59514e-05
0.00010904
0.000134058
6.09865e-05
0.000158589
0.000264153
2.55574e-05
1e-05
1e-05
1e-05
1e-05
1e-05
1e-05
1e-05
1e-05
1e-05
1e-05
1e-05
1e-05
1e-05
5.1643e-05
0.000446229
0.000646562
0.000671881
0.000673026
0.000665829
0.000657128
0.000653052
0.000651174
0.000650022
0.000649227
0.00064848
0.000647633
0.00064668
0.000645202
0.000643232
0.000641253
0.000639288
0.000637118
0.000634556
0.000631522
0.000627974
0.000623829
0.000619203
0.000614312
0.000609085
0.00060351
0.000597549
0.000591454
0.000585532
0.000579486
0.000574083
0.000569676
0.000559409
0.000536986
0.000503064
0.000446374
0.000349756
0.000274537
0.000270854
0.000250093
0.000278948
0.000321881
0.00036469
0.000403177
0.00043303
0.00045606
0.000474023
0.000487612
0.000497816
0.000505459
0.000510758
0.000513757
0.000515065
0.000515436
0.000515007
0.000513882
0.000512208
0.000508352
0.00047625
0.000445947
0.000372811
0.00030813
0.000290794
5.21318e-05
1e-05
1e-05
1e-05
1e-05
1e-05
1e-05
1e-05
1e-05
1e-05
1e-05
1e-05
1e-05
1e-05
0.000618496
0.00064596
0.000457921
0.000272826
0.000254532
0.000255156
0.000252926
0.000251853
0.000252141
0.00025287
0.000253886
0.000255109
0.000256403
0.000257849
0.000258878
0.000259452
0.000260154
0.000260849
0.000261154
0.00026097
0.00026028
0.000259148
0.000257617
0.000255861
0.000254064
0.000252221
0.000250334
0.000248407
0.000246524
0.000244821
0.000243242
0.000241889
0.000244337
0.000258748
0.00028038
0.000305786
0.000323829
0.000316979
0.000278301
0.000672952
0.000600282
0.000588837
0.000606286
0.000618487
0.000627856
0.000634702
0.000638854
0.000642107
0.000644853
0.000646975
0.000648946
0.000650776
0.000652091
0.000653236
0.000654915
0.000656965
0.00065898
0.000661019
0.000663164
0.000665897
0.000651469
0.000589643
0.000520174
0.000444911
0.000139234
1e-05
1e-05
1e-05
1e-05
1e-05
1e-05
1e-05
1e-05
1e-05
1e-05
1e-05
1e-05
1e-05
0.000549369
0.000226889
3.4121e-05
5.20071e-05
4.75201e-05
4.86622e-05
4.86076e-05
4.78596e-05
4.72688e-05
4.68613e-05
4.60852e-05
4.53846e-05
4.5055e-05
4.48479e-05
4.48652e-05
4.5192e-05
4.57592e-05
4.65937e-05
4.76017e-05
4.87251e-05
4.98974e-05
5.11167e-05
5.2356e-05
5.34886e-05
5.43698e-05
5.51234e-05
5.58388e-05
5.65145e-05
5.71566e-05
5.77876e-05
5.84101e-05
5.9034e-05
6.04351e-05
6.44283e-05
7.11585e-05
3.79896e-05
9.80798e-05
0.000163048
0.0001939
0.000385989
0.000369322
0.000330319
0.000306106
0.000285329
0.000267
0.000253004
0.000241812
0.000233588
0.000228134
0.000224845
0.000223559
0.000224188
0.000226409
0.000230055
0.000235344
0.000242502
0.0002513
0.000261554
0.000276683
0.000310876
0.000352691
0.000392925
0.000424355
0.000403589
0.000256031
1e-05
1e-05
1e-05
1e-05
1e-05
1e-05
1e-05
1e-05
1e-05
1e-05
1e-05
1e-05
1e-05
8.08978e-05
4.80469e-05
3.18473e-05
3.67083e-05
3.84873e-05
3.96482e-05
3.98169e-05
3.91368e-05
3.83423e-05
3.7639e-05
3.66221e-05
3.56386e-05
3.4948e-05
3.43357e-05
3.39382e-05
3.38202e-05
3.38679e-05
3.41103e-05
3.4518e-05
3.50567e-05
3.56804e-05
3.6391e-05
3.71609e-05
3.78791e-05
3.84173e-05
3.88574e-05
3.92755e-05
3.96681e-05
4.00345e-05
4.03838e-05
4.07222e-05
4.10241e-05
4.1181e-05
3.95095e-05
3.59917e-05
3.86003e-05
4.41799e-05
5.48893e-05
7.40635e-05
1.48755e-05
2.89439e-05
5.98106e-05
5.24118e-05
4.99434e-05
4.78541e-05
4.52724e-05
4.36249e-05
4.23975e-05
4.13736e-05
4.09581e-05
4.08718e-05
4.11325e-05
4.18055e-05
4.27623e-05
4.40814e-05
4.57853e-05
4.78444e-05
5.02218e-05
5.34855e-05
6.00082e-05
7.28414e-05
6.6391e-05
0.000143275
0.000190834
0.000249992
1.00001e-05
1e-05
1e-05
1e-05
1e-05
1e-05
1e-05
1e-05
1e-05
1e-05
1e-05
1e-05
1e-05
2.97353e-05
5.93287e-05
0.000135538
0.00019362
0.000202251
0.000205025
0.000205129
0.000204312
0.00020306
0.000201818
0.000200694
0.000199574
0.000198492
0.000197461
0.000196437
0.000195435
0.000194442
0.000193439
0.000192408
0.000191327
0.000190187
0.000188989
0.000187725
0.000186432
0.000185162
0.000183863
0.000182516
0.000181129
0.000179706
0.000178311
0.000176998
0.000175635
0.00017367
0.000162415
0.000142203
0.000122064
8.04567e-05
4.77692e-05
7.03936e-05
4.00685e-05
3.24446e-05
3.32587e-05
3.40135e-05
3.57919e-05
3.75381e-05
3.81721e-05
3.89668e-05
3.95724e-05
3.97956e-05
4.01599e-05
4.04498e-05
4.07148e-05
4.10831e-05
4.14306e-05
4.18323e-05
4.22786e-05
4.27433e-05
4.3195e-05
4.36062e-05
4.35514e-05
4.08245e-05
4.59488e-05
5.55512e-05
6.75577e-05
0.000123767
1.00003e-05
1e-05
1e-05
1e-05
1e-05
1e-05
1e-05
1e-05
1e-05
1e-05
1e-05
1e-05
1e-05
8.29223e-05
0.000286652
0.000355586
0.000360449
0.00036251
0.000361994
0.000360872
0.000360058
0.000359377
0.000358843
0.000358554
0.000358352
0.000358158
0.000357983
0.000357763
0.000357449
0.000357047
0.00035653
0.000355851
0.000354981
0.000353914
0.000352657
0.000351171
0.000349475
0.000347683
0.000345752
0.000343629
0.000341339
0.000338893
0.000336384
0.000333927
0.000331504
0.000329861
0.000322495
0.000300689
0.000277942
0.000251172
0.000189476
0.000142786
0.000168904
0.000157005
0.000171574
0.000183893
0.000194808
0.000204741
0.000212726
0.00021902
0.000224024
0.000227817
0.000230643
0.000232764
0.000234322
0.000235372
0.000235929
0.000236155
0.000236238
0.000236101
0.000235654
0.000234881
0.000231111
0.000210418
0.000179462
0.000153745
0.000110872
0.000138387
1.00047e-05
1e-05
1e-05
1e-05
1e-05
1e-05
1e-05
1e-05
1e-05
1e-05
1e-05
1e-05
1e-05
0.000368247
0.000351651
0.000231541
0.000195899
0.000191147
0.000188455
0.000187894
0.000188256
0.000188951
0.000189638
0.000190337
0.000191052
0.000191721
0.00019235
0.00019295
0.000193472
0.000193911
0.000194255
0.000194475
0.000194556
0.000194496
0.000194303
0.000193969
0.000193501
0.00019295
0.000192326
0.000191631
0.000190817
0.000189913
0.000188955
0.000187982
0.000186934
0.000187016
0.000192063
0.0002006
0.000207824
0.000213973
0.000200629
0.000166607
0.000381263
0.00035128
0.000353016
0.000354497
0.000354348
0.000353727
0.00035312
0.000352036
0.000350972
0.000350068
0.000349219
0.000348589
0.000348207
0.000347928
0.000347653
0.000347487
0.000347575
0.000347708
0.000347672
0.000347752
0.000350293
0.000344323
0.000325829
0.000298552
0.000246922
0.000228861
1.00821e-05
1e-05
1e-05
1e-05
1e-05
1e-05
1e-05
1e-05
1e-05
1e-05
1e-05
1e-05
1e-05
0.000291167
0.000102469
1.19466e-05
3.89097e-05
3.84704e-05
3.87353e-05
3.87619e-05
3.82437e-05
3.77201e-05
3.72638e-05
3.64377e-05
3.56002e-05
3.50235e-05
3.44799e-05
3.41424e-05
3.41031e-05
3.42362e-05
3.45994e-05
3.51633e-05
3.58971e-05
3.67626e-05
3.77536e-05
3.88515e-05
3.98911e-05
4.06975e-05
4.13859e-05
4.20662e-05
4.27212e-05
4.33472e-05
4.39438e-05
4.45159e-05
4.50481e-05
4.57863e-05
4.78918e-05
1.71019e-05
4.13869e-05
7.74579e-05
0.000111736
0.0001192
0.000214899
0.000214432
0.00020097
0.000192003
0.000184229
0.000176975
0.000171189
0.00016643
0.000162645
0.000159869
0.000157874
0.000156583
0.000155921
0.000155759
0.000156036
0.000156763
0.000158009
0.000159697
0.00016172
0.000164128
0.000169664
0.000185667
0.000203609
0.00021558
0.000216051
0.000226214
1.07659e-05
1.00001e-05
1e-05
1e-05
1e-05
1e-05
1e-05
1e-05
1e-05
1e-05
1e-05
1e-05
1e-05
3.16009e-05
2.54458e-05
1.92944e-05
2.20059e-05
2.28262e-05
2.34333e-05
2.33112e-05
2.27752e-05
2.22583e-05
2.18459e-05
2.13042e-05
2.07732e-05
2.03777e-05
2.00095e-05
1.97365e-05
1.96016e-05
1.95494e-05
1.96027e-05
1.97533e-05
1.99871e-05
2.02892e-05
2.06569e-05
2.10888e-05
2.15122e-05
2.18338e-05
2.21008e-05
2.23631e-05
2.262e-05
2.28683e-05
2.31048e-05
2.33323e-05
2.35466e-05
2.37046e-05
2.33594e-05
2.33877e-05
2.70959e-05
3.14965e-05
1.59087e-05
5.1612e-05
3.88526e-05
3.91679e-05
3.91145e-05
3.66004e-05
3.57091e-05
3.4934e-05
3.36048e-05
3.28041e-05
3.21452e-05
3.14807e-05
3.1142e-05
3.09231e-05
3.08286e-05
3.09248e-05
3.11241e-05
3.14545e-05
3.19131e-05
3.24788e-05
3.31292e-05
3.3861e-05
3.50879e-05
3.93279e-05
2.43414e-05
5.56156e-05
8.89551e-05
0.000123016
1.34095e-05
1.00021e-05
1e-05
1e-05
1e-05
1e-05
1e-05
1e-05
1e-05
1e-05
1e-05
1e-05
1e-05
2.10815e-05
3.87402e-05
7.02073e-05
9.02662e-05
9.42753e-05
9.617e-05
9.51411e-05
9.3555e-05
9.22447e-05
9.13838e-05
9.07709e-05
9.02477e-05
8.98369e-05
8.94935e-05
8.91704e-05
8.88888e-05
8.86531e-05
8.84394e-05
8.82575e-05
8.80968e-05
8.79609e-05
8.78462e-05
8.77651e-05
8.7727e-05
8.76824e-05
8.75858e-05
8.74327e-05
8.72436e-05
8.70124e-05
8.67362e-05
8.64307e-05
8.60784e-05
8.54617e-05
8.21761e-05
7.3181e-05
6.44562e-05
4.44113e-05
2.97699e-05
4.60367e-05
3.07925e-05
2.30934e-05
2.38608e-05
2.33302e-05
2.37945e-05
2.43395e-05
2.42718e-05
2.42061e-05
2.40246e-05
2.37268e-05
2.35938e-05
2.3505e-05
2.34557e-05
2.34893e-05
2.3544e-05
2.36385e-05
2.37636e-05
2.39071e-05
2.40559e-05
2.42069e-05
2.43044e-05
2.36517e-05
2.41905e-05
2.7357e-05
3.02898e-05
3.76658e-05
1.54622e-05
1.00145e-05
1e-05
1e-05
1e-05
1e-05
1e-05
1e-05
1e-05
1e-05
1e-05
1e-05
1e-05
6.98727e-05
0.000177887
0.000213349
0.000218469
0.000220775
0.000221246
0.00021917
0.000216795
0.000215259
0.000214469
0.000214133
0.000213968
0.000213906
0.000213883
0.000213828
0.000213764
0.000213694
0.000213596
0.000213471
0.000213307
0.000213098
0.00021285
0.000212574
0.000212264
0.00021189
0.000211406
0.000210808
0.000210131
0.000209369
0.000208503
0.00020757
0.000206576
0.000205604
0.000203396
0.000195769
0.000181358
0.000156899
0.000127588
0.000103449
0.000113806
0.000104729
0.000103895
0.000104371
0.000106825
0.000109598
0.000111338
0.000111591
0.00011108
0.000110475
0.000110069
0.000109895
0.000109827
0.000109785
0.00010972
0.000109646
0.000109591
0.000109511
0.000109373
0.000109217
0.00010875
0.000103371
9.08008e-05
7.7737e-05
5.9639e-05
4.21286e-05
2.81074e-05
1.01821e-05
1.00001e-05
1e-05
1e-05
1e-05
1e-05
1e-05
1e-05
1e-05
1e-05
1e-05
1e-05
0.000239769
0.000218565
0.000150685
0.000138106
0.00013602
0.000134937
0.000133805
0.000132397
0.00013158
0.000131211
0.000131138
0.000131226
0.000131339
0.000131473
0.000131609
0.000131711
0.000131788
0.000131846
0.000131856
0.000131829
0.000131752
0.000131628
0.000131461
0.000131215
0.000130925
0.000130618
0.000130273
0.000129885
0.000129466
0.000128997
0.000128515
0.000127979
0.000127801
0.000129832
0.000134583
0.000137953
0.000139674
0.000132901
0.000114087
0.000235997
0.000213516
0.000209296
0.000205071
0.000203833
0.000203033
0.000202765
0.000201155
0.000199025
0.000197637
0.000197032
0.000196862
0.000196824
0.000196763
0.000196668
0.000196599
0.000196615
0.000196629
0.000196523
0.000196401
0.000195683
0.000195432
0.000184913
0.000169916
0.000157743
0.000132033
8.4452e-05
1.21397e-05
1.00049e-05
1e-05
1e-05
1e-05
1e-05
1e-05
1e-05
1e-05
1e-05
1e-05
1e-05
0.000180142
6.48011e-05
2.26591e-05
1.32931e-05
1.10404e-05
1.04311e-05
1.0662e-05
1.04775e-05
1.02027e-05
2.85957e-05
2.78172e-05
2.7046e-05
2.64496e-05
2.58611e-05
2.54067e-05
2.51687e-05
2.50548e-05
2.51228e-05
2.53586e-05
2.57483e-05
2.62638e-05
2.69054e-05
2.76651e-05
2.8392e-05
2.89188e-05
2.93545e-05
2.97952e-05
3.0235e-05
3.06743e-05
3.11048e-05
1.00134e-05
1.01524e-05
1.01021e-05
1.14429e-05
1.91981e-05
3.27383e-05
5.32291e-05
7.22676e-05
7.752e-05
0.000133865
0.000126453
0.000119204
0.000113837
0.000109287
0.000106478
0.000106094
0.00010535
0.000103976
0.000103566
0.000103936
0.000104352
0.000104618
0.000104789
0.000104956
0.000105202
0.000105575
0.000106057
0.000106583
0.000107164
0.000108397
0.000113127
0.000120636
0.000126252
0.00012895
0.000127493
0.000112722
2.12894e-05
1.00751e-05
1e-05
1e-05
1e-05
1e-05
1e-05
1e-05
1e-05
1e-05
1e-05
1e-05
2.09257e-05
1.90743e-05
1.53941e-05
1.48234e-05
1.47577e-05
1.48796e-05
1.50351e-05
1.50028e-05
1.49186e-05
1.48432e-05
1.46915e-05
1.44984e-05
1.43385e-05
1.41677e-05
1.40244e-05
1.39392e-05
1.38875e-05
1.38869e-05
1.39358e-05
1.40322e-05
1.41691e-05
1.43497e-05
1.4575e-05
1.48035e-05
1.49767e-05
1.51171e-05
1.52574e-05
1.53967e-05
1.55357e-05
1.56713e-05
1.58061e-05
1.59588e-05
1.6061e-05
1.63799e-05
1.73282e-05
1.96346e-05
2.18934e-05
2.52216e-05
3.10252e-05
2.78429e-05
2.69776e-05
2.70007e-05
2.54745e-05
2.49267e-05
2.46625e-05
2.4283e-05
2.40667e-05
2.37483e-05
2.3461e-05
2.34227e-05
2.3396e-05
2.337e-05
2.34112e-05
2.34744e-05
2.35949e-05
2.37626e-05
2.39732e-05
2.42072e-05
2.4454e-05
2.47886e-05
2.59318e-05
1.30256e-05
2.78606e-05
4.41368e-05
6.12741e-05
7.20407e-05
3.6841e-05
1.05535e-05
1.00012e-05
1e-05
1e-05
1e-05
1e-05
1e-05
1e-05
1e-05
1e-05
1e-05
1.67683e-05
2.78534e-05
3.2364e-05
3.83891e-05
3.98202e-05
4.05352e-05
4.12288e-05
4.19915e-05
4.26414e-05
4.32358e-05
4.36635e-05
4.39089e-05
4.40767e-05
4.41751e-05
4.42119e-05
4.42335e-05
4.425e-05
4.42702e-05
4.43042e-05
4.43592e-05
4.44404e-05
4.45466e-05
4.47021e-05
4.4907e-05
4.51043e-05
4.52499e-05
4.53555e-05
4.54297e-05
4.54787e-05
4.54973e-05
4.54927e-05
4.54548e-05
4.532e-05
4.49083e-05
4.0923e-05
3.7816e-05
2.63128e-05
1.61746e-05
2.62878e-05
2.38815e-05
1.844e-05
1.90083e-05
1.86973e-05
1.88705e-05
1.92022e-05
1.8623e-05
1.82903e-05
1.82018e-05
1.80958e-05
1.80867e-05
1.80806e-05
1.80735e-05
1.81077e-05
1.81462e-05
1.82069e-05
1.82834e-05
1.83707e-05
1.84589e-05
1.85373e-05
1.85714e-05
1.8552e-05
1.82683e-05
1.9239e-05
2.05798e-05
2.19733e-05
1.01324e-05
2.35656e-05
1.16145e-05
1.0013e-05
1.00001e-05
1e-05
1e-05
1e-05
1e-05
1e-05
1e-05
1e-05
1e-05
4.80317e-05
0.000123964
0.000133459
0.000134183
0.000133511
0.000132437
0.000132127
0.000132584
0.000133264
0.000133975
0.000134632
0.000135149
0.000135574
0.000135927
0.000136198
0.000136427
0.000136632
0.000136811
0.000136977
0.000137128
0.000137262
0.000137376
0.000137483
0.000137577
0.000137615
0.000137558
0.000137416
0.000137214
0.000136968
0.000136662
0.000136322
0.000135935
0.000135508
0.000135202
0.000131519
0.000123642
0.000109034
9.21016e-05
7.47274e-05
8.06153e-05
7.02176e-05
7.02541e-05
7.09191e-05
7.16868e-05
7.33859e-05
7.0839e-05
6.90185e-05
6.89731e-05
6.93168e-05
6.97898e-05
7.02777e-05
7.06887e-05
7.10286e-05
7.13047e-05
7.15425e-05
7.17644e-05
7.19569e-05
7.21067e-05
7.21592e-05
7.19429e-05
7.15316e-05
6.60947e-05
5.71041e-05
4.85874e-05
3.81057e-05
3.12952e-05
3.03837e-05
1.59761e-05
1.01588e-05
1.00004e-05
1e-05
1e-05
1e-05
1e-05
1e-05
1e-05
1e-05
1e-05
0.000159158
0.000137814
0.000117306
0.000112279
0.000110027
0.000108103
0.000106681
0.000106141
0.000106022
0.000106014
0.000106114
0.000106253
0.00010638
0.000106516
0.000106649
0.000106767
0.000106876
0.000106974
0.000107053
0.000107107
0.00010713
0.000107122
0.000107072
0.000106969
0.000106833
0.000106672
0.000106481
0.000106255
0.000106008
0.000105736
0.000105451
0.000105153
0.00010487
0.000105483
0.000107461
0.00010892
0.000108404
0.000102648
9.0056e-05
0.000156724
0.000142507
0.000139402
0.000137811
0.000136279
0.000136558
0.000134049
0.000131767
0.000132101
0.000132138
0.000132019
0.000131896
0.000131775
0.000131639
0.00013151
0.00013143
0.000131434
0.000131489
0.000131518
0.000131509
0.000130821
0.000131791
0.000127045
0.000119813
0.000112188
0.000101184
8.64627e-05
7.02202e-05
3.7929e-05
1.15621e-05
1.00186e-05
1e-05
1e-05
1e-05
1e-05
1e-05
1e-05
1e-05
1e-05
0.000115582
5.45732e-05
3.26508e-05
2.89568e-05
2.78571e-05
2.71984e-05
2.63332e-05
2.56018e-05
2.50708e-05
2.4602e-05
2.41739e-05
2.38041e-05
2.34813e-05
2.32003e-05
2.29642e-05
2.27549e-05
2.25731e-05
2.24106e-05
2.22689e-05
2.21409e-05
2.20377e-05
2.19576e-05
2.19052e-05
2.18782e-05
2.18699e-05
2.18908e-05
2.1928e-05
2.19703e-05
2.20176e-05
2.20663e-05
2.21135e-05
2.21568e-05
2.2089e-05
2.23942e-05
2.60544e-05
3.36036e-05
4.54444e-05
5.72404e-05
6.13483e-05
8.71328e-05
8.56739e-05
8.17571e-05
7.95496e-05
7.76846e-05
7.59383e-05
7.6433e-05