/*--------------------------------*- C++ -*----------------------------------*\
| =========                 |                                                 |
| \\      /  F ield         | OpenFOAM: The Open Source CFD Toolbox           |
|  \\    /   O peration     | Version:  2312                                  |
|   \\  /    A nd           | Website:  www.openfoam.com                      |
|    \\/     M anipulation  |                                                 |
\*---------------------------------------------------------------------------*/
FoamFile
{
    version     2.0;
    format      ascii;
    arch        "LSB;label=32;scalar=64";
    class       volScalarField;
    location    "450";
    object      turbulenceProperties:k;
}
// * * * * * * * * * * * * * * * * * * * * * * * * * * * * * * * * * * * * * //

dimensions      [0 2 -2 0 0 0 0];

internalField   nonuniform List<scalar> 
10720
(
0.0162647
0.0221865
0.0272484
0.0334195
0.0410282
0.0498821
0.0605895
0.0737939
0.0910395
0.114808
0.14921
0.202456
0.288269
0.437011
0.705941
1.27851
2.42878
4.97899
9.61976
15.8787
24.7555
40.7059
75.6676
150.046
270.637
383.754
789.097
1308
913.87
386.439
119.263
15.3498
3.25048
0.396854
1e-15
1e-15
1e-15
1.25644
73.3851
0.0230307
0.0306006
0.0322675
0.0258567
0.0140801
0.017265
0.0214801
0.0242803
0.0255166
0.0282434
0.0334664
0.0424575
0.0570204
0.0836381
0.122706
0.207495
0.292292
0.689742
1.00009
1.25938
1.62536
2.4459
3.49398
4.93302
6.65729
8.51127
7.78028
4.74589
1.95027
0.519382
0.0591238
0.00276636
0.000474378
0.000125247
8.71397e-06
2.10078e-06
3.2798e-08
1.46281
112.737
0.0189058
0.0177294
0.0172752
0.0164253
0.0157901
0.0151465
0.0145752
0.0140199
0.0136007
0.0132781
0.0130922
0.0128993
0.0137621
0.0173494
0.0265417
0.0505043
0.111865
0.273999
0.68363
1.58979
3.27592
6.00584
10.5794
17.1069
52.8858
88.3025
266.774
553.655
465.079
280.554
132.587
48.2369
13.0637
1.766
0.0341399
1e-15
0.0202469
1.37565
39.1365
0.00824682
0.00456343
0.00525582
0.00503822
0.0109579
0.0139184
0.013044
0.0120794
0.012445
0.0125258
0.012568
0.0124759
0.0121171
0.0116479
0.0106861
0.0382939
0.00418588
0.12741
0.190107
0.0331378
0.323158
0.0310434
0.142321
1.04111
0.132946
0.315851
0.009101
0.0291485
0.0295835
0.0230567
0.0134762
0.00603213
0.00212957
0.000557962
3.83895e-05
1.19037e-06
1e-15
0.337183
24.7242
0.00232789
0.00401067
0.00319888
0.00272908
0.00233597
0.00204336
0.00178963
0.00167381
0.00169386
0.00178016
0.00193118
0.00215089
0.00233987
0.00245601
0.0042588
0.000479648
0.0207346
0.0502528
0.127255
0.303173
0.639148
1.19687
2.1509
3.88359
7.46933
14.9388
84.8781
206.394
193.975
145.382
86.9312
42.619
15.3755
3.14235
0.265615
0.0390738
0.0231365
1.49674
25.4336
0.00260763
0.00312846
0.01138
0.0149932
0.0128961
0.00823113
0.00418171
0.00422567
0.0046406
0.00514114
0.00577607
0.00637944
0.00680227
0.0072012
0.00770492
0.00825848
0.00805173
0.00785577
0.00446904
0.00296512
0.00179468
0.00688972
0.0295895
0.000872445
0.0289006
0.0685003
0.00302018
0.00748348
0.0076816
0.00630816
0.00417851
0.00246683
0.00151376
0.0010775
0.000807701
0.00119744
1e-15
0.125518
8.75801
0.00217392
0.00252111
0.00360321
0.00402025
0.00442618
0.00476983
0.00460222
0.00493377
0.0057342
0.00599616
0.00622206
0.00700267
0.00707079
0.00642304
0.006437
0.00636167
0.00561954
0.00318043
0.00229182
0.000997266
1e-15
1e-15
1e-15
0.00490597
0.103714
0.000431876
0.000195389
0.000717435
0.00124846
0.0031356
0.0195651
0.402339
2.38829
2.20027
0.89898
0.172794
0.0197874
1.02882
18.9939
0.0101493
0.0139296
0.0122809
0.00614888
0.000899708
0.00138378
0.000897449
0.000906421
0.000970784
0.00105012
0.00117147
0.00124278
0.00128641
0.00138757
0.00151554
0.0017011
0.000453901
0.00101659
0.00151332
0.00206982
0.00275088
0.0032945
0.0039108
0.00443842
0.00475489
0.00491027
0.00506826
0.00511318
0.00513085
0.0051631
0.00509931
0.004923
0.00461402
0.0042528
0.00356041
0.00530055
9.58783e-05
0.0808587
5.36963
0.0140955
0.0124919
0.0127952
0.0129747
0.0129932
0.0130277
0.0130687
0.0130357
0.0130292
0.0130432
0.013099
0.013189
0.0133018
0.0133944
0.0135163
0.0136656
0.0137201
0.0133923
0.0116543
0.00550886
0.00227515
0.00127559
1e-15
1e-15
0.0214778
9.09856e-05
4.18295e-05
0.000155895
0.000275055
0.000699702
0.00441777
0.0918555
0.000525752
1.27421e-05
0.298704
0.31419
0.0220438
0.947856
13.5746
0.0133234
0.00651289
0.00075112
0.0011981
0.00124946
0.00173956
0.00262667
0.00251097
0.00241834
0.00230628
0.00234262
0.00201174
0.00163514
0.00164231
0.00167272
0.00173869
0.00189745
0.0020783
0.00222905
0.0022914
0.0022992
0.00228183
0.0021987
0.00208015
0.00203141
0.00201998
0.00197144
0.00191917
0.00188674
0.0018579
0.00181745
0.0018375
0.001925
0.00213736
0.00187899
0.00395413
7.50884e-05
0.0581861
3.67866
0.00793611
0.00758919
0.00711508
0.00666639
0.00623782
0.00596212
0.00582678
0.00575656
0.00574681
0.00583213
0.00598548
0.00617867
0.00642037
0.00672186
0.00708856
0.00752184
0.00814599
0.00894102
0.00972555
0.0103866
0.0104524
0.00682319
0.00154378
0.000958801
1e-15
1e-15
1e-15
1e-15
1e-15
1e-15
1e-15
1e-15
0.000120571
2.954e-06
1.54102e-07
2.67622e-06
1.51871e-05
0.000846083
0.0193844
0.00172674
0.00122361
0.0013177
0.00291819
0.00732663
0.00940052
0.00961205
0.00958706
0.00956189
0.00953525
0.00949868
0.00956878
0.00956292
0.00953889
0.00951776
0.00949168
0.00944461
0.00936464
0.00926205
0.00913466
0.0089905
0.00883708
0.00866901
0.00848919
0.00831752
0.0081498
0.00797103
0.00778623
0.00759995
0.0074087
0.0071945
0.00691251
0.00695411
0.00651074
0.00510722
0.0053098
0.000710323
0.0358141
2.15594
0.000955433
0.000316266
0.00104246
0.000948897
0.000922727
0.00095373
0.00100569
0.00104339
0.00109183
0.00114089
0.0012007
0.00126892
0.00134624
0.00147555
0.00156728
0.00163037
0.00180249
0.000250653
0.00127422
0.00259932
0.00413515
0.00548452
0.00604077
0.00499182
0.00155659
1.68566e-06
1e-15
1e-15
1e-15
1e-15
1e-15
1e-15
1e-15
1e-15
3.58284e-08
6.27556e-07
1e-15
0.000201414
0.00464502
0.00110558
0.00230158
0.00700875
0.0090032
0.00865409
0.00783772
0.00791946
0.00804554
0.00820547
0.00839477
0.00860571
0.00887004
0.00912727
0.00939562
0.00970894
0.0100165
0.0102021
0.0102898
0.0103132
0.0102819
0.0102084
0.0101017
0.00996829
0.009813
0.00964076
0.00945689
0.00926375
0.00906207
0.00885312
0.00863836
0.00835641
0.00814714
0.00805382
0.00773945
0.0070103
0.00675967
0.00268806
0.0162999
0.931501
0.000268262
0.000594178
0.00101409
0.00110171
0.00110252
0.0014009
0.00183899
0.00202684
0.00221824
0.00232406
0.002389
0.0024486
0.00249792
0.00279345
0.00274224
0.00242022
0.00243213
0.00230454
0.00216615
0.0023221
0.00288072
0.00372147
0.00475774
0.00524796
0.00665502
8.55654e-06
4.14422e-07
1e-15
1e-15
1e-15
1e-15
1e-15
1e-15
1e-15
1e-15
1e-15
1e-15
1e-15
1e-15
0.0054141
0.00875049
0.00810258
0.00525792
0.00280441
0.00172547
0.0017965
0.00192443
0.00208
0.00227302
0.00249901
0.00266459
0.00285715
0.00312438
0.00350373
0.00389506
0.00412118
0.00426238
0.00435101
0.0043847
0.00437598
0.00433575
0.00427317
0.00419873
0.00411884
0.00403489
0.00395041
0.00386727
0.00378632
0.00370605
0.00363656
0.00363102
0.003699
0.00383044
0.00392708
0.00419792
0.00363073
0.00457172
0.245696
0.00734264
0.00699881
0.00710389
0.00725148
0.0073817
0.0074305
0.00750615
0.00758606
0.00781208
0.00779576
0.00764804
0.00771042
0.00776847
0.00781813
0.00788025
0.00791882
0.00794524
0.00794393
0.00764859
0.00711369
0.0066031
0.00625813
0.00624859
0.00586401
0.00820222
2.40255e-05
1.20902e-06
1e-15
1e-15
1e-15
1e-15
1e-15
1e-15
1e-15
1e-15
1e-15
1e-15
1e-15
1e-15
0.00872139
0.00565613
0.00178084
0.000906453
0.000384352
0.000260406
0.000270763
0.000285239
0.000302533
0.000328565
0.000363245
0.000388367
0.000421944
0.000468908
0.000536651
0.000611261
0.000663903
0.000705672
0.000740902
0.00076792
0.000787795
0.000801629
0.000810732
0.000815852
0.000817598
0.000816778
0.00081451
0.000811196
0.000807085
0.000801906
0.000797899
0.000807047
0.000832067
0.000879991
0.000324135
0.000636042
0.00180494
0.000362284
0.0168727
0.00689742
0.00611535
0.00577066
0.00557065
0.00540706
0.00529783
0.00524523
0.00522234
0.00522779
0.00530473
0.00538832
0.00548968
0.00561439
0.00576588
0.00594767
0.00616312
0.0064195
0.00668266
0.00715926
0.00768028
0.00771511
0.00745678
0.00736264
0.00673713
0.0083192
5.35248e-05
2.79664e-06
1e-15
1e-15
1e-15
1e-15
1e-15
1e-15
1e-15
1e-15
1e-15
1e-15
1e-15
1e-15
0.00318033
0.00110029
0.000395059
0.000411461
2.44263e-05
0.000127041
9.63313e-05
6.68887e-05
2.6872e-05
0.00055029
7.99534e-06
0.000544696
0.000545537
0.000545676
0.00054711
0.000551137
0.000556582
0.000563411
0.00057137
0.000579839
0.000588346
0.00059663
0.000604467
0.000610941
0.000614931
0.000617151
0.000618007
0.000617418
0.000615323
0.000611784
0.00060661
0.000598956
0.000574047
0.000531985
0.000552402
0.000565039
0.000430684
0.000264277
0.00399309
0.00140701
0.00157665
0.00115307
0.000931454
0.000769696
0.000640829
0.000552234
0.000492875
0.000460042
0.000456363
0.000481992
0.000538318
0.00062578
0.000749972
0.000915521
0.00111916
0.00138035
0.00168143
0.00214048
0.00297422
0.00389369
0.00458292
0.00519738
0.00525438
0.00697412
0.000102903
5.57965e-06
1e-15
1e-15
1e-15
1e-15
1e-15
1e-15
1e-15
1e-15
1e-15
1e-15
1e-15
1e-15
0.000562041
0.000464199
0.00119553
0.00303266
0.00388276
0.00388604
0.00386469
0.00385048
0.00383411
0.00381558
0.00379269
0.00383564
0.00382708
0.0037946
0.00375148
0.0037052
0.00365813
0.00361145
0.00356557
0.0035203
0.00347522
0.00342973
0.00338327
0.0033354
0.00328586
0.00323415
0.00317983
0.00312256
0.0030621
0.00299893
0.002932
0.00285731
0.00270534
0.00247887
0.00220552
0.00186271
0.00167155
0.00114293
0.000246845
0.000342928
0.000381275
0.0003651
0.000344276
0.000354353
0.000371698
0.000382642
0.000398996
0.000416163
0.000432491
0.000453436
0.000477413
0.000505191
0.000539407
0.000579674
0.000628735
0.000689955
0.000757695
0.000883806
3.79034e-06
0.000607192
0.00133162
0.00217158
0.00263733
0.00457026
0.000165605
9.31201e-06
1e-15
1e-15
1e-15
1e-15
1e-15
1e-15
1e-15
1e-15
1e-15
1e-15
1e-15
1e-15
0.000788338
0.00267219
0.00440357
0.00437403
0.00429651
0.00429993
0.00430345
0.00432257
0.00434613
0.00437301
0.00439596
0.00441246
0.00441549
0.00440786
0.00439368
0.00437475
0.00435152
0.00432408
0.0042923
0.00425594
0.00421482
0.00416884
0.00411781
0.00406224
0.00400309
0.00394086
0.00387556
0.0038071
0.00373552
0.00366251
0.00358535
0.00351207
0.00343217
0.00329626
0.00313024
0.00294117
0.0025044
0.00217309
0.000995452
0.00138167
0.00145755
0.00155813
0.00169687
0.00188611
0.00208854
0.00226956
0.00242502
0.00255576
0.00266046
0.00274317
0.00280783
0.0028567
0.00289361
0.00291652
0.00294173
0.00296976
0.00298067
0.00316502
0.00290989
0.00241652
0.00231169
0.00243252
0.00239136
0.00362468
0.000324926
1.89358e-05
1e-15
1e-15
1e-15
1e-15
1e-15
1e-15
1e-15
1e-15
1e-15
1e-15
1e-15
1e-15
0.00371212
0.00445188
0.00329587
0.00157808
0.00111024
0.00115576
0.00119287
0.00122699
0.00126376
0.00130576
0.00134031
0.00136961
0.00139615
0.00142007
0.00144063
0.00145726
0.00146942
0.00147674
0.00147867
0.00147484
0.00146524
0.00145043
0.00143129
0.00140964
0.00138713
0.00136418
0.00134129
0.00131872
0.00129671
0.00128084
0.00125893
0.0012511
0.00129004
0.00133798
0.00144596
0.00158568
0.00162502
0.00170545
0.0014012
0.00424398
0.00396687
0.00387334
0.00386923
0.00394293
0.00400835
0.00407312
0.00412642
0.00417365
0.00421625
0.00425499
0.00429279
0.00433097
0.0043707
0.00439382
0.00445639
0.00455708
0.00458309
0.00459202
0.00454076
0.00429964
0.00395218
0.00367047
0.0032632
0.00375821
0.00074696
4.30793e-10
2.43502e-11
1e-15
1e-15
1e-15
1e-15
1e-15
1e-15
1e-15
1e-15
1e-15
1e-15
1e-15
0.00398654
0.00201548
0.000240398
0.000249616
0.000160787
0.000172358
0.000179781
0.000183119
0.000186692
0.000191714
0.000194025
0.000196043
0.0001995
0.000203306
0.000208081
0.000213959
0.0002202
0.00022682
0.000233483
0.000239842
0.000245544
0.000250605
0.000254906
0.000258237
0.000260372
0.000261753
0.000262806
0.000263561
0.000264071
0.000265481
0.000265297
0.000267771
0.000280144
0.000294521
0.000324975
8.43806e-05
0.000370354
0.000709691
0.00091443
0.00286997
0.00265344
0.0024499
0.00228176
0.00214086
0.00202399
0.00194259
0.00188404
0.00184869
0.00183538
0.00184146
0.00186688
0.00191054
0.00197209
0.00205502
0.00215505
0.00226921
0.00240132
0.00253322
0.00279364
0.00313103
0.00326643
0.00329026
0.00316087
0.00350816
0.00139982
5.75901e-09
3.37408e-10
1e-15
1e-15
1e-15
1e-15
1e-15
1e-15
1e-15
1e-15
1e-15
1e-15
1e-15
0.000939074
0.000375139
0.000122879
0.000221392
0.000241838
0.000244114
0.000242409
0.000237024
0.000232128
0.000228448
0.000222722
0.000217515
0.000214524
0.000212232
0.000211529
0.000212584
0.000214822
0.000218284
0.000222778
0.000228009
0.000233666
0.000239664
0.000245765
0.000251255
0.000255294
0.000258387
0.000260882
0.000262742
0.000263929
0.000264427
0.000264239
0.000263081
0.000257525
0.000240966
0.000214702
0.000199593
0.000230207
3.28698e-05
0.000388043
0.000257635
0.000341986
0.00010938
0.000323099
0.000296462
0.000285245
0.00027127
0.000264253
0.000260564
0.000258775
0.000261902
0.000268236
0.000277899
0.000291581
0.000309338
0.000330859
0.000355762
0.000387723
3.38415e-05
0.000175915
0.000489601
0.000939363
0.00140698
0.00171088
0.00216849
0.00161979
2.29116e-08
1.39057e-09
1e-15
1e-15
1e-15
1e-15
1e-15
1e-15
1e-15
1e-15
1e-15
1e-15
1e-15
0.000168405
0.000246743
0.000626398
0.00155338
0.00166064
0.00162975
0.00160483
0.00159111
0.00158155
0.0015739
0.00156671
0.00155898
0.00155084
0.00154245
0.00153339
0.00152399
0.0015149
0.0015064
0.00149838
0.00149063
0.0014828
0.00147449
0.00146532
0.00145488
0.00144284
0.00142898
0.0014132
0.00139549
0.00137581
0.00135428
0.00133099
0.00130456
0.00125838
0.00116134
0.00102146
0.000849226
0.000675376
0.000475015
0.000464716
0.000156423
0.000145252
0.000134775
0.000132728
0.000152667
0.000171779
0.000182368
0.000192466
0.000200323
0.000205066
0.000210089
0.000214371
0.000218079
0.000222036
0.000225861
0.000229857
0.000233807
0.000237742
0.000247251
0.000273871
0.000316079
0.000396972
0.000164009
0.00048228
0.000835481
0.00120467
5.74483e-08
3.60949e-09
1e-15
1e-15
1e-15
1e-15
1e-15
1e-15
1e-15
1e-15
1e-15
1e-15
1e-15
0.00013294
0.00138871
0.00202065
0.00209301
0.00209316
0.00206976
0.00204246
0.00202947
0.0020232
0.00201937
0.00201677
0.00201428
0.00201139
0.00200816
0.00200341
0.00199734
0.00199139
0.00198558
0.0019792
0.00197163
0.00196239
0.00195107
0.00193736
0.0019212
0.00190274
0.00188217
0.00185951
0.00183482
0.00180817
0.00177972
0.00174987
0.0017202
0.00169299
0.00164659
0.00156329
0.0014453
0.0012628
0.000964779
0.000762339
0.000820953
0.000754896
0.000842253
0.000972984
0.00110409
0.00122262
0.00131486
0.00138582
0.00144002
0.00147958
0.0015082
0.00152875
0.00154212
0.00154932
0.00155287
0.00155387
0.00155171
0.00154791
0.00154362
0.0015326
0.00143382
0.00134166
0.00111962
0.000925227
0.000879076
0.00116002
1.80972e-07
1.1763e-08
1e-15
1e-15
1e-15
1e-15
1e-15
1e-15
1e-15
1e-15
1e-15
1e-15
1e-15
0.00190931
0.00198324
0.00139278
0.00081534
0.000757606
0.000758887
0.000751292
0.000747104
0.000747111
0.000748627
0.000751152
0.000754359
0.000757807
0.000761756
0.000764483
0.000765873
0.000767673
0.000769427
0.000769953
0.000768954
0.000766316
0.000762152
0.000756607
0.00075009
0.000742964
0.000735337
0.000727234
0.000718695
0.000709771
0.000700528
0.000690995
0.000681538
0.000683001
0.000718307
0.000772939
0.000835818
0.000875684
0.00084141
0.00074351
0.00205961
0.00183222
0.00178785
0.00183349
0.00186572
0.00189039
0.00190725
0.00191514
0.00191918
0.00192124
0.00192194
0.00192289
0.00192403
0.00192488
0.00192697
0.00193073
0.00193426
0.0019378
0.00194261
0.00194755
0.00195277
0.00190841
0.001726
0.00152394
0.00130632
0.00138732
6.43565e-07
4.32467e-08
1e-15
1e-15
1e-15
1e-15
1e-15
1e-15
1e-15
1e-15
1e-15
1e-15
1e-15
0.00166765
0.000664554
7.37423e-05
0.000128164
0.000114276
0.00011754
0.000117136
0.000114617
0.000112597
0.000111171
0.000108668
0.000106413
0.000105289
0.000104545
0.000104485
0.000105358
0.000106948
0.000109325
0.000112206
0.000115417
0.00011875
0.000122185
0.000125642
0.000128725
0.000130972
0.000132766
0.000134373
0.00013578
0.000136979
0.000137965
0.000138734
0.000139357
0.000142088
0.000151886
0.000168935
7.6429e-05
0.000237509
0.000405744
0.000491331
0.00115402
0.00110076
0.000975697
0.000897346
0.000831318
0.000773219
0.000728331
0.000692024
0.000664759
0.000646088
0.000634337
0.000628881
0.000629267
0.00063464
0.000644614
0.000659272
0.000678762
0.000702862
0.00073148
0.000774036
0.00087085
0.000989875
0.00110547
0.00119772
0.00114123
0.00129329
1.83671e-06
1.27509e-07
1e-15
1e-15
1e-15
1e-15
1e-15
1e-15
1e-15
1e-15
1e-15
1e-15
1e-15
0.000215777
0.000114671
6.5766e-05
8.02281e-05
8.53696e-05
8.86185e-05
8.888e-05
8.66107e-05
8.40276e-05
8.17516e-05
7.85781e-05
7.55265e-05
7.33568e-05
7.14315e-05
7.0149e-05
6.96936e-05
6.97233e-05
7.0317e-05
7.13859e-05
7.2828e-05
7.45028e-05
7.64054e-05
7.84535e-05
8.03153e-05
8.16017e-05
8.25592e-05
8.34095e-05
8.41349e-05
8.47243e-05
8.51617e-05
8.54492e-05
8.55524e-05
8.52006e-05
7.98452e-05
6.95948e-05
7.56922e-05
8.93131e-05
0.000115375
0.000165426
1.47563e-05
5.71729e-05
0.000149437
0.000126533
0.000118635
0.000111911
0.000103791
9.85058e-05
9.45196e-05
9.1203e-05
8.97309e-05
8.92525e-05
8.97849e-05
9.15242e-05
9.41144e-05
9.77081e-05
0.000102292
0.00010784
0.000114317
0.000123253
0.000141213
0.000176901
0.000158461
0.000374412
0.000508649
0.000840896
3.97471e-06
2.84847e-07
1e-15
1e-15
1e-15
1e-15
1e-15
1e-15
1e-15
1e-15
1e-15
1e-15
1e-15
5.90425e-05
0.000146295
0.000372131
0.000543027
0.000567013
0.000573606
0.000572287
0.000568219
0.000562937
0.000557803
0.000553106
0.000548481
0.000544033
0.000539792
0.000535633
0.000531602
0.000527628
0.000523639
0.000519587
0.000515405
0.000511025
0.000506384
0.000501445
0.000496264
0.000490877
0.000485204
0.000479222
0.00047293
0.000466312
0.000459373
0.000452158
0.000444504
0.00043505
0.000401038
0.000344128
0.000288266
0.000178898
9.43523e-05
0.000151127
8.95718e-05
6.66602e-05
6.86732e-05
7.04821e-05
7.53203e-05
8.00205e-05
8.14812e-05
8.34386e-05
8.48737e-05
8.52421e-05
8.60475e-05
8.66449e-05
8.7152e-05
8.79502e-05
8.87107e-05
8.9593e-05
9.05142e-05
9.14631e-05
9.24174e-05
9.32401e-05
9.26765e-05
8.48074e-05
9.86326e-05
0.000124795
0.000157651
0.000333631
6.31315e-06
4.66785e-07
1e-15
1e-15
1e-15
1e-15
1e-15
1e-15
1e-15
1e-15
1e-15
1e-15
1e-15
0.000214406
0.000807481
0.0010084
0.00102011
0.00102348
0.00101953
0.00101371
0.00100854
0.00100367
0.00099923
0.000995494
0.000992006
0.000988574
0.000985241
0.000981871
0.000978336
0.000974627
0.000970655
0.000966297
0.000961463
0.00095605
0.000949908
0.000942859
0.000934871
0.000926059
0.000916429
0.000905944
0.000894617
0.000882473
0.000869543
0.000855886
0.000841655
0.00082901
0.000801437
0.00073728
0.000671429
0.000596398
0.000436748
0.000322816
0.000465745
0.000429821
0.000469668
0.000502322
0.000531048
0.000556943
0.000577375
0.000593229
0.000605514
0.000614424
0.000620637
0.000624718
0.000626951
0.000627673
0.000627146
0.000625545
0.000623066
0.000619921
0.000616303
0.000611739
0.000598492
0.000539968
0.000454961
0.000384996
0.000269801
0.000349792
2.33725e-05
1.8279e-06
1e-15
1e-15
1e-15
1e-15
1e-15
1e-15
1e-15
1e-15
1e-15
1e-15
1e-15
0.00103637
0.000981889
0.000636394
0.000532815
0.00051813
0.000509498
0.000506814
0.000506522
0.000507028
0.000507425
0.000507778
0.000508128
0.000508326
0.000508413
0.000508445
0.000508304
0.000507969
0.000507406
0.000506541
0.00050533
0.000503714
0.000501613
0.000498945
0.000495685
0.000491878
0.000487609
0.00048296
0.00047778
0.000472161
0.000466121
0.000459629
0.000452519
0.000448018
0.000455807
0.000471773
0.000483687
0.000492077
0.000452646
0.000370672
0.00107193
0.000983673
0.000982755
0.000980599
0.000975104
0.000969181
0.000963957
0.000957916
0.000952042
0.000946575
0.000941169
0.000936065
0.000931246
0.000926588
0.000922136
0.000917838
0.000913644
0.000909531
0.000905507
0.000901692
0.000903534
0.000883068
0.000830789
0.000756727
0.000619993
0.000574765
0.000107066
2.68622e-07
2.00213e-08
1e-15
1e-15
1e-15
1e-15
1e-15
1e-15
1e-15
1e-15
1e-15
1e-15
0.0008017
0.000261902
5.50967e-06
8.1678e-05
8.03196e-05
8.09554e-05
8.08739e-05
7.92101e-05
7.75062e-05
7.59802e-05
7.34209e-05
7.08393e-05
6.89925e-05
6.72501e-05
6.60893e-05
6.57554e-05
6.58968e-05
6.66644e-05
6.79732e-05
6.97341e-05
7.1832e-05
7.42289e-05
7.6858e-05
7.9267e-05
8.09779e-05
8.23068e-05
8.35564e-05
8.46769e-05
8.56612e-05
8.64996e-05
8.71761e-05
8.76379e-05
8.85191e-05
9.26846e-05
1.71703e-05
7.49495e-05
0.000158923
0.000235971
0.000252045
0.000583748
0.000581671
0.000539933
0.000511178
0.000486911
0.00046479
0.000447139
0.000432561
0.00042069
0.000411561
0.000404532
0.000399321
0.000395701
0.00039341
0.000392383
0.000392506
0.000393774
0.000396168
0.00039963
0.000404
0.000416056
0.000455136
0.000499303
0.000528299
0.000528089
0.000553713
0.000250867
2.54407e-06
1.95533e-07
1e-15
1e-15
1e-15
1e-15
1e-15
1e-15
1e-15
1e-15
1e-15
1e-15
6.07958e-05
4.31581e-05
2.59528e-05
3.3482e-05
3.57334e-05
3.73783e-05
3.69631e-05
3.53728e-05
3.38271e-05
3.25684e-05
3.09576e-05
2.93856e-05
2.81944e-05
2.70882e-05
2.62498e-05
2.57911e-05
2.55588e-05
2.56103e-05
2.59207e-05
2.64491e-05
2.71504e-05
2.80091e-05
2.90133e-05
2.99679e-05
3.06261e-05
3.1115e-05
3.1569e-05
3.19852e-05
3.23565e-05
3.26738e-05
3.29344e-05
3.3122e-05
3.31356e-05
3.19325e-05
3.16226e-05
3.98808e-05
4.94731e-05
1.33928e-05
9.37472e-05
8.12103e-05
8.19921e-05
8.12948e-05
7.37801e-05
7.09612e-05
6.8549e-05
6.46578e-05
6.22391e-05
6.02049e-05
5.81513e-05
5.69796e-05
5.61239e-05
5.55931e-05
5.55708e-05
5.58293e-05
5.64203e-05
5.73069e-05
5.84563e-05
5.98409e-05
6.14094e-05
6.41622e-05
7.45383e-05
3.62627e-05
0.000114882
0.000198236
0.000283181
0.000273465
1.11795e-05
8.85374e-07
1e-15
1e-15
1e-15
1e-15
1e-15
1e-15
1e-15
1e-15
1e-15
1e-15
3.08092e-05
7.92891e-05
0.000166032
0.000221173
0.000232022
0.000236899
0.000233498
0.000228379
0.000223918
0.000220635
0.000218001
0.000215623
0.000213584
0.000211771
0.000210062
0.000208504
0.000207091
0.000205748
0.000204493
0.000203289
0.000202118
0.000200926
0.000199711
0.000198489
0.000197118
0.000195501
0.000193668
0.000191666
0.000189491
0.000187143
0.000184619
0.000181851
0.000178323
0.000168566
0.000145788
0.000124087
7.73598e-05
4.37885e-05
7.92716e-05
5.78428e-05
3.63652e-05
3.82273e-05
3.65166e-05
3.76003e-05
3.8918e-05
3.85732e-05
3.8233e-05
3.75718e-05
3.65954e-05
3.60599e-05
3.56415e-05
3.53268e-05
3.52323e-05
3.51971e-05
3.52569e-05
3.53726e-05
3.55279e-05
3.571e-05
3.58889e-05
3.58947e-05
3.40263e-05
3.51702e-05
4.28286e-05
4.98945e-05
6.78672e-05
0.000110377
1.96688e-05
1.74755e-06
1e-15
1e-15
1e-15
1e-15
1e-15
1e-15
1e-15
1e-15
1e-15
1e-15
0.000164433
0.000457479
0.000554039
0.000567685
0.000573405
0.000573612
0.000566254
0.000557596
0.000550941
0.00054615
0.000542512
0.000539383
0.000536644
0.000534154
0.000531726
0.000529386
0.000527087
0.000524726
0.000522274
0.000519672
0.000516844
0.000513695
0.000510176
0.000506274
0.000501908
0.000497008
0.000491669
0.000485956
0.000479868
0.0004734
0.000466545
0.000459264
0.000451698
0.000441242
0.000418659
0.000381313
0.000322499
0.000254417
0.000200695
0.000285315
0.000259824
0.000255667
0.000255184
0.000260423
0.000266583
0.000269943
0.000269301
0.000266564
0.000263546
0.000261066
0.000259213
0.000257651
0.000256188
0.000254691
0.000253104
0.000251409
0.000249613
0.000247781
0.00024589
0.000243018
0.000228129
0.000196207
0.000163686
0.0001195
7.7139e-05
0.000113625
6.1975e-05
8.58965e-07
6.8653e-08
1e-15
1e-15
1e-15
1e-15
1e-15
1e-15
1e-15
1e-15
1e-15
0.000623057
0.000561245
0.00037858
0.000344544
0.000338486
0.000334757
0.000330503
0.000325232
0.000321388
0.000318653
0.000316683
0.000315189
0.000313852
0.000312673
0.000311602
0.000310521
0.000309409
0.000308248
0.000306944
0.0003055
0.000303847
0.000301938
0.000299739
0.000297174
0.000294346
0.000291342
0.000288164
0.000284788
0.000281236
0.000277491
0.000273584
0.000269407
0.000265832
0.000267089
0.000274214
0.000278031
0.000277968
0.000259679
0.000218186
0.000613261
0.000550895
0.000535421
0.000520234
0.000513896
0.000508972
0.000505531
0.000498616
0.000490308
0.000483928
0.000479629
0.000476512
0.000473794
0.000471088
0.000468319
0.000465452
0.000462476
0.000459388
0.000456183
0.000452933
0.000447898
0.000443904
0.000415962
0.000378277
0.000348033
0.000286625
0.000234656
0.000177144
1.33846e-05
1.16597e-06
1e-15
1e-15
1e-15
1e-15
1e-15
1e-15
1e-15
1e-15
1e-15
0.000455258
0.000145544
3.36155e-05
8.7376e-06
2.75562e-06
1.13842e-06
1.74045e-06
1.24871e-06
5.2696e-07
4.80642e-05
4.57728e-05
4.35358e-05
4.17811e-05
4.00792e-05
3.87449e-05
3.79735e-05
3.75217e-05
3.7524e-05
3.79355e-05
3.87132e-05
3.97774e-05
4.11155e-05
4.26948e-05
4.41468e-05
4.50753e-05
4.57499e-05
4.64066e-05
4.70271e-05
4.76075e-05
4.81324e-05
3.01999e-08
3.40345e-07
2.25334e-07
3.14295e-06
1.97802e-05
4.82614e-05
9.05018e-05
0.000128494
0.00013814
0.000331606
0.000310926
0.000289279
0.00027289
0.000259233
0.000250371
0.000247916
0.000244588
0.000239656
0.000237194
0.000236723
0.000236384
0.000235693
0.000234797
0.000233891
0.000233072
0.000232388
0.00023189
0.000231555
0.000231355
0.000232529
0.000241784
0.000257579
0.000269098
0.000274091
0.000269855
0.000251779
0.000232688
5.27402e-05
3.86424e-07
3.12022e-08
1e-15
1e-15
1e-15
1e-15
1e-15
1e-15
1e-15
1e-15
2.88313e-05
2.37645e-05
1.41186e-05
1.26088e-05
1.24083e-05
1.26813e-05
1.30226e-05
1.28648e-05
1.25697e-05
1.22974e-05
1.18357e-05
1.12788e-05
1.08152e-05
1.03334e-05
9.92841e-06
9.67196e-06
9.50095e-06
9.45557e-06
9.52866e-06
9.71351e-06
9.99012e-06
1.03622e-05
1.08283e-05
1.12888e-05
1.16074e-05
1.18396e-05
1.2063e-05
1.22748e-05
1.24744e-05
1.2656e-05
1.28223e-05
1.30138e-05
1.30779e-05
1.35899e-05
1.54075e-05
1.9988e-05
2.43328e-05
3.06921e-05
4.19993e-05
4.71028e-05
4.46928e-05
4.43799e-05
4.00481e-05
3.83548e-05
3.74301e-05
3.62353e-05
3.54748e-05
3.44639e-05
3.35377e-05
3.32362e-05
3.29661e-05
3.27033e-05
3.26097e-05
3.25685e-05
3.26491e-05
3.28143e-05
3.30646e-05
3.33727e-05
3.37083e-05
3.42231e-05
3.65697e-05
6.89422e-06
4.04489e-05
7.69285e-05
0.000115132
0.000140751
0.000167225
9.65367e-05
3.92133e-06
3.26104e-07
1e-15
1e-15
1e-15
1e-15
1e-15
1e-15
1e-15
1e-15
1.7605e-05
4.60609e-05
5.76333e-05
7.30318e-05
7.65047e-05
7.80339e-05
7.93928e-05
8.08345e-05
8.19358e-05
8.28659e-05
8.33707e-05
8.34443e-05
8.33582e-05
8.31336e-05
8.27907e-05
8.24344e-05
8.20762e-05
8.17277e-05
8.14038e-05
8.11139e-05
8.0861e-05
8.06276e-05
8.04569e-05
8.03508e-05
8.01869e-05
7.98721e-05
7.94434e-05
7.89147e-05
7.82894e-05
7.75651e-05
7.67423e-05
7.58038e-05
7.46048e-05
7.27777e-05
6.36189e-05
5.64519e-05
3.26413e-05
1.21739e-05
3.17879e-05
3.61198e-05
2.18967e-05
2.31614e-05
2.21532e-05
2.24216e-05
2.31e-05
2.15069e-05
2.05513e-05
2.02075e-05
1.9821e-05
1.96713e-05
1.9528e-05
1.93847e-05
1.93437e-05
1.93123e-05
1.93244e-05
1.93577e-05
1.94067e-05
1.94597e-05
1.94922e-05
1.94166e-05
1.92125e-05
1.84355e-05
2.04673e-05
2.3314e-05
2.62805e-05
2.90391e-07
4.09096e-05
6.91396e-05
1.17292e-05
1.20481e-06
1e-15
1e-15
1e-15
1e-15
1e-15
1e-15
1e-15
1e-15
9.74439e-05
0.000289381
0.000312986
0.000314156
0.000311533
0.000307555
0.000305111
0.000304294
0.000303895
0.000303519
0.000303021
0.000302287
0.000301457
0.00030057
0.000299596
0.0002986
0.000297582
0.000296509
0.000295381
0.000294172
0.000292844
0.000291345
0.000289655
0.000287776
0.000285651
0.000283223
0.000280545
0.000277649
0.000274529
0.000271178
0.000267596
0.000263771
0.000259695
0.000255658
0.000244818
0.000225795
0.000193967
0.000158403
0.000123521
0.000181012
0.000153876
0.000152486
0.000152632
0.000153314
0.000156414
0.000149136
0.000143773
0.000142763
0.000142664
0.000142831
0.000142996
0.000142973
0.000142799
0.000142477
0.000142012
0.000141408
0.000140677
0.000139876
0.000138893
0.000137302
0.000135243
0.000122346
0.000102053
8.31365e-05
6.02934e-05
4.55281e-05
4.68229e-05
6.77523e-05
3.64771e-05
1.22955e-06
1.13677e-07
1e-15
1e-15
1e-15
1e-15
1e-15
1e-15
1e-15
0.000376129
0.000319153
0.000267456
0.000254356
0.000248005
0.000242213
0.000237367
0.000234481
0.00023254
0.00023085
0.000229448
0.000228228
0.000227087
0.000226058
0.000225106
0.000224179
0.000223262
0.00022233
0.000221348
0.000220285
0.000219103
0.000217768
0.000216216
0.00021443
0.000212486
0.000210424
0.000208249
0.000205937
0.000203486
0.000200904
0.000198178
0.000195319
0.000192371
0.000191048
0.000192366
0.000192523
0.000188762
0.000175036
0.000149494
0.000370228
0.00033322
0.000322075
0.000314788
0.000308437
0.000306856
0.000298725
0.000291352
0.000290267
0.000288404
0.000286086
0.000283693
0.000281321
0.000278976
0.000276695
0.000274459
0.00027225
0.000270048
0.000267832
0.000265618
0.000261951
0.000261789
0.000249623
0.000232596
0.000215193
0.000191137
0.000159634
0.000127196
0.000113965
9.00832e-05
1.52175e-05
6.24005e-08
5.15272e-09
1e-15
1e-15
1e-15
1e-15
1e-15
1e-15
0.000261763
0.000109364
5.54813e-05
4.63335e-05
4.35173e-05
4.17351e-05
3.94087e-05
3.7388e-05
3.5853e-05
3.44795e-05
3.32221e-05
3.2129e-05
3.11717e-05
3.03336e-05
2.96185e-05
2.8979e-05
2.84121e-05
2.7896e-05
2.74306e-05
2.69977e-05
2.66184e-05
2.62833e-05
2.59968e-05
2.57519e-05
2.55367e-05
2.53752e-05
2.52402e-05
2.51059e-05
2.49674e-05
2.48188e-05
2.46493e-05
2.44549e-05
2.4022e-05
2.4301e-05
3.10478e-05
4.50052e-05
6.66033e-05
8.74214e-05
9.38709e-05
0.000191394
0.000187087
0.00017549
0.000168254
0.000162357
0.000156981
0.000157046
0.000154365
0.000150966
0.000147704
0.000144681
0.000141993
0.000139664
0.000137645
0.000135887
0.000134356
0.000133033
0.000131889
0.000130898
0.000130061
0.000129303
0.000130929
0.000138576
0.000146231
0.000151694
0.000153847
0.000150106
0.000140584
0.000126239
0.000116225
4.98764e-05
2.60522e-06
2.21659e-07
1e-15
1e-15
1e-15
1e-15
1e-15
1e-15
2.37847e-05
1.82746e-05
9.66698e-06
9.65028e-06
9.89248e-06
1.01484e-05
1.00292e-05
9.58e-06
9.11587e-06
8.68505e-06
8.1037e-06
7.50436e-06
7.00785e-06
6.52579e-06
6.11611e-06
5.82157e-06
5.59544e-06
5.46102e-06
5.41558e-06
5.45202e-06