/*--------------------------------*- C++ -*----------------------------------*\
| =========                 |                                                 |
| \\      /  F ield         | OpenFOAM: The Open Source CFD Toolbox           |
|  \\    /   O peration     | Version:  2312                                  |
|   \\  /    A nd           | Website:  www.openfoam.com                      |
|    \\/     M anipulation  |                                                 |
\*---------------------------------------------------------------------------*/
FoamFile
{
    version     2.0;
    format      ascii;
    arch        "LSB;label=32;scalar=64";
    class       volSymmTensorField;
    location    "450";
    object      turbulenceProperties:R;
}
// * * * * * * * * * * * * * * * * * * * * * * * * * * * * * * * * * * * * * //

dimensions      [0 2 -2 0 0 0 0];

internalField   nonuniform List<symmTensor> 
10720
(
(0.013845 0.00740085 -5.2904e-21 0.0076067 -1.10565e-19 0.0110777)
(0.0213289 0.012844 6.39884e-21 0.00799933 1.76646e-19 0.0150447)
(0.0295696 0.0167564 4.64533e-20 0.00615866 1.97349e-19 0.0187685)
(0.037375 0.0174821 2.4062e-19 0.00649414 1.74732e-18 0.0229698)
(0.0441254 0.0152364 -6.94395e-19 0.00998462 -2.69894e-18 0.0279464)
(0.0514123 0.0124616 -6.34546e-19 0.0144251 -1.28228e-18 0.0339269)
(0.0606627 0.0102837 1.72743e-19 0.0194437 1.48738e-20 0.0410726)
(0.0727656 0.00827611 8.18048e-20 0.0249195 1.29348e-19 0.0499026)
(0.0892792 0.00591581 1.98386e-19 0.0312698 -1.60249e-19 0.06153)
(0.112307 0.00271311 -3.02568e-20 0.0397914 -3.03564e-20 0.0775169)
(0.145457 -0.00230302 3.53242e-18 0.0522821 1.44506e-18 0.100682)
(0.196191 -0.010585 -8.7913e-19 0.0721914 -6.75166e-19 0.136529)
(0.276924 -0.0249967 1.97312e-18 0.105349 -2.96165e-18 0.194265)
(0.414861 -0.0520115 1.10825e-18 0.164829 2.40821e-18 0.294333)
(0.660074 -0.105251 2.17902e-18 0.276582 -3.86319e-18 0.475226)
(1.17398 -0.225688 9.15453e-19 0.522799 1.80406e-17 0.860245)
(2.18357 -0.489494 1.23204e-16 1.04023 6.34301e-17 1.63376)
(4.37209 -1.1144 -4.20106e-17 2.23796 6.22328e-17 3.34793)
(8.22775 -2.34436 -2.57039e-17 4.54488 -3.82884e-16 6.46689)
(13.1968 -4.14484 2.37376e-17 7.8908 -8.48593e-19 10.6697)
(19.9313 -6.8322 -5.19315e-16 12.9514 -3.815e-16 16.6284)
(31.6526 -11.7417 1.12053e-15 22.4263 1.66381e-15 27.333)
(56.664 -22.5597 -7.61574e-16 43.8599 -1.93576e-15 50.8114)
(108.208 -45.7099 9.19879e-16 91.1236 2.05137e-16 100.76)
(189.276 -83.3638 -3.01925e-16 170.606 -1.48812e-17 181.391)
(262.738 -118.704 9.18558e-17 247.576 -2.0877e-15 257.193)
(530.452 -244.499 7.3158e-16 518.47 -2.28079e-16 529.273)
(860.537 -405.335 8.57614e-16 881.278 1.53875e-15 874.191)
(586.566 -275.343 1.65408e-14 633.439 5.20504e-16 607.736)
(245.451 -95.7943 8.97517e-15 270.462 5.01911e-15 256.965)
(75.0376 -27.4904 -2.96529e-15 84.0871 -7.6509e-16 79.4019)
(9.67538 -2.88702 -5.2285e-16 10.7968 -2.70795e-16 10.2273)
(2.05073 -0.543001 -3.00607e-17 2.2832 -1.076e-16 2.16703)
(0.250213 -0.0652774 -1.87493e-17 0.278864 -2.60984e-17 0.264632)
(6.43298e-16 -1.18392e-16 2.09823e-32 6.90532e-16 7.50628e-32 6.66169e-16)
(6.55104e-16 -3.0213e-17 7.50956e-33 6.77945e-16 8.50019e-32 6.66952e-16)
(5.75185e-16 -1.86613e-16 -1.45384e-32 7.58262e-16 2.3704e-33 6.66553e-16)
(0.720306 -0.37225 -2.10896e-16 0.957937 -3.95059e-16 0.834643)
(58.4032 20.6853 7.11065e-15 39.4662 2.32309e-14 48.9008)
(0.0173226 0.00693374 2.89281e-21 0.0132917 -9.10106e-21 0.0154472)
(0.0222416 0.00927209 -2.56712e-20 0.0183061 2.71571e-20 0.0206535)
(0.0225176 0.00994005 -1.65628e-19 0.0203364 -1.18281e-19 0.021681)
(0.0173703 0.0134621 3.34506e-19 0.0168979 -4.32647e-19 0.0174453)
(0.00914847 0.00436736 -1.87434e-19 0.00958255 -7.65301e-20 0.00942925)
(0.0111623 0.00538707 -1.43089e-18 0.0118944 1.79689e-18 0.0114733)
(0.0144582 0.00681686 1.17753e-18 0.0144702 2.55654e-18 0.0140319)
(0.0179837 0.0077221 -1.552e-21 0.0148625 -5.48902e-18 0.0157144)
(0.0209742 0.00763547 2.31631e-18 0.0132781 -1.05905e-19 0.0167809)
(0.024593 0.00764035 -1.31139e-18 0.0130592 -3.88609e-19 0.0188347)
(0.0297144 0.0084929 9.08726e-19 0.014817 2.18271e-18 0.0224015)
(0.0375896 0.0105359 1.55959e-18 0.0188947 -7.45202e-19 0.0284307)
(0.0497369 0.0141512 -1.41181e-18 0.0261077 -2.77774e-19 0.0381963)
(0.0715943 0.0209809 2.69616e-19 0.0396458 4.04341e-19 0.0560362)
(0.103471 0.0317009 4.41737e-18 0.059761 6.55007e-19 0.0821791)
(0.172541 0.0555243 4.81112e-18 0.103514 -1.06446e-18 0.138935)
(0.246081 0.0919167 2.23502e-18 0.142758 3.17749e-18 0.195744)
(0.603576 0.284917 2.71635e-18 0.313608 6.70731e-18 0.462299)
(0.816503 0.327117 2.49386e-18 0.514447 -1.39799e-18 0.669238)
(1.00437 0.397823 3.57733e-18 0.671957 1.79355e-19 0.842433)
(1.28402 0.53746 -4.54581e-18 0.87951 -2.74934e-17 1.0872)
(1.9062 0.832048 -1.53558e-17 1.34949 -2.05476e-19 1.6361)
(2.64261 1.08945 1.08467e-17 2.0088 1.67907e-17 2.33656)
(3.64903 1.5093 5.22106e-18 2.91729 -7.85351e-19 3.29972)
(4.82094 2.04294 1.57784e-16 4.03946 -2.61578e-17 4.45417)
(6.03686 2.63224 -5.26782e-19 5.29139 -9.17766e-18 5.69428)
(5.38317 2.18262 2.5295e-20 4.97461 9.32296e-19 5.20278)
(3.21688 1.18751 7.64317e-20 3.10272 -2.34815e-21 3.17218)
(1.30098 0.448089 7.44084e-20 1.29639 1.00768e-21 1.30317)
(0.341839 0.113824 2.77785e-18 0.349935 -9.3414e-20 0.34699)
(0.0384168 0.012922 -1.21791e-20 0.0403338 -6.11108e-22 0.0394969)
(0.0017727 0.000628451 -1.89226e-21 0.00191197 4.74533e-21 0.00184804)
(0.000299095 0.000115623 -1.74446e-20 0.000332741 -1.908e-21 0.000316921)
(7.74522e-05 3.34096e-05 -9.04069e-21 8.93611e-05 8.71071e-22 8.36801e-05)
(5.26813e-06 2.55434e-06 6.43375e-22 6.3374e-06 4.64128e-23 5.82242e-06)
(1.23796e-06 6.72863e-07 -1.079e-24 1.55982e-06 -3.55438e-24 1.40379e-06)
(1.8812e-08 1.11351e-08 -3.22492e-26 2.48732e-08 -9.93141e-26 2.19108e-08)
(0.811991 0.513412 -4.80811e-18 1.13147 1.22976e-17 0.982159)
(62.7233 32.6953 -1.13631e-14 87.4085 -7.78301e-16 75.3424)
(0.0273678 -0.011286 -1.02177e-19 -0.000742498 -3.07602e-19 0.0111862)
(0.0278806 -0.0172353 2.18747e-19 -0.00218652 5.30209e-19 0.00976473)
(0.0198515 -0.0134774 3.13428e-21 0.0048704 3.49697e-21 0.00982847)
(0.0147811 -0.00955845 2.16407e-19 0.00842797 3.06242e-20 0.00964165)
(0.0119483 -0.00647588 1.25115e-19 0.0100861 9.13245e-19 0.00954576)
(0.0103371 -0.00492425 5.65451e-19 0.0107151 9.96571e-19 0.0092408)
(0.00928439 -0.00428994 -2.59335e-19 0.0110329 4.19971e-20 0.00883312)
(0.00842911 -0.00386483 -2.29807e-19 0.0112189 -6.25688e-20 0.00839184)
(0.00779365 -0.00347701 -1.43341e-18 0.0113867 -1.57354e-18 0.00802103)
(0.007373 -0.00312283 -5.05919e-19 0.0114807 -1.71956e-19 0.00770256)
(0.00715847 -0.00282791 -4.93865e-18 0.0115659 -4.79305e-18 0.00745994)
(0.0070566 -0.00259824 -6.42771e-20 0.0115187 8.51641e-19 0.00722324)
(0.00766698 -0.00269404 -3.12733e-18 0.0122675 7.91175e-20 0.00758983)
(0.0100037 -0.00345107 2.78001e-18 0.015251 1.64496e-18 0.00944412)
(0.016137 -0.00562082 -9.00792e-18 0.022624 -2.60487e-18 0.0143224)
(0.0329668 -0.0117618 3.72981e-17 0.0407536 8.85672e-18 0.0272882)
(0.0786668 -0.0286443 -7.09633e-17 0.0834215 -6.02148e-17 0.0616423)
(0.204186 -0.074727 -1.43334e-16 0.187485 -5.30404e-17 0.156327)
(0.526792 -0.192592 -3.24828e-16 0.435136 1.36062e-16 0.405331)
(1.24007 -0.455413 6.88031e-17 0.965723 7.63282e-20 0.973789)
(2.54807 -0.951008 5.43286e-16 1.94768 6.39959e-16 2.0561)
(4.61924 -1.76588 -8.82923e-16 3.56533 -1.62123e-15 3.8271)
(8.01084 -3.14843 7.64685e-17 6.36979 1.72528e-15 6.7781)
(12.8066 -5.12452 2.66944e-17 10.4767 -4.76884e-16 10.9306)
(38.5565 -12.7565 -0 33.169 -0 34.0462)
(60.4285 -10.4683 -3.04184e-17 58.7277 5.24098e-16 57.4489)
(177.383 -13.4224 -1.00109e-15 182.137 2.60863e-16 174.028)
(369.339 -7.80732 -1.29903e-16 370.675 -9.47416e-16 367.296)
(312.989 -4.82224 -1.19578e-14 305.573 -6.02968e-15 311.596)
(191.518 -4.73275 -6.55471e-16 179.789 -2.37635e-14 189.801)
(90.1605 -2.96806 1.02207e-15 85.5864 1.50087e-14 89.4281)
(32.2599 -1.4196 2.59034e-16 31.8861 7.11421e-15 32.3277)
(8.58188 -0.802096 -1.28778e-15 8.81253 1.32806e-15 8.73293)
(1.13483 -0.27269 4.25542e-16 1.22031 7.69854e-16 1.17687)
(0.0214043 -0.00786205 -5.80652e-19 0.0241799 -5.49443e-18 0.0226957)
(5.84564e-16 -3.01063e-16 1.48823e-31 7.40351e-16 -1.16561e-31 6.75085e-16)
(0.0125007 -0.00335392 -2.09911e-19 0.0142872 5.36342e-20 0.0137058)
(1.131 0.209246 5.81129e-16 0.698821 1.28721e-15 0.921467)
(25.2062 -2.38643 -2.75676e-14 26.6228 -3.50074e-14 26.444)
(0.0086703 -0.00161231 2.38753e-20 0.00255502 7.16922e-20 0.00526832)
(0.00443024 -0.000421039 -4.95488e-21 0.00174195 -1.43227e-19 0.00295466)
(0.00516249 -0.000141038 -1.09855e-19 0.00192492 -2.95688e-19 0.00342423)
(0.00634175 0.000481589 5.23938e-20 0.000478369 8.90691e-19 0.00325631)
(0.0104167 0.00142193 5.86899e-19 0.00424762 -5.48029e-19 0.00725148)
(0.0125179 0.00285029 -2.62486e-19 0.00603945 -1.14433e-18 0.00927943)
(0.0108209 0.00342523 8.31789e-19 0.00652483 -2.70779e-18 0.00874232)
(0.00911932 0.00357286 -2.18737e-18 0.00689429 -1.73758e-19 0.00814523)
(0.00840333 0.00385145 -1.41976e-18 0.00808522 2.9968e-18 0.00840136)
(0.00739433 0.00376892 -5.70399e-19 0.00925701 -9.23523e-20 0.00840026)
(0.00652057 0.0034076 -6.35921e-19 0.0102943 -2.01874e-18 0.00832109)
(0.00585749 0.00289751 1.37059e-19 0.0109535 -1.17561e-18 0.00814088)
(0.00531522 0.00234507 9.63013e-19 0.0111227 2.4776e-18 0.00779628)
(0.00490925 0.00186281 -1.06179e-18 0.0109939 -6.17103e-19 0.00739259)
(0.00442588 0.00143312 -6.16443e-19 0.0102558 -2.17134e-18 0.00669048)
(0.0158199 0.00444897 -1.04654e-17 0.0371065 -2.44213e-18 0.0236614)
(0.00174203 0.000443858 -2.11093e-19 0.00407543 5.24889e-21 0.00255429)
(0.0537284 0.0130869 -4.59937e-19 0.12422 -4.24551e-18 0.0768714)
(0.0813489 0.0197465 -9.92782e-18 0.185222 6.36755e-18 0.113644)
(0.0202566 0.000851098 7.69232e-19 0.0245137 -2.55623e-19 0.0215052)
(0.199823 0.00786614 -5.22853e-17 0.236612 3.33965e-17 0.20988)
(0.0140062 0.00361193 -5.15135e-18 0.0300115 1.0094e-18 0.018069)
(0.0655174 0.0166841 9.37755e-19 0.137263 -1.99582e-17 0.0818624)
(0.68515 0.00550668 3.89856e-17 0.707657 6.36463e-19 0.689419)
(0.0873016 0.00099981 -5.6526e-18 0.0907913 4.95898e-19 0.0877988)
(0.207414 0.00315167 -1.37289e-17 0.216001 2.17633e-18 0.208288)
(0.00596594 0.000136555 -4.58031e-21 0.00624891 -3.32374e-21 0.00598715)
(0.0190898 0.000585004 -6.40958e-23 0.0200527 -3.35356e-21 0.0191544)
(0.0193746 0.000723783 -6.43735e-22 0.0203395 -8.74724e-24 0.0194527)
(0.0150481 0.000801552 1.9944e-20 0.0159215 5.78174e-20 0.0151438)
(0.00877955 0.000586469 1.35235e-21 0.00931329 -2.42046e-20 0.00885954)
(0.00391633 0.000334335 1.38731e-20 0.00417908 -4.08241e-20 0.00396886)
(0.00137489 0.000151879 5.87123e-19 0.00148198 3.33377e-20 0.00140226)
(0.000356989 5.22894e-05 1.37413e-19 0.000391283 -2.28155e-20 0.000367651)
(2.42241e-05 4.77645e-06 -8.82971e-21 2.72385e-05 -1.29294e-22 2.53165e-05)
(7.35165e-07 2.00657e-07 3.01169e-22 8.60241e-07 3.83971e-23 7.85337e-07)
(5.96692e-16 2.29499e-16 -4.90647e-31 7.41345e-16 -7.05634e-32 6.61963e-16)
(0.189011 0.103143 -1.68969e-16 0.266453 -3.84006e-17 0.218902)
(15.5221 3.12962 -1.00048e-14 17.5724 -2.79982e-15 16.3539)
(0.00300871 -0.00127225 -6.43245e-21 -7.10489e-06 -2.02622e-20 0.00165418)
(0.00412595 -0.00193765 -1.84417e-19 0.00106381 -4.15038e-19 0.00283158)
(0.0030317 -0.00207745 1.28933e-19 0.00105636 2.86803e-19 0.0023097)
(0.00216551 -0.00213932 1.74408e-19 0.00125978 3.18627e-19 0.00203288)
(0.00136321 -0.00211371 3.208e-19 0.00150477 4.59345e-19 0.00180395)
(0.00062527 -0.00199083 -1.01469e-18 0.00181162 -1.729e-18 0.00164982)
(-6.62e-05 -0.00176177 7.48271e-19 0.00211064 1.4531e-18 0.00153482)
(-0.000608791 -0.00142993 1.0547e-18 0.00244208 9.45173e-19 0.00151434)
(-0.00098184 -0.000994945 -6.65168e-20 0.00278129 1.34224e-19 0.00158827)
(-0.00119369 -0.000488087 7.53647e-19 0.00304588 1.30168e-18 0.00170812)
(-0.00123559 4.97366e-05 -1.70345e-18 0.00323238 -9.41417e-20 0.00186558)
(-0.00110852 0.000586209 2.47521e-18 0.00334664 2.70714e-18 0.00206367)
(-0.000898735 0.0010739 1.21817e-18 0.00335933 5.07133e-19 0.00221915)
(-0.000667315 0.00149492 6.19479e-19 0.00327735 -5.88675e-19 0.00230198)
(0.000614155 0.00194077 1.9378e-18 0.00437862 1.90493e-18 0.00352482)
(-0.00100479 0.00145592 -3.26774e-18 0.0012171 -3.32017e-18 0.000746983)
(0.00984924 0.00532267 2.79095e-18 0.0164804 4.10689e-18 0.0151396)
(0.0251831 0.0133158 5.58813e-17 0.03904 1.60906e-17 0.0362825)
(0.0664073 0.0351503 4.34085e-17 0.097131 3.18386e-17 0.0909727)
(0.164465 0.0865899 -3.32539e-17 0.227364 -2.04583e-18 0.214517)
(0.361972 0.188058 8.31015e-17 0.468655 -1.8771e-16 0.447669)
(0.71621 0.361828 3.04387e-17 0.846119 2.67442e-16 0.831418)
(1.39669 0.660416 1.11823e-15 1.41008 -2.87043e-16 1.49503)
(2.95203 1.09336 -1.83407e-15 2.06595 -7.55153e-16 2.74919)
(6.07245 -0.341166 6.96645e-17 3.72759 5.31292e-17 5.13862)
(12.2401 -3.11121 -3.30995e-15 7.47052 8.90115e-16 10.167)
(60.3129 -7.43523 1.01232e-15 52.5989 1.32852e-16 56.8444)
(139.723 -6.22689 -3.56044e-16 135.372 1.79501e-18 137.691)
(130.018 -3.27759 -5.17975e-15 128.766 3.08459e-15 129.167)
(97.2541 -2.03323 -6.44066e-15 96.7729 2.49831e-16 96.7378)
(58.1825 -1.28831 1.21413e-14 57.8769 -3.46546e-15 57.803)
(28.5886 -0.406335 6.81438e-15 28.3472 2.84285e-15 28.3021)
(10.2971 0.074199 2.6368e-16 10.2202 1.57948e-15 10.2336)
(2.10945 0.0199678 4.2244e-16 2.0811 -2.41268e-16 2.09413)
(0.175089 -0.0145217 2.56585e-17 0.179176 -1.10804e-17 0.176965)
(0.0245398 -0.00587446 -6.42076e-18 0.027396 -5.5264e-18 0.0262118)
(0.0149425 -0.00342119 6.20445e-20 0.0158667 -1.37766e-18 0.0154639)
(1.19407 0.145313 1.33992e-17 0.81857 -3.44097e-16 0.98085)
(15.9379 -2.62253 3.54867e-14 17.7617 -9.01406e-15 17.1676)
(0.00411207 -0.00131509 -4.58305e-20 -0.000763841 -1.04627e-19 0.00186704)
(0.00381127 -0.000549324 -2.41773e-20 0.000292558 -1.27446e-20 0.00215309)
(0.0112395 -0.000309017 4.89274e-19 0.00382991 7.50187e-19 0.00769064)
(0.0147616 0.000716063 -4.03022e-19 0.00514438 -3.05234e-20 0.0100805)
(0.0125287 0.00165494 7.95716e-20 0.00462338 3.66419e-19 0.00864008)
(0.0079801 0.00192872 -9.57576e-20 0.002985 1.10319e-18 0.00549715)
(0.00426554 0.00195509 -1.0784e-19 0.00131042 7.62054e-19 0.00278745)
(0.00372909 0.00225334 2.61849e-18 0.00189687 1.69216e-18 0.00282538)
(0.00339461 0.00248587 5.04224e-19 0.00278246 -5.32994e-19 0.00310412)
(0.00306829 0.00259975 1.67135e-18 0.00377534 2.06383e-19 0.00343866)
(0.00283653 0.00259953 -1.81996e-18 0.00484206 -1.01234e-18 0.00387355)
(0.00262177 0.00248536 -1.56775e-18 0.00583247 2.35119e-18 0.00430464)
(0.00234477 0.00225747 2.47781e-18 0.00662424 -1.19661e-18 0.00463553)
(0.00210395 0.00195153 2.21581e-18 0.00732141 -1.04206e-20 0.00497704)
(0.00197415 0.0015959 -2.48219e-18 0.00802091 2.12425e-18 0.00541478)
(0.00192008 0.00118991 -2.11607e-18 0.00867586 4.74202e-18 0.00592103)
(0.00154155 0.000717679 6.95774e-18 0.00862726 -3.88044e-18 0.00593466)
(0.00122835 0.000232667 7.51541e-18 0.00850337 -1.39337e-18 0.00597982)
(0.000323111 -0.000164811 2.22982e-18 0.00505005 -2.28481e-19 0.00356492)
(0.000514009 -0.000272554 -4.85592e-19 0.00305862 1.62021e-18 0.00235761)
(0.000457857 -0.000239844 4.0752e-18 0.00171107 3.27581e-19 0.00142043)
(0.0022241 -0.00113872 5.06407e-19 0.00615321 -2.34407e-18 0.00540213)
(0.0120229 -0.00546365 -1.65434e-19 0.0242756 -5.5325e-19 0.0228804)
(0.000408195 -0.000190857 -3.03979e-20 0.000656613 -1.64238e-19 0.000680082)
(0.0156323 -0.00706092 -5.92937e-19 0.019166 3.66936e-18 0.023003)
(0.0424364 -0.0159101 2.13881e-16 0.0395694 -1.19439e-17 0.0549948)
(0.00205076 -0.000678887 -3.90907e-20 0.0015302 2.95699e-21 0.00245939)
(0.00538043 -0.00132334 -2.22643e-18 0.00360405 6.04481e-20 0.00598247)
(0.00569465 -0.0011649 -2.04608e-20 0.00363861 4.36929e-22 0.00602994)
(0.00482259 -0.00106573 -2.80348e-18 0.00284622 -9.92991e-20 0.00494751)
(0.0032652 -0.000847742 3.34937e-18 0.00183859 2.55411e-19 0.00325323)
(0.0019055 -0.000504518 -4.31508e-20 0.00117387 -1.02586e-21 0.00185428)
(0.00116414 -0.000330621 -2.84049e-18 0.000751747 1.51526e-19 0.00111163)
(0.000828969 -0.000256095 -2.98705e-21 0.000548482 1.4353e-19 0.000777551)
(0.000622219 -0.000208233 1.14993e-20 0.000418509 -1.0869e-19 0.000574674)
(0.000933282 -0.00033431 -8.44148e-20 0.000617713 7.83073e-20 0.000843887)
(7.69923e-16 -2.7833e-16 5.41303e-32 5.41594e-16 3.5352e-31 6.88483e-16)
(0.10591 -0.0291529 4.68054e-16 0.0565271 1.29689e-16 0.0885993)
(5.99059 2.14997 5.54273e-14 5.58695 1.28175e-14 5.93848)
(0.00506914 -0.0029046 -8.03693e-20 -0.00207342 -1.4028e-19 0.00135213)
(0.00475573 -0.00346722 -1.67295e-19 -0.00128597 -2.70775e-19 0.00157246)
(0.00475528 -0.00397101 3.27725e-19 0.000189788 4.73942e-19 0.00226136)
(0.00423255 -0.00435163 4.3641e-19 0.00130009 4.50921e-19 0.00250786)
(0.00365304 -0.00454301 5.19131e-20 0.0024584 -1.88718e-20 0.00274092)
(0.00299914 -0.00456914 -1.63489e-19 0.00361789 4.17576e-19 0.00292263)
(0.00204449 -0.00439728 3.60279e-18 0.00440062 3.59334e-18 0.00275934)
(0.00149919 -0.00410918 -3.5445e-18 0.00544942 -4.62183e-18 0.00291892)
(0.00133948 -0.00372865 1.00606e-18 0.00675547 2.61228e-19 0.00337344)
(0.00095498 -0.00323362 5.33012e-18 0.00757364 3.93528e-18 0.0034637)
(0.000666774 -0.00268617 4.5786e-18 0.00826217 4.59575e-18 0.00351517)
(0.000822218 -0.00213626 5.4753e-18 0.00926891 1.60602e-18 0.00391421)
(0.000660946 -0.00155302 -6.72653e-18 0.00964646 -5.06875e-18 0.00383418)
(0.000162043 -0.000967034 -4.71544e-18 0.00940054 -4.63708e-18 0.0032835)
(0.00013617 -0.000431023 5.65089e-19 0.00959199 -1.76465e-18 0.00314585)
(0.000108828 0.000132284 -1.49925e-17 0.00966886 1.05118e-18 0.00294566)
(-0.000269986 0.000800448 -4.93155e-18 0.00918572 -6.19695e-18 0.00232335)
(-0.00163592 0.00157847 -3.27455e-17 0.00738062 -2.53878e-17 0.000616154)
(-0.000715143 0.00167783 2.72479e-18 0.00476758 -3.68424e-18 0.000531207)
(-7.60611e-05 0.000928015 5.13439e-19 0.00176363 -1.22355e-18 0.000306966)
(7.7213e-17 1.2339e-15 -5.89099e-30 1.56084e-15 5.16036e-32 3.61943e-16)
(1.08625e-16 2.08095e-15 1.3526e-30 1.55641e-15 2.68583e-31 3.34967e-16)
(-2.82283e-15 3.07866e-14 -9.03885e-29 7.36363e-15 -1.72411e-29 -2.5408e-15)
(0.00329568 0.00151348 -1.49122e-18 0.00334398 1.64717e-18 0.00317228)
(0.0747542 0.0317022 9.32895e-18 0.0642883 6.15636e-19 0.0683851)
(0.000287918 5.47028e-10 1.12005e-24 0.000287917 4.49554e-25 0.000287917)
(0.000130259 -3.81411e-12 -1.83181e-27 0.000130259 1.47896e-27 0.000130259)
(0.00047829 -7.95066e-11 1.38891e-26 0.00047829 1.00775e-27 0.00047829)
(0.000832307 -4.90411e-10 8.18837e-25 0.000832307 -1.5011e-25 0.000832307)
(0.0020904 -5.42469e-09 -8.13088e-25 0.0020904 3.72946e-24 0.0020904)
(0.0130434 -3.78501e-07 -8.05803e-22 0.0130433 -4.61744e-22 0.0130434)
(0.268274 -0.000377385 1.63427e-18 0.268173 -1.46573e-18 0.268232)
(1.5988 -0.0835058 3.15869e-16 1.58382 -2.6799e-17 1.59395)
(1.48156 0.000839499 -1.32573e-16 1.45151 -7.23569e-16 1.46747)
(0.60127 -0.0075049 -2.22553e-16 0.597861 -5.92529e-17 0.59883)
(0.111563 -0.0191675 5.64252e-18 0.117978 3.22715e-17 0.116048)
(0.0141317 -0.00234953 -1.03286e-17 0.0122977 1.19055e-18 0.0131454)
(0.848849 0.0314281 -1.21449e-16 0.541839 -2.06368e-16 0.66695)
(12.1211 -2.2585 -2.06295e-14 13.0185 2.3579e-15 12.8483)
(0.0116454 -0.00266353 -5.04844e-20 0.00196278 -3.38372e-20 0.00669032)
(0.0145822 -0.00180118 1.81696e-19 0.00405643 8.6616e-19 0.0092205)
(0.0134259 -0.000648688 5.46422e-19 0.00297457 1.12937e-18 0.0081614)
(0.00854761 0.000443967 5.5744e-19 -0.000341519 -2.7873e-19 0.00409166)
(0.00454155 0.0013914 -1.07835e-18 -0.00334721 -8.52864e-19 0.000605085)
(0.00442376 0.00235385 -1.67531e-19 -0.00258083 -1.34354e-18 0.000924621)
(0.00339515 0.00318102 -1.99161e-18 -0.00219813 -1.79548e-18 0.000597877)
(0.00237252 0.00351391 -2.7694e-18 -0.0011696 -6.20283e-20 0.000609924)
(0.00144834 0.00371816 -7.15418e-19 -0.000167792 -4.76563e-19 0.00066102)
(0.000566925 0.00363124 1.05339e-18 0.000814301 -7.0894e-19 0.000719016)
(-0.000151912 0.00338692 1.02969e-18 0.00169712 2.36267e-18 0.000797738)
(-0.000646054 0.00283285 2.28602e-18 0.00229767 -8.88341e-19 0.000833936)
(-0.000889866 0.00220555 -1.98429e-18 0.00261658 -1.97165e-18 0.000846105)
(-0.000988792 0.00171745 -2.84598e-19 0.0028704 7.9129e-19 0.000893528)
(-0.000970587 0.00131086 2.16968e-18 0.00304661 -5.00046e-19 0.000955054)
(-0.000888451 0.000999078 4.91682e-18 0.00323847 -4.23304e-19 0.00105217)
(-0.000177165 0.000176666 -8.45063e-19 0.000808699 -1.80973e-19 0.000276268)
(-0.00026731 0.000254709 -4.88845e-19 0.00168921 -7.05318e-19 0.000611278)
(-0.000226281 0.000230105 -3.23587e-19 0.00235067 1.84239e-19 0.000902257)
(-0.000105149 0.000162012 5.29912e-18 0.00301552 -1.92746e-18 0.00122927)
(8.62282e-05 5.37296e-05 1.11992e-18 0.00378588 -1.53989e-18 0.00162964)
(0.000338472 -0.000110751 -7.83903e-18 0.00429892 2.10135e-18 0.00195162)
(0.000670746 -0.000331792 -3.24187e-19 0.00483022 1.11017e-18 0.00232064)
(0.00109344 -0.000580745 -1.36675e-19 0.00514307 -7.77353e-19 0.00264033)
(0.00154148 -0.000745535 1.06186e-19 0.00514556 -8.82447e-21 0.00282275)
(0.0019195 -0.000790053 -8.09706e-18 0.00501349 -8.99789e-19 0.00288755)
(0.00224341 -0.000783437 -8.70177e-20 0.00494253 1.48234e-20 0.00295058)
(0.00247196 -0.000733271 1.72368e-18 0.00479894 -1.57255e-20 0.00295546)
(0.00264947 -0.000663201 -6.90922e-20 0.00465953 -1.21873e-21 0.00295271)
(0.00280103 -0.000585686 1.84815e-20 0.00456095 -1.38634e-19 0.00296421)
(0.00288022 -0.000509031 -4.73661e-18 0.0043841 4.67493e-20 0.00293431)
(0.00287814 -0.000449667 -1.08774e-19 0.0041179 -6.68688e-21 0.00284998)
(0.00278577 -0.000421919 8.67289e-20 0.00374546 -3.34969e-19 0.00269682)
(0.00265754 -0.000449465 1.14446e-17 0.00333213 1.54853e-18 0.00251594)
(0.00231367 -0.000488298 7.62749e-20 0.00266778 8.11749e-21 0.00213936)
(0.00364747 -0.00111033 -2.34003e-17 0.00372662 -2.74718e-18 0.00322701)
(7.08058e-05 -2.86702e-05 1.60367e-18 6.13985e-05 2.29073e-19 5.95524e-05)
(0.0641323 -0.0231155 8.96628e-18 0.0456985 -3.76637e-17 0.0518866)
(4.93209 1.03802 1.75493e-15 2.36015 -9.74955e-15 3.44703)
(0.0155855 -0.00514137 -2.15088e-19 0.00313784 -3.00091e-19 0.00946766)
(0.0133957 -0.00601002 -3.95328e-19 0.00315785 -5.33235e-19 0.00843016)
(0.0123605 -0.00694468 1.36599e-18 0.00458397 1.73262e-18 0.00864606)
(0.0110237 -0.0076415 -5.91982e-18 0.00612309 -7.83042e-18 0.00880266)
(0.00943022 -0.00801309 1.50811e-18 0.00769949 2.20484e-18 0.00885678)
(0.00772472 -0.00809077 3.40792e-18 0.00940632 3.50258e-18 0.0089243)
(0.00599999 -0.00779798 -3.08373e-18 0.0111223 -4.85937e-18 0.00901523)
(0.00429919 -0.00713113 -2.03533e-18 0.012703 3.27409e-19 0.00906916)
(0.00275421 -0.00611341 -1.38345e-17 0.0141515 -1.2895e-17 0.00915264)
(0.001447 -0.00478551 -2.20602e-18 0.0153661 -5.5346e-18 0.00927342)
(0.000454742 -0.00319688 4.27568e-19 0.0163038 -1.3884e-18 0.0094395)
(-0.000172613 -0.00141225 -8.79813e-18 0.0169006 -1.09255e-17 0.00964992)
(-0.000400576 0.000482126 4.5741e-18 0.0171081 5.37436e-18 0.00989612)
(-0.000241753 0.00238284 -2.01465e-17 0.0168934 -1.0358e-17 0.0101373)
(0.000312676 0.00420507 4.63535e-18 0.0163207 2.58119e-18 0.0103992)
(0.00120493 0.00586144 2.22388e-17 0.0154656 1.83509e-17 0.0106606)
(0.00222667 0.00724884 -3.25899e-17 0.0144272 -9.11084e-18 0.0107862)
(0.00311496 0.0083767 -6.50407e-18 0.013073 2.91824e-17 0.0105967)
(0.00320313 0.00924113 -2.41225e-18 0.0106946 -4.01823e-18 0.00941098)
(0.000892015 0.00857592 -2.67146e-17 0.00508462 -3.97588e-18 0.00504109)
(0.00096838 0.0032805 1.11956e-17 0.00159585 6.84119e-18 0.00198607)
(0.000824986 0.00170279 1.97251e-19 0.000658205 -3.11285e-19 0.00106799)
(8.42144e-16 1.30268e-15 3.92218e-30 3.43228e-16 1.08138e-30 8.14628e-16)
(1.067e-15 1.60736e-15 3.8281e-30 1.15124e-16 1.23912e-30 8.17879e-16)
(0.0161858 0.00631582 -1.70832e-18 0.0121028 -1.43555e-19 0.0146671)
(6.06572e-05 3.50931e-10 9.72311e-27 6.0657e-05 -1.91664e-26 6.06571e-05)
(2.78863e-05 2.8952e-16 1.18609e-31 2.78863e-05 -3.10974e-32 2.78863e-05)
(0.00010393 1.17517e-15 -4.79264e-31 0.00010393 -6.92924e-31 0.00010393)
(0.00018337 -8.52721e-16 -3.21992e-29 0.00018337 -6.29429e-31 0.00018337)
(0.000466468 -6.58599e-14 2.7058e-29 0.000466468 1.5948e-30 0.000466468)
(0.00294518 -3.39282e-12 -1.45722e-27 0.00294518 4.99441e-28 0.00294518)
(0.061237 -9.59234e-10 -4.81983e-24 0.061237 -3.67455e-24 0.061237)
(0.000350513 -1.77466e-07 -7.32688e-23 0.000350487 -2.65559e-22 0.000350503)
(8.49471e-06 -6.28856e-12 -8.29712e-26 8.49471e-06 5.9707e-27 8.49471e-06)
(0.200431 -0.00842133 3.16296e-17 0.198102 1.02024e-16 0.198875)
(0.212401 -0.0233422 -5.74408e-20 0.203577 9.60981e-21 0.212402)
(0.0172252 -0.00168228 8.62782e-19 0.0122281 5.93986e-18 0.0146342)
(0.767224 -0.0604588 -8.50976e-18 0.52072 1.43252e-16 0.607767)
(8.09201 -2.24624 1.88145e-14 10.1066 3.48968e-14 8.95058)
(0.0159106 -0.00397068 3.95819e-19 0.00177773 2.08614e-19 0.00895845)
(0.0114491 -0.00252471 -1.05859e-18 -0.00280458 -1.59842e-18 0.00438128)
(0.00382803 -0.000476368 -2.93618e-19 -0.00284413 4.74184e-19 0.000518342)
(0.00607271 0.000381439 2.08832e-18 -0.00449048 1.27777e-18 0.000813981)
(0.00591398 0.00157927 -7.52168e-19 -0.00425848 -3.95225e-18 0.000843428)
(0.00717555 0.00361988 -1.97271e-18 -0.00485209 1.70564e-18 0.00115567)
(0.00707335 0.00535848 5.64643e-18 -0.00356348 4.33725e-18 0.00174347)
(0.0055772 0.00658898 -2.17319e-18 -0.00223112 -5.24643e-18 0.00167585)
(0.00380293 0.00735467 -5.25929e-18 -0.000587386 -2.20384e-18 0.00162113)
(0.00186769 0.00654338 -3.7199e-18 0.00119516 1.47224e-18 0.0015497)
(0.000547292 0.00577363 4.32133e-18 0.00256416 2.16187e-20 0.00157379)
(-0.000282718 0.00406524 -2.2436e-18 0.00295487 -1.81139e-18 0.00135133)
(-0.000556886 0.00258055 -2.10074e-18 0.00272662 1.59311e-18 0.00110055)
(-0.00067062 0.00193644 2.0018e-18 0.00284524 7.68949e-19 0.00111001)
(-0.000644228 0.00141524 -3.09454e-18 0.00285299 5.63805e-19 0.00113667)
(-0.000537249 0.00101342 -6.74068e-19 0.0028255 -2.06046e-18 0.00118913)
(-0.000395238 0.00072783 8.78978e-19 0.00288397 1.12393e-18 0.00130617)
(-0.000213008 0.000490928 -3.89235e-18 0.00293021 2.48804e-19 0.00143939)
(-6.37373e-06 0.00028511 1.60413e-18 0.00291302 -5.73287e-20 0.00155146)
(0.000192199 0.000106828 -6.27507e-18 0.00278916 5.28574e-19 0.00160144)
(0.000363747 -4.02977e-05 -7.30431e-19 0.00262271 2.01768e-19 0.00161194)
(0.000511793 -0.00016455 4.85469e-18 0.00244819 2.69248e-19 0.00160368)
(0.000632479 -0.000266514 4.35316e-18 0.00221773 -9.15224e-19 0.0015472)
(0.000741573 -0.0003394 -3.46552e-18 0.00195209 2.6798e-19 0.00146663)
(0.000875431 -0.000382252 -4.31965e-20 0.00175142 2.13006e-20 0.00143597)
(0.00101163 -0.000391161 -3.13923e-18 0.00159758 7.01397e-19 0.00143074)
(0.00110582 -0.000369962 -4.11158e-20 0.00143446 8.03189e-22 0.0014026)
(0.00117324 -0.000337519 -8.30674e-23 0.00129097 -4.34746e-21 0.00137414)
(0.00123341 -0.000302642 2.33497e-21 0.00117961 -1.83199e-22 0.00136045)
(0.00128054 -0.000264892 1.04011e-18 0.0010862 3.87941e-20 0.00134907)
(0.00130294 -0.000225509 1.36353e-21 0.00100589 -7.77608e-20 0.00132607)
(0.00135355 -0.000194578 -3.05056e-20 0.00097858 -4.60583e-21 0.00134287)
(0.00144359 -0.000169603 -6.65469e-18 0.00100088 -7.38684e-19 0.00140554)
(0.00162112 -0.000153436 -6.77403e-18 0.0010986 -5.28341e-19 0.00155501)
(0.00143395 -0.000107776 2.01908e-20 0.000964546 5.92282e-21 0.0013595)
(0.00304472 -0.000215052 -2.12453e-17 0.00203086 -2.97502e-18 0.00283268)
(5.87928e-05 -3.90572e-06 1.06018e-20 3.78739e-05 -8.55319e-20 5.351e-05)
(0.0506428 -0.00561523 1.14537e-18 0.0241218 3.19846e-19 0.0416075)
(3.40107 0.623362 -5.66957e-14 1.49156 -6.7295e-15 2.46468)
(0.014043 -0.00725398 7.56137e-19 -0.00341729 8.35146e-19 0.00524654)
(0.0125126 -0.00861661 -5.61835e-19 -0.00235389 -5.94875e-19 0.00501963)
(0.0105747 -0.00998168 -5.79654e-21 -0.00102113 -5.33774e-20 0.00467662)
(0.00834196 -0.0110207 -2.68013e-19 0.000627829 2.26916e-19 0.00436299)
(0.00594061 -0.011694 7.49635e-18 0.00247675 7.77287e-18 0.00405829)
(0.00345709 -0.0119291 -4.89716e-18 0.00462864 -6.05838e-18 0.00383851)
(0.00105057 -0.0116907 -3.49818e-19 0.00689046 1.49235e-18 0.00371252)
(-0.00121137 -0.0110152 1.78433e-17 0.00910525 1.68607e-17 0.00361924)
(-0.00326524 -0.00993661 -4.18166e-18 0.0112106 3.50742e-19 0.00354822)
(-0.00499909 -0.00852575 -2.2291e-17 0.0131337 -1.48006e-17 0.00352962)
(-0.00638584 -0.00684832 7.37268e-18 0.0148208 6.09652e-18 0.00353598)
(-0.00741884 -0.00496914 -2.10227e-17 0.0162309 -6.721e-18 0.00354532)
(-0.00807944 -0.00296665 -8.45516e-18 0.0173588 -3.16884e-18 0.00356138)
(-0.00836811 -0.000899725 -1.5665e-17 0.0182305 8.57442e-18 0.00358134)
(-0.00830076 0.00118892 1.48338e-18 0.0188725 8.22078e-19 0.00360539)
(-0.00790212 0.00325748 1.42569e-17 0.0193179 3.14356e-18 0.00362794)
(-0.00695214 0.00529604 2.2216e-17 0.019466 3.22328e-17 0.00377815)
(-0.00493244 0.00699874 8.87526e-17 0.0186261 2.38741e-17 0.0041884)
(-0.00248442 0.00838176 -3.74912e-17 0.0172346 -1.47532e-18 0.0047009)
(0.00022836 0.00926469 3.54609e-17 0.0152981 1.55009e-17 0.00524669)
(0.00288347 0.00917779 5.12342e-18 0.0124754 -1.53558e-17 0.00554595)
(0.00341229 0.00560296 -3.37742e-18 0.00644331 6.12394e-18 0.00379077)
(0.0010639 0.0011245 -4.28546e-18 0.00113136 -2.45019e-18 0.000892288)
(0.000794242 0.000589748 1.03744e-19 0.000554326 -1.23635e-19 0.000569035)
(9.35124e-16 5.68375e-16 2.14001e-31 4.63294e-16 -4.5818e-32 6.01582e-16)
(6.66668e-16 1.88572e-21 4.66645e-36 6.66666e-16 -1.39712e-36 6.66666e-16)
(6.66667e-16 8.68804e-27 -7.76495e-42 6.66667e-16 -2.75735e-42 6.66667e-16)
(6.66667e-16 8.4862e-27 -7.36683e-42 6.66667e-16 -3.9503e-43 6.66667e-16)
(6.66667e-16 1.22335e-26 6.72461e-41 6.66667e-16 2.91899e-41 6.66667e-16)
(6.66667e-16 2.05676e-26 -2.51801e-41 6.66667e-16 -1.03147e-40 6.66667e-16)
(6.66667e-16 2.2541e-26 -8.50384e-40 6.66667e-16 3.30306e-40 6.66667e-16)