/*--------------------------------*- C++ -*----------------------------------*\
| =========                 |                                                 |
| \\      /  F ield         | OpenFOAM: The Open Source CFD Toolbox           |
|  \\    /   O peration     | Version:  2312                                  |
|   \\  /    A nd           | Website:  www.openfoam.com                      |
|    \\/     M anipulation  |                                                 |
\*---------------------------------------------------------------------------*/
FoamFile
{
    version     2.0;
    format      ascii;
    arch        "LSB;label=32;scalar=64";
    class       volScalarField;
    location    "450";
    object      turbulenceProperties:L;
}
// * * * * * * * * * * * * * * * * * * * * * * * * * * * * * * * * * * * * * //

dimensions      [0 1 0 0 0 0 0];

internalField   nonuniform List<scalar> 
10720
(
0.00636622
0.00532428
0.00491323
0.00509892
0.0058347
0.00680136
0.00784823
0.00894712
0.00998504
0.0109705
0.0119907
0.0132108
0.0148078
0.0170865
0.0199393
0.0230955
0.0245262
0.0228794
0.0174648
0.016322
0.0194062
0.026827
0.0402202
0.0610549
0.0844458
0.104948
0.280078
0.273177
0.0916896
0.0505046
0.0271155
0.0083715
0.00370028
0.00146751
8.53192e-11
1.09613e-10
1.71404e-10
0.0129837
0.197475
0.011909
0.0258359
0.0353017
0.00613302
0.0137907
0.012168
0.0108974
0.0100016
0.00933894
0.00913659
0.0091839
0.00949159
0.0101226
0.011235
0.0116047
0.0112664
0.0082518
0.00652925
0.00573606
0.0058813
0.0066551
0.00830482
0.00995324
0.0113132
0.0120705
0.0121082
0.0100936
0.00694926
0.00406577
0.00200056
0.000676717
0.00015383
6.95126e-05
4.0028e-05
1.19857e-05
6.71386e-06
9.49617e-07
0.0069602
0.0674835
0.0129048
0.0109841
0.0133218
0.0164277
0.0214498
0.0281658
0.0354742
0.0428677
0.0498957
0.0564316
0.0627811
0.0685805
0.0771371
0.0936873
0.12408
0.180642
0.275739
0.465094
0.511754
0.216532
0.116244
0.0941091
0.0896785
0.0847629
0.109769
0.101496
0.147632
0.112988
0.106629
0.188999
0.168506
0.069911
0.0352205
0.0128931
0.00148852
2.46752e-10
0.00157062
0.0239807
0.179531
0.0216372
0.103725
0.134981
0.0170172
0.0485404
0.0656386
0.0656952
0.0655671
0.068285
0.069768
0.0717577
0.0743095
0.0774561
0.0820009
0.0880846
0.20032
0.0935976
1.06876
142.644
0.00490302
0.0148855
0.283818
0.129357
0.00611331
0.00278883
0.00474747
0.000995574
0.00198186
0.00196298
0.00193056
0.00143239
0.000949092
0.000568957
0.000302225
8.36233e-05
1.58351e-05
4.59219e-10
0.0104153
0.0806494
0.0234975
0.0281988
0.0257024
0.0241167
0.0224938
0.0210644
0.0195777
0.0187126
0.0185501
0.0187087
0.0191518
0.0198618
0.0203661
0.0205305
0.026602
0.00877764
0.0567339
0.0869358
0.13185
0.222526
1.15348
0.197189
0.198241
0.194983
0.186012
0.223861
0.180677
0.10806
0.0711829
0.0678644
0.0822568
0.0794601
0.0354687
0.0120889
0.0031943
0.00138083
0.0015701
0.022574
0.245968
0.0208086
0.0290272
0.0511493
0.0522697
0.0492158
0.0402286
0.0291185
0.0294393
0.0306771
0.0318415
0.0331126
0.0340629
0.0344007
0.0346227
0.0350305
0.0354548
0.0341931
0.0329448
0.0241906
0.0191346
0.0144168
0.0272744
0.0543856
0.00893633
0.0560639
0.0885293
0.0176505
0.0243977
0.0219215
0.0199518
0.0159572
0.00981677
0.00661119
0.00505416
0.00417348
0.00518262
2.69429e-09
0.178555
0.441963
0.0209508
0.0225972
0.0272001
0.0287548
0.0302742
0.0314946
0.0309633
0.0320758
0.0345593
0.0352634
0.0357803
0.0377436
0.0376508
0.0355648
0.0352193
0.0345591
0.0319924
0.0236701
0.0197173
0.012694
3.74288e-09
4.07571e-09
5.09242e-09
0.196302
6.40436
1.63035e-08
4.95292e-10
1.46401e-09
4.89028e-09
2.90527e-08
7.997e-07
0.000192723
0.0206531
0.0227276
0.0130362
0.00653127
0.0029373
0.0278397
0.358526
0.0438788
0.0555269
0.0521488
0.0368285
0.0140925
0.0174131
0.0139797
0.0139942
0.0144146
0.014908
0.0156386
0.015975
0.016093
0.0165201
0.0170362
0.0177786
0.00902905
0.0132576
0.0158329
0.0180842
0.0204061
0.0218954
0.0234001
0.0244386
0.0247532
0.0245545
0.0243423
0.0238435
0.0232786
0.0228023
0.0222698
0.0215599
0.0205606
0.0194578
0.0175511
0.0212353
0.00303291
0.120731
4.0533
0.056087
0.0527774
0.0532685
0.0534478
0.0533405
0.0531124
0.0529046
0.052528
0.0521672
0.0518151
0.0515129
0.0512385
0.050963
0.0505934
0.0502088
0.0497825
0.0490969
0.0476677
0.0436185
0.0293472
0.0184056
0.0136904
3.7083e-09
4.01454e-09
0.579698
1.53098e-08
2.46702e-14
1.10481e-13
4.08146e-13
2.25898e-12
2.53828e-11
1.17341e-09
2.3442e-06
6.14582e-10
0.0196765
0.020775
0.00447201
0.0320767
0.284311
0.0540206
0.0376881
0.0126963
0.0161751
0.0164995
0.0193883
0.0236846
0.0229878
0.0223751
0.0216554
0.0216113
0.0198118
0.0176519
0.0174639
0.0173785
0.0174466
0.0179187
0.0184041
0.0186678
0.018582
0.0183327
0.0180235
0.017481
0.0168195
0.0164578
0.0162466
0.0159082
0.0155992
0.0154305
0.0153063
0.015167
0.015327
0.0158177
0.0168894
0.0160967
0.0238708
0.00339867
0.0986132
11.0902
0.0424705
0.0414437
0.0397889
0.0382619
0.0367509
0.0357241
0.03515
0.0347646
0.034542
0.0345767
0.0347743
0.0350377
0.0353777
0.035807
0.0363157
0.0368766
0.0377594
0.0388597
0.0397297
0.0401378
0.039243
0.0308275
0.014361
0.0114241
3.73887e-09
5.35581e-14
2.65879e-19
2.736e-19
4.61442e-19
1.11315e-18
3.44931e-18
1.38735e-17
2.39224e-11
1.4402e-11
7.91995e-12
2.62175e-10
9.86213e-09
2.51572e-07
8.361e-06
0.0197814
0.0162645
0.0169989
0.0252356
0.0398171
0.044914
0.0451949
0.0448523
0.0444485
0.0439911
0.0434668
0.0431476
0.0426217
0.0420206
0.0413893
0.0407036
0.039923
0.0390181
0.0380535
0.0372134
0.0364568
0.0357542
0.0350663
0.0343932
0.0337339
0.0330818
0.0324885
0.0319541
0.0315161
0.0312145
0.0309643
0.0306315
0.0310371
0.0303786
0.0271875
0.0279832
0.0102487
0.0709317
0.931592
0.0148052
0.00846381
0.0152379
0.0144488
0.0141753
0.0143685
0.0147072
0.0149211
0.0151877
0.0154289
0.0157097
0.016009
0.0163254
0.016898
0.0171908
0.0172747
0.0178618
0.00653853
0.0144385
0.0201293
0.0247069
0.0276898
0.0283964
0.0253031
0.0140978
3.30266e-09
6.02242e-19
3.65585e-19
4.19779e-19
7.38886e-19
1.73485e-18
4.87449e-18
1.36692e-17
3.45338e-17
3.31088e-13
4.32966e-12
8.12447e-16
8.70356e-10
2.04435e-08
0.0156511
0.0223902
0.0394385
0.0444335
0.0434615
0.0412646
0.0413185
0.0413976
0.0414875
0.041592
0.0416969
0.041881
0.0419963
0.042078
0.0421917
0.0422113
0.0418909
0.0412923
0.0406615
0.0400753
0.0395124
0.0389509
0.0383773
0.0377739
0.0371097
0.0364444
0.0358731
0.0353585
0.0349331
0.0346323
0.0343157
0.0342617
0.0345355
0.0344365
0.0333721
0.0334151
0.0213614
0.0521147
0.450248
0.00787043
0.0116231
0.0151315
0.0156998
0.015676
0.0176467
0.0201679
0.0210953
0.021957
0.0223287
0.0224642
0.0225432
0.0225453
0.0235758
0.0230596
0.0213447
0.0210398
0.0200977
0.0190709
0.0192544
0.0208482
0.0231298
0.0255688
0.0262758
0.0290714
1.55497e-08
2.84933e-14
5.64122e-19
4.68381e-19
6.23273e-19
1.15207e-18
2.54639e-18
5.52502e-18
1.00853e-17
1.56768e-17
3.25227e-17
8.79687e-17
1.99963e-16
7.65909e-16
0.0347175
0.0444425
0.0426705
0.0343075
0.0250758
0.0196514
0.0199832
0.0205646
0.0212274
0.0220106
0.0228697
0.0233803
0.0239474
0.0247424
0.0258544
0.026858
0.0271721
0.0271395
0.0270453
0.0268589
0.0265992
0.0262792
0.0259086
0.0254763
0.0250166
0.0245902
0.0242224
0.0239083
0.0236727
0.0235144
0.0234616
0.0236934
0.0242341
0.0250841
0.0258864
0.0273601
0.0259571
0.0295636
0.222399
0.0411924
0.0401945
0.0404316
0.0407799
0.0411574
0.041262
0.041377
0.0414434
0.0418419
0.0415364
0.0408464
0.0406838
0.040469
0.0401744
0.0398382
0.0393642
0.0387819
0.0380539
0.0365346
0.034348
0.0323276
0.0307739
0.0300584
0.0284875
0.0330637
5.82136e-08
1.15784e-13
9.58266e-19
5.97542e-19
6.17483e-19
9.17229e-19
1.66662e-18
3.05445e-18
4.96878e-18
7.17002e-18
1.21769e-17
2.6272e-17
5.27711e-17
1.47561e-16
0.0447782
0.036259
0.0202279
0.0144823
0.00945061
0.00777381
0.00790194
0.00806943
0.00825876
0.00854452
0.00890887
0.00912459
0.00941066
0.00980412
0.0103517
0.0108874
0.0111647
0.0113416
0.0114903
0.0115943
0.0116589
0.0116871
0.0116753
0.0116199
0.011544
0.011471
0.0114135
0.0113731
0.0113603
0.0113725
0.0114259
0.0116081
0.0119357
0.0124735
0.00770939
0.0110333
0.0189771
0.00872668
0.0593649
0.0404024
0.0381202
0.0369841
0.0363767
0.0358756
0.0354991
0.0352576
0.0350705
0.034942
0.0350202
0.0350871
0.0351727
0.0352833
0.0354062
0.0355316
0.0356612
0.0358038
0.0358469
0.0362991
0.0367972
0.0361574
0.0348127
0.0338482
0.031675
0.0345002
2.01504e-07
4.28671e-13
1.74584e-18
8.42844e-19
6.92039e-19
8.38569e-19
1.27862e-18
2.04544e-18
3.05633e-18
4.19888e-18
6.33069e-18
1.18767e-17
2.15375e-17
4.32841e-17
0.0275907
0.0161794
0.00970719
0.00995966
0.00243134
0.00554348
0.00481712
0.00399886
0.00252155
0.0113361
0.00135545
0.0110834
0.0109755
0.0108483
0.0107216
0.0106076
0.0105075
0.0104552
0.0104378
0.0104414
0.010456
0.0104718
0.0104695
0.0104467
0.0104159
0.010386
0.0103664
0.0103553
0.0103586
0.0103745
0.0104036
0.0104367
0.010337
0.0100999
0.0104675
0.0108001
0.00961746
0.00775749
0.0298164
0.0186517
0.0197477
0.0169045
0.0152328
0.0138685
0.0126601
0.0117414
0.0110711
0.0106664
0.0105836
0.010823
0.0113661
0.0121594
0.0131817
0.0143888
0.0156833
0.0171334
0.0185579
0.0205352
0.0238009
0.0267599
0.0284893
0.0297446
0.0292728
0.03302
6.68674e-07
1.50896e-12
3.36637e-18
1.29129e-18
8.58506e-19
8.60138e-19
1.11418e-18
1.57791e-18
2.18799e-18
2.89756e-18
4.07121e-18
6.93951e-18
1.16012e-17
1.89142e-17
0.0118029
0.0107007
0.0173208
0.0277308
0.0314491
0.0314862
0.0313701
0.0312217
0.0310089
0.030735
0.0303956
0.0302809
0.0299301
0.0294561
0.0289191
0.0283762
0.0279144
0.0275159
0.0271639
0.0268422
0.0265364
0.0262164
0.0258715
0.0255315
0.0252213
0.0249424
0.0247011
0.0244867
0.0243117
0.0241663
0.0240586
0.023958
0.0235561
0.0228484
0.0218802
0.0204712
0.0197407
0.0167963
0.0076827
0.00942029
0.00992444
0.00974437
0.0094917
0.00964986
0.00989366
0.0100365
0.0102381
0.010434
0.0105994
0.0107977
0.0110058
0.0112288
0.0114856
0.0117598
0.0120736
0.0124486
0.0128418
0.0136701
0.000882792
0.0110096
0.0160577
0.0201588
0.0217806
0.0280776
2.09421e-06
4.9766e-12
6.81764e-18
2.12098e-18
1.16145e-18
9.74989e-19
1.08373e-18
1.36871e-18
1.76671e-18
2.22949e-18
2.98885e-18
4.72913e-18
7.37164e-18
1.05129e-17
0.014247
0.0264158
0.0341907
0.0342023
0.0339758
0.0340185
0.0339946
0.0339583
0.0338759
0.0337511
0.0335635
0.0333168
0.0329909
0.0326088
0.0322205
0.0318845
0.0315844
0.0313068
0.031039
0.030767
0.0304752
0.0301532
0.0298163
0.0294932
0.0292007
0.0289363
0.0287003
0.0284844
0.0283059
0.0281581
0.0280453
0.0279829
0.0279243
0.0276906
0.0273506
0.0269394
0.0252565
0.0241628
0.0160258
0.0192753
0.0197756
0.0205253
0.0214872
0.0227068
0.0239273
0.0249511
0.0257718
0.0263959
0.0268206
0.0270766
0.0271967
0.0272006
0.0271047
0.0268983
0.0266829
0.026511
0.0262755
0.0267689
0.0253828
0.0228879
0.0221328
0.0223907
0.0218174
0.0263342
7.47484e-06
1.85754e-11
1.44365e-17
3.70339e-18
1.69534e-18
1.20769e-18
1.16312e-18
1.317e-18
1.58281e-18
1.91511e-18
2.44055e-18
3.57833e-18
5.19742e-18
6.79473e-18
0.0316406
0.0350729
0.0302354
0.0209584
0.0176214
0.0179887
0.0182412
0.0184272
0.0185993
0.0187797
0.0188857
0.0189427
0.0189709
0.0189979
0.019023
0.0190367
0.0190329
0.0190072
0.0189515
0.0188567
0.0187232
0.0185638
0.0183897
0.0182172
0.0180603
0.0179159
0.0177874
0.0176736
0.0175875
0.017567
0.0175284
0.0176077
0.018035
0.0185646
0.0195361
0.0207565
0.0213169
0.0223831
0.0198125
0.0343571
0.0331976
0.0329279
0.0330309
0.0334378
0.0337803
0.0340853
0.0342937
0.0344146
0.0344559
0.0344317
0.0343699
0.0342856
0.0341981
0.0340371
0.0340387
0.0341923
0.034039
0.0337942
0.0333409
0.0321813
0.0305587
0.0290827
0.0269768
0.028395
2.98185e-05
2.38048e-13
4.97389e-15
6.83558e-18
2.64931e-18
1.6203e-18
1.36489e-18
1.39236e-18
1.55808e-18
1.80805e-18
2.18927e-18
2.96442e-18
4.70093e-18
5.89821e-18
0.0335606
0.0240742
0.00829414
0.00846475
0.0068132
0.00706381
0.007208
0.0072555
0.00729844
0.00736183
0.0073719
0.00737838
0.00741403
0.00745778
0.00752038
0.00760275
0.00769085
0.00778493
0.00787624
0.00795992
0.00803497
0.00810224
0.00815992
0.00820719
0.00824306
0.00827268
0.00830318
0.0083343
0.00837201
0.00843687
0.0084843
0.00858647
0.00885436
0.00916911
0.00974018
0.00502956
0.0106786
0.0151202
0.016738
0.0288543
0.0278255
0.0268644
0.0260386
0.0252973
0.024652
0.0241819
0.0238086
0.0235428
0.0233896
0.0233422
0.0234135
0.0236035
0.0238962
0.0242916
0.0247715
0.0253216
0.0259339
0.0264932
0.0276701
0.0291196
0.0295017
0.0292709
0.0282476
0.0292012
0.000110836
2.40419e-12
4.25645e-14
1.32878e-17
4.40728e-18
2.33812e-18
1.73778e-18
1.60489e-18
1.67307e-18
1.85638e-18
2.14507e-18
3.42331e-18
3.99847e-17
6.94111e-16
0.0166672
0.0105735
0.00604576
0.00815187
0.00855089
0.008609
0.00858071
0.00847688
0.00837572
0.00829263
0.00816997
0.00805613
0.00798421
0.0079265
0.00789933
0.00790456
0.00793121
0.00798059
0.00804855
0.00812859
0.00821568
0.00830925
0.00840556
0.00849521
0.00856736
0.00862921
0.008687
0.00873929
0.00879017
0.00884289
0.00889123
0.00893661
0.00891252
0.00870366
0.0083039
0.00810773
0.00882054
0.00340347
0.0114248
0.00889209
0.0102987
0.00585319
0.010101
0.00970024
0.00953301
0.00930152
0.00916968
0.00908734
0.00903679
0.00907284
0.00916733
0.00932121
0.0095373
0.00980574
0.0101211
0.010476
0.0109091
0.00321154
0.00729566
0.0121277
0.0167091
0.020273
0.0220699
0.0244364
0.000333219
1.36425e-11
2.06764e-13
2.71431e-17
7.77408e-18
3.60877e-18
2.38492e-18
2.00359e-18
1.94775e-18
2.0614e-18
2.31657e-18
2.65276e-16
4.45004e-11
1.59165e-09
0.00724544
0.00878517
0.0140227
0.0222082
0.0230356
0.0228449
0.0226645
0.0225536
0.0224694
0.022396
0.0223247
0.0222509
0.0221765
0.0221018
0.022022
0.0219379
0.0218538
0.0217716
0.0216908
0.0216101
0.0215304
0.0214522
0.0213741
0.021299
0.0212306
0.0211621
0.0210924
0.0210183
0.0209494
0.0208948
0.0208371
0.0207821
0.0205754
0.0199531
0.01891
0.0174551
0.0157687
0.0134894
0.0130886
0.00712167
0.00688396
0.00665658
0.00662903
0.00712423
0.00756367
0.00779093
0.00799468
0.0081484
0.0082414
0.00834292
0.00843242
0.00851257
0.00859388
0.0086639
0.00873414
0.00880488
0.00886977
0.00902789
0.00948242
0.0101708
0.011368
0.00726878
0.0123531
0.0160534
0.000818356
6.34388e-11
8.2995e-13
5.81894e-17
1.45012e-17
5.93301e-18
3.50914e-18
2.69292e-18
2.44458e-18
2.46496e-18
6.42668e-18
1.18341e-11
1.68814e-09
3.38133e-09
0.00659406
0.0213722
0.0258544
0.026414
0.0264587
0.026319
0.0261429
0.0260612
0.0260253
0.0260032
0.0259876
0.0259733
0.0259575
0.0259395
0.0259099
0.0258688
0.0258264
0.0257837
0.0257362
0.0256802
0.0256155
0.0255431
0.0254614
0.0253755
0.0252936
0.0252115
0.0251286
0.025043
0.0249652
0.0249077
0.0248553
0.0248309
0.0248341
0.0247197
0.0243343
0.023679
0.0224198
0.0199707
0.0174925
0.0166218
0.0159542
0.0169195
0.0182547
0.0194889
0.0205297
0.0212996
0.0218766
0.0223252
0.0226697
0.0229333
0.0231355
0.0232813
0.0233663
0.0234002
0.0234099
0.0234062
0.0233827
0.0233374
0.0232413
0.0224807
0.0217295
0.0197963
0.0178946
0.0172908
0.00225848
3.42041e-10
3.88993e-12
1.30845e-16
2.85557e-17
1.03582e-17
5.51203e-18
3.87659e-18
3.28969e-18
3.15807e-18
5.39047e-18
1.66665e-12
1.45902e-09
1.20098e-09
0.0254249
0.0260725
0.0219128
0.016805
0.0162201
0.0162478
0.0161812
0.0161547
0.0161739
0.0162062
0.0162466
0.0162933
0.016342
0.0163952
0.016434
0.0164569
0.0164838
0.0165108
0.0165252
0.0165239
0.0165068
0.0164769
0.0164356
0.0163897
0.0163478
0.0163083
0.0162711
0.0162362
0.016209
0.0161981
0.0161997
0.0162171
0.0163708
0.0169451
0.0177559
0.0186793
0.0193624
0.0193217
0.0179646
0.0266704
0.0251773
0.0249937
0.0254246
0.0257198
0.0259448
0.0261161
0.0262355
0.0263434
0.0264437
0.0265272
0.0266027
0.026671
0.0267199
0.026753
0.0267967
0.0268573
0.0269164
0.0269674
0.027022
0.0270988
0.0268089
0.025473
0.0238602
0.0219692
0.00633473
2.031e-09
2.01988e-11
3.08551e-16
5.92889e-17
1.91581e-17
9.21056e-18
5.95053e-18
4.7224e-18
4.30902e-18
5.82136e-18
3.73934e-13
1.12674e-11
2.78231e-09
0.0241142
0.0153608
0.00512833
0.00677452
0.00640804
0.00651078
0.00651279
0.0064564
0.00641242
0.00638283
0.00632
0.00626261
0.0062373
0.00622248
0.00622737
0.00625964
0.00631308
0.00638977
0.00648094
0.00658108
0.00668448
0.00679123
0.00689902
0.00699815
0.00707845
0.00714987
0.00721966
0.00728801
0.00735622
0.00742796
0.00750384
0.00758354
0.00772492
0.00806317
0.00859086
0.00584531
0.0104346
0.0138721
0.0151473
0.0202073
0.0197732
0.0187225
0.0180471
0.0174344
0.0168741
0.0164395
0.0160884
0.0158327
0.0156681
0.0155741
0.0155479
0.0155889
0.0156838
0.0158242
0.0160233
0.0162933
0.0166173
0.0169812
0.0175007
0.0186147
0.0198862
0.0210271
0.0218592
0.0212714
0.0124905
1.12157e-08
9.80324e-11
7.62915e-16
1.29676e-16
3.74661e-17
1.63243e-17
9.70209e-18
7.19829e-18
6.22976e-18
7.07297e-18
1.09752e-13
4.99473e-09
3.38948e-09
0.0088119
0.00648683
0.00491855
0.00544405
0.00562909
0.00575009
0.00577431
0.00571604
0.00564499
0.00558103
0.00548316
0.00538621
0.00531809
0.005257
0.00521819
0.00520942
0.00521874
0.00524943
0.00529808
0.00536061
0.00543194
0.0055123
0.00559858
0.00567961
0.00574345
0.00579847
0.00585243
0.00590528
0.00595739
0.00601117
0.00606789
0.00612382
0.00616748
0.00602943
0.00568834
0.00600185
0.00660317
0.00763004
0.00909384
0.00231722
0.00457418
0.00743928
0.00688372
0.00669542
0.00653303
0.00632113
0.00618543
0.00608402
0.0059979
0.00596683
0.00596612
0.00599863
0.00606979
0.00616574
0.00629494
0.00645987
0.00665351
0.00686825
0.00715129
0.00768322
0.0086262
0.00817876
0.0125751
0.014639
0.01511
5.60548e-08
4.32435e-10
1.97738e-15
2.9847e-16
7.73306e-17
3.06047e-17
1.67442e-17
1.1604e-17
9.4999e-18
9.56466e-18
3.99927e-14
1.30786e-09
2.09593e-09
0.00468922
0.00744602
0.0118814
0.0143863
0.0147404
0.014867
0.0148921
0.0148827
0.014856
0.0148282
0.0148038
0.0147787
0.0147543
0.0147312
0.0147074
0.0146838
0.01466
0.0146357
0.0146101
0.0145824
0.0145526
0.0145219
0.0144903
0.0144597
0.0144342
0.0144107
0.014388
0.0143669
0.0143482
0.0143373
0.0143385
0.0143434
0.0143265
0.0138955
0.0130113
0.0120506
0.00961743
0.00709907
0.0089693
0.00580049
0.005019
0.00512426
0.00522221
0.00542583
0.00562047
0.0056981
0.00578971
0.00586056
0.00589202
0.00593608
0.00597245
0.00600687
0.00605126
0.00609262
0.00614002
0.00619435
0.00625085
0.00630427
0.00635416
0.00636304
0.00611109
0.00660866
0.00744459
0.0083694
0.0113717
2.49661e-07
1.70667e-09
5.37077e-15
7.22268e-16
1.68165e-16
6.05402e-17
3.04909e-17
1.97081e-17
1.52157e-17
1.39626e-17
1.70709e-14
4.64629e-10
3.06131e-09
0.00909246
0.0177749
0.0198692
0.0200328
0.0201174
0.0201268
0.0201201
0.0201248
0.0201344
0.0201482
0.0201693
0.020193
0.0202168
0.0202407
0.0202626
0.0202809
0.0202959
0.0203071
0.020313
0.0203127
0.0203072
0.0202982
0.0202856
0.0202708
0.0202595
0.0202493
0.0202373
0.0202252
0.0202136
0.020208
0.0202152
0.0202329
0.0202825
0.0201534
0.0195457
0.0188791
0.0180301
0.0156794
0.0134932
0.0134431
0.0129458
0.0136118
0.0141654
0.0146417
0.0150658
0.0154035
0.0156681
0.0158796
0.0160434
0.0161701
0.0162721
0.0163567
0.0164238
0.0164713
0.0165088
0.0165477
0.0165795
0.0165953
0.0166001
0.0165014
0.0157468
0.0145053
0.0133753
0.0112121
0.012533
1.76743e-06
1.08777e-08
1.52799e-14
1.83543e-15
3.84703e-16
1.26075e-16
5.84182e-17
3.51374e-17
2.54994e-17
2.16447e-17
8.25446e-15
4.66405e-11
1.02774e-09
0.0203172
0.0199063
0.0160336
0.0147037
0.0145295
0.0144344
0.014427
0.0144605
0.0145097
0.0145597
0.0146112
0.0146641
0.0147154
0.0147651
0.0148132
0.0148576
0.014898
0.0149342
0.0149648
0.0149893
0.0150084
0.0150241
0.0150369
0.0150479
0.0150607
0.0150749
0.0150895
0.015103
0.0151167
0.0151333
0.0151569
0.0151856
0.0152688
0.0155693
0.0160212
0.0164224
0.0167878
0.0163587
0.014851
0.0207032
0.0198666
0.019977
0.0200854
0.0201331
0.0201581
0.020177
0.0201766
0.0201758
0.0201803
0.0201877
0.020205
0.0202344
0.0202684
0.0203008
0.0203382
0.0203902
0.0204443
0.0204875
0.0205356
0.020669
0.0205404
0.0200053
0.0191511
0.017372
0.0166672
1.44914e-05
1.40296e-08
2.03703e-10
4.89392e-15
9.24689e-16
2.75795e-16
1.17469e-16
6.55802e-17
4.45827e-17
3.52132e-17
4.42014e-15
8.21039e-12
2.06521e-10
0.01813
0.010432
0.00151411
0.00584023
0.00579991
0.00583086
0.00583919
0.0057939
0.00574866
0.00571052
0.00563317
0.00555323
0.00550031
0.00545007
0.00542194
0.00542684
0.00545095
0.0055007
0.00557234
0.00566197
0.00576513
0.00588128
0.00600845
0.00612964
0.00622814
0.0063162
0.00640466
0.00649211
0.0065782
0.00666336
0.00674931
0.0068353
0.00694445
0.0071859
0.00312915
0.00661918
0.00976964
0.0120916
0.012558
0.0154834
0.0154757
0.0150049
0.0146971
0.0144157
0.0141404
0.0139173
0.0137321
0.0135875
0.0134876
0.0134232
0.0133925
0.0133929
0.0134169
0.01346
0.0135248
0.0136177
0.0137314
0.0138565
0.0140001
0.0142913
0.0150334
0.0158191
0.0163298
0.0163704
0.0167757
8.82912e-05
1.51784e-07
1.98563e-09
1.36877e-14
2.33252e-15
6.33018e-16
2.47416e-16
1.27835e-16
8.11216e-17
5.96947e-17
2.59269e-15
1.74193e-12
4.30799e-11
0.00505795
0.00429257
0.00333095
0.00378815
0.00391742
0.00401154
0.00399736
0.00392167
0.00384803
0.00378973
0.00370932
0.0036284
0.00356827
0.00351126
0.00346961
0.0034518
0.00344861
0.00346437
0.00349758
0.00354547
0.00360522
0.00367639
0.00375859
0.00383946
0.00390407
0.00396069
0.0040173
0.00407401
0.00413027
0.00418571
0.00424149
0.00429744
0.00434669
0.00431628
0.00434655
0.00494252
0.00557986
0.00294776
0.00784654
0.00584546
0.00588111
0.00589545
0.00565402
0.00557205
0.00549833
0.00535956
0.00527741
0.00521079
0.00514289
0.00511359
0.00509908
0.00510023
0.00512481
0.00516163
0.00521484
0.00528494
0.0053678
0.00545885
0.00555917
0.00571827
0.00620199
0.00434811
0.00777009
0.0102383
0.0122616
0.000376423
1.16897e-06
1.37957e-08
4.01182e-14
6.1718e-15
1.52238e-15
5.45197e-16
2.59986e-16
1.53373e-16
1.05054e-16
1.67639e-15
4.26766e-13
1.2251e-09
0.00364501
0.00589282
0.00853086
0.00985385
0.0101012
0.0102215
0.0101727
0.0100945
0.0100347
0.0100032
0.00998769
0.00997757
0.00997375
0.00997327
0.00997306
0.00997465
0.00997871
0.00998403
0.00999139
0.0100004
0.0100118
0.0100267
0.0100467
0.0100726
0.0101018
0.0101309
0.0101586
0.0101866
0.0102142
0.0102412
0.01027
0.0103001
0.0103172
0.0101496
0.00955357
0.00892533
0.00714303
0.0054546
0.00738968
0.00499139
0.00396414
0.004093
0.00402747
0.00410723
0.00419661
0.00419542
0.00419464
0.00417732
0.00414281
0.00413302
0.00413005
0.00413327
0.00414914
0.00416804
0.00419357
0.00422512
0.0042598
0.00429441
0.0043297
0.00435906
0.00427286
0.00436868
0.00484224
0.00524434
0.00613131
0.000949217
5.94977e-06
6.62275e-08
1.23115e-13
1.7113e-14
3.83503e-15
1.25593e-15
5.51086e-16
3.01185e-16
1.91565e-16
1.23248e-15
1.2292e-13
1.25648e-10
0.00852459
0.0143308
0.0157729
0.0159745
0.0160704
0.0161034
0.0160484
0.0159889
0.0159657
0.0159739
0.016001
0.0160344
0.0160703
0.016106
0.0161384
0.0161689
0.0161986
0.0162272
0.0162552
0.0162827
0.0163104
0.0163404
0.0163743
0.0164122
0.0164529
0.0164941
0.0165343
0.0165751
0.0166164
0.0166568
0.0166999
0.016747
0.0168032
0.0168092
0.0165761
0.0160215
0.0149346
0.0134595
0.0120433
0.0112202
0.0107296
0.0107212
0.0107858
0.0109543
0.0111371
0.011261
0.0113025
0.0113033
0.0112997
0.0113074
0.0113281
0.0113546
0.0113822
0.0114081
0.0114353
0.0114675
0.0114994
0.0115259
0.011552
0.0115653
0.0112865
0.0105317
0.0096663
0.00829045
0.00667873
0.0031014
4.22307e-05
1.65909e-07
3.27628e-09
4.96759e-14
1.01057e-14
3.0228e-15
1.21709e-15
6.14097e-16
3.61755e-16
1.08621e-15
4.38593e-14
2.01496e-11
0.0168061
0.0160733
0.0132011
0.0126005
0.0125057
0.0124671
0.0124334
0.0123913
0.0123819
0.0123971
0.0124282
0.0124667
0.0125048
0.0125422
0.0125778
0.0126103
0.0126409
0.0126707
0.0126987
0.0127258
0.0127523
0.0127795
0.0128087
0.0128378
0.0128685
0.0129018
0.0129356
0.0129701
0.0130061
0.0130422
0.0130818
0.0131232
0.0131912
0.013387
0.0137358
0.0140102
0.0142002
0.0139244
0.0128654
0.0166617
0.0158308
0.015725
0.0156147
0.015611
0.0156215
0.0156529
0.0156294
0.0155857
0.0155728
0.015592
0.0156288
0.0156703
0.0157101
0.0157484
0.0157911
0.0158431
0.0158974
0.0159442
0.0159908
0.0160185
0.0160687
0.015658
0.0150116
0.0144589
0.0131601
0.0088736
0.000293511
2.44464e-06
4.53182e-08
1.50739e-13
2.78315e-14
7.59105e-15
2.79987e-15
1.3e-15
7.07346e-16
1.18803e-15
2.02341e-14
4.30303e-12
0.0145587
0.00829339
0.00398631
0.002034
0.00114432
0.000737742
0.000916126
0.000780075
0.00050968
0.00489713
0.00480812
0.00471671
0.00464626
0.00457417
0.00451901
0.00449415
0.00448717
0.0045073
0.00455268
0.00462109
0.00470808
0.00481352
0.00493592
0.0050538
0.00514475
0.00522428
0.00530528
0.00538727
0.00547057
0.00555396
0.00014056
0.000477091
0.000392883
0.00148597
0.00377591
0.00597581
0.00829635
0.0100291
0.0104885
0.0124187
0.0120576
0.0117225
0.0114762
0.0112587
0.011132
0.0111426
0.0111312
0.0110831
0.0110919
0.0111468
0.0112042
0.0112522
0.011294
0.0113359
0.0113851
0.0114466
0.0115167
0.0115881
0.0116629
0.011781
0.0121087
0.0125858
0.0129385
0.0131176
0.0130582
0.0118194
0.00135121
1.88739e-05
9.13654e-08
2.66707e-09
7.99795e-14
1.98687e-14
6.69942e-15
2.85593e-15
1.43155e-15
1.5818e-15
1.21094e-14
1.20229e-12
0.00371498
0.0033985
0.00262098
0.00248003
0.00246592
0.00250174
0.00254743
0.00254656
0.00253291
0.00252155
0.00248976
0.00244551
0.0024086
0.00236706
0.00233188
0.00231252
0.00230262
0.00230783
0.00232783
0.00236207
0.00240825
0.00246704
0.00253832
0.00261018
0.00266692
0.00271517
0.00276362
0.00281229
0.00286153
0.00291053
0.00296034
0.00301576
0.00305993
0.00315968
0.00340854
0.00393451
0.00440199
0.00501632
0.00592323
0.00474658
0.00463656
0.00465922
0.00446442
0.0044004
0.0043756
0.00433203
0.00431192
0.0042757
0.00424377
0.00425083
0.00425971
0.00426851
0.00428778
0.00431072
0.00434391
0.00438641
0.00443663
0.00449006
0.00454528
0.00461538
0.00480997
0.00210379
0.00512723
0.00710588
0.00872448
0.00954752
0.00378954
0.000102852
1.06137e-06
2.84373e-08
2.39202e-13
5.40857e-14
1.66521e-14
6.50266e-15
2.99605e-15
2.44867e-15
9.27911e-15
4.33512e-13
0.00294513
0.00480278
0.0053784
0.00606506
0.00622452
0.00631101
0.00639887
0.00649644
0.00658372
0.00666589
0.00673119
0.00677727
0.00681433
0.00684322
0.00686476
0.00688394
0.00690225
0.00692105
0.00694168
0.00696521
0.00699258
0.0070243
0.0070634
0.00710979
0.00715728
0.00720112
0.00724215
0.00728162
0.00732075
0.00735871
0.00739709
0.0074348
0.00746581
0.00747082
0.00707829
0.00675919
0.00521295
0.003231
0.00527438
0.00421698
0.00329302
0.00341743
0.0033737
0.00342024
0.00349563
0.00339477
0.0033388
0.00333115
0.00332
0.00332887
0.00333852
0.00334789
0.00336565
0.00338437
0.00340852
0.00343732
0.00346917
0.00350093
0.00353043
0.00355145
0.00356219
0.00351583
0.00372849
0.00400043
0.0042642
0.000448711
0.00387228
0.000354509
6.95344e-06
1.87336e-07
7.43122e-13
1.52768e-13
4.29035e-14
1.53214e-14
6.47714e-15
4.22543e-15
8.97643e-15
2.00093e-13
0.00703409
0.0122313
0.0127409
0.0127917
0.0127759
0.0127465
0.012765
0.01283
0.0129096
0.0129922
0.0130717
0.0131418
0.0132046
0.0132613
0.0133114
0.0133578
0.0134023
0.0134455
0.0134888
0.0135326
0.0135775
0.0136246
0.0136757
0.0137304
0.0137855
0.0138383
0.0138887
0.0139388
0.0139907
0.014043
0.0140987
0.014157
0.0142194
0.0142962
0.0141796
0.0138077
0.0129826
0.0119099
0.010633
0.00958262
0.00886295
0.00890864
0.00900265
0.0090958
0.00925323
0.00909557
0.00898647
0.00901127
0.00906692
0.0091339
0.00920311
0.0092666
0.00932418
0.00937692
0.00942871
0.00948288
0.00953712
0.00958753
0.00962951
0.00965145
0.00966007
0.00925905
0.00851307
0.0077266
0.00660843
0.00576212
0.00543868
0.00132554
4.80058e-05
6.72783e-07
2.55071e-08
4.46812e-13
1.14323e-13
3.72847e-14
1.44397e-14
7.88755e-15
1.0647e-14
1.16331e-13
0.0140416
0.0130623
0.0119794
0.0117087
0.0115965
0.0115086
0.011457
0.0114629
0.0114963
0.0115374
0.0115847
0.0116323
0.011677
0.0117201
0.011761
0.0117997
0.0118372
0.0118739
0.0119099
0.0119453
0.0119803
0.012016
0.0120528
0.01209
0.0121282
0.0121673
0.0122065
0.012246
0.0122879
0.0123316
0.0123792
0.0124306
0.0124881
0.0126123
0.0128293
0.0130161
0.0130766
0.0127853
0.0119542
0.0139221
0.0132529
0.0131645
0.0131523
0.0131277
0.0131905
0.0131038
0.0130245
0.0130846
0.0131307
0.013171
0.013213
0.0132556
0.0132962
0.0133368
0.0133822
0.0134368
0.0134976
0.0135566
0.0136119
0.0136293
0.0137429
0.0135254
0.0131459
0.0127182
0.0120417
0.0110491
0.00974867
0.0047765
0.000300495
8.70824e-06
6.29451e-08
3.06607e-09
3.14432e-13
9.35405e-14
3.31482e-14
1.56126e-14
1.48539e-14
8.33727e-14
0.0119144
0.00778175
0.005552
0.0050846
0.00494218
0.00486044
0.00475022
0.00465852
0.00459528
0.00454017
0.00448969
0.00444631
0.0044085
0.00437582
0.00434915
0.00432589
0.00430655
0.00429005
0.00427687
0.00426605
0.00425983
0.00425837
0.00426301
0.00427351
0.00428847
0.00430969
0.00433472
0.00436172
0.00439107
0.00442204
0.00445457
0.00448823
0.00450324
0.00459035
0.00526038
0.00642372
0.00792938
0.00922453
0.0096761
0.0101792
0.010101
0.00988958
0.00978929
0.00969826
0.00960846
0.00967853
0.00965966
0.00961699
0.0095793
0.00955125
0.00953576
0.00953143
0.00953485
0.00954505
0.00956458
0.00959678
0.00963981
0.00968829
0.00974021
0.00979416
0.00994199
0.0103101
0.0106657
0.0109287
0.0110602
0.0109724
0.0106284
0.00839164
0.00130348
5.97973e-05
1.39982e-06
6.27436e-08
8.91343e-13
2.41574e-13
7.82314e-14
3.23626e-14
2.34193e-14
7.25959e-14
0.00365695
0.00323968
0.00235934
0.00236177
0.00239795
0.00243909
0.00243899
0.00240055
0.0023594
0.0023209
0.00225921
0.00219006
0.00213098
0.00206969
0.00201582
0.00197801
0.00194999
0.00193691
0.00193927
0.0019564
0.00198674
0.00203132
0.00209068
0.00215293
0.00220045
0.0022408
0.00228293
0.00232691
0.00237294
0.0024202
0.00246877
0.00251851
0.00256188
0.00262291
0.00281579
0.00324525
0.00365664
0.00431051
0.00491268
0.00393496
0.00392715
0.00397264
0.00384437
0.00382276
0.00380579
0.00378779
0.00376327
0.00372745
0.00367669
0.00364842
0.00362508
0.00360837
0.00360588
0.00360856
0.0036203
0.00364053
0.00366812
0.00369972
0.00373323
0.00376498
0.00382593
0.00399974
0.00155774
0.00426145
0.00602991
0.00735852
0.00818623
0.00824322
0.00357379
0.000281768
1.14087e-05
5.22746e-07
2.60208e-12
6.41844e-13
1.89638e-13
6.97036e-14
4.0446e-14
7.58334e-14
0.00262602
0.00379468
0.00184558
0.00299065
0.00332669