/*--------------------------------*- C++ -*----------------------------------*\
| =========                 |                                                 |
| \\      /  F ield         | OpenFOAM: The Open Source CFD Toolbox           |
|  \\    /   O peration     | Version:  2312                                  |
|   \\  /    A nd           | Website:  www.openfoam.com                      |
|    \\/     M anipulation  |                                                 |
\*---------------------------------------------------------------------------*/
FoamFile
{
    version     2.0;
    format      ascii;
    arch        "LSB;label=32;scalar=64";
    class       volScalarField;
    location    "450";
    object      turbulenceProperties:epsilon;
}
// * * * * * * * * * * * * * * * * * * * * * * * * * * * * * * * * * * * * * //

dimensions      [0 2 -3 0 0 0 0];

internalField   nonuniform List<scalar> 
10720
(
0.0535389
0.101989
0.150427
0.196881
0.234038
0.269156
0.312253
0.368154
0.45204
0.582656
0.789835
1.13305
1.71746
2.77823
4.88794
10.2852
25.359
79.7902
280.714
636.984
1042.91
1590.73
2689.07
4946.48
8663.32
11770.3
13004.7
28454.4
49509.5
24715.7
7892.67
1180.4
260.237
27.993
5.99025e-14
4.64045e-14
2.93152e-14
17.8237
523.097
0.0482246
0.0340451
0.0269796
0.111396
0.0199071
0.0306346
0.0474694
0.0621571
0.0717165
0.0853638
0.109539
0.151452
0.221023
0.353765
0.608615
1.3785
3.14672
14.4161
28.6503
39.486
51.1626
75.6851
107.82
159.135
233.83
336.971
353.286
244.467
110.073
30.744
3.49074
0.155419
0.0244234
0.00575397
0.00035265
7.45215e-05
1.02779e-06
41.7679
2914.64
0.0330995
0.035315
0.028006
0.021056
0.0151997
0.0108749
0.00815063
0.00636313
0.0052235
0.00445517
0.00392076
0.00351017
0.00343912
0.004008
0.00572627
0.0103242
0.022296
0.0506717
0.18149
1.52114
8.38132
25.6987
63.0497
137.162
575.72
1343.36
4849.72
18945.5
15456
4085.52
1488.74
787.417
220.284
29.9098
0.696341
2.00582e-14
0.301404
11.0555
224.086
0.00568736
0.000488353
0.000463841
0.00345309
0.00388301
0.00411061
0.0037262
0.00332709
0.00334077
0.00330167
0.00322634
0.00308139
0.0028296
0.00251902
0.00206068
0.00614685
0.000475441
0.00699208
9.54832e-05
0.202164
2.02787
0.00316662
0.0682018
28.553
2.8561
6.14389
0.143299
0.412603
0.425932
0.297985
0.179462
0.081111
0.0283817
0.00716569
0.000467384
1.34767e-05
1.03152e-14
3.08895
250.475
0.000785427
0.00148005
0.00115666
0.00097138
0.000824742
0.000720526
0.000635427
0.000601322
0.000617521
0.000659668
0.000728128
0.000825261
0.000913193
0.000974153
0.00171671
0.000196647
0.00864736
0.0212923
0.0565738
0.123264
0.0727907
1.09112
2.61467
6.44963
18.0328
42.3815
711.168
4508.81
6236.29
4244.31
1619.1
575.357
279.305
75.7137
7.04182
0.919114
0.3683
13.3289
85.6867
0.0010515
0.000990543
0.00389994
0.00577131
0.00488951
0.00305025
0.00152596
0.00153319
0.00169328
0.0019023
0.0021784
0.00245795
0.00267975
0.0029002
0.0031724
0.00347822
0.00347198
0.00347279
0.00202934
0.00138652
0.000866551
0.00344531
0.0153781
0.000473838
0.0143999
0.0332762
0.00154516
0.00436001
0.00504649
0.00412623
0.00278136
0.00205079
0.00146382
0.0011499
0.000903774
0.00131375
9.28577e-16
0.0409232
9.63616
0.000794962
0.000920482
0.00130661
0.00145664
0.00159828
0.0017187
0.00165686
0.0017753
0.00206455
0.00216355
0.00225392
0.00255114
0.00259484
0.00237834
0.0024095
0.00241255
0.00216365
0.00124512
0.000914336
0.000407662
3.88277e-16
2.74909e-16
2.03694e-17
0.000287637
0.000856961
90.4567
906.087
2156.81
1482.21
993.061
562.312
217.589
29.3647
23.5963
10.7438
1.80708
0.15571
6.15921
37.9388
0.00382894
0.00486502
0.0042883
0.00215126
0.000314664
0.00048574
0.000316008
0.000320427
0.000344798
0.000375078
0.000421292
0.000450641
0.000471099
0.000514104
0.000569061
0.000648451
0.000175987
0.00040173
0.000610967
0.000855621
0.00116179
0.00141911
0.00171737
0.00198815
0.00217651
0.00230255
0.00243562
0.0025197
0.00259424
0.00267343
0.00268678
0.00263257
0.00250476
0.00234208
0.00198896
0.0029861
5.08632e-05
0.0312934
0.504417
0.00490276
0.00434686
0.00446462
0.00454359
0.00456248
0.0046003
0.00464022
0.00465576
0.00468445
0.00472394
0.00478215
0.00485736
0.00494646
0.00503471
0.00514268
0.00527286
0.00537851
0.00534246
0.00473961
0.00228933
0.00096883
0.000546804
4.01223e-16
2.94333e-16
0.000892207
9.31476
1.80191e+06
2.89496e+06
1.83652e+06
1.34629e+06
1.90085e+06
3.89845e+06
0.845004
12.1608
1.36331
1.39293
0.120256
4.72722
28.9053
0.00467782
0.0022916
0.000266421
0.000421284
0.000439843
0.000614896
0.000933949
0.000899387
0.000873359
0.000840392
0.000862094
0.000748371
0.000615492
0.000626217
0.000646849
0.000682819
0.00075793
0.000845919
0.000926337
0.00096993
0.000988146
0.000993726
0.000969091
0.000926856
0.000914126
0.000918202
0.000904136
0.000885623
0.000872707
0.000859697
0.000839412
0.000844432
0.000877374
0.000961359
0.000831446
0.00171156
3.14581e-05
0.023387
0.104539
0.00273531
0.0026213
0.00247851
0.0023375
0.00220274
0.00211749
0.00207922
0.00206438
0.0020724
0.0021166
0.00218812
0.00227766
0.00238942
0.002529
0.00270037
0.00290682
0.00319943
0.00357489
0.00396677
0.00433347
0.00447451
0.00300417
0.000694025
0.000427023
3.89767e-16
9.7018e-11
1.95433e-05
1.89918e-05
1.12607e-05
4.66799e-06
1.50643e-06
3.74539e-07
9093.71
57.9262
1.25508
2.74394
0.986108
16.0746
53.0399
0.000596027
0.00043242
0.000462363
0.00102645
0.00258802
0.00333448
0.00342623
0.00343894
0.00345653
0.00347789
0.0034996
0.00356459
0.00360526
0.00364306
0.00368634
0.00373305
0.00377776
0.00381639
0.003849
0.00385497
0.0038422
0.00381785
0.00378222
0.00373687
0.00369493
0.00365437
0.00359935
0.00353303
0.00345435
0.0033569
0.00323834
0.00308295
0.00307018
0.00284157
0.00220592
0.00227196
0.000303526
0.0157008
0.558355
0.000327769
0.000109193
0.000362948
0.000332414
0.000324906
0.000336829
0.000356326
0.000371153
0.000390321
0.000410408
0.000435178
0.000463951
0.000497169
0.000551156
0.000593068
0.000626184
0.000703987
9.97266e-05
0.000517643
0.00108179
0.00176849
0.0024103
0.0027168
0.00229032
0.000715802
0.108887
8.62801e-06
1.42133e-05
1.23783e-05
7.03241e-06
2.99516e-06
1.06599e-06
3.80136e-07
1.50465e-07
3.36573
18.8672
6.39568e-09
539.659
2544.53
0.000385945
0.000810333
0.00244468
0.00315912
0.00304375
0.00276305
0.00280273
0.00286444
0.00294388
0.00303868
0.00314599
0.00327758
0.00341179
0.00355644
0.00372574
0.00390239
0.004042
0.0041536
0.0042324
0.0042748
0.00428928
0.00428308
0.00426127
0.00422857
0.00419143
0.00414642
0.00408407
0.00400894
0.00391822
0.00380932
0.00365779
0.0035268
0.0034389
0.00324884
0.00289004
0.00273293
0.00107203
0.00656145
0.328099
9.17321e-05
0.000204756
0.000350683
0.000382727
0.000383731
0.000488235
0.000642528
0.000710761
0.000781846
0.000824499
0.000854114
0.000883168
0.000909898
0.00102903
0.00102327
0.000916588
0.000936741
0.00090451
0.000868647
0.000954936
0.00121861
0.0016128
0.00210898
0.00237745
0.0030686
0.264489
1538.52
9.21104e-06
1.10939e-05
8.33689e-06
4.51029e-06
2.04059e-06
9.40477e-07
5.15221e-07
3.31454e-07
1.5977e-07
5.90682e-08
2.59856e-08
6.7843e-09
0.00188548
0.00302644
0.0028086
0.00182606
0.000973168
0.000599306
0.000626119
0.000674552
0.000734314
0.000809014
0.000897582
0.000966665
0.0010479
0.00115981
0.00131808
0.00148724
0.00159989
0.00168484
0.00174371
0.00177625
0.00178824
0.00178511
0.00177159
0.00175478
0.00173626
0.00171264
0.00168433
0.00165287
0.00161719
0.00157658
0.00153589
0.00151739
0.00152539
0.00155295
0.00156212
0.00163348
0.0013849
0.00171808
0.0899804
0.00250982
0.00239361
0.00243336
0.00248814
0.00253203
0.00255069
0.00258255
0.00261969
0.00271157
0.00272296
0.00269063
0.0027345
0.00278012
0.0028274
0.00288531
0.00294152
0.00300063
0.00305728
0.0030085
0.00287027
0.00272728
0.00264342
0.00270016
0.00259012
0.0036917
0.332404
1886.63
5.42245e-06
8.69588e-06
8.41505e-06
5.66506e-06
3.11777e-06
1.70117e-06
1.04576e-06
7.24705e-07
4.26722e-07
1.97783e-07
9.84658e-08
3.52136e-08
0.00298878
0.00192773
0.000610475
0.000309644
0.000131013
8.88226e-05
9.26474e-05
9.80961e-05
0.000104695
0.000114532
0.00012769
0.000137826
0.000151337
0.000170179
0.000197337
0.000228087
0.000251763
0.000271588
0.000288397
0.000301585
0.000311634
0.000319106
0.000324886
0.000329532
0.000332764
0.000334376
0.000334662
0.000333803
0.000331643
0.000328104
0.000324126
0.000324541
0.000330425
0.000343883
0.00012438
0.000238894
0.000663966
0.000129839
0.00606639
0.00232973
0.00206139
0.00194763
0.0018781
0.00182106
0.00178489
0.00177042
0.00176823
0.0017775
0.00181284
0.00185231
0.00190019
0.00195914
0.00203189
0.00212123
0.0022294
0.00236051
0.00250412
0.00274213
0.00300561
0.00307963
0.00303928
0.00306688
0.00286865
0.00361396
0.319323
1792.72
2.9763e-06
6.16502e-06
7.50847e-06
6.19645e-06
4.06387e-06
2.54036e-06
1.70013e-06
1.23751e-06
8.20788e-07
4.37509e-07
2.4126e-07
1.20048e-07
0.00106814
0.000370667
0.000132917
0.000137699
8.15875e-06
4.24437e-05
3.22512e-05
2.24789e-05
9.07745e-06
0.000187115
2.74066e-06
0.00018847
0.000190762
0.000193073
0.000196125
0.000200427
0.000205341
0.000210178
0.000215006
0.000219728
0.000224267
0.000228675
0.000233247
0.000237522
0.00024056
0.000242562
0.000243524
0.000243438
0.000242123
0.000239669
0.000235972
0.000230788
0.000218629
0.000199624
0.000203808
0.000204349
0.000152707
9.1002e-05
0.00139056
0.000464955
0.000520916
0.000380596
0.000306651
0.000253007
0.000210552
0.000181612
0.000162405
0.000152007
0.00015136
0.000160655
0.000180563
0.000211544
0.000256022
0.000316344
0.000392266
0.000491839
0.000610482
0.000792409
0.00111982
0.0014919
0.00178943
0.00206991
0.00213797
0.00289827
0.256513
1435.21
1.54355e-06
4.024e-06
6.05255e-06
6.04107e-06
4.66366e-06
3.29306e-06
2.37485e-06
1.79329e-06
1.27632e-06
7.48778e-07
4.47897e-07
2.74723e-07
0.0001855
0.000153577
0.000392153
0.000989591
0.00126411
0.00126422
0.00125845
0.00125747
0.00125804
0.00126006
0.00126268
0.00128905
0.0012998
0.00130393
0.00130557
0.001306
0.00130239
0.00129604
0.00128791
0.0012786
0.00126857
0.00125892
0.00124987
0.00123973
0.00122712
0.00121167
0.00119281
0.00117089
0.00114524
0.00111666
0.00108432
0.00104753
0.000981548
0.000887578
0.000777854
0.000645293
0.000568851
0.000378004
8.29479e-05
0.00011077
0.000123263
0.000117637
0.000110585
0.000113584
0.000119017
0.000122543
0.000127914
0.000133698
0.000139433
0.000146935
0.000155741
0.000166162
0.000179227
0.00019501
0.00021456
0.000239218
0.000266868
0.000315823
1.37354e-06
0.000223306
0.000497245
0.000824859
0.00102178
0.00180814
0.167213
938.241
7.62163e-07
2.44988e-06
4.47385e-06
5.32945e-06
4.79469e-06
3.79639e-06
2.94115e-06
2.33064e-06
1.73851e-06
1.09876e-06
7.04884e-07
4.94265e-07
0.000255286
0.000859247
0.00140437
0.00138979
0.00136203
0.00136194
0.00136457
0.00137515
0.00138978
0.00140788
0.0014269
0.00144557
0.00146136
0.00147465
0.00148523
0.00149119
0.00149338
0.00149239
0.00148871
0.00148283
0.00147538
0.0014668
0.00145622
0.00144248
0.00142522
0.00140484
0.00138133
0.00135509
0.00132535
0.00129344
0.00125782
0.00122217
0.00118318
0.00112301
0.00105216
0.000972913
0.000815388
0.000688889
0.000322027
0.000437812
0.000462369
0.000492378
0.000534536
0.000592757
0.000655469
0.00071204
0.000761397
0.000804316
0.000840712
0.000871899
0.000898924
0.000922359
0.000943621
0.000962175
0.000982546
0.00100309
0.00101766
0.00109299
0.00101615
0.00085283
0.000825163
0.000880435
0.000880735
0.00136165
0.128753
728.903
3.59932e-07
1.40308e-06
3.06496e-06
4.30255e-06
4.46742e-06
3.94546e-06
3.28287e-06
2.71325e-06
2.12909e-06
1.45211e-06
9.99756e-07
7.64732e-07
0.00117455
0.00139164
0.0010283
0.000491492
0.000344957
0.000358908
0.000371123
0.000383251
0.000396901
0.000412847
0.000426932
0.000439679
0.000451848
0.00046285
0.000472316
0.000480168
0.000486288
0.000490592
0.000492999
0.000493555
0.000492225
0.000488946
0.000483836
0.000477375
0.000470038
0.000462116
0.00045379
0.000445232
0.000436257
0.000428772
0.000418735
0.000412967
0.000422155
0.000433181
0.000462465
0.000499865
0.000504946
0.000517035
0.000435004
0.00132228
0.00123665
0.00120295
0.00119729
0.00121667
0.00123443
0.00125316
0.00127007
0.0012874
0.00130559
0.00132456
0.00134466
0.00136599
0.00138837
0.00140602
0.0014361
0.00147837
0.00149776
0.00151302
0.00150799
0.00143955
0.00133599
0.0012564
0.00113542
0.00133325
0.112497
0.00617192
0.00396953
7.60162e-07
1.96133e-06
3.2069e-06
3.80701e-06
3.73191e-06
3.33497e-06
2.8739e-06
2.37346e-06
1.75284e-06
1.10535e-06
8.80972e-07
0.00123238
0.000617588
7.38425e-05
7.65555e-05
4.91706e-05
5.26367e-05
5.49517e-05
5.61195e-05
5.743e-05
5.92486e-05
6.02407e-05
6.11289e-05
6.24515e-05
6.38702e-05
6.5583e-05
6.76408e-05
6.98125e-05
7.21024e-05
7.44297e-05
7.66762e-05
7.8685e-05
8.04565e-05
8.19534e-05
8.30837e-05
8.37501e-05
8.41151e-05
8.4312e-05
8.43596e-05
8.42235e-05
8.4246e-05
8.3688e-05
8.38518e-05
8.70156e-05
9.05795e-05
9.88301e-05
2.5323e-05
0.000109671
0.000205461
0.000271459
0.000875564
0.000807146
0.000741699
0.000687812
0.000643414
0.000606936
0.000581788
0.000564395
0.00055478
0.000552395
0.000556267
0.000566094
0.000581355
0.000602202
0.000630159
0.000663612
0.000701463
0.000745572
0.000790782
0.000876855
0.000988616
0.00103979
0.00105947
0.00103374
0.00116923
0.0776437
0.02987
0.0239259
3.91046e-07
1.17899e-06
2.22237e-06
2.99011e-06
3.23769e-06
3.10575e-06
2.79908e-06
2.42237e-06
1.51787e-06
1.29954e-07
7.48605e-09
0.000283705
0.000112915
3.70211e-05
6.64e-05
7.22701e-05
7.2798e-05
7.22739e-05
7.07348e-05
6.93825e-05
6.84182e-05
6.68506e-05
6.54318e-05
6.46644e-05
6.40941e-05
6.3995e-05
6.44319e-05
6.52318e-05
6.64015e-05
6.78848e-05
6.95978e-05
7.14383e-05
7.3371e-05
7.53173e-05
7.70335e-05
7.82342e-05
7.90893e-05
7.97035e-05
8.00755e-05
8.01521e-05
7.98998e-05
7.93807e-05
7.8459e-05
7.61924e-05
7.06176e-05
6.22519e-05
5.71477e-05
6.50674e-05
9.0982e-06
0.000109939
7.64162e-05
0.000100905
3.2114e-05
9.44758e-05
8.64674e-05
8.30384e-05
7.89278e-05
7.69763e-05
7.60532e-05
7.56924e-05
7.67622e-05
7.87435e-05
8.16658e-05
8.57816e-05
9.117e-05
9.77055e-05
0.000105251
0.000114994
1.00726e-05
5.255e-05
0.000146779
0.000283126
0.000427753
0.000526878
0.000679018
0.0321471
0.0417704
0.0412093
1.91435e-07
6.68394e-07
1.43987e-06
2.17876e-06
2.59342e-06
2.66777e-06
2.52068e-06
2.24304e-06
1.95878e-08
1.15766e-13
2.26463e-15
4.9562e-05
7.24934e-05
0.000183708
0.000452983
0.000482719
0.000473232
0.000466101
0.000462397
0.000459953
0.000458119
0.000456435
0.000454563
0.000452524
0.00045037
0.000448028
0.000445615
0.000443336
0.000441265
0.000439381
0.000437602
0.000435766
0.000433684
0.000431214
0.00042812
0.000424178
0.000419432
0.000413868
0.000407544
0.000400264
0.000391926
0.000382919
0.000372553
0.000356492
0.000325921
0.000283677
0.000232967
0.000182897
0.000126111
0.000125769
4.51387e-05
4.17856e-05
3.86229e-05
3.79033e-05
4.35073e-05
4.89108e-05
5.19418e-05
5.48797e-05
5.71748e-05
5.85492e-05
5.9975e-05
6.11614e-05
6.21644e-05
6.32596e-05
6.43769e-05
6.55614e-05
6.67183e-05
6.79091e-05
7.07626e-05
7.85385e-05
9.07868e-05
0.000114324
4.74811e-05
0.000140882
0.000247184
0.00839544
0.0356651
0.0429338
8.92972e-08
3.58325e-07
8.75804e-07
1.48075e-06
1.92956e-06
2.12558e-06
2.10801e-06
8.08528e-07
4.38083e-13
2.07804e-15
5.3672e-16
3.81956e-05
0.000397878
0.000577277
0.000595668
0.000594727
0.000587885
0.000580174
0.000576452
0.00057457
0.000573426
0.000572663
0.000571917
0.000571036
0.000570057
0.000568683
0.000567
0.000565396
0.000563856
0.000562175
0.000560173
0.000557642
0.000554391
0.000550319
0.000545287
0.000539189
0.000532197
0.000524336
0.000515684
0.000506064
0.00049531
0.000483919
0.000472127
0.000460909
0.000444136
0.000417368
0.00038129
0.000328891
0.000246565
0.000197721
0.000232531
0.000213618
0.000237388
0.000273191
0.000309315
0.000342164
0.000367815
0.000387493
0.000402198
0.000412521
0.000419666
0.000424528
0.000427419
0.000428848
0.000429701
0.000429936
0.00042911
0.000427961
0.000427012
0.000424194
0.00039684
0.000371618
0.00031096
0.000258424
0.00024769
0.0028745
0.0369845
0.0538912
3.97121e-08
1.81966e-07
5.01648e-07
9.42692e-07
1.34039e-06
1.57953e-06
1.64536e-06
9.63951e-07
3.11673e-12
2.56139e-15
3.32659e-15
0.000539186
0.000556624
0.00038977
0.000227642
0.000211248
0.000211424
0.000209115
0.000207708
0.000207464
0.000207682
0.000208215
0.000208948
0.000209756
0.000210711
0.000211345
0.000211626
0.000212026
0.000212405
0.000212437
0.000212042
0.00021117
0.000209831
0.000208067
0.000205959
0.000203552
0.00020091
0.00019805
0.00019499
0.000191692
0.000188086
0.000184241
0.000180278
0.000179161
0.000186682
0.000198865
0.000212564
0.000219909
0.000207562
0.000185436
0.000575875
0.000511845
0.000496989
0.000507393
0.000514853
0.000520547
0.000524063
0.00052492
0.000524424
0.00052328
0.000521917
0.000520821
0.000519948
0.000519343
0.000519545
0.000520215
0.000520464
0.000520747
0.000521701
0.000522634
0.000523248
0.000510986
0.000462555
0.000409693
0.000353137
0.00134035
0.0417697
0.073162
1.68405e-08
8.76412e-08
2.71225e-07
5.64151e-07
8.73225e-07
1.10032e-06
1.20588e-06
8.92602e-07
1.38949e-11
4.60168e-13
8.67566e-16
0.000464053
0.000183259
2.02899e-05
3.51929e-05
3.1325e-05
3.21607e-05
3.19853e-05
3.12295e-05
3.0616e-05
3.01758e-05
2.94522e-05
2.88019e-05
2.84618e-05
2.82277e-05
2.8181e-05
2.8388e-05
2.8787e-05
2.93952e-05
3.0135e-05
3.09592e-05
3.181e-05
3.26784e-05
3.35426e-05
3.42921e-05
3.47945e-05
3.51571e-05
3.54513e-05
3.5672e-05
3.58105e-05
3.58481e-05
3.57828e-05
3.56453e-05
3.60265e-05
3.81461e-05
4.19975e-05
1.87829e-05
5.76406e-05
9.68097e-05
0.000118143
0.00031878
0.000303488
0.000267479
0.000244746
0.000225904
0.00020937
0.000196465
0.00018593
0.000177878
0.000172227
0.000168561
0.000166672
0.000166386
0.000167503
0.000169946
0.00017359
0.00017834
0.000184257
0.000191433
0.000202194
0.000226851
0.000257336
0.000287226
0.000311587
0.000297813
0.000611853
0.0364684
0.0763171
6.81091e-09
4.00703e-08
1.3869e-07
3.18309e-07
5.3557e-07
7.21859e-07
8.34085e-07
7.34649e-07
4.73437e-11
4.0328e-17
5.33024e-16
5.91043e-05
3.11049e-05
1.78175e-05
2.16895e-05
2.30249e-05
2.38393e-05
2.38445e-05
2.3171e-05
2.24208e-05
2.17627e-05
2.08739e-05
2.00239e-05
1.94127e-05
1.88703e-05
1.8501e-05
1.83519e-05
1.83309e-05
1.8457e-05
1.87061e-05
1.90509e-05
1.9453e-05
1.99083e-05
2.03949e-05
2.08238e-05
2.10891e-05
2.12577e-05
2.13879e-05
2.14737e-05
2.15099e-05
2.14827e-05
2.13898e-05
2.12329e-05
2.09526e-05
1.94437e-05
1.67711e-05
1.80291e-05
2.1004e-05
2.66883e-05
3.84451e-05
4.0196e-06
1.55294e-05
4.03497e-05
3.39755e-05
3.17119e-05
2.97768e-05
2.7487e-05
2.59719e-05
2.48184e-05
2.38615e-05
2.34073e-05
2.32231e-05
2.33042e-05
2.37035e-05
2.43322e-05
2.52108e-05
2.6316e-05
2.76568e-05
2.92416e-05
3.14409e-05
3.58881e-05
4.48187e-05
4.00755e-05
9.46661e-05
0.000128765
0.000265174
0.0232288
0.0577668
2.62779e-09
1.74093e-08
6.7194e-08
1.69783e-07
3.10326e-07
4.4779e-07
5.46969e-07
5.43266e-07
1.29926e-10
2.97302e-15
1.47916e-15
1.58975e-05
3.90482e-05
9.9279e-05
0.000144532
0.000150509
0.000151838
0.000151059
0.000149546
0.00014773
0.000145987
0.000144385
0.00014282
0.000141319
0.000139889
0.000138499
0.000137159
0.000135843
0.000134529
0.000133203
0.000131849
0.000130438
0.000128937
0.000127333
0.000125629
0.000123808
0.000121866
0.000119809
0.000117629
0.000115318
0.00011284
0.000110182
0.00010736
0.000104076
9.497e-05
8.06197e-05
6.67366e-05
4.08817e-05
2.12133e-05
3.4036e-05
2.40145e-05
1.78182e-05
1.82487e-05
1.86186e-05
1.97963e-05
2.09272e-05
2.12099e-05
2.16309e-05
2.19231e-05
2.19482e-05
2.20947e-05
2.21893e-05
2.22561e-05
2.23971e-05
2.25342e-05
2.26946e-05
2.28434e-05
2.29938e-05
2.31567e-05
2.32824e-05
2.30394e-05
2.09997e-05
2.43556e-05
3.07707e-05
3.88627e-05
8.80557e-05
0.01044
0.030705
9.67486e-10
7.19421e-09
3.08991e-08
8.58298e-08
1.70416e-07
2.63655e-07
3.415e-07
3.72149e-07
3.04385e-10
1.01834e-14
6.97361e-16
5.67357e-05
0.000212116
0.000264819
0.000267245
0.000267442
0.000265769
0.000263586
0.000261511
0.000259494
0.000257599
0.000255888
0.000254245
0.000252629
0.000251056
0.000249498
0.000247929
0.000246337
0.000244699
0.000242982
0.000241164
0.000239196
0.000236999
0.000234511
0.000231706
0.000228565
0.000225124
0.000221402
0.000217393
0.000213104
0.000208495
0.00020353
0.000198301
0.000193375
0.000184986
0.000168298
0.000151426
0.000132736
9.56529e-05
7.06315e-05
0.000122858
0.000113106
0.000122872
0.000130595
0.000137338
0.000143353
0.000147996
0.00015153
0.00015418
0.000155986
0.000157118
0.000157676
0.000157702
0.000157329
0.000156678
0.000155723
0.000154435
0.000152973
0.000151491
0.000149769
0.000145797
0.000130931
0.00010993
9.2803e-05
6.49471e-05
8.57711e-05
0.010505
0.0373312
3.40063e-10
2.83103e-09
1.35069e-08
4.12148e-08
8.89475e-08
1.47881e-07
2.03775e-07
2.40065e-07
6.29495e-10
1.10409e-13
4.05592e-15
0.00026983
0.000253971
0.000164529
0.000137442
0.000133379
0.000130918
0.000129951
0.000129537
0.000129292
0.000129
0.000128679
0.000128347
0.000127974
0.000127576
0.000127174
0.000126742
0.000126272
0.000125757
0.00012518
0.000124527
0.000123772
0.00012287
0.000121787
0.000120508
0.000119021
0.000117364
0.000115577
0.000113621
0.000111522
0.000109269
0.000106827
0.000104161
0.000102052
0.000102703
0.000105096
0.000106437
0.000106841
9.67321e-05
7.89607e-05
0.000278544
0.000255172
0.000253407
0.000251211
0.000248512
0.000245945
0.000243732
0.000241449
0.000239241
0.00023713
0.000235016
0.000232907
0.000230775
0.000228661
0.000226653
0.000224656
0.000222549
0.000220463
0.00021854
0.000216651
0.000215913
0.000209925
0.000196686
0.000178606
0.00014602
0.000135849
0.0125617
0.00163061
0.00228519
1.06176e-09
5.61935e-09
1.88406e-08
4.42343e-08
7.92336e-08
1.16551e-07
1.47563e-07
1.17556e-09
6.31875e-13
2.41604e-14
0.000205732
6.67611e-05
1.4035e-06
2.07687e-05
2.03935e-05
2.05266e-05
2.04664e-05
1.99932e-05
1.95038e-05
1.90571e-05
1.8351e-05
1.7642e-05
1.71198e-05
1.66272e-05
1.62826e-05
1.61448e-05
1.61252e-05
1.62594e-05
1.65253e-05
1.68998e-05
1.7352e-05
1.78677e-05
1.84269e-05
1.89184e-05
1.92253e-05
1.94258e-05
1.95955e-05
1.97217e-05
1.98039e-05
1.98385e-05
1.98161e-05
1.97225e-05
1.97061e-05
2.04039e-05
3.73614e-06
1.61076e-05
3.36965e-05
4.92591e-05
5.23574e-05
0.000149677
0.000148953
0.000137391
0.000129214
0.000122467
0.00011644
0.000111633
0.00010765
0.000104348
0.000101718
9.95991e-05
9.79049e-05
9.65734e-05
9.55647e-05
9.48861e-05
9.44757e-05
9.4286e-05
9.43597e-05
9.4736e-05
9.53066e-05
9.75748e-05
0.000106129
0.00011589
0.000122186
0.00012181
0.000127622
0.00739487
0.00439287
0.00715507
3.79621e-10
2.22769e-09
8.20853e-09
2.10017e-08
4.06472e-08
6.40539e-08
8.70455e-08
2.00416e-09
2.98198e-12
1.19617e-13
1.53999e-05
1.08532e-05
6.52215e-06
8.40373e-06
8.95971e-06
9.36051e-06
9.23764e-06
8.81487e-06
8.40118e-06
8.05876e-06
7.63025e-06
7.21386e-06
6.89396e-06
6.59764e-06
6.36929e-06
6.23506e-06
6.1567e-06
6.14722e-06
6.19989e-06
6.30411e-06
6.44783e-06
6.62534e-06
6.83208e-06
7.02097e-06
7.13348e-06
7.20054e-06
7.25502e-06
7.29597e-06
7.32227e-06
7.33182e-06
7.32212e-06
7.28864e-06
7.21049e-06
6.86945e-06
6.72254e-06
8.37295e-06
1.02474e-05
2.73211e-06
1.90082e-05
2.05722e-05
2.07434e-05
2.04296e-05
1.84176e-05
1.76278e-05
1.6961e-05
1.59398e-05
1.52882e-05
1.47308e-05
1.41682e-05
1.38209e-05
1.35491e-05
1.33544e-05
1.32823e-05
1.32797e-05
1.33535e-05
1.34881e-05
1.36815e-05
1.39341e-05
1.42241e-05
1.47685e-05
1.70498e-05
8.25221e-06
2.60397e-05
4.47949e-05
6.38606e-05
0.00197405
0.0052543
0.00992266
1.2952e-10
8.41918e-10
3.41317e-09
9.53078e-09
1.99863e-08
3.38791e-08
4.94616e-08
3.09961e-09
1.21746e-11
3.2414e-15
7.7091e-06
1.9687e-05
4.12075e-05
5.48497e-05
5.74912e-05
5.86153e-05
5.76327e-05
5.61801e-05
5.48673e-05
5.38335e-05
5.29546e-05
5.21433e-05
5.14253e-05
5.07743e-05
5.0162e-05
4.9597e-05
4.90738e-05
4.85713e-05
4.80921e-05
4.76251e-05
4.71604e-05
4.66744e-05
4.61597e-05
4.56188e-05
4.50167e-05
4.43363e-05
4.35949e-05
4.28026e-05
4.19622e-05
4.10763e-05
4.01355e-05
3.91213e-05
3.79255e-05
3.54313e-05
3.02759e-05
2.54475e-05
1.56521e-05
8.72887e-06
1.5694e-05
1.44822e-05
9.08994e-06
9.48855e-06
9.00293e-06
9.224e-06
9.50626e-06
9.38286e-06
9.26072e-06
9.05895e-06
8.78065e-06
8.60897e-06
8.46565e-06
8.34729e-06
8.282e-06
8.23212e-06
8.20283e-06
8.18169e-06
8.16859e-06
8.16513e-06
8.15953e-06
8.10654e-06
7.63284e-06
7.84501e-06
9.51123e-06
1.10426e-05
1.49837e-05
0.000200739
0.00240905
0.00573176
4.22046e-11
3.03637e-10
1.35492e-09
4.13729e-09
9.42893e-09
1.72524e-08
2.71248e-08
4.21603e-09
4.22717e-11
4.03548e-14
4.06437e-05
0.000112193
0.000135856
0.000139128
0.000140393
0.000140182
0.000137964
0.000135314
0.000133092
0.000131292
0.000129762
0.000128373
0.000127112
0.000125949
0.00012484
0.000123783
0.000122752
0.000121713
0.000120653
0.00011955
0.000118374
0.000117079
0.000115638
0.00011405
0.000112299
0.000110382
0.000108344
0.000106199
0.000103951
0.000101609
9.91533e-05
9.6569e-05
9.38774e-05
9.06045e-05
8.49163e-05
7.63663e-05
6.37209e-05
4.95418e-05
3.87917e-05
7.05779e-05
6.41379e-05
6.26542e-05
6.21027e-05
6.30399e-05
6.42181e-05
6.47164e-05
6.42484e-05
6.32672e-05
6.22156e-05
6.12981e-05
6.05358e-05
5.9849e-05
5.9196e-05
5.85448e-05
5.78605e-05
5.71196e-05
5.63517e-05
5.56046e-05
5.48449e-05
5.38249e-05
5.01641e-05
4.28799e-05
3.55989e-05
2.58915e-05
1.66686e-05
6.41708e-05
0.00189836
0.000788453
0.000902173
1.046e-10
5.14177e-10
1.71899e-09
4.26934e-09
8.46146e-09
1.43637e-08
4.78374e-09
1.18472e-10
2.56878e-13
0.000152057
0.000135927
9.16873e-05
8.33991e-05
8.18248e-05
8.07258e-05
7.94065e-05
7.77779e-05
7.64607e-05
7.53943e-05
7.45096e-05
7.37544e-05
7.30621e-05
7.24341e-05
7.18584e-05
7.13005e-05
7.07462e-05
7.0183e-05
6.95847e-05
6.89467e-05
6.82459e-05
6.74595e-05
6.65719e-05
6.55702e-05
6.44822e-05
6.33339e-05
6.21378e-05
6.08866e-05
5.95853e-05
5.82377e-05
5.68394e-05
5.53676e-05
5.39895e-05
5.35776e-05
5.43204e-05
5.43721e-05
5.36264e-05
4.93811e-05
4.11622e-05
0.000149772
0.000134209
0.00012946
0.000124867
0.000122621
0.000120781
0.000119319
0.000117054
0.000114462
0.000112328
0.000110698
0.000109362
0.000108141
0.000106944
0.000105744
0.000104492
0.000103151
0.000101771
0.000100412
9.90519e-05
9.72366e-05
9.56389e-05
8.90282e-05
8.05324e-05
7.37862e-05
6.05891e-05
6.65627e-05
0.00131991
0.00329134
0.00456498
3.44701e-11
1.867e-10
6.84509e-10
1.85585e-09
3.99703e-09
7.34598e-09
4.37376e-09
2.568e-10
1.20656e-12
0.000109634
3.47888e-05
8.03377e-06
2.08651e-06
6.56847e-07
2.70538e-07
4.11831e-07
2.93927e-07
1.23325e-07
1.11808e-05
1.05832e-05
1.00072e-05
9.551e-06
9.11481e-06
8.76919e-06
8.55569e-06
8.41653e-06
8.37972e-06
8.43303e-06
8.56499e-06
8.75572e-06
8.99967e-06
9.28703e-06
9.53701e-06
9.66551e-06
9.73286e-06
9.79135e-06
9.8364e-06
9.86647e-06
9.87951e-06
6.13517e-09
6.8385e-08
4.47361e-08
6.16137e-07
3.8283e-06
9.21904e-06
1.70522e-05
2.38642e-05
2.54361e-05
7.98982e-05
7.47149e-05
6.89666e-05
6.45454e-05
6.09156e-05
5.84769e-05
5.75643e-05
5.64667e-05
5.5005e-05
5.41167e-05
5.36899e-05
5.33e-05
5.284e-05
5.23445e-05
5.18494e-05
5.13545e-05
5.08541e-05
5.03818e-05
4.99635e-05
4.95786e-05
4.94554e-05
5.10186e-05
5.39717e-05
5.60614e-05
5.68421e-05
5.57817e-05
5.55413e-05
0.000431638
0.00333451
0.000432013
0.000339568
6.49675e-11
2.61523e-10
7.75611e-10
1.81942e-09
3.62974e-09
3.28496e-09
4.29101e-10
4.32087e-12
6.84734e-06
5.60128e-06
3.32585e-06
2.96646e-06
2.91254e-06
2.96609e-06
3.03129e-06
2.97738e-06
2.89101e-06
2.81018e-06
2.6873e-06
2.54513e-06
2.42645e-06
2.30589e-06
2.20443e-06
2.13731e-06
2.08982e-06
2.07019e-06
2.07624e-06
2.10598e-06
2.15445e-06
2.2217e-06
2.30661e-06
2.38772e-06
2.43653e-06
2.46542e-06
2.49108e-06
2.51272e-06
2.52995e-06
2.54188e-06
2.54853e-06
2.55795e-06
2.53969e-06
2.60534e-06
2.91549e-06
3.73202e-06
4.48043e-06
5.56975e-06
7.55069e-06
1.1191e-05
1.05887e-05
1.04267e-05
9.32804e-06
8.8699e-06
8.59954e-06
8.27348e-06
8.05175e-06
7.77538e-06
7.5202e-06
7.4067e-06
7.30135e-06
7.19933e-06
7.13625e-06
7.08481e-06
7.05679e-06
7.04155e-06
7.04164e-06
7.05532e-06
7.075e-06
7.12776e-06
7.55476e-06
1.41386e-06
8.24441e-06
1.56025e-05
2.32667e-05
2.87387e-05
9.37669e-05
0.00151533
0.00120217
0.00107604
2.17219e-11
9.60715e-11
3.1204e-10
7.9908e-10
1.73433e-09
2.12203e-09
5.59983e-10
1.19852e-11
4.12127e-06
1.06952e-05
1.33671e-05
1.69089e-05
1.76648e-05
1.79477e-05
1.81656e-05
1.83824e-05
1.85106e-05
1.85946e-05
1.85828e-05
1.84808e-05
1.83519e-05
1.82006e-05
1.80314e-05
1.78652e-05
1.77018e-05
1.75414e-05
1.73854e-05
1.72342e-05
1.70865e-05
1.69357e-05
1.67885e-05
1.6646e-05
1.6485e-05
1.62883e-05
1.60657e-05
1.58194e-05
1.55482e-05
1.52539e-05
1.49339e-05
1.45864e-05
1.41826e-05
1.36556e-05
1.17797e-05
1.03111e-05
5.87827e-06
2.16018e-06
5.58345e-06
8.45858e-06
5.11276e-06
5.35956e-06
5.07845e-06
5.10064e-06
5.21884e-06
4.82768e-06
4.5851e-06
4.4808e-06
4.36749e-06
4.30661e-06
4.24733e-06
4.1889e-06
4.15359e-06
4.12054e-06
4.0952e-06
4.07139e-06
4.04932e-06
4.02905e-06
4.0054e-06
3.95854e-06
3.88456e-06
3.69944e-06
4.08075e-06
4.62383e-06
5.1915e-06
5.73047e-08
1.11033e-05
0.000266468
0.000949261
0.00115995
6.99132e-12
3.40123e-11
1.21111e-10
3.39143e-10
8.02228e-10
1.22973e-09
5.78866e-10
2.59677e-11
2.24701e-05
6.61326e-05
7.14118e-05
7.15273e-05
7.07205e-05
6.95307e-05
6.86037e-05
6.79823e-05
6.74302e-05
6.68771e-05
6.63069e-05
6.57135e-05
6.51317e-05
6.45677e-05
6.40121e-05
6.34719e-05
6.29382e-05
6.23966e-05
6.18418e-05
6.12637e-05
6.06481e-05
5.99747e-05
5.92314e-05
5.84223e-05
5.75457e-05
5.65969e-05
5.55934e-05
5.45383e-05
5.34227e-05
5.22522e-05
5.10178e-05
4.97223e-05
4.83613e-05
4.69842e-05
4.43899e-05
4.03769e-05
3.41912e-05
2.75053e-05
2.12145e-05
4.17598e-05
3.53882e-05
3.47307e-05
3.44176e-05
3.42937e-05
3.47379e-05
3.29023e-05
3.15216e-05
3.11041e-05
3.08811e-05
3.07084e-05
3.05303e-05
3.03139e-05
3.00718e-05
2.98017e-05
2.94928e-05
2.91375e-05
2.87476e-05
2.83523e-05
2.79319e-05
2.73908e-05
2.6753e-05
2.4016e-05
1.9899e-05
1.61206e-05
1.1641e-05
8.76031e-06
9.68001e-06
6.91314e-05
0.000754084
0.000332988
0.000246905
1.16284e-11
4.54504e-11
1.39363e-10
3.5985e-10
6.58778e-10
4.88038e-10
4.4666e-11
8.53628e-05
7.17234e-05
5.99962e-05
5.69294e-05
5.53406e-05
5.38215e-05
5.24495e-05
5.14694e-05