/*--------------------------------*- C++ -*----------------------------------*\
| =========                 |                                                 |
| \\      /  F ield         | OpenFOAM: The Open Source CFD Toolbox           |
|  \\    /   O peration     | Version:  2312                                  |
|   \\  /    A nd           | Website:  www.openfoam.com                      |
|    \\/     M anipulation  |                                                 |
\*---------------------------------------------------------------------------*/
FoamFile
{
    version     2.0;
    format      ascii;
    arch        "LSB;label=32;scalar=64";
    class       volSymmTensorField;
    location    "450";
    object      turbulenceProperties:devReff;
}
// * * * * * * * * * * * * * * * * * * * * * * * * * * * * * * * * * * * * * //

dimensions      [0 2 -2 0 0 0 0];

internalField   nonuniform List<symmTensor> 
10720
(
(0.00346052 0.0085315 -6.09863e-21 -0.00373087 -1.27456e-19 0.000270356)
(0.00713647 0.0140198 6.98462e-21 -0.0074134 1.92817e-19 0.00027693)
(0.0122004 0.0179266 4.96972e-20 -0.0128454 2.1113e-19 0.000644998)
(0.0161014 0.0186472 2.56657e-19 -0.0168376 1.86378e-18 0.000736163)
(0.017995 0.0163462 -7.44974e-19 -0.0186325 -2.89553e-18 0.000637511)
(0.0196064 0.0134559 -6.85179e-19 -0.0203321 -1.3846e-18 0.00072576)
(0.0219329 0.0111275 1.86917e-19 -0.0226683 1.60943e-20 0.000735378)
(0.0254212 0.00892623 8.82308e-20 -0.0261834 1.39509e-19 0.000762176)
(0.0305916 0.00633084 2.12303e-19 -0.0314874 -1.71491e-19 0.000895733)
(0.0378876 0.00287383 -3.20492e-20 -0.0389239 -3.21547e-20 0.00103637)
(0.048169 -0.00241251 3.70035e-18 -0.049435 1.51375e-18 0.00126595)
(0.0634286 -0.0109668 -9.10844e-19 -0.0650438 -6.99522e-19 0.00161514)
(0.0869344 -0.0256426 2.02411e-18 -0.0890743 -3.03818e-18 0.00213981)
(0.125651 -0.052909 1.12738e-18 -0.128695 2.44977e-18 0.00304365)
(0.191484 -0.106382 2.20245e-18 -0.196132 -3.90473e-18 0.00464796)
(0.323549 -0.22703 9.20895e-19 -0.3315 1.81479e-17 0.00795133)
(0.566141 -0.491019 1.23588e-16 -0.58076 6.36276e-17 0.0146195)
(1.05434 -1.11607 -4.20737e-17 -1.08299 6.23263e-17 0.0286466)
(1.81596 -2.34615 -2.57236e-17 -1.86972 -3.83176e-16 0.0537564)
(2.61217 -4.14671 2.37483e-17 -2.69618 -8.48975e-19 0.0840066)
(3.42853 -6.83411 -5.1946e-16 -3.55331 -3.81607e-16 0.124783)
(4.51603 -11.7436 1.12071e-15 -4.71174 1.66408e-15 0.195701)
(6.21939 -22.5616 -7.61638e-16 -6.58573 -1.93593e-15 0.366339)
(8.17776 -45.7118 9.19918e-16 -8.90712 2.05145e-16 0.72936)
(8.85212 -83.3657 -3.01932e-16 -9.81887 -1.48815e-17 0.966754)
(6.90224 -118.706 9.18573e-17 -8.25964 -2.08774e-15 1.3574)
(4.38704 -244.501 7.31586e-16 -7.59528 -2.2808e-16 3.20824)
(-11.465 -405.337 8.57618e-16 9.27607 1.53876e-15 2.18891)
(-22.6806 -275.345 1.65409e-14 24.1918 5.20507e-16 -1.51127)
(-12.1756 -95.796 8.97533e-15 12.8366 5.0192e-15 -0.660968)
(-4.47151 -27.4921 -2.96548e-15 4.57848 -7.65137e-16 -0.106964)
(-0.558106 -2.88862 -5.23141e-16 0.563987 -2.70946e-16 -0.00588061)
(-0.116573 -0.544487 -3.0143e-17 0.116528 -1.07895e-16 4.48963e-05)
(-0.0146397 -0.0665666 -1.91196e-17 0.0145764 -2.66138e-17 6.3309e-05)
(-0.000155537 -0.000787995 1.39655e-19 0.000158847 4.99605e-19 -3.31024e-06)
(-5.96197e-05 -0.00015578 3.87197e-20 5.81511e-05 4.38274e-19 1.46864e-06)
(-0.000297979 -0.000607843 -4.73552e-20 0.000298349 7.72098e-21 -3.69931e-07)
(-0.117494 -0.372792 -2.11204e-16 0.120484 -3.95634e-16 -0.00299008)
(9.47999 20.6857 7.11081e-15 -9.45741 2.32314e-14 -0.0225803)
(0.00227606 0.00801599 3.34434e-21 -0.00238401 -1.05216e-20 0.000107947)
(0.00204313 0.0102889 -2.84864e-20 -0.00232395 3.01352e-20 0.000280821)
(0.0010983 0.010853 -1.8084e-19 -0.00128322 -1.29145e-19 0.000184912)
(0.000140388 0.0142661 3.54482e-19 -0.000360204 -4.58483e-19 0.000219816)
(-0.00027531 0.00504598 -2.16559e-19 0.000226216 -8.84218e-20 4.90934e-05)
(-0.000383072 0.00593583 -1.57665e-18 0.000423506 1.97993e-18 -4.04339e-05)
(0.000146927 0.00725238 1.25276e-18 0.000159707 2.71987e-18 -0.000306633)
(0.00188232 0.0080896 -1.62586e-21 -0.00138737 -5.75025e-18 -0.000494947)
(0.00414331 0.00798264 2.42163e-18 -0.00390271 -1.1072e-19 -0.000240602)
(0.00604129 0.00800785 -1.37447e-18 -0.00604731 -4.07301e-19 6.01843e-06)
(0.00776859 0.00891181 9.53548e-19 -0.00786357 2.29037e-18 9.49807e-05)
(0.00971833 0.0110281 1.63245e-18 -0.00984992 -7.80014e-19 0.000131592)
(0.0122025 0.0147296 -1.46952e-18 -0.0123926 -2.89129e-19 0.000190109)
(0.01634 0.0216492 2.78204e-19 -0.0166262 4.17221e-19 0.000286257)
(0.0221831 0.0324554 4.52252e-18 -0.0225674 6.70598e-19 0.000384311)
(0.0347258 0.0563601 4.88354e-18 -0.0353398 -1.08048e-18 0.000614035)
(0.0517267 0.0928268 2.25715e-18 -0.0526187 3.20895e-18 0.000891975)
(0.144241 0.285895 2.72568e-18 -0.146721 6.73034e-18 0.00248004)
(0.15025 0.328158 2.50179e-18 -0.152767 -1.40244e-18 0.00251671)
(0.165238 0.398924 3.58723e-18 -0.168093 1.79851e-19 0.0028552)
(0.200873 0.538616 -4.55559e-18 -0.204504 -2.75526e-17 0.00363057)
(0.276005 0.833259 -1.53782e-17 -0.281516 -2.05775e-19 0.00551019)
(0.313648 1.09072 1.08593e-17 -0.320892 1.68102e-17 0.00724396)
(0.360666 1.51062 5.22561e-18 -0.371714 -7.86034e-19 0.0110484)
(0.382999 2.0443 1.57889e-16 -0.398993 -2.61752e-17 0.0159942)
(0.362876 2.63363 -5.2706e-19 -0.382989 -9.18251e-18 0.0201129)
(0.196444 2.18403 2.53114e-20 -0.212384 9.32901e-19 0.0159407)
(0.0530182 1.18894 7.65239e-20 -0.0612822 -2.35098e-21 0.00826398)
(0.000801957 0.449529 7.46477e-20 -0.00380449 1.01092e-21 0.00300254)
(-0.00447175 0.115266 2.81303e-18 0.00372715 -9.45969e-20 0.000744607)
(-0.00110991 0.0143557 -1.35304e-20 0.00101982 -6.78915e-22 9.0089e-05)
(-0.000232963 0.00204658 -6.16225e-21 0.000220565 1.54534e-20 1.23986e-05)
(-0.00022406 0.00150993 -2.2781e-19 0.00021533 -2.49167e-20 8.72958e-06)
(-0.00025244 0.00139505 -3.77504e-19 0.000244827 3.63725e-20 7.61301e-06)
(-0.000279808 0.00132065 3.3264e-19 0.000273033 2.39965e-20 6.77433e-06)
(-0.000305168 0.00126309 -2.02548e-21 0.000299041 -6.67225e-21 6.12674e-06)
(-0.000324152 0.00118213 -3.42366e-21 0.000319323 -1.05434e-20 4.8291e-06)
(-0.163571 0.514525 -4.81853e-18 0.156604 1.23243e-17 0.00696656)
(-12.4352 32.6964 -1.13635e-14 12.2509 -7.78327e-16 0.184317)
(0.0151429 -0.0115756 -1.04799e-19 -0.0136889 -3.15496e-19 -0.00145403)
(0.0163873 -0.0175854 2.2319e-19 -0.0142906 5.40979e-19 -0.00209663)
(0.00858449 -0.0138813 3.22822e-21 -0.00684558 3.60178e-21 -0.00173891)
(0.00400226 -0.00998616 2.2609e-19 -0.00263512 3.19946e-20 -0.00136714)
(0.00151552 -0.0069038 1.33383e-19 -0.000469744 9.73593e-19 -0.00104578)
(0.000259305 -0.00533338 6.12431e-19 0.000668726 1.07937e-18 -0.000928031)
(-0.000469976 -0.00466256 -2.81861e-19 0.00143041 4.56449e-20 -0.000960439)
(-0.000994942 -0.00419097 -2.492e-19 0.00203029 -6.78488e-20 -0.00103535)
(-0.00137488 -0.00375384 -1.54753e-18 0.00250428 -1.69883e-18 -0.0011294)
(-0.00158806 -0.00335293 -5.43197e-19 0.00282227 -1.84627e-19 -0.00123422)
(-0.00167467 -0.00301714 -5.26913e-18 0.0030277 -5.11378e-18 -0.00135302)
(-0.0016369 -0.00275653 -6.81929e-20 0.00309701 9.03523e-19 -0.00146011)
(-0.00158487 -0.00283178 -3.28723e-18 0.00325084 8.31627e-20 -0.00166597)
(-0.00161959 -0.00357704 2.88149e-18 0.00381921 1.705e-18 -0.00219961)
(-0.00159132 -0.00574304 -9.20379e-18 0.00503674 -2.66152e-18 -0.00344543)
(-0.000710354 -0.0118895 3.77031e-17 0.00716098 8.95288e-18 -0.00645063)
(0.00411057 -0.0287886 -7.13208e-17 0.00888916 -6.05181e-17 -0.0129997)
(0.0215692 -0.0748996 -1.43665e-16 0.00483041 -5.31628e-17 -0.0263996)
(0.0711179 -0.192805 -3.25187e-16 -0.0206398 1.36212e-16 -0.0504781)
(0.180313 -0.455678 6.88431e-17 -0.094192 7.63726e-20 -0.0861215)
(0.364249 -0.951331 5.4347e-16 -0.236352 6.40176e-16 -0.127896)
(0.615477 -1.76626 -8.83112e-16 -0.438653 -1.62158e-15 -0.176825)
(0.958052 -3.14883 7.64782e-17 -0.683208 1.7255e-15 -0.274844)
(1.40206 -5.1249 2.66963e-17 -0.927959 -4.7692e-16 -0.474098)
(3.29934 -12.7568 -0 -2.08827 -0 -1.21107)
(1.56015 -10.4685 -3.0419e-17 -0.140627 5.24108e-16 -1.41952)
(-0.466425 -13.4225 -1.00109e-15 4.28762 2.60865e-16 -3.82119)
(0.235469 -7.80738 -1.29904e-16 1.5719 -9.47422e-16 -1.80737)
(2.93609 -4.82228 -1.19579e-14 -4.47987 -6.02973e-15 1.54379)
(4.48225 -4.73278 -6.55474e-16 -7.24758 -2.37637e-14 2.76533)
(1.76884 -2.96809 1.02207e-15 -2.80533 1.50089e-14 1.03648)
(0.102034 -1.41965 2.59044e-16 -0.271806 7.11448e-15 0.169772)
(-0.127255 -0.802212 -1.28796e-15 0.10343 1.32825e-15 0.0238248)
(-0.0425564 -0.272981 4.25996e-16 0.0430184 7.70674e-16 -0.00046194)
(-0.00144566 -0.00838395 -6.19198e-19 0.0015142 -5.85916e-18 -6.85436e-05)
(-0.00018298 -0.000670975 3.31679e-19 0.000164218 -2.59777e-19 1.87617e-05)
(-0.00107865 -0.00362792 -2.27059e-19 0.000853781 5.80158e-20 0.000224868)
(0.214044 0.209382 5.81506e-16 -0.218417 1.28805e-15 0.00437322)
(-0.88479 -2.38647 -2.75681e-14 0.531769 -3.50079e-14 0.353021)
(0.00359016 -0.00182462 2.70192e-20 -0.00333038 8.11326e-20 -0.000259789)
(0.00182523 -0.000553685 -6.51589e-21 -0.00171 -1.88351e-19 -0.000115229)
(0.00209521 -0.000178163 -1.38772e-19 -0.00199459 -3.73522e-19 -0.000100617)
(0.00338931 0.000547195 5.95314e-20 -0.00327284 1.01203e-18 -0.000116467)
(0.00345519 0.00157904 6.51745e-19 -0.00339547 -6.08581e-19 -5.97196e-05)
(0.0034929 0.00307375 -2.83065e-19 -0.00349345 -1.23405e-18 5.50581e-07)
(0.00228171 0.00367802 8.93177e-19 -0.00233143 -2.90763e-18 4.97173e-05)
(0.00114105 0.00382309 -2.34057e-18 -0.0012398 -1.85927e-19 9.87487e-05)
(0.000113087 0.00408232 -1.50486e-18 -0.000224092 3.17643e-18 0.000111005)
(-0.0010056 0.00396361 -5.99864e-19 0.000953301 -9.7123e-20 5.22942e-05)
(-0.00194019 0.0035582 -6.64027e-19 0.00200029 -2.10797e-18 -6.00933e-05)
(-0.00255378 0.00300823 1.42296e-19 0.00273691 -1.22053e-18 -0.000183136)
(-0.0028562 0.0024243 9.95548e-19 0.00314751 2.5613e-18 -0.000291314)
(-0.00294213 0.00191899 -1.09381e-18 0.00332601 -6.35716e-19 -0.000383881)
(-0.00277444 0.00147362 -6.33865e-19 0.00322028 -2.23271e-18 -0.000445841)
(-0.00977546 0.00447926 -1.05367e-17 0.0116561 -2.45876e-18 -0.00188062)
(-0.00110542 0.00046793 -2.22541e-19 0.00135453 5.53356e-21 -0.00024911)
(-0.0312606 0.0131074 -4.60659e-19 0.0393419 -4.25218e-18 -0.00808126)
(-0.0454318 0.019765 -9.93712e-18 0.0585386 6.37351e-18 -0.0131068)
(-0.00187281 0.000868508 7.84968e-19 0.00247143 -2.60852e-19 -0.000598618)
(-0.0156492 0.00788312 -5.23981e-17 0.0212197 3.34686e-17 -0.00557049)
(-0.00671995 0.00362845 -5.1749e-18 0.00935852 1.01402e-18 -0.00263858)
(-0.0293917 0.0167002 9.38658e-19 0.0424227 -1.99774e-17 -0.013031)
(-0.00895139 0.0055228 3.90997e-17 0.0136216 6.38325e-19 -0.00467023)
(-0.00135286 0.00101776 -5.75409e-18 0.00219955 5.04802e-19 -0.000846696)
(-0.00317496 0.00317323 -1.38229e-17 0.0054704 2.19123e-18 -0.00229544)
(-0.000120885 0.000162805 -5.46078e-21 0.000216485 -3.96266e-21 -9.55994e-05)
(-0.000360982 0.00061657 -6.75543e-23 0.000653864 -3.53451e-21 -0.000292882)
(-0.000366465 0.000762922 -6.78545e-22 0.000650597 -9.22025e-24 -0.000284132)
(-0.000343167 0.000851474 2.11861e-20 0.000584697 6.14183e-20 -0.00024153)
(-0.000227041 0.000650862 1.50083e-21 0.000365301 -2.68622e-20 -0.000138259)
(-0.00013112 0.000417144 1.73092e-20 0.000196701 -5.09355e-20 -6.55802e-05)
(-7.59904e-05 0.000257491 9.95389e-19 0.00010557 5.65196e-20 -2.95792e-05)
(-5.33106e-05 0.000186017 4.88838e-19 6.86899e-05 -8.1165e-20 -1.53793e-05)
(-4.96061e-05 0.000173087 -3.19967e-19 5.96271e-05 -4.68531e-21 -1.0021e-05)
(-6.17902e-05 0.000212247 3.18565e-19 7.05104e-05 4.0615e-20 -8.72021e-06)
(-8.02e-05 0.000263037 -5.62347e-19 8.55911e-05 -8.08751e-20 -5.39115e-06)
(-0.0358858 0.103455 -1.69479e-16 0.0417899 -3.85165e-17 -0.00590409)
(-0.960767 3.12976 -1.00053e-14 1.0897 -2.79995e-15 -0.128928)
(0.00166541 -0.00145445 -7.35365e-21 -0.00178231 -2.3164e-20 0.000116893)
(0.0016163 -0.00215666 -2.05261e-19 -0.00179194 -4.61948e-19 0.000175634)
(0.00100527 -0.00232273 1.44155e-19 -0.00120329 3.20665e-19 0.000198025)
(0.000387301 -0.00239386 1.95159e-19 -0.000626197 3.56539e-19 0.000238897)
(-0.000216873 -0.00236173 3.58443e-19 -5.87033e-05 5.13246e-19 0.000275576)
(-0.000820268 -0.00221586 -1.12939e-18 0.000500178 -1.92443e-18 0.000320091)
(-0.00139355 -0.00194961 8.28054e-19 0.00101538 1.60803e-18 0.000378173)
(-0.00189614 -0.00157211 1.15956e-18 0.00145806 1.03915e-18 0.000438081)
(-0.00230584 -0.00108673 -7.26533e-20 0.00180446 1.46607e-19 0.000501377)
(-0.00258479 -0.000529982 8.18337e-19 0.00201869 1.41341e-18 0.000566103)
(-0.00272532 5.37238e-05 -1.84001e-18 0.00210085 -1.01689e-19 0.000624467)
(-0.00273356 0.000630272 2.66126e-18 0.00205648 2.91063e-18 0.000677078)
(-0.00263429 0.00115062 1.30519e-18 0.00192796 5.43361e-19 0.000706331)
(-0.00246287 0.00159755 6.62006e-19 0.00175259 -6.29087e-19 0.000710274)
(-0.00236624 0.00206392 2.06076e-18 0.0016371 2.02581e-18 0.000729133)
(-0.00145035 0.00159419 -3.57808e-18 0.000982558 -3.6355e-18 0.000467792)
(-0.00408548 0.00547221 2.86936e-18 0.00273194 4.22227e-18 0.00135354)
(-0.00841716 0.0134733 5.65423e-17 0.00560362 1.62809e-17 0.00281354)
(-0.0185147 0.0353124 4.36086e-17 0.0123507 3.19854e-17 0.00616403)
(-0.0377206 0.0867516 -3.3316e-17 0.0252956 -2.04965e-18 0.012425)
(-0.0641792 0.188212 8.31699e-17 0.042591 -1.87865e-16 0.0215883)
(-0.0817368 0.361966 3.04504e-17 0.048222 2.67544e-16 0.0335149)
(-0.0372497 0.660525 1.11841e-15 -0.0238592 -2.8709e-16 0.0611089)
(0.362992 1.09342 -1.83417e-15 -0.523131 -7.55194e-16 0.160139)
(1.09293 -0.341178 6.9667e-17 -1.25201 5.31311e-17 0.159072)
(2.28091 -3.11128 -3.31002e-15 -2.48874 8.90134e-16 0.207825)
(3.72756 -7.43531 1.01233e-15 -3.98655 1.32854e-16 0.258989)
(2.1276 -6.22696 -3.56048e-16 -2.22331 1.79503e-18 0.0957052)
(0.701149 -3.27765 -5.17985e-15 -0.551211 3.08464e-15 -0.149938)
(0.332555 -2.03327 -6.4408e-15 -0.148719 2.49836e-16 -0.183836)
(0.228372 -1.28834 1.21416e-14 -0.0772621 -3.46554e-15 -0.15111)
(0.176005 -0.40635 6.81462e-15 -0.0654445 2.84295e-15 -0.110561)
(0.0467992 0.0742087 2.63715e-16 -0.0300729 1.57968e-15 -0.0167263)
(0.01457 0.0199848 4.228e-16 -0.0138066 -2.41473e-16 -0.000763342)
(-0.00200977 -0.0146827 2.5943e-17 0.00212264 -1.12033e-17 -0.000112868)
(-0.00161039 -0.0062674 -6.85024e-18 0.00143687 -5.89606e-18 0.000173519)
(-0.000518735 -0.00368274 6.67876e-20 0.000476196 -1.48298e-18 4.25387e-05)
(0.196368 0.145409 1.34081e-17 -0.179378 -3.44324e-16 -0.0169903)
(-1.01781 -2.62256 3.54873e-14 0.805959 -9.01419e-15 0.211849)
(0.00261817 -0.00145056 -5.05517e-20 -0.00276003 -1.15405e-19 0.000141866)
(0.00199326 -0.000634517 -2.79269e-20 -0.00207117 -1.47211e-20 7.79072e-05)
(0.00393346 -0.000332756 5.2686e-19 -0.00404539 8.07817e-19 0.000111929)
(0.00504177 0.000757477 -4.26332e-19 -0.00513168 -3.22887e-20 8.99176e-05)
(0.0041811 0.00176007 8.46267e-20 -0.00422648 3.89697e-19 4.53891e-05)
(0.00269519 0.00208541 -1.03537e-19 -0.00270571 1.19281e-18 1.05243e-05)
(0.00161957 0.00214274 -1.1819e-19 -0.00161918 8.35193e-19 -3.84508e-07)
(0.000991615 0.00245012 2.84715e-18 -0.0010006 1.83993e-18 8.98814e-06)
(0.000323761 0.00267491 5.42568e-19 -0.000334943 -5.73526e-19 1.1182e-05)
(-0.000381937 0.00276474 1.77742e-18 0.000369989 2.19481e-19 1.19482e-05)
(-0.00106556 0.00273124 -1.91217e-18 0.00104158 -1.06363e-18 2.39876e-05)
(-0.00169571 0.00258368 -1.62977e-18 0.00164199 2.4442e-18 5.37212e-05)
(-0.00225735 0.00232681 2.55392e-18 0.00215357 -1.23337e-18 0.000103775)
(-0.00276056 0.00199764 2.26815e-18 0.00258016 -1.06668e-20 0.000180401)
(-0.00321945 0.00162466 -2.52691e-18 0.00293627 2.16252e-18 0.000283177)
(-0.00363482 0.00120625 -2.14513e-18 0.00321374 4.80715e-18 0.000421076)
(-0.00386805 0.000725515 7.03371e-18 0.00329503 -3.92281e-18 0.000573022)
(-0.0040441 0.000234714 7.58153e-18 0.00329493 -1.40563e-18 0.00074917)
(-0.00268624 -0.000166672 2.25499e-18 0.00209407 -2.3106e-19 0.000592168)
(-0.00148837 -0.00027733 -4.94101e-19 0.00110083 1.6486e-18 0.00038754)
(-0.000760674 -0.000247014 4.19702e-18 0.000529997 3.37374e-19 0.000230677)
(-0.00238815 -0.0011479 5.10491e-19 0.00157264 -2.36297e-18 0.000815504)
(-0.00771935 -0.00547497 -1.65777e-19 0.00455871 -5.54396e-19 0.00316063)
(-0.000185431 -0.000204059 -3.25005e-20 8.01693e-05 -1.75599e-19 0.000105262)
(-0.00364201 -0.00707493 -5.94113e-19 -0.00010128 3.67665e-18 0.00374329)
(-0.00323325 -0.0159238 2.14065e-16 -0.0061027 -1.19541e-17 0.00933595)
(3.8015e-05 -0.000691665 -3.98264e-20 -0.00049235 3.01265e-21 0.000454335)
(0.000394834 -0.00133478 -2.24569e-18 -0.00139692 6.0971e-20 0.00100208)
(0.000579028 -0.00117597 -2.06553e-20 -0.00149654 4.41081e-22 0.000917514)
(0.00062426 -0.001078 -2.83578e-18 -0.00137488 -1.00443e-19 0.00075062)
(0.000488011 -0.000862747 3.40865e-18 -0.000963845 2.59932e-19 0.000475834)
(0.000270724 -0.00052341 -4.47666e-20 -0.000488308 -1.06427e-21 0.000217584)
(0.000165968 -0.000354089 -3.0421e-18 -0.000275695 1.62281e-19 0.000109727)
(0.00012281 -0.000284278 -3.31577e-21 -0.000188544 1.59325e-19 6.57338e-05)
(9.66428e-05 -0.000240286 1.32694e-20 -0.000138423 -1.2542e-19 4.17802e-05)
(0.00014873 -0.000368343 -9.30085e-20 -0.000198965 8.62793e-20 5.02343e-05)
(1.06535e-05 -2.87167e-05 5.58491e-21 -1.29044e-05 3.64745e-20 2.25091e-06)
(0.0222541 -0.0291826 4.6853e-16 -0.0271795 1.29822e-16 0.00492542)
(0.15192 2.15 5.5428e-14 -0.251731 1.28177e-14 0.0998109)
(0.00380914 -0.00305648 -8.45719e-20 -0.00370691 -1.47615e-19 -0.000102233)
(0.00323635 -0.00364915 -1.76073e-19 -0.00312239 -2.84983e-19 -0.000113963)
(0.00247646 -0.00417912 3.44901e-19 -0.0023283 4.98781e-19 -0.000148162)
(0.00163281 -0.00457708 4.5902e-19 -0.00145158 4.74283e-19 -0.000181235)
(0.000738056 -0.00477463 5.45598e-20 -0.000517488 -1.98339e-20 -0.000220568)
(-0.00018971 -0.00479585 -1.71601e-19 0.000459731 4.38294e-19 -0.000270022)
(-0.00107296 -0.00460906 3.7763e-18 0.00139664 3.7664e-18 -0.000323678)
(-0.00187216 -0.00429781 -3.70721e-18 0.00225941 -4.834e-18 -0.000387251)
(-0.00258993 -0.00388872 1.04925e-18 0.00305858 2.72442e-19 -0.000468651)
(-0.00316418 -0.00336299 5.54337e-18 0.00371928 4.09272e-18 -0.000555095)
(-0.00360955 -0.00278515 4.74733e-18 0.00426575 4.76511e-18 -0.000656194)
(-0.00397391 -0.00220718 5.65706e-18 0.00475319 1.65933e-18 -0.000779277)
(-0.00417424 -0.00159951 -6.92789e-18 0.00508026 -5.22049e-18 -0.000906013)
(-0.00423098 -0.000993086 -4.84247e-18 0.0052564 -4.762e-18 -0.00102543)
(-0.00425322 -0.000441194 5.78424e-19 0.00542574 -1.8063e-18 -0.00117252)
(-0.0042159 0.00013496 -1.52958e-17 0.00553757 1.07245e-18 -0.00132167)
(-0.00408517 0.000814165 -5.01605e-18 0.00553256 -6.30313e-18 -0.00144739)
(-0.0038113 0.00160163 -3.32258e-17 0.00533749 -2.57601e-17 -0.00152619)
(-0.00228641 0.00171029 2.77749e-18 0.00330236 -3.7555e-18 -0.00101595)
(-0.00077465 0.00097028 5.36824e-19 0.00114883 -1.27927e-18 -0.000374178)
(-2.54302e-05 5.3233e-05 -2.54149e-19 3.85765e-05 2.22628e-21 -1.31464e-05)
(-1.70456e-05 6.35635e-05 4.13156e-20 2.71775e-05 8.20399e-21 -1.01319e-05)
(-7.89766e-06 6.96783e-05 -2.04573e-19 1.5157e-05 -3.90212e-20 -7.25935e-06)
(2.61664e-05 0.00158221 -1.55894e-18 7.66683e-05 1.72197e-18 -0.000102835)
(0.00562129 0.0317567 9.34498e-18 -0.00486255 6.16694e-19 -0.000758747)
(1.84367e-05 2.9478e-05 6.03568e-20 -1.95765e-05 2.42253e-20 1.13976e-06)
(2.73183e-05 -1.00582e-05 -4.83068e-21 -3.11428e-05 3.90017e-21 3.82457e-06)
(2.59449e-05 -3.70176e-05 6.46668e-21 -2.91508e-05 4.69199e-22 3.20598e-06)
(1.92716e-05 -5.18182e-05 8.65207e-20 -2.01903e-05 -1.58611e-20 9.18671e-07)
(1.4117e-05 -6.08845e-05 -9.12577e-21 -1.44999e-05 4.1858e-20 3.82933e-07)
(9.87153e-06 -6.21572e-05 -1.32328e-19 -1.05387e-05 -7.58273e-20 6.672e-07)
(5.49745e-05 -0.000433748 1.87836e-18 -6.12404e-05 -1.68464e-18 6.26588e-06)
(0.00661283 -0.0835536 3.1605e-16 -0.00837489 -2.68143e-17 0.00176206)
(0.0147234 0.000839953 -1.32644e-16 -0.0153427 -7.23961e-16 0.000619311)
(0.00195237 -0.00751598 -2.22881e-16 -0.00146171 -5.93404e-17 -0.000490664)
(-0.00365795 -0.0192964 5.68047e-18 0.00280076 3.24885e-17 0.000857194)
(0.00098164 -0.00245335 -1.0785e-17 -0.000933428 1.24316e-18 -4.82119e-05)
(0.163075 0.0314485 -1.21527e-16 -0.144134 -2.06501e-16 -0.0189416)
(-0.541549 -2.25853 -2.06298e-14 0.355864 2.35793e-15 0.185685)
(0.00508957 -0.00277834 -5.26604e-20 -0.00501044 -3.52957e-20 -7.91309e-05)
(0.00551889 -0.00187705 1.89349e-19 -0.00545023 9.02642e-19 -6.86606e-05)
(0.00546577 -0.000676817 5.70116e-19 -0.00543875 1.17834e-18 -2.70153e-05)
(0.0046685 0.000465938 5.85027e-19 -0.00466053 -2.92523e-19 -7.96205e-06)
(0.00414127 0.00146184 -1.13293e-18 -0.00414681 -8.96034e-19 5.54643e-06)
(0.00366671 0.00246509 -1.75448e-19 -0.00366891 -1.40704e-18 2.20338e-06)
(0.0029192 0.00332017 -2.07873e-18 -0.00291876 -1.87402e-18 -4.40942e-07)
(0.00184487 0.00366618 -2.8894e-18 -0.00185075 -6.47162e-20 5.88791e-06)
(0.000833718 0.00386931 -7.44501e-19 -0.000848112 -4.95936e-19 1.43935e-05)
(-0.000138188 0.00376847 1.0932e-18 0.000118537 -7.35732e-19 1.96511e-05)
(-0.000964714 0.00350244 1.06481e-18 0.000947387 2.44326e-18 1.73277e-05)
(-0.00152238 0.00292469 2.36013e-18 0.00151678 -9.1714e-19 5.59346e-06)
(-0.00180275 0.00227531 -2.04705e-18 0.00181461 -2.03401e-18 -1.18639e-05)
(-0.00197062 0.0017684 -2.93041e-19 0.00200307 8.14766e-19 -3.24543e-05)
(-0.00203548 0.00134694 2.2294e-18 0.00209231 -5.13812e-19 -5.68269e-05)
(-0.00207287 0.00102395 5.03924e-18 0.00215681 -4.33844e-19 -8.3935e-05)
(-0.000525301 0.000193433 -9.25268e-19 0.000554133 -1.98149e-19 -2.8832e-05)
(-0.000985853 0.000265711 -5.09959e-19 0.00105517 -7.35782e-19 -6.93168e-05)
(-0.00127178 0.000236926 -3.33179e-19 0.00138156 1.897e-19 -0.000109785)
(-0.00151798 0.000165607 5.41671e-18 0.00167194 -1.97023e-18 -0.000153952)
(-0.0017775 5.46461e-05 1.13902e-18 0.00198526 -1.56616e-18 -0.000207762)
(-0.00188485 -0.00011236 -7.95291e-18 0.00213313 2.13188e-18 -0.000248273)
(-0.00196062 -0.000335932 -3.28232e-19 0.00225075 1.12402e-18 -0.000290138)
(-0.00188643 -0.000587257 -1.38207e-19 0.00220862 -7.8607e-19 -0.000322192)
(-0.00164587 -0.00075351 1.07322e-19 0.00199676 -8.91886e-21 -0.000350892)
(-0.00136838 -0.000798436 -8.18298e-18 0.00175844 -9.09337e-19 -0.000390062)
(-0.00114739 -0.00079169 -8.79345e-20 0.00158017 1.49796e-20 -0.000432773)
(-0.00094686 -0.000741123 1.74214e-18 0.00140504 -1.58939e-20 -0.000458181)
(-0.000779543 -0.000670463 -6.98487e-20 0.00125253 -1.23208e-21 -0.000472983)
(-0.000648177 -0.000592213 1.86875e-20 0.00113135 -1.40179e-19 -0.000483177)
(-0.000525287 -0.000514875 -4.79099e-18 0.000995865 4.7286e-20 -0.000470578)
(-0.00040874 -0.000455094 -1.10087e-19 0.000845981 -6.76758e-21 -0.000437241)
(-0.000294036 -0.000427435 8.78627e-20 0.000678191 -3.39348e-19 -0.000384154)
(-0.000180217 -0.000455932 1.16093e-17 0.000504077 1.57081e-18 -0.00032386)
(-6.09836e-05 -0.000496811 7.76047e-20 0.000299307 8.259e-21 -0.000238324)
(0.000115116 -0.00112344 -2.36766e-17 0.000195199 -2.77963e-18 -0.000310314)
(1.11208e-05 -4.6296e-05 2.58958e-18 -4.06993e-06 3.69902e-19 -7.05087e-06)
(0.0102385 -0.0231427 8.97685e-18 -0.00821698 -3.7708e-17 -0.00202154)
(1.35234 1.03803 1.75494e-15 -1.21961 -9.74959e-15 -0.13273)
(0.00632743 -0.00525678 -2.19917e-19 -0.00639967 -3.06827e-19 7.22353e-05)
(0.00518393 -0.00614771 -4.04385e-19 -0.00528851 -5.45451e-19 0.000104586)
(0.00391665 -0.00710124 1.39678e-18 -0.00403516 1.77168e-18 0.000118508)
(0.0024262 -0.00780988 -6.05027e-18 -0.00258241 -8.00297e-18 0.000156208)
(0.00078453 -0.00818494 1.54045e-18 -0.00098332 2.25213e-18 0.00019879)
(-0.000980169 -0.00825737 3.4781e-18 0.000736053 3.5747e-18 0.000244116)
(-0.00276571 -0.00795094 -3.14422e-18 0.00245704 -4.95469e-18 0.000308673)
(-0.00447266 -0.00726335 -2.07306e-18 0.00408692 3.33479e-19 0.000385744)
(-0.00603489 -0.00621956 -1.40747e-17 0.00556025 -1.31188e-17 0.000474634)
(-0.00736556 -0.00486279 -2.24164e-18 0.0067783 -5.62398e-18 0.000587256)
(-0.00840157 -0.00324463 4.33954e-19 0.00768418 -1.40913e-18 0.000717391)
(-0.00908867 -0.0014317 -8.91925e-18 0.00821958 -1.10759e-17 0.000869089)
(-0.00938598 0.000488238 4.6321e-18 0.00834472 5.44251e-18 0.00104126)
(-0.00927873 0.00241073 -2.03823e-17 0.00805695 -1.04792e-17 0.00122178)
(-0.00879251 0.00425066 4.6856e-18 0.00738911 2.60917e-18 0.0014034)
(-0.00798524 0.00592061 2.24633e-17 0.00641934 1.85362e-17 0.0015659)
(-0.00698499 0.00731688 -3.28958e-17 0.0053301 -9.19635e-18 0.00165489)
(-0.00586369 0.00844938 -6.5605e-18 0.00418077 2.94356e-17 0.00168291)
(-0.00460283 0.00931479 -2.43148e-18 0.00294832 -4.05026e-18 0.00165451)
(-0.00280387 0.0086478 -2.69385e-17 0.00142388 -4.0092e-18 0.00137998)
(-0.000559792 0.00334872 1.14285e-17 8.07269e-05 6.98346e-18 0.000479065)
(-2.63547e-05 0.00176637 2.04616e-19 -0.000199363 -3.22908e-19 0.000225718)
(7.82284e-06 5.80737e-05 1.74852e-19 -1.4419e-05 4.8208e-20 6.59614e-06)
(1.30923e-05 5.25665e-05 1.25193e-19 -1.80375e-05 4.05237e-20 4.9452e-06)
(0.00188124 0.00636314 -1.72111e-18 -0.00223237 -1.44631e-19 0.000351133)
(1.31978e-05 4.38742e-05 1.2156e-21 -1.43623e-05 -2.39623e-21 1.16448e-06)
(1.29202e-05 3.31287e-05 1.3572e-20 -1.32956e-05 -3.55836e-21 3.75404e-07)
(1.3277e-05 1.55537e-05 -6.34321e-21 -1.32275e-05 -9.17108e-21 -4.94624e-08)
(1.34114e-05 -2.29996e-06 -8.68479e-20 -1.33651e-05 -1.6977e-21 -4.62557e-08)
(1.24843e-05 -2.01229e-05 8.26734e-21 -1.27343e-05 4.87279e-22 2.50025e-07)
(1.00905e-05 -3.67163e-05 -1.57697e-20 -1.06738e-05 5.40483e-21 5.83351e-07)
(7.27618e-06 -4.92461e-05 -2.47445e-19 -8.00889e-06 -1.88648e-19 7.3271e-07)
(4.20427e-06 -6.04569e-05 -2.49604e-20 -4.93197e-06 -9.04677e-20 7.27699e-07)
(1.19125e-06 -5.23348e-05 -6.90505e-19 -1.03628e-06 4.96896e-20 -1.54968e-07)
(0.00129726 -0.00843563 3.16833e-17 -0.00103586 1.02197e-16 -0.000261398)
(0.0029457 -0.0233788 -5.75309e-20 -0.00589205 9.62487e-21 0.00294635)
(0.00259889 -0.00172854 8.86507e-19 -0.00253556 6.10319e-18 -6.33379e-05)
(0.135399 -0.0604941 -8.51474e-18 -0.111249 1.43336e-16 -0.0241504)
(-0.957735 -2.24628 1.88148e-14 1.05688 3.48974e-14 -0.0991458)
(0.00718498 -0.00405919 4.04643e-19 -0.00726288 2.13264e-19 7.79014e-05)
(0.00727579 -0.00258461 -1.0837e-18 -0.00731607 -1.63635e-18 4.02826e-05)
(0.00350186 -0.000501363 -3.09023e-19 -0.00352038 4.99064e-19 1.85185e-05)
(0.00544596 0.000393878 2.15642e-18 -0.0054617 1.31944e-18 1.57428e-05)
(0.00524006 0.00162871 -7.75714e-19 -0.00525084 -4.07597e-18 1.0779e-05)
(0.00615166 0.00370161 -2.01725e-18 -0.00614753 1.74415e-18 -4.12858e-06)
(0.00542718 0.00546413 5.75776e-18 -0.00541939 4.42277e-18 -7.79076e-06)
(0.00397385 0.0067082 -2.21251e-18 -0.00397576 -5.34136e-18 1.9098e-06)
(0.00222706 0.0074767 -5.34655e-18 -0.00223611 -2.24041e-18 9.05428e-06)
(0.000335969 0.00665825 -3.7852e-18 -0.000348365 1.49809e-18 1.23955e-05)
(-0.00103216 0.00587441 4.39676e-18 0.00101991 2.19961e-20 1.22533e-05)
(-0.00165724 0.00414876 -2.2897e-18 0.00164686 -1.84861e-18 1.03816e-05)
(-0.00168911 0.00264656 -2.15447e-18 0.00167838 1.63386e-18 1.07222e-05)
(-0.00181104 0.00198639 2.05344e-18 0.00179551 7.88785e-19 1.55245e-05)
(-0.00180457 0.00145159 -3.17403e-18 0.00178249 5.78288e-19 2.2081e-05)
(-0.00173895 0.00103886 -6.90985e-19 0.00170819 -2.11217e-18 3.07551e-05)
(-0.00169904 0.000744855 8.99538e-19 0.00165687 1.15022e-18 4.21645e-05)
(-0.00163332 0.000501611 -3.97705e-18 0.00157829 2.54219e-19 5.5032e-05)
(-0.00152333 0.000291017 1.63736e-18 0.00145654 -5.85163e-20 6.67818e-05)
(-0.00136281 0.000109021 -6.40387e-18 0.00128746 5.39424e-19 7.53536e-05)
(-0.00119333 -4.11346e-05 -7.45602e-19 0.00111255 2.05958e-19 8.07848e-05)
(-0.00103083 -0.00016804 4.95764e-18 0.000946627 2.74957e-19 8.42049e-05)
(-0.000851884 -0.00027245 4.45012e-18 0.000768671 -9.35609e-19 8.32136e-05)
(-0.00066055 -0.000347478 -3.548e-18 0.000578781 2.74358e-19 8.17682e-05)
(-0.000490628 -0.000391661 -4.42597e-20 0.000406922 2.18249e-20 8.37064e-05)
(-0.000343401 -0.000400942 -3.21773e-18 0.000257207 7.18935e-19 8.61947e-05)
(-0.000213864 -0.000379525 -4.21785e-20 0.000123273 8.2395e-22 9.05912e-05)
(-0.000109046 -0.000346537 -8.52867e-23 1.18265e-05 -4.46361e-21 9.72195e-05)
(-2.50763e-05 -0.000310886 2.39857e-21 -8.03432e-05 -1.88189e-22 0.00010542)
(4.3093e-05 -0.000272222 1.06889e-18 -0.000156621 3.98677e-20 0.000113528)
(9.38825e-05 -0.000231877 1.40203e-21 -0.000211555 -7.99564e-20 0.000117672)
(0.00013212 -0.000199985 -3.13534e-20 -0.000253268 -4.73382e-21 0.000121149)
(0.000164468 -0.000174064 -6.82976e-18 -0.000289883 -7.58117e-19 0.000125416)
(0.000200799 -0.000157024 -6.93242e-18 -0.000333941 -5.40695e-19 0.000133143)
(0.000186027 -0.000110596 2.07191e-20 -0.000295656 6.07779e-21 0.000109629)
(0.000413605 -0.000217668 -2.15038e-17 -0.00061259 -3.01121e-18 0.000198985)
(1.41483e-05 -6.327e-06 1.71742e-20 -1.97388e-05 -1.38556e-19 5.59056e-06)
(0.0118612 -0.00561954 1.14625e-18 -0.0146802 3.20092e-19 0.00281901)
(0.948642 0.623366 -5.66961e-14 -0.96088 -6.72955e-15 0.0122384)
(0.00886649 -0.00734867 7.66008e-19 -0.00882171 8.46047e-19 -4.4776e-05)
(0.00755063 -0.00872927 -5.69181e-19 -0.00751028 -6.02653e-19 -4.03498e-05)
(0.00590641 -0.0101103 -5.87122e-21 -0.00583878 -5.40651e-20 -6.76225e-05)
(0.00394715 -0.0111606 -2.71414e-19 -0.00386485 2.29795e-19 -8.23013e-05)
(0.00180417 -0.0118391 7.58937e-18 -0.00170267 7.86931e-18 -0.000101504)
(-0.000523909 -0.0120732 -4.95634e-18 0.000661799 -6.13159e-18 -0.000137889)
(-0.00286715 -0.0118277 -3.53917e-19 0.00304116 1.50983e-18 -0.000174011)
(-0.005106 -0.0111394 1.80444e-17 0.00532693 1.70507e-17 -0.000220929)
(-0.00717278 -0.0100435 -4.22664e-18 0.0074588 3.54515e-19 -0.000286026)
(-0.00897761 -0.00861249 -2.25178e-17 0.00933972 -1.49512e-17 -0.000362115)
(-0.0104751 -0.00691362 7.44298e-18 0.0109338 6.15466e-18 -0.000458672)
(-0.0116401 -0.00501316 -2.12089e-17 0.012219 -6.78053e-18 -0.000578873)
(-0.0124605 -0.00299083 -8.52409e-18 0.0131852 -3.19467e-18 -0.000724732)
(-0.0129449 -0.000906415 -1.57815e-17 0.0138515 8.63817e-18 -0.000906592)