/*--------------------------------*- C++ -*----------------------------------*\
| =========                 |                                                 |
| \\      /  F ield         | OpenFOAM: The Open Source CFD Toolbox           |
|  \\    /   O peration     | Version:  2312                                  |
|   \\  /    A nd           | Website:  www.openfoam.com                      |
|    \\/     M anipulation  |                                                 |
\*---------------------------------------------------------------------------*/
FoamFile
{
    version     2.0;
    format      ascii;
    arch        "LSB;label=32;scalar=64";
    class       volVectorField;
    location    "450";
    object      U;
}
// * * * * * * * * * * * * * * * * * * * * * * * * * * * * * * * * * * * * * //

dimensions      [0 1 -1 0 0 0 0];

internalField   nonuniform List<vector> 
10720
(
(0.446366 26.2769 9.32784e-18)
(2.09756 28.5783 -8.542e-18)
(4.18274 30.8146 0)
(6.59621 32.5899 -3.59774e-16)
(9.27527 33.9788 4.01687e-16)
(12.1541 34.9354 3.00067e-16)
(15.0819 35.3608 4.24572e-16)
(17.9638 35.2862 0)
(20.7163 34.7707 0)
(23.2582 33.8526 0)
(25.5509 32.6038 1.177e-16)
(27.5742 31.1326 0)
(29.2658 29.4106 2.35756e-15)
(30.6077 27.4679 0)
(31.5661 25.3249 0)
(32.1293 23.0142 0)
(32.2597 20.5415 -4.24595e-15)
(31.9394 17.9513 -6.55057e-15)
(31.1458 15.2648 6.03978e-15)
(29.9394 12.5596 0)
(28.4358 9.92293 5.42797e-15)
(26.9848 7.5212 -1.10366e-14)
(26.2864 5.57064 5.4457e-15)
(26.9081 4.04678 -1.41712e-16)
(29.3092 2.66843 0)
(31.2111 2.1012 1.14902e-15)
(32.7408 1.55711 1.14309e-17)
(32.7851 0.0158479 -2.38157e-16)
(31.9915 -1.92385 -9.23079e-16)
(31.0752 -2.74485 -3.54532e-15)
(29.8562 -2.91246 2.14472e-15)
(27.8195 -2.99113 6.18481e-15)
(24.3407 -2.7228 6.35845e-15)
(18.085 -2.05068 2.54109e-14)
(7.4166 -0.775954 -1.76591e-14)
(-4.01769 0.242584 -3.14833e-16)
(9.86379 -2.58549 5.31108e-17)
(11.3372 -2.36513 2.75277e-14)
(-9.32318 1.92638 -1.29317e-14)
(-0.838859 23.8341 -3.517e-18)
(-1.85417 21.0951 -1.95993e-17)
(-2.52381 18.0226 7.264e-17)
(-2.72979 14.4846 -2.01521e-16)
(-2.31375 10.8349 -6.71325e-16)
(-1.26118 7.23455 1.19202e-15)
(0.289893 4.02968 6.6675e-15)
(2.08337 1.42049 3.20302e-15)
(4.09321 -0.912156 0)
(6.36742 -2.86494 0)
(8.6339 -4.25363 1.86035e-15)
(10.7013 -5.12223 6.83635e-16)
(12.5318 -5.6066 -1.14898e-15)
(14.1331 -5.82167 9.46212e-16)
(15.5249 -5.8604 1.56045e-15)
(16.7395 -5.78378 1.00477e-15)
(17.8087 -5.64055 1.26966e-15)
(18.7653 -5.45604 8.37467e-16)
(19.6432 -5.24018 0)
(20.4612 -5.00888 0)
(21.2386 -4.76117 -1.11207e-15)
(21.992 -4.46852 -4.77239e-17)
(22.7139 -4.13371 6.93635e-16)
(23.3736 -3.73044 -4.41607e-16)
(23.9009 -3.25853 2.74075e-17)
(24.2763 -2.73867 0)
(24.5217 -2.18401 2.08143e-17)
(24.6597 -1.63644 0)
(24.6361 -1.11602 0)
(24.4186 -0.626086 -6.53211e-17)
(23.9983 -0.165312 0)
(23.3742 0.263945 3.74934e-16)
(22.5411 0.655226 6.74967e-16)
(21.4793 0.997304 3.13312e-15)
(20.1447 1.282 -9.22075e-16)
(18.5009 1.48129 3.10526e-18)
(16.3899 1.69836 0)
(14.4998 1.24034 2.85561e-15)
(18.4693 3.15057 2.79083e-15)
(7.0348 22.805 -1.11267e-17)
(8.83628 24.5387 3.10587e-18)
(11.0451 26.1248 0)
(13.604 27.4579 0)
(16.3757 28.475 -1.18021e-16)
(19.3638 29.1157 -2.8792e-16)
(22.4591 29.3322 0)
(25.5323 29.1419 0)
(28.5302 28.5528 6.35186e-16)
(31.3678 27.6106 0)
(33.9962 26.3747 2.38314e-15)
(36.3828 24.8823 0)
(38.5444 23.2624 8.60809e-16)
(40.4942 21.5654 -8.4498e-16)
(42.2526 19.8054 1.71381e-15)
(43.7717 18.0209 -3.4217e-15)
(45.0353 16.2286 3.65127e-15)
(46.0158 14.4439 3.33059e-15)
(46.6737 12.6551 3.25357e-15)
(46.9388 10.8519 1.98665e-16)
(46.729 9.00047 -3.42227e-15)
(45.9735 7.07096 3.29434e-15)
(44.5233 5.04716 -1.85951e-16)
(42.2503 3.11868 0)
(38.9065 1.69619 0)
(36.236 0.587343 0)
(34.6275 -0.116008 5.37323e-17)
(33.6333 -0.616504 -9.5868e-18)
(32.688 -1.06397 6.60936e-16)
(31.7186 -1.62992 -1.97631e-17)
(30.7058 -2.19404 4.61667e-18)
(29.8304 -2.62871 -4.14327e-17)
(29.1699 -2.92921 4.2821e-15)
(28.5022 -2.96236 -6.82287e-15)
(21.1179 -2.13031 -4.43031e-17)
(10.288 -1.31983 -1.55774e-14)
(13.4338 -2.81791 0)
(8.32394 -0.779939 -6.65298e-15)
(-8.8414 2.02733 -6.36556e-15)
(5.5294 20.9669 1.50266e-17)
(4.23574 18.9323 -5.85776e-17)
(3.12755 16.5579 -6.83744e-16)
(2.3157 13.87 8.53087e-16)
(1.98324 10.9592 0)
(2.21842 7.97573 -1.82487e-15)
(3.01957 5.14554 -1.40702e-15)
(4.24365 2.63199 -9.61813e-15)
(5.77644 0.402838 2.43019e-15)
(7.58058 -1.3771 -1.78254e-15)
(9.47605 -2.62334 2.22891e-15)
(11.3079 -3.42124 -6.29497e-16)
(13.0125 -3.88954 0)
(14.566 -4.11731 -4.08711e-16)
(15.9603 -4.18418 6.205e-17)
(17.2083 -4.14218 -8.94021e-16)
(18.3279 -4.03467 0)
(19.3453 -3.88576 0)
(20.2819 -3.71701 -8.95061e-17)
(21.1641 -3.51643 8.6822e-17)
(22.0093 -3.28249 -1.00159e-15)
(22.8201 -3.00903 -1.02294e-16)
(23.6066 -2.65589 4.52952e-17)
(24.3441 -2.19069 4.61231e-16)
(24.9821 -1.61722 -2.74878e-16)
(25.4959 -1.00758 -1.75763e-16)
(25.9033 -0.400675 0)
(26.2119 0.195975 0)
(26.4784 0.776842 0)
(26.7271 1.33661 9.5299e-18)
(26.9567 1.86255 0)
(27.158 2.34702 0)
(27.3187 2.78504 -1.0178e-15)
(27.4236 3.17179 -8.97715e-16)
(27.4313 3.50184 6.39903e-16)
(27.3305 3.79364 -2.36282e-16)
(26.8011 3.96785 -3.59523e-16)
(26.6553 4.65204 -1.9959e-15)
(22.8098 4.22016 -1.43058e-15)
(8.35882 21.0211 -2.60537e-18)
(9.63917 22.5508 -6.06038e-18)
(11.207 24.0482 2.90917e-18)
(13.018 25.4396 -2.81205e-17)
(15.0233 26.6086 -1.51281e-16)
(17.2223 27.5327 5.41261e-16)
(19.543 28.1715 -3.82368e-16)
(21.9131 28.4865 -4.62966e-16)
(24.277 28.4763 1.02986e-17)
(26.5774 28.1504 -6.19897e-16)
(28.7615 27.5292 5.86545e-16)
(30.7958 26.6406 -1.53316e-15)
(32.6501 25.5109 -7.34298e-16)
(34.3139 24.1647 0)
(35.7612 22.6427 -1.79699e-15)
(37.0357 20.9568 3.63572e-15)
(38.1758 19.1189 0)
(39.19 17.1691 -6.94428e-15)
(40.1078 15.1317 -3.48267e-15)
(40.918 13.0471 4.07664e-16)
(41.6047 10.9277 -4.01052e-16)
(42.0607 8.80598 -1.82477e-16)
(42.1338 6.72748 -2.55813e-15)
(41.725 4.81381 1.20725e-15)
(40.6224 3.13516 0)
(38.9781 1.72404 8.24564e-16)
(36.735 0.47308 -6.78766e-17)
(34.9438 -0.39706 0)
(33.516 -1.06053 9.86671e-16)
(32.1488 -1.70731 1.618e-15)
(30.926 -2.26715 -3.22016e-15)
(29.795 -2.6996 -3.77239e-15)
(28.5588 -2.93555 -9.0377e-17)
(28.6976 -2.88501 -5.91969e-15)
(26.806 -2.58879 -4.61204e-15)
(21.6765 -2.50392 8.89251e-15)
(20.4561 -3.49052 0)
(5.03256 0.43119 -4.51326e-15)
(-7.94415 1.89597 1.18031e-14)
(7.32377 19.4162 -1.95368e-17)
(6.42484 17.6722 -6.75763e-17)
(5.69364 15.627 2.7731e-16)
(5.12449 13.3445 0)
(4.8697 10.9013 5.06903e-16)
(4.97345 8.3761 0)
(5.46046 5.91288 3.82412e-15)
(6.28119 3.63237 2.03985e-15)
(7.41684 1.59915 1.65e-15)
(8.80501 -0.101398 0)
(10.3105 -1.4313 -2.31679e-15)
(11.8226 -2.42082 -4.86616e-16)
(13.2805 -3.12614 2.19176e-15)
(14.651 -3.60098 0)
(15.9162 -3.89601 -9.95718e-16)
(17.075 -4.05477 -2.9922e-16)
(18.1354 -4.11537 1.21605e-15)
(19.1122 -4.1031 6.24336e-16)
(20.0242 -4.03513 1.67319e-16)
(20.8879 -3.91504 -9.25518e-17)
(21.7162 -3.74516 9.198e-16)
(22.52 -3.51503 0)
(23.2974 -3.20971 0)
(24.0291 -2.81095 2.74111e-17)
(24.6702 -2.33554 0)
(25.1968 -1.83374 3.77186e-16)
(25.6207 -1.32392 -4.31344e-18)
(25.9551 -0.810023 -6.91706e-18)
(26.2051 -0.299176 0)
(26.3739 0.199174 4.57785e-17)
(26.4719 0.684985 -1.01757e-16)
(26.5114 1.15592 0)
(26.5066 1.61046 4.76803e-16)
(26.476 2.04727 0)
(26.4259 2.47092 0)
(26.4225 2.88641 5.04416e-17)
(26.2909 3.34135 -1.08711e-16)
(26.322 3.83758 1.83655e-15)
(23.8107 4.15179 1.32225e-15)
(10.887 19.255 -1.55586e-17)
(12.0827 20.5539 -1.51466e-17)
(13.5261 21.8264 8.17383e-18)
(15.1944 22.9976 5.03249e-19)
(17.0444 23.9781 0)
(19.0828 24.7501 0)
(21.256 25.2689 -6.39147e-16)
(23.5058 25.4981 7.8103e-16)
(25.7868 25.4289 0)
(28.0453 25.0611 -9.78724e-16)
(30.2307 24.4068 -1.26003e-15)
(32.3054 23.4856 -1.19464e-15)
(34.2344 22.3265 1.4397e-15)
(35.9897 20.9652 1.36171e-15)
(37.5557 19.4353 0)
(38.9174 17.773 2.18681e-15)
(40.0299 16.0312 7.56042e-16)
(40.8762 14.247 6.14992e-15)
(41.4517 12.4452 3.74265e-16)
(41.7728 10.6408 -3.7103e-16)
(41.8569 8.84636 3.17458e-15)
(41.7227 7.08091 -5.23755e-16)
(41.3613 5.38426 2.88412e-15)
(40.8072 3.87904 1.17407e-15)
(40.0965 2.68801 -6.43593e-17)
(39.3414 1.69434 -9.25899e-16)
(38.2101 0.795724 6.06915e-18)
(36.7567 -0.0821785 -6.16971e-18)
(35.2566 -0.923138 -1.5325e-15)
(33.6759 -1.65207 -4.16767e-17)
(32.0403 -2.23611 2.65669e-15)
(30.4661 -2.66494 -4.71325e-15)
(28.81 -2.89553 -3.959e-15)
(27.7111 -2.73575 -6.59865e-17)
(27.3367 -2.60111 4.12926e-15)
(26.0203 -2.88921 0)
(23.4893 -3.3749 4.14491e-15)
(3.34539 1.43532 3.44418e-15)
(-7.27381 1.85953 -7.07794e-15)
(9.89225 17.9004 -3.22017e-17)
(9.00873 16.4379 9.30921e-17)
(8.25219 14.7173 3.87989e-16)
(7.63528 12.7803 0)
(7.2865 10.6991 -4.43149e-16)
(7.23618 8.5291 0)
(7.50482 6.37133 -2.73896e-15)
(8.06278 4.32659 -1.07437e-16)
(8.8947 2.467 1.20533e-15)
(9.95651 0.860447 1.04398e-15)
(11.1578 -0.451951 3.37282e-17)
(12.4173 -1.47022 1.73685e-15)
(13.6802 -2.22613 -1.10254e-15)
(14.9083 -2.75916 3.50794e-16)
(16.0765 -3.10872 1.18111e-15)
(17.1733 -3.31431 1.28721e-15)
(18.1974 -3.41015 -1.14138e-15)
(19.1543 -3.42288 9.08464e-18)
(20.0546 -3.37173 0)
(20.9105 -3.2652 1.14946e-15)
(21.7316 -3.10516 5.45502e-17)
(22.5241 -2.8857 -8.29112e-16)
(23.2874 -2.59604 0)
(24.0052 -2.21746 2.73942e-17)
(24.6411 -1.75501 0)
(25.1714 -1.24639 -1.85978e-16)
(25.6017 -0.713731 0)
(25.9431 -0.16963 6.5413e-18)
(26.2007 0.37572 2.49499e-19)
(26.3777 0.911761 -2.97319e-19)
(26.4776 1.4251 9.36018e-17)
(26.5051 1.90253 2.87026e-18)
(26.4657 2.33872 0)
(26.3658 2.72944 -3.10091e-16)
(26.2033 3.07775 -4.3212e-18)
(26.0044 3.38325 1.72908e-16)
(25.6831 3.70272 1.00027e-15)
(25.3832 4.03741 4.45083e-18)
(23.8658 4.11172 0)
(12.4486 17.9333 -2.11628e-17)
(13.4563 19.0846 -7.32085e-18)
(14.6786 20.2338 1.39486e-17)
(16.0823 21.3178 6.89633e-17)
(17.6301 22.2548 -3.36606e-17)
(19.3427 23.0413 -1.58125e-16)
(21.1755 23.6369 2.71128e-16)
(23.0833 24.0056 0)
(25.0364 24.1368 1.11577e-15)
(26.9897 24.0225 5.29712e-16)
(28.9028 23.663 0)
(30.742 23.0682 1.14781e-15)
(32.4733 22.2555 -6.13241e-16)
(34.0688 21.2448 1.70934e-15)
(35.5082 20.0597 0)
(36.7721 18.7221 -2.88567e-15)
(37.855 17.2406 2.76359e-15)
(38.7604 15.6177 -1.69506e-16)
(39.4784 13.8724 0)
(39.9902 12.0389 3.03066e-15)
(40.275 10.151 -3.08383e-15)
(40.3064 8.26046 -1.59283e-16)
(40.0618 6.42632 -2.44935e-15)
(39.5443 4.7578 -2.27211e-15)
(38.8687 3.33909 0)
(38.1329 2.1797 0)
(37.4362 1.20241 -2.41378e-16)
(36.7041 0.269552 -2.71254e-17)
(35.8439 -0.628445 1.6922e-15)
(34.8065 -1.40488 -4.47652e-17)
(33.5853 -2.04211 4.56585e-17)
(32.1925 -2.5219 4.69724e-15)
(30.5517 -2.81426 0)
(28.6548 -2.7033 1.07577e-14)
(27.2387 -2.55945 -3.4499e-17)
(27.0676 -2.77438 0)
(24.0017 -2.62494 1.15059e-17)
(3.06317 2.2078 0)
(-6.75404 1.83753 1.41695e-14)
(11.6037 16.7386 3.34984e-17)
(10.8501 15.4614 -2.03817e-16)
(10.1847 13.9577 -4.53208e-17)
(9.61481 12.2672 8.80101e-16)
(9.25433 10.4571 -1.3867e-15)
(9.12555 8.56126 -1.79949e-15)
(9.25131 6.65031 2.07407e-15)
(9.62417 4.81289 -2.07195e-15)
(10.236 3.1213 -9.14443e-16)
(11.0535 1.62543 -8.03022e-16)
(12.0134 0.359787 1.54142e-15)
(13.0544 -0.666468 -1.46558e-15)
(14.1314 -1.47182 -6.34783e-16)
(15.2086 -2.08273 6.18202e-16)
(16.2595 -2.52499 -1.32378e-15)
(17.2688 -2.82852 2.44717e-16)
(18.2294 -3.01968 0)
(19.1405 -3.12043 -8.98858e-16)
(20.0073 -3.1469 3.15585e-16)
(20.8371 -3.10796 -1.20945e-15)
(21.6366 -3.0063 0)
(22.4098 -2.8383 7.22489e-16)
(23.1549 -2.59538 5.55531e-16)
(23.8573 -2.26577 -3.94913e-16)
(24.4862 -1.85584 0)
(25.0185 -1.39829 -2.22191e-16)
(25.4553 -0.917977 0)
(25.8052 -0.427427 0)
(26.073 0.0632258 0)
(26.261 0.543658 -1.75696e-17)
(26.3725 1.0058 0)
(26.413 1.44915 0)
(26.3883 1.8713 3.1251e-16)
(26.3028 2.26878 2.99208e-16)
(26.1528 2.64216 0)
(25.9461 2.99276 6.55445e-17)
(25.6134 3.35327 9.47501e-17)
(25.1831 3.67409 0)
(23.8777 4.03476 -4.81053e-16)
(13.9299 16.7702 2.64948e-17)
(14.8444 17.7889 -1.88312e-17)
(15.9492 18.8115 0)
(17.2134 19.7788 9.69699e-18)
(18.6006 20.6183 -7.9137e-17)
(20.1403 21.3317 1.4826e-16)
(21.794 21.8802 4.52325e-17)
(23.5255 22.2313 -6.8243e-16)
(25.3147 22.3713 -8.93558e-17)
(27.1246 22.2881 1.07278e-15)
(28.9208 21.9764 -3.84234e-16)
(30.6742 21.4385 8.80597e-16)
(32.3521 20.6828 4.42864e-16)
(33.9262 19.7221 3.17881e-16)
(35.3726 18.5738 0)
(36.6698 17.257 -6.2338e-16)
(37.7993 15.7944 -1.3895e-15)
(38.7306 14.2307 -5.14352e-15)
(39.4426 12.6035 1.52328e-15)
(39.9263 10.9359 -1.94612e-15)
(40.1729 9.25021 -3.05172e-16)
(40.1735 7.57135 0)
(39.916 5.93869 2.17853e-15)
(39.4052 4.42885 1.39755e-16)
(38.7097 3.12561 -6.20243e-17)
(37.9319 2.03426 -8.64606e-16)
(37.1542 1.08434 1.98027e-16)
(36.3883 0.189421 4.15495e-16)
(35.586 -0.650759 -1.56235e-15)
(34.6988 -1.38658 -8.23312e-17)
(33.7181 -2.00576 2.61588e-15)
(32.6365 -2.48532 4.13501e-15)
(31.4015 -2.77466 0)
(29.9551 -2.71378 3.33433e-17)
(27.9689 -2.5746 -3.68853e-15)
(27.5365 -2.58118 0)
(24.5477 -1.83041 -3.72627e-15)
(3.93519 2.62595 0)
(-5.26015 1.36409 -3.8463e-14)
(13.155 15.7163 -3.31337e-17)
(12.4603 14.5963 8.21335e-17)
(11.8332 13.2737 -2.02049e-16)
(11.2822 11.7834 0)
(10.9071 10.189 5.85857e-16)
(10.7235 8.51262 2.92473e-15)
(10.7516 6.80482 0)
(10.993 5.14654 -1.49748e-15)
(11.4425 3.60653 -1.42084e-15)
(12.074 2.22085 1.41539e-15)
(12.8424 1.01849 -5.60947e-17)
(13.7013 0.014152 6.0967e-16)
(14.6159 -0.801691 3.48406e-17)
(15.5558 -1.44576 1.58377e-15)
(16.4959 -1.93406 1.40662e-15)
(17.4197 -2.28816 -1.31288e-15)
(18.317 -2.52822 1.82483e-16)
(19.1826 -2.67244 -3.38404e-16)
(20.0166 -2.73526 1.56191e-16)
(20.822 -2.72613 8.94614e-16)
(21.6019 -2.64915 1.14988e-16)
(22.3579 -2.50304 -7.97832e-17)
(23.0869 -2.28186 -4.70477e-16)
(23.7755 -1.97767 0)
(24.3972 -1.59483 1.70038e-17)
(24.9299 -1.15904 4.22325e-16)
(25.3713 -0.693262 -1.66705e-18)
(25.7276 -0.209711 1.66947e-18)
(26.0026 0.281938 0)
(26.1983 0.771283 1.66243e-17)
(26.3174 1.24977 0)
(26.3645 1.70592 0)
(26.3454 2.13164 -2.93107e-16)
(26.2648 2.52138 -2.21812e-16)
(26.1198 2.87559 0)
(25.9188 3.19157 -6.20873e-17)
(25.5929 3.50955 -1.2719e-15)
(25.18 3.75984 9.10256e-18)
(23.933 3.96269 8.0788e-16)
(15.133 15.7854 1.18659e-18)
(15.9548 16.6996 -1.74635e-17)
(16.947 17.6245 1.55113e-17)
(18.0768 18.5048 -1.50403e-17)
(19.3081 19.2759 5.63844e-17)
(20.6754 19.9452 0)
(22.1436 20.479 -2.96597e-16)
(23.6821 20.8475 2.56377e-18)
(25.279 21.0396 -3.18299e-16)
(26.9027 21.0425 -6.48029e-16)
(28.5257 20.8484 0)
(30.1242 20.4558 -1.59575e-15)
(31.6685 19.8682 -1.38253e-15)
(33.1322 19.0932 -3.38203e-15)
(34.4911 18.1434 0)
(35.722 17.0344 -2.1114e-15)
(36.8024 15.786 -2.23015e-15)
(37.717 14.4104 2.43039e-15)
(38.454 12.9181 -2.39816e-15)
(38.9975 11.3334 2.22935e-15)
(39.3322 9.68629 2.75968e-16)
(39.4396 8.01957 -2.38653e-15)
(39.3033 6.38647 0)
(38.925 4.86422 -2.07465e-15)
(38.354 3.52948 1.22507e-16)
(37.6751 2.39047 9.00683e-16)
(36.9532 1.38834 0)
(36.2002 0.458741 -3.05949e-17)
(35.3895 -0.40648 6.59609e-17)
(34.4909 -1.17107 2.52924e-15)
(33.5161 -1.81436 -2.30703e-15)
(32.4944 -2.31697 -3.87759e-15)
(31.3924 -2.62867 3.08714e-15)
(30.425 -2.6229 -2.22127e-18)
(28.7855 -2.56772 3.42247e-15)
(27.9258 -2.42453 4.49505e-15)
(25.9318 -1.25838 1.47489e-15)
(7.6278 2.3686 -3.87844e-17)
(1.9357 -0.607271 1.12544e-16)
(14.4308 14.8416 1.32716e-17)
(13.7981 13.8446 1.55507e-16)
(13.215 12.6648 2.05046e-16)
(12.69 11.3342 -3.96537e-16)
(12.3122 9.91426 -1.55579e-15)
(12.0935 8.41586 5.02183e-16)
(12.0542 6.87675 1.22115e-15)
(12.2007 5.37338 3.04459e-15)
(12.5289 3.9691 1.21343e-15)
(13.0186 2.68914 -1.13326e-15)
(13.6357 1.55813 -3.3951e-17)
(14.3448 0.591689 -5.38251e-16)
(15.1192 -0.215807 0)
(15.934 -0.875222 -2.4718e-17)
(16.7673 -1.3963 -8.63765e-16)
(17.6036 -1.79432 3.73626e-16)
(18.4318 -2.08393 -3.67204e-16)
(19.2437 -2.2789 0)
(20.0361 -2.39072 5.46075e-16)
(20.8087 -2.4276 -9.40328e-16)
(21.5619 -2.39323 0)
(22.2948 -2.28716 6.71516e-16)
(23.0033 -2.10517 0)
(23.6751 -1.84212 -2.32726e-17)
(24.2867 -1.50214 2.32327e-17)
(24.8172 -1.10636 -2.10579e-16)
(25.2616 -0.676517 -4.0799e-18)
(25.6236 -0.225918 -1.84821e-18)
(25.9063 0.234721 9.45368e-20)
(26.1111 0.69435 7.58898e-19)
(26.2401 1.14245 3.10241e-17)
(26.2975 1.5723 -9.14749e-17)
(26.2886 1.97997 -3.393e-18)
(26.2176 2.36154 3.26108e-17)
(26.0809 2.71675 0)
(25.8878 3.04443 2.64895e-18)
(25.5653 3.37291 6.26951e-16)
(25.1771 3.62629 -1.08364e-17)
(24.0396 3.86111 1.54637e-15)
(16.1867 14.9182 5.03322e-18)
(16.9398 15.7427 2.65455e-17)
(17.8476 16.5803 0)
(18.8774 17.379 -2.45127e-17)
(19.9928 18.0805 1.00114e-17)
(21.231 18.6957 0)
(22.5604 19.1934 -1.09865e-16)
(23.9541 19.5473 8.82922e-16)
(25.4059 19.7471 -1.24735e-15)
(26.8897 19.7797 3.96963e-16)
(28.3829 19.6356 5.52528e-16)
(29.8669 19.3101 2.0236e-15)
(31.3159 18.8019 1.45853e-15)
(32.7058 18.1136 1.75148e-15)
(34.0135 17.2516 4.66177e-16)
(35.2149 16.2265 1.54913e-15)
(36.2878 15.0513 2.13422e-15)
(37.2108 13.7438 2.07701e-15)
(37.9593 12.3355 -1.53034e-15)
(38.5151 10.8539 -4.70174e-15)
(38.864 9.32668 0)
(38.9938 7.78575 9.19615e-17)
(38.8946 6.27282 1.86022e-15)
(38.572 4.84755 1.96206e-15)
(38.0672 3.57174 -1.11823e-16)
(37.4492 2.46143 -8.08636e-16)
(36.7741 1.47798 5.76517e-18)
(36.0554 0.568629 -4.09126e-16)
(35.2701 -0.279068 4.32281e-17)
(34.3858 -1.03328 -4.71239e-15)
(33.4092 -1.66779 -9.34291e-18)
(32.379 -2.16408 -6.15517e-17)
(31.2536 -2.48042 -2.94811e-15)
(30.3628 -2.49069 -4.85419e-18)
(29.169 -2.50811 -3.20869e-15)
(28.1154 -2.29732 -8.28614e-15)
(27.408 -0.914798 1.37467e-15)
(14.2502 1.49149 2.00021e-15)
(10.2185 -2.05569 -2.33919e-14)
(15.5383 14.0683 -5.69743e-17)
(14.9524 13.174 -2.09574e-16)
(14.4034 12.1139 -1.48635e-16)
(13.9003 10.9163 -3.78192e-16)
(13.5236 9.6408 8.60889e-16)
(13.2813 8.28957 -6.15091e-17)
(13.1948 6.89279 -2.99965e-15)
(13.2718 5.52381 -1.03293e-15)
(13.5082 4.23931 1.95382e-17)
(13.8886 3.05725 0)
(14.3859 1.99892 -9.57337e-16)
(14.9721 1.07923 8.88996e-16)
(15.6269 0.294121 -8.52754e-16)
(16.3307 -0.36377 -4.35621e-16)
(17.0652 -0.899815 3.60216e-16)
(17.8172 -1.32455 3.58703e-16)
(18.5755 -1.64771 1.2754e-15)
(19.3313 -1.87883 -3.01275e-16)
(20.0792 -2.02643 -5.0688e-16)
(20.8162 -2.09716 0)
(21.5403 -2.09421 -7.57816e-16)
(22.2488 -2.01773 -5.54158e-16)
(22.9364 -1.86482 -1.2975e-17)
(23.5911 -1.63242 -5.80765e-17)
(24.192 -1.32434 -1.71999e-17)
(24.719 -0.957577 2.56424e-16)
(25.1649 -0.552054 -4.00908e-18)
(25.5315 -0.121259 3.00702e-17)
(25.8206 0.324136 3.51855e-18)
(26.033 0.773217 -1.01656e-18)
(26.1702 1.2161 -1.29626e-17)
(26.2356 1.64422 1.60397e-16)
(26.2342 2.04969 1.49943e-16)
(26.1699 2.42658 1.65839e-16)
(26.0389 2.77332 2.23239e-18)
(25.8504 3.08678 -4.31157e-19)
(25.533 3.39377 -7.68708e-16)
(25.1459 3.60875 -1.75075e-15)
(24.1633 3.78554 -2.42833e-15)
(17.0976 14.1513 -1.54549e-17)
(17.7915 14.8997 -1.04273e-17)
(18.6267 15.6626 -3.40741e-17)
(19.5702 16.3916 5.89867e-17)
(20.5859 17.0329 2.39418e-17)
(21.7118 17.6006 -1.13846e-16)
(22.9188 18.0666 4.05149e-16)
(24.1828 18.4072 0)
(25.5013 18.6146 3.78898e-16)
(26.8521 18.6763 1.36384e-17)
(28.2169 18.5828 -4.72215e-16)
(29.5813 18.3284 -1.86109e-15)
(30.9233 17.9099 -7.62574e-16)
(32.2214 17.3264 0)
(33.4543 16.5816 0)
(34.5986 15.6823 0)
(35.6315 14.6396 0)
(36.5305 13.4693 -2.00307e-15)
(37.2767 12.185 2.00165e-15)
(37.8512 10.8071 1.96499e-15)
(38.2374 9.36201 -1.58484e-15)
(38.4199 7.88552 1.39952e-15)
(38.3871 6.42252 -1.44964e-15)
(38.1422 5.03069 -1.06494e-16)
(37.7177 3.76719 -4.82656e-17)
(37.1694 2.65158 8.13287e-16)
(36.5471 1.65628 1.746e-16)
(35.8698 0.739246 0)
(35.1239 -0.111106 0)
(34.2789 -0.868413 3.94172e-17)
(33.3356 -1.50636 0)
(32.3281 -2.00603 3.32801e-15)
(31.2115 -2.33469 -2.79662e-15)
(30.244 -2.36128 -3.95898e-15)
(29.241 -2.41315 6.02e-15)
(28.1178 -2.18363 3.93902e-15)
(28.2737 -0.72012 -1.24725e-15)
(20.8838 0.514114 -3.61403e-15)
(17.656 -3.09515 1.79171e-14)
(16.4964 13.3807 0)
(15.9512 12.5729 5.86382e-17)
(15.433 11.6132 2.82352e-16)
(14.9509 10.5272 -1.2144e-15)
(14.5794 9.37252 1.06758e-15)
(14.3225 8.14533 -8.28884e-16)
(14.2024 6.87052 1.26075e-17)
(14.2277 5.61842 7.89839e-16)
(14.3942 4.43992 8.29533e-16)
(14.6894 3.34797 0)
(15.0913 2.3607 3.93889e-16)
(15.577 1.49191 -1.20257e-15)
(16.1307 0.737829 1.89394e-15)
(16.7372 0.092882 3.42368e-16)
(17.3818 -0.446111 -6.95099e-16)
(18.0537 -0.886221 -6.43629e-16)
(18.7429 -1.23365 -5.87956e-16)
(19.4407 -1.49455 0)
(20.1408 -1.67458 0)
(20.8385 -1.77845 0)
(21.53 -1.80849 7.07747e-16)
(22.2109 -1.76476 0)
(22.8751 -1.64508 -4.44115e-16)
(23.5109 -1.4477 -5.60276e-17)
(24.099 -1.1761 -3.1925e-16)
(24.6203 -0.844227 -2.25038e-16)
(25.0661 -0.470024 0)
(25.4361 -0.0670735 -2.45729e-17)
(25.7309 0.353705 -3.73733e-18)
(25.9508 0.781247 6.15008e-19)
(26.0965 1.20503 -1.87332e-17)
(26.1709 1.61626 -2.19644e-17)
(26.1784 2.00862 -1.45664e-16)
(26.1226 2.37664 9.19546e-17)
(25.9991 2.71836 0)
(25.816 3.02986 -3.71139e-18)
(25.5068 3.3328 -7.57774e-17)
(25.1191 3.5379 1.6674e-15)
(24.2369 3.70117 -1.64866e-17)
(17.8985 13.4643 1.72672e-17)
(18.5431 14.1464 0)
(19.3175 14.8434 8.02835e-17)
(20.189 15.51 -4.70917e-17)
(21.1221 16.0963 -1.89012e-17)
(22.1548 16.6183 1.06362e-16)
(23.2597 17.0501 -1.7768e-16)
(24.4149 17.3711 -2.23241e-16)
(25.6207 17.5748 0)
(26.8578 17.6497 -4.06593e-16)
(28.1115 17.5866 -4.39937e-16)
(29.3712 17.3793 4.36362e-16)
(30.6177 17.0228 1.64779e-15)
(31.8333 16.5138 6.67153e-16)
(32.9985 15.8524 -2.02493e-15)
(34.0913 15.0424 -1.46856e-15)
(35.0894 14.091 1.16234e-15)
(35.9709 13.009 8.63792e-16)
(36.7139 11.8133 -4.35603e-16)
(37.297 10.5272 4.36736e-16)
(37.7026 9.17701 1.11277e-15)
(37.9164 7.79407 2.07269e-16)
(37.9282 6.41749 -1.95458e-16)
(37.7408 5.09594 -1.30427e-15)
(37.3805 3.87792 0)
(36.8912 2.78421 -6.8472e-16)
(36.3147 1.79834 -3.2611e-16)
(35.673 0.889305 -3.00561e-16)
(34.9608 0.0474754 -1.11024e-15)
(34.1518 -0.705585 4.13441e-15)
(33.2464 -1.34325 1.67711e-15)
(32.2753 -1.84531 1.07989e-17)
(31.2051 -2.18425 2.40895e-17)
(30.2044 -2.23591 0)
(29.235 -2.29963 -2.86637e-15)
(28.0607 -2.07744 0)
(28.5258 -0.621934 0)
(25.4109 -0.210775 1.71811e-15)
(22.6768 -3.67038 -8.13239e-17)
(17.3369 12.7623 -5.78762e-17)
(16.8263 12.0283 1.93031e-16)
(16.3353 11.1544 1.34732e-17)
(15.8729 10.1638 2.70398e-16)
(15.5085 9.11196 -9.63146e-16)
(15.2434 7.9909 6.85428e-16)
(15.0991 6.8219 3.02624e-17)
(15.0856 5.67233 -6.55393e-16)
(15.1984 4.58781 -6.39257e-16)
(15.4268 3.57785 -6.79317e-16)
(15.7523 2.65828 -1.33902e-15)
(16.1557 1.84155 0)
(16.6244 1.12346 -6.82503e-16)
(17.1466 0.499186 -2.40555e-17)
(17.7104 -0.0330423 0)
(18.3078 -0.478397 -5.67113e-16)
(18.9303 -0.840356 -2.69877e-16)
(19.5701 -1.12245 -2.52693e-16)
(20.2208 -1.32792 8.63836e-16)
(20.8769 -1.45942 7.65774e-16)
(21.5333 -1.518 -7.81042e-17)
(22.1846 -1.5034 5.81732e-16)
(22.8238 -1.41375 1.10649e-16)
(23.4394 -1.24792 -5.39168e-17)
(24.0133 -1.00911 2.83135e-16)
(24.5272 -0.708735 1.7062e-17)
(24.9713 -0.36262 0)
(25.3432 0.0159764 0)
(25.6427 0.416082 -7.84527e-19)
(25.8692 0.826723 1.34257e-18)
(26.0226 1.2373 -6.37452e-18)
(26.1052 1.63879 -2.1499e-17)
(26.1209 2.02336 -6.90415e-17)
(26.0728 2.38437 -8.79668e-17)
(25.9564 2.71885 6.94162e-19)
(25.7789 3.02135 3.49304e-18)
(25.4786 3.31047 1.59212e-15)
(25.0964 3.49355 -1.66664e-15)
(24.2783 3.62635 1.61131e-17)
(18.6058 12.8441 6.64217e-18)
(19.2073 13.4683 0)
(19.9291 14.1073 -4.45153e-17)
(20.7385 14.7184 0)
(21.6003 15.2556 -5.32962e-17)
(22.5525 15.7358 5.15274e-17)
(23.5689 16.1354 1.34029e-16)
(24.6293 16.4362 2.09828e-16)
(25.7355 16.633 0)
(26.8707 16.7157 -2.65084e-16)
(28.0233 16.6762 4.49314e-16)
(29.1852 16.5078 -9.25862e-16)
(30.3405 16.2051 -5.20443e-16)
(31.4738 15.7636 -5.32317e-16)
(32.5682 15.1815 1.28758e-15)
(33.6036 14.46 1.39948e-15)
(34.5587 13.6036 -1.50642e-15)
(35.4117 12.6215 -1.50398e-15)
(36.1415 11.5263 0)
(36.7274 10.3354 3.99846e-16)
(37.151 9.07224 -7.75078e-16)
(37.3971 7.76718 1.91254e-16)
(37.4549 6.45803 4.4412e-18)
(37.3253 5.18996 3.06761e-15)
(37.0288 4.00647 -1.67826e-16)
(36.5991 2.92866 1.01811e-16)
(36.0711 1.94838 3.0089e-16)
(35.4676 1.04418 3.17928e-16)
(34.7896 0.20837 9.52156e-16)
(34.0147 -0.541529 -1.8944e-15)
(33.1444 -1.17897 -1.53028e-15)
(32.208 -1.68352 -5.83794e-15)
(31.1852 -2.03018 4.78942e-15)
(30.2029 -2.10952 -6.32422e-17)
(29.2456 -2.17763 2.73562e-15)
(28.0385 -1.97561 -7.60038e-17)
(28.454 -0.590746 3.09879e-17)
(27.7641 -0.639742 -2.77763e-17)
(25.4607 -3.85934 8.21804e-15)
(18.0789 12.2018 2.88101e-17)
(17.5989 11.5311 -9.86962e-17)
(17.1325 10.7313 1.92647e-16)
(16.6888 9.82359 0)
(16.3324 8.86074 5.52455e-16)
(16.0635 7.83142 0)
(15.9022 6.75529 0)
(15.8594 5.69606 0)
(15.9305 4.69513 1.18149e-15)
(16.1061 3.75961 -5.7955e-16)
(16.3703 2.90352 6.56156e-16)
(16.7061 2.13815 0)
(17.1035 1.45862 0)
(17.5529 0.86011 -5.84021e-16)
(18.0452 0.341496 0)
(18.5743 -0.101162 5.2607e-16)
(19.1337 -0.469955 1.17614e-17)
(19.7168 -0.766321 0)
(20.3176 -0.99146 -6.15199e-16)
(20.9305 -1.14636 -9.04293e-16)
(21.5498 -1.23085 -6.24079e-16)
(22.1692 -1.24401 -5.3506e-16)
(22.7816 -1.18378 9.03527e-16)
(23.3754 -1.04926 0)
(23.9335 -0.84331 2.89077e-16)
(24.4382 -0.575181 2.56331e-16)
(24.8787 -0.258746 9.00039e-17)
(25.2513 0.0932639 0)
(25.5544 0.469893 -5.22246e-18)
(25.7868 0.860218 -2.36541e-17)
(25.9476 1.25355 2.81086e-17)
(26.0384 1.64038 -2.06652e-17)
(26.0625 2.01313 6.31618e-17)
(26.0226 2.36491 -2.25937e-17)
(25.914 2.69216 -1.96249e-18)
(25.7425 2.98828 1.3617e-18)
(25.4515 3.26767 -1.64292e-15)
(25.0785 3.43793 1.5441e-15)
(24.3111 3.54528 4.92161e-15)
(19.235 12.2796 3.39351e-18)
(19.799 12.8527 -1.96409e-17)
(20.4748 13.44 0)
(21.2303 14.0013 -2.94029e-17)
(22.0305 14.494 0)
(22.9131 14.9352 0)
(23.8527 15.3039 1.99655e-17)
(24.8305 15.5834 1.84248e-16)
(25.8497 15.77 4.30268e-16)
(26.8952 15.8547 1.11628e-15)
(27.9575 15.8303 6.38657e-16)
(29.031 15.6907 7.43631e-16)
(30.1021 15.4299 0)
(31.1583 15.0427 1.46796e-15)
(32.1849 14.5257 -5.21254e-16)
(33.1636 13.8782 0)
(34.0749 13.1024 1.25202e-15)
(34.8978 12.2046 1.43588e-15)
(35.6115 11.1952 0)
(36.1955 10.0904 1.41447e-15)
(36.6302 8.9125 -1.38474e-15)
(36.9006 7.68933 0)
(36.9957 6.4548 -1.64668e-16)
(36.9153 5.24884 3.05388e-17)
(36.6751 4.10935 7.87953e-17)
(36.3008 3.05692 1.17832e-15)
(35.82 2.08999 -3.96513e-18)
(35.2555 1.19555 -3.11623e-17)
(34.6126 0.368598 -2.58576e-17)
(33.8726 -0.376122 5.72981e-17)
(33.0371 -1.01208 1.53001e-15)
(32.1344 -1.51888 5.24529e-15)
(31.1511 -1.87279 5.11152e-17)
(30.1992 -1.97913 -3.35984e-15)
(29.2706 -2.05094 -2.48218e-15)
(28.0734 -1.8747 -3.48568e-15)
(28.2922 -0.603483 -1.47061e-15)
(28.7175 -0.864175 4.82773e-17)
(26.772 -3.82057 -6.89727e-15)
(18.7388 11.6895 -6.41233e-17)
(18.2859 11.0744 -2.34418e-16)
(17.8418 10.3398 4.61423e-16)
(17.4157 9.50482 0)
(17.068 8.61949 8.74124e-16)
(16.7984 7.67062 0)
(16.6254 6.67655 -4.64655e-16)
(16.5601 5.69739 1.86065e-15)
(16.5988 4.77104 -1.43414e-15)
(16.7325 3.90321 0)
(16.9469 3.10615 1.05572e-15)
(17.2273 2.3901 1.01649e-15)
(17.5648 1.74968 0)
(17.9519 1.18 -9.95589e-16)
(18.3812 0.679954 2.39448e-16)
(18.8486 0.245937 -2.39811e-16)
(19.3492 -0.123174 2.3231e-16)
(19.8777 -0.427497 4.05112e-16)
(20.4292 -0.66674 -1.62879e-17)
(20.9982 -0.840389 4.8386e-16)
(21.579 -0.947091 1.40187e-16)
(22.1652 -0.985116 -1.35598e-16)
(22.7493 -0.952127 -4.27263e-16)
(23.32 -0.847023 3.62033e-16)
(23.8608 -0.672049 -2.54793e-16)
(24.3544 -0.434754 -2.58539e-16)
(24.7897 -0.147071 -8.48315e-17)
(25.1614 0.179043 -8.32271e-19)
(25.467 0.532812 5.77444e-18)
(25.7044 0.903541 2.23631e-17)
(25.8719 1.28055 1.08042e-17)
(25.9704 1.65415 -1.98744e-17)
(26.0027 2.01623 7.51744e-18)
(25.9708 2.35912 2.32854e-17)
(25.87 2.67837 2.04222e-18)
(25.7049 2.96607 -2.28007e-16)
(25.4239 3.23298 8.1471e-16)
(25.0622 3.38762 0)
(24.3443 3.46713 -4.6449e-15)
(19.7978 11.7626 1.0818e-17)
(20.3285 12.2903 0)
(20.9636 12.8313 0)
(21.6714 13.3477 3.33669e-17)
(22.4175 13.8001 -2.03676e-17)
(23.2389 14.2056 0)
(24.111 14.545 0)
(25.0161 14.8035 -5.94378e-16)
(25.9581 14.9783 -3.06178e-17)
(26.9237 15.0618 -3.79196e-17)
(27.9046 15.0476 -1.47561e-15)
(28.8973 14.93 -3.90283e-16)
(29.8904 14.7034 7.46189e-16)
(30.8735 14.3622 -6.46358e-17)
(31.8341 13.9021 0)
(32.7559 13.3211 0)
(33.6213 12.6195 -3.42341e-15)
(34.4104 11.8015 -6.32762e-16)
(35.1032 10.8757 6.49207e-16)
(35.68 9.85481 -1.36958e-15)
(36.1215 8.75854 2.60242e-15)
(36.412 7.61232 1.23319e-15)
(36.5402 6.44739 -1.19461e-15)
(36.5044 5.30011 -1.3498e-15)
(36.3161 4.20419 2.13845e-16)
(35.9942 3.17911 -1.1542e-15)
(35.5602 2.22808 -1.29931e-16)
(35.0356 1.34519 2.87981e-17)
(34.4291 0.528218 -2.88311e-17)
(33.725 -0.209991 9.51548e-17)
(32.9254 -0.843431 -3.90898e-17)
(32.0574 -1.35199 -2.57124e-15)
(31.1115 -1.71294 -8.27096e-17)
(30.1867 -1.84462 7.40871e-17)
(29.292 -1.92073 0)
(28.1466 -1.77168 3.27549e-15)
(28.1542 -0.640249 1.43231e-15)
(28.9522 -0.970308 0)
(27.2791 -3.65167 0)
(19.3289 11.2191 0)
(18.9002 10.6532 2.08537e-16)
(18.4767 9.97614 -6.85729e-16)
(18.0673 9.20548 -3.2959e-16)
(17.7287 8.38852 -7.89231e-16)
(17.4604 7.51077 0)
(17.2797 6.58973 0)
(17.1976 5.68204 -8.29542e-16)
(17.2108 4.82271 8.63459e-16)
(17.3109 4.01628 0)
(17.4849 3.27371 -4.44097e-16)
(17.7195 2.60446 -4.77587e-16)
(18.0068 2.00284 4.49914e-16)
(18.3405 1.46345 4.6496e-16)
(18.7148 0.98498 -8.61292e-16)
(19.1268 0.564037 0)
(19.5732 0.199803 -1.92466e-16)
(20.0501 -0.107091 1.30903e-17)
(20.5535 -0.355412 8.47752e-16)
(21.0789 -0.543493 -1.5447e-16)
(21.6206 -0.668884 1.48131e-16)
(22.1724 -0.729103 -1.1139e-16)
(22.727 -0.721348 1.57343e-16)
(23.2733 -0.644134 -7.3367e-16)
(23.7953 -0.498924 -2.55561e-16)
(24.2762 -0.291695 2.12762e-16)
(24.7045 -0.0326613 -1.27815e-17)
(25.074 0.267158 0)
(25.3809 0.597322 -6.05813e-18)
(25.6223 0.947369 3.05329e-17)
(25.7959 1.30672 -2.64147e-17)
(25.9018 1.66543 2.13074e-17)
(25.9421 2.01526 -4.79661e-17)
(25.9183 2.34814 7.09183e-17)
(25.8255 2.65883 -1.09862e-18)