/*--------------------------------*- C++ -*----------------------------------*\
| =========                 |                                                 |
| \\      /  F ield         | OpenFOAM: The Open Source CFD Toolbox           |
|  \\    /   O peration     | Version:  2312                                  |
|   \\  /    A nd           | Website:  www.openfoam.com                      |
|    \\/     M anipulation  |                                                 |
\*---------------------------------------------------------------------------*/
FoamFile
{
    version     2.0;
    format      ascii;
    arch        "LSB;label=32;scalar=64";
    class       volScalarField;
    location    "450";
    object      div(phi);
}
// * * * * * * * * * * * * * * * * * * * * * * * * * * * * * * * * * * * * * //

dimensions      [0 0 -1 0 0 0 0];

internalField   nonuniform List<scalar> 
10720
(
0.000826442
0.000588351
0.00220784
-0.000460387
-0.000819317
-0.000520885
-0.00041678
-0.000414651
-0.000378119
-0.00025366
-4.05097e-05
0.000170511
0.000323935
0.000398464
0.000419128
0.00039314
0.000317379
0.000187424
1.51676e-05
-5.58143e-05
0.000168239
0.000561508
0.00103513
0.00194296
0.00274971
0.00247645
-0.000322903
-0.00508462
-0.0096889
-0.000725168
0.0200243
-0.00440918
-0.0450132
0.0160322
0.0748263
0.000780531
-0.120138
0.012322
0.0278156
0.00107247
0.00390241
0.000658202
0.000249678
0.00125957
0.00275783
0.00405936
0.00889115
0.00915646
0.00451351
0.00312378
0.00260178
0.00251393
0.00241174
0.00215468
0.00191373
0.00181429
0.00182821
0.00186163
0.00180185
0.00155763
0.00121853
0.000674238
0.000565893
0.00044334
0.000414848
0.000624998
0.00114675
0.00196773
0.00271545
0.00249302
0.000426276
-0.00223841
-0.000794235
0.00300451
-0.00136516
-0.00267576
-0.000119429
0.00271915
-0.00212919
0.00399232
-0.000456702
0.00145661
0.00103971
0.000177603
-0.000670637
-0.00130208
-0.00156469
-0.00153319
-0.00133686
-0.00111339
-0.000913596
-0.000753669
-0.000647663
-0.000581426
-0.000492729
-0.000248293
0.000298947
0.00112244
0.00212279
0.0033802
0.00454654
0.00433585
0.000570783
-0.0073221
-0.0120481
-0.00432274
0.0101158
-0.00411413
-0.0219499
0.00823895
0.0203696
0.012031
-0.105047
0.0174184
0.023495
0.0381084
0.0136632
0.00288009
0.000845697
0.00306028
0.003834
0.00407577
0.00702443
0.00942924
0.00960345
0.00825199
0.00667314
0.00589804
0.00554237
0.00521842
0.00486205
0.00460817
0.0044936
0.00440725
0.00420096
0.00383159
0.00330585
0.00266826
0.00241404
0.00212321
0.00169416
0.00174761
0.00230165
0.00329298
0.00444998
0.00479964
0.00313639
-1.99623e-06
-0.000282123
0.00147395
-0.00184997
-0.000345394
-0.000347313
-0.00060143
-0.00063476
0.000917379
0.00297125
-7.91686e-06
-0.00154195
-0.00044263
-0.000405559
-0.000595168
-0.00071954
-0.00065443
-0.000437723
-0.000150498
0.000125897
0.000336775
0.000467284
0.00051186
0.000471751
0.000379886
0.000262914
0.000206469
0.000305499
0.000502669
0.000813677
0.00154762
0.00265365
0.00311239
0.00123535
-0.00418936
-0.00845815
-0.00564913
0.0012176
-0.00280021
-0.00604805
0.00501272
0.00357299
0.00920667
-0.0137881
0.0196999
0.00295662
0.00735658
0.0181103
0.00139921
-0.000496437
0.00110936
0.00254544
0.00377964
0.00472908
0.0057356
0.0055207
0.00415074
0.00355074
0.00348806
0.00350147
0.00336706
0.00315258
0.00296041
0.00289692
0.00284436
0.00284443
0.00264338
0.00222928
0.00193666
0.0013357
0.0011336
0.00100018
0.00105309
0.00157292
0.00260602
0.00384967
0.00429072
0.00286987
0.000157567
-0.000269579
0.000737238
-0.00161453
0.00042073
-0.000621456
-0.0012536
-0.000698531
0.000419844
0.00155675
0.000932585
0.00131859
0.000910512
0.000158871
-0.000479936
-0.000894171
-0.00105735
-0.00104405
-0.000916778
-0.00075324
-0.000600851
-0.000484499
-0.000414382
-0.000378743
-0.000355492
-0.000345187
-0.000258381
2.92002e-05
0.000464688
0.00100131
0.00182978
0.00289545
0.00332333
0.00125463
-0.00491205
-0.0120531
-0.00916439
0.000650537
-0.00401295
0.00525509
0.00450791
-0.00297549
0.00852274
-0.0044932
0.0140849
0.00357446
0.00142151
0.0124448
0.000372881
0.00186792
0.00183361
0.00174605
0.00214245
0.00243839
0.00287881
0.00321345
0.00297744
0.00300707
0.00319228
0.00324785
0.00313321
0.00298184
0.00286389
0.0028621
0.00285185
0.00285431
0.00270032
0.00233522
0.0021297
0.00167019
0.00133396
0.00120549
0.00128029
0.00172151
0.00262218
0.00377872
0.00423059
0.00282399
9.9504e-05
-0.000245721
0.000937823
-0.00154712
0.000417921
-0.000472067
-0.00108022
-8.04868e-05
0.000271542
-0.000581087
0.000758516
0.000536914
5.65037e-05
-0.000460294
-0.000760685
-0.000860532
-0.000795786
-0.000638955
-0.000430639
-0.000220481
-5.53746e-05
5.59798e-05
0.000115466
0.000132641
0.000113532
5.79745e-05
5.12887e-05
0.000229862
0.000559897
0.00100831
0.00178838
0.00286613
0.00359735
0.00120907
-0.00759647
-0.0195238
-0.0119001
0.0110588
-0.00617012
-0.00181445
0.00586906
-0.00332711
0.00760522
-0.00396441
0.0113023
0.00592994
-0.00306878
0.00388015
0.001055
0.00175333
0.00157923
0.00155808
0.00184204
0.00222218
0.00267578
0.00284686
0.00278243
0.00280147
0.00281184
0.00270908
0.0025345
0.00241007
0.00237392
0.00241857
0.00245338
0.00245813
0.00230192
0.00198928
0.00170139
0.00136522
0.00107406
0.000960711
0.0010708
0.00153181
0.00243173
0.00353979
0.00396559
0.00260911
-6.24068e-05
-0.000399974
0.000805208
-0.00166802
0.000217869
-0.000553435
-0.00110071
-7.45291e-05
0.000848351
1.52589e-05
0.00126963
0.000372769
-3.61714e-05
-0.00043075
-0.000636507
-0.000704103
-0.000660907
-0.000557583
-0.000414945
-0.000263353
-0.000146747
-7.3401e-05
-3.55185e-05
-2.83795e-05
-4.6683e-05
-8.37021e-05
-6.55854e-05
0.000136913
0.000497144
0.000962959
0.00172015
0.00276545
0.00360156
0.00139499
-0.00915031
-0.0243514
-0.0118223
0.0171064
-0.00634329
-0.00653573
0.0065678
-0.00312786
0.0066386
-0.00449009
0.00919213
0.00376485
-0.00335804
-0.0294123
0.00162526
0.0012318
0.00112661
0.00130717
0.00165969
0.00204994
0.00236927
0.0023942
0.00231942
0.00226717
0.00220684
0.00211688
0.00204816
0.00206979
0.00217588
0.00229704
0.00237709
0.00238241
0.00221607
0.00195297
0.00163828
0.00133863
0.00106017
0.00094165
0.00105398
0.00148976
0.00234372
0.00342275
0.00384917
0.00252881
-9.36698e-05
-0.000388774
0.000873795
-0.0015759
0.000233085
-0.000431672
-0.000856816
-0.00063234
0.0011464
0.000708651
0.00112906
0.000157587
-0.000167645
-0.000463461
-0.000606298
-0.000645941
-0.000597555
-0.00049477
-0.000351237
-0.000194001
-6.34827e-05
2.41747e-05
6.8032e-05
8.13094e-05
7.4791e-05
5.02668e-05
6.39448e-05
0.00023236
0.000541394
0.000951637
0.00163258
0.00262769
0.00333315
0.00122927
-0.00874002
-0.0234435
-0.01152
0.0168269
-0.00572794
-0.00520819
0.00660392
-0.00447417
0.00594993
-0.00456904
0.00897245
0.00114318
0.00894299
-0.0508277
0.00142329
0.000715088
0.000720711
0.000986112
0.00132806
0.00165275
0.00185131
0.00187058
0.00184889
0.00181039
0.00178157
0.00176816
0.00180805
0.00192543
0.00208852
0.00221632
0.00227844
0.00225362
0.00207122
0.00183657
0.00153214
0.00126605
0.00102028
0.000904327
0.00101421
0.00143962
0.00226526
0.00331
0.00372793
0.00244333
-0.000126027
-0.000396041
0.000897182
-0.00152894
0.00017423
-0.000401571
-0.000650492
-0.00101827
0.000344079
0.000811162
0.000745575
1.99989e-05
-0.000233495
-0.000458793
-0.000568622
-0.000603191
-0.000565094
-0.000479563
-0.000355801
-0.000219813
-0.00010887
-3.83461e-05
-9.08529e-06
9.55558e-07
7.07497e-06
5.94911e-06
3.93553e-05
0.000217719
0.000539242
0.000956202
0.00160276
0.0025519
0.00322346
0.00117551
-0.00839814
-0.0225955
-0.0113357
0.0162793
-0.00528166
-0.00468782
0.00675316
-0.00560829
0.0053539
-0.00416784
0.00960346
0.000243419
0.0104865
-0.0146054
0.000877931
0.000422936
0.0005102
0.000773517
0.00103473
0.00125943
0.00140545
0.00146395
0.00149152
0.0014942
0.0015149
0.001561
0.00165684
0.0018055
0.00196613
0.00207252
0.00210783
0.00206452
0.00189269
0.00169041
0.00142545
0.00119228
0.00098093
0.000875722
0.000985052
0.0013997
0.00219622
0.00320462
0.00360668
0.00234614
-0.000179375
-0.00044034
0.000875516
-0.00151819
6.72454e-05
-0.000391994
-0.000447564
-0.00115578
-0.00158957
0.000551426
0.000391203
-8.94254e-05
-0.000272779
-0.00042884
-0.000502622
-0.000523764
-0.000487792
-0.000413651
-0.000308023
-0.000192834
-9.97788e-05
-4.19533e-05
-2.27384e-05
-2.01592e-05
-9.15973e-06
4.93078e-06
4.1419e-05
0.00020745
0.000524386
0.000943505
0.00156813
0.00246635
0.00309977
0.00108414
-0.00815619
-0.0218583
-0.0112549
0.0153995
-0.00492222
-0.00420666
0.00688278
-0.00637459
0.00477438
-0.00391147
0.0097328
0.000115591
0.00630793
0.000138964
0.000458192
0.000370858
0.00046464
0.000671066
0.000861253
0.00101154
0.00110713
0.00117914
0.00123886
0.00127764
0.00133658
0.00141665
0.00153172
0.00167886
0.00181673
0.0018992
0.00191716
0.00186787
0.00172143
0.00155035
0.00133045
0.00112757
0.000945744
0.000853396
0.000964818
0.00137466
0.00215115
0.0031313
0.00352403
0.00229473
-0.000175395
-0.000425229
0.000906408
-0.00143849
2.26992e-05
-0.000342081
-0.000210823
-0.00120573
-0.00310115
0.000291723
0.000195556
-0.000130992
-0.000258461
-0.000359898
-0.000404082
-0.00041348
-0.000378191
-0.000315188
-0.00022983
-0.000137714
-6.36235e-05
-1.97391e-05
-1.167e-05
-1.83425e-05
-7.22974e-06
1.78929e-05
5.48255e-05
0.000203421
0.000514195
0.00093843
0.00154813
0.0023921
0.00297176
0.000973054
-0.00796858
-0.0211846
-0.0111962
0.01442
-0.00460944
-0.00370338
0.00695202
-0.00701075
0.00420376
-0.00406444
0.00891957
-0.00011797
0.00173815
-0.000684487
0.000266344
0.000419556
0.000484923
0.000653562
0.000792583
0.000880311
0.000927271
0.000995042
0.00107025
0.00113287
0.00121517
0.00131133
0.00142783
0.00156179
0.00167481
0.00173592
0.00174258
0.00169201
0.00156808
0.00141937
0.00123491
0.00105502
0.000894868
0.000814701
0.000928997
0.0013355
0.00209553
0.00304983
0.00343329
0.00223251
-0.000185837
-0.000423513
0.000930482
-0.0013623
-2.98576e-05
-0.000295334
3.50525e-05
-0.00107441
-0.0026824
0.00013101
0.000118054
-0.000135975
-0.000226071
-0.000297229
-0.000324028
-0.000325396
-0.000293162
-0.000239064
-0.00016725
-9.07932e-05
-2.82241e-05
8.409e-06
1.23188e-05
5.96674e-06
2.6814e-05
7.32881e-05
0.00012562
0.000268075
0.000572833
0.000997768
0.00159058
0.00238121
0.00289621
0.000908271
-0.00773066
-0.0204457
-0.011085
0.0134191
-0.00430452
-0.0032137
0.00699841
-0.00753534
0.00367305
-0.00446881
0.00739764
-0.000458027
-0.00113441
-0.00291289
0.000257058
0.00046026
0.000510506
0.000656882
0.00074452
0.000773802
0.000790158
0.000853715
0.000934861
0.00101047
0.00110498
0.00120923
0.00132227
0.00144293
0.00153856
0.00158865
0.00159207
0.00154426
0.00144012
0.00130839
0.00115009
0.000989188
0.000846008
0.000777796
0.000895575
0.00129906
0.00204279
0.00297052
0.00334169
0.00216711
-0.000198727
-0.00042714
0.00094903
-0.0012935
-0.000106249
-0.000284609
0.000216599
-0.000863501
-0.00151156
9.0105e-05
0.000131157
-9.86296e-05
-0.000166871
-0.000227341
-0.000248957
-0.000248453
-0.000221813
-0.000176769
-0.000117432
-5.59234e-05
-5.78155e-06
2.19184e-05
1.92409e-05
8.67793e-06
3.29192e-05
9.12945e-05
0.000152696
0.000289135
0.000590731
0.00102056
0.00160221
0.00235342
0.00281176
0.000844498
-0.00747074
-0.0196482
-0.010924
0.0123905
-0.00400752
-0.00274441
0.00702994
-0.00789244
0.003212
-0.0049067
0.00563005
-0.000737166
-0.00206805
-0.00293744
0.000325928
0.000470216
0.000508005
0.000625133
0.000668523
0.000661537
0.000665191
0.000724109
0.000803028
0.00088197
0.000979703
0.00108567
0.00119514
0.00130717
0.00139523
0.00144348
0.0014515
0.00141179
0.00132491
0.00120848
0.00107048
0.000926228
0.000797877
0.000741667
0.000864002
0.00126417
0.00199123
0.00289056
0.00324802
0.00210055
-0.000206185
-0.000427603
0.000969396
-0.00121309
-0.000178352
-0.000280081
0.000335145
-0.00061705
-0.000514879
0.000132581
0.000184905
-3.16373e-05
-8.83147e-05
-0.000146943
-0.00016995
-0.000171961
-0.000151097
-0.00011388
-6.52836e-05
-1.59082e-05
2.38134e-05
4.35136e-05
3.45141e-05
1.85132e-05
4.29627e-05
0.000110418
0.000179979
0.000309069
0.000604439
0.00103751
0.00160693
0.00232363
0.00272863
0.000788342
-0.00717779
-0.0187746
-0.0107094
0.0113352
-0.00371091
-0.00228505
0.00704792
-0.0080401
0.00284333
-0.00524725
0.00397326
-0.000887283
-0.00232636
-0.00143818
0.000378214
0.000453418
0.00047271
0.000561609
0.000579532
0.000558686
0.000560037
0.000614037
0.000687049
0.000762028
0.000856525
0.000959431
0.0010644
0.00117091
0.00125611
0.00130797
0.00132384
0.00129415
0.00122161
0.00111796
0.00099494
0.000864437
0.000748808
0.000703226
0.000829936
0.00122578
0.00193446
0.0028035
0.00314512
0.00202648
-0.000215614
-0.000432314
0.000979989
-0.00112961
-0.000250641
-0.000291143
0.000368499
-0.000375332
0.000187142
0.000180419
0.000227069
2.44696e-05
-2.47852e-05
-8.36499e-05
-0.000109687
-0.000114601
-9.87286e-05
-6.81991e-05
-2.82218e-05
1.20432e-05
4.41031e-05
5.79885e-05
4.3881e-05
2.25853e-05
4.48038e-05
0.000116893
0.000189669
0.000306634
0.000590009
0.00102127
0.00157802
0.00226559
0.00262523
0.000724252
-0.00686296
-0.0178361
-0.0104409
0.0102612
-0.00340996
-0.00182347
0.0070537
-0.00795211
0.00258887
-0.00542786
0.00260063
-0.000817873
-0.00240425
0.00039429
0.000387217
0.000421567
0.000421225
0.000492851
0.000501703
0.000477707
0.000479938
0.000530373
0.000596713
0.000665263
0.0007537
0.000851568
0.000951112
0.00105329
0.00113766
0.0011937
0.00121769
0.00119757
0.00113611
0.00104251
0.000930132
0.000810559
0.000705086
0.000668369
0.000798369
0.00118834
0.00187683
0.00271308
0.00303739
0.00194846
-0.000225848
-0.000439535
0.000984876
-0.0010394
-0.000314277
-0.000308519
0.000325335
-0.000147827
0.000628925
0.000198353
0.000240908
5.46851e-05
1.15686e-05
-4.62876e-05
-7.38641e-05
-8.01598e-05
-6.79696e-05
-4.25791e-05
-8.63621e-06
2.57667e-05
5.36409e-05
6.51321e-05
4.90646e-05
2.50858e-05
4.60462e-05
0.000121958
0.000196152
0.000300423
0.000568157
0.000988171
0.00152475
0.00218101
0.00249842
0.000646318
-0.00653502
-0.0168434
-0.0101258
0.0091782
-0.00310851
-0.00136485
0.00703973
-0.00762794
0.00245951
-0.0054251
0.00156238
-0.000503863
-0.00241765
0.00207439
0.000375892
0.000382438
0.000369644
0.000430679
0.000436412
0.000413912
0.000418536
0.000466811
0.000527505
0.000590051
0.000672081
0.000764096
0.000858615
0.000956789
0.00104045
0.00110048
0.00113083
0.00111859
0.00106571
0.000980169
0.00087588
0.000764935
0.000667971
0.000638399
0.00077044
0.00115273
0.00181888
0.00262013
0.0029248
0.00186548
-0.000239572
-0.000451481
0.000982384
-0.000945729
-0.000370915
-0.000332623
0.000211223
5.14169e-05
0.00085202
0.000197698
0.000238243
7.07956e-05
3.3269e-05
-2.23399e-05
-4.95385e-05
-5.57414e-05
-4.64074e-05
-2.52558e-05
3.84865e-06
3.38885e-05
5.94721e-05
7.05679e-05
5.48224e-05
3.03034e-05
5.02508e-05
0.00012845
0.000202916
0.000295042
0.000544864
0.000945918
0.00145325
0.00207083
0.00234625
0.000549639
-0.00620473
-0.0158141
-0.0097736
0.00808638
-0.0028164
-0.000924205
0.00699226
-0.00709186
0.00244683
-0.00523544
0.000846891
1.3804e-05
-0.00232976
0.00347212
0.000358329
0.000339013
0.000322365
0.000375811
0.000378482
0.000358995
0.000366991
0.000413152
0.000469512
0.000527092
0.000603519
0.000690121
0.000779721
0.000873861
0.000956553
0.00101861
0.00105429
0.00104834
0.00100303
0.000924962
0.000828275
0.000725568
0.000636818
0.000614037
0.000747505
0.00112116
0.00176318
0.00252711
0.00281024
0.00178089
-0.000252588
-0.000464638
0.000974773
-0.000846389
-0.000415726
-0.000358778
4.16036e-05
0.000214588
0.00090165
0.000193759
0.000233536
8.3286e-05
5.07138e-05
-1.40944e-06
-2.67041e-05
-3.2124e-05
-2.49722e-05
-7.51823e-06
1.73124e-05
4.37177e-05
6.79098e-05
7.972e-05
6.56533e-05
4.22063e-05
6.1803e-05
0.000140959
0.000215276
0.00029633
0.000525266
0.000901134
0.0013731
0.00194407
0.0021745
0.000436707
-0.00587635
-0.0147672
-0.00939503
0.00699249
-0.00254523
-0.000519211
0.00689583
-0.00638336
0.00252667
-0.0048755
0.000420378
0.00065306
-0.00210013
0.00453619
0.000334924
0.000298087
0.000280465
0.000325178
0.000324744
0.00030969
0.000321019
0.000365024
0.000417449
0.000470867
0.000542222
0.000623607
0.000708083
0.000797507
0.000877475
0.000939656
0.00097794
0.000977108
0.000938345
0.000868148
0.000779651
0.000685873
0.000606332
0.000591033
0.000726369
0.00109102
0.00170805
0.00243339
0.00269416
0.00169654
-0.000262357
-0.000476934
0.000961181
-0.000740942
-0.000442586
-0.000383256
-0.000167628
0.000335661
0.000822995
0.00018955
0.000228469
9.23741e-05
6.41049e-05
1.64713e-05
-6.00896e-06
-9.99857e-06
-3.98832e-06
1.06667e-05
3.20817e-05
5.58095e-05
7.9416e-05
9.28719e-05
8.19609e-05
6.13535e-05
8.20526e-05
0.000162014
0.00023648
0.000307743
0.000512034
0.000857685
0.0012883
0.00180568
0.00198822
0.000312439
-0.00555289
-0.0137159
-0.00899704
0.00590514
-0.00230619
-0.000168995
0.00673399
-0.00555364
0.0026636
-0.00438046
0.000234954
0.00132482
-0.00171792
0.00524883
0.000307945
0.000266502
0.000247161
0.000283621
0.000281524
0.000270453
0.000283434
0.00032522
0.000374269
0.000424143
0.000491085
0.00056733
0.000645948
0.000729524
0.000804692
0.000864207
0.00090221
0.000904309
0.000870829
0.000808159
0.000728528
0.000644419
0.00057493
0.000567794
0.000705434
0.00106121
0.00165297
0.00233936
0.00257765
0.00161391
-0.000267431
-0.000487353
0.000941704
-0.000629861
-0.000446352
-0.000401785
-0.000397315
0.000411807
0.000659833
0.000181269
0.000219983
9.46977e-05
7.06234e-05
2.79221e-05
8.6603e-06
6.62861e-06
1.22985e-05
2.49844e-05
4.37949e-05
6.54859e-05
8.89382e-05
0.00010449
9.77186e-05
8.1679e-05
0.000104937
0.000186137
0.000262043
0.000326431
0.000506654
0.000820618
0.001205
0.00166216
0.00179394
0.000182924
-0.00523223
-0.0126701
-0.00858383
0.00483916
-0.00210664
0.000108231
0.00649476
-0.00465896
0.00281809
-0.00379839
0.000234982
0.00194403
-0.0012024
0.00560461
0.000284521
0.000245086
0.000223
0.000253735
0.000250619
0.000241948
0.000255556
0.000295217
0.000341638
0.000388783
0.000452109
0.000523567
0.000596216
0.000672907
0.000741681
0.000795899
0.000830836
0.000833197
0.000803383
0.000747254
0.000676182
0.000601937
0.000542861
0.000544296
0.000684251
0.00103118
0.00159756
0.00224496
0.00246152
0.00153381
-0.000267266
-0.000495336
0.000916789
-0.00051425
-0.00042456
-0.000410895
-0.000626918
0.000443075
0.000450394
0.000170562
0.000209889
9.33979e-05
7.34832e-05
3.58145e-05
1.98233e-05
2.00427e-05
2.56798e-05
3.6809e-05
5.34779e-05
7.32362e-05
9.62481e-05
0.000113488
0.000110752
9.97166e-05
0.000126111
0.000208784
0.00028744
0.000348384
0.000508094
0.000791004
0.00112728
0.00151992
0.00159895
5.55372e-05
-0.00491283
-0.011639
-0.00815704
0.00380702
-0.0019508
0.000302168
0.0061706
-0.00375607
0.0029518
-0.00318571
0.000357226
0.00243461
-0.000601887
0.00561065
0.000268568
0.000231445
0.000207275
0.000233971
0.000229311
0.000221439
0.000235056
0.000272992
0.000317311
0.000362462
0.000423
0.000490385
0.000557261
0.000627094
0.000688389
0.000735741
0.000765502
0.000765856
0.000737787
0.000687151
0.000623971
0.000559136
0.000510218
0.000520074
0.000662313
0.00100011
0.00154124
0.0021503
0.00234589
0.00145681
-0.000261854
-0.000499793
0.000884363
-0.000396337
-0.000377589
-0.00040802
-0.000836766
0.000432392
0.00022633
0.000162165
0.000202183
9.32357e-05
7.74577e-05
4.44038e-05
3.14734e-05
3.39029e-05
3.9565e-05
4.93826e-05
6.4107e-05
8.17028e-05
0.000103532
0.000121329
0.000121558
0.000114757
0.000143689
0.00022721
0.000308995
0.000369649
0.000513155
0.000766814
0.00105654
0.00138408
0.00141076
-6.13991e-05
-0.0045908
-0.0106279
-0.00771634
0.00283045
-0.00183697
0.000407989
0.00576191
-0.00289633
0.00303133
-0.00259816
0.00053716
0.00273795
1.40814e-05
0.00528888
0.000259169
0.000222418
0.000196814
0.000219895
0.000213579
0.000205619
0.000218922
0.000255201
0.000297618
0.00034109
0.000399352
0.000463362
0.000525136
0.000588421
0.000642311
0.000682052
0.000705598
0.000702603
0.000674827
0.000628454
0.000572196
0.000516278
0.000476923
0.000494758
0.000638744
0.000967127
0.00148303
0.00205451
0.00223085
0.001383
-0.000250337
-0.000499514
0.000843428
-0.000279307
-0.000307007
-0.000391671
-0.00101049
0.000384784
1.18639e-05
0.000157281
0.000198639
9.56749e-05
8.38631e-05
5.48767e-05
4.4603e-05
4.90474e-05
5.47635e-05
6.35239e-05
7.65233e-05
9.1826e-05
0.000111757
0.000128839
0.000130612
0.000126805
0.000156915
0.000239871
0.000324025
0.000386057
0.000516948
0.00074429
0.000990981
0.00125652
0.00123391
-0.000161551
-0.00426311
-0.00963939
-0.00725953
0.00192594
-0.0017599
0.00042926
0.00527662
-0.00212112
0.0030336
-0.00208284
0.000714248
0.00281807
0.000568957
0.00468001
0.000253422
0.000216218
0.000189062
0.000208611
0.000200592
0.000192202
0.000204837
0.000239373
0.000279906
0.00032177
0.000377962
0.000438873
0.000496316
0.000553783
0.000600778
0.000633185
0.000650062
0.000642818
0.000614529
0.000571189
0.00052086
0.000472788
0.000442196
0.000467178
0.000612171
0.000930496
0.0014213
0.00195638
0.0021154
0.00131215
-0.000232858
-0.000494902
0.000795869
-0.000166172
-0.00021558
-0.000360723
-0.00113589
0.000307144
-0.000176386
0.000155214
0.000198007
9.97431e-05
9.17672e-05
6.62456e-05
5.81516e-05
6.44026e-05
7.02911e-05
7.83393e-05
8.99916e-05
0.00010309
0.000120724
0.000136183
0.000138205
0.000136021
0.000165803
0.000246379
0.000331333
0.000395211
0.000515872
0.000720107
0.000927629
0.00113631
0.00107045
-0.000241917
-0.00392821
-0.00868124
-0.00678555
0.00111579
-0.00170921
0.00037883
0.00473169
-0.00145775
0.0029464
-0.00167295
0.000838613
0.00266476
0.000994475
0.00384095
0.000249672
0.00021198
0.000182789
0.000199139
0.000189575
0.000180521
0.000192349
0.000225027
0.000263512
0.000303644
0.000357841
0.000416101
0.000469795
0.000522377
0.000563241
0.000588858
0.000599437
0.000587841
0.000558316
0.000517058
0.000471623
0.000430156
0.000407076
0.000437966
0.000582751
0.000890081
0.00135579
0.00185576
0.00199944
0.00124408
-0.000209773
-0.000485894
0.000741851
-5.98978e-05
-0.0001075
-0.000315019
-0.0012053
0.000207691
-0.000329135
0.000154374
0.000198755
0.000104159
9.98933e-05
7.73745e-05
7.09854e-05
7.88635e-05
8.49796e-05
9.26459e-05
0.000103358
0.000114474
0.00012962
0.000142785
0.000144037
0.000142137
0.00017011
0.000246431
0.000330197
0.000395176
0.000507431
0.000689965
0.000863084
0.00102243
0.000920746
-0.000301903
-0.00358821
-0.00775627
-0.00629218
0.000410722
-0.0016728
0.000274118
0.00414741
-0.000919718
0.00277235
-0.00138263
0.000877349
0.00229743
0.00124562
0.00284711
0.000247599
0.000209002
0.000177524
0.000191009
0.000180084
0.000170317
0.000181097
0.000211901
0.000248241
0.000286599
0.000338805
0.000394621
0.000445144
0.000493576
0.000529376
0.000549246
0.000554174
0.000538594
0.00050766
0.000467864
0.000426219
0.000390143
0.000373084
0.000408225
0.000551252
0.000846558
0.00128639
0.00175232
0.00188342
0.00117827
-0.000181591
-0.000472612
0.000681941
3.66863e-05
1.10642e-05
-0.000255597
-0.00121652
9.64028e-05
-0.000443012
0.000154409
0.000200168
0.00010887
0.000108181
8.81848e-05
8.31626e-05
9.25188e-05
9.89599e-05
0.000106462
0.000116605
0.000126002
0.000138683
0.00014919
0.00014887
0.000146134
0.000170874
0.000241097
0.000321453
0.000386115
0.000489774
0.000651079
0.000795753
0.000913658
0.000784009
-0.000342868
-0.00324595
-0.00686908
-0.00578293
-0.000177682
-0.00163976
0.000136184
0.00355332
-0.000504533
0.00252475
-0.00120753
0.00081714
0.00175854
0.00130603
0.00178559
0.000247138
0.000206667
0.000173007
0.000183895
0.000171616
0.000161095
0.000170709
0.000199413
0.000233575
0.000270046
0.000320175
0.000373706
0.000421554
0.000466527
0.000498168
0.000513314
0.000513823
0.00049499
0.000462895
0.000424309
0.000385778
0.000353879
0.000341317
0.000379208
0.000518749
0.000800255
0.00121439
0.00164701
0.00176674
0.00111499
-0.000149765
-0.000454753
0.000615367
0.000120742
0.000132784
-0.000184472
-0.00117222
-1.67056e-05
-0.000519362
0.000155355
0.000202167
0.000113959
0.000116597
9.87272e-05
9.48365e-05
0.000105543
0.000112351
0.000119971
0.00012989
0.000137942
0.000148322
0.000156043
0.00015365
0.000149271
0.000169637
0.000232177
0.000306732
0.000369114
0.000463274
0.000604069
0.000725374
0.000807562
0.000658425
-0.000367945
-0.00290835
-0.00603018
-0.00526339
-0.000643086
-0.00159898
-1.26218e-05
0.00297506
-0.000198611
0.00222919
-0.0011263
0.000665945
0.00111168
0.00118878
0.000746717
0.00024718
0.000204281
0.000168567
0.000176762
0.000163336
0.000152234
0.000160553
0.000187145
0.000219001
0.000253436
0.000301274
0.00035241
0.000397776
0.000439794
0.000468105
0.000479662
0.000476798
0.000455837
0.000423348
0.000385968
0.000350139
0.000321645
0.000312562
0.000351489
0.000485955
0.000752181
0.00113968
0.00154043
0.00165102
0.00105344
-0.000114245
-0.000432638
0.000545282
0.000190383
0.00025079
-0.000104804
-0.00107937
-0.00012159
-0.000562231
0.000156801
0.00020425
0.000119001
0.000124577
0.000108524
0.000105588
0.000117521
0.000124766
0.000132707
0.000142733
0.000149856
0.000158341
0.000163495
0.00015892
0.000152354
0.000167677
0.000221256
0.000288155
0.000345949
0.000429691
0.000550917
0.000651046
0.000703365
0.000541841
-0.000381497
-0.00258064
-0.00524565
-0.00474122
-0.000989281
-0.00154205
-0.000150609
0.00243941
2.05492e-05
0.00191404
-0.00110542
0.000448265
0.000429006
0.000931928
-0.000186735
0.00024691
0.000201462
0.000163664
0.000169122
0.000154932
0.000143424
0.000150391
0.000174759
0.000204188
0.000236412
0.000281705
0.000330286
0.000373154
0.000412487
0.000438097
0.000446931
0.000441896
0.00041987
0.000387721
0.000352054
0.000318913
0.000293333
0.000286567
0.000325427
0.000453195
0.00070297
0.00106288
0.0014322
0.00153528
0.000993719
-7.65148e-05
-0.000405656
0.000472593
0.000244761
0.00035882
-1.98904e-05
-0.000947332
-0.000209735
-0.000576732
0.000158153
0.000205772
0.000123338
0.000131466
0.000117003
0.000114878
0.000127899
0.000135625
0.000144053
0.000154502
0.000161128
0.00016816
0.000171207
0.000164538
0.000155803
0.000165754
0.000209814
0.00026753
0.000318865
0.000390954
0.000492926
0.000573045
0.000600053
0.00043244
-0.000388116
-0.00227173
-0.0045215
-0.00422611
-0.00122392
-0.0014664
-0.000263687
0.00196611
0.000178091
0.00161185
-0.00110521
0.000201035
-0.000216493
0.000590539
-0.000947678
0.000245624
0.000197833
0.000158084
0.000161247
0.000146491
0.000134558
0.000140231
0.000162353
0.000189313
0.000219192
0.000261698
0.000307527
0.000347854
0.000384493
0.000407739
0.00041466
0.000408268
0.000386212
0.00035518
0.000321772
0.000291321
0.00026838
0.000263324
0.000300911
0.000420788
0.000652789
0.000985269
0.00132407
0.0014206
0.000935277
-3.69521e-05
-0.000374095
0.000399578
0.000283433
0.000451238
6.70765e-05
-0.000788166
-0.000273787
-0.000567916
0.000158864
0.000205983
0.00012649
0.000136769
0.000123769
0.000122361
0.000136269
0.000144494
0.000153494
0.000164565
0.000171078
0.000177244
0.000178604
0.000170354
0.000159529
0.000164307
0.000198751
0.000246463
0.000289765
0.000349209
0.000431933
0.000492962
0.000498229
0.000329018
-0.000391966
-0.00198681
-0.00386842
-0.0037283
-0.00136082
-0.00137208
-0.000341494
0.00156943
0.000298857
0.00135025
-0.00108914
-3.47571e-05
-0.000760544
0.000226444
-0.00149175
0.000243063
0.000193427
0.000152181
0.000153244
0.000138015
0.000125771
0.000130209
0.000150157
0.000174678
0.000202155
0.000241765
0.000284561
0.000322269
0.000356311
0.000377345
0.000382781
0.000375813
0.000354353
0.00032523
0.000294411
0.000266913
0.000246479
0.000242622
0.000278228
0.000389271
0.000602599
0.000906836
0.0012162
0.00130773
0.000878388
2.98324e-06
-0.000337702
0.000329208
0.000307092
0.000524673
0.000152233
-0.000612975
-0.00030899
-0.000539249
0.000158615
0.000204775
0.00012835
0.000140475
0.000128816
0.000128047
0.000142705
0.00015135
0.000160966
0.000172834
0.000179542
0.000185237
0.000185557
0.0001761
0.000163637
0.000163605
0.000188833
0.000226348
0.000260722
0.000306968
0.000370437
0.000412846
0.000399138
0.000231519
-0.000395276
-0.00173058
-0.00328617
-0.00325935
-0.00141734
-0.00126379
-0.000381771
0.00125275
0.000402229
0.00114879
-0.00102689
-0.000221447
-0.00115669
-0.000101931
-0.00180099
0.000239249
0.000188247
0.000145921
0.000145121
0.00012955
0.000117103
0.000120455
0.000138326
0.00016051
0.000185612
0.000222187
0.000261972
0.000296855
0.000328295
0.000347301
0.000351617
0.000344441
0.000324216
0.000297389
0.000269527
0.000245024
0.000227034
0.000224141
0.000257212
0.000358691
0.000552839
0.000829228
0.00110982
0.00119678
0.00082246
4.25889e-05
-0.000297257
0.000263826
0.000317519
0.000576721
0.000232922
-0.000433283
-0.000312614
-0.000492893
0.000157416
0.000202144
0.00012903
0.000142741
0.000132353
0.000132118
0.000147345
0.000156349
0.000166554
0.000179182
0.000186397
0.000192019
0.00019178
0.000181667
0.000168014
0.000163869
0.000180673
0.000208313
0.000233331
0.000266284
0.000311075
0.000335069
0.00030491
0.000140747
-0.000399808
-0.00150654
-0.00277952
-0.0028281
-0.00141354
-0.00114855
-0.00038889
0.0010126
0.000499405
0.00101714
-0.000901911
-0.000331668
-0.00138008
-0.000350593
-0.00187309
0.000234116
0.000182178
0.000139254
0.000136865
0.000121126
0.000108632
0.000111031
0.000126961
0.000146926
0.000169709
0.000203327
0.000239981
0.000272037
0.000300776
0.000317837
0.000321178
0.000314209
0.000295457
0.000271185
0.000246434
0.000225036
0.000209492
0.000207325
0.000237506
0.000329134
0.000503823
0.00075255
0.00100557
0.00108892
0.000767725
8.0704e-05
-0.000253128
0.000206211
0.00031667
0.000606805
0.000305888
-0.00025818
-0.00028492
-0.000429533
0.000155183
0.000198213
0.00012866
0.000143674
0.00013446
0.000134704
0.000150297
0.000159563
0.000170275
0.000183709
0.000191505
0.000197405
0.000197069
0.000186779
0.000172466
0.000164926
0.000174344
0.000192871
0.000208812
0.000228931
0.000255894
0.000262455
0.000217681
5.79993e-05
-0.000405584
-0.00131435
-0.00234605
-0.00244243
-0.001368
-0.00103536
-0.000371814
0.000837089
0.000593644
0.000952222
-0.000711883
-0.000352505
-0.00142987
-0.000495084
-0.00174459
0.000227603
0.000175308
0.000132244
0.000128531
0.000112799
0.000100417
0.000101976
0.000116113
0.000134001
0.000154596
0.000185259
0.000218815
0.000248136
0.000274187
0.000289374
0.000291926
0.000285096