/*--------------------------------*- C++ -*----------------------------------*\
| =========                 |                                                 |
| \\      /  F ield         | OpenFOAM: The Open Source CFD Toolbox           |
|  \\    /   O peration     | Version:  2312                                  |
|   \\  /    A nd           | Website:  www.openfoam.com                      |
|    \\/     M anipulation  |                                                 |
\*---------------------------------------------------------------------------*/
FoamFile
{
    version     2.0;
    format      ascii;
    arch        "LSB;label=32;scalar=64";
    class       volScalarField;
    location    "450";
    object      magR;
}
// * * * * * * * * * * * * * * * * * * * * * * * * * * * * * * * * * * * * * //

dimensions      [0 2 -2 0 0 0 0];

internalField   nonuniform List<scalar> 
10720
(
0.0219501
0.0327901
0.0427329
0.0507733
0.0573763
0.0656728
0.0771783
0.0924287
0.113157
0.142197
0.184495
0.250133
0.356053
0.539741
0.871889
1.57906
2.99973
6.14948
11.8813
19.6118
30.5754
50.2758
93.4568
185.321
334.266
473.978
974.618
1615.54
1125.29
466.669
143.239
18.2058
3.83461
0.467893
1.16725e-15
1.1556e-15
1.19153e-15
1.5525
90.6397
0.028487
0.0377931
0.0398533
0.0354127
0.0173948
0.0213483
0.0266131
0.0301747
0.03185
0.0353108
0.0418159
0.0529179
0.0708155
0.103528
0.151792
0.256815
0.368983
0.915822
1.26223
1.57686
2.04498
3.08483
4.34188
6.10492
8.23077
10.5226
9.50378
5.73221
2.33944
0.620985
0.0706868
0.00331711
0.000572146
0.000152378
1.07175e-05
2.61566e-06
4.12387e-08
1.8524
139.244
0.033607
0.0383611
0.0296257
0.0237739
0.0204814
0.0188562
0.0179654
0.0172398
0.0167008
0.0162788
0.0160206
0.0157529
0.0167748
0.0211111
0.0322578
0.0613922
0.136339
0.335334
0.839839
1.95792
4.04011
7.41164
13.0582
21.1132
63.8074
103.054
308.683
639.406
537.099
324.149
153.196
55.7363
15.1281
2.07623
0.0410064
1.23566e-15
0.0238901
1.64444
45.3299
0.0107078
0.00563436
0.00649013
0.00717733
0.0135343
0.0171909
0.0161108
0.0149187
0.01537
0.0154707
0.0155227
0.0154063
0.0149582
0.0143721
0.0131773
0.047187
0.00515386
0.156746
0.233708
0.038408
0.374283
0.0380716
0.174332
1.20232
0.153542
0.364802
0.0105131
0.0336766
0.0341838
0.0266563
0.0155884
0.00698411
0.00246963
0.000648983
4.48921e-05
1.40633e-06
1.20381e-15
0.419425
28.9268
0.00387633
0.00580361
0.00492681
0.00442295
0.00403886
0.00378439
0.00360867
0.00356609
0.00363346
0.00375452
0.00393196
0.00416831
0.00439591
0.00457767
0.00628546
0.00269969
0.0255828
0.0618817
0.156817
0.37384
0.788543
1.47715
2.65452
4.78869
8.79817
18.1206
98.7225
238.505
224.033
167.898
100.396
49.216
17.7545
3.62863
0.307406
0.0459218
0.0271583
1.76072
29.6306
0.00494341
0.00445541
0.0141539
0.0186282
0.0160771
0.0105
0.00594363
0.0059701
0.00642341
0.00700067
0.00774668
0.00847203
0.00900327
0.00950881
0.0101314
0.0108096
0.0106328
0.010473
0.00619438
0.00391488
0.00229566
0.00863626
0.0362915
0.00106448
0.0352215
0.0830498
0.00367662
0.0090128
0.00920558
0.00762284
0.00510518
0.00299271
0.00183703
0.00131293
0.000989585
0.00147928
1.23087e-15
0.154796
10.5646
0.00697831
0.00712647
0.00770066
0.00798545
0.00825706
0.00850763
0.00835653
0.00861595
0.00930679
0.00954891
0.00977218
0.0105374
0.0106309
0.0100523
0.010114
0.0101099
0.00954619
0.00790649
0.00539941
0.002221
2.37028e-15
3.3477e-15
4.43202e-14
0.00605709
0.128093
0.000498688
0.000225616
0.000828422
0.0014416
0.00362067
0.0225918
0.464582
2.7603
2.54075
1.03811
0.201412
0.0231254
1.20869
22.1739
0.0140861
0.0179054
0.0160173
0.00950338
0.00600563
0.0061779
0.00607898
0.0056625
0.00549657
0.00527951
0.00514607
0.00473732
0.00425243
0.00398931
0.00381742
0.00379215
0.000907814
0.00185156
0.00254888
0.00326619
0.00412333
0.00473589
0.00542093
0.00594076
0.00615894
0.00619725
0.00627654
0.00624103
0.00619105
0.0061742
0.00605346
0.00581098
0.00542382
0.00498995
0.00418615
0.00633016
0.00011821
0.0998107
6.62818
0.0198811
0.0182408
0.0185743
0.0187959
0.0188434
0.0189398
0.0190419
0.0190737
0.0191407
0.0192356
0.0193795
0.0195645
0.01978
0.0199891
0.0202478
0.0205669
0.0208456
0.0208143
0.0195959
0.0141122
0.00538073
0.00283785
2.2101e-15
2.64346e-15
0.0265209
0.000105061
4.83005e-05
0.000180012
0.000317606
0.000807946
0.0051012
0.106066
0.000607086
1.47133e-05
0.345123
0.364365
0.025808
1.11197
16.057
0.0191857
0.0130725
0.00484411
0.0076155
0.00766873
0.0101279
0.0110994
0.0112125
0.0112079
0.00964105
0.008719
0.00660981
0.00471957
0.00415654
0.00372188
0.00342639
0.00335247
0.00334445
0.00332496
0.00322549
0.00310041
0.00298018
0.00280254
0.00259654
0.00248759
0.00243489
0.00234979
0.00227138
0.00222414
0.00218631
0.00213767
0.00216073
0.00226247
0.00250999
0.00220409
0.00463803
8.82318e-05
0.0702908
4.54355
0.0184838
0.0183247
0.0182758
0.018219
0.0182042
0.0182405
0.0183224
0.0184429
0.0186119
0.01885
0.0191504
0.0195047
0.0199221
0.0204162
0.0209976
0.0216797
0.0223076
0.0220628
0.0215827
0.0208154
0.0190571
0.0114156
0.00239522
0.00139911
1.44814e-15
1.1547e-15
1.1547e-15
1.1547e-15
1.1547e-15
1.1547e-15
1.1547e-15
1.1547e-15
0.000139223
3.41099e-06
1.77941e-07
3.09024e-06
1.75366e-05
0.000976973
0.0223832
0.00955932
0.00654461
0.0069724
0.0150379
0.0187904
0.0202044
0.0204813
0.0206435
0.0208499
0.0210946
0.0213742
0.0217594
0.0221343
0.0223229
0.0200369
0.0181016
0.0164814
0.0151338
0.0140443
0.0131768
0.012471
0.0118796
0.0113507
0.0108492
0.010388
0.00998073
0.00961717
0.00929187
0.00899693
0.00871921
0.00842991
0.00807077
0.00809589
0.00756224
0.00592117
0.00614782
0.000821828
0.041539
2.65172
0.00439272
0.00145126
0.00474923
0.00428743
0.00411853
0.00419095
0.00432657
0.00436449
0.00440852
0.00441513
0.00442252
0.00442027
0.00441178
0.00452954
0.00449394
0.00436032
0.0045042
0.000587696
0.0028055
0.0053597
0.0079533
0.00981537
0.0100456
0.0076863
0.00223775
1.94644e-06
1.1547e-15
1.1547e-15
1.1547e-15
1.1547e-15
1.1547e-15
1.1547e-15
1.1547e-15
1.1547e-15
4.1371e-08
7.24639e-07
1.1547e-15
0.000232573
0.00536361
0.00496206
0.0101412
0.0253229
0.0264875
0.0264148
0.0261357
0.0263448
0.0266819
0.0271159
0.0260665
0.0245929
0.023197
0.0217726
0.0204195
0.0192522
0.0182022
0.0171096
0.016073
0.0151862
0.0144402
0.0138073
0.0132574
0.0127623
0.0122937
0.011843
0.0114291
0.0110592
0.0107227
0.0104091
0.0101115
0.00975275
0.00949158
0.00937283
0.00900112
0.00814982
0.00785833
0.00312691
0.0190567
1.11838
0.00103906
0.00229927
0.00392588
0.00425289
0.00423821
0.00534294
0.00692322
0.00748677
0.00798806
0.00810853
0.00802471
0.00787216
0.00764437
0.00809454
0.00748784
0.00620158
0.00582768
0.00513818
0.00447467
0.00443969
0.00510995
0.00616817
0.00739497
0.00765732
0.00915828
9.88025e-06
4.78534e-07
1.1547e-15
1.1547e-15
1.1547e-15
1.1547e-15
1.1547e-15
1.1547e-15
1.1547e-15
1.1547e-15
1.1547e-15
1.1547e-15
1.1547e-15
1.1547e-15
0.0204328
0.0328566
0.0298973
0.0189592
0.00984778
0.00585223
0.00584986
0.00597062
0.00609916
0.00625573
0.00641483
0.00635041
0.00630385
0.00637312
0.00661244
0.006823
0.00673632
0.00654968
0.0063526
0.00613961
0.00592228
0.0057059
0.00549207
0.00528289
0.0050832
0.00489922
0.0047361
0.00459222
0.00446404
0.00434607
0.00424771
0.00422874
0.00429841
0.0044441
0.0045514
0.00486381
0.00420702
0.00532004
0.291631
0.0241815
0.0231968
0.0236296
0.0241556
0.0245945
0.0246534
0.0246797
0.0245791
0.0247987
0.0241106
0.0229168
0.0222634
0.0215034
0.0206391
0.0197471
0.0187625
0.0177439
0.016702
0.0151379
0.0132444
0.0115918
0.0103651
0.00975516
0.00862449
0.0114042
2.77423e-05
1.39606e-06
1.1547e-15
1.1547e-15
1.1547e-15
1.1547e-15
1.1547e-15
1.1547e-15
1.1547e-15
1.1547e-15
1.1547e-15
1.1547e-15
1.1547e-15
1.1547e-15
0.0283808
0.0182879
0.00564704
0.00282619
0.0011713
0.00076991
0.000772556
0.000780463
0.000788941
0.000812333
0.00084722
0.000851303
0.000867045
0.00090199
0.000966476
0.00103267
0.00105616
0.00106413
0.00106748
0.0010648
0.00105793
0.00104797
0.00103566
0.00102099
0.0010047
0.000988486
0.000974021
0.000961357
0.000950104
0.000939341
0.000931286
0.00093958
0.000967032
0.00102159
0.000376041
0.00073795
0.00209487
0.00042218
0.0198607
0.019805
0.0177245
0.0168133
0.0163219
0.0158927
0.0155614
0.0153332
0.0151217
0.0149243
0.0148621
0.0147429
0.0145965
0.0144351
0.0142611
0.014081
0.0139046
0.0137516
0.0135502
0.0136945
0.0138581
0.0131574
0.0120291
0.0112437
0.00974905
0.0114506
6.18051e-05
3.22928e-06
1.1547e-15
1.1547e-15
1.1547e-15
1.1547e-15
1.1547e-15
1.1547e-15
1.1547e-15
1.1547e-15
1.1547e-15
1.1547e-15
1.1547e-15
1.1547e-15
0.0090834
0.00310045
0.00109939
0.00112878
6.5624e-05
0.000332481
0.000244542
0.000163842
6.32077e-05
0.00123763
1.71238e-05
0.00110756
0.00105088
0.000994447
0.000943149
0.00089989
0.000863568
0.000835444
0.000814287
0.000798503
0.000786777
0.000777993
0.000770958
0.000764055
0.00075588
0.000747596
0.000739954
0.000732646
0.000725204
0.000717316
0.000708508
0.000697579
0.000667179
0.000617406
0.000640503
0.000655069
0.000499407
0.00030747
0.00468435
0.00359568
0.00406215
0.00299432
0.00243804
0.00202498
0.00168959
0.00145395
0.00129088
0.00119385
0.00116855
0.00121205
0.00132305
0.00149587
0.00173468
0.00203883
0.00238927
0.00281446
0.00326486
0.00395463
0.00523646
0.00653107
0.00731841
0.00789707
0.00759328
0.00961116
0.000118822
6.44283e-06
1.1547e-15
1.1547e-15
1.1547e-15
1.1547e-15
1.1547e-15
1.1547e-15
1.1547e-15
1.1547e-15
1.1547e-15
1.1547e-15
1.1547e-15
1.1547e-15
0.0014235
0.0011612
0.00297266
0.00744033
0.00935028
0.00915269
0.00886926
0.00857061
0.00824507
0.00789957
0.00753506
0.00729561
0.00695759
0.00658597
0.00621466
0.00586584
0.00555281
0.00527487
0.00503012
0.00481519
0.0046259
0.00445701
0.00430407
0.00416416
0.00403518
0.00391637
0.00380721
0.00370573
0.00360944
0.00351674
0.00342497
0.00332831
0.00314492
0.00287776
0.00255823
0.00216042
0.0019392
0.00132979
0.000289345
0.000789706
0.000884632
0.000855739
0.000814214
0.000843716
0.000888849
0.0009163
0.00095373
0.000989436
0.00101869
0.0010534
0.00108903
0.00112652
0.0011703
0.00121797
0.00127421
0.00134417
0.00141683
0.00158522
6.51432e-06
0.000998771
0.00209554
0.00326671
0.00379044
0.00628794
0.000191224
1.07526e-05
1.1547e-15
1.1547e-15
1.1547e-15
1.1547e-15
1.1547e-15
1.1547e-15
1.1547e-15
1.1547e-15
1.1547e-15
1.1547e-15
1.1547e-15
1.1547e-15
0.00179442
0.00605219
0.00991472
0.00971727
0.00938744
0.00921457
0.00901419
0.00881512
0.0086037
0.00838178
0.00813928
0.00787953
0.00759594
0.00729931
0.0070059
0.00672732
0.00646407
0.00621758
0.00598831
0.00577608
0.00557952
0.00539667
0.00522549
0.0050647
0.00491393
0.00477339
0.00464306
0.00452145
0.00440642
0.00429765
0.00419038
0.00409259
0.00399083
0.00382708
0.00363078
0.00341083
0.00290481
0.00252714
0.00116566
0.00289067
0.00307189
0.00331857
0.00364788
0.00408564
0.00454984
0.00496079
0.00530292
0.00557212
0.00576149
0.0058772
0.00592865
0.00592191
0.00586566
0.00575858
0.00563989
0.00551924
0.0053604
0.00549688
0.00487449
0.00390067
0.00359123
0.00363082
0.00342511
0.00498672
0.000375193
2.18652e-05
1.1547e-15
1.1547e-15
1.1547e-15
1.1547e-15
1.1547e-15
1.1547e-15
1.1547e-15
1.1547e-15
1.1547e-15
1.1547e-15
1.1547e-15
1.1547e-15
0.00770135
0.00922284
0.00676115
0.00319421
0.00221463
0.00226638
0.00229221
0.00230329
0.00231299
0.00232628
0.00232127
0.00230402
0.00227994
0.00225131
0.00221785
0.00217943
0.00213624
0.00208903
0.00203811
0.00198391
0.00192722
0.00186927
0.00181105
0.00175452
0.00170143
0.00165214
0.00160726
0.00156672
0.00153019
0.0015035
0.00147182
0.00145826
0.00150034
0.00155372
0.00167746
0.00183914
0.001885
0.00198294
0.00163927
0.00814012
0.00766591
0.00756203
0.00762716
0.00783672
0.00802097
0.00819038
0.0083159
0.00840379
0.00845489
0.00846978
0.00845583
0.00841671
0.00835649
0.00824151
0.00818062
0.00816807
0.00799952
0.00778678
0.00746782
0.00684529
0.00607967
0.0054449
0.00466133
0.00517191
0.000862516
4.97437e-10
2.81172e-11
1.1547e-15
1.1547e-15
1.1547e-15
1.1547e-15
1.1547e-15
1.1547e-15
1.1547e-15
1.1547e-15
1.1547e-15
1.1547e-15
1.1547e-15
0.00761594
0.0038367
0.000452303
0.000464024
0.000295197
0.000311955
0.00031993
0.000319694
0.000319355
0.000321001
0.000317801
0.000314029
0.000312441
0.000311181
0.00031117
0.000312548
0.000314212
0.000316278
0.00031834
0.00032007
0.000321174
0.000321775
0.000321775
0.000320974
0.000319169
0.00031698
0.000314997
0.000313253
0.000311754
0.000311763
0.000310269
0.000312198
0.000325881
0.000342059
0.00037703
9.78678e-05
0.000429577
0.000824886
0.00106885
0.00511107
0.00476904
0.00444934
0.00418478
0.00395951
0.00377097
0.0036401
0.00354234
0.00347901
0.00344851
0.00344589
0.00347162
0.00352322
0.00359752
0.00369762
0.00381498
0.00394316
0.0040849
0.00420779
0.00452184
0.00492743
0.00498561
0.00485919
0.00450908
0.00483403
0.00161638
6.64993e-09
3.89606e-10
1.1547e-15
1.1547e-15
1.1547e-15
1.1547e-15
1.1547e-15
1.1547e-15
1.1547e-15
1.1547e-15
1.1547e-15
1.1547e-15
1.1547e-15
0.0016678
0.000662093
0.000214774
0.000383478
0.00041456
0.000413488
0.000404896
0.000389859
0.00037573
0.000363689
0.000348559
0.000334524
0.000324122
0.000314882
0.000308045
0.00030374
0.000301051
0.000300026
0.000300392
0.000301763
0.000303776
0.000306371
0.000309268
0.000311628
0.000312523
0.000312679
0.000312602
0.000312271
0.000311618
0.000310573
0.000309081
0.000306773
0.000299605
0.000279884
0.000249107
0.000231496
0.000267007
3.81928e-05
0.000453196
0.000431546
0.000578494
0.000186878
0.000557154
0.000515349
0.000499469
0.000477714
0.000467029
0.000461366
0.000458343
0.000463266
0.000473088
0.000487881
0.000508424
0.000534311
0.000564717
0.000598652
0.000641475
5.49062e-05
0.000279298
0.000759068
0.00141853
0.00206425
0.00243388
0.0029894
0.00187046
2.6456e-08
1.60569e-09
1.1547e-15
1.1547e-15
1.1547e-15
1.1547e-15
1.1547e-15
1.1547e-15
1.1547e-15
1.1547e-15
1.1547e-15
1.1547e-15
1.15679e-15
0.000281052
0.000409001
0.00103069
0.00253707
0.00268738
0.00260905
0.00253803
0.00248429
0.00243748
0.00239385
0.00235103
0.0023077
0.00226397
0.00221969
0.00217426
0.00212814
0.00208243
0.00203778
0.00199448
0.00195263
0.00191228
0.00187329
0.00183539
0.00179837
0.00176213
0.00172658
0.0016918
0.00165769
0.00162398
0.00159044
0.00155681
0.00152122
0.00146401
0.0013489
0.00118511
0.000984878
0.000783226
0.000551718
0.000542265
0.000248264
0.000232392
0.000217515
0.00021602
0.000250338
0.000283549
0.00030266
0.000320721
0.000334859
0.000343563
0.000352368
0.000359472
0.000365056
0.000370263
0.000374269
0.000377633
0.000380044
0.000381383
0.000390471
0.000424923
0.000480869
0.000590776
0.000238192
0.000682122
0.00114959
0.00139148
6.63356e-08
4.16789e-09
1.1547e-15
1.1547e-15
1.1547e-15
1.1547e-15
1.1547e-15
1.1547e-15
1.1547e-15
1.1547e-15
1.1547e-15
1.15539e-15
1.18542e-15
0.000209938
0.0021806
0.00315358
0.0032427
0.00321519
0.00314895
0.00307561
0.00302437
0.00298389
0.00294728
0.00291253
0.00287801
0.00284278
0.00280653
0.00276739
0.00272566
0.00268339
0.0026409
0.00259757
0.00255313
0.00250754
0.00246085
0.00241312
0.00236483
0.00231672
0.00226934
0.00222294
0.00217758
0.00213311
0.00208935
0.00204633
0.00200562
0.00196944
0.00191234
0.00181356
0.00167592
0.00146416
0.00112006
0.0008887
0.00123875
0.00114632
0.00128918
0.00150106
0.00171537
0.00191177
0.00206774
0.00219026
0.0022862
0.00235813
0.00241053
0.00244723
0.00246889
0.00247593
0.00247163
0.0024584
0.00243599
0.00240591
0.00237
0.00232009
0.00213627
0.00196285
0.00160492
0.00129702
0.0012037
0.0013425
2.08968e-07
1.35828e-08
1.1547e-15
1.1547e-15
1.1547e-15
1.1547e-15
1.1547e-15
1.1547e-15
1.1547e-15
1.1547e-15
1.1547e-15
1.15504e-15
1.15536e-15
0.00286636
0.00296622
0.00207196
0.00120461
0.00111099
0.00110407
0.001084
0.00106909
0.00106041
0.00105389
0.00104873
0.00104446
0.00104037
0.00103664
0.00103085
0.00102285
0.00101498
0.00100669
0.000996505
0.000984217
0.000969916
0.000953982
0.000936784
0.000919055
0.000901491
0.000884384
0.000867851
0.000851943
0.000836657
0.000821965
0.000807777
0.000794427
0.000794385
0.00083411
0.000896541
0.000968987
0.00101506
0.000976362
0.000865877
0.00296999
0.00265692
0.00261198
0.00269839
0.00276432
0.00281896
0.00286159
0.00289001
0.00291179
0.0029288
0.00294076
0.00294959
0.00295485
0.00295482
0.00295119
0.00294525
0.00293472
0.00291882
0.0028989
0.00287452
0.00284616
0.00274062
0.00243728
0.0021124
0.00177533
0.00162285
7.43125e-07
4.9937e-08
1.1547e-15
1.1547e-15
1.1547e-15
1.1547e-15
1.1547e-15
1.1547e-15
1.1547e-15
1.1547e-15
1.1547e-15
1.1547e-15
1.16265e-15
0.00239552
0.000952414
0.000105168
0.000181695
0.000161009
0.000164552
0.000162914
0.00015838
0.000154597
0.000151667
0.000147302
0.000143316
0.000140871
0.000138923
0.000137854
0.000137964
0.000138936
0.000140841
0.000143292
0.000146058
0.000148881
0.000151754
0.000154593
0.000156951
0.000158324
0.000159233
0.000160032
0.000160725
0.000161306
0.000161769
0.000162102
0.000162382
0.000165215
0.000176333
0.000195908
8.85842e-05
0.000275231
0.000470585
0.000571615
0.00160116
0.00153525
0.00137013
0.0012686
0.00118273
0.00110711
0.0010494
0.00100308
0.00096896
0.000946391
0.000932858
0.000927541
0.000929828
0.000938272
0.000952088
0.000971504
0.000996764
0.00102699
0.00106149
0.00111394
0.00124118
0.00139432
0.00153599
0.00163899
0.00153627
0.00156364
2.12085e-06
1.47234e-07
1.1547e-15
1.1547e-15
1.1547e-15
1.1547e-15
1.1547e-15
1.1547e-15
1.1547e-15
1.1547e-15
1.1547e-15
1.84005e-15
1.17191e-15
0.000298708
0.000158455
9.04659e-05
0.000109809
0.00011626
0.000120066
0.000119791
0.000116133
0.000112105
0.000108527
0.000103797
9.92713e-05
9.59331e-05
9.29266e-05
9.07565e-05
8.96423e-05
8.91248e-05
8.92914e-05
9.00154e-05
9.11587e-05
9.25426e-05
9.41628e-05
9.59216e-05
9.74315e-05
9.82541e-05
9.87197e-05
9.91148e-05
9.94293e-05
9.96539e-05
9.97709e-05
9.97814e-05
9.9643e-05
9.90345e-05
9.26704e-05
8.06857e-05
8.77049e-05
0.000103464
0.000133745
0.000192268
1.98326e-05
7.72089e-05
0.000203023
0.000172948
0.000163107
0.000154798
0.000144426
0.000137849
0.000132967
0.0001289
0.00012731
0.000127021
0.00012807
0.000130718
0.000134431
0.000139431
0.000145693
0.000153102
0.000161515
0.000173083
0.000196864
0.000244376
0.000216529
0.000505346
0.000677354
0.00105903
4.5896e-06
3.28913e-07
1.1547e-15
1.1547e-15
1.1547e-15
1.1547e-15
1.1547e-15
1.1547e-15
1.1547e-15
1.1547e-15
1.1547e-15
1.15484e-15
1.15655e-15
7.9263e-05
0.00019603
0.000496616
0.000721683
0.000750447
0.00075596
0.000750991
0.000742568
0.000732734
0.000723235
0.000714401
0.000705738
0.000697328
0.00068914
0.000680964
0.000672818
0.000664582
0.000656155
0.000647473
0.000638466
0.000629094
0.000619347
0.000609239
0.000598948
0.000588645
0.000578346
0.000568089
0.000557903
0.000547762
0.000537659
0.000527622
0.000517438
0.000505479
0.000465296
0.000398848
0.000333908
0.00020717
0.00010932
0.000175484
0.000117278
8.76423e-05
9.07587e-05
9.36487e-05
0.00010061
0.000107474
0.000110021
0.000113232
0.00011572
0.000116714
0.000118248
0.00011944
0.000120447
0.000121774
0.000122941
0.000124172
0.000125359
0.000126444
0.000127354
0.000127933
0.000126484
0.000114949
0.000132554
0.000166075
0.000207529
0.000428204
7.28979e-06
5.38997e-07
1.1547e-15
1.1547e-15
1.1547e-15
1.1547e-15
1.1547e-15
1.1547e-15
1.1547e-15
1.1547e-15
1.1547e-15
1.15471e-15
1.16159e-15
0.000280537
0.00105448
0.00131224
0.00132291
0.00132265
0.00131282
0.00130067
0.00128966
0.00127933
0.00126979
0.00126131
0.00125324
0.00124527
0.00123734
0.00122918
0.00122059
0.00121147
0.0012017
0.0011911
0.00117957
0.00116704
0.0011534
0.00113856
0.00112264
0.001106
0.00108886
0.0010713
0.00105338
0.00103517
0.00101667
0.000997956
0.000979174
0.000962773
0.0009295
0.000854232
0.000777475
0.000690402
0.000505786
0.000374516
0.000596695
0.000552572
0.000606491
0.0006517
0.000692194
0.000729391
0.000759633
0.000783882
0.000803408
0.000818338
0.000829463
0.000837507
0.000842802
0.00084563
0.000846182
0.000844695
0.000841467
0.000836568
0.000830053
0.000821502
0.00080071
0.000718761
0.000601666
0.000505234
0.000351002
0.000449076
2.69882e-05
2.11068e-06
1.1547e-15
1.1547e-15
1.1547e-15
1.1547e-15
1.1547e-15
1.1547e-15
1.1547e-15
1.1547e-15
1.1547e-15
1.1547e-15
1.15487e-15
0.00132698
0.00125493
0.000810971
0.000677006
0.000656378
0.00064347
0.000638166
0.000636035
0.00063504
0.00063401
0.000633001
0.000632033
0.000630881
0.000629553
0.000628078
0.000626278
0.000624096
0.000621476
0.00061831
0.000614542
0.000610121
0.000604978
0.000599057
0.000592401
0.000585169
0.000577556
0.000569717
0.000561516
0.000553071
0.000544405
0.000535489
0.000526131
0.000520055
0.000528431
0.000546419
0.000559889
0.000569434
0.000523954
0.000429696
0.00134848
0.00124094
0.00124452
0.00124683
0.00124482
0.00124224
0.00124039
0.00123724
0.00123411
0.00123127
0.0012282
0.00122524
0.00122231
0.00121909
0.00121545
0.00121131
0.00120665
0.00120116
0.00119462
0.00118742
0.00118689
0.00115585
0.00108212
0.000979805
0.000797283
0.000732772
0.000123629
3.10178e-07
2.31186e-08
1.1547e-15
1.1547e-15
1.1547e-15
1.1547e-15
1.1547e-15
1.1547e-15
1.1547e-15
1.1547e-15
1.1547e-15
1.1547e-15
0.00100792
0.000328769
6.89943e-06
0.000102027
0.000100073
0.000100605
0.000100255
9.79727e-05
9.56699e-05
9.36097e-05
9.02971e-05
8.69747e-05
8.4565e-05
8.22868e-05
8.07185e-05
8.01522e-05
8.01508e-05
8.08913e-05
8.22618e-05
8.41475e-05
8.64039e-05
8.89813e-05
9.17974e-05
9.43165e-05
9.59867e-05
9.72031e-05
9.83368e-05
9.93369e-05
0.0001002
0.00010092
0.000101482
0.000101831
0.000102702
0.000107409
1.98802e-05
8.67282e-05
0.000183844
0.000273029
0.000291973
0.00072319
0.000722289
0.000672654
0.000639039
0.000610769
0.000585009
0.000564679
0.000548056
0.00053474
0.000524786
0.000517382
0.000512191
0.000508914
0.00050718
0.000506848
0.000507778
0.00050997
0.000513311
0.000517625
0.00052276
0.000537551
0.000586627
0.000641265
0.000675445
0.000671583
0.000699686
0.000289678
2.93764e-06
2.25782e-07
1.1547e-15
1.1547e-15
1.1547e-15
1.1547e-15
1.1547e-15
1.1547e-15
1.1547e-15
1.1547e-15
1.1547e-15
1.1547e-15
7.52756e-05
5.33724e-05
3.20291e-05
4.12336e-05
4.39107e-05
4.58336e-05
4.52337e-05
4.32104e-05
4.12559e-05
3.96629e-05
3.76503e-05
3.56923e-05
3.42016e-05
3.28166e-05
3.17566e-05
3.11545e-05
3.08226e-05
3.0828e-05
3.11379e-05
3.17005e-05
3.24597e-05
3.33951e-05
3.44911e-05
3.55161e-05
3.61825e-05
3.66469e-05
3.70727e-05
3.74585e-05
3.7798e-05
3.80819e-05
3.83091e-05
3.84626e-05
3.8426e-05
3.69908e-05
3.6601e-05
4.61335e-05
5.72125e-05
1.54901e-05
0.000108532
9.93357e-05
0.000100487
9.99106e-05
9.09409e-05
8.77172e-05
8.49815e-05
8.03902e-05
7.76062e-05
7.52875e-05
7.29279e-05
7.16572e-05
7.07699e-05
7.02779e-05
7.04105e-05
7.08769e-05
7.17439e-05
7.29656e-05
7.44893e-05
7.62664e-05
7.82356e-05
8.168e-05
9.47478e-05
4.59796e-05
0.000145178
0.000249488
0.000354633
0.000315795
1.2909e-05
1.02234e-06
1.1547e-15
1.1547e-15
1.1547e-15
1.1547e-15
1.1547e-15
1.1547e-15
1.1547e-15
1.1547e-15
1.1547e-15
1.15486e-15
3.76681e-05
9.6847e-05
0.000202444
0.000269194
0.00028189
0.000287313
0.000282737
0.00027615
0.000270419
0.000266155
0.000262707
0.000259587
0.000256883
0.000254447
0.000252124
0.000249964
0.000247953
0.000245995
0.000244108
0.000242241
0.000240374
0.000238441
0.000236442
0.000234407
0.000232188
0.000229694
0.000226978
0.000224106
0.000221081
0.000217907
0.000214587
0.00021105
0.000206699
0.000195193
0.000168685
0.000143499
8.94356e-05
5.06284e-05
9.1725e-05
7.00151e-05
4.40909e-05
4.64581e-05
4.44886e-05
4.59203e-05
4.76486e-05
4.7346e-05
4.70481e-05
4.63541e-05
4.52658e-05
4.47156e-05
4.43041e-05
4.40144e-05
4.39899e-05
4.40288e-05
4.41757e-05
4.43823e-05
4.46229e-05
4.48748e-05
4.51031e-05
4.51002e-05
4.27188e-05
4.40823e-05
5.35517e-05
6.21936e-05
8.42697e-05
0.000127588
2.27115e-05
2.0179e-06
1.1547e-15
1.1547e-15
1.1547e-15
1.1547e-15
1.1547e-15
1.1547e-15
1.1547e-15
1.1547e-15
1.1547e-15
1.1547e-15
0.000198968
0.000553119
0.000668875
0.00068432
0.000690197
0.000689482
0.000679781
0.000668654
0.000660038
0.000653737
0.000648875
0.000644652
0.000640906
0.000637444
0.000634025
0.00063067
0.00062731
0.000623815
0.000620138
0.000616199
0.000611903
0.000607137
0.000601846
0.000596032
0.000589642
0.000582645
0.000575187
0.000567372
0.000559214
0.000550717
0.000541891
0.000532709
0.000523343
0.000510761
0.000484268
0.000440847
0.000372744
0.000294071
0.000232122
0.000342417
0.000312266
0.000307883
0.000307942
0.000314918
0.000323065
0.00032786
0.000327814
0.000325223
0.000322276
0.000319958
0.000318376
0.000317113
0.000315921
0.000314628
0.000313163
0.000311507
0.000309635
0.000307594
0.000305367
0.000301848
0.000283277
0.000243396
0.000202714
0.000147656
9.50289e-05
0.000132439
7.15627e-05
9.91848e-07
7.92736e-08
1.1547e-15
1.1547e-15
1.1547e-15
1.1547e-15
1.1547e-15
1.1547e-15
1.1547e-15
1.1547e-15
1.1547e-15
0.000747571
0.000672951
0.000453367
0.000412097
0.00040437
0.00039947
0.000394003
0.000387388
0.000382525
0.00037902
0.000376452
0.000374463
0.000372664
0.000371046
0.000369541
0.000368003
0.000366405
0.000364718
0.000362829
0.000360734
0.000358349
0.000355617
0.000352497
0.000348907
0.000344988
0.000340866
0.00033656
0.000332055
0.000327385
0.000322537
0.000317555
0.000312328
0.000307869
0.000309067
0.000317099
0.000321361
0.000321201
0.000300079
0.000252261
0.000730899
0.000657362
0.000639971
0.000622918
0.00061643
0.000611669
0.0006087
0.000601547
0.000592703
0.000586159
0.000582094
0.000579419
0.000577177
0.000574879
0.000572425
0.000569776
0.00056692
0.000563807
0.000560373
0.000556719
0.00055076
0.000545895
0.000511278
0.000464453
0.000426621
0.00035055
0.000279462
0.000204557
1.54552e-05
1.34634e-06
1.1547e-15
1.1547e-15
1.1547e-15
1.1547e-15
1.1547e-15
1.1547e-15
1.1547e-15
1.1547e-15
1.1547e-15
0.000542493
0.000173333
3.9993e-05
1.03848e-05
3.27198e-06
1.35055e-06
2.06314e-06
1.47924e-06
6.23882e-07
5.68754e-05
5.41391e-05
5.14706e-05
4.93745e-05
4.73416e-05
4.5743e-05
4.48081e-05
4.42485e-05
4.42218e-05
4.46734e-05
4.55509e-05
4.67586e-05
4.82799e-05
5.00743e-05
5.17086e-05
5.27212e-05
5.34322e-05
5.41199e-05
5.47652e-05
5.53647e-05
5.59018e-05
3.5032e-08
3.94377e-07
2.60867e-07
3.63581e-06
2.2868e-05
5.57709e-05
0.000104558
0.000148454
0.000159667
0.000392986
0.000368855
0.000343661
0.000324681
0.000308907
0.00029883
0.00029639
0.000292904
0.000287492
0.00028503
0.000284951
0.000285023
0.000284653
0.000284013
0.000283334
0.000282738
0.000282284
0.000282015
0.000281879
0.000281842
0.000283435
0.000294814
0.000314027
0.000327861
0.000333571
0.000327863
0.00030342
0.000268844
6.08991e-05
4.46204e-07
3.60292e-08
1.1547e-15
1.1547e-15
1.1547e-15
1.1547e-15
1.1547e-15
1.1547e-15
1.1547e-15
1.1547e-15
3.41637e-05
2.81466e-05
1.67082e-05
1.49094e-05
1.4661e-05
1.49729e-05
1.53664e-05
1.51721e-05
1.48173e-05
1.44904e-05
1.39414e-05
1.32809e-05
1.27306e-05
1.21591e-05
1.1678e-05
1.13716e-05
1.11653e-05
1.11062e-05
1.11855e-05
1.13949e-05
1.17106e-05
1.21365e-05
1.26702e-05
1.31949e-05
1.35515e-05
1.3806e-05
1.40493e-05
1.42787e-05
1.44939e-05
1.46882e-05
1.48655e-05
1.50731e-05
1.5135e-05
1.57167e-05
1.78088e-05
2.30939e-05
2.81074e-05
3.54536e-05
4.85327e-05
5.55646e-05
5.27667e-05
5.24602e-05
4.74011e-05
4.5457e-05
4.44226e-05
4.30657e-05
4.22225e-05
4.10797e-05
4.00352e-05
3.97343e-05
3.94696e-05
3.92114e-05
3.91537e-05
3.91564e-05
3.9304e-05
3.95524e-05
3.99001e-05
4.03113e-05
4.07491e-05
4.13989e-05
4.42587e-05
8.34466e-06
4.89434e-05
9.30167e-05
0.000139042
0.000169508
0.000194153
0.000111472
4.52797e-06
3.76553e-07
1.1547e-15
1.1547e-15
1.1547e-15
1.1547e-15
1.1547e-15
1.1547e-15
1.1547e-15
1.1547e-15
2.07657e-05
5.43108e-05
6.79107e-05
8.59986e-05
9.00322e-05
9.17793e-05
9.33306e-05
9.4985e-05
9.62437e-05
9.73049e-05
9.78697e-05
9.79291e-05
9.78013e-05
9.75102e-05
9.70784e-05
9.66282e-05
9.61729e-05
9.57252e-05
9.53018e-05
9.4913e-05
9.45611e-05
9.42244e-05
9.39524e-05
9.37471e-05
9.34674e-05
9.30078e-05
9.24146e-05
9.17064e-05
9.08889e-05
8.99607e-05
8.89245e-05
8.77634e-05
8.63123e-05
8.41467e-05
7.35204e-05
6.52142e-05
3.76999e-05
1.40607e-05
3.6726e-05
4.24481e-05
2.57515e-05
2.72667e-05
2.61088e-05
2.6455e-05
2.72877e-05
2.54364e-05
2.4336e-05
2.39589e-05
2.35306e-05
2.3383e-05
2.32427e-05
2.31015e-05
2.30813e-05
2.30715e-05
2.31131e-05
2.31796e-05
2.32636e-05
2.33497e-05
2.34077e-05
2.33333e-05
2.31011e-05
2.21727e-05
2.46144e-05
2.80261e-05
3.15657e-05
3.48295e-07
4.81653e-05
7.98429e-05
1.35437e-05
1.3912e-06
1.1547e-15
1.1547e-15
1.1547e-15
1.1547e-15
1.1547e-15
1.1547e-15
1.1547e-15
1.1547e-15
0.00011451
0.00033997
0.000367503
0.00036868
0.000365417
0.000360582
0.000357571
0.00035649
0.000355917
0.000355384
0.000354719
0.000353781
0.000352732
0.000351616
0.000350391
0.000349133
0.000347841
0.000346474
0.00034503
0.000343476
0.000341765
0.000339832
0.000337651
0.000335225
0.000332493
0.000329398
0.000326008
0.000322368
0.000318476
0.000314328
0.00030993
0.000305277
0.000300366
0.000295534
0.000282877
0.000260812
0.000224006
0.000182935
0.000142689
0.000212071
0.000180386
0.000178913
0.000179255
0.000180229
0.000184058
0.000175673
0.000169531
0.00016852
0.000168588
0.000168972
0.000169358
0.000169521
0.000169501
0.000169302
0.000168927
0.000168386
0.000167685
0.000166883
0.000165844
0.00016406
0.000161697
0.00014633
0.000122068
9.94215e-05
7.20645e-05
5.43666e-05
5.55993e-05
7.83209e-05
4.21203e-05
1.41977e-06
1.31263e-07
1.1547e-15
1.1547e-15
1.1547e-15
1.1547e-15
1.1547e-15
1.1547e-15
1.1547e-15
0.000440657
0.000373831
0.000313139
0.000297669
0.000290115
0.000283231
0.000277471
0.000274021
0.000271687
0.000269655
0.000267968
0.000266496
0.000265116
0.000263868
0.000262704
0.000261568
0.000260437
0.000259283
0.000258063
0.000256739
0.000255265
0.000253601
0.000251668
0.000249447
0.00024703
0.000244469
0.000241773
0.000238919
0.000235907
0.00023275
0.000229435
0.000225982
0.000222445
0.000220809
0.000222243
0.00022236
0.00021798
0.000202132
0.000172675
0.000432661
0.00038961
0.000376859
0.000368629
0.000361486
0.000359937
0.000350704
0.00034235
0.000341386
0.000339513
0.000337107
0.000334615
0.000332143
0.000329695
0.000327312
0.000324973
0.000322662
0.000320349
0.000317992
0.000315605
0.000311462
0.000311461
0.000297111
0.000276895
0.000256164
0.000227453
0.000189846
0.000151004
0.000132549
0.000104023