/*--------------------------------*- C++ -*----------------------------------*\
| =========                 |                                                 |
| \\      /  F ield         | OpenFOAM: The Open Source CFD Toolbox           |
|  \\    /   O peration     | Version:  2312                                  |
|   \\  /    A nd           | Website:  www.openfoam.com                      |
|    \\/     M anipulation  |                                                 |
\*---------------------------------------------------------------------------*/
FoamFile
{
    version     2.0;
    format      ascii;
    arch        "LSB;label=32;scalar=64";
    class       volScalarField;
    location    "450";
    object      turbulenceProperties:nut;
}
// * * * * * * * * * * * * * * * * * * * * * * * * * * * * * * * * * * * * * //

dimensions      [0 2 -1 0 0 0 0];

internalField   nonuniform List<scalar> 
10720
(
6.54568e-05
0.000109235
0.000143199
0.00015004
0.000137291
0.000125323
0.000121868
0.000127302
0.000142543
0.000168809
0.000210348
0.00027721
0.000386985
0.000579514
0.000929956
0.00168217
0.00321079
0.00665681
0.0131025
0.0222115
0.0358432
0.0612777
0.118051
0.240397
0.438523
0.626543
1.29099
2.17594
1.51818
0.543791
0.162193
0.0179645
0.003654
0.000506356
1.50244e-18
1.93947e-18
3.07008e-18
0.00686091
0.438628
6.40676e-05
9.11902e-05
0.00010888
0.000167455
6.43557e-05
9.81692e-05
0.000156524
0.000210125
0.000219934
0.000207903
0.00020274
0.00021406
0.000244634
0.000313931
0.000420126
0.000664311
0.00100994
0.00291242
0.00314191
0.00361504
0.00464719
0.00687206
0.00862249
0.0114899
0.0150541
0.0189284
0.0154208
0.00829198
0.00310993
0.000789688
9.01257e-05
4.43154e-06
8.29252e-07
2.45362e-07
1.9379e-08
5.32996e-09
9.41961e-11
0.0046108
0.295416
0.000389638
0.000492311
0.00033365
0.00022348
0.000151331
0.00012036
0.000115129
0.000118501
0.000125602
0.000135714
0.000149441
0.000164149
0.000195583
0.000273961
0.000459882
0.00092105
0.00198496
0.00433078
0.00903291
0.0172021
0.0294086
0.0468508
0.0782237
0.134287
0.43723
0.52239
1.32073
1.45618
1.2595
1.73392
1.06274
0.265948
0.0697251
0.00938454
0.000150642
4.48695e-18
0.000122408
0.0154055
0.615166
7.59418e-05
3.17414e-05
3.79897e-05
7.34056e-05
9.05063e-05
0.000127548
0.000135496
0.000142786
0.000166827
0.000193584
0.000226255
0.000261712
0.000295991
0.000331539
0.000353824
0.00146874
0.000184386
0.00636968
0.0106772
0.000488861
0.00463481
0.00218708
0.0103854
0.00341654
0.000556954
0.00146138
5.2021e-05
0.000185328
0.000184927
0.000160562
9.10762e-05
4.03743e-05
1.43809e-05
3.91015e-06
2.83788e-07
9.46287e-09
8.72499e-18
0.00331256
0.219646
6.98266e-05
8.84741e-05
8.46994e-05
8.40455e-05
8.52203e-05
8.84697e-05
9.37886e-05
0.000100576
0.000108395
0.000116502
0.000124739
0.000133037
0.000139984
0.000145667
0.000157589
0.000105293
0.00035595
0.000845507
0.00216865
0.00535232
0.0121619
0.0261761
0.0609304
0.180743
0.278446
0.473912
0.91172
0.850301
0.543012
0.448187
0.420068
0.284126
0.0761764
0.0117375
0.0009017
0.000149501
0.000130809
0.0151267
0.679428
9.70736e-05
6.44795e-05
0.000130173
0.000172904
0.00015741
0.00012309
0.000104192
0.000114514
0.000131499
0.000157568
0.000197373
0.000252784
0.000325559
0.000423291
0.000554957
0.000728149
0.00091578
0.00113665
0.000885758
0.00057069
0.00033452
0.00123999
0.00482658
0.000144574
0.00503946
0.0116489
0.000531291
0.00115601
0.00105234
0.000867948
0.000564974
0.000267054
0.000140886
9.08696e-05
6.49657e-05
9.82285e-05
9.69225e-17
0.00982025
0.71639
0.000191238
0.000190573
0.000190806
0.000193018
0.000196143
0.000201546
0.00020764
0.000217837
0.000232937
0.000249949
0.000271364
0.000301232
0.000334051
0.0003712
0.000423764
0.000494229
0.000583582
0.000681785
0.000517009
0.000219566
2.31793e-16
3.27381e-16
4.4184e-15
0.000220205
0.00582008
1.85575e-10
3.79203e-12
2.14781e-11
9.46415e-11
8.91059e-10
6.12672e-08
6.69561e-05
0.0174819
0.0184651
0.00676994
0.00148704
0.00022631
0.0154666
0.855833
0.000232004
0.000237421
0.000230615
0.00020207
0.000197556
0.000211598
0.000228601
0.000230767
0.000245993
0.000264606
0.000293173
0.00030846
0.000316146
0.000337055
0.000363259
0.000401627
0.000105362
0.000231525
0.000337355
0.000450636
0.000586215
0.000688348
0.000801513
0.000891767
0.000934896
0.00094242
0.000949186
0.000933846
0.000913297
0.000897419
0.000871031
0.000828557
0.000764957
0.00069501
0.000573609
0.000846797
1.6266e-05
0.00848532
2.2492
0.000445479
0.000436499
0.000443592
0.000453821
0.000466282
0.000485636
0.000509788
0.000539365
0.000575957
0.000619223
0.00066949
0.000726384
0.000788704
0.000854374
0.000922386
0.000990615
0.0010654
0.00115256
0.00125452
0.00119305
0.000480856
0.000267813
2.24314e-16
3.05776e-16
0.00133492
7.99864e-11
8.73925e-17
7.55554e-16
3.70754e-15
3.27288e-14
9.24064e-13
1.94788e-10
2.94405e-08
1.2016e-12
0.00589019
0.00637821
0.000363669
0.0171049
0.573744
0.000448605
0.000421458
0.000190587
0.000306659
0.000319442
0.000442916
0.000507164
0.000552668
0.000602677
0.000569617
0.000572917
0.00048671
0.000390958
0.000387641
0.000389301
0.000398457
0.000427517
0.000459546
0.000482742
0.000487195
0.000481477
0.000471566
0.000448964
0.000420165
0.000406285
0.000399943
0.000386878
0.000374301
0.00036711
0.000361363
0.000354153
0.000359859
0.000380119
0.000427674
0.000382173
0.000822155
1.61308e-05
0.0130288
1.56342
0.000766062
0.00076482
0.000776183
0.000788134
0.000805921
0.000827507
0.000853488
0.000887021
0.000929703
0.000982822
0.0010486
0.00112904
0.00122662
0.00134499
0.00148823
0.00166351
0.00186663
0.00201258
0.00214602
0.00224053
0.00219751
0.00139474
0.000309055
0.000193753
2.30907e-16
9.27663e-22
4.60516e-27
4.73889e-27
7.99241e-27
1.92802e-26
5.97438e-26
2.40295e-25
1.43876e-13
1.35578e-14
1.70289e-15
2.34916e-13
2.10508e-11
4.00801e-09
6.37596e-07
0.000450228
0.00031162
0.000337979
0.000746674
0.000884864
0.000941291
0.00100391
0.00108181
0.00118295
0.00131488
0.00148368
0.0016955
0.00195652
0.00224787
0.00221165
0.00217202
0.00212509
0.0020681
0.0020059
0.00194808
0.00189335
0.00184095
0.00178828
0.00173567
0.00168509
0.00163578
0.00158872
0.00154437
0.00150487
0.00147159
0.00143854
0.00139491
0.00141763
0.00134259
0.0010642
0.00111686
0.000149609
0.00735238
0.749211
0.000250654
8.24428e-05
0.000269472
0.000243781
0.000235847
0.000243044
0.000255461
0.000263988
0.000274873
0.000285442
0.000298158
0.00031235
0.000328085
0.000355527
0.000372759
0.000382044
0.000415357
5.66992e-05
0.000282296
0.000562107
0.000870209
0.00112318
0.00120884
0.000979182
0.000304647
2.34861e-12
1.04311e-26
6.33211e-27
7.27078e-27
1.27979e-26
3.00484e-26
8.44287e-26
2.36758e-25
5.98144e-25
3.43255e-17
1.87863e-15
1.4072e-23
6.76554e-12
7.63151e-10
0.000285036
0.000588344
0.00146659
0.00152483
0.00158049
0.00165264
0.0017469
0.00186956
0.00202881
0.00208725
0.00211864
0.00216043
0.00219757
0.00223398
0.00227706
0.00231392
0.00231753
0.00229421
0.00226172
0.00222574
0.00218662
0.00214425
0.00209867
0.00204952
0.00199574
0.00194118
0.00189113
0.0018436
0.00180031
0.00176302
0.00171816
0.00169384
0.00169757
0.00165934
0.00153042
0.00150475
0.000606611
0.0036443
0.238015
7.06055e-05
0.000155181
0.000263925
0.000285423
0.000285095
0.000361765
0.000473708
0.000520183
0.000566418
0.000589586
0.000601394
0.000610992
0.000617171
0.000682492
0.000661402
0.000575146
0.000568324
0.000528444
0.000486156
0.000508197
0.000612886
0.000772841
0.000965988
0.00104259
0.00129898
2.49133e-11
1.00467e-17
9.77089e-27
8.1126e-27
1.07954e-26
1.99544e-26
4.41048e-26
9.56961e-26
1.74682e-25
2.71531e-25
5.6331e-25
1.52366e-24
3.46346e-24
1.32659e-23
0.00139917
0.00227706
0.00210378
0.00136256
0.000727338
0.000447103
0.000463916
0.000494119
0.00053026
0.00057477
0.000626188
0.000661038
0.00070111
0.000757503
0.000838226
0.000918104
0.000955421
0.000970486
0.000977119
0.000974134
0.000963757
0.000947775
0.000927641
0.000904183
0.000879378
0.000855537
0.000833873
0.000814349
0.000797843
0.00078406
0.000774933
0.000781991
0.00080729
0.000850322
0.000888519
0.000970948
0.000856671
0.00109486
0.0603799
0.00193332
0.00184179
0.00186651
0.00190204
0.00193681
0.00194814
0.00196349
0.00197708
0.00202561
0.00200872
0.00195654
0.00195669
0.00195367
0.00194563
0.001937
0.00191863
0.0018934
0.00185771
0.00175007
0.00158675
0.00143883
0.00133342
0.00130142
0.00119485
0.00164013
1.56287e-10
6.97309e-17
1.65977e-26
1.03497e-26
1.06951e-26
1.58869e-26
2.88668e-26
5.29047e-26
8.60618e-26
1.24188e-25
2.1091e-25
4.55045e-25
9.14023e-25
2.55583e-24
0.00229045
0.0014936
0.000467547
0.00023882
0.000101481
6.871e-05
7.12179e-05
7.46462e-05
7.86796e-05
8.48318e-05
9.30001e-05
9.84907e-05
0.000105879
0.000116282
0.000131346
0.000147434
0.000157565
0.000165021
0.000171306
0.00017598
0.000179235
0.00018124
0.000182081
0.000181789
0.000180795
0.000179562
0.000178414
0.00017742
0.00017677
0.000176392
0.000176777
0.000180622
0.000188576
0.000202669
7.60227e-05
0.000152408
0.000441592
9.09775e-05
0.0042236
0.00183785
0.00163277
0.00153882
0.00148709
0.00144491
0.00141523
0.00139861
0.00138815
0.00138378
0.00139705
0.0014107
0.00142738
0.00144804
0.00147256
0.00150089
0.0015334
0.00157123
0.00160504
0.00168225
0.0017663
0.00173952
0.00164655
0.00159079
0.00142401
0.00172354
8.07462e-10
3.92647e-16
3.02388e-26
1.45985e-26
1.19865e-26
1.45244e-26
2.21464e-26
3.5428e-26
5.29372e-26
7.27267e-26
1.09651e-25
2.0571e-25
3.73041e-25
7.49703e-25
0.000852235
0.000293952
0.000105678
0.000110655
6.58164e-06
3.42228e-05
2.58959e-05
1.79132e-05
7.15942e-06
0.000145653
2.09924e-06
0.00014168
0.00014041
0.000138801
0.00013736
0.000136397
0.000135776
0.000135927
0.000136655
0.000137712
0.000138913
0.000140099
0.000140985
0.000141429
0.000141473
0.00014132
0.000141152
0.000140933
0.000140739
0.000140548
0.000140346
0.000139901
0.000135653
0.000127594
0.000134751
0.000140613
0.00010932
6.90735e-05
0.00103198
0.000383202
0.000429482
0.000314405
0.000254637
0.000210741
0.000175537
0.000151128
0.000134623
0.000125307
0.000123837
0.000130145
0.000144441
0.000166604
0.000197722
0.000238462
0.000287372
0.000348657
0.0004168
0.000520374
0.000710954
0.000914588
0.00105636
0.00117452
0.00116221
0.00151037
3.71526e-09
1.95228e-15
5.83072e-26
2.23658e-26
1.48698e-26
1.4898e-26
1.92981e-26
2.73302e-26
3.78971e-26
5.01871e-26
7.05154e-26
1.20196e-25
2.00939e-25
3.27603e-25
0.000153262
0.000126277
0.000328026
0.000836439
0.00107335
0.00107506
0.00106815
0.00106114
0.00105167
0.00103986
0.00102529
0.00102718
0.00101415
0.000993847
0.000970169
0.000946065
0.000924738
0.000905702
0.000888418
0.000872307
0.000856827
0.000840938
0.000824235
0.000807626
0.000791869
0.000776924
0.000762921
0.000749456
0.000736861
0.000724861
0.000713529
0.000701438
0.00067108
0.00062308
0.000562818
0.000483922
0.000442062
0.000311017
6.6113e-05
9.5549e-05
0.000106142
0.000101981
9.64624e-05
9.94947e-05
0.000104475
0.000107533
0.000112012
0.000116586
0.000120734
0.000125936
0.000131713
0.000138237
0.000146108
0.000155079
0.000165817
0.000179098
0.000193613
0.000222593
9.41365e-07
0.000148592
0.000320949
0.000514533
0.000612649
0.00103966
1.4761e-08
8.31792e-15
1.18085e-25
3.67365e-26
2.01169e-26
1.68873e-26
1.87708e-26
2.37067e-26
3.06003e-26
3.86159e-26
5.17683e-26
8.19109e-26
1.27681e-25
1.82089e-25
0.000219099
0.000747925
0.00124271
0.00123896
0.0012198
0.00122182
0.00122146
0.00122286
0.00122321
0.00122247
0.00121886
0.00121217
0.00120073
0.00118579
0.00116979
0.00115509
0.00114118
0.00112758
0.00111381
0.00109937
0.00108367
0.00106635
0.00104797
0.00102959
0.00101193
0.000994944
0.000978622
0.00096264
0.000947575
0.00093337
0.000919786
0.000908313
0.00089604
0.00087077
0.000838139
0.000800217
0.000692285
0.000616945
0.000276943
0.000392431
0.000413525
0.000443765
0.000484802
0.000540134
0.000598929
0.000651061
0.000695124
0.000730899
0.000757719
0.000776751
0.000789336
0.00079629
0.000798593
0.000795643
0.000792675
0.000791311
0.00078572
0.000824857
0.000749961
0.000616256
0.000582858
0.000604863
0.000584369
0.000868393
7.37997e-08
4.42731e-14
2.50047e-25
6.41446e-26
2.93642e-26
2.09178e-26
2.01458e-26
2.2811e-26
2.74151e-26
3.31706e-26
4.22716e-26
6.19786e-26
9.0022e-26
1.17688e-25
0.00105588
0.00128175
0.00095074
0.000456019
0.000321595
0.000334961
0.000345072
0.000353542
0.00036215
0.00037169
0.0003787
0.000383973
0.000388254
0.000392122
0.000395473
0.000398035
0.000399612
0.000400066
0.000399153
0.000396643
0.000392551
0.000387237
0.000381065
0.000374625
0.000368422
0.000362439
0.000356809
0.000351529
0.000346887
0.000344354
0.000340647
0.000341122
0.000354796
0.000371938
0.000406889
0.000452712
0.000470666
0.000506292
0.000406209
0.00122592
0.00114523
0.00112245
0.00112536
0.00115003
0.0011714
0.00119149
0.0012066
0.00121776
0.00122543
0.00123018
0.00123341
0.00123585
0.00123834
0.00123576
0.00124459
0.00126425
0.00126217
0.00125431
0.00123056
0.00115579
0.00105224
0.000965063
0.000844058
0.00095344
4.4637e-07
2.7062e-18
1.34434e-20
1.18396e-25
4.58873e-26
2.80645e-26
2.36406e-26
2.41163e-26
2.69868e-26
3.13164e-26
3.79193e-26
5.13453e-26
8.14225e-26
1.0216e-25
0.00116062
0.000591972
7.04364e-05
7.32505e-05
4.73191e-05
5.07943e-05
5.29354e-05
5.37767e-05
5.46201e-05
5.58308e-05
5.62431e-05
5.65844e-05
5.73571e-05
5.82433e-05
5.94179e-05
6.09112e-05
6.25091e-05
6.42179e-05
6.59185e-05
6.75199e-05
6.8962e-05
7.02523e-05
7.1357e-05
7.22378e-05
7.28529e-05
7.33082e-05
7.37263e-05
7.41088e-05
7.45162e-05
7.52937e-05
7.56907e-05
7.69585e-05
8.11724e-05
8.61879e-05
9.61728e-05
2.53053e-05
0.00011256
0.000220623
0.000277229
0.000846662
0.000785069
0.000728304
0.000681261
0.000641104
0.00060746
0.00058377
0.000566031
0.000554436
0.000548841
0.000548634
0.000554096
0.000565087
0.000581236
0.000603149
0.000629855
0.000660676
0.000696073
0.00073035
0.000801045
0.000892462
0.000923516
0.000919628
0.000869851
0.000947332
2.27132e-06
9.99316e-17
4.28239e-19
2.30152e-25
7.63363e-26
4.04973e-26
3.00993e-26
2.77976e-26
2.89785e-26
3.21535e-26
3.71538e-26
5.92935e-26
6.92555e-25
1.20224e-23
0.000279752
0.000112169
3.67072e-05
6.64353e-05
7.28341e-05
7.36733e-05
7.31742e-05
7.14814e-05
6.98951e-05
6.8651e-05
6.67825e-05
6.50776e-05
6.40518e-05
6.32481e-05
6.29269e-05
6.31254e-05
6.36706e-05
6.45812e-05
6.57982e-05
6.72283e-05
6.87863e-05
7.04569e-05
7.2175e-05
7.37551e-05
7.49771e-05
7.59744e-05
7.68515e-05
7.75892e-05
7.8217e-05
7.87603e-05
7.91627e-05
7.93922e-05
7.83378e-05
7.40015e-05
6.66438e-05
6.27382e-05
7.33018e-05
1.06876e-05
0.000123268
7.81748e-05
0.000104315
3.35291e-05
9.94474e-05
9.14803e-05
8.8186e-05
8.39103e-05
8.1644e-05
8.03443e-05
7.96226e-05
8.04217e-05
8.2236e-05
8.51092e-05
8.92001e-05
9.44621e-05
0.000100835
0.000108227
0.000117655
1.02329e-05
5.30001e-05
0.000146981
0.000280498
0.000416507
0.000500001
0.000623271
7.34548e-06
1.13105e-15
4.2231e-18
4.70132e-25
1.34651e-25
6.25056e-26
4.1308e-26
3.47032e-26
3.3736e-26
3.57046e-26
4.01242e-26
4.59471e-24
7.77427e-19
3.97416e-17
5.14995e-05
7.55846e-05
0.000192228
0.000479417
0.000514159
0.000505139
0.000497305
0.000492749
0.000489433
0.000486654
0.000483995
0.000481203
0.000478341
0.000475437
0.000472329
0.00046908
0.000465887
0.00046283
0.000459883
0.000456984
0.000454102
0.000451183
0.000448141
0.000444972
0.000441705
0.000438159
0.000434299
0.000430053
0.00042561
0.000421166
0.000416376
0.000411132
0.000399775
0.000372436
0.000331028
0.000278609
0.000224454
0.00016103
0.000154542
4.87857e-05
4.54423e-05
4.23269e-05
4.18304e-05
4.82138e-05
5.42973e-05
5.76269e-05
6.0749e-05
6.31681e-05
6.46411e-05
6.6234e-05
6.76232e-05
6.88539e-05
7.01393e-05
7.13173e-05
7.25287e-05
7.37416e-05
7.49076e-05
7.77528e-05
8.59514e-05
9.90404e-05
0.000124058
5.09865e-05
0.000148589
0.000254153
1.55574e-05
8.32825e-15
2.73109e-17
1.00787e-24
2.51168e-25
1.02763e-25
6.07801e-26
4.66428e-26
4.23413e-26
4.26943e-26
1.11313e-25
2.0544e-19
4.331e-17
1.67685e-16
4.1643e-05
0.000436229
0.000636562
0.000661881
0.000663026
0.000655829
0.000647128
0.000643052
0.000641174
0.000640022
0.000639227
0.00063848
0.000637633
0.00063668
0.000635202
0.000633232
0.000631253
0.000629288
0.000627118
0.000624556
0.000621522
0.000617974
0.000613829
0.000609203
0.000604312
0.000599085
0.00059351
0.000587549
0.000581454
0.000575532
0.000569486
0.000564083
0.000559676
0.000549409
0.000526986
0.000493064
0.000436374
0.000339756
0.000264537
0.000260854
0.000240093
0.000268948
0.000311881
0.00035469
0.000393177
0.00042303
0.00044606
0.000464023
0.000477612
0.000487816
0.000495459
0.000500758
0.000503757
0.000505065
0.000505436
0.000505007
0.000503882
0.000502208
0.000498352
0.00046625
0.000435947
0.000362811
0.00029813
0.000280794
4.21318e-05
7.96973e-14
2.3108e-16
2.26631e-24
4.94599e-25
1.79409e-25
9.54712e-26
6.71444e-26
5.6979e-26
5.46994e-26
9.33658e-26
2.88765e-20
3.51371e-17
2.70547e-17
0.000608496
0.00063596
0.000447921
0.000262826
0.000244532
0.000245156
0.000242926
0.000241853
0.000242141
0.00024287
0.000243886
0.000245109
0.000246403
0.000247849
0.000248878
0.000249452
0.000250154
0.000250849
0.000251154
0.00025097
0.00025028
0.000249148
0.000247617
0.000245861
0.000244064
0.000242221
0.000240334
0.000238407
0.000236524
0.000234821
0.000233242
0.000231889
0.000234337
0.000248748
0.00027038
0.000295786
0.000313829
0.000306979
0.000268301
0.000662952
0.000590282
0.000578837
0.000596286
0.000608487
0.000617856
0.000624702
0.000628854
0.000632107
0.000634853
0.000636975
0.000638946
0.000640776
0.000642091
0.000643236
0.000644915
0.000646965
0.00064898
0.000651019
0.000653164
0.000655897
0.000641469
0.000579643
0.000510174
0.000434911
0.000129234
8.92413e-13
2.30071e-15
5.34426e-24
1.02691e-24
3.31828e-25
1.59532e-25
1.03066e-25
8.17944e-26
7.46345e-26
1.00829e-25
6.47719e-21
1.95581e-19
1.03739e-16
0.000539369
0.000216889
2.4121e-05
4.20071e-05
3.75201e-05
3.86622e-05
3.86076e-05
3.78596e-05
3.72688e-05
3.68613e-05
3.60852e-05
3.53846e-05
3.5055e-05
3.48479e-05
3.48652e-05
3.5192e-05
3.57592e-05
3.65937e-05
3.76017e-05
3.87251e-05
3.98974e-05
4.11167e-05
4.2356e-05
4.34886e-05
4.43698e-05
4.51234e-05
4.58388e-05
4.65145e-05
4.71566e-05
4.77876e-05
4.84101e-05
4.9034e-05
5.04351e-05
5.44283e-05
6.11585e-05
2.79896e-05
8.80798e-05
0.000153048
0.0001839
0.000375989
0.000359322
0.000320319
0.000296106
0.000275329
0.000257
0.000243004
0.000231812
0.000223588
0.000218134
0.000214845
0.000213559
0.000214188
0.000216409
0.000220055
0.000225344
0.000232502
0.0002413
0.000251554
0.000266683
0.000300876
0.000342691
0.000382925
0.000414355
0.000393589
0.000246031
8.32545e-12
1.91734e-14
1.32141e-23
2.24605e-24
6.48931e-25
2.82744e-25
1.68045e-25
1.24678e-25
1.07903e-25
1.22507e-25
1.90099e-21
2.2317e-15
1.68848e-16
7.08978e-05
3.80469e-05
2.18473e-05
2.67083e-05
2.84873e-05
2.96482e-05
2.98169e-05
2.91368e-05
2.83423e-05
2.7639e-05
2.66221e-05
2.56386e-05
2.4948e-05
2.43357e-05
2.39382e-05
2.38202e-05
2.38679e-05
2.41103e-05
2.4518e-05
2.50567e-05
2.56804e-05
2.6391e-05
2.71609e-05
2.78791e-05
2.84173e-05
2.88574e-05
2.92755e-05
2.96681e-05
3.00345e-05
3.03838e-05
3.07222e-05
3.10241e-05
3.1181e-05
2.95095e-05
2.59917e-05
2.86003e-05
3.41799e-05
4.48893e-05
6.40635e-05
4.87547e-06
1.89439e-05
4.98106e-05
4.24118e-05
3.99434e-05
3.78541e-05
3.52724e-05
3.36249e-05
3.23975e-05
3.13736e-05
3.09581e-05
3.08718e-05
3.11325e-05
3.18055e-05
3.27623e-05
3.40814e-05
3.57853e-05
3.78444e-05
4.02218e-05
4.34855e-05
5.00082e-05
6.28414e-05
5.6391e-05
0.000133275
0.000180834
0.000239992
6.12105e-11
1.26412e-13
3.42493e-23
5.16965e-24
1.33941e-24
5.30088e-25
2.90017e-25
2.00987e-25
1.64543e-25
1.65665e-25
6.927e-22
3.02722e-17
6.08453e-17
1.97353e-05
4.93287e-05
0.000125538
0.00018362
0.000192251
0.000195025
0.000195129
0.000194312
0.00019306
0.000191818
0.000190694
0.000189574
0.000188492
0.000187461
0.000186437
0.000185435
0.000184442
0.000183439
0.000182408
0.000181327
0.000180187
0.000178989
0.000177725
0.000176432
0.000175162
0.000173863
0.000172516
0.000171129
0.000169706
0.000168311
0.000166998
0.000165635
0.00016367
0.000152415
0.000132203
0.000112064
7.04567e-05
3.77692e-05
6.03936e-05
3.00685e-05
2.24446e-05
2.32587e-05
2.40135e-05
2.57919e-05
2.75381e-05
2.81721e-05
2.89668e-05
2.95724e-05
2.97956e-05
3.01599e-05
3.04498e-05
3.07148e-05
3.10831e-05
3.14306e-05
3.18323e-05
3.22786e-05
3.27433e-05
3.3195e-05
3.36062e-05
3.35514e-05
3.08245e-05
3.59488e-05
4.55512e-05
5.75577e-05
0.000113767
3.43585e-10
6.38657e-13
9.30246e-23
1.25101e-23
2.9127e-24
1.04859e-24
5.28119e-25
3.41355e-25
2.63543e-25
2.41839e-25
2.95678e-22
8.83788e-18
1.29058e-16
7.29223e-05
0.000276652
0.000345586
0.000350449
0.00035251
0.000351994
0.000350872
0.000350058
0.000349377
0.000348843
0.000348554
0.000348352
0.000348158
0.000347983
0.000347763
0.000347449
0.000347047
0.00034653
0.000345851
0.000344981
0.000343914
0.000342657
0.000341171
0.000339475
0.000337683
0.000335752
0.000333629
0.000331339
0.000328893
0.000326384
0.000323927
0.000321504
0.000319861
0.000312495
0.000290689
0.000267942
0.000241172
0.000179476
0.000132786
0.000158904
0.000147005
0.000161574
0.000173893
0.000184808
0.000194741
0.000202726
0.00020902
0.000214024
0.000217817
0.000220643
0.000222764
0.000224322
0.000225372
0.000225929
0.000226155
0.000226238
0.000226101
0.000225654
0.000224881
0.000221111
0.000200418
0.000169462
0.000143745
0.000100872
0.000128387
4.68009e-09
8.05518e-12
2.64656e-22
3.17905e-23
6.66326e-24
2.18368e-24
1.01183e-24
6.08598e-25
4.41663e-25
3.74898e-25
1.42972e-22
8.15154e-19
2.21898e-17
0.000358247
0.000341651
0.000221541
0.000185899
0.000181147
0.000178455
0.000177894
0.000178256
0.000178951
0.000179638
0.000180337
0.000181052
0.000181721
0.00018235
0.00018295
0.000183472
0.000183911
0.000184255
0.000184475
0.000184556
0.000184496
0.000184303
0.000183969
0.000183501
0.00018295
0.000182326
0.000181631
0.000180817
0.000179913
0.000178955
0.000177982
0.000176934
0.000177016
0.000182063
0.0001906
0.000197824
0.000203973
0.000190629
0.000156607
0.000371263
0.00034128
0.000343016
0.000344497
0.000344348
0.000343727
0.00034312
0.000342036
0.000340972
0.000340068
0.000339219
0.000338589
0.000338207
0.000337928
0.000337653
0.000337487
0.000337575
0.000337708
0.000337672
0.000337752
0.000340293
0.000334323
0.000315829
0.000288552
0.000236922
0.000218861
8.21286e-08
3.98268e-12
1.57871e-14
8.47653e-23
1.60161e-23
4.77691e-24
2.03462e-24
1.13588e-24
7.72194e-25
6.0991e-25
7.65591e-23
1.42433e-19
3.72511e-18
0.000281167
9.24691e-05
1.94662e-06
2.89097e-05
2.84704e-05
2.87353e-05
2.87619e-05
2.82437e-05
2.77201e-05
2.72638e-05
2.64377e-05
2.56002e-05
2.50235e-05
2.44799e-05
2.41424e-05
2.41031e-05
2.42362e-05
2.45994e-05
2.51633e-05
2.58971e-05
2.67626e-05
2.77536e-05
2.88515e-05
2.98911e-05
3.06975e-05
3.13859e-05
3.20662e-05
3.27212e-05
3.33472e-05
3.39438e-05
3.45159e-05
3.50481e-05
3.57863e-05
3.78918e-05
7.10193e-06
3.13869e-05
6.74579e-05
0.000101736
0.0001092
0.000204899
0.000204432
0.00019097
0.000182003
0.000174229
0.000166975
0.000161189
0.00015643
0.000152645
0.000149869
0.000147874
0.000146583
0.000145921
0.000145759
0.000146036
0.000146763
0.000148009
0.000149697
0.00015172
0.000154128
0.000159664
0.000175667
0.000193609
0.00020558
0.000206051
0.000216214
7.65949e-07
1.32602e-10
4.80915e-13
2.37079e-22
4.04005e-23
1.09642e-23
4.28537e-24
2.21417e-24
1.40507e-24
1.03394e-24
4.49067e-23
3.01813e-20
7.52404e-19
2.16009e-05
1.54458e-05
9.29441e-06
1.20059e-05
1.28262e-05
1.34333e-05
1.33112e-05
1.27752e-05
1.22583e-05
1.18459e-05
1.13042e-05
1.07732e-05
1.03777e-05
1.00095e-05
9.73654e-06
9.60156e-06
9.54938e-06
9.60268e-06
9.7533e-06
9.98712e-06
1.02892e-05
1.06569e-05
1.10888e-05
1.15122e-05
1.18338e-05
1.21008e-05
1.23631e-05
1.262e-05
1.28683e-05
1.31048e-05
1.33323e-05
1.35466e-05
1.37046e-05
1.33594e-05
1.33877e-05
1.70959e-05
2.14965e-05
5.90866e-06
4.1612e-05
2.88526e-05
2.91679e-05
2.91145e-05
2.66004e-05
2.57091e-05
2.4934e-05
2.36048e-05
2.28041e-05
2.21452e-05
2.14807e-05
2.1142e-05
2.09231e-05
2.08286e-05
2.09248e-05
2.11241e-05
2.14545e-05
2.19131e-05
2.24788e-05
2.31292e-05
2.3861e-05
2.50879e-05
2.93279e-05
1.43414e-05
4.56156e-05
7.89551e-05
0.000113016
3.40947e-06
2.1408e-09
7.10997e-12
6.94873e-22
1.06899e-22
2.63685e-23
9.44309e-24
4.50309e-24
2.65651e-24
1.81959e-24
2.9036e-23
7.39241e-21
2.77658e-17
1.10815e-05
2.87402e-05
6.02073e-05
8.02662e-05
8.42753e-05
8.617e-05
8.51411e-05
8.3555e-05
8.22447e-05
8.13838e-05
8.07709e-05
8.02477e-05
7.98369e-05
7.94935e-05
7.91704e-05
7.88888e-05
7.86531e-05
7.84394e-05
7.82575e-05
7.80968e-05
7.79609e-05
7.78462e-05
7.77651e-05
7.7727e-05
7.76824e-05
7.75858e-05
7.74327e-05
7.72436e-05
7.70124e-05
7.67362e-05
7.64307e-05
7.60784e-05
7.54617e-05
7.21761e-05
6.3181e-05
5.44562e-05
3.44113e-05
1.97699e-05
3.60367e-05
2.07925e-05
1.30934e-05
1.38608e-05
1.33302e-05
1.37945e-05
1.43395e-05
1.42718e-05
1.42061e-05
1.40246e-05
1.37268e-05
1.35938e-05
1.3505e-05
1.34557e-05
1.34893e-05
1.3544e-05
1.36385e-05
1.37636e-05
1.39071e-05
1.40559e-05
1.42069e-05
1.43044e-05
1.36517e-05
1.41905e-05
1.7357e-05
2.02898e-05
2.76658e-05
5.46217e-06
1.44527e-08
4.79528e-11
2.13247e-21
2.96407e-22
6.64247e-23
2.17534e-23
9.54509e-24
5.21668e-24
3.318e-24
2.13471e-23
2.12909e-21
2.23022e-18
5.98727e-05
0.000167887
0.000203349
0.000208469
0.000210775
0.000211246
0.00020917
0.000206795
0.000205259
0.000204469
0.000204133
0.000203968
0.000203906
0.000203883
0.000203828
0.000203764
0.000203694
0.000203596
0.000203471
0.000203307
0.000203098
0.00020285
0.000202574
0.000202264
0.00020189
0.000201406
0.000200808
0.000200131
0.000199369
0.000198503
0.00019757
0.000196576
0.000195604
0.000193396
0.000185769
0.000171358
0.000146899
0.000117588
9.34492e-05
0.000103806
9.47294e-05
9.38946e-05
9.43712e-05
9.68247e-05
9.95976e-05
0.000101338
0.000101591
0.00010108
0.000100475
0.000100069
9.98954e-05
9.98275e-05
9.97854e-05
9.97198e-05
9.96457e-05
9.95906e-05
9.95108e-05
9.93728e-05
9.92174e-05
9.87496e-05
9.33711e-05
8.08008e-05
6.7737e-05
4.9639e-05
3.21286e-05
1.81074e-05
1.82095e-07
8.42206e-11
4.70188e-13
8.6042e-22
1.75037e-22
5.23564e-23
2.10806e-23
1.06365e-23
6.26578e-24
1.88137e-23
7.59671e-22
3.5036e-19
0.000229769
0.000208565
0.000140685
0.000128106
0.00012602
0.000124937
0.000123805
0.000122397
0.00012158
0.000121211
0.000121138
0.000121226
0.000121339
0.000121473
0.000121609
0.000121711
0.000121788
0.000121846
0.000121856
0.000121829
0.000121752
0.000121628
0.000121461
0.000121215
0.000120925
0.000120618
0.000120273
0.000119885
0.000119466
0.000118997
0.000118515
0.000117979
0.000117801
0.000119832
0.000124583
0.000127953
0.000129674
0.000122901
0.000104087
0.000225997
0.000203516
0.000199296
0.000195071
0.000193833
0.000193033
0.000192765
0.000191155
0.000189025
0.000187637
0.000187032
0.000186862
0.000186824
0.000186763
0.000186668
0.000186599
0.000186615
0.000186629
0.000186523
0.000186401
0.000185683
0.000185432
0.000174913
0.000159916
0.000147743
0.000122033
7.4452e-05
2.13967e-06
4.89867e-09
2.68025e-11
2.61096e-21
4.82058e-22
1.31481e-22
4.84952e-23
2.25167e-23
1.22516e-23
2.05773e-23
3.50467e-22
7.45924e-20
0.000170142
5.48011e-05
1.26591e-05
3.29311e-06
1.04044e-06
4.31137e-07
6.61983e-07
4.7745e-07
2.0265e-07
1.85957e-05
1.78172e-05
1.7046e-05
1.64496e-05
1.58611e-05
1.54067e-05
1.51687e-05
1.50548e-05
1.51228e-05
1.53586e-05
1.57483e-05
1.62638e-05
1.69054e-05
1.76651e-05
1.8392e-05
1.89188e-05
1.93545e-05
1.97952e-05
2.0235e-05
2.06743e-05
2.11048e-05
1.3379e-08
1.52448e-07
1.0215e-07
1.44291e-06
9.19809e-06
2.27383e-05
4.32291e-05
6.22676e-05
6.752e-05
0.000123865
0.000116453
0.000109204
0.000103837
9.92873e-05
9.64778e-05
9.60943e-05
9.53498e-05
9.39763e-05
9.35661e-05
9.39357e-05
9.43523e-05
9.46177e-05
9.47887e-05
9.49563e-05
9.52016e-05
9.55749e-05
9.60575e-05
9.65825e-05
9.71641e-05
9.8397e-05
0.000103127
0.000110636
0.000116252
0.00011895
0.000117493
0.000102722
1.12894e-05
7.50746e-08
3.11082e-11
2.5804e-13
1.38531e-21
3.44138e-22
1.16037e-22
4.94662e-23
2.47952e-23
2.73976e-23
2.09741e-22
2.08291e-20
1.09257e-05
9.07427e-06
5.39412e-06
4.82342e-06
4.7577e-06
4.8796e-06
5.03515e-06
5.00283e-06
4.91862e-06
4.84322e-06
4.69155e-06
4.49845e-06
4.33853e-06
4.16765e-06
4.02444e-06
3.93915e-06
3.88747e-06
3.88695e-06
3.93576e-06
4.03219e-06
4.16914e-06
4.34974e-06
4.57495e-06
4.80346e-06
4.97666e-06
5.11712e-06
5.25736e-06
5.39669e-06
5.53566e-06
5.67128e-06
5.80612e-06
5.95881e-06
6.06096e-06
6.37988e-06
7.32815e-06
9.63464e-06
1.18934e-05
1.52216e-05
2.10252e-05
1.78429e-05
1.69776e-05
1.70007e-05
1.54745e-05
1.49267e-05
1.46625e-05
1.4283e-05
1.40667e-05
1.37483e-05
1.3461e-05
1.34227e-05
1.3396e-05
1.337e-05
1.34112e-05
1.34744e-05
1.35949e-05
1.37626e-05
1.39732e-05
1.42072e-05
1.4454e-05
1.47886e-05
1.59318e-05
3.02556e-06
1.78606e-05
3.41368e-05
5.12741e-05
6.20407e-05
2.6841e-05
5.53505e-07
1.15118e-09
8.89462e-12
4.14328e-21
9.36802e-22
2.88424e-22
1.1263e-22
5.18932e-23
4.24122e-23
1.60719e-22
7.50927e-21
6.76834e-06
1.78534e-05
2.2364e-05
2.83891e-05
2.98202e-05
3.05352e-05
3.12288e-05
3.19915e-05
3.26414e-05
3.32358e-05
3.36635e-05
3.39089e-05
3.40767e-05
3.41751e-05
3.42119e-05
3.42335e-05
3.425e-05
3.42702e-05
3.43042e-05
3.43592e-05
3.44404e-05
3.45466e-05
3.47021e-05
3.4907e-05
3.51043e-05
3.52499e-05
3.53555e-05
3.54297e-05
3.54787e-05
3.54973e-05
3.54927e-05
3.54548e-05
3.532e-05
3.49083e-05
3.0923e-05
2.7816e-05
1.63128e-05
6.17464e-06
1.62878e-05
1.38815e-05
8.44004e-06
9.0083e-06
8.69732e-06
8.87054e-06
9.20222e-06
8.62302e-06
8.2903e-06
8.20183e-06
8.09582e-06
8.08674e-06
8.08059e-06
8.07351e-06
8.10774e-06
8.1462e-06
8.20689e-06
8.28337e-06
8.3707e-06
8.45887e-06
8.53726e-06
8.57143e-06
8.55204e-06
8.2683e-06
9.23899e-06
1.05798e-05
1.19733e-05
1.3244e-07
1.35656e-05
1.61455e-06
1.30435e-08
1.12627e-10
1.28731e-20
2.6461e-21
7.43117e-22
2.65375e-22
1.12188e-22
7.31867e-23
1.55477e-22
3.46584e-21
3.80317e-05
0.000113964
0.000123459
0.000124183
0.000123511
0.000122437
0.000122127
0.000122584
0.000123264
0.000123975
0.000124632
0.000125149
0.000125574
0.000125927
0.000126198
0.000126427
0.000126632
0.000126811
0.000126977
0.000127128
0.000127262
0.000127376
0.000127483
0.000127577