/*--------------------------------*- C++ -*----------------------------------*\
| =========                 |                                                 |
| \\      /  F ield         | OpenFOAM: The Open Source CFD Toolbox           |
|  \\    /   O peration     | Version:  2312                                  |
|   \\  /    A nd           | Website:  www.openfoam.com                      |
|    \\/     M anipulation  |                                                 |
\*---------------------------------------------------------------------------*/
FoamFile
{
    version     2.0;
    format      ascii;
    arch        "LSB;label=32;scalar=64";
    class       volScalarField;
    location    "450";
    object      turbulenceProperties:I;
}
// * * * * * * * * * * * * * * * * * * * * * * * * * * * * * * * * * * * * * //

dimensions      [0 0 0 0 0 0 0];

internalField   nonuniform List<scalar> 
10720
(
0.00396224
0.00424419
0.00433415
0.00448903
0.00469549
0.00493005
0.00522803
0.00560167
0.00608681
0.0067358
0.007614
0.00883385
0.0105658
0.0131247
0.0169517
0.02336
0.0332721
0.0497266
0.0730113
0.100212
0.134888
0.185959
0.264326
0.367559
0.456406
0.511317
0.699744
0.900705
0.770155
0.514509
0.297247
0.11433
0.0601028
0.0282603
3.46247e-09
6.41486e-09
2.5321e-09
0.079026
0.73471
0.00519566
0.00674477
0.00805941
0.00890749
0.0087448
0.0146092
0.0296197
0.050456
0.0311013
0.0196525
0.0155191
0.0141808
0.0142016
0.0154485
0.0172358
0.0210003
0.0236304
0.0346992
0.0401638
0.0434974
0.0478251
0.0569015
0.066107
0.0766165
0.0873351
0.0975039
0.0925094
0.0719733
0.0462365
0.0240898
0.00827267
0.00183714
0.000788604
0.000424962
0.000119406
6.37623e-05
8.97391e-06
0.0678583
0.462711
0.00470417
0.00416845
0.00378358
0.00341489
0.00312348
0.00287378
0.00266827
0.00249526
0.00235908
0.00225146
0.00217127
0.00210387
0.00212761
0.00234416
0.0028506
0.00387637
0.00570477
0.00886168
0.0139601
0.0213691
0.0310545
0.0430186
0.0592685
0.0797133
0.152472
0.211711
0.385126
0.571126
0.538392
0.430602
0.305408
0.189367
0.100664
0.0378651
0.0071078
2.48931e-09
0.00846415
0.114546
0.563115
0.00341951
0.00284309
0.00351283
0.0041214
0.00767433
0.0116358
0.0156304
0.0179707
0.0157303
0.0118605
0.00930946
0.00771948
0.00661774
0.00582165
0.00511553
0.00902718
0.00281487
0.0147704
0.0172652
0.00692792
0.0208583
0.00624996
0.0129665
0.0340846
0.011892
0.017984
0.00300671
0.00531804
0.00530152
0.00463297
0.00350782
0.00232635
0.00137213
0.000698628
0.000182938
3.22853e-05
9.53001e-10
0.0175222
0.175019
0.00174143
0.00210845
0.00174058
0.00149261
0.00129146
0.0011365
0.00100743
0.000929463
0.000898022
0.000889838
0.000901239
0.000929947
0.000953204
0.000964146
0.00125888
0.00042022
0.00275371
0.00427793
0.00679465
0.0104679
0.0151749
0.0207867
0.0280652
0.0383092
0.0547696
0.0808849
0.204755
0.335663
0.339124
0.305798
0.245502
0.178171
0.111518
0.0501825
0.0156254
0.00739655
0.00598477
0.197766
0.504175
0.00200922
0.00242869
0.00523703
0.00699406
0.00776601
0.00760438
0.00656017
0.00731498
0.00733087
0.00664853
0.00596137
0.00540398
0.00493579
0.00459254
0.00437383
0.00422796
0.00393974
0.00370214
0.00267216
0.00209211
0.00156964
0.00297345
0.00597217
0.000996859
0.00560141
0.00845877
0.00174904
0.00272002
0.00273065
0.00245878
0.00199313
0.00152819
0.00119627
0.00100929
0.0008743
0.001063
9.74248e-10
0.0108748
0.0999728
0.00172106
0.0017195
0.00190872
0.0018782
0.00184649
0.00180435
0.00167748
0.00165375
0.00170723
0.00168103
0.00165765
0.00171071
0.00167984
0.00157109
0.00154915
0.00152217
0.00141945
0.00106373
0.000903152
0.000598156
6.03529e-10
6.10121e-10
6.1903e-10
0.00139517
0.00654323
0.000430905
0.000298629
0.000594988
0.000817998
0.00135604
0.00355585
0.0169348
0.0435785
0.0434943
0.028192
0.0129642
0.00483997
0.227503
0.473972
0.00402195
0.00514098
0.00536263
0.00430065
0.00189198
0.00271547
0.00248463
0.00268649
0.00275608
0.00264759
0.00250256
0.00230197
0.00211288
0.00200604
0.00194122
0.00192541
0.000939572
0.00133793
0.0015619
0.00175519
0.00195078
0.00206379
0.00217913
0.00225641
0.00227911
0.00227022
0.00226958
0.00225044
0.00223199
0.00222287
0.00219889
0.00215588
0.00208748
0.0020088
0.0018466
0.00226685
0.000308105
0.00903329
0.0781266
0.0044405
0.00390798
0.00369474
0.00348283
0.00327808
0.0030978
0.00294126
0.0027992
0.00267995
0.0025808
0.00250172
0.00243971
0.00239204
0.00235359
0.0023276
0.00231312
0.00229921
0.00226113
0.00210648
0.00145109
0.000937669
0.000708764
6.36366e-10
6.48261e-10
0.00306728
0.000203907
0.000140987
0.000277744
0.000377731
0.000620007
0.00161289
0.00766345
0.000610203
0.000101263
0.016311
0.0168202
0.0050208
0.210526
0.429782
0.0046273
0.00348851
0.00129511
0.00181326
0.00206684
0.00272157
0.0036728
0.00380226
0.0037521
0.00350966
0.00328809
0.00280168
0.00232383
0.00215556
0.00202948
0.0019456
0.00192482
0.00191937
0.00190336
0.0018552
0.00179226
0.00172664
0.00164318
0.00155393
0.00149861
0.0014645
0.00142327
0.00138594
0.00136025
0.00133987
0.00131892
0.00132312
0.00135416
0.00142982
0.00134646
0.00196579
0.000273895
0.00773893
0.0646687
0.00333644
0.00307005
0.00279256
0.00254251
0.00232229
0.00214899
0.00201817
0.00191391
0.00183217
0.00177613
0.00173908
0.00171498
0.00170381
0.00170587
0.00172064
0.0017473
0.00179886
0.00187109
0.00194462
0.00201012
0.00202494
0.00164979
0.000794961
0.000637586
6.6485e-10
6.79713e-10
6.94644e-10
7.09556e-10
7.25443e-10
7.4352e-10
7.64406e-10
7.88851e-10
0.000284404
4.66567e-05
1.14117e-05
4.82955e-05
0.000129264
0.00502016
0.0209194
0.00165545
0.00148822
0.00166675
0.00270371
0.00468239
0.00578199
0.00629123
0.00658639
0.00665484
0.00649446
0.00617702
0.00582934
0.0054547
0.00510439
0.00479603
0.00452763
0.00429136
0.0040796
0.00388956
0.00371611
0.00355723
0.00341171
0.00327689
0.00315326
0.00304569
0.00295351
0.00287215
0.0028003
0.00273727
0.00268142
0.00262859
0.00256948
0.00257604
0.00249691
0.00222055
0.0022783
0.000842396
0.00606927
0.0494199
0.00115413
0.000628696
0.0010782
0.000972269
0.000909074
0.00087774
0.000858482
0.000835922
0.000820314
0.00080747
0.000800757
0.000798759
0.000801343
0.000820188
0.000829419
0.000833047
0.000865645
0.000320159
0.000718484
0.00102504
0.00129618
0.00150243
0.00159372
0.00147059
0.000836373
2.8081e-05
6.98227e-10
7.13195e-10
7.29543e-10
7.48169e-10
7.69245e-10
7.92583e-10
8.1962e-10
8.45506e-10
5.34778e-06
2.30752e-05
9.94514e-10
0.00145081
0.02743
0.00131148
0.00200401
0.00373447
0.00455332
0.00480504
0.00490613
0.00523578
0.00549352
0.00562763
0.00562758
0.0055189
0.00535615
0.00515885
0.00495951
0.00478165
0.00461813
0.00444605
0.00427411
0.00410929
0.00395194
0.00380266
0.00366163
0.00352909
0.00340607
0.00329467
0.00319627
0.00310979
0.00303326
0.00296537
0.0029053
0.00284176
0.00279748
0.00277945
0.00272874
0.00260709
0.00257537
0.00164163
0.0040981
0.0323659
0.000607519
0.000860639
0.00106734
0.0010562
0.00100576
0.00108028
0.00118211
0.00118893
0.0011951
0.00117918
0.00115633
0.00113602
0.00111721
0.00115427
0.0011211
0.00103597
0.00102498
0.000988117
0.000952096
0.000983262
0.00109647
0.00125264
0.00142952
0.00152151
0.00174211
6.36392e-05
1.42818e-05
7.16028e-10
7.32039e-10
7.50549e-10
7.71877e-10
7.95653e-10
8.23551e-10
8.47531e-10
8.81929e-10
9.15303e-10
9.41533e-10
1.80206e-09
2.47714e-09
0.00286622
0.0038327
0.00390517
0.00334978
0.00260346
0.00216634
0.00232472
0.00249163
0.0026302
0.00273731
0.00281028
0.00280777
0.00279236
0.00279399
0.00282817
0.00285217
0.00281075
0.0027446
0.00266872
0.00258422
0.00249573
0.00240658
0.00231939
0.00223732
0.00216282
0.00209659
0.0020388
0.00198872
0.00194564
0.00190851
0.00187942
0.00187166
0.00188716
0.00192273
0.00195397
0.00203203
0.00191006
0.0021732
0.0165475
0.00315239
0.00294346
0.00282775
0.00272365
0.00262551
0.00251818
0.00242397
0.00233998
0.00228575
0.00220406
0.00211344
0.00206027
0.00201384
0.00197337
0.00194121
0.00191272
0.00188931
0.00186912
0.0018208
0.00174946
0.00168538
0.00164687
0.00165831
0.00162518
0.00195083
0.0001074
2.454e-05
7.19669e-10
7.35104e-10
7.52989e-10
7.73755e-10
7.97149e-10
8.24951e-10
8.51131e-10
8.80012e-10
9.1552e-10
9.12915e-10
1.23598e-09
1.44042e-09
0.00358985
0.00302338
0.00178397
0.00134439
0.000923565
0.000799669
0.000851583
0.000901479
0.000942798
0.000982345
0.00101877
0.00102828
0.00103866
0.00105635
0.00108783
0.00111681
0.00112003
0.00111241
0.00109967
0.00108186
0.0010607
0.00103755
0.0010137
0.000990078
0.00096763
0.000947235
0.000929477
0.000914251
0.000901399
0.00089057
0.000882843
0.000884623
0.000897049
0.000923396
0.000562339
0.000792204
0.00134851
0.000612646
0.00432579
0.00302761
0.00273766
0.00254601
0.00239369
0.00226083
0.00214587
0.00205045
0.00196918
0.00190013
0.00185041
0.00180748
0.00177264
0.0017464
0.00172884
0.00172006
0.00172022
0.00173007
0.00174496
0.00179129
0.00184639
0.00184823
0.00182144
0.00182129
0.00175978
0.00198164
0.000161464
3.75542e-05
7.23568e-10
7.38537e-10
7.55873e-10
7.7599e-10
7.98685e-10
8.25405e-10
8.52506e-10
8.80464e-10
9.17632e-10
9.04925e-10
1.01606e-09
1.12398e-09
0.0021389
0.00130944
0.000820449
0.000878719
0.000224346
0.000534715
0.000483671
0.000414335
0.000266606
0.00120948
0.000144521
0.00117193
0.00114454
0.00111189
0.00107835
0.00104665
0.00101656
0.00098869
0.000963118
0.000939469
0.000917451
0.000896934
0.000877852
0.000859793
0.000842429
0.000826648
0.000812764
0.000800538
0.000789741
0.000780277
0.000771913
0.00076396
0.000746692
0.000719298
0.000735304
0.000747768
0.000659513
0.000523848
0.00210184
0.00135466
0.00138203
0.00113551
0.000979892
0.000856604
0.00075162
0.000671758
0.000612189
0.000571515
0.000551181
0.0005497
0.000564983
0.000593807
0.000635221
0.000687538
0.000746664
0.000816789
0.000890591
0.000995796
0.00116708
0.00133225
0.00144716
0.00154873
0.00157056
0.00183076
0.000225586
5.33907e-05
7.2767e-10
7.4216e-10
7.58984e-10
7.78521e-10
8.00567e-10
8.26205e-10
8.52804e-10
8.80426e-10
9.18594e-10
9.0723e-10
9.29727e-10
1.00265e-09
0.000887478
0.000836099
0.0013965
0.00232188
0.00273811
0.00284815
0.00293785
0.00300663
0.00304418
0.00304946
0.00302445
0.00300241
0.00294259
0.00286198
0.00277087
0.00267572
0.0025802
0.00248674
0.00239679
0.00231108
0.00222995
0.00215353
0.00208187
0.00201526
0.00195435
0.00189953
0.00185057
0.00180686
0.00176777
0.001733
0.0017019
0.00167286
0.00162464
0.00155577
0.00147178
0.00135978
0.00130092
0.00109048
0.000522147
0.000662569
0.000675414
0.000636997
0.000595712
0.00058284
0.000575544
0.000563572
0.000556342
0.00055008
0.000543879
0.00054116
0.000540616
0.000542536
0.000548079
0.000556719
0.000569489
0.000587472
0.000607922
0.000650245
4.23046e-05
0.00053369
0.000790464
0.00101316
0.00112456
0.0014957
0.00028843
6.94405e-05
7.31945e-10
7.45925e-10
7.62218e-10
7.81177e-10
8.02602e-10
8.27365e-10
8.53155e-10
8.79952e-10
9.17685e-10
9.12408e-10
8.98693e-10
9.54764e-10
0.00103799
0.00197434
0.00262748
0.00272171
0.00279899
0.0028993
0.00298967
0.00306528
0.00311667
0.00314251
0.00314206
0.00311844
0.00307366
0.00301315
0.00294237
0.00286494
0.00278358
0.00270044
0.00261708
0.00253468
0.00245411
0.00237608
0.00230112
0.00223009
0.00216419
0.00210428
0.00205042
0.00200219
0.0019591
0.00192118
0.00188739
0.00185942
0.00183408
0.00179761
0.00175643
0.0017113
0.00159434
0.00150502
0.00104763
0.00131793
0.00131223
0.00131128
0.00132146
0.00134702
0.00137
0.00138139
0.00138324
0.00137732
0.00136513
0.00134889
0.00133016
0.00131008
0.00128988
0.00126938
0.00125237
0.00123903
0.00122539
0.00124995
0.00118988
0.00107989
0.00105532
0.00108531
0.00108243
0.00134462
0.000407311
9.97197e-05
7.36419e-10
7.49856e-10
7.65586e-10
7.83936e-10
8.04712e-10
8.28659e-10
8.53749e-10
8.79578e-10
9.15525e-10
9.1685e-10
8.9131e-10
9.38141e-10
0.00222591
0.00251102
0.00223236
0.00159959
0.00138712
0.00146038
0.00152486
0.0015791
0.00162394
0.00166028
0.0016804
0.00168718
0.00168389
0.00167232
0.00165366
0.00162889
0.00159898
0.00156489
0.00152735
0.00148709
0.00144489
0.0014017
0.00135849
0.00131669
0.00127769
0.00124216
0.00121043
0.00118245
0.00115811
0.00113969
0.00112162
0.00111269
0.00112705
0.00114762
0.0011959
0.0012585
0.00128586
0.00133443
0.00124175
0.00228979
0.00215125
0.00205963
0.0019928
0.00194953
0.00190405
0.00186044
0.00181748
0.00177597
0.00173678
0.00170014
0.00166642
0.00163596
0.00160895
0.00158212
0.00156568
0.0015591
0.00154328
0.00152864
0.00150834
0.00146069
0.00139803
0.00134932
0.00127826
0.00138237
0.000622756
4.79106e-07
1.15644e-07
7.53962e-10
7.69105e-10
7.86819e-10
8.06914e-10
8.30022e-10
8.54455e-10
8.79468e-10
9.12961e-10
9.19454e-10
8.93512e-10
9.34937e-10
0.00228122
0.00166665
0.000593036
0.00062382
0.000516037
0.000549723
0.000575626
0.000592212
0.000605521
0.000617374
0.000621226
0.000621455
0.000621293
0.000619421
0.000617145
0.000614851
0.000611644
0.000607785
0.00060304
0.000597227
0.000590216
0.000582343
0.000573766
0.000564589
0.00055498
0.000545763
0.000537544
0.000530387
0.000524331
0.000520481
0.000516376
0.000516121
0.000526448
0.000539553
0.000567969
0.00029077
0.000614613
0.000861501
0.00100212
0.00186748
0.00174868
0.00163166
0.00152778
0.00143716
0.00135637
0.00129052
0.00123575
0.00119134
0.00115672
0.00113054
0.00111213
0.00110072
0.00109571
0.00109763
0.00110495
0.00111674
0.00113388
0.00115219
0.00120012
0.00126367
0.00128751
0.00129295
0.00127188
0.0013487
0.000859878
1.76496e-06
4.33307e-07
7.58245e-10
7.72782e-10
7.89838e-10
8.09231e-10
8.31481e-10
8.55209e-10
8.79542e-10
9.10546e-10
9.20417e-10
8.98808e-10
9.37145e-10
0.00109573
0.000710042
0.000417653
0.000577162
0.00062012
0.00063946
0.000651969
0.000656242
0.000657206
0.000656067
0.000648513
0.000638775
0.000629937
0.00062026
0.000611418
0.000603851
0.000596861
0.000590619
0.000584943
0.000579539
0.000574153
0.000568851
0.000563534
0.000557664
0.000550742
0.000543729
0.000537214
0.000531256
0.000525862
0.000521045
0.000516833
0.000512937
0.000505953
0.00048907
0.000462503
0.000447909
0.000485146
0.000185541
0.00065213
0.000555175
0.00062409
0.000343429
0.000573823
0.00053483
0.000510176
0.000484048
0.000465307
0.000450389
0.000438006
0.000430526
0.000426175
0.000424827
0.000426727
0.00043161
0.000439007
0.000448493
0.000462171
0.000135074
0.000305368
0.000506446
0.000699305
0.000855635
0.000946044
0.00107089
0.000933136
3.54767e-06
8.85627e-07
7.62702e-10
7.76616e-10
7.92997e-10
8.11671e-10
8.33061e-10
8.56028e-10
8.79705e-10
9.08492e-10
9.20383e-10
9.04399e-10
9.40897e-10
0.000459542
0.000569202
0.000930085
0.0015044
0.00159543
0.00161877
0.00164055
0.00166068
0.00167445
0.00168091
0.00167998
0.00167221
0.00165879
0.00164077
0.00161877
0.00159354
0.00156591
0.00153652
0.00150575
0.00147394
0.00144145
0.00140858
0.00137566
0.00134314
0.00131164
0.00128178
0.00125388
0.00122806
0.00120433
0.00118273
0.00116328
0.00114526
0.00112112
0.00107598
0.00101069
0.000925382
0.000831953
0.000705814
0.000712896
0.000429429
0.000404444
0.000379767
0.000367054
0.00038371
0.000396503
0.000398138
0.000398987
0.000397363
0.000392874
0.000389015
0.000384808
0.000380492
0.000376816
0.000373466
0.000370741
0.000368515
0.000366881
0.000370123
0.000386184
0.000412283
0.000460336
0.000295604
0.000507817
0.000671378
0.000811957
5.66234e-06
1.43682e-06
7.6733e-10
7.80607e-10
7.96297e-10
8.14236e-10
8.34769e-10
8.5694e-10
8.79927e-10
9.06808e-10
9.19941e-10
9.09379e-10
9.44537e-10
0.000404635
0.00133597
0.00164956
0.00172087
0.00176167
0.00179087
0.00181404
0.00183625
0.00185306
0.00186283
0.00186569
0.00186212
0.00185298
0.00183918
0.00182095
0.00179886
0.00177399
0.00174674
0.00171716
0.00168541
0.0016518
0.0016167
0.00158058
0.00154413
0.00150835
0.00147416
0.00144202
0.00141218
0.00138476
0.00135985
0.00133761
0.0013186
0.00130353
0.00128397
0.00125268
0.00120915
0.00113893
0.00100651
0.000912089
0.000977047
0.000917113
0.000945869
0.000991795
0.00103145
0.00105905
0.00107195
0.00107509
0.00107132
0.00106256
0.00105074
0.00103707
0.00102214
0.00100642
0.000990848
0.000975921
0.000961579
0.000948443
0.000937022
0.000925546
0.00088938
0.000856763
0.000781426
0.000711087
0.000695614
0.000804026
1.01316e-05
2.61241e-06
7.72126e-10
7.84753e-10
7.99739e-10
8.16931e-10
8.36608e-10
8.57965e-10
8.80218e-10
9.0545e-10
9.19436e-10
9.13664e-10
9.47584e-10
0.00152068
0.00158083
0.00135375
0.0010598
0.00104397
0.00106642
0.00108045
0.001093
0.00110409
0.00111196
0.00111659
0.00111827
0.00111721
0.00111406
0.00110793
0.00109896
0.00108859
0.00107667
0.00106251
0.00104614
0.00102774
0.00100773
0.000986519
0.000964827
0.00094347
0.000923048
0.000903887
0.000886176
0.000870044
0.000855595
0.000842895
0.000832165
0.000829958
0.000849884
0.000882498
0.000920979
0.000949498
0.000940481
0.000899777
0.00153765
0.00142161
0.00137322
0.00135874
0.0013401
0.0013181
0.00129408
0.00126854
0.00124299
0.00121838
0.00119493
0.00117297
0.00115251
0.00113338
0.00111601
0.00110059
0.00108668
0.00107448
0.0010645
0.00105657
0.00105088
0.0010342
0.000981467
0.000922559
0.000856539
0.000887377
1.9264e-05
5.04583e-06
7.77083e-10
7.89051e-10
8.03324e-10
8.19758e-10
8.38581e-10
8.5911e-10
8.80599e-10
9.04378e-10
9.19011e-10
9.17383e-10
9.50046e-10
0.00141018
0.000906775
0.000308205
0.000415076
0.000399912
0.000413357
0.000419663
0.000420737
0.000421014
0.00042083
0.000417179
0.000412779
0.000409591
0.000406348
0.000403763
0.000402359
0.000401705
0.000401895
0.000402349
0.000402725
0.000402677
0.00040223
0.000401331
0.000399515
0.000396365
0.000392774
0.000389327
0.000386121
0.000383238
0.000380747
0.000378713
0.000377274
0.000379464
0.000391658
0.000413354
0.000278939
0.00049504
0.000653413
0.000730647
0.00114411
0.00109669
0.00101105
0.000948689
0.000893991
0.000843624
0.000801351
0.000765096
0.000734888
0.000710586
0.000691167
0.000676062
0.000664902
0.000657061
0.000652192
0.000650235
0.000651172
0.000654834
0.000661151
0.000674227
0.000710275
0.000753646
0.000794417
0.000826714
0.000808666
0.000864724
3.2817e-05
8.72898e-06
7.82194e-10
7.93498e-10
8.07052e-10
8.22721e-10
8.40691e-10
8.60382e-10
8.8109e-10
9.03574e-10
9.18712e-10
9.20651e-10
9.52046e-10
0.000503605
0.000373506
0.000288227
0.00032474
0.000341326
0.000353971
0.00036012
0.000359998
0.000357811
0.000354968
0.000348985
0.000342234
0.000336669
0.000331037
0.00032639
0.00032323
0.000320788
0.000319236
0.000318337
0.000317822
0.000317367
0.000316966
0.000316471
0.000315307
0.000312933
0.000310065
0.000307272
0.000304615
0.000302153
0.000299927
0.000298002
0.000296359
0.000294545
0.000284587
0.00026581
0.000278026
0.000303894
0.000348583
0.000423501
0.000128655
0.000248833
0.000394426
0.000355571
0.000337502
0.000321146
0.000303068
0.000289535
0.000278266
0.000268385
0.000261591
0.000256545
0.000253212
0.000251774
0.000251639
0.000252934
0.000255559
0.000259416
0.000264411
0.000272209
0.000289371
0.00032227
0.000304132
0.000467159
0.000545298
0.000703757
4.86852e-05
1.31459e-05
7.87446e-10
7.98086e-10
8.10918e-10
8.25819e-10
8.42941e-10
8.61788e-10
8.81702e-10
9.03029e-10
9.18549e-10
9.23533e-10
9.53682e-10
0.000261675
0.0004186
0.000679467
0.000836195
0.000869566
0.000889195
0.000901367
0.00090885
0.000912402
0.000913296
0.000912051
0.000908748
0.000903863
0.000897736
0.000890489
0.000882284
0.000873136
0.000863034
0.000851963
0.000839905
0.000826871
0.000812913
0.000798133
0.000782818
0.000767401
0.000752237
0.000737583
0.000723624
0.000710496
0.000698327
0.000687252
0.000677209
0.000667149
0.000639171
0.000592184
0.00054341
0.000430545
0.000315349
0.000404354
0.00031533
0.000267576
0.000266583
0.0002649
0.000268749
0.000271702
0.000268976
0.000267213
0.000264699
0.00026073
0.000257665
0.000254483
0.00025138
0.000248898
0.000246554
0.000244586
0.000242895
0.000241494
0.000240387
0.000239436
0.000237082
0.000225639
0.000242568
0.000272542
0.000306607
0.00044741
6.18811e-05
1.6958e-05
7.9283e-10
8.02809e-10
8.1492e-10
8.29053e-10
8.45332e-10
8.63331e-10
8.82447e-10
9.02732e-10
9.18526e-10
9.26075e-10
9.55014e-10
0.000495566
0.000976377
0.00110924
0.00113527
0.00115595
0.00117173
0.00118467
0.00119488
0.00120172
0.0012055
0.00120673
0.00120557
0.00120239
0.00119757
0.0011913
0.00118365
0.00117468
0.00116438
0.00115268
0.00113955
0.00112495
0.0011089
0.00109141
0.00107275
0.00105351
0.00103424
0.00101529
0.000996955
0.000979459
0.000963021
0.000947844
0.000934119
0.000923073
0.000905483
0.000868398
0.000830594
0.000786898
0.000678691
0.000590355
0.000715575
0.000676829
0.000695219
0.000705989
0.000713157
0.000717129
0.000717096
0.000714326
0.000709537
0.000703174
0.000695773
0.000687658
0.000679067
0.000670204
0.000661231
0.000652297
0.000643557
0.000635193
0.000627381
0.00061996
0.000609074
0.000575549
0.000526531
0.000483647
0.00040506
0.000462366
0.000120085
3.38186e-05
7.98332e-10
8.07658e-10
8.19053e-10
8.3242e-10
8.47865e-10
8.65019e-10
8.83334e-10
9.02673e-10
9.18642e-10
9.28313e-10
9.56082e-10
0.00108327
0.0010695
0.000874452
0.000813324
0.000814478
0.000819499
0.00082804
0.00083654
0.000843434
0.000848129
0.00085088
0.000851998
0.000851663
0.000850149
0.000847675
0.000844232
0.000839844
0.000834502
0.000828132
0.000820687
0.000812127
0.000802416
0.000791551
0.000779676
0.000767169
0.000754479
0.000741937
0.000729626
0.000717793
0.000706611
0.000696201
0.000686538
0.000680112
0.000684289
0.00069592
0.000706015
0.000715457
0.000691122
0.000631955
0.00108072
0.00102023
0.00100303
0.000984834
0.000965798
0.000946402
0.00092788
0.000909878
0.000892655
0.000876479
0.000861182
0.000846753
0.000833189
0.000820391
0.000808356
0.000797086
0.000786597
0.000776943
0.000768208
0.000760528
0.000756264
0.000743796
0.000718919
0.000684937
0.000620012
0.000598148
0.000259219
1.30657e-05
3.59723e-06
8.12622e-10
8.2331e-10
8.35921e-10
8.5054e-10
8.66852e-10
8.84372e-10
9.02839e-10
9.18892e-10
9.30282e-10
9.56918e-10
0.000947686
0.000548952
8.07887e-05
0.000315877
0.000317805
0.000323453
0.000327275
0.000327118
0.000325958
0.000324337
0.000319743
0.000314417
0.00031019
0.000305795
0.000302403
0.000300635
0.000299705
0.000299937
0.000301084
0.000302881
0.000305009
0.000307331
0.000309664
0.000311119
0.000310927
0.000309911
0.000308778
0.000307528
0.000306244
0.000305
0.000303858
0.000302801
0.000302966
0.000309195
0.000133001
0.000278317
0.000406966
0.000499116
0.000520592
0.000794206
0.000781918
0.00074167
0.000710009
0.000682098
0.000655652
0.000632794
0.000612793
0.000595237
0.000580236
0.000567305
0.000556142
0.000546564
0.000538338
0.000531376
0.000525595
0.000520988
0.000517562
0.000515307
0.000514161
0.000518407
0.000539435
0.00056298
0.000577971
0.000577701
0.000592449
0.00040018
4.05249e-05
1.13213e-05
8.17691e-10
8.27686e-10
8.39548e-10
8.53356e-10
8.68835e-10
8.85565e-10
9.03223e-10
9.19269e-10
9.32016e-10
9.57552e-10
0.000259682
0.000221568
0.000174191
0.000200737
0.00021022
0.00021779
0.000219094
0.000216348
0.000213044
0.00021004
0.00020536
0.000200317
0.000196193
0.000192083
0.000188703
0.00018652
0.000185017
0.000184406
0.000184574
0.000185339
0.000186495
0.000187947
0.000189611
0.000190844
0.000190949
0.000190453
0.000189849
0.000189182
0.000188485
0.000187789
0.000187141
0.000186545
0.000185749
0.000181843
0.000180806
0.000203301
0.000227262
0.000118928
0.000317189
0.000295084
0.000292659
0.000287142
0.000269374
0.000260265
0.000251891
0.000240935
0.000232937
0.000225841
0.000218924
0.000213876
0.000209596
0.000206093
0.000203678
0.000201903
0.000200847
0.000200429
0.000200582
0.000201259
0.000202382
0.000205572
0.000220457
0.000153211
0.00027213
0.000357279
0.0004275
0.000421359
8.56177e-05
2.42624e-05
8.22852e-10
8.32169e-10
8.43299e-10
8.56309e-10
8.70966e-10
8.86917e-10
9.03811e-10
9.19767e-10
9.33542e-10
9.58009e-10
0.000184012
0.000298727
0.000437908
0.000512367
0.000531565
0.000543686
0.000545691
0.000544486
0.000542717
0.000541191
0.000539445
0.000537173
0.000534662
0.000531913
0.000528872
0.000525653
0.000522275
0.00051865
0.000514786
0.000510615
0.000506093
0.000501129
0.000495711
0.000489893
0.000483645
0.000477033
0.000470234
0.000463413
0.000456678
0.000450139
0.000443899
0.000437964
0.000431761
0.000418581
0.000388863
0.000359085
0.000284417
0.000215074
0.000291401
0.000248146
0.000194344
0.000196495
0.000189273
0.000189369
0.00018987
0.000186319
0.000182935
0.000178907
0.000174287
0.000170872
0.000167861
0.000165219
0.000163203
0.000161424
0.000159963
0.000158732
0.0001577
0.000156852
0.000156137
0.000155205
0.00015037
0.000152324
0.000167723
0.000180894
0.00021114
0.000269944
0.000114452
3.43301e-05
8.28091e-10
8.36751e-10
8.47165e-10
8.59396e-10
8.73247e-10
8.88426e-10
9.04593e-10
9.20378e-10
9.34889e-10
9.58313e-10
0.0004233
0.000714023
0.000795434
0.000815612
0.000829706
0.000839429
0.000842677
0.000843269
0.000843508
0.000843525
0.000842995
0.000841663
0.000839697
0.000837187
0.000834127
0.000830619
0.000826661
0.000822181
0.000817135
0.000811437
0.000804987
0.000797673
0.000789422
0.000780262
0.000770329
0.000759838
0.000749059
0.000738203
0.000727436
0.000716923
0.000706831
0.000697273
0.000688448
0.000678435
0.000660019
0.000630268
0.000581159
0.00051847
0.000463244
0.000549289
0.000518099
0.000507189
0.000499777
0.000498182
0.000497129
0.000493466
0.000486442
0.000477805
0.000469293
0.000461631
0.000454833
0.000448595
0.000442724
0.00043709
0.000431654
0.00042641
0.00042139
0.000416679
0.000412292
0.000407493
0.00039293
0.000363102
0.000330898
0.000282471
0.000227062
0.00027616
0.000204739
2.42402e-05
6.90526e-06
8.41419e-10
8.51139e-10
8.6261e-10
8.75672e-10
8.90093e-10
9.05558e-10
9.21094e-10
9.36082e-10
9.58482e-10
0.000820725
0.000787257
0.000654088
0.000631638
0.000633272
0.00063664
0.00063879
0.000638747
0.000638773
0.000638733
0.000638445
0.000637793
0.000636644
0.000635142
0.000633338
0.00063117
0.000628645
0.000625749
0.000622373
0.00061849
0.000613996
0.000608809
0.000602862
0.000596091
0.000588731
0.000581048
0.000573181
0.000565217
0.000557296
0.000549528
0.000542071
0.000534933
0.000529057
0.000528722
0.000534961
0.000538826
0.000539929
0.000523837
0.000482593
0.00080283
0.000752559
0.000732684
0.000712855
0.000699594
0.000687192
0.000676067
0.000663126
0.000649662
0.000637972
0.00062813
0.000619457
0.000611432
0.000603773
0.000596412
0.000589336
0.000582549
0.000576081
0.000569962
0.000564286
0.000558016
0.000552964
0.000533406
0.000507508
0.000486288
0.000441425
0.000400106
0.000348805
9.63665e-05
2.86399e-05
8.4616e-10
8.5521e-10
8.65945e-10
8.78236e-10
8.91912e-10
9.06693e-10
9.21908e-10
9.37147e-10
9.58536e-10
0.000698985
0.000399203
0.000193961
0.000100033
5.67885e-05
3.68773e-05
4.60212e-05
3.92776e-05
2.56613e-05
0.000246068
0.000240751
0.000235115
0.000230425
0.00022561
0.000221621
0.000219093
0.000217375
0.000216873
0.000217442
0.000218919
0.000221025
0.000223665
0.000226684
0.000229074
0.000229887
0.000229929
0.000229858
0.00022967
0.000229407
0.000229085
5.70258e-06
1.90416e-05
1.54277e-05
5.74441e-05
0.000143881
0.000224743
0.000308284
0.000368495
0.00038368
0.000588672
0.000564092
0.000537685
0.000515814
0.000496753
0.000482181
0.000473971
0.00046527
0.000455309
0.00044802
0.000442913
0.000438171
0.000433348
0.000428569
0.000423999
0.000419731
0.000415815
0.000412311
0.000409223
0.000406552
0.000405416
0.000411577
0.000423363
0.00043174
0.000435234
0.000431889
0.000417773
0.000402804
0.000192641
1.65935e-05
4.75338e-06
8.59366e-10
8.6939e-10
8.80934e-10
8.93877e-10
9.07985e-10
9.22814e-10
9.38105e-10
9.58493e-10
0.000175304
0.000160675
0.000125134
0.000119551
0.000119819
0.000122313
0.000125041
0.000125178
0.000124408
0.000123531
0.000121495
0.000118766
0.000116357
0.000113714
0.000111382
0.000109805
0.000108656
0.000108179
0.000108332
0.000109059
0.000110219
0.000111796
0.000113736
0.000115489
0.000116391
0.000116784
0.000117087
0.000117306
0.000117463
0.000117557
0.000117632
0.000117902
0.000117702
0.000119621
0.00012715
0.000144782
0.000159946
0.000180095
0.000211392
0.000221279
0.000213419
0.000210292
0.000197438
0.000191038
0.000186519
0.000181402
0.0001775
0.000173066
0.000168963
0.000166547
0.000164303
0.000162171
0.000160543
0.000159118
0.000158064
0.000157287
0.000156789
0.000156508
0.000156384
0.000156777
0.000161377
6.98387e-05
0.000168784
0.00023249
0.000284396
0.000314817
0.000344028
0.000262452
5.31973e-05
1.54545e-05
8.63596e-10
8.72935e-10
8.83756e-10
8.9598e-10
9.09422e-10
9.23804e-10
9.38977e-10
9.58373e-10
0.000136555
0.000222876
0.000251764
0.000286351
0.000295942
0.000301653
0.000306813
0.00031171
0.000315457
0.000318425
0.000320175
0.000320758
0.000320771
0.000320315
0.000319473
0.000318473
0.000317352
0.000316136
0.00031485
0.000313499
0.000312072
0.000310515
0.000308886
0.000307176
0.000305187
0.000302806
0.000300152
0.000297295
0.000294287
0.00029118
0.000288035
0.000284878
0.000281481
0.000277179
0.000258677
0.000243544
0.000185349
0.00011342
0.00018377
0.0001933
0.000149097
0.000151715
0.000146737
0.000146043
0.000146597
0.000139906
0.000135327
0.000132822
0.000130262
0.000128563
0.000126953
0.00012541
0.00012426
0.000123194
0.000122321
0.00012157
0.000120926
0.000120359
0.000119801
0.000118996
0.000117892
0.000115119
0.000121031
0.000129017
0.000136952
1.44095e-05
0.000171409
0.000223642
9.25881e-05
2.98747e-05
8.67885e-10
8.76568e-10
8.86691e-10
8.98211e-10
9.1099e-10
9.24871e-10
9.39781e-10
9.58195e-10
0.000320329
0.000556745
0.000584418
0.000591271
0.000594246
0.000595626
0.000597968
0.000601064
0.000603649
0.000605435
0.000606375
0.000606473
0.000606008
0.000605132
0.000603891
0.000602402
0.000600692
0.000598737
0.000596528
0.000594019
0.000591142
0.000587805
0.000583946
0.000579542
0.000574597
0.000569156
0.000563349
0.000557276
0.000551005
0.000544623
0.000538228
0.000531913
0.00052575
0.000520103
0.000507981
0.000487481
0.000452033
0.000409099
0.000361997
0.000431752
0.000394545
0.000388806
0.000384913
0.000381858
0.000381657
0.000368813
0.000358522
0.000353812
0.000350426
0.000347553
0.00034483
0.000342037
0.000339212
0.000336352
0.000333464
0.000330564
0.000327675
0.000324878
0.000322065
0.000318763
0.000315153
0.000298847
0.00027236
0.000245526
0.000209031
0.000181778
0.000184699
0.000222892
0.000164306
3.03513e-05
9.29954e-06
8.80275e-10
8.89726e-10
9.00559e-10
9.12677e-10
9.2601e-10
9.40533e-10
9.57976e-10
0.000627638
0.000582843