/*--------------------------------*- C++ -*----------------------------------*\
| =========                 |                                                 |
| \\      /  F ield         | OpenFOAM: The Open Source CFD Toolbox           |
|  \\    /   O peration     | Version:  2312                                  |
|   \\  /    A nd           | Website:  www.openfoam.com                      |
|    \\/     M anipulation  |                                                 |
\*---------------------------------------------------------------------------*/
FoamFile
{
    version     2.0;
    format      ascii;
    arch        "LSB;label=32;scalar=64";
    class       volVectorField;
    location    "49.336541402573395";
    object      U;
}
// * * * * * * * * * * * * * * * * * * * * * * * * * * * * * * * * * * * * * //

dimensions      [0 1 -1 0 0 0 0];

internalField   nonuniform List<vector> 
21039
(
(0.913749 0.0474303 0)
(1.02607 0.0665094 0)
(1.00449 0.0295385 0)
(1.00176 0.0189436 0)
(1.0012 0.0139466 0)
(1.00079 0.0105783 0)
(1.00055 0.00826405 0)
(1.0004 0.00663411 0)
(1.0003 0.00543751 0)
(1.00023 0.00453037 0)
(1.00018 0.00382725 0)
(1.00014 0.00327313 0)
(1.00011 0.00283102 0)
(1.00009 0.00247531 0)
(1.00007 0.00218786 0)
(1.00006 0.0019555 0)
(1.00004 0.00176849 0)
(1.00003 0.00161943 0)
(1.00003 0.00150258 0)
(1.00002 0.00141325 0)
(1.00001 0.00134746 0)
(1.00001 0.00130306 0)
(1 0.00128143 0)
(1 0.0012625 0)
(1 0.00124945 0)
(1 0.00123949 0)
(1.00001 0.00122864 0)
(1.00001 0.00120741 0)
(1.00001 0.00115527 0)
(0.794497 0.0730716 0)
(1.07449 0.121749 0)
(1.03986 0.0709521 0)
(1.01807 0.0498323 0)
(1.01125 0.0384458 0)
(1.00761 0.0296953 0)
(1.00535 0.0234306 0)
(1.00392 0.0188891 0)
(1.00296 0.0154698 0)
(1.00229 0.0128317 0)
(1.0018 0.0107581 0)
(1.00144 0.00910223 0)
(1.00116 0.00776344 0)
(1.00094 0.00667121 0)
(1.00077 0.00577516 0)
(1.00062 0.00503863 0)
(1.0005 0.00443444 0)
(1.0004 0.00394218 0)
(1.00031 0.00354618 0)
(1.00023 0.00323413 0)
(1.00017 0.00299573 0)
(1.00011 0.00282423 0)
(1.00006 0.00272299 0)
(1.00004 0.00265687 0)
(1.00003 0.00262688 0)
(1.00003 0.00261645 0)
(1.00004 0.00261259 0)
(1.00005 0.00259734 0)
(1.00006 0.00254342 0)
(0.667202 0.057301 0)
(1.08293 0.1249 0)
(1.08428 0.0904552 0)
(1.0462 0.0678682 0)
(1.02897 0.0543959 0)
(1.02015 0.0434842 0)
(1.01459 0.0352304 0)
(1.01088 0.0289043 0)
(1.00833 0.0239326 0)
(1.0065 0.019984 0)
(1.00517 0.0168127 0)
(1.00416 0.0142365 0)
(1.00338 0.0121238 0)
(1.00277 0.0103793 0)
(1.00227 0.00893278 0)
(1.00187 0.00773212 0)
(1.00152 0.00673814 0)
(1.00123 0.0059211 0)
(1.00098 0.00525823 0)
(1.00075 0.00473178 0)
(1.00056 0.00432706 0)
(1.00039 0.00403321 0)
(1.00024 0.00385502 0)
(1.00013 0.0037496 0)
(1.00008 0.0037099 0)
(1.00006 0.00370351 0)
(1.00006 0.00370877 0)
(1.00007 0.00370291 0)
(1.00009 0.0036562 0)
(0.540816 0.0352861 0)
(1.05053 0.110935 0)
(1.11574 0.0972141 0)
(1.07595 0.0765304 0)
(1.04906 0.0624237 0)
(1.03508 0.0513777 0)
(1.02622 0.0427715 0)
(1.02004 0.0358152 0)
(1.01561 0.030106 0)
(1.01237 0.0254184 0)
(1.00994 0.0215482 0)
(1.00808 0.0183313 0)
(1.00663 0.0156433 0)
(1.00547 0.013389 0)
(1.00452 0.0114949 0)
(1.00374 0.00990486 0)
(1.00308 0.00857558 0)
(1.0025 0.00747365 0)
(1.002 0.00657319 0)
(1.00156 0.00585402 0)
(1.00117 0.00529963 0)
(1.00081 0.00489658 0)
(1.0005 0.00465088 0)
(1.00027 0.00451468 0)
(1.00013 0.0044704 0)
(1.00006 0.00447113 0)
(1.00004 0.00448774 0)
(1.00006 0.00449342 0)
(1.00007 0.00445412 0)
(0.443901 0.0186847 0)
(0.99736 0.0919767 0)
(1.1287 0.0958637 0)
(1.10116 0.0797553 0)
(1.06794 0.0657723 0)
(1.04946 0.055165 0)
(1.03794 0.0468559 0)
(1.02971 0.0399008 0)
(1.02361 0.0340104 0)
(1.01902 0.0290356 0)
(1.01549 0.0248179 0)
(1.01274 0.0212293 0)
(1.01055 0.0181698 0)
(1.00878 0.0155589 0)
(1.00732 0.0133324 0)
(1.0061 0.0114391 0)
(1.00505 0.00983892 0)
(1.00413 0.00850013 0)
(1.00333 0.00739784 0)
(1.0026 0.0065126 0)
(1.00195 0.00582863 0)
(1.00135 0.00533205 0)
(1.00082 0.00503059 0)
(1.00042 0.00487343 0)
(1.00017 0.00483177 0)
(1.00003 0.00484575 0)
(0.999983 0.00487976 0)
(0.999984 0.00490282 0)
(0.999987 0.00487382 0)
(0.378285 0.00811833 0)
(0.939181 0.0719341 0)
(1.12652 0.0884904 0)
(1.12043 0.0789055 0)
(1.08509 0.0662234 0)
(1.06262 0.0563091 0)
(1.04884 0.0485192 0)
(1.03901 0.0418501 0)
(1.03157 0.036068 0)
(1.02584 0.031069 0)
(1.02135 0.026733 0)
(1.01777 0.0229659 0)
(1.01488 0.0196931 0)
(1.01249 0.0168524 0)
(1.0105 0.014393 0)
(1.0088 0.0122738 0)
(1.00734 0.010462 0)
(1.00604 0.00893132 0)
(1.00488 0.00766101 0)
(1.00383 0.00663497 0)
(1.00287 0.00584042 0)
(1.00199 0.00526513 0)
(1.00119 0.00491972 0)
(1.00058 0.004752 0)
(1.00019 0.00472166 0)
(0.999959 0.00475688 0)
(0.999862 0.00481605 0)
(0.999842 0.00486385 0)
(0.999827 0.00485008 0)
(0.333016 0.00234865 0)
(0.882783 0.0539054 0)
(1.11344 0.0779974 0)
(1.13334 0.0750404 0)
(1.10036 0.0645613 0)
(1.07476 0.0555538 0)
(1.0589 0.0484048 0)
(1.04775 0.0421863 0)
(1.03924 0.0366756 0)
(1.03257 0.0318017 0)
(1.02726 0.0274842 0)
(1.02295 0.0236611 0)
(1.01941 0.0202808 0)
(1.01646 0.0172993 0)
(1.01395 0.0146801 0)
(1.01178 0.0123935 0)
(1.00988 0.0104158 0)
(1.00818 0.0087282 0)
(1.00664 0.0073161 0)
(1.00523 0.00616861 0)
(1.00393 0.00527771 0)
(1.00271 0.00463472 0)
(1.00159 0.00425436 0)
(1.00073 0.00408453 0)
(1.00016 0.00407331 0)
(0.99982 0.00413742 0)
(0.999661 0.00422971 0)
(0.999605 0.00431036 0)
(0.999558 0.00431839 0)
(0.300684 -0.000179822 0)
(0.830998 0.039611 0)
(1.09313 0.067029 0)
(1.13991 0.0695227 0)
(1.11323 0.0615592 0)
(1.08586 0.053531 0)
(1.06817 0.0470196 0)
(1.05592 0.0413051 0)
(1.04655 0.0361428 0)
(1.03912 0.0314747 0)
(1.03311 0.0272548 0)
(1.02818 0.0234488 0)
(1.02407 0.0200264 0)
(1.02059 0.0169603 0)
(1.01759 0.0142283 0)
(1.01497 0.0118123 0)
(1.01263 0.0096981 0)
(1.01052 0.00787534 0)
(1.00858 0.00633676 0)
(1.00678 0.00507797 0)
(1.00509 0.00409715 0)
(1.0035 0.00339074 0)
(1.00202 0.00297873 0)
(1.00086 0.00281072 0)
(1.00007 0.00282361 0)
(0.9996 0.0029225 0)
(0.999355 0.003055 0)
(0.999242 0.00317692 0)
(0.999146 0.00321497 0)
(0.277697 -0.00097682 0)
(0.785333 0.0290901 0)
(1.0689 0.0569558 0)
(1.14101 0.0634049 0)
(1.12345 0.057898 0)
(1.09583 0.0508277 0)
(1.07666 0.0448512 0)
(1.06349 0.0395842 0)
(1.05345 0.0347617 0)
(1.04542 0.0303167 0)
(1.03886 0.0262233 0)
(1.0334 0.0224671 0)
(1.02879 0.0190342 0)
(1.02484 0.0159121 0)
(1.02139 0.013091 0)
(1.01833 0.0105638 0)
(1.01557 0.00832591 0)
(1.01304 0.00637542 0)
(1.01069 0.00471307 0)
(1.00847 0.0033421 0)
(1.00637 0.00226813 0)
(1.00435 0.00149332 0)
(1.00247 0.00104333 0)
(1.00096 0.000874051 0)
(0.999927 0.000911029 0)
(0.99928 0.00104633 0)
(0.998922 0.0012225 0)
(0.998726 0.00139339 0)
(0.998553 0.00147603 0)
(0.261267 -0.00102578 0)
(0.74617 0.0216371 0)
(1.0433 0.0482035 0)
(1.13795 0.0572626 0)
(1.13116 0.0539755 0)
(1.10473 0.0478229 0)
(1.08449 0.042267 0)
(1.07052 0.0373434 0)
(1.05996 0.032798 0)
(1.05147 0.028545 0)
(1.04446 0.0245656 0)
(1.03858 0.0208569 0)
(1.03355 0.0174162 0)
(1.02918 0.0142419 0)
(1.02532 0.0113344 0)
(1.02186 0.00869586 0)
(1.01869 0.00633048 0)
(1.01574 0.00424488 0)
(1.01297 0.00244796 0)
(1.01032 0.00094999 0)
(1.00777 -0.000236115 0)
(1.0053 -0.00109971 0)
(1.00295 -0.0016057 0)
(1.00105 -0.00179223 0)
(0.999723 -0.00174197 0)
(0.998865 -0.00157387 0)
(0.998357 -0.00135485 0)
(0.998046 -0.00114225 0)
(0.99777 -0.00102333 0)
(0.249075 -0.000812812 0)
(0.713003 0.0164638 0)
(1.01793 0.0408005 0)
(1.132 0.0513903 0)
(1.13672 0.0499898 0)
(1.11269 0.0447036 0)
(1.09181 0.0394834 0)
(1.07715 0.0348014 0)
(1.06616 0.0304549 0)
(1.05732 0.0263404 0)
(1.04996 0.0224384 0)
(1.04373 0.0187514 0)
(1.03835 0.0152836 0)
(1.03363 0.012041 0)
(1.0294 0.00903152 0)
(1.02556 0.00626483 0)
(1.022 0.00375284 0)
(1.01865 0.00150957 0)
(1.01545 -0.000449955 0)
(1.01236 -0.00210792 0)
(1.00933 -0.00344136 0)
(1.00636 -0.00442918 0)
(1.00351 -0.00502503 0)
(1.00116 -0.00525879 0)
(0.999482 -0.00521584 0)
(0.998362 -0.00502473 0)
(0.997654 -0.00476033 0)
(0.997179 -0.00449199 0)
(0.996757 -0.00434021 0)
(0.239596 -0.000560359 0)
(0.684983 0.0128849 0)
(0.993714 0.0346279 0)
(1.12414 0.0459425 0)
(1.14047 0.0460588 0)
(1.11984 0.0415682 0)
(1.09878 0.0366243 0)
(1.08353 0.0320988 0)
(1.07217 0.0278752 0)
(1.06304 0.0238404 0)
(1.05542 0.0199696 0)
(1.04891 0.0162664 0)
(1.04324 0.0127391 0)
(1.03821 0.00939825 0)
(1.03367 0.00625727 0)
(1.02948 0.00333171 0)
(1.02556 0.000638846 0)
(1.02182 -0.00180251 0)
(1.0182 -0.00396941 0)
(1.01464 -0.00583445 0)
(1.01112 -0.00736592 0)
(1.00762 -0.0085325 0)
(1.00421 -0.0092755 0)
(1.00135 -0.00960984 0)
(0.999252 -0.00961647 0)
(0.997801 -0.00943416 0)
(0.996822 -0.00914625 0)
(0.996111 -0.00883326 0)
(0.995474 -0.0086406 0)
(0.231957 -0.000357911 0)
(0.661267 0.0103629 0)
(0.971101 0.0295076 0)
(1.11511 0.0409833 0)
(1.14274 0.0422618 0)
(1.12626 0.0384816 0)
(1.10547 0.0337709 0)
(1.08977 0.0293338 0)
(1.07807 0.0251647 0)
(1.06872 0.0211523 0)
(1.06089 0.0172643 0)
(1.05416 0.0135024 0)
(1.04826 0.00987588 0)
(1.04298 0.0063984 0)
(1.03816 0.00308655 0)
(1.03367 -4.12137e-05 0)
(1.02941 -0.00296414 0)
(1.0253 -0.00565687 0)
(1.02127 -0.00808851 0)
(1.01726 -0.0102238 0)
(1.01322 -0.012023 0)
(1.00916 -0.0134455 0)
(1.00514 -0.0144205 0)
(1.00171 -0.0149413 0)
(0.999128 -0.0150727 0)
(0.99727 -0.0149598 0)
(0.995933 -0.0146936 0)
(0.994895 -0.0143673 0)
(0.993957 -0.0141493 0)
(0.225644 -0.000223222 0)
(0.641114 0.00852279 0)
(0.950296 0.0252543 0)
(1.10548 0.036517 0)
(1.14382 0.0386482 0)
(1.13203 0.0354895 0)
(1.11197 0.0309812 0)
(1.09595 0.0265811 0)
(1.08397 0.0224088 0)
(1.07444 0.0183667 0)
(1.06645 0.0144149 0)
(1.05957 0.0105507 0)
(1.05349 0.00678267 0)
(1.04801 0.00312477 0)
(1.04296 -0.000406091 0)
(1.03822 -0.00379007 0)
(1.03367 -0.00700216 0)
(1.02922 -0.0100111 0)
(1.02479 -0.0127797 0)
(1.02032 -0.0152658 0)
(1.01577 -0.0174227 0)
(1.01112 -0.0192019 0)
(1.00646 -0.0205234 0)
(1.00242 -0.0213553 0)
(0.999292 -0.0217312 0)
(0.99694 -0.021793 0)
(0.995137 -0.0216343 0)
(0.993652 -0.0213599 0)
(0.992295 -0.0211586 0)
(0.220329 -0.000146298 0)
(0.623904 0.00713287 0)
(0.93133 0.0217312 0)
(1.09564 0.0325452 0)
(1.14396 0.0352609 0)
(1.13721 0.0326253 0)
(1.11828 0.0282921 0)
(1.1021 0.0238928 0)
(1.08988 0.0196723 0)
(1.08021 0.0155564 0)
(1.07212 0.0114993 0)
(1.06513 0.00749211 0)
(1.05893 0.00354063 0)
(1.0533 -0.000343465 0)
(1.04808 -0.0041446 0)
(1.04313 -0.00784177 0)
(1.03833 -0.0114066 0)
(1.03357 -0.0148038 0)
(1.02878 -0.0179909 0)
(1.02387 -0.020919 0)
(1.01881 -0.0235349 0)
(1.01357 -0.025785 0)
(1.00828 -0.0275862 0)
(1.00364 -0.0288915 0)
(0.999981 -0.0296951 0)
(0.997104 -0.0301216 0)
(0.994751 -0.0302474 0)
(0.992689 -0.0301701 0)
(0.990768 -0.030077 0)
(0.216163 -9.66671e-05 0)
(0.6102 0.00613505 0)
(0.915428 0.0190093 0)
(1.08667 0.0292869 0)
(1.14353 0.0323649 0)
(1.1416 0.0301415 0)
(1.12403 0.0259553 0)
(1.10786 0.0215399 0)
(1.09548 0.01725 0)
(1.08571 0.0130389 0)
(1.07758 0.00885562 0)
(1.07054 0.00468458 0)
(1.06429 0.000526179 0)
(1.05859 -0.00361206 0)
(1.05328 -0.00771718 0)
(1.0482 -0.0117689 0)
(1.04323 -0.0157385 0)
(1.03825 -0.0195891 0)
(1.03316 -0.0232745 0)
(1.02789 -0.0267388 0)
(1.02237 -0.0299193 0)
(1.0166 -0.0327529 0)
(1.01074 -0.0351494 0)
(1.00559 -0.0370515 0)
(1.0015 -0.0384367 0)
(0.998193 -0.0394342 0)
(0.995313 -0.0400918 0)
(0.992577 -0.0404518 0)
(0.989877 -0.0406373 0)
(0.213098 -6.85502e-05 0)
(0.600109 0.00545571 0)
(0.903246 0.0170593 0)
(1.07936 0.026847 0)
(1.14286 0.0301397 0)
(1.14503 0.0282208 0)
(1.12879 0.0241478 0)
(1.11274 0.0197121 0)
(1.10027 0.0153558 0)
(1.09046 0.0110555 0)
(1.08232 0.00675481 0)
(1.07529 0.00243026 0)
(1.06905 -0.0019233 0)
(1.06336 -0.00630359 0)
(1.05803 -0.010702 0)
(1.0529 -0.0151014 0)
(1.04785 -0.0194766 0)
(1.04274 -0.0237929 0)
(1.03747 -0.0280041 0)
(1.03194 -0.0320502 0)
(1.02607 -0.0358587 0)
(1.01988 -0.0393521 0)
(1.01356 -0.0424112 0)
(1.00804 -0.0449389 0)
(1.00371 -0.0469127 0)
(1.00024 -0.0485459 0)
(0.997163 -0.0499688 0)
(0.994085 -0.0512098 0)
(0.990879 -0.0521177 0)
(0.210726 -2.53953e-05 0)
(0.592355 0.00499327 0)
(0.893609 0.015646 0)
(1.07325 0.0250064 0)
(1.14204 0.0284288 0)
(1.14771 0.0267454 0)
(1.13273 0.022772 0)
(1.11686 0.018329 0)
(1.10434 0.0139245 0)
(1.09451 0.00955392 0)
(1.0864 0.00515618 0)
(1.07941 0.000700952 0)
(1.07321 -0.00382248 0)
(1.06756 -0.00841712 0)
(1.06226 -0.0130797 0)
(1.05715 -0.017799 0)
(1.05209 -0.0225563 0)
(1.04694 -0.0273228 0)
(1.04157 -0.0320569 0)
(1.03589 -0.0367003 0)
(1.02979 -0.0411759 0)
(1.02328 -0.0453946 0)
(1.01657 -0.0491939 0)
(1.01069 -0.0523566 0)
(1.00616 -0.054777 0)
(1.00269 -0.0567387 0)
(0.999916 -0.058615 0)
(0.997492 -0.0607772 0)
(0.994818 -0.0626855 0)
(0.209212 -3.62333e-05 0)
(0.586999 0.004633 0)
(0.886731 0.0146405 0)
(1.06881 0.0237114 0)
(1.14148 0.0272151 0)
(1.14983 0.0256649 0)
(1.13589 0.0217333 0)
(1.12021 0.0172774 0)
(1.10769 0.0128423 0)
(1.09788 0.00842263 0)
(1.08982 0.00394866 0)
(1.0829 -0.000614725 0)
(1.07678 -0.00528218 0)
(1.0712 -0.010062 0)
(1.06598 -0.0149569 0)
(1.06094 -0.0199635 0)
(1.05594 -0.0250715 0)
(1.05082 -0.0302612 0)
(1.04547 -0.0355003 0)
(1.03975 -0.0407393 0)
(1.03358 -0.0459082 0)
(1.02694 -0.0509274 0)
(1.02007 -0.0556241 0)
(1.01403 -0.0596301 0)
(1.00936 -0.0626218 0)
(1.00588 -0.0646689 0)
(1.00328 -0.0658174 0)
(1.00154 -0.0667775 0)
(1.00159 -0.0713495 0)
(1.00001 0.00116801 0)
(1.00001 0.00117304 0)
(1.00001 0.00117304 0)
(1.00001 0.0011738 1.03787e-21)
(1.00001 0.00117642 5.17105e-21)
(1.00001 0.00118074 -9.30085e-21)
(1 0.00118656 5.16328e-21)
(1 0.0011938 -4.10832e-21)
(1 0.00120228 5.27672e-22)
(1 0.00121203 4.1035e-21)
(1 0.00122287 0)
(0.999999 0.00123477 -4.57842e-21)
(0.999997 0.00124764 5.22913e-22)
(0.999996 0.00126133 4.06171e-21)
(0.999995 0.00127582 0)
(0.999994 0.00129096 0)
(0.999993 0.00130667 -4.01161e-21)
(0.999992 0.00132286 4.01413e-21)
(0.999991 0.00133935 0)
(0.99999 0.00135612 -1.98629e-21)
(0.999989 0.00137301 2.11114e-21)
(0.999989 0.0013899 1.8487e-21)
(0.999988 0.00140672 -2.9553e-21)
(0.999987 0.00142333 9.52018e-22)
(0.999987 0.00143962 3.04628e-23)
(0.999986 0.00145551 -6.08758e-23)
(0.999986 0.00147084 8.45625e-22)
(0.999986 0.00148554 -9.6666e-22)
(0.999985 0.00149953 0)
(0.999985 0.00151266 0)
(0.999985 0.00152491 -2.37934e-22)
(0.999986 0.00153607 -2.36775e-22)
(0.999986 0.00154606 -3.99577e-21)
(0.999986 0.00155498 3.28872e-21)
(0.999987 0.00156266 -4.18752e-21)
(0.999987 0.00156906 4.18181e-21)
(0.999988 0.00157415 -3.22013e-21)
(0.999989 0.00157783 3.21916e-21)
(0.99999 0.00158012 4.56173e-22)
(0.999991 0.00158088 4.5362e-22)
(0.999992 0.00158015 -4.5104e-22)
(0.999994 0.00157786 0)
(0.999995 0.00157393 0)
(0.999997 0.00156844 0)
(0.999998 0.00156131 0)
(1 0.00155257 0)
(1 0.00154212 1.73803e-21)
(1 0.00152938 -1.73502e-21)
(1.00001 0.00151027 0)
(1.00005 0.00256224 0)
(1.00004 0.00257326 2.09655e-21)
(1.00003 0.00258115 -2.08715e-21)
(1.00001 0.00259256 -1.04087e-21)
(0.999998 0.00260865 -1.04082e-21)
(0.999986 0.00262883 -3.10904e-21)
(0.999974 0.00265276 5.19059e-21)
(0.999962 0.00268046 0)
(0.999951 0.00271134 -5.15648e-22)
(0.99994 0.00274556 -1.02971e-21)
(0.99993 0.00278262 0)
(0.999921 0.00282237 5.11724e-22)
(0.999912 0.00286468 -4.58643e-21)
(0.999904 0.00290905 4.0797e-21)
(0.999897 0.00295547 0)
(0.99989 0.00300355 1.01303e-21)
(0.999884 0.00305299 0)
(0.999879 0.00310372 0)
(0.999874 0.00315521 0)
(0.99987 0.00320732 -1.99442e-21)
(0.999867 0.00325983 1.87074e-21)
(0.999865 0.00331233 -1.24258e-22)
(0.999863 0.00336464 0)
(0.999863 0.00341649 -4.60505e-22)
(0.999863 0.00346754 4.83656e-22)
(0.999864 0.00351757 9.15976e-23)
(0.999866 0.00356633 1.21533e-22)
(0.999868 0.00361352 0)
(0.999872 0.00365891 -1.92388e-21)
(0.999876 0.00370228 1.92346e-21)
(0.999881 0.00374336 -3.57345e-21)
(0.999887 0.0037819 7.8423e-21)
(0.999893 0.00381773 -3.55577e-21)
(0.999901 0.00385062 4.70514e-22)
(0.999909 0.00388031 4.68151e-22)
(0.999917 0.00390668 4.66109e-22)
(0.999927 0.00392947 -4.63241e-22)
(0.999937 0.00394849 4.13893e-21)
(0.999948 0.00396366 -3.21606e-21)
(0.999959 0.00397465 -1.36724e-21)
(0.999972 0.00398146 4.97632e-21)
(0.999985 0.00398384 -3.61259e-21)
(0.999998 0.0039816 -1.7916e-21)
(1.00001 0.00397479 3.55426e-21)
(1.00003 0.00396298 -7.0835e-21)
(1.00004 0.00394642 3.52828e-21)
(1.00006 0.00392486 1.74565e-21)
(1.00007 0.00389759 -4.82413e-24)
(1.00009 0.00385991 0)
(1.00007 0.00367411 3.15628e-21)
(1.00003 0.00369176 -1.05381e-21)
(0.999994 0.00371172 -4.19422e-21)
(0.999956 0.00373774 2.08882e-21)
(0.999919 0.00377107 -2.08784e-21)
(0.999884 0.0038109 0)
(0.99985 0.00385681 -2.07436e-21)
(0.999818 0.00390901 -6.20723e-21)
(0.999789 0.00396629 6.20714e-21)
(0.99976 0.00402908 1.02931e-21)
(0.999734 0.00409647 0)
(0.99971 0.0041682 -6.14486e-21)
(0.999688 0.00424421 1.44646e-23)
(0.999668 0.00432346 4.08351e-21)
(0.99965 0.0044061 0)
(0.999634 0.00449141 -1.01201e-21)
(0.99962 0.00457887 -1.01141e-21)
(0.999609 0.00466856 0)
(0.999599 0.00475939 -1.00467e-21)
(0.999592 0.00485121 -1.99541e-21)
(0.999587 0.00494378 1.99602e-21)
(0.999584 0.00503625 -2.49046e-22)
(0.999584 0.00512842 -2.47513e-22)
(0.999586 0.00521992 0)
(0.99959 0.00531008 3.82408e-23)
(0.999596 0.0053986 -2.13828e-22)
(0.999605 0.00548515 0)
(0.999616 0.00556913 0)
(0.999628 0.00565018 -1.92352e-21)
(0.999644 0.00572802 1.92316e-21)
(0.999661 0.00580212 -3.81094e-21)
(0.99968 0.00587213 3.80968e-21)
(0.999701 0.00593777 0)
(0.999725 0.00599856 0)
(0.99975 0.00605419 0)
(0.999777 0.00610442 -9.30738e-22)
(0.999806 0.00614875 -1.85283e-21)
(0.999836 0.00618693 0)
(0.999869 0.00621879 -9.15767e-22)
(0.999903 0.00624375 -9.02097e-22)
(0.999939 0.00626184 2.72546e-21)
(0.999977 0.00627256 0)
(1.00002 0.00627562 3.57339e-21)
(1.00006 0.00627106 -5.3469e-21)
(1.0001 0.00625812 0)
(1.00014 0.00623714 0)
(1.00019 0.00620745 0)
(1.00024 0.00616832 -1.73868e-21)
(1.00029 0.00611616 -1.72549e-21)
(1.00003 0.00447123 -2.10851e-21)
(0.999962 0.00450031 4.21962e-21)
(0.999889 0.00453809 4.20944e-21)
(0.999816 0.00458422 6.28615e-21)
(0.999745 0.00464036 -2.10077e-21)
(0.999676 0.00470555 -4.16629e-21)
(0.999612 0.00477936 8.32759e-21)
(0.99955 0.00486221 -5.37514e-24)
(0.999493 0.00495213 -2.06853e-21)
(0.999439 0.00505002 2.07033e-21)
(0.99939 0.00515435 0)
(0.999344 0.00526481 2.05183e-21)
(0.999303 0.0053815 -2.03695e-21)
(0.999265 0.0055026 8.17237e-21)
(0.999232 0.00562864 -8.14698e-21)
(0.999204 0.0057584 6.10323e-21)
(0.999179 0.00589115 -1.01817e-21)
(0.999159 0.00602724 1.01076e-21)
(0.999143 0.00616477 1.00355e-21)
(0.999132 0.00630374 -1.00372e-21)
(0.999125 0.00644386 0)
(0.999123 0.00658374 -1.48774e-21)
(0.999125 0.00672323 1.24349e-21)
(0.999131 0.00686184 9.88221e-22)
(0.999142 0.00699849 4.59974e-23)
(0.999157 0.00713285 9.14508e-23)
(0.999176 0.0072645 1.45907e-21)
(0.9992 0.00739246 -9.71323e-22)
(0.999228 0.00751632 1.92498e-21)
(0.99926 0.00763571 -1.92467e-21)
(0.999297 0.00774979 0)
(0.999337 0.00785815 4.74581e-21)
(0.999381 0.00796036 -3.79257e-21)
(0.999429 0.00805572 3.75469e-21)
(0.999481 0.00814385 -3.75332e-21)
(0.999537 0.00822438 0)
(0.999596 0.00829659 3.69236e-21)
(0.999659 0.00836018 -1.84979e-21)
(0.999725 0.00841484 0)
(0.999795 0.00845981 3.6332e-21)
(0.999868 0.00849511 -3.62919e-21)
(0.999944 0.00852005 1.79918e-21)
(1.00002 0.0085342 1.78947e-21)
(1.00011 0.00853765 5.33281e-21)
(1.00019 0.00852928 6.6715e-24)
(1.00028 0.00850959 3.52193e-21)
(1.00037 0.00847747 1.74162e-21)
(1.00047 0.0084321 1.72744e-21)
(1.00057 0.0083712 1.72629e-21)
(0.999919 0.0048928 0)
(0.999814 0.00494038 -4.22446e-21)
(0.999697 0.00500389 -4.2121e-21)
(0.999578 0.00507797 0)
(0.999461 0.00516493 -4.19494e-21)
(0.999349 0.00526368 1.30466e-23)
(0.999242 0.00537375 8.38261e-21)
(0.999141 0.00549593 -2.09922e-21)
(0.999047 0.00562726 -1.34991e-23)
(0.998959 0.0057693 -6.22596e-21)
(0.998878 0.00591977 0)
(0.998804 0.00607838 -6.18942e-21)
(0.998737 0.00624538 2.06871e-21)
(0.998676 0.00641806 0)
(0.998623 0.00659744 -2.05067e-21)
(0.998576 0.00678168 1.06255e-23)
(0.998537 0.00696986 -2.02829e-21)
(0.998506 0.00716267 7.08643e-21)
(0.998481 0.0073572 -1.58564e-23)
(0.998464 0.0075537 -1.01905e-21)
(0.998454 0.00775183 -1.0022e-21)
(0.998452 0.00794955 1.98983e-21)
(0.998457 0.00814684 -1.99012e-21)
(0.998469 0.00834302 -2.45485e-22)
(0.998489 0.00853656 5.08682e-22)
(0.998516 0.00872713 -2.74047e-22)
(0.99855 0.00891421 9.75403e-22)
(0.998591 0.00909636 -9.73329e-22)
(0.99864 0.00927318 9.68374e-22)
(0.998695 0.00944416 1.91879e-21)
(0.998757 0.00960813 -5.73601e-21)
(0.998826 0.00976463 -9.32013e-22)
(0.998901 0.00991307 5.69361e-21)
(0.998983 0.0100525 1.8859e-21)
(0.999071 0.0101825 -3.73734e-21)
(0.999165 0.0103025 3.7351e-21)
(0.999265 0.0104117 9.907e-24)
(0.999371 0.0105096 5.52641e-21)
(0.999483 0.0105958 -3.6821e-21)
(0.9996 0.0106694 -9.11122e-21)
(0.999723 0.0107304 3.61867e-21)
(0.999852 0.0107779 1.79749e-21)
(0.999985 0.0108114 7.13954e-21)
(1.00012 0.010831 -3.56416e-21)
(1.00027 0.0108353 -1.12632e-23)
(1.00042 0.010825 -1.24052e-23)
(1.00057 0.0107985 0)
(1.00073 0.0107551 -3.46807e-21)
(1.0009 0.0106941 -3.43682e-21)
(0.999723 0.00487515 0)
(0.999569 0.00495052 -6.39556e-21)
(0.999396 0.00504976 6.38304e-21)
(0.999219 0.00516181 0)
(0.999044 0.00528996 0)
(0.998875 0.00543284 -4.21018e-21)
(0.998714 0.00559007 -3.30292e-24)
(0.998563 0.00576285 -4.2065e-21)
(0.998421 0.00594707 -8.60109e-24)
(0.998288 0.00614515 0)
(0.998166 0.00635389 0)
(0.998054 0.00657305 2.06919e-21)
(0.997952 0.00680308 0)
(0.997861 0.00704021 0)
(0.99778 0.00728607 -2.05416e-21)
(0.997711 0.00753812 4.11871e-21)
(0.997652 0.00779518 2.0495e-21)
(0.997605 0.00805839 0)
(0.997568 0.00832362 2.01132e-21)
(0.997543 0.00859149 -5.05947e-21)
(0.997529 0.00886157 -2.01155e-21)
(0.997526 0.00913104 -1.9983e-21)
(0.997535 0.00940008 1.99849e-21)
(0.997554 0.00966779 1.41892e-24)
(0.997585 0.0099321 1.54875e-23)
(0.997627 0.0101927 2.45308e-22)
(0.997679 0.010449 -4.90601e-22)
(0.997742 0.010699 0)
(0.997816 0.0109423 -9.67142e-22)
(0.997901 0.0111782 0)
(0.997996 0.0114053 0)
(0.998101 0.0116229 -1.91146e-21)
(0.998216 0.0118304 -7.57929e-21)
(0.998341 0.0120265 2.5696e-23)
(0.998475 0.0122107 1.88308e-21)
(0.998618 0.0123823 0)
(0.998771 0.0125403 -1.85178e-21)
(0.998933 0.0126841 -3.68823e-21)
(0.999103 0.0128133 3.65982e-21)
(0.999281 0.0129266 7.27995e-21)
(0.999468 0.0130243 -7.23339e-21)
(0.999663 0.013105 -6.49042e-25)
(0.999866 0.0131683 -3.57244e-21)
(1.00008 0.0132143 -3.78391e-24)
(1.00029 0.0132413 0)
(1.00052 0.0132502 -3.50439e-21)
(1.00075 0.0132389 -1.73413e-21)
(1.001 0.0132068 1.73285e-21)
(1.00126 0.0131561 3.43811e-21)
(0.999407 0.00435589 0)
(0.999192 0.00447078 4.27656e-21)
(0.998951 0.00461768 -1.28487e-20)
(0.998702 0.00477978 0)
(0.998455 0.00496181 0)
(0.998215 0.00516203 -8.50914e-21)
(0.997986 0.00538008 8.47068e-21)
(0.99777 0.00561768 -4.24516e-21)
(0.997566 0.00586936 -8.63143e-24)
(0.997377 0.0061386 4.2112e-21)
(0.997201 0.00642107 0)
(0.997041 0.00671665 0)
(0.996895 0.00702602 4.18605e-21)
(0.996764 0.00734413 0)
(0.996648 0.00767343 0)
(0.996548 0.00801043 -4.12757e-21)
(0.996464 0.00835377 1.67024e-23)
(0.996396 0.00870504 0)
(0.996343 0.00905872 2.03254e-21)
(0.996306 0.00941588 5.07979e-21)
(0.996286 0.00977596 -2.03494e-21)
(0.996281 0.0101352 0)
(0.996293 0.0104941 -1.00023e-21)
(0.996321 0.0108515 1.24928e-21)
(0.996364 0.0112046 -5.44362e-22)
(0.996424 0.0115533 -2.47927e-22)
(0.996499 0.0118966 4.8743e-22)
(0.996589 0.0122321 -9.80543e-22)
(0.996695 0.0125594 0)
(0.996816 0.0128776 -3.87039e-21)
(0.996952 0.0131848 5.7666e-21)
(0.997102 0.0134803 1.88795e-21)
(0.997267 0.0137633 -9.92301e-24)
(0.997445 0.0140321 1.88244e-21)
(0.997637 0.0142862 -1.89267e-21)
(0.997843 0.0145249 -3.72349e-21)
(0.998061 0.0147466 7.42102e-21)
(0.998292 0.0149508 -3.69087e-21)
(0.998535 0.0151371 7.33907e-21)
(0.99879 0.0153038 3.05729e-24)
(0.999057 0.0154513 7.23037e-21)
(0.999334 0.015578 -3.59053e-21)
(0.999622 0.0156834 0)
(0.999921 0.0157678 -4.4623e-24)
(1.00023 0.0158289 7.03025e-21)
(1.00055 0.0158682 0)
(1.00088 0.0158828 0)
(1.00123 0.0158725 6.01887e-21)
(1.0016 0.0158433 8.5788e-22)
(0.998933 0.00327431 1.08314e-21)
(0.998645 0.00344336 7.61369e-21)
(0.998319 0.00365153 8.59825e-21)
(0.997981 0.00387749 -8.66043e-21)
(0.997645 0.00412813 0)
(0.997317 0.00440117 -1.21435e-23)
(0.997004 0.00469635 -4.31801e-21)
(0.996706 0.00501594 -4.30099e-21)
(0.996425 0.00535285 1.27945e-20)
(0.996164 0.00571185 -4.2504e-21)
(0.995921 0.00608721 0)
(0.995699 0.00647898 8.45583e-21)
(0.995496 0.00688808 -8.39807e-21)
(0.995314 0.00730794 3.02162e-23)
(0.995153 0.007742 8.35349e-21)
(0.995013 0.00818566 -2.09798e-21)
(0.994896 0.00863729 -2.03384e-21)
(0.994799 0.00909903 4.13737e-21)
(0.994725 0.00956375 0)
(0.994672 0.0100331 -2.03883e-21)
(0.994642 0.0105061 2.03894e-21)
(0.994634 0.0109783 2.02401e-21)
(0.994649 0.0114503 -2.02395e-21)
(0.994685 0.0119205 2.52272e-22)
(0.994744 0.0123856 3.11165e-23)
(0.994824 0.0128453 7.43398e-22)
(0.994926 0.0132985 -2.98384e-24)
(0.99505 0.0137422 0)
(0.995195 0.0141759 0)
(0.99536 0.0145984 1.2808e-25)
(0.995547 0.0150073 -1.9148e-21)
(0.995753 0.015402 3.85151e-21)
(0.995979 0.0157812 -3.81701e-21)
(0.996224 0.016143 3.77918e-21)
(0.996488 0.0164868 -7.55408e-21)
(0.99677 0.0168115 1.86176e-23)
(0.99707 0.0171154 3.72782e-21)
(0.997387 0.0173979 3.67968e-21)
(0.99772 0.0176584 -7.35365e-21)
(0.99807 0.0178949 -7.29043e-21)
(0.998434 0.018108 -3.6258e-21)
(0.998814 0.0182958 -3.59893e-21)
(0.999207 0.0184576 0)
(0.999615 0.018594 -3.53676e-21)
(1.00004 0.0187022 -1.5033e-23)
(1.00047 0.018784 6.95565e-21)
(1.00092 0.018836 -8.62367e-21)
(1.0014 0.0188584 1.69348e-21)
(1.00189 0.0188628 0)
(0.998254 0.00157293 0)
(0.99788 0.00180923 -8.71514e-21)
(0.997456 0.00208821 0)
(0.997009 0.00239267 8.67481e-21)
(0.996562 0.00272948 4.34206e-21)
(0.996125 0.00309447 -8.67435e-21)
(0.995705 0.00348675 1.29477e-20)
(0.995304 0.00390911 4.2926e-21)
(0.994927 0.00435279 -4.28343e-21)
(0.994574 0.00482418 0)
(0.994246 0.00531592 4.27286e-21)
(0.993944 0.00582824 -8.51846e-21)
(0.993669 0.00636225 4.27787e-21)
(0.993422 0.00690971 -4.21534e-21)
(0.993202 0.00747509 3.44494e-23)
(0.993011 0.00805255 4.21344e-21)
(0.992849 0.00864013 -8.38271e-21)
(0.992716 0.0092405 0)
(0.992612 0.00984481 4.14338e-21)
(0.992538 0.0104552 -4.14332e-21)
(0.992493 0.0110704 -1.02339e-21)
(0.992479 0.0116849 0)
(0.992495 0.0122994 1.02372e-21)
(0.992541 0.012912 2.5296e-22)
(0.992616 0.0135186 -5.36569e-22)
(0.992722 0.0141187 7.50884e-22)
(0.992856 0.0147111 4.93481e-22)
(0.99302 0.0152919 -9.92472e-22)
(0.993213 0.0158604 0)
(0.993434 0.0164153 -1.94846e-21)
(0.993682 0.0169535 3.8965e-21)
(0.993958 0.0174742 0)
(0.994261 0.0179759 1.91083e-21)
(0.994589 0.0184561 0)
(0.994942 0.0189139 3.7707e-21)
(0.995319 0.0193483 -7.50261e-21)
(0.995721 0.0197571 3.70966e-21)
(0.996144 0.0201394 -2.62759e-23)
(0.996589 0.0204946 3.63753e-21)
(0.997055 0.0208204 -3.65381e-21)
(0.997541 0.0211174 3.6112e-21)
(0.998046 0.0213835 7.16499e-21)
(0.998569 0.0216178 0)
(0.99911 0.0218213 0)
(0.999668 0.0219904 -7.00926e-21)
(1.00024 0.0221276 -1.38821e-20)
(1.00084 0.0222286 1.37691e-20)
(1.00146 0.0222943 -7.69905e-21)
(1.00212 0.0223443 7.60626e-21)
(0.997356 -0.000830434 0)
(0.996846 -0.000464848 8.91918e-21)
(0.996283 -0.000126458 8.89431e-21)
(0.9957 0.000249384 1.32987e-20)
(0.995118 0.000689164 -1.32763e-20)
(0.994558 0.00116726 -4.38998e-21)
(0.994009 0.00167893 1.32245e-20)
(0.993481 0.00222932 -4.36665e-21)
(0.992982 0.00280677 4.36918e-21)
(0.992513 0.00341902 0)
(0.992077 0.00405658 8.73428e-21)
(0.991674 0.00471987 0)
(0.991306 0.00541023 -4.27966e-21)
(0.990974 0.00611758 -4.32317e-21)
(0.990678 0.00684758 5.68656e-23)
(0.990419 0.00759296 0)
(0.990199 0.00835136 4.25385e-21)
(0.990017 0.00912595 8.47858e-21)
(0.989873 0.00990605 0)
(0.989769 0.0106943 2.08517e-21)
(0.989705 0.011489 -2.08449e-21)
(0.98968 0.0122833 -2.06295e-21)
(0.989695 0.0130783 2.0746e-21)
(0.98975 0.0138711 -4.60026e-24)
(0.989845 0.0146572 -5.09787e-22)
(0.989981 0.0154357 -2.24099e-22)
(0.990155 0.0162047 -5.03491e-22)
(0.990368 0.0169598 1.00248e-21)
(0.99062 0.0177 0)
(0.990909 0.0184232 1.961e-21)
(0.991236 0.0191259 -3.90652e-21)
(0.991599 0.0198068 0)
(0.991997 0.0204641 0)
(0.992429 0.0210946 3.80618e-21)
(0.992894 0.0216971 -7.58432e-21)
(0.993391 0.0222705 3.78251e-21)
(0.99392 0.0228119 3.7455e-21)
(0.994477 0.0233202 0)
(0.995062 0.0237947 1.10044e-20)
(0.995674 0.0242325 -7.28235e-21)
(0.99631 0.0246348 -3.59709e-21)
(0.996971 0.0249986 -2.73804e-24)
(0.997654 0.0253231 -7.09434e-21)
(0.99836 0.0256096 -7.02406e-21)
(0.999086 0.0258539 -6.9648e-21)
(0.999835 0.0260593 2.78599e-23)
(1.00061 0.0262203 -3.4065e-23)
(1.00141 0.0263389 0)
(1.00226 0.026445 -1.34622e-20)
(0.996198 -0.00415169 0)
(0.995519 -0.00369957 2.35698e-21)
(0.994781 -0.00319626 -1.11417e-20)
(0.994024 -0.00265745 -8.89988e-21)
(0.993267 -0.00202168 8.88349e-21)
(0.992526 -0.00139801 4.53295e-21)
(0.99181 -0.000793357 -4.39023e-21)
(0.991123 -0.000100735 0)
(0.990474 0.00063847 0)
(0.989862 0.00142353 8.90094e-21)
(0.989289 0.00224133 -8.74339e-21)
(0.988757 0.00309185 4.38186e-21)
(0.988269 0.00397669 -4.37823e-21)
(0.987827 0.00488373 4.36893e-21)
(0.987431 0.00581971 4.36768e-21)
(0.987084 0.00677571 -4.32773e-21)
(0.986786 0.00774884 -4.27098e-21)
(0.986538 0.00874269 -4.24916e-21)
(0.98634 0.00974474 4.24751e-21)
(0.986194 0.0107579 -4.24646e-21)
(0.986101 0.0117799 0)
(0.986059 0.0128027 2.10982e-21)
(0.986071 0.0138271 -2.07209e-21)
(0.986136 0.0148495 1.55142e-21)
(0.986253 0.0158646 0)
(0.986424 0.0168707 1.02134e-21)
(0.986647 0.0178653 0)
(0.986921 0.0188433 -1.00136e-21)
(0.987248 0.0198027 1.88198e-23)
(0.987624 0.0207409 1.45832e-23)
(0.988049 0.0216537 3.95292e-21)
(0.988523 0.022539 0)
(0.989043 0.0233944 0)
(0.989609 0.0242159 0)
(0.990218 0.0250018 0)
(0.990868 0.0257507 -7.54482e-21)
(0.991558 0.0264589 3.757e-21)