/*--------------------------------*- C++ -*----------------------------------*\
| =========                 |                                                 |
| \\      /  F ield         | OpenFOAM: The Open Source CFD Toolbox           |
|  \\    /   O peration     | Version:  2312                                  |
|   \\  /    A nd           | Website:  www.openfoam.com                      |
|    \\/     M anipulation  |                                                 |
\*---------------------------------------------------------------------------*/
FoamFile
{
    version     2.0;
    format      ascii;
    arch        "LSB;label=32;scalar=64";
    class       volScalarField;
    location    "34.533068101508164";
    object      p;
}
// * * * * * * * * * * * * * * * * * * * * * * * * * * * * * * * * * * * * * //

dimensions      [0 2 -2 0 0 0 0];

internalField   nonuniform List<scalar> 
21039
(
0.604855
0.47099
0.428846
0.400576
0.379232
0.363125
0.350653
0.340711
0.332619
0.325925
0.320312
0.315551
0.311469
0.307936
0.304849
0.302124
0.299695
0.297506
0.295508
0.293663
0.291934
0.290291
0.288707
0.287248
0.285978
0.284858
0.283843
0.282898
0.282008
0.457717
0.419879
0.406059
0.387663
0.370879
0.357565
0.346779
0.337888
0.330496
0.324294
0.319038
0.314543
0.310666
0.307293
0.304334
0.301715
0.299374
0.297259
0.295325
0.293533
0.29185
0.290246
0.288693
0.287255
0.285993
0.284873
0.283858
0.282913
0.282021
0.368306
0.365938
0.3681
0.361334
0.352875
0.345053
0.337763
0.331188
0.325402
0.320345
0.315927
0.312064
0.308674
0.305686
0.303038
0.300674
0.298547
0.296614
0.294838
0.293184
0.291622
0.290124
0.288663
0.287296
0.286085
0.285002
0.284015
0.283093
0.28222
0.330232
0.332354
0.336829
0.33574
0.333108
0.329863
0.326025
0.322062
0.318242
0.314666
0.31138
0.308394
0.305697
0.303267
0.301076
0.299094
0.297291
0.295638
0.294107
0.292671
0.291304
0.289981
0.28868
0.287447
0.28634
0.285338
0.284413
0.283539
0.282703
0.305226
0.309195
0.315097
0.316811
0.317007
0.316259
0.314694
0.312726
0.310574
0.308365
0.306196
0.304123
0.30218
0.300376
0.298714
0.297183
0.295773
0.294465
0.293243
0.292085
0.290973
0.289884
0.288801
0.287755
0.286795
0.285908
0.285073
0.284268
0.283483
0.285607
0.290859
0.298223
0.302101
0.304109
0.304905
0.304813
0.304213
0.303289
0.302165
0.300942
0.299691
0.298458
0.297273
0.296151
0.295098
0.294114
0.293191
0.29232
0.291487
0.290676
0.289871
0.289053
0.28824
0.287465
0.286724
0.286004
0.285287
0.284567
0.272869
0.277884
0.284989
0.289946
0.293174
0.295112
0.296119
0.29654
0.296552
0.296285
0.295844
0.295302
0.294708
0.294101
0.293504
0.29293
0.292385
0.291871
0.291382
0.290909
0.29044
0.289961
0.289457
0.288921
0.28837
0.287806
0.287226
0.286619
0.285982
0.26561
0.269701
0.275446
0.280403
0.284118
0.286705
0.288446
0.289609
0.290342
0.290765
0.290975
0.291041
0.291017
0.290941
0.290842
0.290736
0.290635
0.290543
0.290458
0.290375
0.290285
0.290173
0.290027
0.289816
0.289529
0.289178
0.288766
0.288289
0.287757
0.261128
0.264319
0.268685
0.27318
0.276885
0.279694
0.281817
0.283447
0.284692
0.285642
0.286378
0.286959
0.287435
0.287843
0.28821
0.288557
0.288895
0.289231
0.289566
0.289898
0.290219
0.290515
0.290774
0.290935
0.290958
0.290857
0.290643
0.290318
0.28989
0.257762
0.260205
0.263526
0.267483
0.270994
0.273817
0.276108
0.278006
0.279588
0.280923
0.28207
0.283077
0.283984
0.284826
0.285626
0.286404
0.287173
0.28794
0.288707
0.289474
0.290234
0.290976
0.291689
0.292274
0.292655
0.292848
0.292874
0.292736
0.292446
0.254807
0.256652
0.259222
0.262663
0.265931
0.268699
0.27106
0.273116
0.274926
0.276544
0.278012
0.279369
0.280648
0.281876
0.283076
0.284264
0.285452
0.286649
0.287857
0.289076
0.290301
0.291525
0.292737
0.293801
0.294592
0.295127
0.295432
0.295515
0.295389
0.251947
0.253348
0.255389
0.258361
0.261374
0.264056
0.266439
0.268592
0.270564
0.272396
0.274123
0.275773
0.277375
0.278951
0.28052
0.282097
0.283693
0.285317
0.286971
0.288656
0.290369
0.292103
0.293854
0.295445
0.296699
0.297627
0.298256
0.298598
0.298667
0.24902
0.250112
0.251787
0.254357
0.257124
0.259704
0.262076
0.264285
0.266373
0.268372
0.27031
0.27221
0.274095
0.275985
0.277897
0.279844
0.281838
0.283885
0.285989
0.288148
0.29036
0.292624
0.29494
0.297095
0.298855
0.300222
0.301223
0.301864
0.302163
0.245958
0.246836
0.248251
0.250486
0.253029
0.255501
0.257842
0.260079
0.262248
0.264377
0.266487
0.268599
0.270734
0.272908
0.275139
0.27744
0.279822
0.28229
0.284843
0.287481
0.290197
0.292992
0.295874
0.298593
0.30087
0.3027
0.304104
0.305082
0.305644
0.242742
0.243471
0.244682
0.246625
0.248953
0.251314
0.253613
0.25586
0.258084
0.260311
0.26256
0.26485
0.267202
0.269632
0.27216
0.274799
0.27756
0.280445
0.283452
0.286572
0.289795
0.293109
0.29652
0.299742
0.30247
0.304716
0.306508
0.307834
0.30869
0.239649
0.24027
0.241323
0.243049
0.245205
0.247463
0.249715
0.251959
0.254219
0.256516
0.25887
0.261301
0.263829
0.266477
0.269266
0.272211
0.275324
0.278605
0.28205
0.28564
0.289345
0.293126
0.29695
0.300461
0.303345
0.305691
0.307599
0.309096
0.310173
0.23701
0.237562
0.23852
0.24011
0.242138
0.244305
0.246516
0.24876
0.25105
0.253404
0.255841
0.258384
0.261058
0.26389
0.266904
0.270119
0.273549
0.277197
0.281057
0.285099
0.289272
0.293487
0.297636
0.301199
0.303803
0.30561
0.306883
0.307882
0.308834
0.234812
0.23532
0.236212
0.237705
0.239636
0.241744
0.243945
0.246209
0.248537
0.250944
0.253456
0.2561
0.258906
0.261905
0.265126
0.268593
0.272326
0.276333
0.280608
0.28512
0.289799
0.294512
0.299052
0.302649
0.304678
0.305168
0.304386
0.302849
0.301669
0.233032
0.233593
0.234508
0.235907
0.237674
0.239677
0.241868
0.244174
0.246557
0.249026
0.251617
0.254364
0.257302
0.260467
0.263891
0.267607
0.271642
0.276013
0.28072
0.285737
0.290997
0.296348
0.301524
0.305511
0.307253
0.306242
0.302136
0.294354
0.282609
0.281145
0.280275
0.27941
0.278549
0.277691
0.276833
0.275977
0.27512
0.274262
0.273402
0.27254
0.271674
0.270804
0.269929
0.269049
0.268162
0.26727
0.26637
0.265463
0.264549
0.263627
0.262698
0.261761
0.260816
0.259864
0.258905
0.257939
0.256967
0.255988
0.255005
0.254016
0.253024
0.252027
0.251028
0.250026
0.249024
0.248021
0.247019
0.246019
0.245021
0.244028
0.243039
0.242055
0.241079
0.240111
0.239151
0.238201
0.237261
0.236331
0.28116
0.2803
0.279445
0.278594
0.277745
0.276898
0.276051
0.275203
0.274354
0.273503
0.272648
0.27179
0.270927
0.270059
0.269185
0.268304
0.267415
0.266519
0.265615
0.264703
0.263782
0.262853
0.261915
0.260969
0.260014
0.259051
0.258081
0.257103
0.256119
0.255129
0.254132
0.253131
0.252126
0.251118
0.250107
0.249094
0.248081
0.247068
0.246056
0.245047
0.244041
0.243039
0.242043
0.241054
0.240073
0.2391
0.238137
0.237185
0.236244
0.281381
0.280544
0.279712
0.278883
0.278056
0.277229
0.276401
0.275571
0.274739
0.273903
0.273063
0.272217
0.271364
0.270504
0.269636
0.26876
0.267874
0.266979
0.266073
0.265158
0.264232
0.263295
0.262348
0.261391
0.260424
0.259446
0.25846
0.257465
0.256461
0.25545
0.254431
0.253407
0.252377
0.251343
0.250305
0.249265
0.248223
0.247181
0.246139
0.245099
0.244062
0.243029
0.242001
0.240979
0.239965
0.238959
0.237963
0.236977
0.236003
0.2819
0.2811
0.280301
0.279504
0.278706
0.277906
0.277103
0.276296
0.275484
0.274666
0.273841
0.273007
0.272164
0.271311
0.270447
0.269572
0.268685
0.267784
0.266871
0.265945
0.265006
0.264054
0.263088
0.262109
0.261118
0.260115
0.2591
0.258073
0.257037
0.255991
0.254935
0.253872
0.252802
0.251726
0.250645
0.249559
0.248472
0.247382
0.246292
0.245203
0.244115
0.243031
0.241951
0.240876
0.239808
0.238749
0.237698
0.236656
0.235627
0.282726
0.281974
0.281219
0.280462
0.279701
0.278934
0.278162
0.277382
0.276594
0.275796
0.274986
0.274165
0.273331
0.272482
0.271619
0.270741
0.269847
0.268937
0.268009
0.267066
0.266105
0.265127
0.264133
0.263123
0.262097
0.261056
0.26
0.25893
0.257846
0.256751
0.255645
0.254528
0.253402
0.252268
0.251127
0.24998
0.24883
0.247676
0.24652
0.245363
0.244207
0.243054
0.241903
0.240757
0.239617
0.238484
0.237359
0.236243
0.235138
0.28387
0.283176
0.282475
0.281767
0.281051
0.280326
0.27959
0.278842
0.27808
0.277304
0.276513
0.275704
0.274878
0.274032
0.273168
0.272283
0.271377
0.27045
0.269502
0.268532
0.267542
0.26653
0.265497
0.264444
0.263371
0.262279
0.261169
0.260042
0.258898
0.257739
0.256566
0.255379
0.254182
0.252973
0.251756
0.250531
0.249299
0.248063
0.246823
0.245582
0.244339
0.243098
0.241858
0.240622
0.239391
0.238166
0.236948
0.235739
0.234541
0.285359
0.284733
0.284096
0.283448
0.282786
0.282109
0.281415
0.280704
0.279974
0.279223
0.27845
0.277654
0.276834
0.27599
0.27512
0.274223
0.273301
0.272351
0.271374
0.270371
0.26934
0.268284
0.267201
0.266094
0.264962
0.263806
0.262628
0.261428
0.260208
0.25897
0.257713
0.256441
0.255153
0.253853
0.252541
0.251219
0.249888
0.248551
0.247208
0.245861
0.244513
0.243164
0.241816
0.240471
0.239129
0.237793
0.236462
0.235141
0.233831
0.287241
0.286655
0.286113
0.285539
0.284938
0.284316
0.283672
0.283002
0.282306
0.281582
0.280828
0.280045
0.279231
0.278384
0.277505
0.276593
0.275647
0.274668
0.273654
0.272608
0.271528
0.270416
0.269272
0.268097
0.266893
0.265659
0.264398
0.263111
0.261798
0.260463
0.259106
0.257729
0.256333
0.254922
0.253495
0.252056
0.250606
0.249147
0.24768
0.246208
0.244733
0.243255
0.241778
0.240301
0.238828
0.23736
0.235897
0.234443
0.233002
0.289469
0.289042
0.288575
0.288072
0.287527
0.286983
0.286395
0.285766
0.285105
0.284409
0.283677
0.282906
0.282095
0.281244
0.280353
0.279419
0.278445
0.277429
0.276371
0.275273
0.274134
0.272956
0.271739
0.270484
0.269193
0.267867
0.266507
0.265116
0.263694
0.262244
0.260767
0.259266
0.257742
0.256198
0.254636
0.253058
0.251465
0.249861
0.248247
0.246626
0.245001
0.243371
0.24174
0.24011
0.238482
0.236859
0.235241
0.233632
0.232038
0.292137
0.291808
0.291436
0.291037
0.290608
0.290137
0.289621
0.288969
0.288373
0.287719
0.287009
0.286251
0.285446
0.284591
0.283685
0.282729
0.281722
0.280664
0.279556
0.278399
0.277193
0.275939
0.274638
0.273291
0.271901
0.270468
0.268994
0.267482
0.265932
0.264348
0.262731
0.261084
0.25941
0.257709
0.255986
0.254244
0.252482
0.250707
0.248919
0.247121
0.245317
0.243507
0.241695
0.239883
0.238074
0.236269
0.234468
0.23268
0.230909
0.295221
0.295016
0.294752
0.294442
0.294085
0.29368
0.293232
0.292736
0.292185
0.291573
0.29081
0.290085
0.289296
0.288442
0.287525
0.286547
0.285508
0.284408
0.283249
0.282029
0.280751
0.279416
0.278023
0.276576
0.275075
0.273522
0.271919
0.270269
0.268573
0.266834
0.265054
0.263237
0.261385
0.2595
0.257587
0.255649
0.253686
0.251706
0.24971
0.247701
0.245683
0.243658
0.24163
0.239602
0.237576
0.235555
0.233541
0.23154
0.229563
0.298664
0.2986
0.298463
0.298268
0.298013
0.297697
0.297319
0.296876
0.296369
0.295798
0.295162
0.294456
0.293675
0.292826
0.291907
0.290916
0.289853
0.288718
0.287513
0.286235
0.284887
0.283471
0.281984
0.280431
0.278813
0.277129
0.275385
0.273581
0.271717
0.269801
0.267832
0.265814
0.263752
0.261647
0.259506
0.257332
0.255126
0.252897
0.250647
0.248379
0.246101
0.243813
0.241522
0.23923
0.236942
0.234661
0.232389
0.230135
0.227913
0.302353
0.302447
0.302457
0.302398
0.302269
0.302067
0.301792
0.301442
0.301018
0.300517
0.29994
0.299284
0.29855
0.297736
0.296843
0.295875
0.294815
0.293671
0.292443
0.291126
0.289724
0.288239
0.286666
0.285012
0.283275
0.281455
0.279558
0.277584
0.275532
0.273411
0.271221
0.268965
0.266651
0.264279
0.261857
0.259391
0.256882
0.254341
0.251771
0.24918
0.246573
0.243954
0.241333
0.238711
0.236097
0.233494
0.230903
0.22834
0.225819
0.306056
0.306329
0.306509
0.306617
0.306648
0.306603
0.306479
0.306275
0.30599
0.305619
0.305164
0.304619
0.303984
0.30326
0.302436
0.301519
0.300537
0.29943
0.298221
0.296902
0.295481
0.293955
0.292318
0.290578
0.288731
0.286775
0.284718
0.282557
0.280292
0.277932
0.275477
0.272931
0.270304
0.267594
0.264815
0.261973
0.259071
0.256124
0.253135
0.250117
0.247079
0.244025
0.240972
0.237921
0.234884
0.231868
0.228874
0.225923
0.223032
0.309354
0.30982
0.310204
0.310531
0.310794
0.310995
0.311124
0.311175
0.311145
0.311019
0.310797
0.310469
0.310037
0.309497
0.308842
0.308073
0.307181
0.306192
0.305094
0.303839
0.302456
0.300941
0.299284
0.297491
0.295557
0.293476
0.291255
0.288893
0.286384
0.283741
0.280963
0.278053
0.275026
0.27188
0.268631
0.265291
0.261861
0.258366
0.25481
0.251211
0.247584
0.243936
0.240293
0.236659
0.233054
0.229488
0.225966
0.222514
0.219157
0.31106
0.311679
0.312308
0.312987
0.313679
0.31436
0.314985
0.315526
0.315961
0.316265
0.316438
0.316467
0.316357
0.316111
0.315723
0.315201
0.314531
0.313716
0.312777
0.3117
0.310437
0.30901
0.307402
0.305618
0.303645
0.301472
0.299106
0.296541
0.293768
0.290802
0.287641
0.28429
0.280765
0.277068
0.273221
0.269238
0.265126
0.260915
0.256614
0.252249
0.247839
0.243401
0.238967
0.234553
0.230192
0.225904
0.221707
0.217639
0.213733
0.309879
0.310553
0.311608
0.313037
0.314632
0.316238
0.317722
0.319021
0.320106
0.320958
0.3216
0.322031
0.322277
0.322353
0.322261
0.322022
0.321622
0.321068
0.320358
0.319489
0.318451
0.3172
0.315728
0.314036
0.312101
0.309903
0.307446
0.304714
0.301695
0.298407
0.294844
0.291014
0.286941
0.282627
0.278106
0.273396
0.26851
0.263489
0.258344
0.253106
0.247801
0.242445
0.237082
0.231728
0.226434
0.22124
0.216194
0.211373
0.206843
0.301259
0.30234
0.30557
0.30964
0.313576
0.317015
0.319843
0.3221
0.323868
0.325219
0.326246
0.326991
0.327516
0.327857
0.328027
0.328059
0.32794
0.327686
0.327285
0.326691
0.32598
0.32501
0.323781
0.32229
0.320498
0.318365
0.315887
0.313037
0.309793
0.306177
0.302182
0.297823
0.293134
0.288122
0.282839
0.277312
0.271564
0.265652
0.259589
0.253417
0.247159
0.240828
0.234458
0.228049
0.221642
0.215272
0.209023
0.20309
0.197749
0.273651
0.284386
0.296756
0.306832
0.314252
0.319552
0.323308
0.326015
0.328006
0.329483
0.330604
0.331437
0.332069
0.332541
0.332878
0.333122
0.333257
0.333306
0.333256
0.333033
0.332637
0.332073
0.331177
0.329987
0.328449
0.326492
0.32409
0.321197
0.317781
0.313867
0.309453
0.30456
0.299239
0.29351
0.287442
0.281085
0.274472
0.26768
0.260734
0.253689
0.246572
0.239387
0.232152
0.224821
0.21736
0.209685
0.201718
0.193529
0.185724
0.235423
0.234483
0.233466
0.232358
0.231142
0.229807
0.228384
0.227039
0.225899
0.224995
0.224359
0.224029
0.224039
0.224445
0.225295
0.226653
0.228596
0.231224
0.234663
0.239078
0.244696
0.251828
0.26092
0.27265
0.288117
0.308925
0.336765
0.378511
0.512069
0.23532
0.234363
0.233326
0.232193
0.230945
0.229571
0.228102
0.226708
0.225516
0.224558
0.223866
0.223473
0.223417
0.22374
0.22449
0.225726
0.227517
0.229949
0.23313
0.237198
0.242333
0.248771
0.25682
0.266869
0.279544
0.295783
0.313739
0.327157
0.364712
0.235046
0.234051
0.232967
0.231778
0.230459
0.229001
0.227429
0.225919
0.224608
0.223523
0.222694
0.222149
0.221921
0.222043
0.222554
0.223498
0.224923
0.226888
0.229457
0.232705
0.236713
0.241562
0.247308
0.25387
0.26106
0.268969
0.275271
0.272673
0.274769
0.234612
0.233553
0.232394
0.231113
0.229687
0.228097
0.226366
0.224679
0.223183
0.221904
0.220866
0.220087
0.219599
0.219421
0.219578
0.220094
0.220992
0.222294
0.224016
0.226163
0.228716
0.231624
0.234777
0.237904
0.240526
0.242608
0.243213
0.238292
0.235929
0.234044
0.232898
0.231636
0.230234
0.228662
0.226897
0.224957
0.223041
0.221309
0.219782
0.218481
0.21742
0.216617
0.216082
0.215825
0.215854
0.216168
0.216761
0.217611
0.218681
0.219904
0.221177
0.222364
0.22324
0.223382
0.222647
0.22045
0.214127
0.209961
0.233349
0.232093
0.230702
0.229149
0.227396
0.225416
0.223222
0.221031
0.21902
0.217208
0.215609
0.214233
0.213088
0.212176
0.211495
0.211039
0.210792
0.21073
0.210815
0.210991
0.211179
0.21127
0.211129
0.210566
0.209194
0.20667
0.202327
0.194576
0.189167
0.23252
0.231132
0.229587
0.227851
0.225883
0.223648
0.221157
0.218649
0.216323
0.214196
0.212276
0.210568
0.209074
0.207787
0.206698
0.20579
0.205039
0.204411
0.203859
0.203322
0.202717
0.201931
0.200823
0.19921
0.196737
0.193026
0.187635
0.180186
0.175054
0.231551
0.230005
0.228277
0.226327
0.224107
0.221576
0.218744
0.215881
0.213211
0.210746
0.208491
0.206447
0.204609
0.202965
0.201498
0.200186
0.198998
0.197894
0.196824
0.195723
0.19451
0.193079
0.191299
0.189013
0.185945
0.181795
0.176449
0.170413
0.166244
0.230423
0.228693
0.226751
0.224552
0.22204
0.219171
0.215957
0.212703
0.209663
0.206846
0.204253
0.201879
0.199714
0.197741
0.195938
0.194277
0.192725
0.191238
0.189765
0.188246
0.186607
0.184759
0.182598
0.180008
0.176788
0.172711
0.167884
0.163288
0.160054
0.229103
0.227159
0.224968
0.22248
0.219634
0.216382
0.212742
0.209066
0.205638
0.202463
0.199537
0.19685
0.194386
0.192122
0.190034
0.188089
0.18625
0.184475
0.182716
0.180918
0.179018
0.176945
0.174622
0.17196
0.168811
0.165006
0.160785
0.157298
0.154842
0.227533
0.225338
0.222859
0.220036
0.216808
0.213126
0.209018
0.204891
0.201063
0.197533
0.194291
0.191319
0.188595
0.18609
0.183775
0.181614
0.179569
0.177598
0.175657
0.173695
0.171661
0.169497
0.167141
0.164522
0.161529
0.158058
0.154433
0.15176
0.149927
0.225617
0.223127
0.220311
0.217103
0.213437
0.209275
0.20466
0.200062
0.195834
0.191966
0.188437
0.185221
0.182287
0.1796
0.177123
0.174819
0.172647
0.170565
0.16853
0.166498
0.164423
0.162258
0.159951
0.157441
0.154652
0.15154
0.148472
0.14639
0.145024
0.223203
0.220365
0.217152
0.213496
0.209336
0.204643
0.199488
0.194415
0.189807
0.185636
0.18187
0.178468
0.175389
0.17259
0.170027
0.167656
0.165436
0.163323
0.161275
0.159252
0.157213
0.155117
0.15292
0.150571
0.148017
0.145266
0.142693
0.141038
0.14
0.220026
0.21677
0.213093
0.208923
0.204211
0.19895
0.19325
0.187728
0.18279
0.178384
0.174457
0.170952
0.167814
0.164988
0.162424
0.160071
0.157884
0.15582
0.153838
0.151897
0.149961
0.147994
0.145957
0.143808
0.141508
0.139108
0.136966
0.135627
0.134816
0.215668
0.211913
0.207697
0.202952
0.197653
0.191826
0.185622
0.179733
0.174563
0.170032
0.166056
0.16256
0.159471
0.156723
0.154257
0.152017
0.149953
0.148021
0.14618
0.14439
0.142617
0.14083
0.138993
0.137072
0.135045
0.132991
0.131235
0.130143
0.129487
0.209696
0.205406
0.200649
0.195372
0.189581
0.18333
0.176807
0.170746
0.165534
0.161051
0.157187
0.153845
0.150936
0.148383
0.146119
0.144085
0.142228
0.1405
0.138862
0.137276
0.135709
0.134132
0.132516
0.130833
0.129075
0.127328
0.125883
0.124989
0.124439
0.202213
0.197404
0.192235
0.186642
0.180623
0.174234
0.167672
0.161685
0.156633
0.152368
0.148757
0.145684
0.143051
0.140772
0.138775
0.136999
0.135389
0.133898
0.132487
0.13112
0.129765
0.128394
0.126987
0.125527
0.124018
0.122534
0.121325
0.12058
0.120106
0.19259
0.187551
0.182465
0.177035
0.171181
0.164968
0.158622
0.152909
0.14817
0.144241
0.140975
0.138244
0.13594
0.133975
0.132275
0.130776
0.129427
0.128181
0.127
0.125849
0.124697
0.123516
0.122287
0.121011
0.119713
0.118458
0.117453
0.116837
0.116427
0.179506
0.175651
0.171727
0.167036
0.161699
0.155897
0.149944
0.144641
0.140313
0.136792
0.133921
0.131565
0.129611
0.127971
0.12657
0.125347
0.124252
0.123241
0.122277
0.121326
0.120357
0.119338
0.118257
0.117152
0.1161
0.115137
0.114338
0.113774
0.113347
0.231212
0.231555
0.23229
0.233715
0.235677
0.237887
0.240207
0.242578
0.245006
0.247535
0.250209
0.253067
0.256146
0.259483
0.263118
0.267087
0.271425
0.276157
0.281291
0.286808
0.292649
0.298659
0.304535
0.309104
0.310927
0.308787
0.301118
0.285553
0.253631
0.229395
0.229861
0.230714
0.23213
0.234011
0.23615
0.238436
0.240816
0.243294
0.245906
0.248688
0.251677
0.254914
0.25844
0.262297
0.26653
0.271183
0.27629
0.281873
0.287937
0.294467
0.301375
0.308442
0.314602
0.318475
0.319332
0.316564
0.311966
0.316027
0.227537
0.228085
0.229024
0.230439
0.232254
0.234319
0.236552
0.238917
0.241421
0.24409
0.246955
0.250051
0.253419
0.257105
0.261159
0.265635
0.270589
0.276076
0.282149
0.288862
0.296299
0.304546
0.313704
0.32325
0.332207
0.340815
0.349393
0.356498
0.373093
0.225611
0.226139
0.227052
0.228454
0.230276
0.23235
0.23458
0.236944
0.239463
0.242168
0.24509
0.248265
0.251736
0.255554
0.259776
0.264468
0.2697
0.275552
0.282114
0.289509
0.297942
0.307732
0.319354
0.332956
0.347613
0.363779
0.382061
0.398983
0.42084
0.223619
0.224113
0.224976
0.226349
0.228174
0.230262
0.232501
0.23487
0.2374
0.240127
0.243087
0.246319
0.249869
0.253791
0.258151
0.263022
0.268492
0.274662
0.281662
0.289675
0.299024
0.310253
0.324014
0.34113
0.360223
0.382206
0.406386
0.431127
0.458713
0.221564
0.222041
0.222872
0.224208
0.226003
0.228074
0.2303
0.232661
0.235189
0.237922
0.240901
0.244165
0.247764
0.251756
0.256209
0.261209
0.266854
0.273266
0.280601
0.289085
0.299123
0.311476
0.326576
0.346027
0.36721
0.392171
0.420586
0.451078
0.481499
0.219441
0.219907
0.220716
0.222011
0.223756
0.225783
0.227975
0.230308
0.232814
0.235532
0.238503
0.241768
0.245378
0.249394
0.253889
0.258952
0.26469
0.271238
0.278768
0.287512
0.297902
0.310966
0.326261
0.346869
0.370342
0.395995
0.423487
0.452006
0.480651
0.217244
0.217698
0.218481
0.219731
0.221416
0.223385
0.225524
0.227809
0.230271
0.232948
0.235881
0.239111
0.24269
0.246679
0.251153
0.256202
0.261936
0.268492
0.276055
0.284799
0.295151
0.307922
0.32434
0.344644
0.367533
0.391651
0.416215
0.440871
0.465393
0.214971
0.215413
0.216167
0.217364
0.218979
0.220875
0.222945
0.225163
0.227557
0.230165
0.233027
0.236184
0.239685
0.243591
0.247976
0.252927
0.258549
0.264973
0.272408
0.280815
0.290994
0.303576
0.319495
0.338411
0.358995
0.380267
0.401457
0.422325
0.442167
0.212621
0.213051
0.213775
0.214912
0.216446
0.218254
0.220236
0.222366
0.224668
0.227179
0.229936
0.232979
0.236354
0.24012
0.244343
0.249109
0.254506
0.260643
0.267689
0.275876
0.285535
0.297309
0.311697
0.328447
0.346096
0.363885
0.381232
0.398152
0.41366
0.210193
0.210609
0.211299
0.212371
0.213814
0.215522
0.217399
0.219421
0.221608
0.223993
0.226612
0.229501
0.232702
0.236268
0.240261
0.244756
0.249817
0.255577
0.262172
0.269784
0.278603
0.2891
0.301572
0.315716
0.330141
0.344167
0.357385
0.370111
0.381487
0.207688
0.20809
0.208744
0.209746
0.211091
0.212684
0.21444
0.216333
0.21838
0.220612
0.223061
0.225757
0.228739
0.232051
0.235746
0.23989
0.244553
0.249824
0.255809
0.262603
0.270346
0.27934
0.289722
0.301056
0.312159
0.322476
0.331761
0.340492
0.348082
0.20511
0.205502
0.206122
0.207051
0.208285
0.209748
0.211363
0.213105
0.21499
0.217043
0.219289
0.221756
0.224474
0.227481
0.230821
0.23455
0.238723
0.243394
0.24863
0.254472
0.261
0.268373
0.276572
0.285087
0.29301
0.299965
0.305859
0.311209
0.315661
0.20246
0.202837
0.203417
0.204267
0.205387
0.206713
0.208176
0.209752
0.211454
0.213303
0.215319
0.217524
0.21994
0.222598
0.225533
0.228785
0.232388
0.23637
0.240765
0.245573
0.250807
0.256511
0.262547
0.268417
0.273513
0.277637
0.280828
0.283581
0.285731
0.199744
0.200108
0.200647
0.201416
0.202415
0.203593
0.204891
0.206287
0.207789
0.209413
0.211175
0.213091
0.215175
0.217448
0.219933
0.222654
0.225629
0.228863
0.232358
0.236079
0.239986
0.244041
0.248032
0.251544
0.254256
0.256127
0.257285
0.258199
0.258871
0.196969
0.197322
0.19782
0.198505
0.199378
0.200401
0.201522
0.202724
0.20401
0.205392
0.206883
0.208487
0.210212
0.212068
0.214066
0.216216
0.218519
0.22096
0.223515
0.22612
0.2287
0.231167
0.233278
0.234738
0.235497
0.235642
0.235351
0.235065
0.234949
0.194141
0.194479
0.194934
0.195533
0.196279
0.197143
0.198084
0.199083
0.200141
0.201272
0.202477
0.203751
0.205097
0.206513
0.207998
0.209548
0.211149
0.212769
0.214361
0.215844
0.217121
0.218083
0.21848
0.21817
0.217349
0.216208
0.214925
0.213913
0.213492
0.191269
0.191594
0.192004
0.192518
0.193137
0.193839
0.194594
0.195382
0.196209
0.197082
0.197989
0.198924
0.199877
0.200839
0.201795
0.20273
0.203612
0.204397
0.205021
0.205391
0.205402
0.204937
0.203767
0.201914
0.199799
0.197684
0.195706
0.194245
0.193775
0.188363
0.188678
0.189046
0.189476
0.189967
0.190503
0.191066
0.191642
0.192238
0.192845
0.193452
0.194041
0.194596
0.195097
0.195518
0.19583
0.19599
0.195937
0.195596
0.194867
0.193642
0.19181
0.189172
0.185924
0.182689
0.179778
0.177255
0.175463
0.175034
0.185432
0.185734
0.186057
0.186403
0.186772
0.187142
0.187518
0.187891
0.188254
0.188598
0.188904
0.18915
0.189308
0.189349
0.189239
0.188933
0.188376
0.187496
0.186204
0.184394
0.181956
0.178789
0.174731
0.170151
0.165872
0.162239
0.159221
0.157123
0.15673
0.182486
0.182778
0.183055
0.183322
0.183577
0.183766
0.183985
0.184151
0.184285
0.184372
0.184385
0.184294
0.184065
0.183659
0.183031
0.182124
0.180871
0.179187
0.176969
0.174103
0.170474
0.165986
0.160508
0.154581
0.149239
0.144862
0.141312
0.138862
0.138453
0.179537
0.179821
0.180052
0.180243
0.180354
0.180452
0.180475
0.180439
0.180355
0.180195
0.179927
0.179515
0.178915
0.178081
0.176957
0.175477
0.173559
0.171105
0.167999
0.16411
0.159313
0.153501
0.146558
0.139188
0.13266
0.127422
0.123225
0.120331
0.119851
0.176596
0.176877
0.177066
0.177173
0.177205
0.17715
0.176995
0.176775
0.176486
0.176094
0.175562
0.174847
0.173899
0.172663
0.171075
0.169058
0.166518
0.163342
0.159396
0.154533
0.148599
0.141459
0.132981
0.123998
0.11605
0.109709
0.104645
0.101161
0.100577
0.173673
0.173944
0.174098
0.174148
0.174073
0.173868
0.173562
0.173179
0.172703
0.172099
0.171325
0.17033
0.169062
0.167457
0.165444
0.162935
0.159826
0.155988
0.151271
0.1455
0.138486
0.130041
0.119971
0.109181
0.0994928
0.0916698
0.0853632
0.0810403
0.0803133
0.170778
0.171042
0.171178
0.171166
0.170979
0.170643
0.170201
0.169669
0.169027
0.168234
0.167242
0.165998
0.164443
0.162509
0.160117
0.157172
0.15356
0.149138
0.143736
0.137154
0.12916
0.119492
0.107849
0.0951114
0.0833326
0.0735067
0.0653318
0.0597083
0.0588138
0.167921
0.168174
0.168277
0.168199
0.167915
0.167472
0.166917
0.166263
0.165483
0.16453
0.16335
0.161889
0.160084
0.157864
0.155147
0.151829
0.147788
0.14287
0.136889
0.129621
0.120791
0.110059
0.0969944
0.0823663
0.0683176
0.0559911
0.0450692
0.0372341
0.0360581
0.165132
0.165424
0.165551
0.165432
0.165036
0.164442
0.163741
0.162965
0.162068
0.160985
0.159652
0.158012
0.156002
0.15355
0.150569
0.146952
0.14257
0.137261
0.13083
0.123033
0.113567
0.10202
0.087815
0.0715548
0.0553412
0.0403249
0.0259062
0.0139607
0.0107843
0.147169
0.129897
0.106101
0.0759924
0.0426951
0.0103539
-0.0181807
-0.0446933
-0.0687967
-0.0952751
-0.122264
-0.154351
-0.187529
-0.218733
-0.244007
-0.260778
-0.269079
-0.271095
-0.270499
0.153621
0.140152
0.117219
0.0860918
0.0491595
0.0101158
-0.0274061
-0.0656911
-0.101269
-0.140989
-0.181433
-0.222798
-0.262705
-0.297858
-0.324958
-0.342769
-0.352487
-0.35668
-0.358136
0.147852
0.135394
0.11379
0.0825199
0.0432008
-0.000882438
-0.0454471
-0.0943576
-0.143225
-0.192909
-0.242879
-0.291992
-0.337487
-0.376061
-0.405182
-0.424478
-0.435673
-0.441393
-0.444178
0.136508
0.124436
0.104596
0.0739025
0.0322901
-0.0168544
-0.0701057
-0.126227
-0.184066
-0.242897
-0.3017
-0.358508
-0.409725
-0.451775
-0.482655
-0.502848
-0.514819
-0.521474
-0.525191
0.122707
0.11134
0.092476
0.0617417
0.0183221
-0.0343359
-0.0932147
-0.15609
-0.221932
-0.289534
-0.356563
-0.419815
-0.475063
-0.51893
-0.550358
-0.570822
-0.583387
-0.590936
-0.595451
0.104356
0.0932194
0.0753211
0.0452161
0.00119331
-0.0536251
-0.116377
-0.185242
-0.258267
-0.333209
-0.406641
-0.47435
-0.531932
-0.576678
-0.608574
-0.629814
-0.643726
-0.652947
-0.659037
0.0817432
0.0695691
0.0518519
0.0224141
-0.0215037
-0.0775261
-0.142998
-0.21605
-0.29399
-0.373495
-0.450164
-0.519049
-0.575924
-0.619015
-0.649323
-0.669598
-0.68329
-0.692669
-0.698954
0.056102
0.0418812
0.0230992
-0.00659407
-0.0505429
-0.107096
-0.173883
-0.248826
-0.328798
-0.409694
-0.486344
-0.553502
-0.607567
-0.647852
-0.676175
-0.695502
-0.709076
-0.718657
-0.725229
0.0284097
0.0117223
-0.00907551
-0.0401042
-0.0846037
-0.141284
-0.208071
-0.282846
-0.3622
-0.441443
-0.514941
-0.57765
-0.62692
-0.663095
-0.688528
-0.706166
-0.718952
-0.7282
-0.734594
-0.000473376
-0.0195887
-0.042807
-0.0758213
-0.121308
-0.177933
-0.243841
-0.316986
-0.393791
-0.469202
-0.537522
-0.594345
-0.638115
-0.670033
-0.692729
-0.708966
-0.721313
-0.730744
-0.737607
-0.0295611
-0.0508369
-0.0764789
-0.111669
-0.158392
-0.214965
-0.279545
-0.35003
-0.422598
-0.491977
-0.552822
-0.601774
-0.638447
-0.664705
-0.68324
-0.696537
-0.706741
-0.714605
-0.72029
-0.0576693
-0.0806894
-0.108452
-0.145567
-0.193399
-0.249764
-0.312618
-0.379643
-0.446787
-0.508898
-0.561475
-0.602443
-0.63242
-0.653609
-0.668511
-0.679213
-0.687385
-0.693673
-0.698135
-0.083675
-0.10796
-0.137363
-0.175849
-0.224311
-0.280061
-0.340781
-0.403906
-0.465291
-0.520215
-0.56523
-0.599428
-0.624096
-0.641496
-0.653833
-0.662827
-0.669796
-0.675365
-0.679425
-0.106744
-0.13187
-0.162442
-0.201713
-0.250241
-0.304875
-0.36298
-0.421691
-0.476878
-0.524492
-0.562259
-0.590275
-0.610234
-0.624276
-0.634268
-0.641595
-0.647268
-0.651864
-0.655186
-0.126297
-0.151937
-0.183271
-0.22281
-0.270864
-0.323862
-0.378868
-0.432796
-0.481762
-0.522615
-0.554209
-0.577374
-0.593935
-0.605773
-0.614387
-0.620846
-0.625917
-0.630097
-0.633135
-0.142101
-0.168058
-0.199865
-0.239322
-0.286528
-0.337544
-0.389223
-0.438414
-0.481687
-0.51683
-0.543608
-0.563282
-0.577622
-0.588218
-0.596253
-0.602548
-0.607703
-0.612113
-0.615435
-0.15426
-0.180491
-0.212656
-0.251918
-0.298143
-0.346989
-0.395118
-0.439455
-0.47723
-0.507219
-0.529924
-0.546812
-0.559468
-0.569161
-0.576785
-0.582947
-0.588116
-0.592563
-0.595919
-0.162964
-0.189552
-0.222104
-0.261265
-0.306608
-0.353332
-0.397962
-0.437679
-0.470532
-0.496219
-0.515764
-0.53066
-0.54224
-0.551466
-0.558974
-0.565186
-0.570463
-0.574974
-0.57837
-0.168488
-0.195616
-0.228722
-0.268094
-0.312933
-0.357931
-0.399506
-0.435213
-0.463943
-0.486172
-0.503268
-0.516668
-0.52746
-0.536349
-0.54377
-0.550007
-0.555344
-0.559887
-0.563307
-0.171156
-0.199085
-0.233055
-0.273137
-0.318006
-0.361686
-0.400481
-0.432462
-0.457449
-0.47663
-0.491598
-0.503657
-0.513646
-0.522044
-0.529126
-0.535077
-0.54013
-0.544361
-0.547502
-0.171121
-0.200169
-0.235416
-0.276863
-0.322466
-0.365427
-0.401929
-0.430671
-0.452412
-0.468962
-0.482062
-0.492878
-0.502039
-0.509843
-0.516443
-0.521953
-0.526558
-0.530336
-0.533098
-0.168502
-0.199031
-0.236061