/*--------------------------------*- C++ -*----------------------------------*\
| =========                 |                                                 |
| \\      /  F ield         | OpenFOAM: The Open Source CFD Toolbox           |
|  \\    /   O peration     | Version:  2312                                  |
|   \\  /    A nd           | Website:  www.openfoam.com                      |
|    \\/     M anipulation  |                                                 |
\*---------------------------------------------------------------------------*/
FoamFile
{
    version     2.0;
    format      ascii;
    arch        "LSB;label=32;scalar=64";
    class       surfaceScalarField;
    location    "61.301296163517534";
    object      phi;
}
// * * * * * * * * * * * * * * * * * * * * * * * * * * * * * * * * * * * * * //

dimensions      [0 3 -1 0 0 0 0];

oriented        oriented;

internalField   nonuniform List<scalar> 
41713
(
0.00736189
0.0568845
0.00362732
0.067981
0.00211539
0.0657584
0.00148208
0.0648797
0.00109559
0.0646329
0.000840716
0.0645013
0.000664819
0.0644223
0.00053697
0.0643743
0.000440557
0.0643428
0.000365924
0.0643211
0.000306945
0.0643054
0.000259565
0.0642938
0.00022102
0.064285
0.00018937
0.0642781
0.000163225
0.0642726
0.000141565
0.0642681
0.000123631
0.0642644
0.000108844
0.0642612
9.67514e-05
0.0642585
8.69792e-05
0.0642562
7.91765e-05
0.0642542
7.29906e-05
0.0642526
6.81485e-05
0.0642513
6.45638e-05
0.0548148
6.15575e-05
0.045679
5.88663e-05
0.038066
5.64582e-05
0.0317218
5.43292e-05
0.026435
0.0220293
5.24295e-05
0.00999298
0.0468916
0.00842436
0.0695496
0.00571118
0.0684715
0.00411622
0.0664747
0.00311393
0.0656352
0.00242073
0.0651945
0.00192088
0.0649222
0.00154894
0.0647462
0.00126462
0.0646272
0.0010421
0.0645436
0.000864467
0.0644831
0.000720325
0.064438
0.000601835
0.0644035
0.000503464
0.0643765
0.000421229
0.0643548
0.000352219
0.0643371
0.000294276
0.0643223
0.000245773
0.0643097
0.000205466
0.0642988
0.000172382
0.0642893
0.000145734
0.0642809
0.000124838
0.0642735
0.000109005
0.0642671
9.86295e-05
0.0548251
9.16263e-05
0.045686
8.65503e-05
0.0380711
8.25412e-05
0.0317258
7.91491e-05
0.0264384
0.0220321
7.63123e-05
0.00859404
0.0382975
0.009703
0.0684407
0.00746288
0.0707117
0.00569181
0.0682458
0.00450096
0.0668261
0.00361284
0.0660826
0.00292729
0.0656077
0.00239272
0.0652808
0.00197044
0.0650495
0.0016319
0.0648821
0.00135667
0.0647583
0.00113011
0.0646645
0.00094169
0.0645919
0.000783713
0.0645344
0.000650524
0.064488
0.00053792
0.0644497
0.000442753
0.0644175
0.000362645
0.0643898
0.000295776
0.0643657
0.000240744
0.0643443
0.000196444
0.0643252
0.000161967
0.064308
0.000136403
0.0642927
0.000120434
0.0548411
0.000110401
0.045696
0.000103683
0.0380778
9.87043e-05
0.0317308
9.46562e-05
0.0264424
0.0220354
9.13404e-05
0.00677264
0.0315249
0.00946897
0.0657443
0.0081116
0.072069
0.00642925
0.0699281
0.00523531
0.06802
0.00432654
0.0669914
0.00359149
0.0663428
0.00299081
0.0658815
0.00249733
0.0655429
0.00208903
0.0652904
0.00174864
0.0650987
0.00146276
0.0649504
0.00122112
0.0648335
0.00101581
0.0647397
0.000840822
0.064663
0.000691557
0.064599
0.000564494
0.0645445
0.000456942
0.0644974
0.000366835
0.0644558
0.000292575
0.0644186
0.00023292
0.0643848
0.000186857
0.0643541
0.00015329
0.0643262
0.000132996
0.0548614
0.00012084
0.0457082
0.000113138
0.0380855
0.000107724
0.0317362
0.000103538
0.0264466
0.0220387
0.000100282
0.00506279
0.0264621
0.00856364
0.0622435
0.00817223
0.0724604
0.00672553
0.0713748
0.00556707
0.0691785
0.00468753
0.0678709
0.00396544
0.0670649
0.003357
0.0664899
0.00284126
0.0660587
0.00240228
0.0657294
0.0020271
0.0654739
0.00170522
0.0652723
0.00142817
0.0651106
0.00118919
0.0649787
0.000982927
0.0648693
0.000805152
0.0647767
0.000652566
0.0646971
0.000522604
0.0646273
0.000413283
0.0645651
0.000323071
0.0645088
0.00025078
0.0644571
0.000195427
0.0644094
0.000155839
0.0643658
0.000132768
0.0548845
0.000119727
0.0457212
0.000112087
0.0380931
0.000107169
0.0317412
0.000103685
0.0264501
0.0220411
0.000101224
0.00361623
0.0228459
0.00730613
0.0585536
0.00777507
0.0719915
0.00671332
0.0724366
0.00564938
0.0702424
0.00482041
0.0686999
0.00413537
0.0677499
0.00354592
0.0670794
0.00303418
0.0665704
0.00258857
0.066175
0.0021996
0.0658628
0.00185939
0.0656125
0.00156151
0.0654085
0.0013007
0.0652395
0.00107267
0.0650973
0.000874019
0.0649754
0.000702016
0.0648691
0.000554541
0.0647748
0.000429958
0.0646897
0.000327024
0.0646117
0.000244786
0.0645394
0.000182446
0.0644718
0.000138904
0.0644094
0.000114745
0.0549086
0.00010223
0.0457337
9.58833e-05
0.0380995
9.25655e-05
0.0317445
9.07638e-05
0.0264519
0.022042
8.99523e-05
0.00252113
0.0203247
0.00601566
0.0550591
0.00709319
0.070914
0.0064615
0.0730683
0.00554709
0.0711568
0.00478867
0.0694583
0.00415567
0.0683829
0.00360089
0.0676341
0.00310837
0.0670629
0.00267046
0.0666129
0.00228085
0.0662524
0.00193413
0.0659592
0.00162574
0.0657169
0.0013519
0.0655134
0.00110952
0.0653397
0.000896114
0.0651888
0.000709706
0.0650555
0.000548794
0.0649357
0.000412262
0.0648262
0.000299316
0.0647247
0.000209401
0.0646293
0.000142043
0.0645391
9.63491e-05
0.0644551
7.2595e-05
0.0549324
6.18332e-05
0.0457445
5.79267e-05
0.0381034
5.73445e-05
0.0317451
5.83094e-05
0.0264509
0.0220401
6.0145e-05
0.00175737
0.0185674
0.00488758
0.0519289
0.00632051
0.069481
0.00607222
0.0733166
0.00532596
0.0719031
0.00464356
0.0701407
0.00406618
0.0689603
0.00355324
0.0681471
0.00308854
0.0675276
0.00266695
0.0670345
0.00228492
0.0666345
0.00193926
0.0663049
0.00162718
0.0660289
0.00134632
0.0657942
0.00109473
0.0655912
0.000870885
0.0654127
0.000673622
0.0652528
0.000502136
0.0651072
0.000355933
0.0649725
0.000234784
0.0648458
0.000138658
0.0647254
6.75418e-05
0.0646102
2.09557e-05
0.0645017
-1.14869e-06
0.0549545
-8.81077e-06
0.0457522
-9.34008e-06
0.0381039
-6.67642e-06
0.0317424
-2.5366e-06
0.0264468
0.0220351
2.4879e-06
0.00124721
0.0173201
0.00396982
0.0492062
0.00557065
0.0678802
0.00562884
0.0732584
0.00504628
0.0724856
0.00443484
0.0707522
0.00390619
0.0694889
0.00343289
0.0686204
0.00299752
0.067963
0.00259549
0.0674365
0.00222498
0.067005
0.00188446
0.0666454
0.00157257
0.0663408
0.00128819
0.0660786
0.00103041
0.065849
0.000798617
0.0656445
0.000592447
0.065459
0.000411821
0.0652878
0.00025692
0.0651274
0.000128165
0.0649746
2.61429e-05
0.0648274
-4.85712e-05
0.0646849
-9.61858e-05
0.0645493
-0.000116949
0.0549752
-0.000121827
0.045757
-0.000118472
0.0381006
-0.00011137
0.0317353
-0.000102802
0.0264382
0.0220261
-9.37535e-05
0.000913577
0.0164066
0.00324313
0.0468767
0.00488639
0.066237
0.00517456
0.0729702
0.00474271
0.0729175
0.00419625
0.0712986
0.00370673
0.0699785
0.00326595
0.0690612
0.00285632
0.0683726
0.00247267
0.0678202
0.00211387
0.0673638
0.00177941
0.0669798
0.00146893
0.0666513
0.00118221
0.0663653
0.000919233
0.066112
0.000680152
0.0658835
0.000465354
0.0656738
0.000275465
0.0654777
0.000111352
0.0652915
-2.59287e-05
0.0651119
-0.000135149
0.0649367
-0.000215031
0.0647648
-0.000264927
0.0645992
-0.000284866
0.0549952
-0.000286895
0.0457591
-0.000279538
0.0380932
-0.000267722
0.0317235
-0.000254054
0.0264246
0.0220118
-0.000239831
0.00069668
0.0157099
0.00267397
0.0448994
0.00427978
0.0646311
0.00472988
0.0725201
0.00443106
0.0732163
0.00394476
0.0717849
0.00348644
0.0704368
0.0030704
0.0694772
0.00268103
0.068762
0.00231221
0.068189
0.00196288
0.0677131
0.00163307
0.0673097
0.00132303
0.0669613
0.00103319
0.0666552
0.000764157
0.066381
0.000516729
0.066131
0.000291936
0.0658986
9.10283e-05
0.0656786
-8.45359e-05
0.065467
-0.000233011
0.0652603
-0.000352336
0.065056
-0.00044038
0.0648529
-0.000495708
0.0646545
-0.000517463
0.0550169
-0.000518531
0.0457601
-0.000508297
0.038083
-0.000492368
0.0317075
-0.000473844
0.026406
0.0219924
-0.000454442
0.000552923
0.015157
0.00222818
0.0432242
0.00375005
0.0631093
0.00430593
0.0719642
0.00411989
0.0734023
0.00368894
0.0722159
0.00325579
0.0708699
0.00285755
0.0698754
0.0024827
0.0691369
0.00212431
0.0685474
0.00178103
0.0680564
0.00145307
0.0676376
0.00114103
0.0672734
0.000845759
0.0669504
0.000568294
0.0666585
0.000309937
0.0663893
7.21834e-05
0.0661363
-0.000143238
0.0658941
-0.000334245
0.065658
-0.000498328
0.0654244
-0.000632631
0.0651903
-0.000734202
0.0649544
-0.000800705
0.064721
-0.000829264
0.0550455
-0.000833311
0.0457642
-0.000823043
0.0380727
-0.000804796
0.0316893
-0.000782388
0.0263836
0.0219683
-0.000758225
0.000453057
0.0147039
0.00187552
0.0418017
0.00329006
0.0616947
0.00390836
0.0713459
0.0038148
0.0734959
0.00343409
0.0725966
0.00302147
0.0712826
0.00263509
0.0702618
0.00226924
0.0695027
0.00191669
0.0688999
0.00157552
0.0683976
0.00124587
0.0679673
0.000928489
0.0675908
0.000624416
0.0672545
0.000334997
0.0669479
6.1787e-05
0.0666625
-0.000193413
0.0663915
-0.000428383
0.066129
-0.000640415
0.0658701
-0.00082635
0.0656104
-0.000982655
0.0653466
-0.00110564
0.0650774
-0.00119218
0.0648075
-0.00123585
0.0550892
-0.00125001
0.0457783
-0.00124536
0.0380681
-0.00122895
0.0316729
-0.00120548
0.0263602
0.0219411
-0.00117835
0.000379389
0.0143245
0.00159221
0.0405889
0.0028905
0.0603965
0.00353899
0.0706974
0.00351928
0.0735156
0.00318368
0.0729322
0.00278817
0.0716781
0.00240887
0.0706411
0.00204708
0.0698645
0.00169589
0.0692511
0.00135275
0.0687407
0.00101754
0.0683025
0.000690923
0.0679174
0.000373993
0.0675714
6.81176e-05
0.0672538
-0.00022507
0.0669557
-0.000503459
0.0666699
-0.000764375
0.06639
-0.00100463
0.0661103
-0.00122053
0.0658263
-0.00140799
0.0655341
-0.00156284
0.0652323
-0.00168163
0.0649263
-0.00175279
0.0551603
-0.00178868
0.0458142
-0.0017997
0.0380791
-0.00179311
0.0316663
-0.00177456
0.0263416
0.0219153
-0.00174877
0.000321887
0.0140026
0.00136258
0.0395482
0.00254528
0.0592137
0.00319985
0.0700429
0.00323615
0.0734793
0.00293975
0.0732286
0.00255869
0.0720591
0.00218286
0.071017
0.00182099
0.0702264
0.00146712
0.069605
0.00111817
0.0690897
0.000773553
0.0686471
0.000433712
0.0682572
9.95399e-05
0.0679056
-0.000227775
0.0675811
-0.00054655
0.0672745
-0.000854428
0.0669778
-0.00114846
0.066684
-0.00142508
0.0663869
-0.00168011
0.0660813
-0.00190906
0.065763
-0.00210772
0.0654309
-0.00227349
0.0650921
-0.002389
0.0552758
-0.00246518
0.0458904
-0.0025105
0.0381244
-0.00253022
0.031686
-0.00252922
0.0263406
0.0218995
-0.0025134
0.00023647
0.0137662
0.0010012
0.0387834
0.00191215
0.0583028
0.00245694
0.0694981
0.00252041
0.0734158
0.00229693
0.0734521
0.00198543
0.0723706
0.0016696
0.0713328
0.00136234
0.0705336
0.00105961
0.0699077
0.000758394
0.0693909
0.000457755
0.0689477
0.00015773
0.0685573
-0.000141344
0.0682047
-0.000438685
0.0678784
-0.000732944
0.0675688
-0.0010222
0.067267
-0.00130391
0.0669657
-0.00157483
0.0666578
-0.00183098
0.0663374
-0.00206793
0.066
-0.0022817
0.0656447
-0.00247079
0.0652812
-0.00261595
0.055421
-0.00272771
0.0460022
-0.00281266
0.0382094
-0.00287187
0.0317452
-0.00290515
0.0263739
0.0219105
-0.00291614
0.000177179
0.013589
0.000746821
0.0382138
0.00144908
0.0576005
0.0018941
0.0690531
0.0019653
0.0733446
0.00179529
0.0736221
0.00154173
0.0726242
0.00127867
0.0715958
0.0010204
0.0707919
0.000764232
0.0701639
0.000507305
0.0696478
0.000248431
0.0692066
-1.2761e-05
0.0688184
-0.000276292
0.0684682
-0.000541841
0.068144
-0.000808571
0.0678355
-0.00107517
0.0675336
-0.0013397
0.0672302
-0.0015995
0.0669176
-0.00185102
0.066589
-0.00208995
0.0662389
-0.00231192
0.0658667
-0.00251455
0.0654838
-0.00267616
0.0555826
-0.00280963
0.0461356
-0.0029261
0.0383258
-0.00303006
0.0318492
-0.00311905
0.0264629
0.0219707
-0.00317927
0.000136915
0.0134521
0.000570057
0.0377807
0.00111776
0.0570528
0.0014803
0.0686905
0.00155
0.0732749
0.00141894
0.0737532
0.00121215
0.072831
0.00099341
0.0718146
0.00077683
0.0710085
0.000560675
0.07038
0.000342331
0.0698661
0.000120513
0.0694284
-0.000105434
0.0690444
-0.00033585
0.0686986
-0.000570744
0.0683789
-0.000809835
0.0680746
-0.00105243
0.0677762
-0.0012973
0.0674751
-0.00154253
0.0671629
-0.00178532
0.0668318
-0.00202184
0.0664754
-0.00224746
0.0660923
-0.00245754
0.0656939
-0.0026239
0.055749
-0.00275738
0.0462691
-0.00287457
0.038443
-0.0029898
0.0319644
-0.00312126
0.0265943
0.0221291
-0.00327958
0.000105129
0.0133469
0.000442565
0.0374432
0.000878329
0.0566171
0.00117573
0.0683931
0.00123843
0.0732122
0.00113377
0.0738578
0.000963405
0.0730013
0.000781529
0.0719965
0.000600506
0.0711895
0.000418783
0.0705618
0.000233977
0.0700509
4.48215e-05
0.0696176
-0.000149428
0.0692386
-0.000349298
0.0688985
-0.000555145
0.0685847
-0.000767132
0.0682866
-0.000985137
0.0679942
-0.00120862
0.0676986
-0.00143647
0.0673907
-0.00166691
0.0670622
-0.00189729
0.0667058
-0.00212413
0.0663191
-0.00234251
0.0659123
-0.00251719
0.0559236
-0.00264737
0.0463993
-0.00273941
0.0385351
-0.00280301
0.032028
-0.0028559
0.0266472
-0.0030358
0.022309
9.67818e-05
0.021983
0.000138625
0.0219855
0.000171531
0.0219944
0.000202103
0.0219968
0.000226861
0.0220026
0.000247096
0.0220071
0.000264308
0.0220101
0.000275206
0.0220165
0.000284106
0.0220185
0.000287989
0.0220235
0.000288809
0.0220265
0.000287109
0.0220291
0.000280967
0.0220335
0.000273229
0.0220351
0.000262242
0.0220383
0.000248952
0.0220406
0.00023433
0.022042
0.000216729
0.022045
0.000198066
0.022046
0.000178165
0.0220473
0.000156697
0.0220488
0.000134615
0.0220494
0.000111863
0.0220501
8.85984e-05
0.0220506
6.52236e-05
0.0220507
4.19048e-05
0.0220507
1.90257e-05
0.0220502
-3.41429e-06
0.0220498
-2.50943e-05
0.022049
-4.53741e-05
0.0220476
-6.4748e-05
0.0220467
-8.23864e-05
0.022045
-9.79853e-05
0.022043
-0.000112309
0.0220417
-0.000123322
0.0220384
-0.000132347
0.0220364
-0.000139077
0.0220341
-0.000141619
0.0220299
-0.000142363
0.0220281
-0.00013842
0.0220234
-0.000131302
0.0220202
-0.000121043
0.0220171
-0.000104966
0.0220113
-8.67079e-05
0.0220091
-6.17122e-05
0.0220024
-3.32522e-05
0.0219989
3.6132e-08
0.0219941
3.97024e-05
0.0219877
0.0219852
8.18899e-05
0.000119965
0.0219394
0.000161343
0.0219441
0.000194017
0.0219618
0.000224608
0.0219662
0.000249642
0.0219776
0.000270408
0.0219864
0.000288396
0.0219922
0.000300309
0.0220045
0.000310446
0.0220083
0.00031578
0.0220181
0.000318252
0.0220241
0.000318389
0.0220289
0.00031426
0.0220376
0.000308694
0.0220407
0.000300028
0.022047
0.000289194
0.0220515
0.000277147
0.022054
0.000262232
0.0220599
0.000246348
0.0220619
0.000229305
0.0220643
0.000210767
0.0220674
0.000191667
0.0220685
0.000171938
0.0220698
0.000151728
0.0220708
0.000131421
0.022071
0.000111172
0.0220709
9.13573e-05
0.02207
7.19574e-05
0.0220692
5.32824e-05
0.0220677
3.59619e-05
0.022065
1.94788e-05
0.0220632
4.65302e-06
0.0220598
-8.22616e-06
0.0220558
-1.99424e-05
0.0220534
-2.84595e-05
0.0220469
-3.51206e-05
0.022043
-3.96296e-05
0.0220386
-4.00972e-05
0.0220304
-3.89385e-05
0.0220269
-3.32648e-05
0.0220177
-2.4611e-05
0.0220116
-1.30254e-05
0.0220055
4.16269e-06
0.0219941
2.32874e-05
0.02199
4.89073e-05
0.0219767
7.77201e-05
0.0219701
0.000111075
0.0219607
0.000150492
0.0219483
0.0219436
0.0001921
0.000134655
0.021896
0.000175921
0.0219029
0.000208746
0.0219289
0.000239753
0.0219352
0.000265468
0.0219518
0.000287169
0.0219647
0.000306336
0.021973
0.000319664
0.0219912
0.000331436
0.0219965
0.000338618
0.022011
0.000343136
0.0220195
0.000345503
0.0220266
0.000343782
0.0220393
0.000340781
0.0220437
0.000334831
0.022053
0.000326848
0.0220595
0.000317769
0.0220631
0.000305937
0.0220717
0.000293227
0.0220746
0.000279439
0.0220781
0.000264227
0.0220826
0.000248505
0.0220843
0.000232194
0.0220861
0.000215433
0.0220876
0.000198585
0.0220879
0.000181794
0.0220877
0.000165428
0.0220864
0.000149446
0.0220852
0.000134147
0.022083
0.000120152
0.022079
0.000106923
0.0220764
9.5273e-05
0.0220715
8.54784e-05
0.0220656
7.67337e-05
0.0220621
7.10728e-05
0.0220525
6.7127e-05
0.022047
6.51792e-05
0.0220405
6.71138e-05
0.0220284
7.04886e-05
0.0220236
7.81931e-05
0.02201
8.86715e-05
0.0220011
0.000101862
0.0219923
0.000120435
0.0219755
0.000140695
0.0219697
0.000167204
0.0219502
0.000196631
0.0219407
0.000230313
0.021927
0.000269759
0.0219088
0.0219023
0.000311055
0.000143876
0.0218524
0.000185628
0.0218611
0.000219183
0.0218954
0.000251181
0.0219032
0.000278153
0.0219249
0.000301373
0.0219414
0.000322313
0.021952
0.000337658
0.0219759
0.00035168
0.0219825
0.000361332
0.0220013
0.000368528
0.0220123
0.000373766
0.0220213
0.000375099
0.022038
0.000375318
0.0220434
0.000372743
0.0220555
0.000368274
0.0220639
0.000362832
0.0220685
0.000354753
0.0220798
0.00034589
0.0220835
0.000336031
0.0220879
0.000324819
0.0220938
0.000313147
0.0220959
0.000300924
0.0220984
0.000288277
0.0221002
0.000275551
0.0221006
0.000262875
0.0221004
0.000250609
0.0220987
0.000238688
0.0220971
0.000227401
0.0220943
0.00021736
0.022089
0.000208001
0.0220858
0.000200132
0.0220793
0.000194014
0.0220717
0.000188819
0.0220673
0.000186583
0.0220548
0.000185911
0.0220477
0.000187073
0.0220394
0.000191954
0.0220236
0.000198079
0.0220174
0.000208343
0.0219998
0.000221166
0.0219883
0.000236474
0.021977
0.000256938
0.0219551
0.000278829
0.0219478
0.000306719
0.0219223
0.000337245
0.0219101
0.000371736
0.0218925
0.000411692
0.0218689
0.0218608
0.000453156
0.00014593
0.0218077
0.00018899
0.0218181
0.00022409
0.0218603
0.000257892
0.0218694
0.000286937
0.0218958
0.000312499
0.0219159
0.000336043
0.0219285
0.000354249
0.0219577
0.000371374
0.0219654
0.000384363
0.0219883
0.000395113
0.0220016
0.000404112
0.0220123
0.000409399
0.0220327
0.000413746
0.0220391
0.000415464
0.0220538
0.000415436
0.022064
0.000414565
0.0220694
0.000411178
0.0220832
0.000407106
0.0220875
0.000402121
0.0220929
0.000395859
0.0221
0.000389185
0.0221026
0.000381998
0.0221056
0.000374412
0.0221078
0.000366748
0.0221083
0.000359124
0.022108
0.000351887
0.0221059
0.000344949
0.022104
0.000338585
0.0221007
0.0003334
0.0220942
0.000328801
0.0220904
0.00032559
0.0220826
0.000324013
0.0220733
0.000323217
0.0220681
0.000325243
0.0220528
0.000328666
0.0220442
0.000333743
0.0220343
0.000342361
0.0220149
0.00035201
0.0220078
0.000365595
0.0219862
0.000381511
0.0219724
0.00039967
0.0219589
0.00042275
0.021932
0.000446985
0.0219236
0.000476965
0.0218924
0.000509295
0.0218778
0.000545296
0.0218565
0.000586465
0.0218277
0.0218185
0.000628797
0.000136773
0.0217609
0.000182152
0.0217727
0.000219806
0.0218226
0.000256437
0.0218328
0.00028859
0.0218637
0.000317546
0.0218869
0.000344766
0.0219013
0.000366923
0.0219355
0.000388262
0.0219441
0.000405717
0.0219709
0.000421173
0.0219861
0.000435099
0.0219984
0.000445526
0.0220223
0.000455204
0.0220294
0.000462431
0.0220466
0.000468074
0.0220583
0.000473014
0.0220645
0.000475572
0.0220806
0.00047755
0.0220856
0.000478705
0.0220918
0.000478661
0.0221001
0.000478258
0.022103
0.000477378
0.0221064
0.000476124
0.0221091
0.000474789
0.0221096
0.000473474
0.0221093
0.000472519
0.0221069
0.000471803
0.0221048
0.000471589
0.0221009
0.000472473
0.0220933
0.00047383
0.022089
0.000476455
0.0220799
0.00048058
0.0220692
0.000485319
0.0220634
0.000492724
0.0220454
0.000501335
0.0220356
0.000511397
0.0220242
0.000524799
0.0220015
0.000538993
0.0219936
0.000556898
0.0219683
0.000576881
0.0219524
0.000598841
0.0219369
0.000625469
0.0219053
0.000652952
0.0218961
0.000685915
0.0218594
0.000720916
0.0218428
0.000759279
0.0218182
0.000802498
0.0217845
0.0217745
0.000846511
0.000110222
0.0217108
0.000159091
0.0217238
0.000200496
0.0217812
0.000241188
0.0217921
0.000277717
0.0218271
0.000311367
0.0218533
0.000343597
0.0218691
0.000371068
0.021908
0.00039802
0.0219171
0.000421371
0.0219475
0.000442991
0.0219645
0.000463333
0.021978
0.000480414
0.0220052
0.000496963
0.0220129
0.000511263
0.0220323
0.000524162
0.0220454
0.000536516
0.0220521
0.000546638
0.0220705
0.000556299
0.0220759
0.000565239
0.0220828
0.000573067
0.0220923
0.000580592
0.0220955
0.00058768
0.0220993
0.000594417
0.0221023
0.000601065
0.022103
0.000607707
0.0221027
0.000614669
0.0220999
0.000621798
0.0220976
0.000629338
0.0220933
0.000637875
0.0220848
0.000646746
0.0220802
0.00065674
0.0220699
0.00066807
0.0220579
0.000679814
0.0220516
0.000694036
0.0220311
0.000709235
0.0220204
0.00072564
0.0220078
0.000745151
0.021982
0.000765169
0.0219736
0.000788636
0.0219448
0.000813885
0.0219271
0.000840801
0.02191
0.000872096
0.021874
0.000903903
0.0218643
0.000940886
0.0218224
0.00097956
0.0218041
0.00102125
0.0217765
0.00106745
0.0217383
0.0217279
0.00111403
5.74616e-05
0.0216559
0.000111258
0.02167
0.00015793
0.0217346
0.000204208
0.0217458
0.000246644
0.0217847
0.000286558
0.0218134
0.000325416
0.0218302
0.000359864
0.0218736
0.00039414
0.0218828
0.000425143
0.0219165
0.000454731
0.0219349
0.000483339
0.0219494
0.000508963
0.0219796
0.000534313
0.0219875
0.000557654
0.0220089
0.000579809
0.0220233
0.00060161
0.0220303
0.000621354
0.0220507
0.000640783
0.0220565
0.00065961
0.022064
0.000677428
0.0220744
0.00069501
0.0220779
0.0007122
0.0220822
0.000729064
0.0220855
0.000745827
0.0220862
0.000762547
0.022086
0.000779537
0.0220829
0.000796599
0.0220806
0.000813955
0.022076
0.000832181
0.0220665
0.000850566
0.0220618
0.000869888
0.0220506
0.000890339
0.0220374
0.000910953
0.022031
0.000933809
0.0220083
0.000957355
0.0219969
0.000981803
0.0219834
0.00100907
0.0219548
0.00103648
0.0219462
0.00106703
0.0219143
0.00109899
0.0218952
0.00113224
0.0218767
0.00116952
0.0218368
0.0012069
0.0218269
0.0012491
0.0217802
0.00129257
0.0217607
0.00133864
0.0217304
0.00138882
0.0216881
0.0216778
0.0014389
-3.35733e-05
0.0215957
2.7073e-05
0.0216094
8.10645e-05
0.0216806
0.000134789
0.0216921
0.00018506
0.0217344
0.000233189
0.0217652
0.00028064
0.0217827
0.000324069
0.0218302
0.000367744
0.0218392
0.000408535
0.0218757
0.000448293
0.0218952
0.000487434
0.0219103
0.000523928
0.0219431
0.000560471
0.021951
0.000595297
0.0219741
0.000629208
0.0219894
0.000663007
0.0219965
0.000694967
0.0220188
0.000726797
0.0220246
0.000758178
0.0220326
0.000788682
0.0220439
0.000819037
0.0220475
0.000849059
0.0220521
0.000878787
0.0220557
0.000908399
0.0220566
0.000937923
0.0220564
0.000967649
0.0220532
0.000997325
0.0220509
0.00102715
0.0220462
0.00105767
0.022036
0.00108812
0.0220313
0.00111926
0.0220195
0.00115127
0.0220054
0.00118311
0.0219992
0.00121688
0.0219745
0.00125096
0.0219628
0.00128556
0.0219488
0.00132259
0.0219177
0.00135931
0.0219094
0.00139875
0.0218748
0.00143914
0.0218548
0.00148034
0.0218355
0.00152511
0.021792
0.00156947
0.0217826
0.00161818
0.0217315
0.00166766
0.0217112
0.00171923
0.0216788
0.00177441
0.0216329
0.0216233
0.00182891
-0.000171888
0.0215277
-0.00010435
0.0215418
-4.29726e-05
0.0216192
1.98741e-05
0.0216292
8.01219e-05
0.0216742
0.000138726
0.0217066
0.000196886
0.0217246
0.000251603
0.0217754
0.000307101
0.0217837
0.000360201
0.0218226
0.000412759
0.0218426
0.000465174
0.0218579
0.000515376
0.0218929
0.000566052
0.0219003
0.000615394
0.0219248
0.00066418
0.0219406
0.00071318
0.0219475
0.000760629
0.0219713
0.000808201
0.0219771
0.000855537
0.0219853
0.000902172
0.0219973
0.000948786
0.0220009
0.000995151
0.0220058
0.00104127
0.0220096
0.00108726
0.0220106
0.00113311
0.0220106
0.00117907
0.0220072
0.00122482
0.0220051
0.00127052
0.0220005
0.00131669
0.0219898
0.00136248
0.0219855
0.00140864
0.0219733
0.0014553
0.0219588
0.00150135
0.0219531
0.0015489
0.0219269
0.00159627
0.0219154
0.00164362
0.0219014
0.00169288
0.0218685
0.00174124
0.0218611
0.00179174
0.0218243
0.00184257
0.0218039
0.00189357
0.0217845
0.00194756
0.021738
0.00200043
0.0217297
0.00205707
0.0216749
0.00211379
0.0216545
0.00217196
0.0216207
0.00223311
0.0215718
0.0215635
0.00229285
-0.000377549
0.0214508
-0.000299757
0.021464
-0.000227688
0.0215471
-0.000154725
0.0215563
-8.40531e-05
0.0216035
-1.38827e-05
0.0216365
5.78337e-05
0.0216529
0.000126712
0.0217066
0.000196911
0.0217135
0.000265358
0.0217542
0.000333912
0.0217741
0.000402937
0.0217889
0.00047032
0.0218255
0.00053875
0.0218319
0.000606372
0.0218572
0.000673935
0.021873
0.000742173
0.0218793
0.000809263
0.0219042
0.000876842
0.0219095
0.000944493
0.0219176
0.0010117
0.0219301
0.00107907
0.0219336
0.00114633
0.0219385
0.00121343
0.0219425
0.00128039
0.0219436
0.00134714
0.0219438
0.0014139
0.0219405
0.00148024
0.0219388
0.00154626
0.0219344
0.00161244
0.0219237
0.00167783
0.0219202
0.00174313
0.021908
0.00180842
0.0218935
0.00187249
0.0218891
0.00193749
0.021862
0.00200159
0.0218513
0.00206493
0.0218381
0.00212947
0.0218039
0.00219225
0.0217983
0.0022564
0.0217602
0.00232002
0.0217403
0.00238293
0.0217216
0.00244802
0.0216729
0.00251105
0.0216667
0.00257705
0.0216089
0.00264223
0.0215893
0.00270799
0.0215549
0.00277589
0.0215039
0.021498
0.00284145
-0.000671319
0.0213639
-0.000582477
0.0213752
-0.000498245
0.0214629
-0.000411532
0.0214695
-0.00032605
0.021518
-0.0002406
0.021551
-0.000153935
0.0215662
-6.90857e-05
0.0216217
1.86156e-05
0.0216258
0.00010556
0.0216672
0.000193542
0.0216861
0.000282981
0.0216994
0.000371663
0.0217368
0.000462288
0.0217412
0.000552905
0.0217665
0.000644186
0.0217817
0.000736817
0.0217867
0.000828887
0.0218122
0.000921986
0.0218164
0.00101561
0.021824
0.00110918
0.0218365
0.00120321
0.0218395
0.00129735
0.0218444
0.00139144
0.0218484
0.00148544
0.0218496
0.00157917
0.0218501
0.00167276
0.0218469
0.00176566
0.0218459
0.00185788
0.0218422
0.00194984
0.0218317
0.00204042
0.0218296
0.0021303
0.0218181
0.00221943
0.0218043
0.00230648
0.021802
0.0023936
0.0217748
0.00247885
0.0217661
0.00256227
0.0217547
0.00264584
0.0217204
0.00272648
0.0217177
0.00280736
0.0216793
0.0028865
0.0216612
0.00296368
0.0216444
0.00304188
0.0215947
0.00311674
0.0215918
0.00319343
0.0215322
0.00326808
0.0215146
0.00334212
0.0214809
0.00341721
0.0214288
0.0214265
0.0034887
-0.00108083
0.0212664
-0.00097984
0.0212742
-0.000882275
0.0213653
-0.000780863
0.0213681
-0.00067929
0.0214165
-0.000576135
0.0214478
-0.000469894
0.02146
-0.000364312
0.0215161
-0.000254975
0.0215164
-0.000145182
0.0215574
-3.30001e-05
0.0215739
8.17471e-05
0.0215847
0.000196847
0.0216217
0.000315352
0.0216227
0.000434951
0.0216469
0.000556306
0.0216604
0.000680041
0.0216629
0.000804055
0.0216882
0.000929889
0.0216906
0.00105693
0.021697
0.00118449
0.021709
0.00131299
0.021711
0.00144193
0.0217154
0.00157108
0.0217193
0.00170022
0.0217205
0.00182905
0.0217213
0.00195757
0.0217184
0.00208507
0.0217184
0.00221141
0.0217159
0.00233688
0.0217062
0.00246017
0.0217063
0.00258185
0.0216964
0.00270175
0.0216844
0.00281833
0.0216854
0.00293374
0.0216594
0.00304582
0.021654
0.00315454
0.021646
0.00326189
0.021613
0.00336457
0.021615
0.00346584
0.021578
0.00356361
0.0215634
0.00365764
0.0215504
0.00375101
0.0215013
0.00383922
0.0215036
0.00392765
0.0214437
0.00401233
0.02143
0.00409479
0.0213984
0.00417678
0.0213468
0.0213497
0.00425355
-0.00164169
0.0211593
-0.00152892
0.0211614
-0.00141769
0.0212541
-0.00130036
0.0212508
-0.00118082
0.0212969
-0.00105757
0.0213246
-0.000928959
0.0213314
-0.000798812
0.021386
-0.000662479
0.0213801
-0.000523688
0.0214186
-0.00038058
0.0214308
-0.000232876
0.021437
-8.32255e-05
0.0214721
7.04384e-05
0.0214691
0.000226417
0.021491
0.000386034
0.0215007
0.000549398
0.0214996
0.000714323
0.0215232
0.0008823
0.0215226
0.00105252
0.0215267
0.00122414
0.0215374
0.00139747
0.0215377
0.00157186
0.021541
0.00174689
0.0215443
0.00192217
0.0215452
0.00209717
0.0215463
0.00227174
0.0215438
0.00244487
0.0215453
0.00261621
0.0215445
0.00278586
0.0215366
0.00295221
0.0215399
0.00311564
0.021533
0.00327577
0.0215243
0.00343078
0.0215304
0.00358276
0.0215074
0.00372926
0.0215075
0.00387012
0.0215051
0.00400731
0.0214758
0.00413723
0.0214851
0.00426329
0.021452
0.0043832
0.0214435
0.0044967
0.0214369
0.00460705
0.021391
0.00470955
0.0214011
0.00480993
0.0213434
0.0049041
0.0213358
0.0049938
0.0213087
0.00508095
0.0212596
0.02127
0.00516071
-0.00240033
0.0210463
-0.00227804
0.0210391
-0.0021546
0.0211307
-0.00202175
0.0211179
-0.00188323
0.0211584
-0.00173719
0.0211786
-0.00158188
0.021176
-0.00142147
0.0212256
-0.0012514
0.02121
-0.00107586
0.0212431
-0.000893241
0.0212482
-0.000703685
0.0212474
-0.000509979
0.0212784
-0.00030918
0.0212683
-0.000104173
0.021286
0.000104256
0.0212923
0.000317718
0.0212861
0.000535741
0.0213052
0.000758212
0.0213001
0.000984437
0.0213005
0.00121351
0.0213083
0.00144557
0.0213056
0.00167979
0.0213068
0.00191556
0.0213085
0.00215218
0.0213086
0.00238883
0.0213096
0.00262506
0.0213076
0.00285943
0.0213109
0.00309123
0.0213128
0.00332022
0.0213076
0.00354429
0.0213158
0.00376351
0.0213138
0.00397716
0.0213107
0.00418296
0.0213246
0.0043829
0.0213075
0.0045741
0.0213163
0.00475616
0.0213231
0.00493105
0.0213009
0.00509477
0.0213213
0.00525083
0.0212959
0.00539676
0.0212976
0.00553222
0.0213015
0.00566072
0.0212625
0.00577733
0.0212845
0.0058883
0.0212324
0.00598949
0.0212346
0.006083
0.0212152
0.00617113
0.0211715
0.0211922
0.00624892
-0.00282812
0.0209583
-0.00272946
0.0209405
-0.00262513
0.0210263
-0.00250549
0.0209983
-0.00237336
0.0210263
-0.00222763
0.0210328
-0.00206788
0.0210163
-0.00189904
0.0210567
-0.0017182
0.0210292
-0.00153
0.0210549
-0.0013337
0.0210519
-0.00112987
0.0210436
-0.000921289
0.0210698
-0.000705786
0.0210528
-0.000485273
0.0210654
-0.000258506
0.0210656
-2.57704e-05
0.0210534
0.000207782
0.0210717
0.000448128
0.0210598
0.0006938
0.0210549
0.000943932
0.0210582
0.00119855
0.021051
0.00145678
0.0210486
0.00171788
0.0210474
0.0019809
0.0210456
0.00224477
0.0210458
0.00250869
0.0210436
0.00277088
0.0210487
0.00303021
0.0210534
0.00328601
0.0210518
0.00353583
0.021066
0.0037793
0.0210703
0.00401535
0.0210746
0.00424147
0.0210985
0.00445924
0.0210897
0.00466575
0.0211098
0.0048604
0.0211284
0.0050449
0.0211164
0.00521544
0.0211508
0.00537519
0.0211362
0.00552179
0.021151
0.0056549
0.0211684
0.00577761
0.0211398
0.00588542
0.0211767
0.00598397
0.0211338
0.00606963
0.0211489
0.00614467
0.0211402
0.0062118
0.0211044
0.0211367
0.00626731
-0.00311414
0.0208931
-0.00304856
0.0208749
-0.00297376
0.0209515
-0.0028728
0.0208973
-0.00274762
0.0209011
-0.00260004
0.0208853
-0.00243331
0.0208496
-0.00225478
0.0208782
-0.00206409
0.0208385
-0.00186661
0.0208574
-0.00166235
0.0208476
-0.00145206
0.0208333
-0.00123811
0.0208558
-0.00101838