/*--------------------------------*- C++ -*----------------------------------*\
| =========                 |                                                 |
| \\      /  F ield         | OpenFOAM: The Open Source CFD Toolbox           |
|  \\    /   O peration     | Version:  2312                                  |
|   \\  /    A nd           | Website:  www.openfoam.com                      |
|    \\/     M anipulation  |                                                 |
\*---------------------------------------------------------------------------*/
FoamFile
{
    version     2.0;
    format      ascii;
    arch        "LSB;label=32;scalar=64";
    class       volScalarField;
    location    "300";
    object      div(phi);
}
// * * * * * * * * * * * * * * * * * * * * * * * * * * * * * * * * * * * * * //

dimensions      [0 0 -1 0 0 0 0];

internalField   nonuniform List<scalar> 
10720
(
7.87522e-05
0.00498321
-0.000238006
-0.00011613
2.29465e-05
-0.000200898
-0.00059579
-0.000947114
-0.00108962
-0.00103425
-0.000898066
-0.000616618
-0.000180818
0.000297919
0.000815105
0.00116866
0.00122119
0.00101417
0.000753234
0.000769121
0.000971799
0.000392514
-0.000577484
0.000229769
0.0004566
-0.00112275
-0.0011579
-0.000235838
0.000865025
0.00144676
-0.00581024
-0.0250663
0.0127599
0.056478
-0.0177351
-0.127741
-0.000650805
0.119682
-0.0119029
0.0046546
-0.000279706
0.000986137
0.0020835
0.00284312
0.00415368
0.00645009
0.00937173
0.0108962
0.00657594
0.00417342
0.00331076
0.00254596
0.00198923
0.00167281
0.00139609
0.00106133
0.000683208
0.000335265
0.000105812
-4.87738e-05
-0.000231079
-0.00018601
-0.000101839
4.97822e-06
8.03307e-05
0.000200909
0.000343234
0.000631443
0.0011798
0.00207058
0.00298684
0.00271759
0.000358321
-0.00231762
0.000288532
0.004638
-0.00144213
0.00152739
0.00338139
0.00277313
0.00229778
0.000950436
0.000485177
0.000140698
-0.000209997
-0.00037038
-0.00037155
-0.000358178
-0.000150808
0.000295728
0.000763699
0.00124874
0.00154338
0.00164884
0.0017007
0.00157588
0.000865973
-0.000779941
-0.00292215
-0.00428673
-0.00434006
-0.00458568
-0.00441609
-0.00155327
0.000750051
0.00127809
-0.00495299
-0.0166286
0.00662376
0.0319756
-0.0053489
-0.0458347
-0.00924683
0.0949798
-0.0157576
0.00974025
-0.0073955
0.00369964
0.00447979
0.00407493
0.00485078
0.00616042
0.00677466
0.0112873
0.0145412
0.00902544
0.0067361
0.0058336
0.00478053
0.00393444
0.00342268
0.00295446
0.00235358
0.00159808
0.000813473
0.000252699
-0.000211287
-0.000427697
-0.000105416
-0.000244826
-0.000230442
-9.62953e-07
0.000400926
0.000837947
0.00163062
0.00287791
0.00436388
0.00481343
0.00295595
-0.000229827
0.000557948
0.00292176
-0.00132752
0.00445098
0.00271438
0.00269469
-0.000390788
0.00445314
0.000737933
0.000265482
-0.000273859
-0.000785862
-0.00119328
-0.00135251
-0.00130344
-0.00104324
-0.000603406
-9.06846e-05
0.000502842
0.00107171
0.00146148
0.00159249
0.00148701
0.00133353
0.00126837
0.000916951
0.000453986
0.000437346
-0.000207779
-0.00156233
-0.00171385
-0.00109417
-0.000520159
0.000257734
-0.00312389
-0.00990108
0.00146587
0.0163057
-0.00122633
-0.00706178
-0.00688333
0.0266958
-0.00508024
0.00715728
-0.0107504
0.00423363
0.00264007
0.00305817
0.0034709
0.00413473
0.00510009
0.00673455
0.00726586
0.00593277
0.00461408
0.00371315
0.00298528
0.00253275
0.00220988
0.00182471
0.00129426
0.000680064
0.000133891
-0.000304077
-0.000598615
-0.000672973
-0.000571172
-0.0003394
-0.000229731
2.94427e-05
0.00033958
0.000765045
0.00149581
0.0026386
0.00398482
0.00440714
0.00291262
0.000300888
0.000479067
0.00144172
-0.000874942
0.00379879
0.000816716
0.00216305
0.0023613
0.00302441
0.000926333
0.00060568
0.000343344
8.02219e-05
-0.000152329
-0.000215208
-0.000151426
-8.34271e-06
0.000203573
0.000513076
0.000956811
0.00139243
0.00166556
0.00170176
0.00152328
0.0012445
0.000904222
0.000219282
-0.000575527
-0.00111563
-0.00154465
-0.00172191
-0.00168571
-0.00183001
-0.00103733
0.000184681
-0.00492187
-0.01327
-0.00203368
0.00747335
0.000117249
0.000871574
-0.00543649
0.006518
-0.00618701
-0.00151308
-0.0109447
0.00384466
0.00283886
0.0030437
0.00355394
0.00398531
0.00458515
0.00528319
0.00494962
0.00403436
0.00324386
0.00267431
0.00228443
0.00204302
0.00179515
0.00140636
0.000907828
0.000320008
-8.93482e-05
-0.000426399
-0.000703965
-0.000560923
-0.000690248
-0.000433842
-0.000165316
6.52642e-05
0.000377159
0.000795996
0.00150033
0.0026285
0.00396855
0.00439728
0.00287633
0.000202256
0.000471939
0.00155103
-0.000907903
0.00373297
0.00022401
0.00154205
0.00156366
0.00268677
0.000637211
9.93414e-05
-0.000303113
-0.000671503
-0.000976181
-0.00110398
-0.00107778
-0.000933363
-0.000656211
-0.000234823
0.000291625
0.000831877
0.0012233
0.00132889
0.00124008
0.00110639
0.000887934
0.00026386
-0.00054115
-0.00106711
-0.0017259
-0.0023127
-0.00280358
-0.00252302
-0.000896436
0.000943676
-0.00920846
-0.0260529
-9.65031e-05
0.0102108
-0.000306755
0.00216226
-0.0043608
0.00370818
-0.00714188
-0.0103632
-0.00982437
0.00290409
0.00227823
0.00221313
0.00261268
0.00296742
0.00352312
0.00393902
0.00368211
0.00321987
0.00284491
0.0026129
0.00245957
0.00231479
0.00207693
0.00167841
0.00117924
0.000636012
0.000225199
-0.000100267
-0.000353511
-0.000321875
-0.000360667
-0.000222284
-2.64494e-05
0.000167906
0.000438739
0.000816182
0.00148089
0.00255469
0.00386173
0.00430292
0.00282856
0.000194122
0.000459169
0.00158909
-0.000904034
0.00364353
-6.25487e-05
0.00137574
0.00129109
0.00223481
0.000347506
-1.52001e-05
-0.000264395
-0.000499711
-0.000699947
-0.000774467
-0.000715843
-0.000564081
-0.000314833
4.70491e-05
0.000492853
0.000947795
0.00125212
0.00131991
0.00118051
0.000964774
0.000675697
2.91383e-05
-0.000759436
-0.00125899
-0.00162174
-0.00215455
-0.00283295
-0.00273547
-0.000628552
0.00174183
-0.0105123
-0.0303192
0.0013239
0.0130559
-0.000869609
0.00248941
-0.00356097
0.00378041
-0.00693674
-0.0110343
-0.00854489
0.00270773
0.00202032
0.00192247
0.00225573
0.00253641
0.0029488
0.00321494
0.0030426
0.00275018
0.00255012
0.00243372
0.00233613
0.0021953
0.00195669
0.00159445
0.0011562
0.000709904
0.000337641
4.08267e-05
-0.00017859
-0.000231242
-0.000249777
-0.000167229
-2.53633e-05
0.000151663
0.000400297
0.000764588
0.00140514
0.00245042
0.00374325
0.0041974
0.00276063
0.000167341
0.000427999
0.00157974
-0.000885449
0.00350264
-0.000184522
0.0018066
0.00133594
0.0018472
0.000334426
0.000125944
-3.60126e-05
-0.000225351
-0.000407151
-0.000499629
-0.00048536
-0.00039138
-0.000212088
7.08498e-05
0.00044216
0.000837165
0.00112611
0.00123068
0.0011138
0.000892181
0.000599683
-8.57075e-07
-0.000732953
-0.00116628
-0.00147004
-0.00182162
-0.00236677
-0.00237112
-0.000537838
0.00186794
-0.00965677
-0.0285805
0.000870341
0.0115023
-0.000927855
0.00354014
-0.00286849
0.00378546
-0.00853787
-0.0146085
0.00494195
0.00230337
0.00177516
0.00178938
0.00211538
0.00236159
0.00263881
0.00272227
0.00253502
0.00230351
0.00214209
0.0020483
0.00195153
0.00180693
0.00159267
0.00129983
0.000956053
0.000615602
0.000316123
5.84405e-05
-0.000122622
-0.00021268
-0.000230253
-0.000177978
-6.06899e-05
0.000107869
0.000349496
0.000703283
0.00132743
0.00235014
0.00362014
0.00408506
0.00269137
0.000146815
0.000394891
0.00156605
-0.000828512
0.00334551
-0.000248292
0.00263314
0.00118403
0.00128466
0.000291396
0.000194873
0.000105945
-3.20568e-05
-0.000174185
-0.000237905
-0.000212479
-0.000117551
5.43678e-05
0.000313691
0.000648908
0.00100176
0.00127541
0.00135309
0.00121238
0.000947083
0.00060561
1.0644e-05
-0.000707689
-0.0011224
-0.00135929
-0.00169583
-0.00211492
-0.00214101
-0.000492918
0.00193038
-0.00889757
-0.0271137
0.000623173
0.0106663
-0.00100306
0.00450856
-0.00229137
0.0029404
-0.0100226
-0.0124449
0.00574888
0.00166153
0.00148847
0.00159734
0.00191437
0.00215952
0.00232978
0.0022794
0.00210356
0.00190762
0.00174786
0.00164069
0.0015163
0.00134593
0.00113462
0.000887155
0.000620779
0.000368525
0.000144938
-5.7445e-05
-0.000190041
-0.000272646
-0.000276448
-0.000223174
-0.000109771
5.84897e-05
0.000299776
0.000648032
0.00125978
0.00226293
0.00351002
0.00398213
0.00262879
0.000127434
0.000366711
0.00157434
-0.00075382
0.00318101
-0.000492288
0.0032003
0.000817992
0.000760654
0.000186411
0.000127775
6.34711e-05
-5.02898e-05
-0.000169684
-0.000206442
-0.000163011
-5.58591e-05
0.000123656
0.000373732
0.000680366
0.000994241
0.00124222
0.00131775
0.00118639
0.000913992
0.00056111
7.3255e-06
-0.00066344
-0.00106514
-0.00124599
-0.0015673
-0.00192944
-0.00194791
-0.00043928
0.00193727
-0.00821866
-0.025633
0.000370265
0.00995938
-0.00111965
0.00499597
-0.00178253
0.00200791
-0.0104942
-0.00648358
-0.0028928
0.00102964
0.00116107
0.00132629
0.00165628
0.0018988
0.00200039
0.00191292
0.00176639
0.00160508
0.00145587
0.00133823
0.00118729
0.000989064
0.000769636
0.000545256
0.000332271
0.000146598
-1.2468e-05
-0.000157172
-0.00024261
-0.000298445
-0.000286257
-0.000225571
-0.000113965
4.94069e-05
0.000285047
0.000622735
0.00121694
0.00219566
0.00341389
0.00388765
0.00257305
0.000117561
0.000335939
0.00157486
-0.000658086
0.00302095
-0.000851323
0.00291338
0.000447169
0.000381331
5.93595e-05
-5.90341e-06
-7.87472e-05
-0.000188251
-0.00029863
-0.000316522
-0.000253295
-0.000124456
7.72411e-05
0.00033751
0.00063697
0.000935682
0.00117677
0.00127024
0.00114878
0.000859542
0.000482621
-4.87561e-05
-0.000684562
-0.00108737
-0.00122702
-0.00150648
-0.00183252
-0.00181696
-0.000404797
0.00188179
-0.00765683
-0.0242154
0.000101078
0.00918544
-0.00120858
0.00521669
-0.00127707
0.00153579
-0.00997644
-0.000808658
-0.00548061
0.000611279
0.000869745
0.00105895
0.00138917
0.00162113
0.00168478
0.00160276
0.00150167
0.00139109
0.0012736
0.00116771
0.00100955
0.000795435
0.000566711
0.000348124
0.000159344
8.11379e-06
-0.000112494
-0.00021592
-0.000268665
-0.000298959
-0.000275197
-0.000208445
-9.89081e-05
5.668e-05
0.000283522
0.000608763
0.00118361
0.00213661
0.00332415
0.00379792
0.0025216
0.000111704
0.000302164
0.00156887
-0.000544803
0.00288751
-0.00120336
0.00212317
0.000205986
0.000213609
-1.9307e-05
-0.000114476
-0.000214681
-0.000336902
-0.000453417
-0.000467808
-0.00039646
-0.000254663
-3.6715e-05
0.000232942
0.000529331
0.000817559
0.00105513
0.00116586
0.001068
0.000781993
0.000397776
-0.000110372
-0.000714853
-0.00112728
-0.00125295
-0.00149652
-0.00181005
-0.00176336
-0.00042469
0.00174605
-0.00720465
-0.0228759
-0.000166424
0.00839774
-0.00126451
0.00533835
-0.000769536
0.0014715
-0.00883044
0.00378067
-0.0066307
0.00042271
0.000674292
0.000852405
0.00114036
0.00133851
0.0013791
0.00132585
0.00128081
0.00122536
0.00115387
0.00107961
0.000938077
0.000727422
0.000497655
0.000278484
9.43804e-05
-4.69956e-05
-0.000153841
-0.000236487
-0.000272438
-0.000284761
-0.000253754
-0.000182868
-7.47805e-05
7.31489e-05
0.000290508
0.000603388
0.00115879
0.00208555
0.00324147
0.00371276
0.00247062
0.000104684
0.000263729
0.00155693
-0.000415233
0.00279696
-0.0014642
0.00139558
0.000128767
0.000202799
-3.41126e-05
-0.000162817
-0.000292912
-0.000433706
-0.000563859
-0.000585272
-0.000517093
-0.000374064
-0.000150706
0.000120253
0.000410144
0.000688342
0.000923366
0.00104993
0.000977939
0.000700029
0.000311522
-0.000174749
-0.000749047
-0.00117169
-0.00130177
-0.00151627
-0.00182613
-0.00175922
-0.000483868
0.00155128
-0.00683066
-0.0215855
-0.000427654
0.00762964
-0.00130624
0.0053979
-0.000281211
0.00156353
-0.0074323
0.00687321
-0.00685133
0.000383944
0.000577545
0.000708362
0.000934482
0.00108614
0.00111122
0.00109394
0.00110027
0.001093
0.00106892
0.00103486
0.00092526
0.000735792
0.000517836
0.000301709
0.000115585
-2.94781e-05
-0.000139256
-0.000218144
-0.000251108
-0.000255423
-0.000222166
-0.000150239
-4.39185e-05
9.69312e-05
0.000304687
0.000605926
0.00114206
0.00204255
0.00316597
0.00363032
0.00242238
9.88898e-05
0.000223683
0.00154502
-0.000272247
0.00274233
-0.00161597
0.000855616
0.000149508
0.000256491
-1.66751e-05
-0.000169357
-0.000320785
-0.000476131
-0.000619049
-0.000650732
-0.000592224
-0.000456785
-0.000238429
2.44362e-05
0.000300695
0.000563784
0.000792689
0.000930649
0.000882395
0.000614765
0.000223637
-0.000239632
-0.00078169
-0.00120942
-0.00135319
-0.00154694
-0.00185438
-0.00177833
-0.000566285
0.00131766
-0.00650807
-0.0203223
-0.000683325
0.00688302
-0.00134509
0.0053906
0.00017658
0.00161999
-0.00602616
0.00863456
-0.0064035
0.000409673
0.00054728
0.000614042
0.000784756
0.000896511
0.000916892
0.000925554
0.00096366
0.000992448
0.00100737
0.00101205
0.000940383
0.000783597
0.000589515
0.000384724
0.000198085
4.4697e-05
-7.6792e-05
-0.000163737
-0.000204055
-0.000209793
-0.000179739
-0.000110701
-7.57629e-06
0.000126487
0.000324836
0.000615261
0.00113258
0.00200578
0.00309514
0.00354939
0.00237743
9.72787e-05
0.000181129
0.00152831
-0.000121415
0.00271723
-0.00165602
0.000500071
0.000194184
0.00030313
2.0871e-06
-0.000158276
-0.000319833
-0.000481553
-0.000630022
-0.000670136
-0.000621614
-0.000496874
-0.000289864
-4.13595e-05
0.000217222
0.000462447
0.000681476
0.000826742
0.000799774
0.000545085
0.000155967
-0.000286201
-0.000798698
-0.00122788
-0.0013883
-0.00156922
-0.00187358
-0.00179813
-0.000657166
0.00106029
-0.00622082
-0.0190734
-0.000936027
0.00615838
-0.00138631
0.00531314
0.000595062
0.00156622
-0.00475363
0.00936819
-0.0056376
0.000456629
0.000539633
0.000553233
0.000684445
0.000765626
0.000779161
0.000799601
0.000853519
0.000904163
0.000946843
0.000982661
0.000947281
0.000827561
0.00066603
0.000481697
0.000301339
0.000142659
8.64706e-06
-9.10773e-05
-0.000143807
-0.000156981
-0.000134024
-7.06886e-05
2.81079e-05
0.000156186
0.000346171
0.000627439
0.00112696
0.00197264
0.00302651
0.0034701
0.00233668
0.000101669
0.000136787
0.00150321
3.04957e-05
0.00271785
-0.0016013
0.000301771
0.000233285
0.000329539
2.04713e-05
-0.000134498
-0.000296341
-0.000456744
-0.000603782
-0.00064864
-0.000608676
-0.000495591
-0.000304422
-7.51722e-05
0.000161424
0.000385223
0.00058972
0.000736237
0.000725543
0.000487337
0.000108642
-0.000311177
-0.000793389
-0.00121845
-0.00139447
-0.00156891
-0.00187046
-0.00180432
-0.000746121
0.000791119
-0.00595869
-0.0178377
-0.0011853
0.00545436
-0.00143126
0.00516888
0.000956804
0.0014065
-0.00367892
0.00932079
-0.00481708
0.000498796
0.000524496
0.000505309
0.000607739
0.000665312
0.000670464
0.000692527
0.000750451
0.000809918
0.00086757
0.000923339
0.000916818
0.000832939
0.000706618
0.0005495
0.000383705
0.000227027
8.6019e-05
-2.43326e-05
-8.89797e-05
-0.000111296
-9.65018e-05
-3.96896e-05
5.48985e-05
0.000178623
0.000362265
0.000636799
0.00112081
0.00193969
0.0029581
0.0033914
0.00229949
0.00011228
9.05449e-05
0.00146626
0.000175569
0.00273892
-0.0014763
0.000235364
0.000267035
0.000342243
4.40172e-05
-9.91401e-05
-0.000254302
-0.000407366
-0.000547084
-0.000592422
-0.000558562
-0.000456574
-0.000282799
-7.56857e-05
0.000135612
0.000334424
0.00052022
0.000661492
0.000661089
0.000440001
7.54064e-05
-0.000319971
-0.00076845
-0.00118123
-0.00136757
-0.00153908
-0.00183837
-0.00178969
-0.00082657
0.000518746
-0.00571239
-0.0166141
-0.00142822
0.00477608
-0.00147926
0.00496496
0.00123685
0.00116452
-0.00281377
0.00867759
-0.0040904
0.000512508
0.000495816
0.000460433
0.000542029
0.000581056
0.000578007
0.000596695
0.00065037
0.000708977
0.000770107
0.000834047
0.000846036
0.000790807
0.000696838
0.00056913
0.000423528
0.000276557
0.000135974
2.05993e-05
-5.21858e-05
-8.22081e-05
-7.47013e-05
-2.38212e-05
6.73351e-05
0.000188536
0.000368222
0.000638772
0.00111003
0.00190371
0.00288748
0.00331193
0.00226543
0.000128677
4.30669e-05
0.00141645
0.000306998
0.00277201
-0.0013029
0.000276899
0.000286078
0.000338609
6.29201e-05
-6.66315e-05
-0.000210748
-0.000352001
-0.000480209
-0.000521659
-0.000490419
-0.0003975
-0.00024043
-5.57003e-05
0.000129819
0.00030275
0.000467064
0.00059792
0.000602286
0.000397211
4.91442e-05
-0.000321012
-0.000732308
-0.0011249
-0.00131375
-0.00148156
-0.00177762
-0.00175158
-0.000894779
0.000251085
-0.00547513
-0.0154049
-0.00166004
0.0041304
-0.00152741
0.00471393
0.00141539
0.000871798
-0.00214707
0.0076061
-0.00351445
0.000492196
0.000458417
0.000417619
0.00048463
0.000509769
0.000499841
0.000513539
0.00055879
0.000609984
0.000666388
0.00072873
0.000749078
0.000713609
0.000645501
0.00054483
0.000421451
0.000289028
0.000155328
4.07941e-05
-3.5429e-05
-7.04084e-05
-6.84915e-05
-2.27041e-05
6.56063e-05
0.000185481
0.00036293
0.000631634
0.00109263
0.0018628
0.00281341
0.00323078
0.00223328
0.000150456
-4.58359e-06
0.00135305
0.000418837
0.0028061
-0.00110135
0.000399831
0.000283004
0.000315835
6.79699e-05
-4.83518e-05
-0.000178824
-0.000305587
-0.000419745
-0.000454312
-0.000422804
-0.000336504
-0.000194281
-3.02731e-05
0.000130777
0.000278702
0.000420807
0.000537802
0.000542886
0.000352326
2.27677e-05
-0.00032121
-0.000694308
-0.0010604
-0.00124342
-0.00140386
-0.00169371
-0.00169228
-0.000948632
-5.39252e-06
-0.00524112
-0.0142132
-0.00187444
0.00351994
-0.00157154
0.00442538
0.00148613
0.00055573
-0.00166396
0.00626993
-0.00308232
0.000449476
0.000417655
0.000377533
0.000434026
0.000448947
0.000435262
0.000444456
0.000480313
0.000521578
0.000568893
0.000623625
0.000644592
0.000620286
0.000570535
0.000491823
0.000389479
0.000273467
0.000150876
4.18631e-05
-3.36208e-05
-7.08972e-05
-7.30332e-05
-3.17647e-05
5.35847e-05
0.000172244
0.000348082
0.000615841
0.0010681
0.00181569
0.00273413
0.00314627
0.00220229
0.000177884
-5.07931e-05
0.00127531
0.000506267
0.00282974
-0.000888363
0.000576566
0.000261808
0.000278298
5.99626e-05
-4.43895e-05
-0.000160522
-0.00027202
-0.000371274
-0.000397462
-0.000364094
-0.000282462
-0.000152935
-7.56205e-06
0.000131308
0.00025604
0.000376554
0.000477664
0.000480163
0.000302047
-7.98151e-06
-0.000325365
-0.000661921
-0.00099682
-0.00116679
-0.00131561
-0.00159492
-0.00161686
-0.000988329
-0.000245283
-0.00500726
-0.0130465
-0.0020645
0.00295144
-0.00160588
0.00410837
0.00145645
0.00024243
-0.00134563
0.00482112
-0.00275687
0.000397834
0.00037677
0.000340881
0.00038914
0.000397912
0.000382685
0.000387731
0.000414849
0.000446381
0.000483374
0.000527816
0.000544773
0.000525542
0.000487303
0.000425202
0.000340846
0.000241096
0.000131668
3.13879e-05
-4.02422e-05
-7.76067e-05
-8.2626e-05
-4.57667e-05
3.59449e-05
0.000152566
0.00032622
0.00059264
0.00103639
0.00176164
0.00264837
0.00305726
0.00217159
0.000210601
-9.41449e-05
0.00118294
0.000565476
0.00283197
-0.000678407
0.000778854
0.000230932
0.000234807
4.48747e-05
-4.93918e-05
-0.000151816
-0.000248514
-0.000333805
-0.000351487
-0.000315611
-0.000237599
-0.000119127
9.88962e-06
0.000129076
0.000233017
0.000332991
0.000417197
0.000414242
0.00024593
-4.50489e-05
-0.000337608
-0.000639888
-0.000939968
-0.00109138
-0.00122459
-0.00148907
-0.00153181
-0.00101575
-0.000464567
-0.00476984
-0.0119093
-0.00222451
0.00242732
-0.00162358
0.00377198
0.0013461
-4.68484e-05
-0.00116534
0.00339245
-0.00249354
0.000345385
0.000336465
0.000306505
0.000348366
0.000353247
0.000337492
0.000339336
0.000359584
0.000382731
0.00041008
0.000443949
0.000454937
0.00043677
0.000405216
0.000354688
0.000284757
0.000199707
0.000103852
1.40652e-05
-5.15213e-05
-8.72137e-05
-9.4042e-05
-6.15177e-05
1.56759e-05
0.000129011
0.000299204
0.000562995
0.000997679
0.00169996
0.00255554
0.00296291
0.00213994
0.000249484
-0.00013241
0.00107762
0.000594763
0.00280413
-0.000482984
0.000981707
0.000198433
0.000192138
2.78653e-05
-5.84393e-05
-0.000148442
-0.000231915
-0.000304736
-0.000314879
-0.000276709
-0.000201916
-9.29668e-05
2.1849e-05
0.00012407
0.000209839
0.000290994
0.00035831
0.000347886
0.000186803
-8.70342e-05
-0.000358724
-0.000630079
-0.000894583
-0.00102368
-0.00113762
-0.00138321
-0.00144326
-0.00103387
-0.000661031
-0.00452949
-0.0108105
-0.00234995
0.00195054
-0.00161856
0.00342297
0.00118175
-0.000294619
-0.00108859
0.00208603
-0.00225605
0.000294691
0.000297256
0.000273193
0.000309593
0.000312285
0.000297113
0.000297011
0.000312137
0.000328724
0.000347914
0.000372274
0.000377172
0.000358243
0.00033009
0.000287351
0.000228361
0.000155784
7.27718e-05
-5.99144e-06
-6.43238e-05
-9.71062e-05
-0.000104965
-7.66465e-05
-4.77456e-06
0.000103886
0.000269009
0.00052818
0.000952335
0.00163071
0.0024549
0.0028624
0.00210604
0.000295956
-0.000162538
0.000962292
0.000594742
0.00273993
-0.000310737
0.0011638
0.000166992
0.000152699
1.0507e-05
-6.9593e-05
-0.000148945
-0.000221023
-0.000283586
-0.000287506
-0.000247843
-0.000176249
-7.58267e-05
2.67319e-05
0.000114625
0.000185164
0.000249992
0.000301422
0.000282747
0.000127146
-0.000131744
-0.000386483
-0.000631896
-0.000862629
-0.000968221
-0.0010603
-0.00128301
-0.00135657
-0.00104558
-0.000833747
-0.0042858
-0.00975788
-0.00243825
0.00152141
-0.00158568
0.00307026
0.000992287
-0.000488702
-0.00107535
0.000969396
-0.00202156
0.000247115
0.000260025
0.000240896
0.000272593
0.000274309
0.000260752
0.000259694
0.000271297
0.00028321
0.000296212
0.000312962
0.000312626
0.000292581
0.000266146
0.000228526
0.00017764
0.000115149
4.35284e-05
-2.46263e-05
-7.53741e-05
-0.000104597
-0.000112844
-8.86364e-05
-2.27558e-05
7.99065e-05
0.000238146
0.000490305
0.000901863
0.00155458
0.00234706
0.00275579
0.00206969
0.000348525
-0.000181385
0.000841656
0.000568555
0.00263643
-0.000167132
0.00130868
0.000137559
0.000116822
-6.44221e-06
-8.15975e-05
-0.000151919
-0.000214631
-0.000268987
-0.000268448
-0.000228374
-0.000160488
-6.79167e-05
2.39266e-05
9.98632e-05
0.000157914
0.000208978
0.000246416
0.000219658
6.86344e-05
-0.000176918
-0.000418016
-0.000642991
-0.000842965
-0.000926007
-0.000996227
-0.0011929
-0.00127579
-0.00105358
-0.000982339
-0.00404215
-0.00875946
-0.00248948
0.0011397
-0.00152325
0.00271935
0.00080529
-0.000621327
-0.00108643
7.9552e-05
-0.0017787
0.000204123
0.000225293
0.000210137
0.000237942
0.000239669
0.00022823
0.000227051
0.000236358
0.000245151
0.000253759
0.000265005
0.000261059
0.000240315
0.000215097
0.000181002
0.000136029
8.15415e-05
1.9653e-05
-3.88721e-05
-8.23126e-05
-0.000107747
-0.000115931
-9.55988e-05
-3.61264e-05
5.94684e-05
0.000209131
0.000451743
0.000848221
0.00147299
0.00223267
0.00264309
0.0020302
0.000406619
-0.000186224
0.000720686
0.000521196
0.00249361
-5.3587e-05
0.00140595
0.000110789
8.48789e-05
-2.17962e-05
-9.25958e-05
-0.000155359
-0.000210433
-0.000258483
-0.000254986
-0.000215821
-0.000152203
-6.72524e-05
1.5009e-05
8.0815e-05
0.000128712
0.000168371
0.000193829
0.000159926
1.33276e-05
-0.000219875
-0.00045021
-0.000658681
-0.000832178
-0.000896398
-0.000946141
-0.00111559
-0.00120393
-0.00105971
-0.00110674
-0.00379918
-0.00782369
-0.00250572
0.000803842
-0.00143125
0.00237933
0.000642129
-0.000690049
-0.00108992
-0.000573204
-0.00152617
0.000166171
0.000193021
0.000181472
0.000206116
0.000208479
0.000199326
0.000198418
0.000206373
0.000213219
0.00021906
0.000226638
0.000220658
0.000200089
0.000176179
0.000144923
0.000104536
5.64749e-05
2.81527e-06
-4.72101e-05
-8.38921e-05
-0.000105518
-0.000113315
-9.65046e-05
-4.35094e-05
4.43129e-05
0.000184094
0.000414621
0.000793197
0.00138784
0.0021129
0.00252434
0.00198793
0.000469686
-0.000174908
0.000605042
0.000459083
0.00231538
3.06538e-05
0.00145096
8.71221e-05
5.72472e-05
-3.45868e-05
-0.000101369
-0.000157608
-0.000206465
-0.000249595
-0.000244594
-0.000207222
-0.000148506
-7.10949e-05
2.33838e-06
5.94393e-05
9.89971e-05
0.00012927
0.000144654
0.00010492
-3.69196e-05
-0.000258423
-0.000479113
-0.000673949
-0.000827088
-0.000877452
-0.000908728
-0.00105117
-0.00114188
-0.00106494
-0.00120785
-0.00355899
-0.00695682
-0.00248901
0.000510429
-0.00131519
0.0020542
0.000517127
-0.000697501
-0.00106259
-0.000999507
-0.00127029
0.000133002
0.000163233
0.000155024
0.000177176
0.00018058
0.000173578
0.000173195
0.000180158
0.000185855
0.00019003
0.000195397
0.000188701
0.000169209
0.000146981
0.000118332
8.17677e-05
3.91198e-05
-7.5459e-06
-5.00809e-05
-8.06235e-05
-9.85624e-05
-0.000105572
-9.16852e-05
-4.48796e-05
3.50013e-05
0.000163969
0.000380648
0.000738761
0.00130013
0.00198942
0.00240108
0.00194135
0.000537938
-0.000145673
0.00050053
0.000389367
0.00210864
8.93238e-05
0.00144522
6.66764e-05
3.39476e-05
-4.45222e-05
-0.000107458
-0.000158025
-0.000201636
-0.000240839
-0.000235165
-0.000200369
-0.000146893
-7.69266e-05
-1.16748e-05
3.77775e-05
7.03864e-05
9.29844e-05
0.000100083
5.59626e-05
-8.05367e-05
-0.000290533
-0.000502269
-0.000686342
-0.000825551
-0.000865344
-0.000881442
-0.00099827
-0.00108958
-0.00106938
-0.00128662
-0.00332564
-0.00615977
-0.0024456
0.000257232
-0.0011817
0.00175062
0.000435549
-0.000650823
-0.000993706
-0.00122531
-0.00102158
0.000103603
0.000135986
0.000131121
0.000151138
0.000155466
0.00015049
0.00015062
0.0001569
0.000161847
0.000165068
0.000169154
0.000162579
0.000144731
0.000124532
9.85167e-05
6.54528e-05
2.75193e-05
-1.29434e-05
-4.88758e-05
-7.38129e-05
-8.81586e-05
-9.39955e-05
-8.23948e-05
-4.11502e-05
3.10116e-05
0.000148904
0.000350186
0.00068597
0.00121248
0.00186324
0.00227349
0.00189106
0.000608672
-9.803e-05
0.000412359
0.000320034
0.00188313
0.00012735
0.001395
4.8979e-05
1.44296e-05
-5.20748e-05
-0.000111256
-0.000156756
-0.000195812
-0.000231758
-0.000226044
-0.000194184
-0.000146094
-8.33362e-05
-2.56526e-05
1.70792e-05
4.38849e-05
6.01698e-05
6.06119e-05
1.35137e-05
-0.000116969
-0.00031543
-0.000518817
-0.00069501
-0.000824312
-0.000857201
-0.000861375
-0.000955162
-0.00104503
-0.0010723
-0.00134369
-0.00310003
-0.0054382
-0.00237982
3.81681e-05
-0.00104069
0.00146959
0.000394966
-0.000560943
-0.000882153
-0.00128713
-0.00079171
7.75833e-05
0.000111492
0.000109831
0.000127836
0.000133
0.000129979
0.000130506
0.000136144
0.000140515
0.000143168
0.000146535
0.000140594
0.000124717
0.000106731
8.33719e-05
5.36204e-05
2.00596e-05
-1.48934e-05
-4.49006e-05
-6.4821e-05
-7.57217e-05
-8.00895e-05
-7.0014e-05
-3.35713e-05
3.14661e-05
0.000138498
0.000323512
0.000635123
0.00112479
0.00173629
0.00214219
0.00183595
0.000680701
-3.31828e-05
0.000344578
0.000258282
0.00164929
0.00015092
0.00131018
3.34532e-05
-1.89328e-06
-5.78782e-05
-0.00011344
-0.000154369
-0.000189405
-0.000222565
-0.000217169
-0.000188407
-0.000145638
-8.97035e-05
-3.89447e-05
-2.12146e-06
1.9845e-05
3.0979e-05
2.61539e-05
-2.25713e-05
-0.000146405
-0.000333186
-0.000528108
-0.000698243
-0.000820679
-0.000849771
-0.000845731
-0.000919192
-0.00100705
-0.00107182
-0.00137994
-0.00288243
-0.004792
-0.00229785
-0.000148781
-0.000902024
0.00121272
0.000386405
-0.000441307
-0.00073582
-0.00122524
-0.000591069
5.47669e-05
8.98865e-05
9.08824e-05
0.000107308
0.00011335
0.000111863
0.000112681
0.000117695
0.000121597
0.000123899
0.000126843
0.000121733
0.000107875
9.21284e-05
7.13558e-05
4.48444e-05
1.53326e-05
-1.45588e-05
-3.92932e-05
-5.46906e-05
-6.23685e-05
-6.506e-05
-5.58847e-05
-2.34173e-05
3.52072e-05
0.000131881
0.000300571
0.000587172
0.00103867
0.00160859
0.00200862
0.00177554
0.000751322
4.7141e-05
0.00030033
0.000209923
0.00141953
0.000165799
0.00120267
1.99395e-05
-1.54142e-05
-6.22323e-05
-0.000114278
-0.000151091
-0.000182596
-0.000213279
-0.000208467
-0.000182805
-0.000145131
-9.55659e-05
-5.10903e-05
-1.93879e-05
-1.47219e-06
5.49501e-06
-3.39047e-06
-5.26273e-05
-0.000169281
-0.000344086
-0.00053013
-0.000694965
-0.000813097
-0.000840929
-0.000831835
-0.000888573
-0.000973196
-0.00106742
-0.00139613
-0.00267434
-0.00421758
-0.00220377
-0.000307729
-0.000774995
0.000980664
0.000397635
-0.000306733
-0.000567566
-0.00108061
-0.000426979
3.53193e-05
7.13304e-05
7.45804e-05
8.96581e-05
9.6338e-05
9.60431e-05
9.7012e-05
0.000101436
0.000104925
0.000106985
0.000109676
0.000105372
9.34251e-05
7.97947e-05
6.15085e-05
3.80453e-05
1.23974e-05
-1.29107e-05
-3.28829e-05
-4.42828e-05
-4.90469e-05
-4.99706e-05
-4.11586e-05
-1.19092e-05
4.11047e-05
0.000128168
0.000280588
0.000541758
0.000954828
0.00148283
0.00187268
0.00170916
0.000817712
0.00013951
0.000280705
0.000179771
0.00120343
0.000177512
0.00108454
8.3913e-06
-2.6361e-05
-6.52539e-05
-0.000113926
-0.000147013
-0.000175401
-0.000203969
-0.000199838
-0.000177222
-0.000144367
-0.000100613
-6.17295e-05
-3.4457e-05
-1.98545e-05
-1.62093e-05
-2.81365e-05
-7.69456e-05
-0.000186064
-0.000348795
-0.000525509
-0.000684925
-0.000800428
-0.000828691
-0.000817378
-0.000860733
-0.000941511
-0.00105706
-0.00139361
-0.00247509
-0.00371042
-0.00210221
-0.000443301
-0.000667621
0.000771002
0.000414997
-0.000171271
-0.000393557
-0.000889174
-0.000298715
1.91172e-05
5.55686e-05
6.07447e-05
7.46304e-05
8.16788e-05
8.22633e-05
8.33321e-05
8.72111e-05
9.03508e-05
9.22348e-05
9.46976e-05
9.11992e-05
8.09159e-05
6.91661e-05
5.31674e-05
3.25803e-05
1.0458e-05
-1.06346e-05
-2.64319e-05
-3.43433e-05
-3.64791e-05
-3.56519e-05
-2.68481e-05
-1.60516e-07
4.79832e-05
0.000126299
0.000263159
0.000498933
0.000873208
0.0013579
0.00173627
0.00163615
0.000876911
0.000239305
0.000284444
0.000169316
0.00101058
0.000189976
0.000966661
-1.21054e-06
-3.49027e-05
-6.70205e-05
-0.00011247
-0.000142264
-0.000167889
-0.000194587
-0.000191258
-0.000171562
-0.000143103
-0.000104694
-7.0726e-05
-4.72167e-05
-3.52728e-05
-3.41946e-05
-4.82857e-05
-9.59502e-05
-0.000197371
-0.000347917
-0.000514675
-0.000668644
-0.00078193
-0.000812467
-0.000801218
-0.000834088
-0.000910689
-0.00104021
-0.00137366
-0.00228545
-0.00326802
-0.00199656
-0.000556402
-0.000584954
0.000582419
0.000426067
-4.75395e-05
-0.000227736
-0.000680065
-0.000197873
5.94935e-06
4.23184e-05
4.90412e-05
6.18106e-05
6.90319e-05
7.02982e-05
7.14292e-05
7.48266e-05
7.76593e-05
7.94031e-05
8.17095e-05
7.88361e-05
7.00005e-05
5.98683e-05
4.58949e-05
2.79127e-05
9.02601e-06
-8.3302e-06
-2.04459e-05
-2.53773e-05
-2.52593e-05
-2.27939e-05
-1.37631e-05
1.08657e-05
5.47956e-05
0.000125214
0.000247286
0.000458293
0.000794653
0.0012363
0.00159886
0.00155624
0.000925236
0.000341246
0.000308381
0.000178654
0.000846549
0.000205656
0.000857157
-8.96308e-06
-4.12513e-05
-6.76409e-05
-0.000109993
-0.00013684
-0.000160084
-0.000185126
-0.000182674
-0.000165747
-0.000141395
-0.000107749
-7.81067e-05
-5.7738e-05
-4.78717e-05
-4.86693e-05
-6.41214e-05
-0.000110038
-0.000203727