/*--------------------------------*- C++ -*----------------------------------*\
| =========                 |                                                 |
| \\      /  F ield         | OpenFOAM: The Open Source CFD Toolbox           |
|  \\    /   O peration     | Version:  2312                                  |
|   \\  /    A nd           | Website:  www.openfoam.com                      |
|    \\/     M anipulation  |                                                 |
\*---------------------------------------------------------------------------*/
FoamFile
{
    version     2.0;
    format      ascii;
    arch        "LSB;label=32;scalar=64";
    class       volScalarField;
    location    "300";
    object      magR;
}
// * * * * * * * * * * * * * * * * * * * * * * * * * * * * * * * * * * * * * //

dimensions      [0 2 -2 0 0 0 0];

internalField   nonuniform List<scalar> 
10720
(
0.0408717
0.0467557
0.0532972
0.0606567
0.0668929
0.0748724
0.0862829
0.101739
0.12327
0.154023
0.199635
0.271856
0.390391
0.595662
0.979716
1.79195
3.38913
7.28947
14.224
22.2454
32.1796
50.1386
89.1138
180.546
336.92
488.392
1007.11
1673.2
1197.44
514.12
168.46
25.0286
4.58708
0.628924
1.17501e-15
1.15673e-15
1.15578e-15
1.29597e-15
0.573955
0.0191778
0.0172356
0.0338039
0.0440924
0.0311103
0.0261913
0.0188524
0.01797
0.0195207
0.0241174
0.0318813
0.0445304
0.0639813
0.0976695
0.145347
0.250555
0.362863
0.913946
1.23925
1.52997
1.92006
2.96599
4.1468
5.82653
7.77123
9.87703
8.74508
5.16594
2.05625
0.524905
0.0509467
0.00307883
0.000818458
0.000332409
0.000126826
4.45174e-05
1.25561e-15
1.49528
112.598
0.0270043
0.0307743
0.0247361
0.0189035
0.0157952
0.014774
0.01455
0.0144524
0.0143585
0.0142552
0.0141665
0.0140721
0.0154328
0.0203662
0.0332582
0.0679083
0.151071
0.38768
1.01588
2.34488
4.59532
8.01656
13.5278
20.0173
62.6701
105.311
322.245
668.824
576.662
355.306
171.107
63.4365
17.7482
2.76809
0.0546851
1.23303e-15
1.22204e-15
0.00454325
0.318181
0.020869
0.0194928
0.00883223
0.00693133
0.00473909
0.00577992
0.00630551
0.00804555
0.00761444
0.00717317
0.00662608
0.00590649
0.00484293
0.00348251
0.000491205
0.04571
0.0664757
0.0145024
0.229781
0.27719
0.055192
0.586498
0.0986484
0.141259
1.54715
0.0510306
0.0576762
0.0594592
0.0339691
0.0271897
0.016413
0.00804464
0.00353452
0.00141661
0.000533844
0.000185879
3.10919e-06
0.314951
21.7595
0.024639
0.0217883
0.0212382
0.0205724
0.0200963
0.0197057
0.0194452
0.0192821
0.0192379
0.0192716
0.019391
0.019592
0.0199902
0.0209931
0.0227859
0.014235
0.0290954
0.071834
0.189649
0.447674
0.89686
1.59768
2.74999
4.52929
8.10921
16.8666
105.213
255.523
245.452
188.47
113.968
55.8792
20.194
4.268
0.34518
0.0479051
1.23588e-15
0.0277134
1.88288
0.0129815
0.00188717
0.00347069
0.0036698
0.0102922
0.0154428
0.0170152
0.0174948
0.0177194
0.017772
0.0178381
0.0178493
0.0177994
0.0177596
0.0177715
0.017072
0.0166195
0.0133325
0.0142218
0.0114912
0.00346122
0.00622757
2.09492e-05
0.0343757
0.00402518
0.0103224
0.00248692
0.00120881
0.00228073
0.0032342
0.00356937
0.00335083
0.00303206
0.0027404
0.0024163
0.00230307
3.93901e-05
0.102574
7.09875
0.00725536
0.00848895
0.00789838
0.00759223
0.00733354
0.00714981
0.00701364
0.00692486
0.00690655
0.00691755
0.00692844
0.00706728
0.00734171
0.00760773
0.00790446
0.00836213
0.00896491
0.00928469
0.00135183
2.2435e-15
2.39651e-15
3.39532e-15
4.49593e-14
1.5195e-14
1.77701
0.000410971
0.000262069
0.000952187
0.00168779
0.00437577
0.0277473
0.555713
3.09603
2.75374
1.15125
0.209624
0.0526873
0.040349
2.7673
0.0072194
0.00642744
0.0106092
0.015749
0.0160737
0.0140098
0.0119553
0.0122281
0.0125376
0.0128739
0.0133114
0.0138198
0.0143891
0.0150421
0.0157308
0.0164123
0.0169947
0.0177899
0.0186118
0.0191639
0.0195422
0.019938
0.0202218
0.0199655
0.0189826
0.0181807
0.0174521
0.0169746
0.0164699
0.0159974
0.0154995
0.0148696
0.0140903
0.0133162
0.0122253
0.011925
0.000494899
0.0590137
3.91551
0.0103827
0.00895238
0.00913349
0.00882469
0.00877663
0.00871192
0.000147518
0.000965056
0.00166953
0.00225769
0.0026928
0.00295042
0.00319922
0.00341302
0.00367268
0.0039972
0.00415015
0.00394463
0.00314395
0.00373975
0.0027901
0.000714939
2.22785e-15
2.66332e-15
1.5359e-14
8.65814e-05
5.61045e-05
0.000206906
0.000371846
0.000976443
0.00626531
0.126852
0.713308
1.02043e-05
0.445904
0.388317
0.207908
0.0499567
3.0486
0.0113156
0.0165424
0.0180863
0.0147204
0.0117113
0.00795924
0.00301712
0.00325251
0.0035786
0.00402895
0.00469267
0.00538873
0.0059981
0.00659939
0.00725066
0.00776054
0.00802787
0.00827707
0.00832749
0.00817848
0.007979
0.00781389
0.0076591
0.00749083
0.00731779
0.00714775
0.00698909
0.00685236
0.00673656
0.00664401
0.00661245
0.0067063
0.00684522
0.00710996
0.00716318
0.0088703
0.00113499
0.0373089
2.41009
0.0181392
0.0182549
0.0186175
0.0189322
0.0192428
0.0195086
0.0197302
0.0199442
0.0201678
0.0204063
0.020666
0.0209516
0.02127
0.0216282
0.0220353
0.0225016
0.0232747
0.0225035
0.0181336
0.015401
0.0117175
0.00286957
0.00253515
0.00151455
1.45129e-15
1.1547e-15
1.1547e-15
1.1547e-15
1.1547e-15
1.1547e-15
1.1547e-15
1.1547e-15
1.1547e-15
2.36817e-06
2.31266e-07
3.11964e-06
1.91519e-05
0.000198392
0.0120775
0.0211416
0.0201479
0.0169724
0.00801601
0.00341274
0.00226861
0.00177733
0.00171402
0.00171285
0.00169174
0.00167347
0.00166639
0.00167065
0.00169645
0.0017557
0.00186694
0.00187812
0.00187871
0.00192269
0.00192813
0.00191801
0.00190817
0.00189456
0.0018736
0.00184814
0.00182201
0.00179828
0.00177853
0.00176214
0.00175012
0.00174709
5.3105e-06
0.000244049
0.000633351
0.000960297
0.00233895
0.000435895
0.0180024
1.14658
0.0263601
0.0258796
0.0259824
0.0261016
0.026197
0.0262277
0.026309
0.0264487
0.0266594
0.0269508
0.0273232
0.0267272
0.0254936
0.0243144
0.0232183
0.0222569
0.0212438
0.0209429
0.0208719
0.0195842
0.0178374
0.0162474
0.0135191
0.0083387
0.0026519
2.24148e-06
1.1547e-15
1.1547e-15
1.1547e-15
1.1547e-15
1.1547e-15
1.1547e-15
1.1547e-15
1.1547e-15
5.37688e-08
7.31533e-07
4.5264e-06
1.1547e-15
0.00289409
0.0248699
0.00278076
0.00314276
0.00269098
0.00376702
0.00873575
0.00881829
0.0082311
0.00794179
0.00739845
0.00671828
0.00600472
0.00531686
0.00468391
0.00412
0.00391458
0.00328954
0.00261824
0.0024288
0.00225826
0.00210656
0.00196927
0.00184308
0.00172878
0.00163051
0.00154675
0.00147646
0.00141759
0.00136733
0.00132511
0.00126962
0.00115151
0.00101665
0.000922948
0.000802052
0.000869685
0.000554969
0.00577357
0.337313
0.00840268
0.010534
0.00899435
0.00809735
0.00732923
0.00661438
0.00606296
0.00569222
0.00544748
0.00530397
0.00525893
0.00531294
0.00544309
0.00564807
0.00593391
0.0063161
0.00666475
0.0071909
0.00843185
0.00977614
0.0106335
0.0110733
0.0112733
0.0106072
0.0110315
1.13779e-05
5.5107e-07
1.1547e-15
1.1547e-15
1.1547e-15
1.1547e-15
1.1547e-15
1.1547e-15
1.1547e-15
1.1547e-15
1.1547e-15
1.1547e-15
1.1547e-15
1.1547e-15
0.00351666
0.00249668
0.00480774
0.0147421
0.0204992
0.0213676
0.0206976
0.0197643
0.0188941
0.017895
0.0167669
0.0156116
0.0144922
0.0134373
0.0124695
0.0115642
0.0108263
0.0101636
0.00959844
0.00911731
0.00870613
0.00834778
0.00802597
0.00772518
0.0074422
0.00718364
0.006951
0.00673894
0.0065404
0.00634994
0.00616095
0.00592867
0.00559434
0.0051769
0.00467226
0.00415418
0.00373221
0.000790105
0.0395351
0.00151612
0.00175947
0.00179117
0.00175885
0.00182777
0.00190189
0.00192736
0.00197234
0.00201408
0.00204213
0.00207762
0.00211362
0.00214904
0.00219104
0.00223549
0.00229476
0.00235173
0.00243229
0.00275273
0.00117431
0.00284512
0.00434044
0.00576617
0.00615699
0.00946219
2.25656e-05
1.13556e-06
1.1547e-15
1.1547e-15
1.1547e-15
1.1547e-15
1.1547e-15
1.1547e-15
1.1547e-15
1.1547e-15
1.1547e-15
1.1547e-15
1.1547e-15
1.1547e-15
0.00355217
0.0120275
0.0182838
0.0177262
0.0145117
0.0130583
0.0127602
0.0124179
0.0121247
0.011826
0.0114528
0.0110655
0.0106909
0.0103359
0.00998343
0.00955748
0.00907431
0.00860191
0.00816904
0.00777998
0.00743191
0.00711742
0.00682729
0.00655746
0.00630836
0.00608254
0.00588141
0.00570123
0.00553551
0.00538038
0.00523997
0.00513304
0.00502691
0.00488531
0.00470925
0.00439275
0.00433631
0.000596703
0.00935099
0.00508159
0.00494404
0.00543781
0.0061085
0.00687081
0.00760815
0.00817
0.00858813
0.00888118
0.00904875
0.00910603
0.00906541
0.00893667
0.00873781
0.00846105
0.00815783
0.00784272
0.00744219
0.00711337
0.00612929
0.00514873
0.00500898
0.00525185
0.00494612
0.00730562
4.10501e-05
2.14484e-06
1.1547e-15
1.1547e-15
1.1547e-15
1.1547e-15
1.1547e-15
1.1547e-15
1.1547e-15
1.1547e-15
1.1547e-15
1.1547e-15
1.1547e-15
1.1547e-15
0.0148472
0.016804
0.0116762
0.00614418
0.00206738
0.00168447
0.0016898
0.00175636
0.0018004
0.00190777
0.00203937
0.00218034
0.00234047
0.00251253
0.00262525
0.00262832
0.00256731
0.00247928
0.0023788
0.00227511
0.00217276
0.0020732
0.00197716
0.0018893
0.00181139
0.00174223
0.00168343
0.00163408
0.00159137
0.00155351
0.00152018
0.00151647
0.00159308
0.00170433
0.00190832
0.00215758
0.00245404
0.00225348
7.48098e-05
0.0147182
0.0134565
0.0132774
0.0135784
0.0138245
0.0140208
0.0141002
0.0141215
0.0141037
0.0140445
0.0139324
0.0137508
0.0135494
0.0133085
0.0129021
0.0125607
0.0123247
0.0118546
0.0111954
0.0103217
0.0092258
0.00815909
0.00743359
0.00637379
0.00742139
9.49194e-05
5.14676e-06
1.1547e-15
1.1547e-15
1.1547e-15
1.1547e-15
1.1547e-15
1.1547e-15
1.1547e-15
1.1547e-15
1.1547e-15
1.1547e-15
1.1547e-15
1.1547e-15
0.0133387
0.00586813
0.000381155
0.000792066
0.000290473
0.00027042
0.00028295
0.000293128
0.000296986
0.000308956
0.000321441
0.0003361
0.000356783
0.000381944
0.000402768
0.000411631
0.000413108
0.000410916
0.000406647
0.000401221
0.000395114
0.000388487
0.000381603
0.000375165
0.000368987
0.000363293
0.000358767
0.000355389
0.000352703
0.000350435
0.00034842
0.000351737
0.000367651
0.00040563
0.000436969
1.40209e-05
0.000334407
0.00101346
0.000128227
0.00862607
0.00825735
0.00776554
0.00740146
0.0069825
0.00661306
0.00633941
0.00614687
0.00603214
0.00598088
0.00597301
0.00595577
0.00605814
0.00626575
0.00632687
0.00635658
0.00648809
0.00668805
0.00705968
0.00744978
0.00755248
0.00736019
0.0071413
0.00642478
0.00733461
0.000216645
1.2182e-05
1.1547e-15
1.1547e-15
1.1547e-15
1.1547e-15
1.1547e-15
1.1547e-15
1.1547e-15
1.1547e-15
1.1547e-15
1.1547e-15
1.1547e-15
1.1547e-15
0.00218075
0.000936837
0.000327477
0.000610906
0.000202528
0.000324485
0.000369167
0.000380208
0.000368345
0.000343905
0.000311259
0.000273619
0.00023476
0.000199441
0.000170528
0.000147867
0.000130711
0.000118013
0.00010879
0.000102277
9.78171e-05
9.48348e-05
9.3298e-05
9.31869e-05
9.3963e-05
9.47747e-05
9.54966e-05
9.62007e-05
9.67618e-05
9.72486e-05
9.68472e-05
9.31613e-05
6.60792e-05
0.000105918
1.32123e-05
0.000296123
0.000334411
0.000217815
0.000364765
0.000599221
0.00103904
0.00039579
0.000937616
0.000858123
0.000830723
0.00079495
0.000779498
0.000774238
0.000774438
0.000786374
0.00079885
0.000829946
0.000880371
0.00091567
2.50035e-05
0.00033487
0.000701518
0.00108626
0.00171734
0.00263975
0.00351626
0.00420516
0.00431895
0.00581044
0.000410767
2.39382e-05
1.1547e-15
1.1547e-15
1.1547e-15
1.1547e-15
1.1547e-15
1.1547e-15
1.1547e-15
1.1547e-15
1.1547e-15
1.1547e-15
1.1547e-15
1.1547e-15
0.0003519
0.000652722
0.00186336
0.00387748
0.00422585
0.00418461
0.00414269
0.00408068
0.00399493
0.00389286
0.00378034
0.00366192
0.00354068
0.00342074
0.00330343
0.00318938
0.00307911
0.00297341
0.00287291
0.00277799
0.00268891
0.00260564
0.00252762
0.00245433
0.00238547
0.00232084
0.00226036
0.00220358
0.00214958
0.00209722
0.00204577
0.00199604
0.00191517
0.00177726
0.00158192
0.0013505
0.00115219
0.000851091
0.000722
0.000314375
0.000336923
0.000323309
0.000318364
0.000377885
0.000434119
0.00046766
0.000497618
0.000519817
0.00053256
0.000544061
0.000551887
0.000556596
0.000560755
0.000563249
0.000567452
0.000613592
0.000670548
0.000730315
0.000818802
1.93074e-05
0.000644648
0.00140358
0.00185683
0.00347926
0.000613591
3.70356e-05
1.1547e-15
1.1547e-15
1.1547e-15
1.1547e-15
1.1547e-15
1.1547e-15
1.1547e-15
1.1547e-15
1.1547e-15
1.1547e-15
1.1547e-15
1.1547e-15
0.000239194
0.0032446
0.0048206
0.00422572
0.00420019
0.00408979
0.00393749
0.00384438
0.00376025
0.0036779
0.00359828
0.00352098
0.00344412
0.00336631
0.0032872
0.00320645
0.00312449
0.00304741
0.00297173
0.00289697
0.00282366
0.00275183
0.00268137
0.00261263
0.00254629
0.00248288
0.00242267
0.00236547
0.00231078
0.0022577
0.00220598
0.0021619
0.00212326
0.00206684
0.00197737
0.00186407
0.00169542
0.00134915
0.0010833
0.00158187
0.00154846
0.00184425
0.0022209
0.00259423
0.00292788
0.003184
0.00337435
0.00351132
0.0036024
0.00365796
0.00368606
0.00368985
0.0036754
0.00364549
0.00359681
0.00353165
0.00345988
0.00336713
0.00316986
0.00296202
0.00248746
0.00208866
0.00191754
0.00260123
0.0009942
3.78122e-09
2.21534e-10
1.1547e-15
1.1547e-15
1.1547e-15
1.1547e-15
1.1547e-15
1.1547e-15
1.1547e-15
1.1547e-15
1.1547e-15
1.1547e-15
1.1547e-15
0.00394196
0.00442878
0.00295396
0.00145298
0.000974604
0.000910289
0.00106269
0.00108185
0.00107083
0.00105601
0.00104228
0.00103027
0.00101956
0.00100925
0.000998494
0.000986721
0.000973573
0.000950731
0.000914088
0.000873757
0.00083392
0.000796343
0.000761743
0.000730986
0.000704419
0.000681536
0.000661765
0.000644644
0.000629855
0.000617003
0.000605074
0.0005969
0.000618232
0.00069127
0.000776624
0.000856103
0.000966824
0.00101493
0.000925159
0.00404888
0.00367747
0.00367185
0.00385006
0.00399137
0.00411115
0.00420364
0.00426459
0.00430892
0.00434397
0.00437212
0.00439624
0.00440954
0.0044291
0.00444806
0.00443328
0.00439796
0.00435533
0.00428272
0.00425538
0.00414744
0.0037308
0.00322985
0.00277396
0.00268015
0.00157486
2.50678e-08
1.52143e-09
1.1547e-15
1.1547e-15
1.1547e-15
1.1547e-15
1.1547e-15
1.1547e-15
1.1547e-15
1.1547e-15
1.1547e-15
1.1547e-15
1.15495e-15
0.00356995
0.00162542
0.000154726
0.000214046
0.000135655
0.000130446
0.000153909
0.00015509
0.000151894
0.000148799
0.000144579
0.000141007
0.000139078
0.000137661
0.000137261
0.000137857
0.000138965
0.000139315
0.00013803
0.000136267
0.000134437
0.000132801
0.000131395
0.000130112
0.000128733
0.000127537
0.00012665
0.000126023
0.000125627
0.000125409
0.000125184
0.000125565
0.000132099
0.000149881
0.000170707
0.00019526
0.0001483
0.000383163
0.00053146
0.00233252
0.00216893
0.00192034
0.00176085
0.00162679
0.00152379
0.00145787
0.00141287
0.00139029
0.00139001
0.00140754
0.00144015
0.00147064
0.00153732
0.00163989
0.00168588
0.00173291
0.00180612
0.0018565
0.00198988
0.00220608
0.0024054
0.00252458
0.00243679
0.00228816
0.00179522
8.49844e-08
5.33959e-09
1.1547e-15
1.1547e-15
1.1547e-15
1.1547e-15
1.1547e-15
1.1547e-15
1.1547e-15
1.1547e-15
1.1547e-15
1.15471e-15
1.15895e-15
0.000655649
0.000280634
4.30667e-05
0.000101421
0.000118219
0.000127933
0.00012597
0.000125556
0.00012327
0.000120025
0.000115028
0.000110171
0.00010655
0.000103363
0.000101073
9.97904e-05
9.90325e-05
0.000101184
0.000103044
0.000104794
0.000106451
0.00010809
0.000109687
0.000110945
0.000111521
0.000111751
0.000111877
0.000111901
0.000111814
0.0001116
0.000111254
0.000110662
0.000109068
0.000100613
8.71327e-05
6.89052e-05
8.15007e-05
0.000119011
0.000150275
0.000110556
0.000141071
0.000277481
0.000230906
0.000216181
0.000205746
0.000194538
0.000189063
0.00018673
0.00018647
0.000190226
0.00019643
0.000202824
0.00021547
0.000234022
0.00024554
0.00025808
0.000275343
0.000289907
0.000328895
0.000120507
0.000456913
0.000820412
0.00115269
0.00132635
0.00144347
2.04506e-07
1.32927e-08
1.1547e-15
1.1547e-15
1.1547e-15
1.1547e-15
1.1547e-15
1.1547e-15
1.1547e-15
1.1547e-15
1.1547e-15
1.15472e-15
1.15479e-15
9.44253e-05
0.000104044
0.000144188
0.000667354
0.000763132
0.000805087
0.000788835
0.000800855
0.000801911
0.000793937
0.000782194
0.00076922
0.000756076
0.000743212
0.000730509
0.000717771
0.000704845
0.000707887
0.00070503
0.000698572
0.000689754
0.000679377
0.00066794
0.000655858
0.000643525
0.000631163
0.000618861
0.000606682
0.000594627
0.000582656
0.000570776
0.000558393
0.000541782
0.000492435
0.000420537
0.000328194
0.00022723
0.000130386
0.000151245
6.02871e-05
7.80043e-05
8.47559e-05
8.98463e-05
9.93177e-05
0.000109255
0.000113398
0.000117132
0.000119441
0.000120066
0.000121076
0.000121727
0.000122157
0.000122816
0.000123267
0.000123702
0.000124053
0.000124325
0.00012446
0.000124193
0.000135317
0.000173326
0.000216806
0.000277508
0.000239288
0.000732163
3.51026e-07
2.35885e-08
1.1547e-15
1.1547e-15
1.1547e-15
1.1547e-15
1.1547e-15
1.1547e-15
1.1547e-15
1.1547e-15
1.1547e-15
1.1547e-15
1.15579e-15
0.000215066
0.000647097
0.00120167
0.00136027
0.00133688
0.00132867
0.00133634
0.00134215
0.00133761
0.0013252
0.00131036
0.00129587
0.00128232
0.00126951
0.00125693
0.00124413
0.00123085
0.00121682
0.0012019
0.00118602
0.00116919
0.00115138
0.00113262
0.00111309
0.0010932
0.00107319
0.00105315
0.00103318
0.0010133
0.000993437
0.000973598
0.00095419
0.000938068
0.000901367
0.000855671
0.000762033
0.000638953
0.000509854
0.000387817
0.000336566
0.00042837
0.000566893
0.000624457
0.000681572
0.000738887
0.000778815
0.000805149
0.000821762
0.000831623
0.000836691
0.000838214
0.000836872
0.000832944
0.000826645
0.000818438
0.000808788
0.000798031
0.000786414
0.000772613
0.000709864
0.000591187
0.000467335
0.000355081
0.000240727
0.000528202
8.75576e-07
6.07845e-08
1.1547e-15
1.1547e-15
1.1547e-15
1.1547e-15
1.1547e-15
1.1547e-15
1.1547e-15
1.1547e-15
1.1547e-15
1.30431e-15
1.15722e-15
0.00102431
0.00131132
0.00104274
0.000682593
0.000704527
0.000677457
0.000660635
0.00065646
0.000654632
0.000650757
0.000646636
0.000643819
0.000642051
0.000640657
0.000639158
0.00063718
0.000634529
0.000631066
0.000626718
0.000621409
0.000615143
0.000607961
0.000599893
0.000591146
0.000581989
0.000572629
0.000563171
0.000553676
0.000544196
0.000534742
0.000525236
0.000515431
0.000509939
0.000519173
0.000537804
0.00055416
0.000549531
0.000506237
0.000430609
0.00127961
0.00129622
0.00139545
0.00143518
0.00145992
0.00149396
0.00150912
0.00151585
0.00151974
0.00152265
0.00152466
0.00152592
0.00152631
0.00152529
0.00152244
0.00151772
0.00151093
0.00150132
0.00148839
0.00147724
0.00144286
0.00132567
0.00118232
0.00106829
0.000812702
0.000758938
3.62884e-06
2.6006e-07
1.1547e-15
1.1547e-15
1.1547e-15
1.1547e-15
1.1547e-15
1.1547e-15
1.1547e-15
1.1547e-15
1.1547e-15
1.15474e-15
1.155e-15
0.00128567
0.000723293
0.000238053
0.000123196
0.000104497
0.000103186
0.00010128
9.89504e-05
9.68218e-05
9.46985e-05
9.14221e-05
8.8429e-05
8.65439e-05
8.49464e-05
8.40695e-05
8.4094e-05
8.46161e-05
8.57308e-05
8.73245e-05
8.92804e-05
9.14126e-05
9.37268e-05
9.61057e-05
9.81637e-05
9.94803e-05
0.000100396
0.000101194
0.00010187
0.000102423
0.000102843
0.000103114
0.000103183
0.000104054
1.30044e-06
4.61031e-05
0.000115033
0.000199236
0.000272939
0.000297892
0.000982351
0.000904005
0.000853363
0.000850594
0.00083906
0.000831585
0.000825731
0.000822377
0.000822622
0.000825598
0.000830558
0.000836981
0.00084461
0.000853008
0.000861992
0.000871382
0.000880803
0.000890386
0.000899703
0.000911955
0.000946395
0.000991755
0.00101154
0.00100293
0.000907383
0.000919832
1.31953e-05
9.7564e-07
1.1547e-15
1.1547e-15
1.1547e-15
1.1547e-15
1.1547e-15
1.1547e-15
1.1547e-15
1.1547e-15
1.1547e-15
1.1547e-15
1.15598e-15
0.000344305
0.000135701
3.48779e-05
1.30011e-15
1.29549e-15
1.29073e-15
1.28597e-15
1.28146e-15
1.27722e-15
1.27317e-15
1.26927e-15
1.26546e-15
1.26165e-15
1.25774e-15
1.25363e-15
1.24925e-15
1.24451e-15
1.23938e-15
1.23381e-15
1.22781e-15
1.22141e-15
1.21469e-15
1.20777e-15
1.20085e-15
1.19418e-15
1.18793e-15
1.18219e-15
1.17705e-15
1.17259e-15
1.16882e-15
1.16568e-15
1.16313e-15
1.16114e-15
2.6726e-07
9.63892e-06
2.44452e-05
4.45944e-05
4.2548e-05
0.00012797
0.00010311
0.00011899
4.1901e-05
6.62953e-06
0.0001186
0.000118285
0.000115347
0.000114459
0.000114089
0.000113356
0.000113999
0.000114989
0.000116467
7.07416e-07
9.29841e-06
1.90876e-05
2.95141e-05
4.17988e-05
5.60654e-05
6.97422e-05
9.61717e-05
0.000183371
0.000300879
0.000429279
0.000518136
0.000697541
3.37882e-05
2.57556e-06
1.1547e-15
1.1547e-15
1.1547e-15
1.1547e-15
1.1547e-15
1.1547e-15
1.1547e-15
1.1547e-15
1.1547e-15
1.1547e-15
1.15474e-15
5.7394e-05
1.28109e-15
1.18406e-05
2.18988e-05
2.7061e-05
3.2033e-05
3.50753e-05
3.58352e-05
3.57446e-05
3.54416e-05
3.45056e-05
3.34506e-05
3.26803e-05
3.19081e-05
3.13683e-05
3.11908e-05
3.12127e-05
3.1506e-05
3.20332e-05
3.2751e-05
3.36041e-05
3.45778e-05
3.56442e-05
3.65912e-05
3.7198e-05
3.76157e-05
3.79806e-05
3.82921e-05
3.85518e-05
3.87445e-05
3.8868e-05
3.89284e-05
3.89662e-05
3.81781e-05
3.55948e-05
3.06649e-05
2.25786e-05
2.37791e-05
1.90531e-05
1.39328e-05
1.62919e-05
6.12596e-06
9.29664e-07
1.27995e-15
1.28522e-15
1.29041e-15
1.29539e-15
1.30023e-15
1.30489e-15
1.30925e-15
1.31334e-15
1.31708e-15
9.83105e-08
1.30455e-06
2.71185e-06
4.2551e-06
6.12519e-06
8.35783e-06
1.05829e-05
1.48463e-05
2.87666e-05
4.79138e-05
7.52344e-05
6.73106e-05
0.000297196
5.57982e-05
4.39334e-06
1.1547e-15
1.1547e-15
1.1547e-15
1.1547e-15
1.1547e-15
1.1547e-15
1.1547e-15
1.1547e-15
1.1547e-15
1.1547e-15
1.1547e-15
2.0287e-05
5.36995e-05
7.76253e-05
0.000143393
0.000174152
0.000201215
0.000219574
0.000229174
0.000234138
0.000237312
0.000239626
0.000241294
0.000242488
0.000243284
0.000243715
0.000243842
0.000243693
0.000243267
0.000242571
0.000241596
0.000240326
0.000238738
0.000236821
0.000234587
0.000232066
0.000229288
0.000226286
0.000223094
0.000219734
0.000216214
0.000212536
0.000208715
0.000205003
0.00019727
0.000180769
0.000153155
0.000110992
6.69608e-05
5.52257e-05
5.23796e-05
3.50918e-05
3.94916e-05
3.8554e-05
3.93488e-05
4.03936e-05
4.01118e-05
4.03265e-05
4.04598e-05
4.0242e-05
4.03654e-05
4.04815e-05
4.06188e-05
4.0891e-05
4.12388e-05
4.17229e-05
4.2237e-05
4.27264e-05
4.31558e-05
4.35137e-05
4.38257e-05
4.17136e-05
3.64424e-05
2.88551e-05
3.31003e-05
6.74443e-05
3.71428e-05
6.97447e-08
5.36047e-09
1.1547e-15
1.1547e-15
1.1547e-15
1.1547e-15
1.1547e-15
1.1547e-15
1.1547e-15
1.1547e-15
1.1547e-15
1.1547e-15
0.000147862
0.00033177
0.000416682
0.000373294
0.00038633
0.000398407
0.000407254
0.000411658
0.000413014
0.00041342
0.000413687
0.000413746
0.000413493
0.000412951
0.000412123
0.000411009
0.000409623
0.000407955
0.000405983
0.000403678
0.000400994
0.000397898
0.000394344
0.00039033
0.00038592
0.000381216
0.000376217
0.000370948
0.000365428
0.00035967
0.000353658
0.000347405
0.00034211
0.000336628
0.000324769
0.000301668
0.000259073
0.000209957
0.000156644
0.000256689
0.000249463
0.000262557
0.000267431
0.000270206
0.000273997
0.000277523
0.000280396
0.000282877
0.000285024
0.000286855
0.000288392
0.000289595
0.000290086
0.000290606
0.000291226
0.000291425
0.000291069
0.000290067
0.000288526
0.000286906
0.000270145
0.000233868
0.000183926
0.000139758
9.05752e-05
7.40127e-05
4.41721e-06
3.85901e-07
1.1547e-15
1.1547e-15
1.1547e-15
1.1547e-15
1.1547e-15
1.1547e-15
1.1547e-15
1.1547e-15
1.1547e-15
1.15475e-15
0.000534158
0.000516187
0.000449249
0.00035187
0.000304806
0.00027687
0.000258413
0.000246958
0.000238532
0.000231884
0.000226958
0.000223124
0.000219881
0.000217075
0.000214543
0.000212191
0.000209939
0.000207759
0.000205565
0.000203338
0.00020102
0.0001986
0.000196051
0.000193377
0.000190672
0.000187943
0.000185185
0.000182393
0.000179583
0.000176754
0.000173901
0.000170976
0.000168552
0.000169695
0.000176736
0.000187003
0.000194662
0.000190949
0.000163875
0.000579477
0.000545857
0.000549242
0.000550588
0.000550928
0.000553176
0.000555158
0.000556607
0.000557968
0.000559368
0.000560665
0.000561767
0.000562633
0.000562321
0.000562274
0.000562879
0.000562591
0.00056152
0.00055962
0.000557169
0.000556679
0.000548375
0.000518886
0.000467542
0.000413954
0.000354151
0.000267371
3.93893e-05
2.12834e-07
1.65059e-08
1.1547e-15
1.1547e-15
1.1547e-15
1.1547e-15
1.1547e-15
1.1547e-15
1.1547e-15
1.1547e-15
1.1547e-15
0.000476541
0.000240686
0.00012759
8.3152e-05
5.83465e-05
3.74128e-05
2.31718e-05
1.4426e-05
8.6141e-06
4.04675e-06
5.06235e-07
3.07533e-05
2.92744e-05
2.79643e-05
2.69526e-05
2.63509e-05
2.59793e-05
2.59151e-05
2.61075e-05
2.65275e-05
2.71105e-05
2.78492e-05
2.87159e-05
2.95019e-05
2.99858e-05
3.0325e-05
3.0653e-05
3.09607e-05
3.12451e-05
3.1499e-05
3.1721e-05
3.18984e-05
3.21368e-05
3.31463e-05
1.8199e-06
2.40802e-05
5.67161e-05
9.12625e-05
0.000107231
0.000370159
0.000362478
0.000347169
0.000340478
0.000335158
0.000331084
0.00032801
0.000325352
0.000323391
0.000322083
0.000321162
0.000320539
0.000320239
0.000320107
0.000319859
0.000319652
0.000319663
0.000319909
0.000320324
0.000320853
0.000323205
0.000334545
0.000350843
0.000363684
0.000367707
0.000356972
0.000322578
0.00012502
2.15112e-06
1.71929e-07
1.1547e-15
1.1547e-15
1.1547e-15
1.1547e-15
1.1547e-15
1.1547e-15
1.1547e-15
1.1547e-15
1.1547e-15
0.000108232
4.55433e-05
1.95863e-05
1.27753e-05
9.11757e-06
5.98824e-06
3.72077e-06
2.2662e-06
1.31932e-06
6.05148e-07
7.27169e-08
1.18887e-15
1.18817e-15
1.18744e-15
1.18667e-15
1.18582e-15
1.18487e-15
1.18381e-15
1.18261e-15
1.18126e-15
1.17973e-15
1.17802e-15
1.17613e-15
1.1741e-15
1.172e-15
1.16987e-15
1.16776e-15
1.16571e-15
1.1638e-15
1.16206e-15
1.16049e-15
1.15912e-15
1.15798e-15
1.15705e-15
3.5755e-07
4.82769e-06
1.16811e-05
1.83866e-06
3.78056e-05
2.90055e-05
4.43124e-05
2.89863e-05
2.121e-05
1.64398e-05
1.31801e-05
1.06896e-05
8.56351e-06
6.80365e-06
5.43056e-06
4.3996e-06
3.66114e-06
3.29943e-06
3.33516e-06
3.60278e-06
4.16317e-06
5.18255e-06
6.69437e-06
8.72763e-06
1.10473e-05
1.35195e-05
2.55747e-05
5.66574e-05
9.87987e-05
0.000143199
0.000184808
0.000220833
0.000173991
1.12372e-05
9.24896e-07
1.1547e-15
1.1547e-15
1.1547e-15
1.1547e-15
1.1547e-15
1.1547e-15
1.1547e-15
1.1547e-15
1.1547e-15
1.82026e-05
1.19203e-15
1.93928e-06
2.22233e-06
3.29316e-06
4.79254e-06
5.84956e-06
6.38348e-06
6.6667e-06
6.82718e-06
6.76584e-06
6.60436e-06
6.45646e-06
6.27318e-06
6.11905e-06
6.03901e-06
6.00152e-06
6.03225e-06
6.13035e-06
6.35631e-06
6.5061e-06
6.62156e-06
6.80705e-06
6.99849e-06
7.12419e-06
7.22028e-06
7.32345e-06
7.42614e-06
7.52385e-06
7.61177e-06
7.68728e-06
7.74864e-06
7.79752e-06
7.8274e-06
7.26204e-06
6.03709e-06
3.63379e-06
1.33934e-06
7.90136e-06
4.08149e-06
6.30998e-06
4.40476e-06
3.08346e-06
2.40967e-06
1.95196e-06
1.54814e-06
1.23093e-06
9.69909e-07
7.61517e-07
6.12838e-07
5.06918e-07
4.54781e-07
4.60441e-07
4.9909e-07
5.80566e-07
7.29132e-07
9.51796e-07
1.25525e-06
1.60781e-06
1.98982e-06
3.79768e-06
8.47449e-06
1.48385e-05
2.31948e-05
1.48969e-05
6.11167e-05
0.000113091
2.79165e-05
2.47048e-06
1.1547e-15
1.1547e-15
1.1547e-15
1.1547e-15
1.1547e-15
1.1547e-15
1.1547e-15
1.1547e-15
1.1547e-15
9.51342e-06
2.8773e-05
1.25611e-05
1.43982e-05
2.09967e-05
2.9858e-05
3.63681e-05
4.06371e-05
4.36156e-05
4.58499e-05
4.74615e-05
4.85879e-05
4.94072e-05
5.00044e-05
5.04384e-05
5.07669e-05
5.10237e-05
5.12254e-05
5.13878e-05
5.20497e-05
5.16402e-05
5.0559e-05
4.96946e-05
4.89955e-05
4.84273e-05
4.79361e-05
4.74723e-05
4.70038e-05
4.65078e-05
4.59682e-05
4.53731e-05
4.47211e-05
4.40289e-05
4.32625e-05
3.93084e-05
3.20143e-05
1.8889e-05
4.89062e-06
1.52056e-05
2.3793e-05
1.34623e-05
1.37039e-05
1.33405e-05
1.40379e-05
1.49383e-05
1.53113e-05
1.58177e-05
1.62175e-05
1.63766e-05
1.66094e-05
1.67783e-05
1.69053e-05
1.7083e-05
1.72421e-05
1.74132e-05
1.75821e-05
1.77402e-05
1.78746e-05
1.7976e-05
1.80266e-05
1.78553e-05
1.65077e-05
1.41295e-05
1.11467e-05
1.02762e-05
1.59975e-05
1.16236e-05
2.47547e-05
6.44005e-07
5.35565e-08
1.1547e-15
1.1547e-15
1.1547e-15
1.1547e-15
1.1547e-15
1.1547e-15
1.1547e-15
1.1547e-15
6.8341e-05
0.00019647
0.000197836
0.000184764
0.00018672
0.000191189
0.000194616
0.000196435
0.000197358
0.000197869
0.00019806
0.000197954
0.000197694
0.000197328
0.000196863
0.000196355
0.000195809
0.000195212
0.00019456
0.00019607
0.00019432
0.000190324
0.000189345
0.00018822
0.00018693
0.000185468
0.000183817
0.000181975
0.000179945
0.000177722
0.000175302
0.000172697
0.000170001
0.000164078
0.000156574
0.000147654
0.000130245
0.000105556
7.61009e-05
0.000115691
9.4497e-05
9.00906e-05
9.17373e-05
9.5761e-05
0.000100868
0.00010581
0.000110205
0.000114033
0.000117214
0.000119829
0.00012196
0.00012365
0.000124957
0.000125923
0.000126568
0.000126915
0.000126976
0.000126753
0.000126264
0.000125562
0.000123665
0.000113954
9.76123e-05
7.6517e-05
5.38456e-05
3.45497e-05
2.29372e-05
3.2338e-05
7.21251e-06
1.03046e-06
1.1547e-15
1.1547e-15
1.1547e-15
1.1547e-15
1.1547e-15
1.1547e-15
1.1547e-15
1.1547e-15
0.000317576
0.000339001
0.000306597
0.000284798
0.000272007
0.000264493
0.000259363
0.000255113
0.000251344
0.000248062
0.000245361
0.000243071
0.000241036
0.000239238
0.000237618
0.000236088
0.000234623
0.00023318
0.000231705
0.000230161
0.000229205
0.000227925
0.000226335
0.000224441
0.000222316
0.000220026
0.000217581
0.000214986
0.000212253
0.000209371
0.000206357
0.000203199
0.000199865
0.000197057
0.00019359
0.000188067
0.00017921
0.000162809
0.000134782
0.000339263
0.000304049
0.000295916
0.000294511
0.000295474
0.00029704
0.000298518
0.000299452
0.000300023
0.000300292
0.000300254
0.000300003
0.000299559
0.000298918
0.000298104
0.000297118
0.000295962
0.000294622
0.000293073
0.000291321
0.000289536
0.00028871
0.000280167
0.00026243
0.000235829
0.00020818
0.000178338
0.000142809
0.000113569
4.8362e-05
2.52932e-06
2.4116e-07
1.1547e-15
1.1547e-15
1.1547e-15
1.1547e-15
1.1547e-15
1.1547e-15
1.1547e-15
0.000335637
0.000163042
0.000134167
0.00013049
0.000118776
0.000108995
0.000101877
9.65761e-05
9.22685e-05
8.87183e-05
8.5889e-05
8.36478e-05
8.18072e-05
8.02803e-05
7.89935e-05
7.78662e-05
7.68449e-05
7.58991e-05
7.4991e-05
7.40944e-05
7.31837e-05
7.22499e-05
7.12678e-05
7.02268e-05
6.91627e-05
6.81091e-05
6.70814e-05
6.60634e-05
6.50572e-05
6.40667e-05
6.3085e-05
6.21063e-05
6.09833e-05
6.03114e-05
6.47985e-05
7.43365e-05
8.76149e-05
0.000100909
0.000102399
0.000279424
0.00027454
0.000267408
0.00025883
0.000252209
0.000246127
0.000240986
0.000236258
0.000232022
0.000228378
0.000225154
0.000222314
0.000219815
0.000217575
0.000215569
0.000213772
0.00021215
0.000210688
0.000209374
0.000208166
0.000207022