/*--------------------------------*- C++ -*----------------------------------*\
| =========                 |                                                 |
| \\      /  F ield         | OpenFOAM: The Open Source CFD Toolbox           |
|  \\    /   O peration     | Version:  2312                                  |
|   \\  /    A nd           | Website:  www.openfoam.com                      |
|    \\/     M anipulation  |                                                 |
\*---------------------------------------------------------------------------*/
FoamFile
{
    version     2.0;
    format      ascii;
    arch        "LSB;label=32;scalar=64";
    class       volScalarField;
    location    "300";
    object      omega;
}
// * * * * * * * * * * * * * * * * * * * * * * * * * * * * * * * * * * * * * //

dimensions      [0 0 -1 0 0 0 0];

internalField   nonuniform List<scalar> 
10720
(
36.5747
51.0766
61.3398
65.4577
63.3815
59.9537
57.262
55.4328
55.1702
56.3896
58.816
62.1834
66.1984
70.637
76.9333
89.3849
116.012
178.06
324.233
445.731
468.095
434.206
394.866
366.294
355.676
340.795
183.116
241.712
601.951
710.639
735.317
854.45
889.568
783.746
665.583
515.605
325.724
157.62
79.2012
23.2658
12.3618
9.29024
47.8687
15.7093
19.7153
24.5547
28.4443
31.2287
33.5826
36.3678
39.6349
43.0689
46.9968
55.1107
73.817
119.619
232.231
318.307
348.373
349.752
343.818
342.874
358.435
390.267
439.902
504.533
572.347
627.11
657.705
656.015
624.243
572.056
510.456
449.661
394.146
348.188
317.257
287.26
19.4529
22.1321
18.013
14.2436
10.6957
7.97762
6.21347
5.04292
4.26734
3.72808
3.32749
3.02358
2.77664
2.56685
2.39718
2.27135
2.21457
2.05482
2.94977
10.6313
28.4273
47.5439
66.2187
89.0881
120.957
169.036
201.99
380.211
369.257
161.803
124.76
181.377
187.36
188.182
226.63
222.869
165.405
89.2956
63.6195
7.6627
1.18905
0.980586
7.61532
3.93731
3.28152
3.17403
3.06039
2.98271
2.92877
2.85235
2.7443
2.59468
2.40294
2.14264
1.78353
1.26202
0.609762
0.00558066
67.7856
69.724
1.1334
5.32455
304.728
238.702
216.132
174.949
157.28
159.974
143.6
147.966
149.405
148.083
142.696
135.275
125.794
114.613
101.789
112.564
3.74887
4.10032
4.01758
3.95485
3.92292
3.91799
3.94512
3.9917
4.05071
4.11742
4.18931
4.26314
4.33638
4.40712
4.47887
4.55536
4.63388
4.70783
4.93965
4.51757
1.26541
10.1293
13.5069
18.4527
26.825
31.5223
93.0967
242.73
357.221
324.379
206.945
150
201.84
267.718
294.571
261.362
176.873
98.9473
37.4338
4.48043
3.51804
3.80778
4.27698
4.21274
4.1175
4.05459
4.03143
4.05426
4.11127
4.19047
4.28104
4.37722
4.47487
4.57485
4.67966
4.79121
4.91187
5.04544
5.19567
5.36494
5.55629
5.77463
6.03461
5.53618
5.39757
5.68459
6.47353
7.29953
7.26789
7.39594
9.23719
10.7445
11.8577
12.4327
12.1904
10.3175
3.6226
12.2252
4.06313
4.05678
4.02915
4.02584
4.01219
4.00364
4.00014
3.99808
4.00046
4.00915
4.02497
4.04788
4.07755
4.11424
4.15911
4.21369
4.27802
4.34993
4.43284
4.54199
4.31419
3.05454
0.226326
0.651444
0.0918083
2.32723e+06
5.15261e+07
3.34031e+07
1.31915e+07
3.51895e+06
319340
6009
136.615
119.158
132.79
116.2
87.435
66.5187
22.1935
4.19181
3.88065
3.87981
3.88735
3.886
3.90028
3.91243
3.92786
3.94638
3.96862
3.99584
4.02898
4.06903
4.11674
4.17205
4.23551
4.30802
4.39083
4.48584
4.59311
4.6926
4.7861
4.87928
4.97711
5.08601
5.21028
5.33959
5.4754
5.61794
5.75327
5.85434
5.94166
6.03175
6.11905
6.20703
6.25952
5.89441
4.30015
1.04376
3.86472
3.86639
3.87698
3.89098
3.90158
3.92353
3.94514
3.96839
3.99485
4.02417
4.05642
4.09211
4.13181
4.17645
4.22755
4.28722
4.35575
4.43244
4.51869
4.61746
4.73146
4.76298
4.45803
3.27037
0.461565
1.13751e+06
4.78639e+11
2.06332e+11
7.41879e+10
2.13788e+10
4.78081e+09
4.71568e+08
17858.1
1.06042e+07
50.7122
49.2599
60.6149
55.4142
23.6597
3.9011
3.90951
3.94108
3.90695
3.91139
3.92753
3.95072
3.97981
4.01266
4.04882
4.08893
4.13335
4.18239
4.23669
4.29673
4.36356
4.4383
4.5225
4.61749
4.70325
4.77531
4.83884
4.89729
4.95079
4.99996
5.05067
5.09576
5.12735
5.13943
5.14138
5.13181
5.10616
5.0642
4.99764
4.91661
4.80947
4.65497
4.46595
0.315751
3.82962
3.83777
3.87051
3.896
3.92363
3.9462
3.96487
3.98459
4.00687
4.03245
4.06191
4.09592
4.13514
4.18038
4.23276
4.29389
4.36401
4.44256
4.5319
4.63577
4.75649
4.8921
4.99515
4.94857
4.33075
1.07798e+06
2.17148e+11
2.1102e+11
1.25119e+11
5.18666e+10
1.67381e+10
4.16154e+09
8.38022e+08
2.17882e+08
9.04942e+07
1.13923e+07
721450
211098
30402.4
3.83527
3.92663
3.89875
3.90825
3.92483
3.94125
3.96057
3.98563
4.01656
4.05267
4.09367
4.13915
4.18893
4.24352
4.30347
4.36997
4.44435
4.52813
4.61741
4.68906
4.74846
4.80029
4.84769
4.89102
4.93594
4.98222
5.01727
5.0417
5.05025
5.03447
5.00125
4.95551
4.90546
4.84938
4.79913
4.75424
4.74785
4.87109
2.87761
3.81176
3.83619
3.86851
3.89241
3.91239
3.92411
3.93677
3.95242
3.97214
3.99695
4.02707
4.0625
4.10334
4.1503
4.20453
4.26749
4.33961
4.42075
4.51379
4.62424
4.7519
4.88303
4.99715
5.09794
5.10948
717730
9.58668e+10
1.57925e+11
1.37537e+11
7.81379e+10
3.32796e+10
1.18443e+10
4.22373e+09
1.67184e+09
1.04378e+09
3.3405e+08
7.10631e+07
2.97706e+07
6.08664e+06
3.87875
3.91196
3.8756
3.89876
3.90791
3.91703
3.93227
3.95587
3.98634
4.02193
4.06189
4.10568
4.15335
4.20578
4.26381
4.32882
4.40215
4.48512
4.55987
4.61955
4.66858
4.71107
4.7498
4.78794
4.83068
4.87172
4.89851
4.91541
4.91756
4.89975
4.86359
4.80987
4.74433
4.66418
4.58062
4.49221
4.43127
4.47272
3.91363
3.79945
3.82893
3.84234
3.85992
3.86721
3.8724
3.88212
3.89639
3.91625
3.94185
3.97244
4.00758
4.04736
4.09302
4.1461
4.20801
4.27947
4.361
4.45566
4.5693
4.70026
4.81531
4.92526
5.0336
5.12328
343453
4.12494e+10
1.02345e+11
1.23265e+11
9.26321e+10
5.01144e+10
2.26732e+10
1.04497e+10
5.72468e+09
3.68283e+09
1.77522e+09
6.56313e+08
2.88729e+08
7.53811e+07
3.8695
3.84289
3.85145
3.85885
3.85571
3.85922
3.87246
3.89467
3.92261
3.95467
3.99083
4.03091
4.07518
4.12458
4.17994
4.24251
4.31347
4.39201
4.4529
4.50112
4.54055
4.57466
4.6065
4.64368
4.6838
4.71621
4.73743
4.7489
4.7457
4.72674
4.69274
4.6433
4.582
4.5047
4.4198
4.32353
4.23819
4.17563
4.06918
3.79794
3.80002
3.80598
3.81247
3.81127
3.81415
3.82286
3.837
3.85666
3.88096
3.90896
3.94055
3.97635
4.01829
4.06827
4.12732
4.19627
4.2762
4.37045
4.48317
4.58923
4.6933
4.80137
4.90775
5.00096
153727
1.73384e+10
6.02495e+10
9.66208e+10
9.35005e+10
6.29451e+10
3.46419e+10
1.89019e+10
1.16196e+10
8.05228e+09
4.74136e+09
2.19759e+09
1.09406e+09
3.91263e+08
3.80773
3.7869
3.80891
3.79555
3.78742
3.78992
3.8019
3.82121
3.84513
3.87313
3.90586
3.94318
3.98517
4.0325
4.08577
4.14601
4.21352
4.27627
4.32501
4.36367
4.39531
4.42302
4.45258
4.4879
4.52225
4.54872
4.56529
4.57217
4.56572
4.54617
4.5136
4.46815
4.41237
4.342
4.26366
4.17328
4.08735
3.98212
3.99487
3.75298
3.74538
3.75005
3.74601
3.74215
3.74344
3.75033
3.7621
3.7779
3.7971
3.81961
3.84598
3.87723
3.91555
3.96276
4.01924
4.08565
4.16354
4.25577
4.34823
4.4352
4.52874
4.62829
4.73108
4.8268
66287.6
7.12252e+09
3.307e+10
6.85002e+10
8.34274e+10
6.88495e+10
4.51542e+10
2.82263e+10
1.88903e+10
1.37501e+10
9.11986e+09
4.86121e+09
2.68067e+09
1.33386e+09
3.73175
3.74311
3.73832
3.71843
3.71128
3.71217
3.71994
3.73404
3.75337
3.7781
3.80868
3.84454
3.88531
3.93137
3.98305
4.04067
4.09926
4.14495
4.1811
4.21052
4.23536
4.25864
4.28746
4.31978
4.34664
4.36705
4.37831
4.38093
4.37209
4.35283
4.32224
4.2813
4.23174
4.16937
4.09943
4.01839
3.93966
3.82603
3.86935
3.67173
3.67105
3.66746
3.65797
3.65233
3.65068
3.65409
3.66116
3.67132
3.68519
3.7035
3.7269
3.7561
3.79306
3.83927
3.89445
3.95905
4.03414
4.11335
4.18343
4.25732
4.33839
4.42511
4.52102
4.6175
27697.4
2.85802e+09
1.71505e+10
4.47111e+10
6.72506e+10
6.7123e+10
5.18184e+10
3.65895e+10
2.63872e+10
1.99254e+10
1.41813e+10
8.31976e+09
4.97663e+09
3.05247e+09
3.66719
3.67602
3.64462
3.62568
3.61744
3.61471
3.6181
3.62861
3.64574
3.66933
3.69915
3.73414
3.77368
3.81809
3.86683
3.91643
3.95585
3.98746
4.0134
4.03563
4.05591
4.07846
4.10474
4.12988
4.1495
4.16276
4.16797
4.16643
4.1556
4.13725
4.10915
4.0735
4.03132
3.97841
3.91872
3.84919
3.78126
3.67481
3.73369
3.58903
3.59213
3.58007
3.56902
3.56153
3.55777
3.55838
3.5621
3.56959
3.58217
3.60054
3.62465
3.65454
3.69185
3.73793
3.79173
3.8524
3.91345
3.9705
4.02643
4.08631
4.14902
4.22048
4.30479
4.39592
11219.1
1.11951e+09
8.46848e+09
2.72209e+10
4.97095e+10
5.92161e+10
5.32743e+10
4.21821e+10
3.26795e+10
2.5896e+10
1.93168e+10
1.22084e+10
7.83204e+09
5.49183e+09
3.59809
3.5728
3.54351
3.53041
3.52231
3.51929
3.5232
3.5348
3.55304
3.57719
3.6066
3.64013
3.67735
3.71722
3.75596
3.78736
3.81318
3.83484
3.85369
3.87125
3.8894
3.90943
3.92933
3.94548
3.95588
3.96089
3.96022
3.95485
3.94219
3.92396
3.89803
3.86658
3.83037
3.78546
3.73475
3.67546
3.61758
3.52233
3.59442
3.52079
3.5247
3.51117
3.50014
3.49194
3.48712
3.48594
3.48862
3.49674
3.51114
3.5316
3.55721
3.58751
3.62339
3.66561
3.71114
3.75297
3.79355
3.83705
3.88006
3.9213
3.96613
4.0216
4.09221
4.17401
4402.81
4.27705e+08
3.99924e+09
1.55898e+10
3.40551e+10
4.78062e+10
4.9638e+10
4.38385e+10
3.64763e+10
3.01472e+10
2.36566e+10
1.61346e+10
1.11084e+10
8.49703e+09
3.51565
3.47328
3.46663
3.46055
3.45228
3.45043
3.45687
3.47056
3.4896
3.51304
3.53924
3.56694
3.59598
3.6215
3.64281
3.66113
3.67711
3.69125
3.70452
3.71832
3.73261
3.74559
3.75602
3.76279
3.76507
3.76389
3.75914
3.75138
3.73815
3.71954
3.6957
3.6676
3.63601
3.59731
3.55369
3.50263
3.45259
3.36851
3.44946
3.46186
3.46382
3.45079
3.4382
3.42855
3.42184
3.4185
3.41988
3.42732
3.44064
3.45883
3.48041
3.50445
3.52949
3.55556
3.58062
3.60458
3.63113
3.66099
3.69
3.72007
3.75598
3.80334
3.86609
3.94174
1673.41
1.59187e+08
1.81132e+09
8.44625e+09
2.17925e+10
3.56322e+10
4.23001e+10
4.14657e+10
3.70552e+10
3.19322e+10
2.63718e+10
1.9476e+10
1.22816e+10
9.78857e+09
3.43485
3.40469
3.41298
3.4077
3.39792
3.39325
3.39622
3.40517
3.418
3.43385
3.44976
3.4646
3.47822
3.49064
3.502
3.51265
3.52268
3.53204
3.542
3.55216
3.56057
3.56721
3.57227
3.57482
3.57395
3.57059
3.56461
3.5564
3.54381
3.52593
3.50501
3.47942
3.45122
3.4172
3.37907
3.3345
3.29029
3.21675
3.29846
3.38975
3.37988
3.36385
3.34932
3.33933
3.33189
3.32767
3.32851
3.33437
3.34411
3.35644
3.36923
3.38097
3.39292
3.40715
3.42149
3.43468
3.44982
3.4685
3.4875
3.50831
3.53695
3.57782
3.6338
3.70321
616.3
5.76295e+07
7.87898e+08
4.34495e+09
1.30999e+10
2.4693e+10
3.32234e+10
3.59743e+10
3.45084e+10
3.11008e+10
2.69152e+10
1.68653e+10
1.44393e+09
8.31783e+07
3.3568
3.3444
3.34756
3.33245
3.3204
3.31347
3.31276
3.31588
3.32109
3.32768
3.33503
3.34239
3.34924
3.35555
3.36151
3.36765
3.37395
3.37998
3.38577
3.39157
3.39698
3.40157
3.40512
3.40661
3.40497
3.40098
3.39462
3.38632
3.37431
3.35736
3.33792
3.31368
3.28737
3.25623
3.22163
3.18136
3.14053
3.0755
3.14796
3.29563
3.27841
3.26223
3.24894
3.24072
3.23458
3.23285
3.23665
3.2431
3.25002
3.25661
3.26178
3.26521
3.26884
3.27473
3.28121
3.28719
3.29541
3.30713
3.31915
3.33105
3.34891
3.37804
3.42175
3.47921
220.516
2.02569e+07
3.29276e+08
2.12706e+09
7.4266e+09
1.59986e+10
2.42084e+10
2.88158e+10
2.96419e+10
2.80076e+10
2.49226e+10
2.17642e+08
1286.29
25.1626
3.27003
3.26446
3.25862
3.24014
3.22981
3.22634
3.22706
3.22904
3.23138
3.23413
3.23703
3.23975
3.24213
3.24427
3.24645
3.24889
3.25166
3.25475
3.25818
3.26188
3.26534
3.26805
3.26978
3.2696
3.26653
3.26132
3.25398
3.24493
3.23256
3.21554
3.19661
3.17309
3.14772
3.11824
3.08573
3.04809
3.00897
2.94987
3.00706
3.20632
3.19641
3.18415
3.17301
3.16646
3.16368
3.16464
3.16822
3.17126
3.17238
3.17193
3.17008
3.16727
3.16564
3.16699
3.16919
3.17062
3.1738
3.17997
3.18635
3.19142
3.19989
3.2167
3.24574
3.28732
77.434
6.898e+06
1.32163e+08
9.92191e+08
3.98139e+09
9.73116e+09
1.64528e+10
2.14395e+10
2.36176e+10
2.34223e+10
8.98365e+09
4867.59
23.0893
5.96356
3.19238
3.18343
3.17432
3.16221
3.15698
3.15595
3.15619
3.156
3.15546
3.15515
3.15501
3.1548
3.15446
3.15411
3.15397
3.1542
3.15467
3.15528
3.15602
3.15685
3.15739
3.1572
3.15618
3.15363
3.14861
3.14174
3.13307
3.12283
3.10974
3.09231
3.07273
3.04956
3.02495
2.99702
2.96646
2.93126
2.89384
2.83962
2.88179
3.14717
3.14418
3.13166
3.11973
3.11282
3.10958
3.10819
3.1068
3.10334
3.09787
3.09174
3.08552
3.07958
3.07553
3.0746
3.07431
3.07266
3.07197
3.07367
3.07534
3.07523
3.07759
3.08597
3.10343
3.13068
27.5331
2.27074e+06
5.09045e+07
4.41246e+08
2.02184e+09
5.57387e+09
1.04744e+10
1.48933e+10
1.75503e+10
1.82817e+10
1.07106e+10
34630.3
28.4599
36.9621
3.13776
3.11849
3.10944
3.10221
3.09818
3.09553
3.09267
3.08909
3.08543
3.08242
3.07993
3.07764
3.07548
3.07347
3.07172
3.07022
3.06881
3.06729
3.06566
3.06393
3.06183
3.05904
3.05555
3.05087
3.04414
3.03581
3.02593
3.01457
3.00084
2.98325
2.96257
2.93908
2.91461
2.88769
2.85871
2.82576
2.79032
2.74093
2.77118
3.10672
3.10397
3.08869
3.07485
3.06616
3.0596
3.05305
3.04544
3.03616
3.02628
3.0173
3.00948
3.00265
2.99783
2.99575
2.99377
2.98974
2.98591
2.98396
2.98172
2.97725
2.97506
2.9777
2.98709
3.00366
10.7349
721151
1.87971e+07
1.87117e+08
9.73791e+08
3.01361e+09
6.26835e+09
9.7025e+09
1.22258e+10
1.33986e+10
9.9178e+09
154388
5112.97
9.63962
3.09186
3.06402
3.05718
3.05102
3.04574
3.04018
3.03401
3.02743
3.02121
3.01594
3.01144
3.00734
3.00355
3.00005
2.99682
2.99381
2.99077
2.98754
2.98408
2.98042
2.97638
2.97167
2.96633
2.95997
2.95182
2.94228
2.93142
2.9191
2.90477
2.88705
2.86581
2.84205
2.81724
2.79056
2.76224
2.73062
2.69653
2.65109
2.67172
3.06928
3.06343
3.04602
3.03049
3.01936
3.00863
2.99719
2.98529
2.97314
2.96188
2.95253
2.94477
2.93792
2.9326
2.92933
2.92563
2.91937
2.91281
2.90785
2.90245
2.89438
2.88853
2.88691
2.89056
2.89954
5.25663
220614
6.65027e+06
7.56768e+07
4.45225e+08
1.54099e+09
3.53676e+09
5.95078e+09
8.02066e+09
9.26762e+09
8.16277e+09
526041
0.448089
5.92249
3.04349
3.01393
3.01025
3.00386
2.99676
2.989
2.98086
2.97256
2.96474
2.95783
2.95161
2.94582
2.94038
2.93526
2.93042
2.92581
2.92121
2.91647
2.91157
2.90653
2.90115
2.89513
2.88847
2.88085
2.87155
2.86094
2.84912
2.83588
2.8209
2.80287
2.78135
2.75761
2.73246
2.70575
2.67758
2.64655
2.61303
2.57021
2.58223
3.02665
3.01802
3.00012
2.98345
2.97007
2.95639
2.94256
2.92955
2.91749
2.907
2.89846
2.89107
2.88396
2.87762
2.87265
2.86691
2.85849
2.84957
2.84216
2.83436
2.8238
2.81504
2.81004
2.80933
2.81279
3.50386
64935.1
2.25333e+06
2.91977e+07
1.93437e+08
7.466e+08
1.88648e+09
3.44807e+09
4.97545e+09
6.07743e+09
6.03629e+09
1.44363e+06
33.0336
16.4351
2.99172
2.96572
2.96428
2.95734
2.94935
2.94119
2.93286
2.92426
2.91586
2.90798
2.90048
2.89324
2.88624
2.87948
2.873
2.86678
2.86067
2.85457
2.84848
2.8424
2.83609
2.82914
2.82146
2.81278
2.80242
2.79072
2.77785
2.76359
2.74776
2.72932
2.70757
2.68364
2.65809
2.63123
2.60303
2.57234
2.53912
2.49813
2.50238
2.97893
2.96999
2.95258
2.93511
2.92031
2.90581
2.89226
2.88049
2.87003
2.8609
2.85304
2.8455
2.83746
2.82951
2.82243
2.81453
2.80415
2.79334
2.78408
2.77449
2.76223
2.7513
2.7437
2.73967
2.73901
2.93257
18374.3
730886
1.07498e+07
7.99357e+07
3.43324e+08
9.53665e+08
1.89351e+09
2.9295e+09
3.79444e+09
4.13499e+09
3.38206e+06
113.149
7.74846
2.9402
2.91876
2.91793
2.91086
2.90341
2.89643
2.88912
2.88107
2.87273
2.86442
2.85607
2.84771
2.83944
2.83129
2.82339
2.81576
2.80834
2.80107
2.79397
2.787
2.77991
2.77218
2.7636
2.75387
2.74239
2.72948
2.71542
2.70001
2.68316
2.66417
2.64222
2.61787
2.59178
2.56464
2.53632
2.50587
2.47292
2.43346
2.43109
2.93099
2.92385
2.90682
2.88869
2.87352
2.85991
2.84806
2.83814
2.82919
2.82082
2.81285
2.80439
2.79487
2.78506
2.77585
2.766
2.75403
2.7418
2.73118
2.72027
2.70675
2.69421
2.68473
2.67832
2.67469
2.72451
4994.02
226922
3.77848e+06
3.14559e+07
1.50077e+08
4.57942e+08
9.88306e+08
1.64312e+09
2.26417e+09
2.66739e+09
6.99439e+06
1226.76
45.0658
2.8929
2.87395
2.87258
2.86616
2.86027
2.85505
2.84897
2.84154
2.83333
2.82471
2.81572
2.80653
2.79729
2.78811
2.77915
2.77047
2.76203
2.75382
2.74585
2.73808
2.73021
2.72167
2.71211
2.70126
2.68859
2.67437
2.65901
2.64234
2.62438
2.60469
2.58245
2.55755
2.53094
2.50357
2.4752
2.44504
2.41247
2.37449
2.36689
2.88725
2.88231
2.86504
2.84646
2.83174
2.81962
2.80939
2.80063
2.79214
2.78349
2.77452
2.76461
2.75348
2.74197
2.73102
2.71963
2.70649
2.69324
2.68162
2.66969
2.65517
2.64136
2.6305
2.62249
2.61687
2.62617
1303.63
67447.5
1.2682e+06
1.17973e+07
6.24373e+07
2.0934e+08
4.91492e+08
8.80373e+08
1.29501e+09
1.63959e+09
1.30618e+07
7020.83
268.448
2.85133
2.83232
2.83037
2.82528
2.82117
2.81728
2.81184
2.80452
2.79603
2.78685
2.77713
2.76714
2.7571
2.74716
2.73747
2.72809
2.71894
2.71
2.70129
2.69274
2.68404
2.67457
2.66392
2.65186
2.63794
2.62242
2.60575
2.58783
2.56877
2.54831
2.52568
2.5005
2.47355
2.44603
2.4177
2.38792
2.35589
2.31945
2.30811
2.84896
2.8453
2.82732
2.80862
2.79466
2.78359
2.774
2.7652
2.75601
2.74614
2.73565
2.7242
2.71174
2.69904
2.68689
2.67443
2.66047
2.64646
2.63399
2.62119
2.60582
2.59091
2.57893
2.5698
2.5629
2.56094
327.525
19185.7
406585
4.21801e+06
2.47521e+07
9.12059e+07
2.33352e+08
4.51636e+08
7.1171e+08
9.67172e+08
2.22684e+07
33133.1
1329.07
2.8145
2.79417
2.79231
2.7888
2.78597
2.78252
2.77684
2.76888
2.75952
2.74934
2.7386
2.72766
2.71683
2.70624
2.69601
2.68614
2.67649
2.66699
2.65763
2.64832
2.63873
2.62825
2.61645
2.60314
2.58802
2.57131
2.5535
2.53449
2.51444
2.49327
2.47027
2.44505
2.41784
2.39027
2.36207
2.33277
2.30144
2.26664
2.25289
2.81466
2.81103
2.79225
2.77365
2.76016
2.74922
2.73918
2.7293
2.71864
2.70715
2.69509
2.68239
2.66907
2.65574
2.64292
2.62976
2.61519
2.60051
2.58724
2.57363
2.55749
2.54155
2.52853
2.51849
2.51075
2.50568
80.2073
5222.14
124526
1.43911e+06
9.35464e+06
3.79241e+07
1.05898e+08
2.2207e+08
3.76434e+08
5.49573e+08
3.44401e+07
135274
36.0156
2.78023
2.75882
2.75767
2.75549
2.75315
2.7492
2.74248
2.73328
2.72259
2.71104
2.699
2.68696
2.67526
2.664
2.65329
2.64301
2.63297
2.62302
2.61308
2.60304
2.59256
2.58107
2.56813
2.55367
2.53749
2.51981
2.50112
2.48132
2.46052
2.43879
2.41551
2.39031
2.3631
2.33548
2.30746
2.27865
2.24809
2.21491
2.19975
2.78191
2.77736
2.75793
2.73938
2.72575
2.71404
2.70276
2.69131
2.679
2.66598
2.65267
2.63914
2.62542
2.61187
2.59873
2.5851
2.57
2.55467
2.54057
2.52617
2.50935
2.49246
2.47843
2.46752
2.45909
2.4531
20.2075
1360.9
36443.1
468939
3.37374e+06
1.50547e+07
4.59699e+07
1.04766e+08
1.91693e+08
3.01387e+08
4.68447e+07
469685
448.387
2.74638
2.72491
2.72457
2.72311
2.72046
2.71538
2.70715
2.69637
2.68413
2.67106
2.65764
2.64444
2.63183
2.6199
2.6087
2.59804
2.58763
2.57728
2.56682
2.5561
2.5448
2.53239
2.51847
2.50303
2.48604
2.4677
2.44845
2.42818
2.40693
2.38485
2.36141
2.33632
2.30925
2.28155
2.25366
2.22524
2.19539
2.16363
2.14763
2.74854
2.7428
2.72291
2.70405
2.68964
2.6766
2.66379
2.65083
2.63715
2.62301
2.60887
2.59485
2.58096
2.56739
2.55407
2.54004
2.52442
2.5084
2.49345
2.47829
2.46095
2.44326
2.42828
2.41649
2.40739
2.40095
6.27508
340.345
10199
146012
1.16222e+06
5.71308e+06
1.90999e+07
4.74371e+07
9.40162e+07
1.59597e+08
5.31527e+07
1.31636e+06
2854.2
2.71167
2.69098
2.69097
2.68951
2.68597
2.67942
2.66955
2.65718
2.64342
2.62892
2.61424
2.60001
2.58657
2.57401
2.56233
2.55129
2.54055
2.52982
2.5189
2.50761
2.49562
2.48247
2.46777
2.45162
2.43411
2.41541
2.39592
2.37551
2.35411
2.33192
2.30843
2.28351
2.25662
2.22887
2.20106
2.17291
2.14359
2.11291
2.09618
2.71357
2.70689
2.68656
2.6669
2.65123
2.63671
2.62252
2.60843
2.59387
2.57907
2.56443
2.55007
2.53604
2.52238
2.50884
2.49439
2.47823
2.46151
2.44572
2.42989
2.41217
2.39388
2.37811
2.36547
2.35566
2.34875
3.15178
82.79
2732.28
43502.1
383001
2.07444e+06
7.60566e+06
2.06206e+07
4.44114e+07
8.1622e+07
4.85973e+07
2.85333e+06
13406.2
2.67575
2.65585
2.65545
2.65329
2.64851
2.6405
2.62915
2.61538
2.60034
2.58469
2.56902
2.55401
2.53996
2.52689
2.5148
2.50341
2.49234
2.48129
2.46999
2.45824
2.44576
2.43209
2.4169
2.40033
2.38256
2.36378
2.34434
2.32405
2.30274
2.28063
2.25725
2.23253
2.20592
2.1782
2.15047
2.12248
2.09354
2.06358
2.04592
2.67715
2.66998
2.64898
2.62805
2.61094
2.59512
2.57992
2.56516
2.55018
2.53504
2.52005
2.50534
2.491
2.47706
2.46314
2.44819
2.43148
2.41407
2.39748
2.38107
2.36317
2.34454
2.32817
2.31479
2.30426
2.29678
2.45107
20.6112
702.503
12422
120920
721862
2.90581e+06
8.6179e+06
2.02158e+07
4.03304e+07
3.64996e+07
4.76779e+06
48009.7
2.63885
2.61889
2.6174
2.61409
2.60805
2.59884
2.58634
2.57151
2.55554
2.53909
2.52278
2.50728
2.49283
2.47943
2.46703
2.45534
2.44399
2.43265
2.42105
2.40899
2.3962
2.38226
2.36686
2.35014
2.33236
2.31372
2.2945
2.27451
2.25346
2.2316
2.20842
2.18396
2.15773
2.13012
2.10251
2.07459
2.04591
2.01635
1.99757
2.63987
2.63246
2.61047
2.58801
2.56955
2.55277
2.53696
2.5219
2.50677
2.49146
2.47612
2.46089
2.44601
2.43153
2.41706
2.40156
2.38431
2.36629
2.349
2.3321
2.31415
2.29539
2.27866
2.2647
2.25354
2.24542
2.26868
6.23024
174.41
3406.35
36663.1
241354
1.06746e+06
3.46711e+06
8.87866e+06
1.92703e+07
2.35781e+07
6.22203e+06
133169
2.60108
2.57996
2.57705
2.57253
2.56553
2.55554
2.5423
2.52675
2.51018
2.49327
2.47659
2.46084
2.44619
2.43258
2.41994
2.408
2.39639
2.3848
2.373
2.36077
2.34786
2.33388
2.3185
2.30185
2.28425
2.26588
2.24699
2.22736
2.20666
2.1851
2.1622
2.13804
2.11225
2.08483
2.05733
2.02948
2.00096
1.97159
1.95164
2.60202
2.59438
2.57112
2.54713
2.52764
2.51026
2.49413
2.47895
2.46378
2.4483
2.43254
2.41666
2.40103
2.38584
2.37071
2.35465
2.33693
2.3184
2.30051
2.28319
2.26527
2.24654
2.22966
2.21532
2.20365
2.19492
2.19263
3.01568
42.8229
899.237
10697.4
77681.4
377914
1.34568e+06
3.76825e+06
8.91365e+06
1.36637e+07
6.43184e+06
288530
2.56217
2.53923
2.53515
2.52979
2.52231
2.51195
2.49831
2.48233
2.46541
2.44822
2.43133
2.41542
2.40063
2.38686
2.37401
2.36184
2.34998
2.3382
2.32626
2.31398
2.30111
2.28727
2.27211
2.2557
2.23839
2.22035
2.2018
2.18254
2.1622
2.14095
2.11836
2.0945
2.06915
2.04197
2.01464
1.9869
1.95859
1.92935
1.90832
2.56335
2.55533
2.53071
2.50549
2.48536
2.46765
2.45132
2.43606
2.42081
2.40512
2.38888
2.37228
2.35584
2.33987
2.32409
2.30754
2.28947
2.27057
2.25218
2.23448
2.21659
2.19794
2.18106
2.16653
2.1545
2.14524
2.13795
2.29707
11.3373
229.698
3009.11
24133.2
129204
505005
1.54848e+06
3.99833e+06
7.31976e+06
5.42265e+06
496289
2.52168
2.49701
2.49246
2.48687
2.47937
2.46897
2.45515
2.43893
2.42175
2.40433
2.38724
2.37114
2.35616
2.34218
2.32911
2.31669
2.30462
2.29269
2.2807
2.26847
2.25577
2.2422
2.22739
2.21133
2.19436
2.17668
2.15844
2.1395
2.11947
2.09852
2.07623
2.05268
2.02773
2.00086
1.97378
1.94625
1.91824
1.88926
1.86736
2.5233
2.51474
2.48894
2.46291
2.4425
2.42462
2.40812
2.3927
2.37727
2.3613
2.3446
2.32734
2.31016
2.29348
2.27713
2.26022
2.24196
2.22282
2.20405
2.186
2.16809
2.1495
2.1327
2.11811
2.10585
2.09615
2.08774
2.11218
4.08051
57.6665
817.864
7245.55
42744
183606
617209
1.74171e+06
3.69797e+06
3.88685e+06
692482
2.47925
2.45357
2.44942
2.44416
2.43698
2.42669
2.4128
2.39639
2.37898
2.36128
2.34389
2.32749
2.31222
2.29796
2.28463
2.27199
2.25975
2.24775
2.23579
2.2237
2.21125
2.19804
2.18365
2.168
2.15139
2.13402
2.11605
2.09734
2.07757
2.05687
2.03487
2.01163
1.98709
1.96068
1.93391
1.90671
1.87909
1.85056
1.82812
2.48136
2.47228
2.44562
2.4192
2.39873
2.38072
2.36398
2.34829
2.3326
2.31633
2.29925
2.28149
2.26373
2.24649
2.22972
2.2126
2.19429
2.17508
2.15605
2.13769
2.11971
2.10128
2.08458
2.07
2.05757
2.04748
2.03863
2.03677
2.44449
15.1002
215.628
2105.19
13699.7
64761.9
238985
737992
1.784e+06
2.46526e+06
795283
2.43483
2.40914
2.40599
2.40144
2.3947
2.38457
2.37062
2.35402
2.33634
2.3183
2.30051
2.28371
2.26805
2.25346
2.23988
2.22706
2.21475
2.20275
2.1909
2.17902
2.16686
2.15404
2.14007
2.12482
2.10854
2.09142
2.07364
2.05509
2.03551
2.01503
1.99329
1.97038
1.94625
1.92037
1.89402
1.86727
1.84017
1.81226
1.78968
2.43737
2.42789
2.40072
2.3742
2.35374
2.33558
2.31852
2.30247
2.28644
2.2699
2.25255
2.23447
2.21633
2.19872
2.18167
2.16447
2.14628
2.12716
2.10802
2.08944
2.07134
2.05306
2.03646
2.02192
2.00939
1.99895
1.98978
1.98284
2.05978
4.93372
55.9659
592.689
4255.59
22176.9
89940.7
304438
828282
1.42745e+06
761329
2.38869
2.36383
2.36189
2.35815
2.35185
2.34181
2.32775
2.31093
2.29294
2.27449
2.25624
2.23898
2.22292
2.20802
2.19424
2.18133
2.16902
2.15713
2.14546
2.13381
2.12195
2.10947
2.09588
2.08096
2.06493
2.048
2.03032
2.01189
1.99247
1.97217
1.95072
1.92817
1.90447
1.87919
1.85334
1.82714
1.80064
1.77349
1.75118
2.3915
2.38182
2.3544
2.3279
2.30742
2.28902
2.27159
2.25511
2.23873
2.22195
2.20444
2.1862
2.16786
2.15003
2.13282
2.11565
2.09767
2.07878
2.05967
2.04096
2.02278
2.0046
1.98808
1.97363
1.96107
1.95036
1.94089
1.93282
1.94231
2.56691
15.0918
162.378
1281.86
7371.12
32906.6
122285
371774
771036
619610
2.34122
2.31766
2.31679
2.31375
2.30773
2.29768
2.28343
2.26634
2.24799
2.22911
2.21041
2.19273
2.17632
2.16119
2.1473
2.13439
2.12219
2.11047
2.09902
2.08761
2.07601
2.0638
2.05048
2.03579
2.01992
2.0031
1.98551
1.96716
1.9479
1.9278
1.90667
1.88452
1.8613
1.83668
1.8114
1.78584
1.76
1.73369
1.71191
2.34414
2.33448
2.3069
2.28039
2.25977
2.24108
2.22324
2.20633
2.1896
2.17262
2.15502
2.13674
2.11832
2.10035
2.08304
2.06594
2.04823
2.02965
2.01069
1.99195
1.97371
1.95562
1.9392
1.92488
1.91238
1.90151
1.8918
1.88332
1.87936
2.0061
4.97004
44.0254
374.906
2378.24
11698.8
47806
161707
394135
440125
2.29285
2.2706
2.27047
2.26787
2.2619
2.2517
2.23719
2.21977
2.20105
2.18178
2.16269
2.14467
2.12803
2.11277
2.09888
2.08607
2.07405
2.06256
2.05134
2.04015
2.02874
2.0167
2.00353
1.98897
1.97318
1.95644
1.93893
1.92069
1.90161
1.88178
1.86101
1.83933
1.81666
1.79275
1.7681
1.74324
1.71812
1.69267
1.67156
2.29577
2.28625
2.25849
2.23181
2.21094
2.19192
2.1737
2.15639
2.13934
2.12218
2.10454
2.08627
2.06781
2.04975
2.03233
2.01527
1.9978
1.97954
1.9608
1.94211
1.92386
1.90588
1.88955
1.87541
1.86307
1.85219
1.84238
1.83367
1.82692
1.84747
2.52251
12.5293
107.14
745.129
4039.77
18181.4
68243.3
192366
280084
2.2439
2.22264
2.22283
2.22033
2.21417
2.20368
2.18884
2.17106
2.15199
2.13239
2.11302
2.0948
2.07806
2.0628
2.049
2.03637
2.02457
2.01332
2.00231
1.99129
1.97999
1.96802
1.95492
1.94039
1.92465
1.90799
1.89059
1.87253
1.85371
1.83421
1.81388
1.79274
1.77068
1.74754
1.72358
1.69947
1.6751
1.65051
1.63011
2.24676
2.23742
2.20934
2.18232
2.16112
2.14178
2.12322
2.10557
2.08825
2.07093
2.05326
2.035
2.01651
1.99832
1.98076
1.96365
1.94633
1.92836
1.90986
1.89128
1.87305
1.85517
1.83894
1.825
1.81291
1.80219
1.79244
1.78369
1.77628
1.7749
1.92046
4.40025
30.5915
227.28
1355.21
6722.75
27958
90161.6
163228
2.19457
2.17381
2.17388
2.17117
2.16464
2.15376
2.13853
2.12038
2.10099
2.08114
2.06161
2.04332
2.02659
2.01142
1.99778
1.98536
1.97378
1.96274
1.95189
1.94098
1.92973
1.91778
1.90467
1.89016
1.87448
1.85794
1.84074
1.82293
1.80447
1.7854
1.76559
1.74506
1.72368
1.70137
1.67816
1.65483
1.63124
1.60748
1.58776
2.19737
2.18809
2.15954
2.13201
2.11044
2.09082
2.07201
2.0541
2.03655
2.01908
2.00136
1.9831
1.96456
1.94622
1.92845
1.91119
1.8939
1.87613
1.85786
1.83941
1.82124
1.80345
1.78731
1.77358
1.76178
1.75134
1.74185
1.73324
1.72572
1.71997
1.74697
2.34007
9.36787
68.1242
442.322
2416.99
11125.9
40732.4
88591.4
2.14483
2.12408
2.12374
2.12062
2.11361
2.1023
2.08668
2.06816
2.04849
2.02848
2.00888
1.99061
1.97397
1.95894
1.94547
1.93321
1.92181
1.91091
1.90018
1.88933
1.8781
1.86616
1.85306
1.8386
1.82303
1.80671
1.7898
1.77235
1.75435
1.73579
1.71658
1.69673
1.67611
1.65465
1.63224
1.6097
1.58692
1.56398
1.54489
2.14756
2.13819
2.10904
2.08091
2.05899
2.03917
2.02017
2.00208
1.98434
1.96673
1.94894
1.93065
1.91205
1.89354
1.87551
1.85802
1.84066
1.82301
1.80493
1.78663
1.76855
1.75086
1.73478
1.72122
1.70972
1.69964
1.69052
1.68224
1.67488
1.66844
1.66971
1.80476
3.63364
20.6643
141.103
845.485
4303.85
17789
45335.9
2.09451
2.0735
2.07262
2.06902
2.06155
2.04985
2.03385
2.01501
1.99511
1.97498
1.95536
1.93714
1.9206
1.90569
1.89234
1.88019
1.86888
1.85807
1.84741
1.83662
1.82544
1.81353
1.8005
1.78618
1.77082
1.7548
1.73828
1.7213
1.70384
1.68587
1.66734
1.64822
1.62839
1.60781
1.58622
1.56451
1.54255
1.52039
1.50189
2.09719
2.08762
2.0578
2.02907
2.00684
1.98688
1.96776
1.94951
1.9316
1.91385
1.89599
1.87767
1.85901
1.84036
1.82209
1.80433
1.78684
1.76923
1.75132
1.73321
1.71525
1.69767
1.68164
1.66821
1.65695
1.64722
1.63852
1.63067
1.62366
1.61738
1.61338
1.64053
2.10143
6.897
44.5355
288.449
1620.19
7527.75
22071.4
2.04347
2.02212
2.02075
2.01673
2.0089
1.99686
1.98054
1.96142
1.94133
1.9211
1.90146
1.88328
1.86681
1.85197
1.83866
1.82655
1.81527
1.8045
1.7939
1.78319
1.7721
1.76031
1.74745
1.73336
1.71831
1.7027
1.68666
1.67022
1.65336
1.63605
1.61824
1.59987
1.58086
1.56114
1.54039
1.51954
1.4984
1.47702
1.45912
2.04611
2.03629
2.00582
1.9765
1.95402
1.93395
1.91474
1.89636
1.87828
1.8604
1.84247
1.82414
1.80547
1.78673
1.76827
1.75029
1.73265
1.71507
1.69733
1.67943
1.66167
1.64424
1.62829
1.61494
1.60385
1.59439
1.58607
1.57867
1.5721
1.56623
1.56144
1.56409
1.67522
2.98728
14.4218
96.4984
594.284
3093.24
10288.3
1.99167
1.97007
1.96831
1.96398
1.95588
1.94358
1.92702
1.90766
1.88739
1.86708
1.8474
1.82923
1.81277
1.79793
1.7846
1.77247
1.7612
1.75046
1.73995
1.72936
1.71844
1.70686
1.69426
1.6805
1.66586
1.65071
1.63522
1.61938
1.60317
1.58655
1.56947
1.55188
1.53368
1.51483
1.49499
1.47498
1.45467
1.43408
1.41679
1.99427
1.9842
1.95313
1.92327
1.90058
1.88042
1.86111
1.84258
1.82435
1.80633
1.78835
1.77005
1.75143
1.7327
1.71415
1.69603
1.6783
1.66077
1.64322
1.62559
1.60809
1.5909
1.57508
1.56182
1.55085
1.54157
1.53354
1.52651
1.52037
1.51497
1.51037
1.50789
1.53216
1.88029
5.25893
32.1157
212.909
1236.24
4613.31
1.93916
1.91742
1.91538
1.91086
1.90258
1.8901
1.87333
1.8538
1.8334
1.81299
1.79325
1.77504
1.75855
1.74367
1.7303
1.71814
1.70687
1.6962
1.68582
1.67543
1.66475
1.65346
1.6412
1.62784
1.61366
1.59905
1.58413
1.56892
1.55337
1.53745
1.5211
1.50427
1.48688
1.46887
1.44995
1.4308
1.41132
1.39153
1.37491
1.94157
1.93119
1.8995
1.8691
1.84617
1.82588
1.80644
1.78776
1.76937
1.75124
1.73322
1.71499
1.69651
1.67789
1.65938
1.64124
1.62352
1.60609
1.58877
1.57148
1.55433
1.53748
1.5219
1.50882
1.49798
1.48885
1.48103
1.4743
1.46853
1.46358
1.4594
1.45618
1.45975
1.54853
2.51896
11.0643
74.9095
481.189