/*--------------------------------*- C++ -*----------------------------------*\
| =========                 |                                                 |
| \\      /  F ield         | OpenFOAM: The Open Source CFD Toolbox           |
|  \\    /   O peration     | Version:  2312                                  |
|   \\  /    A nd           | Website:  www.openfoam.com                      |
|    \\/     M anipulation  |                                                 |
\*---------------------------------------------------------------------------*/
FoamFile
{
    version     2.0;
    format      ascii;
    arch        "LSB;label=32;scalar=64";
    class       volScalarField;
    location    "300";
    object      p;
}
// * * * * * * * * * * * * * * * * * * * * * * * * * * * * * * * * * * * * * //

dimensions      [0 2 -2 0 0 0 0];

internalField   nonuniform List<scalar> 
10720
(
-41.2902
-110.72
-192.53
-273.64
-349.178
-426.384
-495.392
-553.901
-605.157
-645.836
-677.555
-701.393
-718.392
-729.736
-735.579
-735.482
-730.4
-719.388
-703.714
-682.52
-657.023
-625.939
-588.292
-541.815
-488.02
-444.44
-416.292
-366.869
-308.742
-271.9
-242.395
-207.124
-168.321
-126.143
-89.0628
-75.1107
-38.3486
29.5099
7.32744
27.7505
90.5038
156.729
218.078
269.968
308.265
329.226
335.072
330.61
315.352
292.94
268.546
244.274
220.954
199.276
178.993
160.079
142.08
124.744
107.553
90.4606
73.1864
55.8463
38.9199
24.1936
12.8228
3.74063
-3.57505
-9.21085
-13.1279
-15.4124
-16.2368
-15.7299
-13.9598
-11.1197
-7.11724
-2.39027
6.04497
21.91
56.0226
3.39348
-55.7824
-118.882
-183.968
-250.83
-316.016
-377.46
-434.445
-485.231
-529.449
-567.118
-598.327
-623.067
-641.308
-652.593
-657.65
-656.402
-649.707
-637.288
-619.533
-594.806
-561.031
-516.183
-466.243
-422.489
-384.814
-351.3
-318.686
-283.551
-246.289
-207.608
-168.048
-126.034
-89.0448
-75.1314
-38.298
29.257
7.59372
103.247
148.095
192.59
235.185
272.347
301.41
319.241
325.798
322.401
309.923
291.536
270.47
248.467
226.503
205.316
185.088
165.893
147.511
129.731
112.239
94.9584
77.6865
60.4881
43.8326
29.1908
17.4382
7.82552
-3.41358e-05
-6.06488
-10.3606
-12.9948
-14.1574
-13.9734
-12.5063
-9.93956
-6.15682
-1.62669
7.56971
23.1438
68.3902
21.1611
-32.2182
-91.2996
-152.805
-216.125
-279.686
-340.884
-398.155
-450.48
-496.608
-536.146
-568.687
-594.181
-613.029
-625.516
-631.834
-631.967
-626.312
-614.854
-597.731
-574.065
-542.752
-502.188
-456.559
-414.682
-377.766
-347.821
-317.349
-281.992
-244.222
-205.579
-166.757
-125.885
-89.3758
-74.5894
-37.4088
29.7007
8.61473
110.866
151.898
192.475
230.637
263.273
288.733
304.984
312.053
310.494
301.003
285.845
267.3
247.046
226.236
205.69
185.808
166.743
148.428
130.707
113.337
96.1936
79.1522
62.293
45.9583
31.3302
19.2921
9.43261
1.40882
-4.82074
-9.27069
-12.0558
-13.3537
-13.2828
-11.9088
-9.40284
-5.65655
-0.916073
8.37737
23.7479
88.1119
48.512
3.12928
-46.9297
-99.6623
-155.037
-211.415
-267.058
-320.672
-371.109
-417.259
-458.42
-494.063
-523.984
-548.052
-566.457
-578.896
-585.126
-585.212
-579.142
-566.89
-547.896
-521.366
-486.438
-446.626
-408.521
-374.945
-345.128
-313.945
-279.143
-242.149
-204.075
-165.858
-125.902
-89.8368
-73.5172
-35.8468
30.3925
9.30385
123.483
157.304
191.06
223.41
251.439
273.833
288.956
296.448
296.458
289.58
277.444
261.787
244.013
225.191
206.107
187.231
168.8
150.875
133.384
116.178
99.1676
82.2904
65.6208
49.5043
34.9122
22.6743
12.5887
4.3304
-2.15895
-6.89205
-9.97041
-11.5483
-11.739
-10.6045
-8.30473
-4.71107
0.0141379
9.25442
24.512
92.8417
57.629
17.074
-27.9707
-75.5478
-126.087
-178.233
-230.407
-281.625
-330.743
-376.632
-418.502
-455.665
-487.605
-513.982
-534.625
-549.12
-557.437
-559.519
-555.465
-545.251
-528.527
-504.67
-473.216
-436.761
-401.001
-369.042
-339.596
-309.02
-275.421
-239.455
-202.202
-164.759
-125.692
-90.216
-72.4601
-34.4226
30.7433
8.63278
124.366
154.345
184.36
213.14
238.11
258.357
272.636
280.426
281.705
277.003
267.476
254.444
239.022
222.145
204.559
186.763
169.071
151.639
134.486
117.552
100.785
84.1657
67.7848
51.9647
37.4984
25.1396
14.848
6.36611
-0.359635
-5.33614
-8.63984
-10.4219
-10.7892
-9.80515
-7.62035
-4.09695
0.669801
9.84163
24.7795
95.2679
64.1012
28.0245
-12.0219
-54.3256
-99.5944
-146.567
-193.986
-241.135
-286.972
-330.546
-371.103
-407.905
-440.338
-467.955
-490.4
-507.389
-518.733
-524.219
-523.74
-517.144
-504.096
-484.085
-456.885
-424.649
-391.958
-361.689
-333.12
-303.575
-271.191
-236.234
-199.859
-163.341
-125.265
-90.5302
-71.4877
-33.4313
30.2784
7.28797
123.179
149.631
176.316
202.094
224.585
243.122
256.694
264.657
266.903
263.927
256.578
245.874
232.696
217.824
201.927
185.476
168.81
152.141
135.558
119.071
102.676
86.3954
70.338
54.8117
40.4866
28.0481
17.5837
8.91091
1.97651
-3.22484
-6.75767
-8.76775
-9.35593
-8.57872
-6.57217
-3.19086
1.53599
10.5845
24.8231
94.2081
66.1009
33.4814
-2.75856
-40.9652
-82.0657
-124.94
-168.489
-212.236
-255.258
-296.732
-335.984
-372.267
-404.927
-433.426
-457.291
-476.097
-489.441
-497.023
-498.684
-494.316
-483.696
-466.465
-442.563
-413.709
-383.599
-354.855
-327.183
-298.501
-267.123
-233.101
-197.583
-161.95
-124.853
-90.8041
-70.5605
-32.7513
28.9232
6.10343
119.407
143.219
167.369
190.804
211.333
228.498
241.449
249.471
252.449
250.83
245.267
236.562
225.405
212.431
198.209
183.16
167.614
151.817
135.906
119.952
104
88.1131
72.4183
57.2116
43.0701
30.6153
20.0235
11.1854
4.0555
-1.36777
-5.13339
-7.36764
-8.16172
-7.56555
-5.70565
-2.42953
2.28128
11.1962
24.8579
91.7058
66.2027
36.5482
3.631
-30.976
-68.3178
-107.364
-147.157
-187.387
-227.268
-266.088
-303.284
-338.17
-370.104
-398.51
-422.856
-442.622
-457.424
-466.927
-470.882
-469.093
-461.309
-447.198
-426.748
-401.337
-373.991
-347.069
-320.555
-292.89
-262.648
-229.704
-195.151
-160.449
-124.377
-90.9786
-69.7037
-32.2843
26.7904
4.86935
114.607
136.205
158.237
179.722
198.621
214.646
227.024
235.016
238.54
237.975
233.858
226.837
217.461
206.239
193.642
180.025
165.693
150.892
135.79
120.497
105.098
89.6898
74.4179
59.5682
45.6538
33.2408
22.5666
13.5937
6.29235
0.666405
-3.31521
-5.7647
-6.76707
-6.36572
-4.67461
-1.5347
3.11799
11.8402
24.9261
88.1525
64.8113
37.6409
7.505
-24.0759
-58.2058
-93.9528
-130.453
-167.535
-204.514
-240.795
-275.924
-309.28
-340.262
-368.306
-392.845
-413.323
-429.284
-440.301
-446.031
-446.23
-440.689
-429.133
-411.588
-389.181
-364.372
-339.2
-313.838
-287.188
-258.068
-226.204
-192.627
-158.853
-123.802
-91.0557
-68.9336
-32.1481
23.8568
3.34387
109.145
128.916
149.184
169.032
186.554
201.605
213.451
221.355
225.268
225.523
222.57
216.953
209.116
199.467
188.391
176.174
163.079
149.338
135.124
120.572
105.8
90.9319
76.1267
61.6658
48.0152
35.6946
24.9819
15.9043
8.45311
2.63921
-1.55228
-4.21542
-5.42517
-5.21452
-3.68526
-0.673516
3.91911
12.4409
24.9841
84.0622
62.5748
37.5461
9.82069
-19.1376
-50.4545
-83.2629
-116.784
-150.943
-185.139
-218.883
-251.813
-283.377
-313.052
-340.294
-364.531
-385.206
-401.81
-413.914
-421.146
-423.191
-419.825
-410.769
-396.029
-376.518
-354.226
-330.888
-306.806
-281.261
-253.296
-222.544
-189.986
-157.164
-123.13
-91.059
-68.2303
-32.3946
20.3112
2.06191
103.423
121.634
140.395
158.838
175.175
189.369
200.72
208.493
212.674
213.561
211.543
207.086
200.564
192.306
182.623
171.739
159.873
147.225
133.961
120.226
106.155
91.8921
77.6082
63.5786
50.236
38.0632
27.3627
18.2178
10.6452
4.66481
0.27857
-2.58835
-4.00109
-3.98311
-2.62311
0.246746
4.75386
13.0438
25.0376
79.6817
59.7947
36.6212
10.9853
-15.6941
-44.5524
-74.7751
-105.653
-137.168
-168.799
-200.148
-230.934
-260.674
-288.911
-315.151
-338.852
-359.456
-376.449
-389.352
-397.784
-401.355
-399.831
-392.944
-380.676
-363.768
-343.825
-322.295
-299.538
-275.137
-248.336
-218.721
-187.219
-155.375
-122.358
-90.9888
-67.5657
-32.9114
16.4635
1.31165
97.6305
114.499
131.955
149.177
164.484
177.912
188.792
196.408
200.763
202.135
200.864
197.363
191.956
184.912
176.484
166.845
156.164
144.607
132.324
119.454
106.141
92.5367
78.8194
65.2578
52.2627
40.2865
29.6452
20.4687
12.8016
6.67479
2.10698
-0.956595
-2.56867
-2.74173
-1.55063
1.17508
5.58407
13.6257
25.0768
75.1925
56.7092
35.1657
11.367
-13.3129
-40.0003
-67.9241
-96.4299
-125.548
-154.815
-183.905
-212.606
-240.503
-267.208
-292.276
-315.203
-335.459
-352.534
-365.929
-375.269
-380.127
-380.238
-375.323
-365.323
-350.825
-333.122
-313.396
-292.021
-268.811
-243.193
-214.742
-184.331
-153.485
-121.488
-90.8406
-66.9331
-33.5527
12.5594
0.961166
91.9066
107.602
123.913
140.056
154.456
167.189
177.618
185.06
189.517
191.256
190.584
187.87
183.402
177.409
170.099
161.6
152.04
141.552
130.256
118.281
105.768
92.8694
79.7617
66.7077
54.1007
42.37
31.837
22.6688
14.9385
8.68989
3.95844
0.71008
-1.09446
-1.45717
-0.437967
2.13499
6.42614
14.1971
25.1074
70.7093
53.4659
33.3679
11.1974
-11.7134
-36.4731
-62.3489
-88.7281
-115.68
-142.791
-169.782
-196.506
-222.606
-247.755
-271.568
-293.585
-313.312
-330.256
-343.916
-353.92
-359.824
-361.32
-358.123
-350.137
-337.819
-322.206
-304.242
-284.276
-262.291
-237.874
-210.607
-181.317
-151.488
-120.514
-90.6142
-66.3445
-34.2333
8.73727
0.743595
86.3278
100.993
116.285
131.467
145.057
157.155
167.152
174.405
178.909
180.924
180.728
178.66
174.982
169.893
163.568
156.101
147.586
138.121
127.801
116.733
105.045
92.8856
80.4238
67.9137
55.7333
44.2928
33.915
24.795
17.0331
10.688
5.81136
2.39008
0.400256
-0.149387
0.697191
3.11201
7.26952
14.7531
25.1251
66.3078
50.1701
31.3655
10.651
-10.6813
-33.7178
-57.7597
-82.2259
-107.217
-132.358
-157.41
-182.273
-206.643
-230.249
-252.764
-273.776
-292.826
-309.454
-323.174
-333.61
-340.34
-343.005
-341.308
-335.117
-324.776
-311.112
-294.859
-276.315
-255.584
-232.382
-206.318
-178.175
-149.381
-119.435
-90.3085
-65.8148
-34.928
5.07014
0.445036
80.9476
94.6935
109.076
123.391
136.25
147.76
157.346
164.399
168.909
171.126
171.309
169.77
166.755
162.44
156.976
150.435
142.88
134.382
125.008
114.839
103.99
92.592
80.806
68.8722
57.154
46.0467
35.8697
26.8389
19.0792
12.6652
7.66465
4.0853
1.91964
1.18705
1.86014
4.10998
8.11694
15.2958
25.127
62.0355
46.8926
29.2524
9.84931
-10.0665
-31.5548
-53.9435
-76.686
-99.899
-123.237
-146.502
-169.628
-192.358
-214.469
-235.679
-255.631
-273.908
-290.085
-303.704
-314.386
-321.738
-325.362
-324.949
-320.333
-311.766
-299.899
-285.286
-268.161
-248.7
-226.724
-201.876
-174.902
-147.161
-118.248
-89.9212
-65.3509
-35.6377
1.58789
-0.0315894
75.7961
88.7149
102.274
115.805
127.995
138.959
148.154
155
159.482
161.844
162.326
161.221
158.76
155.107
150.394
144.676
137.996
130.398
121.925
112.636
102.622
91.9993
80.9107
69.5797
58.3556
47.6205
37.6875
28.7864
21.0635
14.6093
9.50739
5.7861
3.4552
2.54476
3.04452
5.12355
8.96466
15.8226
25.1126
57.9231
43.6818
27.0964
8.88168
-9.75595
-29.8432
-50.7357
-71.9172
-93.5133
-115.206
-136.828
-158.341
-179.523
-200.196
-220.124
-238.993
-256.433
-272.056
-285.438
-296.203
-303.996
-308.39
-309.063
-305.819
-298.833
-288.613
-275.56
-259.837
-241.653
-220.908
-197.287
-171.498
-144.824
-116.953
-89.4509
-64.95
-36.3674
-1.70923
-0.694663
70.8879
83.0583
95.8679
108.681
120.256
130.712
139.535
146.168
150.598
153.058
153.776
153.025
151.029
147.94
143.878
138.887
132.996
126.228
118.604
110.162
100.969
91.1223
80.7434
70.0366
59.3353
49.0074
39.3586
30.6267
22.9755
16.5112
11.3323
7.48714
5.00324
3.92147
4.24872
6.15125
9.8116
16.3329
25.0825
53.9902
40.5691
24.9445
7.81356
-9.66446
-28.4777
-48.0123
-67.7734
-87.896
-108.086
-128.198
-148.213
-167.946
-187.251
-205.934
-223.722
-240.29
-255.289
-268.328
-279.047
-287.117
-292.11
-293.684
-291.62
-286.031
-277.309
-265.724
-251.369
-234.457
-214.944
-192.555
-167.964
-142.37
-115.549
-88.897
-64.6035
-37.117
-4.82916
-1.5194
66.2285
77.7181
89.8404
101.993
113.001
122.978
131.446
137.867
142.223
144.746
145.647
145.185
143.578
140.969
137.471
133.121
127.936
121.925
115.093
107.457
99.0616
89.9809
80.3156
70.2472
60.0909
50.2011
40.8734
32.3485
24.8041
18.3603
13.1298
9.18044
6.55718
5.31189
5.46836
7.18941
10.6553
16.8258
25.0371
50.2465
37.5759
22.8342
6.69266
-9.72482
-27.3777
-45.6716
-64.1384
-82.9144
-101.728
-120.45
-139.081
-157.461
-175.476
-192.963
-209.689
-225.371
-239.696
-252.311
-262.875
-271.084
-276.523
-278.829
-277.769
-273.405
-266.033
-255.819
-242.785
-227.13
-208.842
-187.686
-164.302
-139.798
-114.034
-88.2597
-64.2986
-37.8822
-7.77445
-2.47544
61.8175
72.6826
84.1715
95.7143
106.194
115.723
123.85
130.058
134.328
136.884
137.927
137.701
136.419
134.22
131.208
127.419
122.863
117.539
111.438
104.56
96.9289
88.5968
79.6409
70.2182
60.6241
51.1981
42.2242
33.9421
26.5385
20.1462
14.8909
10.8583
8.11075
6.7112
6.69955
8.23493
11.4934
17.301
24.977
46.6953
34.7162
20.7863
5.55694
-9.89053
-26.478
-43.6365
-60.917
-78.4614
-96.0113
-113.455
-130.806
-147.928
-164.728
-181.076
-196.77
-211.569
-225.193
-237.325
-247.651
-255.88
-261.629
-264.517
-264.298
-260.997
-254.832
-245.885
-234.116
-219.692
-202.617
-182.69
-160.513
-137.108
-112.411
-87.538
-64.0225
-38.655
-10.5431
-3.53773
57.6509
67.94
78.8431
89.8206
99.8052
108.911
116.712
122.71
126.883
129.45
130.599
130.566
129.556
127.705
125.115
121.817
117.818
113.113
107.682
101.509
94.6033
86.9936
78.7344
69.9585
60.9388
51.9972
43.4054
35.3986
28.1689
21.859
16.606
12.5124
9.65677
8.11359
7.93761
9.28398
12.3236
17.7578
24.9028
43.3368
31.9976
18.8181
4.43055
-10.1229
-25.7313
-41.8449
-58.0378
-74.4505
-90.8394
-107.104
-123.272
-139.223
-154.885
-170.154
-184.857
-198.787
-211.699
-223.309
-233.329
-241.481
-247.422
-250.755
-251.231
-248.843
-243.749
-235.964
-225.393
-212.165
-196.284
-177.576
-156.604
-134.303
-110.679
-86.7316
-63.7612
-39.425
-13.1325
-4.68574
53.7216
63.4777
73.8367
84.2871
93.8076
102.512
110.002
115.793
119.861
122.42
123.65
123.773
122.992
121.438
119.21
116.341
112.836
108.685
103.862
98.3418
92.1169
85.1979
77.6168
69.4816
61.0412
52.5991
44.4131
36.7109
29.6861
23.4887
18.2656
14.1342
11.1878
9.51301
9.1775
10.3327
13.1433
18.1959
24.8149
40.1678
29.4227
16.9406
3.33358
-10.3944
-25.0982
-40.2492
-55.4402
-70.8109
-86.1305
-101.31
-116.384
-131.249
-145.847
-160.097
-173.855
-186.938
-199.138
-210.198
-219.862
-227.861
-233.89
-237.55
-238.588
-236.978
-232.825
-226.095
-216.651
-204.573
-189.859
-172.355
-152.581
-131.386
-108.84
-85.8395
-63.5008
-40.1795
-15.5412
-5.90184
50.0224
59.2823
69.1337
79.0907
88.1751
96.5001
103.692
109.28
113.239
115.775
117.063
117.313
116.723
115.423
113.508
111.012
107.943
104.286
100.014
95.0922
89.5016
83.2368
76.3092
68.802
60.9398
53.0069
45.2455
37.8733
31.082
25.0263
19.8603
15.7147
12.6961
10.9029
10.4138
11.3769
13.9501
18.6151
24.7145
37.1841
26.9928
15.1597
2.27935
-10.6828
-24.549
-38.8092
-53.0755
-67.483
-81.8167
-95.9948
-110.058
-123.914
-137.521
-150.815
-163.672
-175.941
-187.436
-197.935
-207.203
-214.989
-221.02
-224.903
-226.386
-225.428
-222.096
-216.316
-207.92
-196.941
-183.36
-167.039
-148.451
-128.362
-106.897
-84.8612
-63.2281
-40.9057
-17.7705
-7.1696
46.5438
55.3407
64.7167
74.2105
82.8839
90.85
97.7555
103.144
106.99
109.495
110.822
111.175
110.746
109.662
108.018
105.849
103.162
99.9456
96.1681
91.7921
86.7882
81.1372
74.8331
67.9357
60.6457
53.2264
45.9033
38.882
32.3499
26.4631
21.3811
17.2452
14.1735
12.2761
11.6406
12.4121
14.7411
19.0151
24.603
34.3802
24.7059
13.48
1.27806
-10.9733
-24.0599
-37.4942
-50.9039
-64.422
-77.8429
-91.0952
-104.222
-117.143
-129.827
-142.225
-154.231
-165.718
-176.527
-186.46
-195.308
-202.833
-208.792
-212.811
-214.637
-214.219
-211.593
-206.663
-199.234
-189.296
-176.809
-161.644
-144.224
-125.236
-104.853
-83.7961
-62.9299
-41.5909
-19.824
-8.47333
43.2759
51.6408
60.5705
69.6275
77.9132
85.5384
92.1692
97.3631
101.094
103.558
104.911
105.347
105.053
104.155
102.745
100.861
98.511
95.6849
92.3511
88.4697
84.0047
78.9258
73.2116
66.9016
60.172
53.2649
46.3886
39.7348
33.4841
27.7917
22.8192
18.7166
15.6118
13.6253
12.8518
13.4336
15.5138
19.3961
24.4815
31.7498
22.5598
11.9028
0.336042
-11.2518
-23.6128
-36.2789
-48.8938
-61.5866
-74.1639
-86.559
-98.819
-110.871
-122.695
-134.254
-145.46
-156.203
-166.345
-175.716
-184.127
-191.357
-197.187
-201.265
-203.346
-203.366
-201.345
-197.168
-190.624
-181.665
-170.225
-156.183
-139.909
-122.016
-102.711
-82.644
-62.5946
-42.2228
-21.706
-9.79732
40.2101
48.169
56.6792
65.3247
73.2432
80.5435
86.9106
91.9151
95.5316
97.9487
99.3156
99.8174
99.6377
98.8991
97.6922
96.0565
94.0031
91.5228
88.5855
85.1505
81.1774
76.6278
71.4679
65.7185
59.5329
53.1315
46.7054
40.4316
34.4808
29.0051
24.1665
20.1205
17.0025
14.9426
14.041
14.4368
16.2655
19.758
24.3517
29.2857
20.5511
10.4285
-0.542707
-11.5097
-23.1932
-35.1427
-47.018
-58.9448
-70.739
-82.3395
-93.7951
-105.042
-116.067
-126.842
-137.295
-147.331
-156.834
-165.652
-173.617
-180.529
-186.182
-190.258
-192.515
-192.886
-191.376
-187.86
-182.12
-174.073
-163.631
-150.674
-135.52
-118.709
-100.475
-81.4054
-62.2105
-42.7905
-23.4214
-11.1274
37.3368
44.9144
53.0284
61.2841
68.8546
75.8454
81.96
86.7812
90.283
92.6482
94.0197
94.5745
94.4913
93.8899
92.8593
91.4411
89.6483
87.4739
84.8896
81.8558
78.3296
74.2666
69.6236
64.4055
58.7434
52.8373
46.86
40.9734
35.3373
30.0984
25.4157
21.4485
18.3375
16.2204
15.2015
15.4165
16.9933
20.1008
24.2151
26.9811
18.6755
9.05566
-1.35594
-11.7411
-22.7904
-34.0705
-45.2563
-56.4701
-67.5363
-78.3995
-89.1084
-99.6067
-109.889
-119.933
-129.678
-139.047
-147.937
-156.217
-163.737
-170.313
-175.755
-179.777
-182.145
-182.79
-181.706
-178.766
-173.75
-166.546
-157.049
-145.134
-131.068
-115.323
-98.151
-80.0799
-61.7687
-43.2837
-24.9752
-12.4504
34.6468
41.8647
49.6043
57.4903
64.7303
71.4265
77.2981
81.9421
85.3304
87.6407
89.0095
89.6062
89.6046
89.1215
88.2445
87.0164
85.4526
83.5485
81.2784
78.6042
75.4822
71.864
67.6997
62.9811
57.8195
52.3939
46.8598
41.3634
36.0526
31.0668
26.5603
22.6928
19.6086
17.4508
16.3265
16.3678
17.6947
20.4247
24.0735
24.8291
16.9276
7.78245
-2.10248
-11.9411
-22.3955
-33.0493
-43.591
-54.1399
-64.5279
-74.7059
-84.7214
-94.525
-104.115
-113.477
-122.56
-131.299
-139.606
-147.365
-154.445
-160.676
-165.881
-169.807
-172.23
-173.082
-172.351
-169.91
-165.54
-159.111
-150.5
-139.581
-126.568
-111.868
-95.7435
-78.6698
-61.2597
-43.6938
-26.3734
-13.754
32.1305
39.0085
46.3937
53.9292
60.8545
67.2701
72.9086
77.3805
80.6572
82.9106
84.2709
84.9003
84.9674
84.5868
83.8441
82.7829
81.4208
79.7555
77.7643
75.4111
72.653
69.4398
65.7166
61.465
56.7777
51.8145
46.7136
41.6064
36.6276
31.9078
27.5947
23.8463
20.8078
18.626
17.4091
17.2854
18.3669
20.7295
23.9286
22.8222
15.3028
6.60536
-2.78207
-12.107
-22.0025
-32.0685
-42.0085
-51.9359
-61.6923
-71.2319
-80.6031
-89.76
-98.7066
-107.433
-115.896
-124.042
-131.795
-139.054
-145.701
-151.583
-156.534
-160.334
-162.766
-163.767
-163.323
-161.308
-157.514
-151.791
-144.008
-134.034
-122.033
-108.354
-93.2589
-77.1751
-60.6766
-44.0139
-27.6195
-15.0262
29.7788
36.3353
43.385
50.5869
57.2125
63.3605
68.775
73.0807
76.2479
78.4432
79.7907
80.4452
80.5711
80.2791
79.6537
78.7389
77.5542
76.0999
74.356
72.289
69.8574
67.0115
63.6929
59.8747
55.634
51.1121
46.4314
41.7081
37.0641
32.6198
28.5149
24.9026
21.9279
19.7385
18.4425
18.1642
19.0071
21.0152
23.7822
20.9531
13.7953
5.52144
-3.39602
-12.2372
-21.607
-31.1208
-40.4966
-49.8429
-59.0096
-67.9537
-76.7247
-85.2806
-93.6274
-101.761
-109.645
-117.234
-124.464
-131.244
-137.469
-143.004
-147.691
-151.337
-153.743
-154.846
-154.63
-152.979
-149.691
-144.61
-137.594
-128.51
-117.478
-104.791
-90.7042
-75.5982
-60.013
-44.2358
-28.7179
-16.254
27.583
33.8349
40.5658
47.4502
53.7902
59.6825
64.8824
69.0273
72.0877
74.2243
75.5555
76.2292
76.4049
76.1903
75.6672
74.8812
73.8529
72.5847
71.0599
69.2477
67.1089
64.5943
61.6444
58.2267
54.4037
50.3004
46.0239
41.6761
37.3657
33.2028
29.3174
25.8567
22.9621
20.781
19.4201
18.999
19.6128
21.2813
23.6357
19.2148
12.3993
4.52699
-3.94614
-12.3307
-21.2048
-30.1996
-39.0455
-47.8475
-56.4626
-64.8514
-73.0627
-81.0585
-88.8473
-96.4281
-103.771
-110.838
-117.573
-123.897
-129.716
-134.907
-139.325
-142.801
-145.15
-146.314
-146.279
-144.934
-142.09
-137.587
-131.278
-123.03
-112.921
-101.191
-88.0852
-73.9419
-59.2639
-44.3556
-29.6707
-17.4247
25.5346
31.497
37.9252
44.5074
50.5748
56.2225
61.2167
65.2064
68.1629
70.2407
71.553
72.241
72.4586
72.3117
71.8787
71.2061
70.3158
69.2118
67.8807
66.2949
64.4174
62.2009
59.5863
56.5366
53.1023
49.393
45.5023
41.5182
37.537
33.658
30.0007
26.7039
23.9045
21.7468
20.3354
19.7846
20.1809
21.5274
23.4905
17.5999
11.1095
3.61773
-4.43439
-12.3877
-20.7942
-29.3001
-37.6484
-45.9399
-54.0389
-61.9087
-69.5976
-77.0713
-84.3397
-91.4052
-98.2426
-104.82
-111.089
-116.98
-122.409
-127.265
-131.412
-134.707
-136.976
-138.168
-138.271
-137.183
-134.726
-130.741
-125.08
-117.611
-108.375
-97.5666
-85.4111
-72.2089
-58.4267
-44.3686
-30.4812
-18.5281
23.6252
29.3128
35.4526
41.7467
47.5538
52.9677
57.7641
61.605
64.4605
66.48
67.7712
68.4693
68.723
68.6347
68.2811
67.7083
66.9398
65.981
64.8213
63.4363
61.7919
59.8428
57.5315
54.8183
51.7438
48.4034
44.878
41.2435
37.5839
33.9879
30.5638
27.4411
24.7501
22.6299
21.1825
20.5161
20.7087
21.7525
23.3474
16.1019
9.91997
2.78962
-4.86342
-12.409
-20.3738
-28.4189
-36.2993
-44.1117
-51.7268
-59.1113
-66.3121
-73.2986
-80.0816
-86.6665
-93.0319
-99.1513
-104.982
-110.463
-115.519
-120.049
-123.93
-127.034
-129.206
-130.401
-130.607
-129.731
-127.61
-124.088
-119.019
-112.271
-103.857
-93.9291
-82.6899
-70.404
-57.5003
-44.2725
-31.1518
-19.5556
21.8468
27.2732
33.1382
39.1571
44.716
49.9059
54.5128
58.2103
60.9678
62.9299
64.1989
64.9039
65.1882
65.1511
64.8673
64.3829
63.7216
62.8912
61.883
60.6759
59.2387
57.5289
55.4914
53.0849
50.3414
47.3441
44.1625
40.8612
37.513
34.196
31.0076
28.0663
25.4948
23.425
21.9559
21.1887
21.1934
21.9556
23.207
14.7137
8.8252
2.03836
-5.23599
-12.3955
-19.9427
-27.5527
-34.9923
-42.3544
-49.5156
-56.4462
-63.1909
-69.7226
-76.0532
-82.1893
-88.1139
-93.8041
-99.2233
-104.317
-109.018
-113.235
-116.854
-119.765
-121.829
-123.004
-123.283
-122.582
-120.751
-117.641
-113.109
-107.027
-99.383
-90.292
-79.9315
-68.533
-56.485
-44.067
-31.6857
-20.4985
20.1919
25.3695
30.9725
36.7288
42.0502
47.026
51.4512
55.0104
57.6734
59.5792
60.8249
61.5338
61.8442
61.8523
61.63
61.2236
60.6572
59.9398
59.0657
58.016
56.7629
55.2669
53.4754
51.3472
48.907
46.2271
43.367
40.3811
37.3317
34.2873
31.3337
28.5786
26.1356
24.1279
22.6509
21.798
21.6319
22.135
23.0692
13.4291
7.81977
1.35966
-5.55501
-12.3486
-19.5008
-26.6998
-33.7242
-40.6622
-47.3976
-53.9025
-60.2206
-66.3272
-72.2355
-77.9534
-83.4663
-88.7554
-93.7889
-98.5175
-102.881
-106.798
-110.164
-112.882
-114.828
-115.968
-116.296
-115.737
-114.156
-111.41
-107.364
-101.894
-94.9679
-86.6681
-77.1462
-66.6027
-55.3849
-43.7534
-32.087
-21.35
18.6532
23.5938
28.9468
34.4522
39.5466
44.3174
48.568
51.9943
54.566
56.4166
57.6385
58.3492
58.6817
58.7293
58.5617
58.2242
57.7416
57.1243
56.3684
55.458
54.3681
53.0623
51.4913
49.6149
47.4516
45.0639
42.5024
39.8128
37.0481
34.267
31.5451
28.9782
26.6705
24.7353
23.2634
22.3403
22.0215
22.2891
22.9333
12.2419
6.89837
0.749291
-5.82355
-12.2702
-19.0482
-25.8589
-32.4914
-39.0306
-45.3657
-51.4715
-57.3905
-63.1
-68.6137
-73.9408
-79.0694
-83.9834
-88.655
-93.0407
-97.0859
-100.716
-103.839
-106.366
-108.191
-109.282
-109.64
-109.196
-107.829
-105.405
-101.797
-96.8851
-90.6256
-83.0702
-74.3451
-64.6213
-54.2047
-43.3362
-32.3619
-22.1045
17.2236
21.9383
27.0526
32.3182
37.1954
41.7698
45.853
49.1517
51.6352
53.4318
54.6298
55.3402
55.6918
55.7744
55.655
55.3784
54.97
54.4411
53.7895
53.0021
52.0565
50.9199
49.5462
47.8964
45.9847
43.8646
41.5792
39.1662
36.6702
34.1415
31.6456
29.2667
27.0988
25.2448
23.7901
22.8119
22.3595
22.4158
22.7981
11.1462
6.05597
0.203034
-6.04468
-12.162
-18.5854
-25.0286
-31.2914
-37.455
-43.4137
-49.1451
-54.6901
-60.028
-65.1734
-70.1359
-74.9056
-79.4689
-83.8019
-87.8654
-91.6102
-94.969
-97.8581
-100.2
-101.901
-102.936
-103.307
-102.956
-101.771
-99.6309
-96.4155
-92.0132
-86.3689
-79.5108
-71.539
-62.5978
-52.9513
-42.8211
-32.5171
-22.7596
15.8968
20.3958
25.2822
30.3185
34.9879
39.3741
43.2964
46.4722
48.8708
50.615
51.789
52.4977
52.8654
52.9787
52.9021
52.6797
52.3371
51.886
51.3265
50.6475
49.8294
48.8427
47.645
46.1991
44.5148
42.6387
40.607
38.4505
36.2065
33.9178
31.64
29.4466
27.4209
25.6553
24.2286
23.2101
22.6433
22.5128
22.6616
10.1363
5.28766
-0.283172
-6.22158
-12.0262
-18.1135
-24.2089
-30.1225
-35.9318
-41.5366
-46.9163
-52.1108
-57.1011
-61.9021
-66.524
-70.9589
-75.1948
-79.211
-82.9724
-86.4351
-89.5373
-92.2041
-94.3661
-95.9444
-96.9173
-97.29
-97.0112
-95.9815
-94.0908
-91.2276
-87.2875
-82.209
-76.0007
-68.7385
-60.5412
-51.633
-42.2144
-32.5607
-23.315
14.6666
18.9597
23.6281
28.445
32.9155
37.1211
40.8892
43.9469
46.2634
47.9566
49.1065
49.8125
50.1941
50.3344
50.2958
50.1214
49.8368
49.4547
48.9763
48.3928
47.6873
46.8333
45.7921
44.5285
43.0494
41.3947
39.5948
37.6748
35.6656
33.6029
31.5338
29.5214
27.6385
25.9666
24.5775
23.5329
22.8708
22.5779
22.5215
9.20696
4.58875
-0.713245
-6.3571
-11.8648
-17.6331
-23.3993
-28.9828
-34.4578
-39.7296
-44.7792
-49.6451
-54.31
-58.7891
-63.093
-67.2149
-71.1453
-74.8655
-78.3443
-81.5417
-84.4028
-86.8592
-88.8496
-90.3069
-91.2136
-91.5785
-91.3565
-90.4591
-88.7866
-86.2379
-82.7157
-78.1555
-72.5503
-65.9535
-58.4608
-50.2579
-41.5244
-32.501
-23.7723
13.5266
17.6234
22.0832
26.6902
30.9702
35.0027
38.6225
41.5667
43.8041
45.4479
46.5737
47.2759
47.6691
47.8334
47.8285
47.6969
47.4638
47.1425
46.7355
46.236
45.6298
44.8929
43.9903
42.8896
41.5948
40.1401
38.5511
36.8479
35.0558
33.2044
31.3333
29.4955
27.754
26.1796
24.8365
23.779
23.0403
22.6088
22.3748
8.35304
3.95453
-1.09096
-6.45434
-11.68
-17.1453
-22.5997
-27.8711
-33.0309
-37.9891
-42.7285
-47.2861
-51.6463
-55.8246
-59.8314
-63.6612
-67.3065
-70.7503
-73.965
-76.9141
-79.5484
-81.8065
-83.6339
-84.9739
-85.8132
-86.1632
-85.9848
-85.1999
-83.7184
-81.4495
-78.3038
-74.2165
-69.1683
-63.1931
-56.3649
-48.8339
-40.7583
-32.346
-24.1343
12.4715
16.3806
20.641
25.0469
29.1445
33.0109
36.4883
39.3233
41.4845
43.0802
44.1821
44.8796
45.2825
45.4679
45.4931
45.3994
45.212
44.9443
44.6003
44.1748
43.6557
43.022
42.2423
41.2863
40.1563
38.8815
37.4833
35.9778
34.3852
32.7301
31.0451
29.3743
27.7712
26.2964
25.0063
23.9481
23.1506
22.6036
22.2187
7.56962
3.38085
-1.42013
-6.5163
-11.4737
-16.6515
-21.8102
-26.7867
-31.6488
-36.3116
-40.7591
-45.0276
-49.1026
-52.9994
-56.7287
-60.2861
-63.6653
-66.8514
-69.8193
-72.5367
-74.9586
-77.0306
-78.7041
-79.9315
-80.7034
-81.0335
-80.8885
-80.1988
-78.8845
-76.864
-74.0565
-70.3985
-65.8623
-60.4651
-54.261
-47.3683
-39.923
-32.1024
-24.4037
11.496
15.2257
19.2953
23.5086
27.4313
31.1386
34.4791
37.2088
39.2965
40.8454
41.9236
42.6156
43.0265
43.2305
43.2824
43.2225
43.0755
42.8552
42.5666
42.2061
41.7634
41.2205
40.5493
39.7216
38.7385
37.6249
36.3986
35.0721
33.6618
32.1876
30.6761
29.1636
27.6946
26.32
25.0886
24.0407
23.201
22.5605
22.05
6.85204
2.86346
-1.70422
-6.54584
-11.2483
-16.153
-21.0314
-25.7288
-30.3098
-34.6943
-38.8677
-42.8647
-46.6723
-50.3058
-53.7759
-57.079
-60.2101
-63.1559
-65.894
-68.395
-70.6188
-72.5165
-74.0455
-75.1657
-75.8718
-76.1789
-76.0589
-75.45
-74.2818
-72.4813
-69.9766
-66.7069
-62.639
-57.7765
-52.1561
-45.8675
-39.0243
-31.7757
-24.5823
10.5948
14.153
18.0401
22.0689
25.824
29.3783
32.5874
35.2159
37.2326
38.7361
39.7907
40.4765
40.8938
41.1141
41.1897
41.1596
41.0484
40.8701
40.6302
40.3266
39.9511
39.4878
38.9118
38.1978
37.3452
36.3753
35.303
34.1379
32.8931
31.5846
30.2338
28.8699
27.5294
26.2543
25.086
24.0581
23.1916
22.4783
21.8661
6.19584
2.39843
-1.94666
-6.54572
-11.0056
-15.6511
-20.2635
-24.6969
-29.0126
-33.1347
-37.0501
-40.7923
-44.3495
-47.7365
-50.9646
-54.0306
-56.9302
-59.6522
-62.1763
-64.4758
-66.515
-68.2501
-69.644
-70.6633
-71.3059
-71.5884
-71.4869
-70.9468
-69.906
-68.3004
-66.0659
-63.1458
-59.5042
-55.1339
-50.0566
-44.3372
-38.0672
-31.3699
-24.6715
9.76324
13.1575
16.8697
20.7218
24.3161
27.7238
30.8065
33.3375
35.2855
36.7448
37.7761
38.4548
38.8773
39.1116
39.2081
39.2045
39.125
38.9837
38.7866
38.533
38.2161
37.8227
37.3304
36.7164
35.9793
35.137
34.202
33.1818
32.0864
30.9285
29.7253
28.4999
27.2815
26.1042
25.0019
24.0024
23.1231
22.356
21.6644
5.59691
1.98192
-2.15063
-6.51866
-10.7476
-15.1469
-19.5074
-23.6909
-27.7557
-31.6304
-35.3032
-38.8062
-42.1286
-45.2853
-48.2871
-51.1318
-53.8161
-56.3298
-58.6546
-60.767
-62.6344
-64.2184
-65.4864
-66.4112
-66.9932
-67.2503
-67.1627
-66.6816
-65.7523
-64.3189
-62.325
-59.7189
-56.4632
-52.5435
-47.9689
-42.7827
-37.0562
-30.8884
-24.6722
8.99661
12.2341
15.7788
19.4617
22.9019
26.1687
29.1298
31.5668
33.4486
34.8648
35.8729
36.5439
36.9701
37.2165
37.3313
37.3512
37.2997
37.1909
37.0314
36.8216
36.5561
36.2236
35.8046
35.2785
34.6432
33.9139
33.1009
32.2098
31.2485
30.2268
29.1583
28.0609
26.9574
25.8749
24.8405
23.8766
22.9968
22.1934
21.4428
5.05122
1.61046
-2.31934
-6.46709
-10.4765
-14.6418
-18.7633
-22.7101
-26.5382
-30.1797
-33.6242
-36.9025
-40.0051
-42.9461
-45.7366
-48.375
-50.8587
-53.1785
-55.3184
-57.2568
-58.9649
-60.4088
-61.56
-62.3968
-62.9218
-63.1537
-63.0761
-62.6458
-61.8146
-60.5338
-58.754
-56.4286
-53.521
-50.0115
-45.8993
-41.2102
-35.9962
-30.3346
-24.5853
8.29067
11.3781
14.7626
18.2831
21.5755
24.707
27.5512
29.8978
31.7153
33.0895
34.0746
34.7373
35.1658
35.4225
35.5533
35.5938
35.567
35.4867
35.3602
35.1886
34.9679
34.6886
34.3337
33.8847
33.3389
32.7091
32.0038
31.2275
30.3858
29.4865
28.54
27.56
26.5639
25.5725
24.6068
23.6841
22.8147
21.9907
21.1998
4.55504
1.28066
-2.45567
-6.39342
-10.1941
-14.1369
-18.0318
-21.7547
-25.359
-28.7807
-32.0104
-35.0777
-37.9741
-40.7136
-43.307
-45.7529
-48.0499
-50.1896
-52.1575
-53.9347
-55.4954
-56.8095
-57.8526
-58.6076
-59.0793
-59.287
-59.2169
-58.8308
-58.0862
-56.9404
-55.3511
-53.2765
-50.6817
-47.5439
-43.8548
-39.6263
-34.8932
-29.7126
-24.413
7.64135
10.5853
13.8162