/*--------------------------------*- C++ -*----------------------------------*\
| =========                 |                                                 |
| \\      /  F ield         | OpenFOAM: The Open Source CFD Toolbox           |
|  \\    /   O peration     | Version:  2312                                  |
|   \\  /    A nd           | Website:  www.openfoam.com                      |
|    \\/     M anipulation  |                                                 |
\*---------------------------------------------------------------------------*/
FoamFile
{
    version     2.0;
    format      ascii;
    arch        "LSB;label=32;scalar=64";
    class       volScalarField;
    location    "300";
    object      turbulenceProperties:epsilon;
}
// * * * * * * * * * * * * * * * * * * * * * * * * * * * * * * * * * * * * * //

dimensions      [0 2 -3 0 0 0 0];

internalField   nonuniform List<scalar> 
10720
(
0.107381
0.162319
0.20902
0.254538
0.284445
0.312877
0.352211
0.406872
0.493373
0.63169
0.855009
1.23163
1.88316
3.06608
5.49243
11.6718
28.6509
94.5818
336.067
722.527
1097.63
1586.39
2564.11
4819.04
8732.09
12128.3
13438.2
29469.9
52591.6
27191.5
9270.01
1621.02
310.917
37.5488
5.99025e-14
4.64045e-14
2.93152e-14
1.41858e-14
3.54039
0.0322387
0.0155263
0.0228843
0.145224
0.0356121
0.0376142
0.0333068
0.0359147
0.0423032
0.0566908
0.0821575
0.126493
0.199153
0.333515
0.582549
1.34454
3.09089
14.3808
28.1717
38.3604
48.0956
72.5703
102.85
151.802
220.694
316.172
325.284
220.426
96.7898
25.9976
2.51692
0.144317
0.0349555
0.0125599
0.00417625
0.0012695
3.1337e-14
33.7753
2356.9
0.0160337
0.0190263
0.0175167
0.0144956
0.0111363
0.00841042
0.00658484
0.00533306
0.00449126
0.00390187
0.0034675
0.00313604
0.0031644
0.00386705
0.00590411
0.0114181
0.0246955
0.0585577
0.219468
1.82142
9.53191
27.7934
65.3108
130.031
564.503
1372.86
5063.66
19817.6
16594.9
4478.46
1662.93
896.309
258.635
40.1199
0.934047
2.00582e-14
1.48864e-14
0.0297597
1.57505
0.0115924
0.00168956
0.000631242
0.00328871
0.00134617
0.00138105
0.00145797
0.00179422
0.00165501
0.00153083
0.00137715
0.00118125
0.000915989
0.00061014
6.28674e-05
0.0059536
0.00613128
0.000646773
9.38581e-05
1.45904
0.299036
0.0487812
0.0385862
3.35467
28.7792
0.859446
0.78616
0.728494
0.42326
0.303952
0.18896
0.0934303
0.0406208
0.0156414
0.0055577
0.00178077
2.6612e-05
2.31202
187.476
0.00673004
0.00649943
0.00620956
0.00592312
0.0057412
0.00562454
0.00559114
0.00561208
0.00568455
0.00579081
0.00593012
0.00609794
0.00632763
0.00675305
0.00745043
0.00464476
0.00984613
0.0247144
0.0684126
0.147598
0.0827834
1.18006
2.70844
6.09956
16.625
39.469
758.32
4831.05
6832.83
4764.55
1838.08
653.274
317.682
89.0505
7.9215
0.960765
1.59185e-14
0.202768
5.42289
0.00412009
5.14393e-05
0.000599812
0.0003804
0.00303818
0.00459132
0.00499938
0.00511526
0.00521044
0.00529673
0.0054147
0.00552942
0.00563049
0.00573532
0.00585978
0.00573967
0.00570378
0.00459127
0.00504995
0.00405315
0.0013036
0.00248192
8.80861e-06
0.0153148
0.00164152
0.00410922
0.00104781
0.000585827
0.00125198
0.00175315
0.00194762
0.00229863
0.00241769
0.00240103
0.00220755
0.00204682
2.98432e-05
0.0271068
6.38281
0.00099641
0.00166919
0.00140883
0.001254
0.00112767
0.00103324
0.00095745
0.000908623
0.00090193
0.000907221
0.000903337
0.000978679
0.00113058
0.00126332
0.00140497
0.0016204
0.0018927
0.00201364
0.000228105
4.08779e-16
3.88277e-16
2.74909e-16
2.03694e-17
5.863e-17
0.0118889
74.5458
1052.48
2479.03
1735.34
1200.16
690.632
260.271
32.9421
25.5728
11.9121
1.88897
0.34515
0.20374
4.57358
0.000680722
0.000739359
0.0025453
0.00421137
0.0043109
0.00367452
0.00301017
0.00310583
0.00321495
0.00333511
0.00349179
0.0036761
0.00388614
0.00413131
0.00439727
0.00467099
0.00492204
0.00526216
0.00563008
0.00591637
0.00613593
0.00636069
0.00654187
0.00668144
0.00671122
0.00676044
0.00677953
0.00685902
0.00690615
0.00693081
0.00688218
0.00673867
0.00650886
0.00625141
0.00580829
0.00561732
0.000211927
0.0184859
0.297972
0.000560406
0.000460478
0.000475942
0.000469598
0.000479888
0.000496403
8.82483e-06
6.11369e-05
0.000112988
0.000164258
0.000211627
0.000251213
0.000295264
0.000340686
0.000395053
0.00046088
0.000513359
0.00052696
0.000459036
0.00060274
0.000499161
0.000136816
4.01223e-16
2.94333e-16
4.15408e-17
7.67634
2.09305e+06
3.32746e+06
2.15015e+06
1.62706e+06
2.33462e+06
4.66246e+06
992.855
8.43403
1.76088
1.49038
0.977395
0.212752
5.39835
0.00130067
0.00373312
0.00429595
0.00302501
0.00154931
0.000479437
0.000195293
0.000228673
0.000276685
0.000348324
0.000460189
0.000605273
0.000776236
0.000986836
0.00125089
0.00153538
0.00180247
0.00208058
0.00230796
0.00244939
0.00253559
0.00260059
0.0026457
0.002673
0.00268906
0.00269595
0.00269027
0.00267328
0.00264493
0.00261425
0.0025982
0.00262245
0.00265606
0.0027247
0.00270391
0.00327576
0.000405156
0.0124159
0.0554681
0.00254108
0.00258125
0.00268123
0.00277337
0.00285808
0.00293481
0.00299802
0.00305457
0.00310831
0.00315978
0.00321017
0.00326053
0.00331268
0.00336717
0.00342595
0.00348978
0.00371739
0.00362872
0.00331771
0.00319186
0.00273869
0.000751673
0.000731292
0.000460848
3.89767e-16
9.7018e-11
1.95433e-05
1.89918e-05
1.12607e-05
4.66799e-06
1.50643e-06
3.74539e-07
7.5422e-08
40.2168
1.63119
2.77005
1.07694
3.26424
28.6192
0.00399455
0.00333494
0.00131354
0.000543154
0.000240826
0.000168574
0.00014035
0.000145213
0.000157629
0.000171529
0.000189165
0.000211707
0.000239608
0.000275059
0.000321133
0.000383063
0.000428664
0.000472185
0.000525664
0.000563218
0.000590462
0.000613157
0.000631494
0.000645715
0.000657825
0.000667606
0.000673515
0.000676689
0.000676954
0.000674128
0.000671423
2.02929e-06
9.25786e-05
0.000238048
0.000357841
0.000864496
0.000161047
0.00681002
0.242179
0.00360018
0.00315792
0.00301455
0.00291843
0.00283317
0.00276053
0.0027137
0.00268902
0.00268511
0.00270047
0.00273303
0.00278295
0.00285044
0.00293582
0.00304092
0.00317231
0.00329501
0.00352692
0.0038233
0.00392602
0.00394114
0.00396598
0.00363555
0.00247174
0.000844496
0.125392
8.62801e-06
1.42133e-05
1.23783e-05
7.03241e-06
2.99516e-06
1.06599e-06
3.80136e-07
1.50465e-07
4.37435
19.0467
25.0709
2.67935e-09
1372.97
0.00195991
0.000220583
0.00024869
0.000220152
0.000318786
0.000771614
0.000819891
0.000813801
0.000844569
0.000855611
0.000852705
0.00084201
0.00082717
0.000810302
0.000792361
0.000834521
0.000773224
0.000673663
0.000674429
0.000666542
0.000652909
0.000635152
0.000614711
0.000594252
0.000576888
0.000561107
0.000545288
0.000530097
0.000514822
0.000499356
0.000476337
0.000428033
0.000373168
0.000333274
0.00028457
0.000302622
0.000190419
0.00199156
0.0997169
0.000736142
0.000930696
0.000796945
0.000722583
0.000657908
0.000599214
0.000557851
0.000535782
0.00052868
0.000534826
0.000555141
0.000591253
0.000642789
0.000712531
0.000804945
0.000926937
0.00106419
0.00125816
0.0016275
0.00209114
0.00252213
0.00288019
0.00319955
0.00327974
0.00368454
0.304581
1771.73
9.21104e-06
1.10939e-05
8.33689e-06
4.51029e-06
2.04059e-06
9.40477e-07
5.15221e-07
3.31454e-07
1.5977e-07
5.90682e-08
2.59856e-08
6.7843e-09
0.000322076
0.000228243
0.000448271
0.001409
0.00200997
0.0021715
0.00219871
0.00221609
0.00225731
0.00229656
0.00232852
0.00235922
0.00239247
0.0024296
0.00247079
0.00250713
0.00255908
0.00260384
0.00262574
0.00263059
0.00262348
0.00260797
0.00258676
0.00256497
0.00254173
0.00251137
0.00247246
0.00242611
0.00236998
0.00230404
0.00222816
0.00212782
0.00198568
0.00180934
0.00160392
0.00139541
0.0012288
0.000255478
0.0123021
0.000156159
0.000180149
0.000182984
0.000179661
0.000186569
0.000195093
0.000199966
0.000208439
0.000218385
0.00022873
0.000241953
0.000257542
0.000275688
0.000297895
0.000324262
0.00035726
0.000395049
0.00044238
0.000543733
0.000253009
0.000665648
0.00110107
0.00158826
0.00184113
0.00305236
0.270378
1534.59
5.42245e-06
8.69588e-06
8.41505e-06
5.66506e-06
3.11777e-06
1.70117e-06
1.04576e-06
7.24705e-07
4.26722e-07
1.97783e-07
9.84658e-08
3.52136e-08
0.000371199
0.00125802
0.00196177
0.00192762
0.00161121
0.00149585
0.00151949
0.00154974
0.00159764
0.0016558
0.00171453
0.00177993
0.00185461
0.00193896
0.00202778
0.00210101
0.0021541
0.00218753
0.00220037
0.0021982
0.00218514
0.0021644
0.00213997
0.00211557
0.00208904
0.00205755
0.00202102
0.00197996
0.00193263
0.00187972
0.00182411
0.00177339
0.00171801
0.00164479
0.00155797
0.00142247
0.00137463
0.00018376
0.00286974
0.000593114
0.000570462
0.000624782
0.000696893
0.000780434
0.000865031
0.000935093
0.0009955
0.00104862
0.00109428
0.0011344
0.0011703
0.00120296
0.00123501
0.00126477
0.00129828
0.00133667
0.00136607
0.00141534
0.00132142
0.00119831
0.00125892
0.00142579
0.00144955
0.00229841
0.21209
1190.7
2.9763e-06
6.16502e-06
7.50847e-06
6.19645e-06
4.06387e-06
2.54036e-06
1.70013e-06
1.23751e-06
8.20788e-07
4.37509e-07
2.4126e-07
1.20048e-07
0.00173239
0.00199392
0.00140166
0.00074424
0.000255225
0.000213584
0.000221362
0.000239349
0.000256857
0.000286587
0.000324396
0.000368856
0.000422529
0.000485342
0.000543403
0.000582984
0.000608267
0.000621808
0.000626487
0.000624759
0.000618366
0.000608722
0.000597801
0.000587173
0.000576462
0.000565341
0.00055415
0.000543107
0.000531457
0.000519196
0.000506425
0.000501823
0.00052215
0.000551158
0.000607336
0.000673226
0.000750495
0.000667567
2.22918e-05
0.0018887
0.00171217
0.00167405
0.00169346
0.00171243
0.00173218
0.00174608
0.00176135
0.0017804
0.0018037
0.00183116
0.00186105
0.00190051
0.00194856
0.00198642
0.00204686
0.00213843
0.0022015
0.00222864
0.00219357
0.002095
0.00198404
0.0019389
0.00178708
0.00223039
0.204912
1146.5
1.54355e-06
4.024e-06
6.05255e-06
6.04107e-06
4.66366e-06
3.29306e-06
2.37485e-06
1.79329e-06
1.27632e-06
7.48778e-07
4.47897e-07
2.74723e-07
0.00172546
0.000770674
4.99399e-05
0.000104623
3.90004e-05
3.71026e-05
3.98818e-05
4.27253e-05
4.50253e-05
4.8979e-05
5.35499e-05
5.90569e-05
6.63088e-05
7.52601e-05
8.42483e-05
9.12952e-05
9.65656e-05
0.000100669
0.000103863
0.000106327
0.000108188
0.000109617
0.000110747
0.000111663
0.000112208
0.000112411
0.000112428
0.000112324
0.000111942
0.000111303
0.000110335
0.00011073
0.000114771
0.000125131
0.000132889
4.18901e-06
9.81165e-05
0.000288296
3.68895e-05
0.00120125
0.00114202
0.00105929
0.00099713
0.000932267
0.000878191
0.000840801
0.000817607
0.000808387
0.000811922
0.00082639
0.000844894
0.000886539
0.000952204
0.00100546
0.00106269
0.00114673
0.00125144
0.00139766
0.00156135
0.00167892
0.00173714
0.00179458
0.00172478
0.00210208
0.189443
1062.97
7.62163e-07
2.44988e-06
4.47385e-06
5.32945e-06
4.79469e-06
3.79639e-06
2.94115e-06
2.33064e-06
1.73851e-06
1.09876e-06
7.04884e-07
4.94265e-07
0.000308104
0.000132104
4.60726e-05
8.67806e-05
2.91878e-05
4.76458e-05
5.55233e-05
5.89363e-05
5.9136e-05
5.74274e-05
5.42641e-05
4.99353e-05
4.49442e-05
4.01112e-05
3.60036e-05
3.2656e-05
3.00997e-05
2.82465e-05
2.69808e-05
2.62049e-05
2.58264e-05
2.57484e-05
2.59832e-05
2.65325e-05
2.72507e-05
2.7895e-05
2.84162e-05
2.88394e-05
2.91121e-05
2.92762e-05
2.90776e-05
2.7827e-05
1.95949e-05
3.1086e-05
3.82939e-06
8.44857e-05
9.38871e-05
5.94101e-05
0.000101087
9.01383e-05
0.000155291
5.82916e-05
0.00013633
0.000123518
0.000118732
0.000113196
0.000111031
0.000110871
0.000112111
0.000115745
0.000120186
0.000128284
0.000140577
0.000151898
4.3259e-06
6.0458e-05
0.000132337
0.000214683
0.000355943
0.000573981
0.000803763
0.00101493
0.00110604
0.00158123
0.140961
798.011
3.59932e-07
1.40308e-06
3.06496e-06
4.30255e-06
4.46742e-06
3.94546e-06
3.28287e-06
2.71325e-06
2.12909e-06
1.45211e-06
9.99756e-07
7.64732e-07
5.33125e-05
9.78359e-05
0.000281536
0.000592741
0.000654044
0.000658564
0.000666632
0.000674979
0.000681625
0.000687138
0.00069174
0.000695462
0.000698573
0.000700374
0.00070085
0.000700284
0.000698798
0.000696431
0.000693359
0.000689817
0.000685768
0.000680853
0.000674842
0.000667573
0.000658956
0.000649197
0.000638302
0.00062638
0.000613016
0.000598246
0.000582161
0.000565383
0.000538984
0.000495587
0.000436193
0.000367131
0.000308696
0.000222025
0.000192091
5.07355e-05
5.39864e-05
5.1069e-05
4.96051e-05
5.82239e-05
6.63034e-05
7.10054e-05
7.54148e-05
7.9018e-05
8.1603e-05
8.44309e-05
8.7096e-05
8.9658e-05
9.24849e-05
9.5409e-05
9.89306e-05
0.00011032
0.000124746
0.000141038
0.000164383
4.03801e-06
0.00014093
0.000322358
0.000450443
0.000893851
0.0800304
459.517
1.63018e-07
7.60162e-07
1.96133e-06
3.2069e-06
3.80701e-06
3.73191e-06
3.33497e-06
2.8739e-06
2.37346e-06
1.75284e-06
1.10535e-06
8.80972e-07
3.84586e-05
0.000518977
0.000782144
0.000692954
0.00069552
0.000686128
0.000672525
0.000671211
0.000672733
0.000675535
0.000678939
0.000682441
0.000685649
0.000688369
0.000690454
0.000691788
0.000692297
0.000693049
0.000693378
0.000692826
0.000690864
0.000687429
0.000682547
0.00067611
0.000668124
0.000658933
0.000648591
0.000637216
0.000624472
0.00061026
0.000595161
0.000580783
0.000567058
0.000547403
0.000518396
0.000482408
0.000432903
0.000336175
0.000275711
0.000269324
0.000260403
0.000305375
0.000362452
0.000418525
0.000467826
0.000505162
0.000533658
0.000555776
0.000572747
0.000586108
0.000596618
0.000604398
0.00061081
0.0006169
0.000621372
0.000624074
0.000627417
0.000628854
0.000611027
0.000590928
0.000516026
0.000453199
0.000437746
0.000626941
0.047757
0.0169844
0.0136045
3.91046e-07
1.17899e-06
2.22237e-06
2.99011e-06
3.23769e-06
3.10575e-06
2.79908e-06
2.42237e-06
1.51787e-06
1.29954e-07
7.48605e-09
0.000666547
0.000750889
0.000506286
0.000250185
0.000168987
0.000159422
0.00018872
0.000195324
0.000196818
0.000197783
0.00019907
0.000200734
0.000202671
0.000204743
0.000206794
0.000208727
0.000210429
0.000209957
0.000206189
0.000201214
0.000195881
0.000190558
0.000185427
0.000180668
0.000176344
0.000172415
0.000168774
0.000165362
0.000162063
0.000158783
0.000155442
0.000152697
0.000157256
0.000174444
0.000194104
0.000211373
0.000235637
0.000241843
0.000224821
0.000712878
0.000637642
0.000627038
0.000648537
0.000665185
0.000678856
0.00068975
0.000698015
0.000705328
0.000712325
0.000719333
0.000726576
0.000732935
0.000742104
0.000753806
0.000761915
0.000768183
0.000775798
0.00078083
0.000795915
0.000797452
0.000740648
0.000665989
0.000597879
0.000606531
0.0270667
0.0395786
0.0390469
1.91435e-07
6.68394e-07
1.43987e-06
2.17876e-06
2.59342e-06
2.66777e-06
2.52068e-06
2.24304e-06
1.95878e-08
1.15766e-13
2.26463e-15
0.000626086
0.000286561
2.74333e-05
3.80197e-05
2.42455e-05
2.35457e-05
2.8132e-05
2.87373e-05
2.85405e-05
2.83616e-05
2.79629e-05
2.76768e-05
2.77072e-05
2.78456e-05
2.82043e-05
2.87922e-05
2.95171e-05
3.0107e-05
3.03558e-05
3.04959e-05
3.06024e-05
3.07223e-05
3.08584e-05
3.09708e-05
3.09904e-05
3.09875e-05
3.09915e-05
3.0994e-05
3.09748e-05
3.09141e-05
3.07993e-05
3.0759e-05
3.21736e-05
3.62203e-05
4.08666e-05
4.61934e-05
3.46341e-05
8.75997e-05
0.000123435
0.000421887
0.00038787
0.000339028
0.000307092
0.000280985
0.000261209
0.000248614
0.000240212
0.000235844
0.000235329
0.000237988
0.000243409
0.000248776
0.000260931
0.000280248
0.000290826
0.000302324
0.000319638
0.000334445
0.00036569
0.000414225
0.000463054
0.000500799
0.000501082
0.000490148
0.0108313
0.0456915
0.0550037
8.92972e-08
3.58325e-07
8.75804e-07
1.48075e-06
1.92956e-06
2.12558e-06
2.10801e-06
8.08528e-07
4.38083e-13
2.07804e-15
5.3672e-16
0.00011869
5.09542e-05
7.8455e-06
1.85425e-05
2.17675e-05
2.37783e-05
2.36611e-05
2.38341e-05
2.36452e-05
2.32673e-05
2.25396e-05
2.18231e-05
2.13388e-05
2.09363e-05
2.07166e-05
2.071e-05
2.08224e-05
2.15635e-05
2.22656e-05
2.29622e-05
2.36495e-05
2.43346e-05
2.50055e-05
2.55793e-05
2.5957e-05
2.62121e-05
2.63965e-05
2.65093e-05
2.65369e-05
2.6465e-05
2.63168e-05
2.60562e-05
2.55306e-05
2.33708e-05
2.00547e-05
1.56782e-05
1.83085e-05
2.62013e-05
3.34697e-05
2.06556e-05
2.61599e-05
5.08297e-05
4.17941e-05
3.87635e-05
3.66152e-05
3.44047e-05
3.32515e-05
3.26537e-05
3.24216e-05
3.29137e-05
3.38638e-05
3.48951e-05
3.70899e-05
4.04362e-05
4.26816e-05
4.51916e-05
4.86919e-05
5.19357e-05
5.98028e-05
2.22678e-05
8.60697e-05
0.000158205
0.000228678
0.000271902
0.00309052
0.0361947
0.0527404
3.97121e-08
1.81966e-07
5.01648e-07
9.42692e-07
1.34039e-06
1.57953e-06
1.64536e-06
9.63951e-07
3.11673e-12
2.56139e-15
3.32659e-15
1.76816e-05
1.9437e-05
2.70055e-05
0.000125577
0.000144507
0.000153556
0.000151592
0.000155028
0.000156349
0.000155947
0.000154822
0.000153443
0.000152028
0.00015069
0.000149421
0.000148189
0.000146956
0.000149106
0.00015008
0.00015032
0.000150034
0.000149338
0.000148307
0.000146965
0.000145315
0.000143411
0.000141269
0.000138906
0.00013629
0.00013337
0.000130221
0.000126745
0.000122216
0.000110229
9.32896e-05
7.19999e-05
4.92303e-05
2.77192e-05
3.24157e-05
1.16404e-05
1.49613e-05
1.60517e-05
1.6811e-05
1.84047e-05
2.00716e-05
2.06582e-05
2.11604e-05
2.13934e-05
2.13311e-05
2.13652e-05
2.13694e-05
2.13703e-05
2.14609e-05
2.15753e-05
2.17243e-05
2.1876e-05
2.2057e-05
2.22759e-05
2.24604e-05
2.47506e-05
3.21588e-05
4.09558e-05
5.3594e-05
4.74198e-05
0.000604504
0.0197305
0.0345592
1.68405e-08
8.76412e-08
2.71225e-07
5.64151e-07
8.73225e-07
1.10032e-06
1.20588e-06
8.92602e-07
1.38949e-11
4.60168e-13
8.67566e-16
4.14926e-05
0.000124013
0.000230935
0.00026248
0.000259144
0.000258762
0.000261478
0.000263796
0.000264091
0.000262905
0.000261294
0.000259768
0.000258467
0.000257377
0.00025642
0.000255511
0.000254588
0.000253576
0.000252431
0.000251122
0.000249601
0.0002478
0.000245681
0.000243186
0.000240274
0.000236997
0.000233367
0.000229392
0.000225042
0.00022022
0.000214974
0.000209508
0.000204594
0.000195023
0.000183448
0.000161584
0.000133813
0.000104885
8.01964e-05
6.67588e-05
8.43507e-05
0.000110212
0.000119946
0.000129598
0.000139093
0.000145117
0.000148516
0.000150101
0.000150564
0.000150392
0.000149819
0.000148949
0.0001479
0.000146762
0.000145459
0.000143939
0.000142426
0.000141089
0.00013953
0.000129109
0.000108596
8.69974e-05
6.72238e-05
4.6493e-05
0.000206429
0.0150557
0.0315069
6.81091e-09
4.00703e-08
1.3869e-07
3.18309e-07
5.3557e-07
7.21859e-07
8.34085e-07
7.34649e-07
4.73437e-11
4.0328e-17
5.33024e-16
0.000201947
0.000256503
0.000204667
0.000134379
0.000139081
0.000134092
0.00013111
0.000130609
0.000130578
0.000130168
0.000129734
0.000129577
0.000129654
0.000129843
0.000130057
0.000130227
0.000130308
0.000130266
0.000130084
0.000129739
0.000129211
0.000128476
0.000127521
0.000126342
0.000124931
0.000123332
0.000121562
0.000119622
0.000117508
0.00011518
0.000112625
0.000109859
0.000107909
0.000108947
0.000111795
0.000113918
0.000111555
0.000101009
8.61282e-05
0.000258501
0.000259823
0.00027633
0.000280853
0.000282721
0.000286211
0.000286007
0.000284358
0.000282388
0.000280566
0.000278999
0.000277639
0.000276383
0.00027523
0.00027421
0.000273076
0.000271576
0.000269878
0.000268163
0.00026707
0.000261822
0.000242042
0.000217881
0.000199316
0.000153934
0.000189582
0.0183663
0.0456743
2.62779e-09
1.74093e-08
6.7194e-08
1.69783e-07
3.10326e-07
4.4779e-07
5.46969e-07
5.43266e-07
1.29926e-10
2.97302e-15
1.47916e-15
0.000257048
0.00014363
4.74468e-05
2.46012e-05
2.08988e-05
2.06691e-05
2.03195e-05
1.98788e-05
1.94755e-05
1.90736e-05
1.84391e-05
1.78609e-05
1.7507e-05
1.7214e-05
1.70713e-05
1.71177e-05
1.72724e-05
1.75557e-05
1.79461e-05
1.84211e-05
1.89412e-05
1.9504e-05
2.00825e-05
2.05898e-05
2.09259e-05
2.11593e-05
2.13479e-05
2.14863e-05
2.15711e-05
2.15913e-05
2.1539e-05
2.14138e-05
2.14284e-05
2.65466e-07
9.31951e-06
2.29911e-05
3.93139e-05
5.29567e-05
5.77846e-05
0.000200582
0.000183242
0.00017104
0.000168539
0.000164524
0.000161348
0.000158594
0.000156497
0.000155227
0.000154619
0.000154538
0.000154825
0.000155385
0.000156197
0.000157296
0.000158551
0.000159786
0.000161193
0.000162865
0.000165237
0.000171651
0.000180424
0.000185105
0.000185111
0.000169323
0.00018859
0.0188975
0.0555792
9.67486e-10
7.19421e-09
3.08991e-08
8.58298e-08
1.70416e-07
2.63655e-07
3.415e-07
3.72149e-07
3.04385e-10
1.01834e-14
6.97361e-16
6.94401e-05
2.72235e-05
7.0202e-06
2.61977e-16
2.61306e-16
2.60679e-16
2.60021e-16
2.59296e-16
2.58546e-16
2.57797e-16
2.57046e-16
2.56294e-16
2.55549e-16
2.54817e-16
2.54105e-16
2.53419e-16
2.52751e-16
2.52096e-16
2.51457e-16
2.5083e-16
2.50192e-16
2.49497e-16
2.48724e-16
2.47848e-16
2.46815e-16
2.45653e-16
2.44388e-16
2.43001e-16
2.41485e-16
2.39775e-16
2.378e-16
2.35608e-16
2.3326e-16
5.31964e-08
1.89915e-06
4.76105e-06
8.57301e-06
8.04535e-06
2.41342e-05
2.1178e-05
2.4293e-05
8.46552e-06
1.32461e-06
2.34603e-05
2.31751e-05
2.23996e-05
2.20514e-05
2.18182e-05
2.15291e-05
2.15136e-05
2.15663e-05
2.17082e-05
1.31096e-07
1.71483e-06
3.50476e-06
5.39483e-06
7.61217e-06
1.01908e-05
1.26635e-05
1.74423e-05
3.32736e-05
5.47637e-05
7.85649e-05
9.55506e-05
0.000132809
0.0131519
0.0455535
3.40063e-10
2.83103e-09
1.35069e-08
4.12148e-08
8.89475e-08
1.47881e-07
2.03775e-07
2.40065e-07
6.29495e-10
1.10409e-13
4.05592e-15
1.16426e-05
2.58656e-16
2.39675e-06
4.43603e-06
5.48722e-06
6.50399e-06
7.12861e-06
7.28498e-06
7.26491e-06
7.19945e-06
7.0037e-06
6.783e-06
6.62013e-06
6.45768e-06
6.34373e-06
6.30494e-06
6.30851e-06
6.36918e-06
6.4798e-06
6.63183e-06
6.8135e-06
7.02031e-06
7.24531e-06
7.44347e-06
7.56671e-06
7.64519e-06
7.70705e-06
7.75091e-06
7.77642e-06
7.77897e-06
7.75596e-06
7.70849e-06
7.6478e-06
7.42107e-06
6.84653e-06
5.82939e-06
4.23596e-06
4.38933e-06
3.50081e-06
2.87186e-06
3.3426e-06
1.24439e-06
1.86834e-07
2.54857e-16
2.53766e-16
2.52845e-16
2.52057e-16
2.51293e-16
2.50514e-16
2.49706e-16
2.48815e-16
2.47813e-16
1.83753e-08
2.42405e-07
5.01147e-07
7.81941e-07
1.1201e-06
1.52331e-06
1.92381e-06
2.69097e-06
5.20584e-06
8.6779e-06
1.36675e-05
1.22884e-05
5.49274e-05
0.00566955
0.0230959
1.14138e-10
1.06176e-09
5.61935e-09
1.88406e-08
4.42343e-08
7.92336e-08
1.16551e-07
1.47563e-07
1.17556e-09
6.31875e-13
2.41604e-14
4.13229e-06
1.08822e-05
1.57597e-05
2.9134e-05
3.54249e-05
4.09825e-05
4.47503e-05
4.66941e-05
4.76622e-05
4.82448e-05
4.86349e-05
4.88834e-05
4.90326e-05
4.91039e-05
4.91102e-05
4.90671e-05
4.89819e-05
4.88562e-05
4.86931e-05
4.84911e-05
4.82406e-05
4.79249e-05
4.75317e-05
4.70546e-05
4.64852e-05
4.58303e-05
4.51027e-05
4.43057e-05
4.34438e-05
4.25157e-05
4.15115e-05
4.0432e-05
3.93421e-05
3.7479e-05
3.39741e-05
2.8444e-05
2.03415e-05
1.20787e-05
9.90152e-06
1.08211e-05
7.22288e-06
8.04972e-06
7.77862e-06
7.8722e-06
8.02122e-06
7.91049e-06
7.90093e-06
7.87441e-06
7.77858e-06
7.74839e-06
7.71518e-06
7.68463e-06
7.681e-06
7.69593e-06
7.73803e-06
7.78364e-06
7.82836e-06
7.87214e-06
7.90673e-06
7.9288e-06
7.52175e-06
6.5643e-06
5.20318e-06
5.98557e-06
1.22655e-05
0.000948175
0.000104295
0.000169874
3.79621e-10
2.22769e-09
8.20853e-09
2.10017e-08
4.06472e-08
6.40539e-08
8.70455e-08
2.00416e-09
2.98198e-12
1.19617e-13
3.01957e-05
6.73472e-05
8.4707e-05
7.59572e-05
7.87049e-05
8.12444e-05
8.30519e-05
8.38656e-05
8.39982e-05
8.38992e-05
8.37441e-05
8.35343e-05
8.32625e-05
8.29419e-05
8.25816e-05
8.21848e-05
8.17538e-05
8.12872e-05
8.07824e-05
8.02332e-05
7.96207e-05
7.89188e-05
7.81031e-05
7.7162e-05
7.60918e-05
7.49141e-05
7.36412e-05
7.22727e-05
7.0814e-05
6.92666e-05
6.76119e-05
6.58458e-05
6.42061e-05
6.25215e-05
5.96535e-05
5.47495e-05
4.63981e-05
3.70252e-05
2.74289e-05
5.3077e-05
5.14122e-05
5.35933e-05
5.406e-05
5.41966e-05
5.45765e-05
5.49123e-05
5.51167e-05
5.52215e-05
5.52415e-05
5.51896e-05
5.50716e-05
5.48837e-05
5.45736e-05
5.42978e-05
5.40518e-05
5.37167e-05
5.33043e-05
5.28386e-05
5.23e-05
5.17197e-05
4.84667e-05
4.18468e-05
3.28919e-05
2.50222e-05
1.62646e-05
0.000462656
0.00179792
0.00374548
1.2952e-10
8.41918e-10
3.41317e-09
9.53078e-09
1.99863e-08
3.38791e-08
4.94616e-08
3.09961e-09
1.21746e-11
3.2414e-15
0.000109154
0.000104774
9.13134e-05
7.15963e-05
6.20822e-05
5.64131e-05
5.26112e-05
5.01839e-05
4.83453e-05
4.68539e-05
4.57044e-05
4.4778e-05
4.39794e-05
4.32804e-05
4.26506e-05
4.207e-05
4.15205e-05
4.09947e-05
4.04752e-05
3.99572e-05
3.94245e-05
3.88661e-05
3.827e-05
3.76337e-05
3.69703e-05
3.62822e-05
3.55751e-05
3.48452e-05
3.4096e-05
3.33279e-05
3.25332e-05
3.16989e-05
3.0931e-05
3.08063e-05
3.17225e-05
3.31615e-05
3.40645e-05
3.29159e-05
2.80324e-05
0.000119703
0.00011238
0.000112009
0.000111243
0.000110483
0.000110174
0.000109822
0.000109354
0.000108829
0.000108283
0.000107711
0.000107103
0.000106456
0.000105617
0.000104874
0.00010426
0.000103448
0.000102525
0.000101556
0.000100527
9.97908e-05
9.77155e-05
9.20885e-05
8.28129e-05
7.33047e-05
6.28045e-05
0.000420644
0.0041781
0.000604546
0.000603293
3.03637e-10
1.35492e-09
4.13729e-09
9.42893e-09
1.72524e-08
2.71248e-08
4.21603e-09
4.22717e-11
4.03548e-14
9.72185e-05
4.87581e-05
2.58833e-05
1.68856e-05
1.18548e-05
7.59834e-06
4.69799e-06
2.91652e-06
1.73537e-06
8.12014e-07
1.01153e-07
6.11923e-06
5.80166e-06
5.52128e-06
5.30328e-06
5.16848e-06
5.08039e-06
5.05336e-06
5.07678e-06
5.14443e-06
5.24284e-06
5.36918e-06
5.51685e-06
5.64508e-06
5.71121e-06
5.74572e-06
5.77496e-06
5.79656e-06
5.80969e-06
5.81317e-06
5.80544e-06
5.78352e-06
5.76555e-06
5.8805e-06
3.19134e-07
4.17125e-06
9.69484e-06
1.53724e-05
1.79161e-05
7.62106e-05
7.43634e-05
7.05594e-05
6.85715e-05
6.69977e-05
6.57162e-05
6.46465e-05
6.36632e-05
6.28045e-05
6.20678e-05
6.14143e-05
6.08288e-05
6.03175e-05
5.98561e-05
5.93918e-05
5.8931e-05
5.84847e-05
5.80886e-05
5.77708e-05
5.74892e-05
5.74943e-05
5.90981e-05
6.16549e-05
6.37074e-05
6.43203e-05
6.24611e-05
0.000156233
0.00331642
0.00171
0.00195663
1.046e-10
5.14177e-10
1.71899e-09
4.26934e-09
8.46146e-09
1.43637e-08
4.78374e-09
1.18472e-10
2.56878e-13
2.19902e-05
9.18919e-06
3.95694e-06
2.58283e-06
1.84317e-06
1.209e-06
7.4922e-07
4.54619e-07
2.63505e-07
1.20286e-07
1.43823e-08
2.34001e-16
2.32791e-16
2.31661e-16
2.3061e-16
2.29616e-16
2.28649e-16
2.27684e-16
2.26701e-16
2.25685e-16
2.24606e-16
2.23422e-16
2.221e-16
2.20646e-16
2.1907e-16
2.17387e-16
2.15633e-16
2.13796e-16
2.1187e-16
2.09872e-16
2.07759e-16
2.05516e-16
2.03096e-16
2.00598e-16
6.12529e-08
8.16803e-07
1.95008e-06
3.02527e-07
6.1675e-06
5.93797e-06
9.03788e-06
5.85731e-06
4.24674e-06
3.26631e-06
2.59931e-06
2.09263e-06
1.66406e-06
1.312e-06
1.03908e-06
8.35332e-07
6.89861e-07
6.17107e-07
6.19317e-07
6.64312e-07
7.62038e-07
9.41127e-07
1.20596e-06
1.56068e-06
1.9614e-06
2.38174e-06
4.47078e-06
9.84346e-06
1.70918e-05
2.47113e-05
3.18696e-05
5.25248e-05
0.00112268
0.00239309
0.003136
3.44701e-11
1.867e-10
6.84509e-10
1.85585e-09
3.99703e-09
7.34598e-09
4.37376e-09
2.568e-10
1.20656e-12
3.67519e-06
2.39027e-16
3.89215e-07
4.46126e-07
6.60552e-07
9.59279e-07
1.16678e-06
1.2675e-06
1.31694e-06
1.34125e-06
1.32179e-06
1.2833e-06
1.24823e-06
1.20713e-06
1.17243e-06
1.15249e-06
1.14099e-06
1.14254e-06
1.15675e-06
1.19476e-06
1.21795e-06
1.23407e-06
1.26234e-06
1.29075e-06
1.30614e-06
1.31531e-06
1.32514e-06
1.33407e-06
1.34112e-06
1.34552e-06
1.34653e-06
1.34382e-06
1.33737e-06
1.32659e-06
1.21579e-06
9.97938e-07
5.92594e-07
2.15274e-07
1.25849e-06
8.29136e-07
1.27705e-06
8.83145e-07
6.12378e-07
4.74696e-07
3.81562e-07
3.00337e-07
2.37021e-07
1.85338e-07
1.44393e-07
1.15309e-07
9.46573e-08
8.42932e-08
8.47281e-08
9.11852e-08
1.05275e-07
1.31131e-07
1.6974e-07
2.22092e-07
2.82302e-07
3.46533e-07
6.55915e-07
1.45356e-06
2.53201e-06
3.94434e-06
2.5292e-06
1.11656e-05
0.000181566
0.00152856
0.0023919
1.08828e-11
6.49675e-11
2.61523e-10
7.75611e-10
1.81942e-09
3.62974e-09
3.28496e-09
4.29101e-10
4.32087e-12
1.90524e-06
5.72148e-06
2.49847e-06
2.86265e-06
4.16825e-06
5.91081e-06
7.16967e-06
7.96978e-06
8.50495e-06
8.88692e-06
9.14369e-06
9.30655e-06
9.41234e-06
9.47841e-06
9.51661e-06
9.53737e-06
9.54596e-06
9.54445e-06
9.53503e-06
9.61661e-06
9.49803e-06
9.25364e-06
9.04603e-06
8.86585e-06
8.70729e-06
8.56082e-06
8.41826e-06
8.27296e-06
8.11972e-06
7.9566e-06
7.78005e-06
7.59038e-06
7.38905e-06
7.17225e-06
6.43554e-06
5.1736e-06
3.01084e-06
7.68228e-07
2.36524e-06
4.78876e-06
2.69951e-06
2.72159e-06
2.62308e-06
2.73678e-06
2.88918e-06
2.93866e-06
3.01333e-06
3.06628e-06
3.0727e-06
3.09239e-06
3.09988e-06
3.09981e-06
3.10937e-06
3.11535e-06
3.12193e-06
3.12551e-06
3.12603e-06
3.12348e-06
3.11596e-06
3.09846e-06
3.04251e-06
2.7919e-06
2.37563e-06
1.86622e-06
1.71628e-06
2.7069e-06
5.61202e-06
0.000336511
0.000170983
0.000153043
2.17219e-11
9.60715e-11
3.1204e-10
7.9908e-10
1.73433e-09
2.12203e-09
5.59983e-10
1.19852e-11
1.35541e-05
3.86642e-05
3.89158e-05
3.63054e-05
3.66134e-05
3.73661e-05
3.78588e-05
3.7996e-05
3.79392e-05
3.7794e-05
3.7589e-05
3.73407e-05
3.70803e-05
3.68164e-05
3.65503e-05
3.62885e-05
3.60268e-05
3.57589e-05
3.54806e-05
3.55919e-05
3.51041e-05
3.42029e-05
3.38312e-05
3.34197e-05
3.29695e-05
3.24822e-05
3.19585e-05
3.13953e-05
3.07882e-05
3.014e-05
2.94446e-05
2.87062e-05
2.79371e-05
2.66294e-05
2.50882e-05
2.33461e-05
2.03074e-05
1.62153e-05
1.15678e-05
2.30402e-05
1.87501e-05
1.76965e-05
1.78312e-05
1.84494e-05
1.92761e-05
2.00655e-05
2.07455e-05
2.13068e-05
2.17348e-05
2.2047e-05
2.22628e-05
2.23957e-05
2.24604e-05
2.24624e-05
2.23974e-05
2.22632e-05
2.20724e-05
2.18414e-05
2.15747e-05
2.12701e-05
2.07628e-05
1.89822e-05
1.61557e-05
1.26024e-05
8.84037e-06
5.67409e-06
5.28209e-06
0.000107924
0.000505514
0.000859177
6.99132e-12
3.40123e-11
1.21111e-10
3.39143e-10
8.02228e-10
1.22973e-09
5.78866e-10
2.59677e-11
6.22816e-05
6.5907e-05
5.95439e-05
5.52238e-05
5.26153e-05
5.09768e-05
4.97382e-05
4.8628e-05
4.7598e-05
4.66618e-05
4.58467e-05
4.51322e-05
4.44904e-05
4.39153e-05
4.33941e-05
4.29051e-05
4.24378e-05
4.19795e-05
4.15173e-05
4.10415e-05
4.0665e-05
4.02186e-05
3.97002e-05
3.91133e-05
3.84768e-05
3.7806e-05
3.71064e-05
3.63757e-05
3.56095e-05
3.48099e-05
3.39732e-05
3.31002e-05
3.21832e-05
3.13308e-05
3.03805e-05
2.91157e-05
2.73532e-05
2.44774e-05
2.00361e-05
6.67725e-05
5.9617e-05
5.74107e-05
5.65127e-05
5.61867e-05
5.60241e-05
5.58708e-05
5.56365e-05
5.53323e-05
5.49603e-05
5.4519e-05
5.40316e-05
5.35154e-05
5.29784e-05
5.24193e-05
5.18173e-05
5.11559e-05
5.04508e-05
4.97313e-05
4.90036e-05
4.8277e-05
4.77029e-05
4.59159e-05
4.2716e-05
3.81793e-05
3.35755e-05
2.86891e-05
2.48263e-05
0.000100237
0.00086583
0.000593218
0.000453622
1.16284e-11
4.54504e-11
1.39363e-10
3.5985e-10
6.58778e-10
4.88038e-10