/*--------------------------------*- C++ -*----------------------------------*\
| =========                 |                                                 |
| \\      /  F ield         | OpenFOAM: The Open Source CFD Toolbox           |
|  \\    /   O peration     | Version:  2312                                  |
|   \\  /    A nd           | Website:  www.openfoam.com                      |
|    \\/     M anipulation  |                                                 |
\*---------------------------------------------------------------------------*/
FoamFile
{
    version     2.0;
    format      ascii;
    arch        "LSB;label=32;scalar=64";
    class       volScalarField;
    location    "300";
    object      turbulenceProperties:nut;
}
// * * * * * * * * * * * * * * * * * * * * * * * * * * * * * * * * * * * * * //

dimensions      [0 2 -1 0 0 0 0];

internalField   nonuniform List<scalar> 
10720
(
8.99026e-05
0.000120271
0.000148823
0.000154801
0.000142658
0.000131605
0.000129109
0.000135547
0.00015203
0.00018022
0.000225199
0.000298803
0.000421385
0.000635606
0.00103904
0.00189907
0.00361057
0.00785801
0.015629
0.0251133
0.0376222
0.0609704
0.112319
0.233366
0.439374
0.640339
1.3192
2.22408
1.61269
0.598263
0.190497
0.0246702
0.0043656
0.000679209
1.50244e-18
1.93947e-18
3.07008e-18
6.34436e-18
0.00627112
4.43415e-05
4.08242e-05
9.05331e-05
0.000178274
0.000112252
0.000116824
0.000115147
0.000146441
0.000165733
0.000168164
0.000173392
0.000192658
0.000229382
0.000302739
0.000409456
0.000657935
0.00101095
0.00294077
0.00308943
0.00351199
0.00436861
0.00674869
0.0083548
0.0110732
0.0143369
0.0179221
0.0141985
0.00747655
0.00273463
0.00066777
6.4983e-05
4.11499e-06
1.18685e-06
5.35582e-07
2.29495e-07
9.07976e-08
2.87201e-18
0.00372849
0.244826
0.00037491
0.000431586
0.000322194
0.000211161
0.000135556
0.000100713
9.42306e-05
9.89434e-05
0.00010742
0.000118327
0.000131657
0.000146294
0.000179775
0.000264278
0.000473429
0.0010112
0.00216353
0.00489067
0.0106536
0.020117
0.0327069
0.0495689
0.0791458
0.124097
0.428711
0.53386
1.379
1.52321
1.3523
1.90069
1.18708
0.302725
0.081864
0.0125881
0.000202066
4.48695e-18
6.04577e-18
4.14693e-05
0.00432386
0.000117621
0.000108564
5.11027e-05
7.18901e-05
3.33855e-05
4.25475e-05
5.25309e-05
7.64392e-05
8.21469e-05
8.92129e-05
9.61297e-05
0.000100043
9.57034e-05
8.04306e-05
2.41198e-05
0.00142409
0.00238213
0.000591525
0.0105178
0.00352818
0.000683465
0.0334862
0.00596116
0.000401406
0.0056121
0.000204427
0.000285396
0.000327217
0.000183767
0.000163777
9.58964e-05
4.65064e-05
2.05824e-05
8.53516e-06
3.37455e-06
1.25039e-06
2.25094e-08
0.0024794
0.164401
0.000217491
0.000196517
0.000196233
0.000197585
0.000201482
0.000207689
0.000216371
0.000226166
0.000236961
0.000247572
0.000258025
0.000268245
0.000278
0.00029311
0.000315678
0.000220014
0.000395595
0.000970041
0.00260112
0.00638401
0.0138253
0.0283414
0.0628001
0.16293
0.256708
0.441344
0.972169
0.911069
0.594954
0.503122
0.476881
0.322603
0.0866432
0.013805
0.00101434
0.000156276
5.65379e-18
0.000230117
0.0429993
0.000133319
4.61799e-05
6.94676e-05
8.72325e-05
0.000116348
0.000159104
0.000186693
0.000211715
0.00023915
0.000274639
0.000326101
0.000395577
0.00048655
0.000606582
0.000762274
0.000930745
0.00114213
0.00124089
0.00155349
0.00166827
0.000503236
0.000893257
2.93506e-06
0.00467272
0.00059509
0.00156718
0.00036028
0.000155326
0.000261075
0.000368773
0.000395616
0.000299328
0.000232692
0.000189739
0.000158684
0.000153039
3.11496e-06
0.00704694
0.474523
0.000190242
0.000192978
0.00018967
0.000190002
0.000191358
0.000195164
0.000201185
0.00020982
0.000221479
0.000236742
0.000256254
0.000281281
0.000313474
0.000354645
0.000407473
0.000480289
0.00057863
0.000694282
0.000128982
2.20168e-16
2.31793e-16
3.27381e-16
4.4184e-15
1.53505e-15
0.078813
1.52934e-10
4.40472e-12
2.46869e-11
1.10804e-10
1.07689e-09
7.52485e-08
8.009e-05
0.0196116
0.0200118
0.00750615
0.00155443
0.000501643
0.000511619
0.103172
0.000203326
0.000177806
0.000198316
0.000234948
0.000247398
0.000249067
0.000255329
0.000280972
0.000313953
0.000358924
0.000419749
0.000497482
0.000593968
0.00071281
0.000855502
0.0010239
0.00121541
0.00143816
0.00168718
0.00195364
0.00222552
0.00251352
0.00283912
0.00299691
0.00288273
0.00276701
0.00264206
0.00254208
0.0024313
0.00232655
0.00223114
0.00212088
0.00198782
0.0018551
0.00167509
0.00159296
6.7774e-05
0.00472952
1.38398
0.000395625
0.00034226
0.000351824
0.000344641
0.00035028
0.000358293
6.29997e-06
4.31351e-05
7.86664e-05
0.000112702
0.000142904
0.000166688
0.000192171
0.000217019
0.000245604
0.000278608
0.000300644
0.000298023
0.000249793
0.000314109
0.000247747
6.70095e-05
2.24314e-16
3.05776e-16
2.16654e-15
6.59172e-11
1.01513e-16
8.68432e-16
4.34071e-15
3.95544e-14
1.13494e-12
2.32962e-10
3.45917e-05
8.33363e-13
0.00760788
0.00682445
0.00295576
0.000769819
0.107152
0.000406951
0.000434947
0.000455338
0.000441574
0.000443966
0.000345343
0.000139025
0.000160416
0.000190931
0.000236093
0.000305825
0.000393645
0.000493062
0.000610872
0.00075284
0.000895967
0.0010167
0.00113027
0.00120275
0.00123032
0.00123547
0.00123409
0.00122571
0.00121173
0.00119516
0.00117428
0.00115116
0.00112984
0.00111261
0.00109887
0.0010962
0.00111757
0.00115073
0.00121212
0.00124285
0.00157353
0.000207753
0.00691684
0.813293
0.000757897
0.000757833
0.000770917
0.000784298
0.00080334
0.000825847
0.000852392
0.000886323
0.000929238
0.000982319
0.00104783
0.00112782
0.00122465
0.00134191
0.0014836
0.00165716
0.00188369
0.00204289
0.00179487
0.00165028
0.00134502
0.000348977
0.00032565
0.000209101
2.30907e-16
9.27663e-22
4.60516e-27
4.73889e-27
7.99241e-27
1.92802e-26
5.97438e-26
2.40295e-25
1.19329e-24
9.41286e-15
2.2132e-15
2.37151e-13
2.29898e-11
8.13901e-10
3.44033e-07
0.000782407
0.000819781
0.000808969
0.000395109
0.000173707
0.000120581
9.94154e-05
0.000101571
0.000108563
0.000116041
0.000125422
0.0001373
0.000151723
0.000169719
0.000192666
0.000222879
0.000241134
0.000255877
0.000273948
0.000284618
0.000290967
0.000295662
0.000298578
0.000299915
0.000300004
0.000298835
0.000297283
0.000295796
0.000294911
0.000295523
0.000298261
9.18172e-07
4.27473e-05
0.000112473
0.000172633
0.00042497
7.93807e-05
0.00318899
0.32496
0.00136863
0.00137506
0.00139452
0.00141432
0.00143888
0.00146661
0.00150486
0.00155688
0.00162545
0.00171295
0.00182223
0.00187359
0.00188102
0.00189377
0.0019113
0.00193547
0.00194408
0.00200522
0.00208503
0.00203999
0.0019393
0.00184811
0.00161764
0.00105674
0.00035942
2.70461e-12
1.04311e-26
6.33211e-27
7.27078e-27
1.27979e-26
3.00484e-26
8.44287e-26
2.36758e-25
5.98144e-25
4.4612e-17
1.8965e-15
5.5162e-14
3.35902e-23
4.1178e-10
0.00141582
0.000160155
0.000183966
0.000160926
0.000231936
0.000558785
0.000589153
0.000577818
0.000590533
0.000587713
0.000574248
0.000555015
0.000532789
0.000508992
0.000484266
0.000494828
0.000443337
0.000372093
0.000360404
0.000347046
0.000332844
0.000317977
0.000302745
0.000288025
0.000274684
0.000262687
0.000252496
0.000243778
0.000236545
0.000231111
0.000223747
0.000205574
0.000184209
0.00017022
0.000150694
0.000166624
0.000107749
0.00110613
0.0723381
0.000566602
0.000705359
0.000599783
0.000538875
0.000488796
0.000443996
0.00041128
0.000392122
0.000383008
0.000382446
0.000390883
0.00040904
0.000435995
0.000472578
0.000520288
0.000581639
0.00064565
0.000735057
0.000910861
0.00111286
0.00126847
0.00138016
0.00146551
0.00143826
0.00155971
2.86897e-11
1.15696e-17
9.77089e-27
8.1126e-27
1.07954e-26
1.99544e-26
4.41048e-26
9.56961e-26
1.74682e-25
2.71531e-25
5.6331e-25
1.52366e-24
3.46346e-24
1.32659e-23
0.000239005
0.000171727
0.000335777
0.00105137
0.00150223
0.00162001
0.00162911
0.00162332
0.00163004
0.00163161
0.00162446
0.00161331
0.0016007
0.00158684
0.00157128
0.00154771
0.00152823
0.00149984
0.00147138
0.00144268
0.0014139
0.00138466
0.00135448
0.00132165
0.00128733
0.00125453
0.00122406
0.00119531
0.00116923
0.00114584
0.00112422
0.00109657
0.00105089
0.000990707
0.000912291
0.000829438
0.000760111
0.000162805
0.00825512
0.00012029
0.000138617
0.000140357
0.000137341
0.000142711
0.000149006
0.000152032
0.000157309
0.00016314
0.000168734
0.000175941
0.000184285
0.000193734
0.000204992
0.000217687
0.000233026
0.000249277
0.000268805
0.000316294
0.000139869
0.000351175
0.00055541
0.000765508
0.00084933
0.00135608
1.27124e-10
5.67192e-17
1.65977e-26
1.03497e-26
1.06951e-26
1.58869e-26
2.88668e-26
5.29047e-26
8.60618e-26
1.24188e-25
2.1091e-25
4.55045e-25
9.14023e-25
2.55583e-24
0.000284467
0.000974715
0.00150246
0.00148672
0.00124802
0.00115714
0.00116803
0.00117927
0.00120065
0.00122643
0.00124873
0.00127194
0.00129753
0.00132488
0.00134968
0.00135808
0.00134813
0.00132918
0.00130701
0.00128269
0.00125677
0.0012293
0.00119934
0.00116707
0.001135
0.00110492
0.00107744
0.00105237
0.00103012
0.00101056
0.000994864
0.000986973
0.000980479
0.000969368
0.000952255
0.000907497
0.00091424
0.000128759
0.001998
0.00046789
0.000451849
0.000493641
0.000551805
0.000619229
0.000685879
0.000738709
0.000781516
0.000816348
0.000843301
0.000863943
0.000879099
0.000889131
0.000895041
0.0008949
0.000892969
0.000889729
0.000875599
0.000868285
0.000776557
0.000676861
0.000682026
0.000739558
0.000719562
0.00109614
5.36305e-10
2.60791e-16
3.02388e-26
1.45985e-26
1.19865e-26
1.45244e-26
2.21464e-26
3.5428e-26
5.29372e-26
7.27267e-26
1.09651e-25
2.0571e-25
3.73041e-25
7.49703e-25
0.00138222
0.00158125
0.00111442
0.00059807
0.00020589
0.000172215
0.000177742
0.000190735
0.000202584
0.000223084
0.000248475
0.000277284
0.000311002
0.000348914
0.000380581
0.000396741
0.0004022
0.000402138
0.000398188
0.00039156
0.00038302
0.000372937
0.000361338
0.000349624
0.000339016
0.000329375
0.000321197
0.00031442
0.00030892
0.00030447
0.0003012
0.000304199
0.000323978
0.000352283
0.00040155
0.000463248
0.000537266
0.000506706
1.65434e-05
0.00155661
0.00141164
0.00138291
0.00140622
0.00142636
0.00144412
0.00145299
0.00146004
0.00146768
0.00147571
0.0014834
0.00148874
0.00149676
0.00150485
0.00149738
0.00149952
0.0015159
0.00150305
0.00146355
0.00139266
0.00128431
0.00117125
0.00110019
0.000971467
0.00116232
2.96788e-09
1.55955e-15
5.83072e-26
2.23658e-26
1.48698e-26
1.4898e-26
1.92981e-26
2.73302e-26
3.78971e-26
5.01871e-26
7.05154e-26
1.20196e-25
2.00939e-25
3.27603e-25
0.00142559
0.000633682
4.17734e-05
8.84314e-05
3.3115e-05
3.15512e-05
3.3851e-05
3.60546e-05
3.76394e-05
4.04199e-05
4.34822e-05
4.70595e-05
5.17367e-05
5.73627e-05
6.26048e-05
6.61339e-05
6.85645e-05
7.03496e-05
7.16465e-05
7.25402e-05
7.30738e-05
7.32221e-05
7.30328e-05
7.27431e-05
7.24082e-05
7.2078e-05
7.19088e-05
7.18952e-05
7.2025e-05
7.22506e-05
7.2605e-05
7.41455e-05
7.84683e-05
8.78424e-05
9.61524e-05
3.14145e-06
7.62477e-05
0.000237206
2.94025e-05
0.00103619
0.000983395
0.000918314
0.000869785
0.000816628
0.000770888
0.000737814
0.000715962
0.000704921
0.000703038
0.000708285
0.000714543
0.000737549
0.000776247
0.000799575
0.000821273
0.000858533
0.000907918
0.000985073
0.00107008
0.00111718
0.00112125
0.00111943
0.00103416
0.00120867
1.67233e-08
9.4237e-15
1.18085e-25
3.67365e-26
2.01169e-26
1.68873e-26
1.87708e-26
2.37067e-26
3.06003e-26
3.86159e-26
5.17683e-26
8.19109e-26
1.27681e-25
1.82089e-25
0.000264431
0.000114989
4.07693e-05
7.73623e-05
2.61399e-05
4.27437e-05
4.97002e-05
5.24097e-05
5.20485e-05
4.98646e-05
4.63525e-05
4.18728e-05
3.69285e-05
3.22542e-05
2.83571e-05
2.52958e-05
2.3001e-05
2.13417e-05
2.01863e-05
1.94284e-05
1.89695e-05
1.87189e-05
1.86988e-05
1.89381e-05
1.93486e-05
1.9756e-05
2.01319e-05
2.04872e-05
2.08141e-05
2.11263e-05
2.12631e-05
2.06809e-05
1.48395e-05
2.41037e-05
3.05046e-06
6.94891e-05
7.97125e-05
5.32057e-05
8.69348e-05
8.07952e-05
0.000138886
5.25364e-05
0.000123645
0.000112553
0.00010849
0.000103502
0.000101367
0.000100751
0.000101044
0.000103114
0.000105534
0.00011075
0.000118972
0.000125607
3.48995e-06
4.76937e-05
0.000102176
0.000162017
0.0002627
0.000414759
0.000567742
0.000697262
0.00073386
0.00100843
8.07971e-08
4.84706e-14
2.50047e-25
6.41446e-26
2.93642e-26
2.09178e-26
2.01458e-26
2.2811e-26
2.74151e-26
3.31706e-26
4.22716e-26
6.19786e-26
9.0022e-26
1.17688e-25
4.79264e-05
9.01106e-05
0.000260301
0.00054996
0.00060975
0.000614624
0.000619838
0.000622655
0.000621945
0.000618637
0.000613592
0.000607349
0.000600255
0.000593351
0.000586827
0.0005805
0.000574244
0.000567923
0.000561373
0.000554368
0.000546901
0.000539225
0.0005315
0.000523886
0.000516498
0.000509168
0.000501888
0.000494553
0.000487435
0.000480461
0.000473596
0.000467021
0.000452985
0.000425522
0.000383774
0.000332499
0.000287739
0.000217412
0.000179375
4.70381e-05
4.99955e-05
4.76517e-05
4.66253e-05
5.50348e-05
6.2918e-05
6.75114e-05
7.16459e-05
7.47437e-05
7.65924e-05
7.84151e-05
7.98904e-05
8.11161e-05
8.24904e-05
8.38556e-05
8.57377e-05
9.43417e-05
0.000105124
0.000116922
0.000134142
3.24206e-06
0.000110997
0.000247608
0.000334853
0.000639215
3.17546e-07
2.01485e-13
5.52085e-25
1.18396e-25
4.58873e-26
2.80645e-26
2.36406e-26
2.41163e-26
2.69868e-26
3.13164e-26
3.79193e-26
5.13453e-26
8.14225e-26
1.0216e-25
3.6219e-05
0.000497451
0.000746067
0.000663038
0.000669332
0.000662112
0.000647848
0.00064319
0.000639818
0.000636566
0.000633885
0.000631706
0.000629718
0.000627724
0.000625548
0.000622962
0.000619873
0.000617263
0.000614089
0.000610092
0.000605494
0.000600243
0.000594295
0.000587849
0.00058119
0.000574275
0.000567158
0.000559786
0.000552498
0.000545411
0.000538287
0.000533038
0.00052898
0.000520863
0.000504457
0.000482071
0.000444304
0.000360984
0.000281572
0.000260434
0.000253281
0.00029986
0.000359
0.000417023
0.00046823
0.000506883
0.000535205
0.000555431
0.000569063
0.000578066
0.000583973
0.000587485
0.000589545
0.000590458
0.000589763
0.000587787
0.000585762
0.000580797
0.0005582
0.000533454
0.000458323
0.000393378
0.000368347
0.000507959
1.39704e-06
5.68222e-17
2.43502e-19
2.30152e-25
7.63363e-26
4.04973e-26
3.00993e-26
2.77976e-26
2.89785e-26
3.21535e-26
3.71538e-26
5.92935e-26
6.92555e-25
1.20224e-23
0.00065726
0.000745929
0.000501993
0.000250318
0.000170306
0.000161338
0.000191071
0.000197386
0.000198272
0.000198456
0.000198867
0.000199648
0.000200751
0.00020204
0.000203342
0.000204495
0.000205393
0.000204201
0.000199852
0.000194364
0.000188609
0.00018299
0.000177691
0.000172979
0.000169002
0.000165625
0.000162735
0.000160228
0.000158151
0.000156519
0.000155015
0.000154513
0.000161683
0.000182803
0.000207798
0.00023205
0.000265457
0.000284093
0.000252078
0.000729284
0.000659185
0.000654669
0.000682666
0.000703748
0.000720939
0.000733292
0.000740341
0.000745124
0.000749311
0.000753626
0.000758802
0.000763839
0.000771678
0.000781026
0.000786317
0.000789902
0.000793756
0.000793253
0.000802733
0.000798548
0.000733773
0.00064848
0.00056738
0.000556735
6.18462e-06
1.0717e-15
4.0015e-18
4.70132e-25
1.34651e-25
6.25056e-26
4.1308e-26
3.47032e-26
3.3736e-26
3.57046e-26
4.01242e-26
4.59471e-24
7.77427e-19
3.97416e-17
0.000650561
0.00029878
2.87056e-05
4.02383e-05
2.58246e-05
2.51332e-05
3.00153e-05
3.06237e-05
3.03698e-05
3.01281e-05
2.96514e-05
2.92989e-05
2.9288e-05
2.93954e-05
2.97341e-05
3.03084e-05
3.10185e-05
3.15783e-05
3.17722e-05
3.18467e-05
3.18901e-05
3.1962e-05
3.20697e-05
3.219e-05
3.2271e-05
3.23711e-05
3.25214e-05
3.27058e-05
3.29362e-05
3.32204e-05
3.34904e-05
3.39441e-05
3.60799e-05
4.13896e-05
4.7688e-05
5.52434e-05
4.25036e-05
0.000111855
0.000151675
0.000455973
0.000421811
0.000371542
0.00033891
0.000311381
0.000289976
0.000275826
0.000265902
0.000260566
0.000259814
0.000262825
0.000269125
0.000275547
0.000289308
0.000310461
0.000321733
0.000334149
0.000352579
0.000367484
0.000400205
0.000451883
0.00050248
0.000537773
0.000528492
0.000503967
2.00712e-05
1.06696e-14
3.49887e-17
1.00787e-24
2.51168e-25
1.02763e-25
6.07801e-26
4.66428e-26
4.23413e-26
4.26943e-26
1.11313e-25
2.0544e-19
4.331e-17
1.67685e-16
0.000129402
5.58658e-05
8.65122e-06
2.06036e-05
2.42673e-05
2.65264e-05
2.63917e-05
2.65878e-05
2.63861e-05
2.59695e-05
2.51595e-05
2.43629e-05
2.38274e-05
2.33832e-05
2.31398e-05
2.31291e-05
2.32477e-05
2.40658e-05
2.48377e-05
2.56014e-05
2.63587e-05
2.71255e-05
2.78912e-05
2.85776e-05
2.90921e-05
2.95065e-05
2.98789e-05
3.02036e-05
3.04902e-05
3.07514e-05
3.09701e-05
3.11312e-05
3.10015e-05
2.89103e-05
2.53219e-05
2.02743e-05
2.42919e-05
3.61042e-05
4.478e-05
2.31714e-05
2.94021e-05
5.75873e-05
4.77131e-05
4.44499e-05
4.20742e-05
3.95695e-05
3.82773e-05
3.76731e-05
3.75374e-05
3.82585e-05
3.95218e-05
4.08826e-05
4.35686e-05
4.75282e-05
5.01768e-05
5.31847e-05
5.73298e-05
6.10815e-05
7.02575e-05
2.61626e-05
0.000100969
0.000184584
0.000263814
0.000308243
4.5298e-05
7.79954e-14
2.26145e-16
2.26631e-24
4.94599e-25
1.79409e-25
9.54712e-26
6.71444e-26
5.6979e-26
5.46994e-26
9.33658e-26
2.88765e-20
3.51371e-17
2.70547e-17
1.99545e-05
2.22074e-05
3.10345e-05
0.000144986
0.000167275
0.000178055
0.000176103
0.000180512
0.000182483
0.000182369
0.000181346
0.000179999
0.000178589
0.000177249
0.000175957
0.000174676
0.000173383
0.000176093
0.000177432
0.000177917
0.000177822
0.00017732
0.000176498
0.000175437
0.000174237
0.000172899
0.00017143
0.000169835
0.000168165
0.000166509
0.000164854
0.00016303
0.000159854
0.000146877
0.000126838
0.000100189
7.02557e-05
4.0996e-05
4.69012e-05
1.34005e-05
1.7254e-05
1.86952e-05
1.97562e-05
2.17519e-05
2.38237e-05
2.46253e-05
2.53501e-05
2.57862e-05
2.58793e-05
2.60752e-05
2.62162e-05
2.63365e-05
2.65332e-05
2.67118e-05
2.69318e-05
2.7193e-05
2.74885e-05
2.77976e-05
2.807e-05
3.10251e-05
4.03706e-05
5.1323e-05
6.67385e-05
5.84005e-05
5.82851e-05
4.21545e-13
1.08678e-15
5.34426e-24
1.02691e-24
3.31828e-25
1.59532e-25
1.03066e-25
8.17944e-26
7.46345e-26
1.00829e-25
6.47719e-21
1.95581e-19
1.03739e-16
4.82269e-05
0.000146771
0.000274539
0.000313303
0.000310395
0.000311072
0.000315616
0.0003198
0.000321478
0.000321152
0.000320139
0.000319139
0.00031834
0.000317739
0.000317239
0.000316752
0.000316248
0.000315673
0.000314978
0.000314114
0.000313059
0.000311788
0.000310234
0.000308404
0.000306396
0.00030418
0.000301746
0.000299116
0.000296344
0.000293566
0.000290835
0.0002882
0.000286421
0.000278265
0.000267145
0.000240787
0.000204478
0.000165814
0.000124833
7.87395e-05
9.9869e-05
0.000131985
0.000145117
0.000157953
0.000170736
0.000179492
0.000185164
0.000188673
0.000190697
0.000191686
0.000191965
0.000191741
0.000191082
0.000190036
0.000188825
0.000187654
0.000186518
0.000185399
0.000184032
0.000171239
0.000144616
0.000115983
8.93957e-05
6.14451e-05
8.30069e-05
3.43709e-12
7.9156e-15
1.32141e-23
2.24605e-24
6.48931e-25
2.82744e-25
1.68045e-25
1.24678e-25
1.07903e-25
1.22507e-25
1.90099e-21
2.2317e-15
1.68848e-16
0.000242243
0.00031375
0.000250957
0.000165474
0.000172076
0.000166766
0.00016395
0.000164237
0.000165064
0.000165316
0.00016546
0.00016591
0.000166623
0.000167449
0.00016828
0.00016903
0.000169669
0.000170167
0.000170501
0.00017064
0.000170575
0.000170312
0.000169826
0.000169147
0.000168344
0.000167423
0.000166393
0.00016527
0.000164078
0.000162903
0.000161763
0.000160518
0.000160586
0.000165347
0.000173258
0.000180714
0.000181535
0.000169896
0.000143521
0.000313542
0.000316951
0.000341122
0.00035059
0.000356108
0.000363848
0.000367015
0.000368148
0.000368625
0.000368895
0.000369001
0.000369082
0.000369225
0.000369306
0.000369212
0.00036916
0.000369296
0.00036929
0.000368858
0.000369381
0.000364835
0.000339373
0.000306585
0.000280605
0.00021618
0.000171578
4.83971e-11
9.99494e-14
3.42493e-23
5.16965e-24
1.33941e-24
5.30088e-25
2.90017e-25
2.00987e-25
1.64543e-25
1.65665e-25
6.927e-22
3.02722e-17
6.08453e-17
0.000319102
0.000181445
5.99965e-05
3.12543e-05
2.66949e-05
2.65481e-05
2.62475e-05
2.58296e-05
2.54515e-05
2.50614e-05
2.43532e-05
2.37079e-05
2.33509e-05
2.3068e-05
2.29801e-05
2.31427e-05
2.34517e-05
2.39382e-05
2.45754e-05
2.5334e-05
2.61654e-05
2.70752e-05
2.80303e-05
2.89159e-05
2.96056e-05
3.01874e-05
3.07393e-05
3.12587e-05
3.17447e-05
3.22053e-05
3.26456e-05
3.30372e-05
3.36982e-05
4.2604e-07
1.52824e-05
3.86065e-05
6.77545e-05
9.42866e-05
0.000102533
0.000251148
0.000230819
0.000217997
0.000217375
0.000214353
0.000212318
0.000210653
0.000209572
0.000209388
0.000209901
0.000210948
0.000212462
0.000214441
0.000216773
0.000219396
0.000222389
0.000225784
0.00022954
0.000233466
0.000238506
0.000249968
0.000264836
0.000273213
0.000274028
0.000250777
0.000243657
6.21925e-10
1.15603e-12
9.30246e-23
1.25101e-23
2.9127e-24
1.04859e-24
5.28119e-25
3.41355e-25
2.63543e-25
2.41839e-25
2.95678e-22
8.83788e-18
1.29058e-16
8.92514e-05
3.55062e-05
9.1613e-06
3.43541e-16
3.44423e-16
3.45252e-16
3.46126e-16
3.47093e-16
3.481e-16
3.49111e-16
3.50132e-16
3.51159e-16
3.52182e-16
3.53195e-16
3.54184e-16
3.55143e-16
3.56082e-16
3.57006e-16
3.57914e-16
3.58808e-16
3.59724e-16
3.60726e-16
3.61848e-16
3.63125e-16
3.64645e-16
3.6637e-16
3.68267e-16
3.70369e-16
3.72694e-16
3.75351e-16
3.78469e-16
3.8199e-16
3.85835e-16
8.98644e-08
3.28025e-06
8.42447e-06
1.55766e-05
1.50957e-05
4.5372e-05
2.73914e-05
3.15739e-05
1.1132e-05
1.76377e-06
3.15692e-05
3.14828e-05
3.06832e-05
3.04175e-05
3.02869e-05
3.0063e-05
3.02118e-05
3.04689e-05
3.08787e-05
1.87793e-07
2.47278e-06
5.08992e-06
7.90312e-06
1.12511e-05
1.51797e-05
1.90146e-05
2.64523e-05
5.09324e-05
8.44207e-05
0.000121691
0.000148403
0.000198796
5.8593e-09
9.82936e-12
2.64656e-22
3.17905e-23
6.66326e-24
2.18368e-24
1.01183e-24
6.08598e-25
4.41663e-25
3.74898e-25
1.42972e-22
8.15154e-19
2.21898e-17
1.54576e-05
3.47953e-16
3.22727e-06
6.00002e-06
7.45241e-06
8.86566e-06
9.75861e-06
1.00248e-05
1.00553e-05
1.00256e-05
9.81533e-06
9.56843e-06
9.40047e-06
9.23026e-06
9.12596e-06
9.12707e-06
9.18812e-06
9.33192e-06
9.54918e-06
9.82876e-06
1.01563e-05
1.05303e-05
1.09446e-05
1.13344e-05
1.1631e-05
1.18769e-05
1.21117e-05
1.23348e-05
1.25454e-05
1.274e-05
1.2922e-05
1.30941e-05
1.32657e-05
1.31554e-05
1.24167e-05
1.08345e-05
8.08699e-06
8.65002e-06
6.94335e-06
3.82783e-06
4.47055e-06
1.68442e-06
2.56214e-07
3.53139e-16
3.54657e-16
3.55949e-16
3.57063e-16
3.58148e-16
3.59262e-16
3.60423e-16
3.61715e-16
3.63177e-16
2.7156e-08
3.61118e-07
7.52841e-07
1.18609e-06
1.71578e-06
2.3537e-06
2.99915e-06
4.24114e-06
8.29074e-06
1.39346e-05
2.2081e-05
1.99384e-05
8.84915e-05
3.70677e-08
5.64105e-11
7.88518e-22
8.47653e-23
1.60161e-23
4.77691e-24
2.03462e-24
1.13588e-24
7.72194e-25
6.0991e-25
7.65591e-23
1.42433e-19
3.72511e-18
5.64746e-06
1.50727e-05
2.18584e-05
4.0554e-05
4.94549e-05
5.73716e-05
6.28884e-05
6.59633e-05
6.77406e-05
6.90208e-05
7.00669e-05
7.09345e-05
7.16698e-05
7.22946e-05
7.28165e-05
7.3254e-05
7.36199e-05
7.39162e-05
7.41454e-05
7.4307e-05
7.44033e-05
7.44409e-05
7.44213e-05
7.43462e-05
7.4224e-05
7.4047e-05
7.38064e-05
7.35096e-05
7.31537e-05
7.27446e-05
7.23051e-05
7.18501e-05
7.14454e-05
6.96019e-05
6.45804e-05
5.54253e-05
4.07223e-05
2.49465e-05
2.06512e-05
1.48134e-05
9.91316e-06
1.11889e-05
1.09565e-05
1.11995e-05
1.15024e-05
1.14221e-05
1.14811e-05
1.1519e-05
1.14607e-05
1.1504e-05
1.15511e-05
1.16114e-05
1.17154e-05
1.18445e-05
1.20206e-05
1.22187e-05
1.24193e-05
1.26073e-05
1.27866e-05
1.29741e-05
1.24501e-05
1.09664e-05
8.75442e-06
1.01251e-05
2.07798e-05
9.82106e-08
3.14822e-12
1.14178e-14
2.37079e-22
4.04005e-23
1.09642e-23
4.28537e-24
2.21417e-24
1.40507e-24
1.03394e-24
4.49067e-23
3.01813e-20
7.52404e-19
4.23545e-05
9.58454e-05
0.000120712
0.000108515
0.000112669
0.000116594
0.000119676
0.000121544
0.000122563
0.000123327
0.000124067
0.00012475
0.000125337
0.000125834
0.00012624
0.000126559
0.000126805
0.00012698
0.000127082
0.000127107
0.000127055
0.000126941
0.000126765
0.000126522
0.00012623
0.000125897
0.00012549
0.000125011
0.000124449
0.000123806
0.000123109
0.00012238
0.000122033
0.000121589
0.000118797
0.000111787
9.73322e-05
8.00733e-05
6.00462e-05
7.44409e-05
7.22921e-05
7.63766e-05
7.80782e-05
7.90425e-05
8.02315e-05
8.13179e-05
8.22127e-05
8.30161e-05
8.37528e-05
8.44245e-05
8.50438e-05
8.56013e-05
8.59745e-05
8.63719e-05
8.68431e-05
8.72694e-05
8.75792e-05
8.7707e-05
8.77336e-05
8.78589e-05
8.3369e-05
7.27249e-05
5.76191e-05
4.4104e-05
2.8784e-05
7.99074e-07
7.32539e-10
2.68378e-12
6.94873e-22
1.06899e-22
2.63685e-23
9.44309e-24
4.50309e-24
2.65651e-24
1.81959e-24
2.9036e-23
7.39241e-21
2.77658e-17
0.000156905
0.000152955
0.000133416
0.000104773
9.10051e-05
8.29324e-05
7.77227e-05
7.46371e-05
7.24684e-05
7.08323e-05
6.97122e-05
6.89126e-05
6.82773e-05
6.77609e-05
6.73151e-05
6.69163e-05
6.65469e-05
6.62036e-05
6.58629e-05
6.55228e-05
6.51727e-05
6.48232e-05
6.44734e-05
6.41217e-05
6.37973e-05
6.34915e-05
6.31881e-05
6.28832e-05
6.25757e-05
6.22611e-05
6.19534e-05
6.16443e-05
6.15444e-05
6.27546e-05
6.62e-05
7.09637e-05
7.48912e-05
7.45506e-05
6.43684e-05
0.000171861
0.000161875
0.000163623
0.000164713
0.000165227
0.00016619
0.000167045
0.000167751
0.000168483
0.000169278
0.000170078
0.000170857
0.000171606
0.000172024
0.000172544
0.000173348
0.000174026
0.000174549
0.000174825
0.000175032
0.000176086
0.000174769
0.000166575
0.000151125
0.000134691
0.000115962
1.14459e-05
2.50658e-08
5.05773e-12
3.04826e-14
2.96407e-22
6.64247e-23
2.17534e-23
9.54509e-24
5.21668e-24
3.318e-24
2.13471e-23
2.12909e-21
2.23022e-18
0.000143214
7.29623e-05
3.87421e-05
2.53014e-05
1.77978e-05
1.14503e-05
7.12271e-06
4.4572e-06
2.67635e-06
1.2646e-06
1.59127e-07
9.72266e-06
9.30667e-06
8.93774e-06
8.65874e-06
8.50805e-06
8.43041e-06
8.45306e-06
8.56162e-06
8.74858e-06
8.99528e-06
9.30263e-06
9.66443e-06
1.00114e-05
1.02676e-05
1.04838e-05
1.07035e-05
1.09236e-05
1.11425e-05
1.13566e-05
1.15678e-05
1.17729e-05
1.20131e-05
1.2552e-05
6.9816e-07
9.35984e-06
2.23499e-05
3.64864e-05
4.31598e-05
0.000112091
0.000109832
0.000105741
0.000104201
0.000102904
0.000101921
0.000101229
0.000100666
0.000100341
0.000100236
0.000100258
0.000100379
0.000100609
0.000100898
0.000101162
0.000101489
0.000101971
0.000102578
0.000103244
0.000104001
0.000105482
0.00011
0.000116179
0.000121221
0.000123314
0.000120393
4.40849e-05
3.18118e-07
1.82658e-10
1.01974e-12
8.6042e-22
1.75037e-22
5.23564e-23
2.10806e-23
1.06365e-23
6.26578e-24
1.88137e-23
7.59671e-22
3.5036e-19
3.32289e-05
1.40998e-05
6.07153e-06
3.96739e-06
2.8387e-06
1.87113e-06
1.16813e-06
7.15424e-07
4.18999e-07
1.93382e-07
2.33828e-08
3.84614e-16
3.86612e-16
3.88499e-16
3.9027e-16
3.91959e-16
3.93616e-16
3.95285e-16
3.96998e-16
3.98787e-16
4.00701e-16
4.02825e-16
4.05224e-16
4.07893e-16
4.10828e-16
4.14009e-16
4.17376e-16
4.20962e-16
4.2479e-16
4.28832e-16
4.33195e-16
4.37922e-16
4.4314e-16
4.48658e-16
1.40482e-07
1.92217e-06
4.7155e-06
7.52935e-07
1.55958e-05
8.96009e-06
1.37051e-05
9.01702e-06
6.63439e-06
5.16323e-06
4.15424e-06
3.38074e-06
2.71749e-06
2.16667e-06
1.73572e-06
1.41136e-06
1.17873e-06
1.06612e-06
1.08156e-06
1.17269e-06
1.36083e-06
1.70263e-06
2.2115e-06
2.89907e-06
3.69107e-06
4.54816e-06
8.66831e-06
1.93394e-05
3.39399e-05
4.94797e-05
6.41888e-05
5.87503e-05
1.81995e-06
3.56176e-09
1.84125e-11
2.61096e-21
4.82058e-22
1.31481e-22
4.84952e-23
2.25167e-23
1.22516e-23
2.05773e-23
3.50467e-22
7.45924e-20
5.70354e-06
3.76527e-16
6.13298e-07
7.04115e-07
1.04631e-06
1.52873e-06
1.8755e-06
2.05891e-06
2.16403e-06
2.23075e-06
2.22528e-06
2.18595e-06
2.1498e-06
2.10057e-06
2.05986e-06
2.0433e-06
2.0409e-06
2.06193e-06
2.10672e-06
2.19679e-06
2.26236e-06
2.31813e-06
2.40114e-06
2.4892e-06
2.55658e-06
2.61558e-06
2.67903e-06
2.74439e-06
2.81019e-06
2.87433e-06
2.93639e-06
2.99573e-06
3.05372e-06
3.1067e-06
2.92112e-06
2.46136e-06
1.50229e-06
5.61703e-07
3.34064e-06
1.2854e-06
1.99045e-06
1.3984e-06
9.85163e-07
7.73714e-07
6.29519e-07
5.01365e-07
4.00233e-07
3.16651e-07
2.49652e-07
2.01745e-07
1.67564e-07
1.50939e-07
1.53431e-07
1.66995e-07
1.95161e-07
2.46447e-07
3.23624e-07
4.29318e-07
5.53256e-07
6.89466e-07
1.32584e-06
2.97963e-06
5.2505e-06
8.25405e-06
5.32724e-06
2.06504e-05
4.74884e-06
3.44146e-08
1.72235e-10
8.26993e-21
1.38531e-21
3.44138e-22
1.16037e-22
4.94662e-23
2.47952e-23
2.73976e-23
2.09741e-22
2.08291e-20
3.04001e-06
9.26899e-06
4.05221e-06
4.65463e-06
6.80893e-06
9.72403e-06
1.19092e-05
1.33915e-05
1.44699e-05
1.53162e-05
1.59632e-05
1.64491e-05
1.68294e-05
1.71312e-05
1.73737e-05
1.75777e-05
1.77573e-05
1.79205e-05
1.80747e-05
1.84123e-05
1.83799e-05
1.81172e-05
1.7942e-05
1.78358e-05
1.77848e-05
1.77685e-05
1.77665e-05
1.77682e-05
1.77664e-05
1.77523e-05
1.77247e-05
1.7682e-05
1.7634e-05
1.75632e-05
1.61759e-05
1.33562e-05
7.99233e-06
2.09949e-06
6.58611e-06
7.63514e-06
4.32831e-06
4.43754e-06
4.35148e-06
4.60558e-06
4.92615e-06
5.07317e-06
5.26439e-06
5.42175e-06
5.50008e-06
5.60414e-06
5.68744e-06
5.75673e-06
5.84345e-06
5.925e-06
6.01441e-06
6.10879e-06
6.20319e-06
6.28969e-06
6.36583e-06
6.42866e-06
6.41616e-06
5.97446e-06
5.14654e-06
4.0831e-06
3.78226e-06
5.84362e-06
1.60645e-06
1.22918e-07
1.63731e-10
1.26507e-12
4.14328e-21
9.36802e-22
2.88424e-22
1.1263e-22
5.18932e-23
4.24122e-23
1.60719e-22
7.50927e-21
2.22599e-05
6.45418e-05
6.51085e-05
6.09547e-05
6.18076e-05
6.35728e-05
6.50836e-05
6.61259e-05
6.69014e-05
6.75526e-05
6.80941e-05
6.85132e-05
6.88527e-05
6.91298e-05
6.93488e-05
6.95365e-05
6.97058e-05
6.98614e-05
7.00091e-05
7.09582e-05
7.07574e-05
6.97694e-05
6.99294e-05
7.00816e-05
7.02074e-05
7.02958e-05
7.03304e-05
7.03139e-05
7.02539e-05
7.01389e-05
6.99796e-05
6.97755e-05
6.95741e-05
6.80737e-05
6.58594e-05
6.29801e-05
5.63551e-05
4.63497e-05
3.3745e-05
3.78115e-05
3.09522e-05
2.97441e-05
3.05375e-05
3.20855e-05
3.3989e-05
3.58403e-05
3.75099e-05
3.90007e-05
4.02888e-05
4.13988e-05
4.23552e-05
4.31646e-05
4.38424e-05
4.44076e-05
4.4885e-05
4.52953e-05
4.56277e-05
4.58553e-05
4.59851e-05
4.60562e-05
4.57104e-05
4.24255e-05
3.65771e-05
2.88356e-05
2.03888e-05
1.31137e-05
6.45346e-06
6.5392e-07
6.94612e-09
8.34229e-11
1.28731e-20
2.6461e-21
7.43117e-22
2.65375e-22
1.12188e-22
7.31867e-23
1.55477e-22
3.46584e-21
0.000105414
0.000113575
0.000102941
9.58772e-05
9.1891e-05
8.97653e-05
8.8543e-05
8.76846e-05
8.701e-05
8.65008e-05
8.61744e-05
8.59523e-05
8.57774e-05
8.56488e-05
8.55502e-05
8.54609e-05
8.53848e-05
8.53165e-05
8.52454e-05
8.51652e-05
8.53302e-05
8.54178e-05