/*--------------------------------*- C++ -*----------------------------------*\
| =========                 |                                                 |
| \\      /  F ield         | OpenFOAM: The Open Source CFD Toolbox           |
|  \\    /   O peration     | Version:  2312                                  |
|   \\  /    A nd           | Website:  www.openfoam.com                      |
|    \\/     M anipulation  |                                                 |
\*---------------------------------------------------------------------------*/
FoamFile
{
    version     2.0;
    format      ascii;
    arch        "LSB;label=32;scalar=64";
    class       volSymmTensorField;
    location    "300";
    object      turbulenceProperties:devReff;
}
// * * * * * * * * * * * * * * * * * * * * * * * * * * * * * * * * * * * * * //

dimensions      [0 2 -2 0 0 0 0];

internalField   nonuniform List<symmTensor> 
10720
(
(0.00457521 0.0115151 -6.63424e-21 -0.00494168 -1.70446e-19 0.00036647)
(0.00782179 0.0156036 5.91321e-21 -0.00813126 2.16074e-19 0.00030947)
(0.0127323 0.0189188 5.38271e-20 -0.0134122 2.28194e-19 0.000679975)
(0.0167182 0.0195317 2.5484e-19 -0.017488 1.94081e-18 0.00076976)
(0.0188207 0.0172194 -7.76424e-19 -0.0194909 -3.05497e-18 0.000670236)
(0.0207099 0.0143029 -7.22129e-19 -0.0214796 -1.46376e-18 0.000769699)
(0.023354 0.0119193 2.03224e-19 -0.0241397 1.84572e-20 0.000785716)
(0.0271927 0.00960863 9.61439e-20 -0.0280103 1.52021e-19 0.000817569)
(0.0327777 0.00683896 2.30944e-19 -0.0337393 -1.86548e-19 0.000961611)
(0.0406401 0.00313655 -3.45013e-20 -0.0417537 -3.46148e-20 0.00111359)
(0.0518207 -0.00253389 3.98991e-18 -0.0531823 1.6185e-18 0.00136164)
(0.0687049 -0.0117971 -9.95107e-19 -0.0704499 -7.64259e-19 0.00174496)
(0.0951299 -0.0279537 2.2326e-18 -0.0974652 -3.35136e-18 0.00233532)
(0.138512 -0.0581866 1.25664e-18 -0.141857 2.72185e-18 0.0033451)
(0.215012 -0.11926 2.48363e-18 -0.220214 -4.40324e-18 0.00520277)
(0.367074 -0.257267 1.09816e-18 -0.376065 2.06858e-17 0.008991)
(0.639659 -0.554308 1.3974e-16 -0.656124 7.22994e-17 0.0164642)
(1.24989 -1.32234 -5.11927e-17 -1.28377 7.4574e-17 0.0338794)
(2.17412 -2.80817 -3.07936e-17 -2.23828 -4.61795e-16 0.0641603)
(2.96293 -4.70317 2.69924e-17 -3.05736 -9.3339e-19 0.0944267)
(3.60894 -7.19299 -5.41227e-16 -3.73783 -4.05916e-16 0.12889)
(4.5048 -11.7128 1.11258e-15 -4.69299 1.68447e-15 0.188188)
(5.9256 -21.5174 -7.35088e-16 -6.25898 -1.88329e-15 0.333382)
(7.89804 -44.5499 9.10715e-16 -8.58646 2.02933e-16 0.688419)
(8.70907 -84.0532 -3.01517e-16 -9.6577 -1.48871e-17 0.948632)
(6.84698 -122.336 9.43821e-17 -8.18691 -2.11939e-15 1.33992)
(4.22302 -252.663 7.39353e-16 -7.42306 -2.26721e-16 3.20004)
(-12.0005 -419.799 8.45533e-16 9.70736 1.5495e-15 2.29311)
(-24.4145 -296.727 1.76796e-14 25.9018 5.29548e-16 -1.48726)
(-13.6248 -107.066 1.00417e-14 14.3292 5.16966e-15 -0.704397)
(-5.36624 -32.8513 -3.49788e-15 5.49005 -8.24421e-16 -0.123815)
(-0.791053 -4.04554 -7.28611e-16 0.799335 -3.50941e-16 -0.00828164)
(-0.146724 -0.668461 -3.37115e-17 0.147 -1.25043e-16 -0.000275893)
(-0.0215458 -0.0930536 -2.69632e-17 0.0214474 -3.12011e-17 9.84419e-05)
(-0.00022254 -0.000998799 1.10268e-19 0.000226048 3.49779e-19 -3.50749e-06)
(-4.55225e-05 -0.000245136 2.9156e-20 5.16547e-05 3.17538e-19 -6.13212e-06)
(-8.5436e-05 -6.87581e-05 3.54519e-20 9.722e-05 -7.46255e-21 -1.17841e-05)
(-0.000272019 -0.000593004 -1.38296e-19 0.000287385 4.93245e-19 -1.53662e-05)
(-0.00163191 0.0158124 -3.59546e-17 0.00088991 -6.6602e-17 0.000742004)
(0.00164903 0.00599858 2.2877e-21 -0.00173077 -7.59723e-21 8.17404e-05)
(0.00099316 0.00527508 -1.30696e-20 -0.00113832 1.3627e-20 0.000145161)
(0.000831364 0.00937438 -1.45722e-19 -0.000992709 -1.02938e-19 0.000161345)
(-9.60079e-05 0.0154678 3.39815e-19 -0.000143203 -4.56311e-19 0.000239211)
(-0.000648825 0.00848141 -3.14427e-19 0.000563778 -1.9214e-19 8.50463e-05)
(-0.000683758 0.00711792 -1.69648e-18 0.000717146 2.10175e-18 -3.33882e-05)
(-0.000141267 0.00556246 7.73639e-19 0.000349023 1.95339e-18 -0.000207756)
(0.00103463 0.00580429 -1.7362e-19 -0.000681469 -3.85124e-18 -0.000353159)
(0.00283121 0.00607884 1.87428e-18 -0.00261744 -3.64994e-20 -0.000213772)
(0.00460907 0.00647859 -1.16865e-18 -0.00460023 -3.42665e-19 -8.84681e-06)
(0.00638408 0.00757371 8.51213e-19 -0.00646497 2.04617e-18 8.08882e-05)
(0.00848844 0.009819 1.5085e-18 -0.00860745 -7.15943e-19 0.000119011)
(0.0111661 0.013633 -1.37015e-18 -0.0113421 -3.08931e-19 0.000176002)
(0.0154332 0.020597 2.13262e-19 -0.0157049 4.45824e-19 0.000271762)
(0.0212377 0.0312263 4.37268e-18 -0.0216082 7.22311e-19 0.000370528)
(0.0338578 0.0551447 4.79187e-18 -0.0344639 -1.04802e-18 0.000606122)
(0.0510721 0.0918834 2.28033e-18 -0.0519711 3.30226e-18 0.000899006)
(0.143903 0.285747 2.91453e-18 -0.146442 6.8973e-18 0.0025386)
(0.1462 0.319721 2.50872e-18 -0.148727 -1.41029e-18 0.00252706)
(0.159035 0.384315 3.53215e-18 -0.161865 1.80607e-19 0.00283039)
(0.187293 0.502504 -4.33447e-18 -0.190763 -2.62308e-17 0.00346963)
(0.268992 0.812442 -1.51251e-17 -0.274515 -2.99687e-19 0.00552327)
(0.30173 1.0497 1.04722e-17 -0.308837 1.61011e-17 0.00710689)
(0.345398 1.44665 4.98511e-18 -0.35611 -7.95912e-19 0.010712)
(0.362521 1.93506 1.49377e-16 -0.377809 -2.4957e-17 0.0152884)
(0.341548 2.47887 -4.9994e-19 -0.360619 -8.71923e-18 0.0190708)
(0.179907 1.99933 2.30892e-20 -0.194606 8.50995e-19 0.0146989)
(0.0476 1.06596 6.83642e-20 -0.0550654 -2.10029e-21 0.00746539)
(0.000727168 0.393151 6.61181e-20 -0.00337409 8.95412e-22 0.00264692)
(-0.00376108 0.0971164 2.37015e-18 0.00312875 -8.14879e-20 0.000632335)
(-0.000825478 0.0106868 -1.02788e-20 0.000757925 -5.15998e-22 6.75533e-05)
(-0.000226297 0.00198973 -6.13611e-21 0.000214157 1.53507e-20 1.21398e-05)
(-0.000229837 0.00155032 -2.34605e-19 0.000220792 -2.60768e-20 9.04527e-06)
(-0.00025775 0.00142568 -3.85905e-19 0.00024988 4.32882e-20 7.86958e-06)
(-0.000283571 0.00133977 3.38331e-19 0.000276586 2.23751e-20 6.98491e-06)
(-0.000305238 0.00126554 -1.76024e-21 0.000298958 -1.18758e-20 6.28018e-06)
(-0.000320417 0.00117189 -3.41065e-21 0.000315323 4.63179e-21 5.09363e-06)
(-0.130607 0.411946 -2.68094e-18 0.125417 4.55522e-18 0.00519071)
(-10.1213 26.4185 -9.19041e-15 9.9525 -8.86528e-16 0.168777)
(0.0146679 -0.0113739 -1.02937e-19 -0.0132214 -3.1142e-19 -0.00144654)
(0.014456 -0.0157138 2.07324e-19 -0.0125565 4.86266e-19 -0.00189949)
(0.00829807 -0.0136008 -1.45809e-21 -0.00656985 2.43583e-21 -0.00172822)
(0.00377567 -0.00956454 2.2265e-19 -0.00244787 3.22267e-20 -0.00132781)
(0.00135154 -0.00628489 1.14204e-19 -0.000386856 8.96108e-19 -0.000964687)
(0.000206536 -0.00456245 5.27449e-19 0.000597309 9.25674e-19 -0.000803845)
(-0.0004027 -0.00390633 -2.4317e-19 0.0012171 3.92888e-20 -0.000814396)
(-0.000851218 -0.00356922 -2.1729e-19 0.00174332 -5.82727e-20 -0.000892098)
(-0.00119307 -0.0032625 -1.35164e-18 0.00218548 -1.48683e-18 -0.000992406)
(-0.00139369 -0.0029622 -4.87242e-19 0.00249532 -1.63608e-19 -0.00110163)
(-0.00147452 -0.00269327 -4.71604e-18 0.0026902 -4.58701e-18 -0.00121568)
(-0.00144296 -0.00249378 -6.15708e-20 0.00276369 8.2627e-19 -0.00132074)
(-0.00141803 -0.00264292 -3.06676e-18 0.00296489 8.67196e-20 -0.00154686)
(-0.00148025 -0.00350344 2.80783e-18 0.00361383 1.66222e-18 -0.00213358)
(-0.00145423 -0.00601335 -9.54338e-18 0.00500931 -2.75333e-18 -0.00355508)
(-0.00033007 -0.0133288 4.16633e-17 0.00742004 9.88454e-18 -0.00708997)
(0.00553635 -0.0321569 -7.80251e-17 0.00864566 -6.65186e-17 -0.014182)
(0.0269009 -0.0867755 -1.63089e-16 0.00291958 -6.0906e-17 -0.0298204)
(0.0895284 -0.232998 -3.86229e-16 -0.0301612 1.62729e-16 -0.0593672)
(0.221141 -0.544883 8.1115e-17 -0.12148 5.99872e-20 -0.099661)
(0.420349 -1.08079 6.04609e-16 -0.281165 7.19577e-16 -0.139185)
(0.670905 -1.9094 -9.33725e-16 -0.491209 -1.74156e-15 -0.179696)
(0.990717 -3.26346 7.53483e-17 -0.727878 1.77976e-15 -0.262839)
(1.3253 -4.86176 2.55992e-17 -0.903236 -4.53156e-16 -0.422066)
(3.33201 -12.7495 -0 -2.15876 -0 -1.17326)
(1.62466 -10.6683 -2.9929e-17 -0.197866 5.12008e-16 -1.4268)
(-0.559903 -13.3813 -1.05366e-15 4.44892 2.64818e-16 -3.88902)
(0.101899 -7.52585 -1.15508e-16 1.81633 -9.77039e-16 -1.91823)
(3.01319 -4.73462 -1.30065e-14 -4.56522 -6.20256e-15 1.55203)
(4.82235 -4.68109 -6.90814e-16 -7.7621 -2.45904e-14 2.93976)
(1.9983 -2.96838 1.08089e-15 -3.12935 1.57106e-14 1.13105)
(0.164948 -1.45131 2.87867e-16 -0.360983 7.71699e-15 0.196035)
(-0.118424 -0.806631 -1.5469e-15 0.093754 1.51275e-15 0.0246705)
(-0.057096 -0.295178 5.83657e-16 0.0559404 9.73772e-16 0.00115561)
(-0.00176155 -0.0101835 -5.77943e-19 0.00187491 -5.03249e-18 -0.00011336)
(-0.00014309 -0.000666335 3.65821e-19 0.000143128 -2.13205e-19 -3.80398e-08)
(-0.000143289 -0.000449294 -3.20174e-20 0.000112694 6.49919e-21 3.05943e-05)
(-0.0004345 -0.00128306 2.84038e-19 0.000385596 -4.2119e-18 4.89039e-05)
(0.00996205 -0.000427838 4.6989e-18 -0.0149258 6.33274e-17 0.00496371)
(0.00537191 -0.00278116 4.01639e-20 -0.00497142 1.24884e-19 -0.000400488)
(0.0052339 -0.00163577 -2.09938e-20 -0.00489156 -5.22114e-19 -0.000342334)
(0.00269899 -0.000255485 -1.71814e-19 -0.00256298 -5.03359e-19 -0.000136012)
(0.00337662 0.000507416 5.17995e-20 -0.00325158 1.00399e-18 -0.000125045)
(0.00152069 0.00067078 2.66537e-19 -0.00148967 -2.49823e-19 -3.10166e-05)
(0.00137136 0.00116966 -9.91946e-20 -0.00136699 -4.64513e-19 -4.36723e-06)
(0.0010139 0.00158599 4.57385e-19 -0.00103207 -1.20117e-18 1.81774e-05)
(0.000668817 0.00217412 -1.28887e-18 -0.000721681 -1.27494e-19 5.28645e-05)
(8.65022e-05 0.0021393 -7.63301e-19 -0.000145235 1.65702e-18 5.87325e-05)
(-0.000461745 0.00195168 -2.753e-19 0.000430842 -6.34243e-20 3.0903e-05)
(-0.000854163 0.00162029 -3.43258e-19 0.000873914 -9.61023e-19 -1.97509e-05)
(-0.00102633 0.00123579 7.02016e-20 0.00109409 -5.14518e-19 -6.77625e-05)
(-0.000983723 0.000849476 3.52634e-19 0.00107948 9.0782e-19 -9.57575e-05)
(-0.000778558 0.000515382 -2.88808e-19 0.000876569 -1.76141e-19 -9.80114e-05)
(-0.000260437 0.000140039 -6.09745e-20 0.000300931 -2.15112e-19 -4.04942e-05)
(-0.00949948 0.00438763 -1.01396e-17 0.0112655 -2.54821e-18 -0.00176604)
(-0.0136452 0.00578984 -2.81243e-18 0.0166185 3.76308e-20 -0.00297326)
(-0.00295803 0.00123113 -4.47867e-20 0.00369498 -4.1196e-19 -0.000736951)
(-0.0450228 0.0193076 -9.68717e-18 0.0576068 6.35661e-18 -0.0125841)
(-0.013334 0.00607409 5.563e-18 0.0174742 -1.86636e-18 -0.00414024)
(-0.00235152 0.00114914 -7.74065e-18 0.00316296 5.0307e-18 -0.000811443)
(-0.103465 0.0549413 -7.87436e-17 0.143887 1.55711e-17 -0.0404214)
(-0.0167814 0.00936993 4.95626e-19 0.0240818 -1.13578e-17 -0.00730037)
(-0.00107998 0.000646748 4.66524e-18 0.00163503 8.45376e-20 -0.000555047)
(-0.0134712 0.00993104 -5.66852e-17 0.0218459 4.97237e-18 -0.00837472)
(-0.000463097 0.000456115 -2.0026e-18 0.000796812 3.1901e-19 -0.000333715)
(-0.000576748 0.000765965 -2.60734e-20 0.00103198 -1.87106e-20 -0.000455237)
(-0.000624339 0.00105357 -1.1228e-22 0.0011312 -5.87459e-21 -0.000506859)
(-0.000364525 0.000751385 -6.72575e-22 0.000648167 -9.13913e-24 -0.000283643)
(-0.000349537 0.000859928 2.13843e-20 0.000596607 6.29972e-20 -0.000247071)
(-0.000237527 0.000676584 1.5849e-21 0.000382567 -2.84495e-20 -0.000145039)
(-0.000146762 0.000465132 2.01194e-20 0.000220191 -5.80143e-20 -7.3429e-05)
(-9.51442e-05 0.000321971 1.24183e-18 0.000132083 6.94784e-20 -3.69386e-05)
(-7.09745e-05 0.000247807 6.47962e-19 9.13113e-05 -1.21654e-19 -2.03368e-05)
(-6.4587e-05 0.000225647 -4.1402e-19 7.74663e-05 1.11925e-21 -1.28793e-05)
(-6.96206e-05 0.000240143 3.55621e-19 7.92035e-05 4.48406e-20 -9.58285e-06)
(-8.15204e-05 0.000267309 -5.62978e-19 8.69865e-05 -8.0041e-20 -5.46605e-06)
(-0.0270524 0.0796202 -1.27166e-16 0.0309634 -2.44595e-17 -0.00391109)
(-0.886882 2.74841 -7.66133e-15 0.980713 -1.8627e-15 -0.0938309)
(0.00471489 -0.00423056 -2.13557e-20 -0.00506311 -7.14136e-20 0.000348218)
(0.00334549 -0.00459797 -4.28772e-19 -0.00372826 -9.82451e-19 0.000382773)
(0.00212888 -0.00512409 3.13508e-19 -0.00257515 7.18111e-19 0.000446271)
(0.000780454 -0.00533572 4.31931e-19 -0.001325 8.00349e-19 0.000544546)
(-0.000566417 -0.0052816 7.96743e-19 -6.44681e-05 1.14302e-18 0.000630885)
(-0.0019055 -0.00491788 -2.50454e-18 0.00117783 -4.31118e-18 0.000727667)
(-0.0031358 -0.00425393 1.81516e-18 0.00228966 3.57242e-18 0.000846136)
(-0.00414616 -0.00334248 2.50046e-18 0.0031884 2.23381e-18 0.000957756)
(-0.0049026 -0.00223611 -1.52975e-19 0.00383422 3.11182e-19 0.00106839)
(-0.00534968 -0.00103544 1.66538e-18 0.00417434 2.91301e-18 0.00117534)
(-0.00549916 0.000160829 -3.69588e-18 0.00423492 -1.88583e-19 0.00126424)
(-0.00539284 0.00128466 5.20812e-18 0.00405749 5.72539e-18 0.00133535)
(-0.00513363 0.00227081 2.52125e-18 0.00376386 1.04308e-18 0.00136977)
(-0.0048728 0.00317656 1.30642e-18 0.00347992 -1.24338e-18 0.00139287)
(-0.00467955 0.0040789 4.02678e-18 0.00325716 3.97174e-18 0.00142239)
(-0.00294791 0.00322582 -7.18694e-18 0.00201393 -7.32059e-18 0.000933982)
(-0.00461347 0.00614061 3.21202e-18 0.00311589 4.71873e-18 0.00149757)
(-0.0098159 0.0155935 6.51979e-17 0.00660821 1.87769e-17 0.00320769)
(-0.022549 0.0426149 5.25516e-17 0.0152389 3.86105e-17 0.00731011)
(-0.0456159 0.103724 -4.00039e-17 0.0310978 -2.45065e-18 0.014518)
(-0.0739902 0.213829 9.52007e-17 0.0502525 -2.15169e-16 0.0237376)
(-0.0902537 0.39133 3.34013e-17 0.0559073 2.92136e-16 0.0343464)
(-0.0423513 0.684967 1.15923e-15 -0.0167567 -3.00456e-16 0.059108)
(0.315397 1.04763 -1.66494e-15 -0.46155 -6.91249e-16 0.146153)
(1.01326 -0.226719 6.81356e-17 -1.17393 5.03033e-17 0.160674)
(2.16644 -2.82841 -3.10239e-15 -2.38291 8.43554e-16 0.216468)
(3.93832 -7.57031 1.08903e-15 -4.21872 1.37326e-16 0.280403)
(2.19926 -6.14073 -3.66738e-16 -2.30502 1.96075e-18 0.105764)
(0.743523 -3.19437 -5.70216e-15 -0.581648 3.32309e-15 -0.161876)
(0.381488 -1.94507 -7.38146e-15 -0.175796 2.99142e-16 -0.205691)
(0.287256 -1.17875 1.3923e-14 -0.115501 -3.90507e-15 -0.171755)
(0.215322 -0.325945 7.87219e-15 -0.0891869 3.12607e-15 -0.126135)
(0.0712397 0.0740064 3.08254e-16 -0.0440027 1.77995e-15 -0.027237)
(0.0129404 0.0387733 4.93848e-16 -0.0121398 -2.90871e-16 -0.00080055)
(-2.42346e-05 -0.00750498 3.12003e-17 0.00019872 -1.19438e-17 -0.000174485)
(-0.00142014 -0.00615847 -7.22859e-18 0.00140932 -4.32076e-18 1.08169e-05)
(-0.000172695 -0.000525677 -1.5063e-20 0.000155922 -9.22376e-20 1.67738e-05)
(-0.00136117 -0.00630286 1.07488e-17 0.00150255 5.24943e-18 -0.000141376)
(0.147938 -0.141427 2.48669e-16 -0.168616 -1.43793e-16 0.0206786)
(0.0034963 -0.00199558 -6.6546e-20 -0.00369569 -1.55232e-19 0.000199384)
(0.00150431 -0.000499057 -2.12785e-20 -0.00156647 -1.62078e-20 6.21549e-05)
(0.00223779 -0.000215511 2.86746e-19 -0.00230501 4.63696e-19 6.72262e-05)
(0.00269745 0.000374061 -2.14922e-19 -0.00274874 -1.40971e-20 5.12923e-05)
(0.00318823 0.00130003 6.448e-20 -0.00322638 3.06529e-19 3.81432e-05)
(0.00348151 0.00262924 -1.45117e-19 -0.00349886 1.47199e-18 1.735e-05)
(0.00285951 0.00369028 -2.67141e-19 -0.00285662 1.48049e-18 -2.88632e-06)
(0.00183338 0.00437351 4.97042e-18 -0.00184572 3.32249e-18 1.23488e-05)
(0.000638318 0.00473528 9.14019e-19 -0.000659085 -1.03206e-18 2.07676e-05)
(-0.000591041 0.00474892 3.10144e-18 0.000571203 3.91105e-19 1.98379e-05)
(-0.00169161 0.00449708 -3.06914e-18 0.00165792 -1.8233e-18 3.36882e-05)
(-0.00260256 0.0040659 -2.5433e-18 0.00252928 3.84116e-18 7.32775e-05)
(-0.00334042 0.00352697 3.6736e-18 0.00320071 -1.78975e-18 0.000139714)
(-0.00394057 0.00293356 3.2999e-18 0.00370184 -1.56228e-20 0.000238731)
(-0.00442601 0.00231954 -3.36508e-18 0.00406073 2.96688e-18 0.000365281)
(-0.00467079 0.00164125 -2.7321e-18 0.00416012 6.23368e-18 0.00051067)
(-0.00486623 0.00100867 8.59116e-18 0.00418245 -4.88607e-18 0.000683776)
(-0.00447264 0.000353637 8.22895e-18 0.00368996 -1.52051e-18 0.000782681)
(-0.00475805 -0.000201679 3.93174e-18 0.00375752 -3.91298e-19 0.00100053)
(-0.00437825 -0.000722231 -1.41319e-18 0.00329803 4.81919e-18 0.00108021)
(-0.00115264 -0.000344986 6.20545e-18 0.000822419 5.27007e-19 0.000330218)
(-0.00174422 -0.000821256 3.74987e-19 0.00115456 -1.71646e-18 0.000589667)
(-2.12626e-05 -1.39974e-05 -4.37155e-22 1.33468e-05 -1.44035e-21 7.91578e-06)
(-0.00572906 -0.0060296 -9.80161e-19 0.0026536 -5.34285e-18 0.00307546)
(-0.00044804 -0.000835407 -7.10327e-20 9.55607e-06 4.45078e-19 0.000438484)
(-0.000471686 -0.00211827 2.87837e-17 -0.00075914 -1.60128e-18 0.00123083)
(1.84134e-05 -0.000463896 -2.65868e-20 -0.000321108 1.97364e-21 0.000302694)
(5.34766e-05 -0.000185697 -3.16573e-19 -0.000192487 8.44507e-21 0.000139011)
(0.000144688 -0.00029426 -5.28294e-21 -0.000374695 1.2011e-22 0.000230007)
(0.000265672 -0.000455986 -1.2159e-18 -0.000584935 -4.31439e-20 0.000319263)
(0.000340001 -0.00059859 2.39044e-18 -0.000671637 1.83931e-19 0.000331636)
(0.000298473 -0.0005781 -5.18664e-20 -0.000538507 -1.2797e-21 0.000240034)
(0.00026346 -0.000567093 -4.86698e-18 -0.000437521 2.90695e-19 0.000174062)
(0.000239745 -0.000562922 -7.53014e-21 -0.000367786 3.36392e-19 0.00012804)
(0.000213278 -0.000541238 3.58839e-20 -0.000305503 -3.35838e-19 9.22245e-05)
(0.000217413 -0.000555066 -1.58658e-19 -0.000290289 2.79234e-19 7.28755e-05)
(1.30106e-05 -3.64663e-05 1.57085e-20 -1.59347e-05 -3.35904e-21 2.92406e-06)
(0.0143654 -0.0199873 3.37891e-16 -0.0171827 7.73685e-17 0.00281729)
(0.0108928 1.66011 3.66762e-14 -0.0740236 8.43339e-15 0.0631308)
(0.00379887 -0.00310457 -8.36738e-20 -0.00369227 -1.50075e-19 -0.000106603)
(0.00327405 -0.00375603 -1.80441e-19 -0.00315339 -2.90102e-19 -0.000120659)
(0.0024507 -0.00421461 3.43695e-19 -0.00229723 5.07377e-19 -0.00015347)
(0.0015882 -0.00456327 4.66926e-19 -0.00140324 4.68737e-19 -0.000184958)
(0.00069395 -0.00471154 5.40669e-20 -0.000471512 -2.13949e-20 -0.000222437)
(-0.000216202 -0.00469154 -1.76919e-19 0.000486032 4.444e-19 -0.00026983)
(-0.00107649 -0.00450498 3.69423e-18 0.0013995 3.68768e-18 -0.000323008)
(-0.00184271 -0.00417152 -3.60258e-18 0.0022262 -4.73078e-18 -0.000383495)
(-0.0025034 -0.00372308 1.02988e-18 0.0029608 2.66964e-19 -0.000457402)
(-0.00303671 -0.00320383 5.31258e-18 0.0035754 3.924e-18 -0.000538691)
(-0.00344525 -0.00264231 4.51893e-18 0.00407885 4.55495e-18 -0.000633602)
(-0.00374339 -0.00206851 5.33402e-18 0.00448564 1.54671e-18 -0.000742251)
(-0.00394263 -0.00150385 -6.56753e-18 0.00480679 -4.95785e-18 -0.00086416)
(-0.00405918 -0.000948768 -4.64893e-18 0.0050515 -4.60189e-18 -0.00099232)
(-0.00409836 -0.000420936 5.66847e-19 0.00523653 -1.75978e-18 -0.00113816)
(-0.00409642 0.000144709 -1.49877e-17 0.00538641 1.07597e-18 -0.00128999)
(-0.0040437 0.000831639 -5.00185e-18 0.00547998 -6.30417e-18 -0.00143628)
(-0.00387432 0.00166987 -3.40216e-17 0.00542405 -2.64286e-17 -0.00154972)
(-0.000603131 0.000461253 7.39417e-19 0.000869258 -9.97673e-19 -0.000266127)
(-3.38581e-05 4.31878e-05 2.35194e-20 4.99667e-05 -5.62207e-20 -1.61086e-05)
(-2.56326e-05 5.42955e-05 -2.55683e-19 3.85678e-05 2.37853e-21 -1.29352e-05)
(-1.72679e-05 6.47108e-05 4.15135e-20 2.72052e-05 8.25372e-21 -9.93727e-06)
(-7.87633e-06 7.07331e-05 -2.05946e-19 1.50696e-05 -3.94001e-20 -7.19324e-06)
(1.06707e-06 6.96533e-05 -6.8103e-20 3.76404e-06 7.63195e-20 -4.8311e-06)
(0.0728782 0.440706 1.2808e-16 -0.0594996 8.43413e-18 -0.0133786)
(1.83698e-05 3.02128e-05 6.07242e-20 -1.92872e-05 2.44479e-20 9.17339e-07)
(2.76397e-05 -9.76765e-06 -4.89664e-21 -3.13781e-05 4.01324e-21 3.73839e-06)
(2.61048e-05 -3.50412e-05 6.42164e-21 -2.92713e-05 4.76764e-22 3.1665e-06)
(1.93638e-05 -4.7964e-05 8.7158e-20 -2.02678e-05 -1.73504e-20 9.03938e-07)
(1.42601e-05 -5.52359e-05 -9.04071e-21 -1.45567e-05 3.96429e-20 2.96607e-07)
(1.01726e-05 -5.56372e-05 -1.33927e-19 -1.07317e-05 -7.05702e-20 5.59137e-07)
(6.57609e-05 -0.00044741 2.22101e-18 -7.30665e-05 -1.9402e-18 7.30567e-06)
(0.01107 -0.0838512 3.6152e-16 -0.0123948 -3.22258e-17 0.00132484)
(0.00868058 -0.0252936 -1.40019e-16 -0.0105311 -8.25631e-16 0.00185048)
(0.00974337 0.0163294 -2.56047e-16 -0.00962409 -5.0597e-17 -0.000119284)
(-0.00305768 -0.0146483 4.69074e-18 0.00302611 2.69524e-17 3.15696e-05)
(-0.00297532 -0.0100883 -2.416e-17 0.00261668 3.34094e-18 0.000358644)
(0.00125914 -0.0065025 -1.70784e-17 -0.000906703 1.2069e-17 -0.000352438)
(0.52342 -0.278961 -3.26889e-16 -0.486333 -9.82982e-17 -0.0370871)
(0.00450556 -0.00251509 -4.72186e-20 -0.00443137 -3.86855e-20 -7.4184e-05)
(0.00421354 -0.00148033 1.47157e-19 -0.00415734 6.84338e-19 -5.62029e-05)
(0.00476759 -0.000642073 4.95617e-19 -0.00473991 1.05036e-18 -2.76762e-05)
(0.00544441 0.000481013 6.52147e-19 -0.00543138 -3.23348e-19 -1.30246e-05)
(0.00520057 0.0017659 -1.36072e-18 -0.00520637 -1.11167e-18 5.80142e-06)
(0.00435695 0.0028528 -1.79776e-19 -0.00436132 -1.62336e-18 4.36852e-06)
(0.00331711 0.00368253 -2.24065e-18 -0.00331579 -2.1122e-18 -1.321e-06)
(0.00230383 0.00443545 -3.51735e-18 -0.00230878 -1.12346e-19 4.94418e-06)
(0.00113049 0.00492197 -1.00449e-18 -0.00114803 -6.22507e-19 1.75441e-05)
(-0.00011985 0.00511175 1.44779e-18 9.35116e-05 -9.81195e-19 2.63386e-05)
(-0.00131646 0.00502873 1.54212e-18 0.00129138 3.53678e-18 2.50786e-05)
(-0.00238973 0.00473137 3.70885e-18 0.00237823 -1.42894e-18 1.15055e-05)
(-0.00331382 0.00428705 -3.74737e-18 0.00333076 -3.89193e-18 -1.69391e-05)
(-0.00408935 0.00375844 -6.68611e-19 0.00414973 1.74228e-18 -6.03819e-05)
(-0.00471489 0.00319924 5.06661e-18 0.00483761 -1.13925e-18 -0.000122717)
(-0.00521279 0.0026462 1.2602e-17 0.00541347 -1.0334e-18 -0.000200679)
(-0.00559728 0.00212397 -9.68984e-18 0.00589281 -2.2331e-18 -0.00029553)
(-0.00593978 0.00165397 -3.10851e-18 0.00634501 -4.48162e-18 -0.000405226)
(-0.00624903 0.00120955 -1.65208e-18 0.00677407 9.34437e-19 -0.00052504)
(-0.0065104 0.000746149 2.2868e-17 0.00715475 -8.39867e-18 -0.000644342)
(-0.00670161 0.000234698 4.2887e-18 0.00746681 -5.93597e-18 -0.000765195)
(-0.00684256 -0.000367273 -2.85127e-17 0.00773046 7.69136e-18 -0.000887895)
(-0.00690322 -0.00117539 -1.16435e-18 0.0078998 3.96832e-18 -0.000996581)
(-0.00630435 -0.00193895 -4.61864e-19 0.00736651 -2.63188e-18 -0.00106216)
(-0.00504116 -0.00228653 3.28757e-19 0.0061024 -2.73163e-20 -0.00106124)
(-0.00397941 -0.00231517 -2.37185e-17 0.00509797 -2.66841e-18 -0.00111856)
(-0.00315015 -0.00218137 -2.4313e-19 0.0043238 4.14124e-20 -0.00117365)
(-0.00253904 -0.00199466 4.6833e-18 0.00376278 -4.31926e-20 -0.00122374)
(-0.00204251 -0.00176068 -1.83803e-19 0.00328285 -3.23049e-21 -0.00124033)
(-0.00165428 -0.00151059 4.68415e-20 0.00288984 -3.66034e-19 -0.00123557)
(-0.00132818 -0.00129324 -1.21156e-17 0.0025181 1.28414e-19 -0.00118992)
(-0.00103482 -0.0011389 -2.77108e-19 0.0021394 -1.70047e-20 -0.00110458)
(-0.000755766 -0.00108707 2.44796e-19 0.0017387 -8.88786e-19 -0.000982938)
(-0.00047498 -0.00120065 3.05232e-17 0.00132192 4.27051e-18 -0.000846939)
(-0.000178044 -0.00144234 1.49026e-19 0.000855463 1.48658e-20 -0.000677419)
(0.00022041 -0.00215319 -4.38724e-17 0.000346109 -4.47141e-18 -0.000566519)
(3.2964e-05 -0.000142587 7.64187e-18 -1.26954e-05 1.08057e-18 -2.02686e-05)
(0.00578126 -0.0138828 2.84421e-18 -0.00474069 -1.26887e-17 -0.00104057)
(0.921116 0.417908 1.25898e-15 -0.843973 -6.99786e-15 -0.0771422)
(0.00562578 -0.00477446 -1.98427e-19 -0.0056953 -2.83758e-19 6.95187e-05)
(0.00406758 -0.00492978 -3.19019e-19 -0.00415515 -4.29514e-19 8.75683e-05)
(0.0030859 -0.00574132 1.11416e-18 -0.00318561 1.4159e-18 9.971e-05)
(0.00180443 -0.00603837 -4.63879e-18 -0.00193017 -6.21547e-18 0.00012574)
(0.000531196 -0.00624796 1.16879e-18 -0.000688906 1.76045e-18 0.00015771)
(-0.000800277 -0.00617899 2.59807e-18 0.000610744 2.67907e-18 0.000189533)
(-9.01154e-05 -0.000250534 -9.86518e-20 8.00367e-05 -1.57995e-19 1.00787e-05)
(-0.000443731 -0.000704098 -2.07538e-19 0.00040499 3.4499e-20 3.87414e-05)
(-0.000931047 -0.000940095 -2.14405e-18 0.000856616 -2.00863e-18 7.44318e-05)
(-0.00145908 -0.000942463 -4.28993e-19 0.00134064 -1.11005e-18 0.000118447)
(-0.00191562 -0.00071849 9.96761e-20 0.00174893 -3.22734e-19 0.000166689)
(-0.00220522 -0.000326448 -2.14663e-18 0.00199033 -2.68894e-18 0.000214892)
(-0.00239874 0.00014545 1.17696e-18 0.00212789 1.39278e-18 0.000270847)
(-0.0024576 0.000658837 -5.38984e-18 0.00212895 -2.77739e-18 0.000328649)
(-0.00242862 0.00119483 1.30344e-18 0.00203587 7.25901e-19 0.000392742)
(-0.0023196 0.00173919 6.51341e-18 0.00186104 5.39593e-18 0.000458561)
(-0.00203181 0.00214315 -9.56965e-18 0.00154924 -2.6759e-18 0.000482567)
(-0.00156367 0.00226345 -1.75286e-18 0.00111541 7.86858e-18 0.000448256)
(-0.000951774 0.00193117 -5.03573e-19 0.00061111 -8.39664e-19 0.000340664)
(-0.000761808 0.00234877 -7.29832e-18 0.000389999 -1.08487e-18 0.000371809)
(-0.000299239 0.00177309 6.03693e-18 4.76593e-05 3.69522e-18 0.00025158)
(-8.91184e-06 0.000494364 5.72339e-20 -5.37831e-05 -9.03179e-20 6.26949e-05)
(7.77045e-06 5.87455e-05 1.75971e-19 -1.4412e-05 4.86025e-20 6.64156e-06)
(1.3454e-05 5.29438e-05 1.25836e-19 -1.86183e-05 4.10277e-20 5.16432e-06)
(1.43809e-05 4.73562e-05 -1.29536e-20 -1.7235e-05 -1.10771e-21 2.85412e-06)
(1.31797e-05 4.40058e-05 1.23096e-21 -1.43017e-05 -2.49349e-21 1.12203e-06)
(1.2848e-05 3.24211e-05 1.3656e-20 -1.31462e-05 -3.60955e-21 2.98139e-07)
(1.32763e-05 1.41651e-05 -6.41957e-21 -1.32151e-05 -9.25153e-21 -6.12186e-08)
(1.34213e-05 -3.61999e-06 -8.73831e-20 -1.33672e-05 -1.02066e-21 -5.41657e-08)
(1.23858e-05 -2.0724e-05 8.3477e-21 -1.25462e-05 5.10855e-22 1.60454e-07)
(9.89754e-06 -3.6002e-05 -1.59955e-20 -1.03372e-05 3.75632e-21 4.39667e-07)
(6.93747e-06 -4.7101e-05 -2.49272e-19 -7.62709e-06 -1.86391e-19 6.89617e-07)
(1.96121e-05 -0.000245741 -1.16269e-19 -2.20676e-05 -4.01575e-19 2.45556e-06)
(-3.78788e-07 -5.70471e-05 -6.97399e-19 -1.12167e-07 5.67897e-20 4.90955e-07)
(0.00383943 -0.0129509 3.95218e-17 -0.00355253 1.17185e-16 -0.000286897)
(0.00143847 -0.00720212 9.03378e-20 -0.00154257 -1.69186e-20 0.0001041)
(-0.00116343 -0.0145947 5.37793e-18 -0.000286113 5.92436e-17 0.00144954)
(0.00593927 -0.0015863 -1.77986e-18 -0.00553489 -9.20468e-18 -0.000404382)
(0.587186 -0.248307 7.32709e-17 -0.498621 -6.19519e-16 -0.0885651)
(0.00654008 -0.00378544 3.66788e-19 -0.00661563 2.11021e-19 7.55498e-05)
(0.00752836 -0.00276419 -1.11049e-18 -0.00757275 -1.71704e-18 4.43893e-05)
(0.00816905 -0.00126089 -6.78319e-19 -0.00821304 1.11878e-18 4.3994e-05)
(0.00782946 0.000476836 3.03411e-18 -0.00785242 2.00456e-18 2.29603e-05)
(0.00730384 0.00217571 -1.10541e-18 -0.00732026 -5.65085e-18 1.64186e-05)
(0.0049003 0.00286899 -1.5835e-18 -0.0048989 1.22787e-18 -1.40647e-06)
(0.00159525 0.00156768 1.6528e-18 -0.00159293 1.27512e-18 -2.32079e-06)
(0.00123905 0.00203161 -6.5687e-19 -0.00123912 -1.64721e-18 6.88659e-08)
(0.000769189 0.00246259 -1.75803e-18 -0.000771922 -7.57109e-19 2.73274e-06)
(0.000180616 0.00285005 -1.60842e-18 -0.000186068 6.29944e-19 5.45266e-06)
(-0.00052429 0.00321858 2.35184e-18 0.000517548 4.06603e-20 6.74162e-06)
(-0.00131804 0.00341822 -1.80546e-18 0.00130968 -1.56859e-18 8.35935e-06)
(-0.00209903 0.0033757 -2.6897e-18 0.00208618 2.06753e-18 1.28429e-05)
(-0.00281699 0.0031637 3.19259e-18 0.00279463 1.26935e-18 2.23639e-05)
(-0.00344746 0.00284114 -5.97133e-18 0.00340923 1.05393e-18 3.82355e-05)
(-0.00386888 0.00237425 -1.59913e-18 0.00380712 -4.75047e-18 6.17548e-05)
(-0.00400971 0.00181478 2.14348e-18 0.00391943 2.74812e-18 9.02798e-05)
(-0.00399731 0.00127878 -9.57226e-18 0.00387363 5.77145e-19 0.00012368)
(-0.00378394 0.000767553 3.99662e-18 0.00362956 -1.26916e-19 0.000154385)
(-0.00343341 0.000312945 -1.5834e-17 0.00325412 1.28867e-18 0.000179285)
(-0.00305385 -7.19117e-05 -1.90873e-18 0.00285655 5.27103e-19 0.000197291)
(-0.00268733 -0.000407781 1.27131e-17 0.00247626 7.5047e-19 0.000211076)
(-0.00231228 -0.000711737 1.19092e-17 0.00209429 -2.51148e-18 0.000217987)
(-0.00188948 -0.000968554 -1.00064e-17 0.00166282 7.69269e-19 0.000226657)
(-0.0014317 -0.00111834 -1.29458e-19 0.00119606 6.32915e-20 0.000235636)
(-0.00100221 -0.00114449 -9.23974e-18 0.000760988 2.06864e-18 0.000241222)
(-0.000634284 -0.00109719 -1.23143e-19 0.000377969 2.4468e-21 0.000256315)
(-0.000328701 -0.00101458 -2.41062e-22 4.82477e-05 -1.26164e-20 0.000280453)
(-7.82984e-05 -0.000912313 7.33838e-21 -0.000228262 -5.90164e-22 0.000306561)
(0.000124391 -0.000799624 3.17309e-18 -0.000456627 1.20199e-19 0.000332236)
(0.000280184 -0.0006909 4.19266e-21 -0.000632792 -2.45425e-19 0.000352608)
(0.000397202 -0.000595581 -1.01368e-19 -0.000763181 -1.49864e-20 0.000365979)
(0.000482643 -0.000502959 -2.021e-17 -0.000853356 -2.29008e-18 0.000370714)
(0.000551646 -0.000422737 -1.92423e-17 -0.000922391 -1.4805e-18 0.000370745)
(0.00057998 -0.000335673 3.2629e-20 -0.000930354 1.73876e-20 0.000350374)
(0.000763104 -0.000400635 -4.05741e-17 -0.00114124 -6.85419e-18 0.000378138)
(0.000112571 -5.15945e-05 1.47988e-20 -0.000158612 -1.99962e-19 4.60408e-05)
(0.00602727 -0.00353241 7.8513e-19 -0.00751761 1.75864e-19 0.00149034)
(0.517113 0.279161 -2.96843e-14 -0.551592 -3.03026e-15 0.0344799)
(0.00877864 -0.00741782 7.54842e-19 -0.00873262 8.53862e-19 -4.60215e-05)
(0.00746645 -0.00879727 -5.65159e-19 -0.00742403 -6.13121e-19 -4.24216e-05)
(0.00582548 -0.010187 -2.30598e-21 -0.00575462 -5.10699e-20 -7.08662e-05)
(0.00386388 -0.011244 -2.97883e-19 -0.0037791 2.65222e-19 -8.47808e-05)
(0.00171301 -0.0119268 7.60884e-18 -0.00160919 7.93778e-18 -0.00010382)
(-0.000627471 -0.0121571 -4.96248e-18 0.000768444 -6.23266e-18 -0.000140973)
(-0.0029829 -0.0118998 -3.6803e-19 0.00316071 1.59142e-18 -0.000177807)
(-0.00523135 -0.0111953 1.81319e-17 0.00545701 1.72501e-17 -0.000225662)
(-0.00730372 -0.0100801 -4.35046e-18 0.00759575 3.41099e-19 -0.000292029)
(-0.00910806 -0.00862785 -2.26726e-17 0.00947759 -1.50781e-17 -0.000369529)
(-0.010599 -0.00690854 7.49561e-18 0.0110669 6.22813e-18 -0.000467851)
(-0.0117523 -0.00499088 -2.13987e-17 0.0123426 -6.79829e-18 -0.000590352)
(-0.0125565 -0.00295606 -8.56583e-18 0.0132955 -3.19784e-18 -0.00073899)