/*--------------------------------*- C++ -*----------------------------------*\
| =========                 |                                                 |
| \\      /  F ield         | OpenFOAM: The Open Source CFD Toolbox           |
|  \\    /   O peration     | Version:  2312                                  |
|   \\  /    A nd           | Website:  www.openfoam.com                      |
|    \\/     M anipulation  |                                                 |
\*---------------------------------------------------------------------------*/
FoamFile
{
    version     2.0;
    format      ascii;
    arch        "LSB;label=32;scalar=64";
    class       volScalarField;
    location    "300";
    object      turbulenceProperties:L;
}
// * * * * * * * * * * * * * * * * * * * * * * * * * * * * * * * * * * * * * //

dimensions      [0 1 0 0 0 0 0];

internalField   nonuniform List<scalar> 
10720
(
0.00901595
0.00671691
0.0057916
0.00579767
0.00643241
0.00733299
0.00833528
0.00940584
0.0104316
0.0114228
0.0124756
0.0137736
0.0155057
0.0179499
0.0211363
0.0246032
0.0260695
0.02491
0.0191093
0.0173835
0.0199088
0.0267904
0.0392745
0.0602633
0.0847803
0.106531
0.284707
0.278009
0.0945005
0.0529737
0.0293864
0.00981031
0.00404457
0.00169963
8.53192e-11
1.09613e-10
1.71404e-10
3.42171e-10
0.016246
0.00973709
0.0174474
0.0325122
0.0070026
0.0184451
0.0134831
0.00912818
0.0076026
0.00717257
0.00744567
0.00795364
0.00867431
0.00960874
0.0109087
0.0113535
0.0111268
0.00817829
0.00652126
0.00568794
0.00579687
0.00645255
0.00813213
0.00972117
0.0110494
0.0117266
0.0117286
0.00968535
0.00659873
0.00381256
0.00183966
0.000574622
0.000148234
8.31608e-05
5.91389e-05
4.12461e-05
2.77107e-05
1.60688e-10
0.00625893
0.0606842
0.00898169
0.00806235
0.0105357
0.0136304
0.0183601
0.0247695
0.0318852
0.0392449
0.0462665
0.0528113
0.0590407
0.0648228
0.0739921
0.0920252
0.125992
0.189971
0.290198
0.499977
0.562758
0.236943
0.123966
0.0978694
0.0912723
0.08253
0.108694
0.102604
0.150854
0.11556
0.110487
0.19788
0.178091
0.0745885
0.0381635
0.0149324
0.00172396
2.46752e-10
3.27081e-10
0.00124419
0.0150515
0.030891
0.192932
0.157466
0.0166073
0.0285804
0.0380461
0.0410936
0.0481495
0.0480621
0.0475065
0.0468818
0.046009
0.0440696
0.0403568
0.0153854
0.197146
0.336118
0.325052
141.425
0.0131718
0.00571618
1.11396
0.0972992
0.00209544
0.00885267
0.00177562
0.00233189
0.00263342
0.00195681
0.00194979
0.0014698
0.00101862
0.000680667
0.000446519
0.000288362
0.000182026
2.55861e-05
0.00901076
0.0697738
0.0687823
0.0590921
0.0595526
0.0595523
0.059348
0.0588528
0.0580736
0.0571667
0.0562819
0.0554307
0.0546558
0.0539903
0.0536102
0.054055
0.0554187
0.0426595
0.0605388
0.0936619
0.144991
0.243501
1.23011
0.205068
0.201765
0.189617
0.178603
0.216032
0.186571
0.111854
0.0745097
0.0719034
0.0876429
0.0846697
0.0378271
0.0131105
0.00338795
0.00141177
3.07128e-10
0.00278427
0.0618782
0.04119
0.00661478
0.0200594
0.0134194
0.0387952
0.0493556
0.0527055
0.0537729
0.0538131
0.0531322
0.052205
0.0510898
0.0498647
0.0486884
0.0476095
0.0455449
0.0438259
0.0378804
0.0381604
0.0327154
0.0176825
0.0231492
0.00130162
0.0508042
0.0189289
0.03111
0.0145348
0.00894315
0.0109188
0.0130051
0.013353
0.010393
0.00849643
0.00730328
0.00652263
0.00646893
0.00100318
0.145321
0.3597
0.0234556
0.0304298
0.028244
0.0266798
0.0254295
0.0244194
0.0235377
0.0229474
0.0228423
0.0228348
0.0226516
0.0233774
0.0248524
0.0259203
0.0268938
0.0283228
0.0299223
0.0301013
0.00984832
3.68841e-09
3.74288e-09
4.07571e-09
5.09242e-09
4.90837e-09
23.8542
1.48003e-08
5.33807e-10
1.56956e-09
5.2914e-09
3.19388e-08
8.86261e-07
0.000210779
0.021875
0.0236603
0.0137267
0.00667762
0.00437315
0.00506338
0.124482
0.0185012
0.0216466
0.0401765
0.0515287
0.0521613
0.0478933
0.0431464
0.0435685
0.0440156
0.0444543
0.0450224
0.0456268
0.0462212
0.0468308
0.0473571
0.0477159
0.0477501
0.0479822
0.0480628
0.0475539
0.0468962
0.046355
0.0456705
0.044801
0.0434663
0.042074
0.0406122
0.0393392
0.0379813
0.0367145
0.0356422
0.034494
0.0331441
0.0317893
0.0299928
0.0291253
0.00619085
0.0927923
3.11532
0.0189624
0.0171777
0.0173922
0.0171828
0.0172992
0.017447
0.00230716
0.00601932
0.00810185
0.009662
0.0108365
0.0116525
0.0124512
0.0131609
0.013916
0.014718
0.0151682
0.0149707
0.0135745
0.0150584
0.0132113
0.00684807
3.7083e-09
4.01454e-09
4.98891e-09
1.38983e-08
2.65886e-14
1.18447e-13
4.41625e-13
2.48339e-12
2.81303e-11
1.28324e-09
8.0354e-05
5.11819e-10
0.0223622
0.0214895
0.0127492
0.00680492
0.122867
0.0284854
0.0481028
0.0509828
0.0433435
0.0309664
0.0171201
0.0108305
0.0115913
0.0125939
0.0139417
0.0157896
0.0178173
0.0198234
0.0219231
0.0241669
0.0261616
0.027633
0.028863
0.0294662
0.0295291
0.0293667
0.029157
0.0288839
0.0285631
0.0282273
0.0278388
0.0274412
0.027102
0.0268629
0.0266914
0.0266838
0.0270103
0.0275214
0.0284335
0.0290279
0.0330239
0.012197
0.0718516
8.07834
0.0409349
0.0411259
0.0413841
0.0416768
0.0418623
0.0420572
0.0422078
0.042288
0.0423032
0.0422467
0.0421198
0.0419213
0.0416555
0.0413168
0.0409047
0.0404055
0.0407013
0.0391512
0.0363342
0.0344475
0.0307016
0.0154202
0.0147415
0.011868
3.73887e-09
5.35581e-14
2.65879e-19
2.736e-19
4.61442e-19
1.11315e-18
3.44931e-18
1.38735e-17
6.88944e-17
1.20002e-11
9.029e-12
2.63419e-10
1.03063e-08
1.13366e-07
6.14166e-06
0.0512104
0.0451682
0.0286518
0.0183572
0.0121461
0.0100986
0.00914718
0.00921669
0.00949192
0.00976957
0.0101058
0.0105152
0.0109879
0.0115463
0.0122161
0.0130387
0.0134482
0.0137245
0.0140629
0.0142242
0.0142917
0.0143286
0.0143285
0.0142968
0.0142337
0.0141398
0.0140537
0.0139845
0.0139518
0.0139881
0.0140993
0.000785881
0.00538957
0.00879268
0.0109501
0.0172615
0.00746532
0.0467146
0.613534
0.0490673
0.0455165
0.043915
0.042812
0.0418593
0.0411341
0.0405871
0.0401625
0.0398349
0.0395772
0.0393692
0.0392085
0.0390902
0.0389998
0.0389265
0.0388818
0.0386431
0.0388841
0.0392396
0.0383472
0.0368831
0.0355189
0.0328488
0.0262861
0.0153127
3.54414e-09
6.02242e-19
3.65585e-19
4.19779e-19
7.38886e-19
1.73485e-18
4.87449e-18
1.36692e-17
3.45338e-17
3.77451e-13
4.3502e-12
5.08671e-11
1.93933e-15
1.5017e-08
0.0352694
0.0116819
0.0125788
0.0117298
0.0140654
0.0218064
0.0223476
0.0220655
0.0222216
0.0220701
0.0217082
0.0212275
0.0206784
0.020085
0.0194573
0.0195201
0.0183221
0.0166295
0.0162315
0.0158246
0.0154159
0.0149995
0.0145761
0.0141606
0.0137674
0.0134066
0.0131079
0.0128575
0.0126626
0.012539
0.0123834
0.0119359
0.0113765
0.0110295
0.0104719
0.0111193
0.00900289
0.0287116
0.248218
0.0222956
0.0247802
0.0228107
0.0215722
0.020526
0.0195496
0.018792
0.0183155
0.0180554
0.0179835
0.0181107
0.0184451
0.0189493
0.019618
0.0204523
0.0214648
0.0224255
0.0237032
0.0261041
0.0284928
0.0299929
0.0309095
0.0314934
0.0308617
0.0318557
1.66866e-08
3.05767e-14
5.64122e-19
4.68381e-19
6.23273e-19
1.15207e-18
2.54639e-18
5.52502e-18
1.00853e-17
1.56768e-17
3.25227e-17
8.79687e-17
1.99963e-16
7.65909e-16
0.0143488
0.0122048
0.0170472
0.0301361
0.0360376
0.0374067
0.0374473
0.037274
0.0372178
0.0370845
0.0368352
0.0365256
0.0361844
0.0358109
0.0353982
0.0348716
0.0343653
0.0337388
0.0331879
0.0326861
0.0322177
0.0317637
0.0313069
0.0308011
0.0302681
0.0297772
0.0293473
0.0289657
0.0286576
0.0284263
0.0282587
0.0280572
0.0276497
0.0270757
0.0262304
0.0252879
0.0244505
0.0114002
0.0822333
0.0102749
0.011027
0.0110872
0.0109581
0.0111721
0.0114115
0.0115137
0.0116901
0.0118744
0.0120384
0.0122488
0.0124855
0.0127438
0.0130403
0.0133552
0.0137185
0.0140718
0.0144753
0.0155318
0.0101978
0.015971
0.0198613
0.0230532
0.024018
0.0300646
5.25021e-08
1.04424e-13
9.58266e-19
5.97542e-19
6.17483e-19
9.17229e-19
1.66662e-18
3.05445e-18
4.96878e-18
7.17002e-18
1.21769e-17
2.6272e-17
5.27711e-17
1.47561e-16
0.0157806
0.0292911
0.0362611
0.0361341
0.033142
0.0319019
0.0320012
0.0320735
0.032262
0.0324885
0.032645
0.0327906
0.0329439
0.0330933
0.0331831
0.0330436
0.0326575
0.0321883
0.0317385
0.0313021
0.0308726
0.0304375
0.0299643
0.029442
0.0289241
0.0284551
0.028048
0.0276989
0.0274239
0.0272206
0.0271057
0.0271349
0.0272159
0.0272796
0.0272851
0.026923
0.0273054
0.0103818
0.0408306
0.0203856
0.0200534
0.0209472
0.0221589
0.0234857
0.0247131
0.0256237
0.0263144
0.0268381
0.0272085
0.0274582
0.0276029
0.0276479
0.0276035
0.0274364
0.0272136
0.0269425
0.0264765
0.0260784
0.0243989
0.0225545
0.0224053
0.0230789
0.0225161
0.0275133
1.64221e-07
3.49356e-13
1.74584e-18
8.42844e-19
6.92039e-19
8.38569e-19
1.27862e-18
2.04544e-18
3.05633e-18
4.19888e-18
6.33069e-18
1.18767e-17
2.15375e-17
4.32841e-17
0.0351376
0.0375252
0.0315228
0.0231545
0.0135986
0.0124354
0.0126202
0.0130486
0.0134132
0.0140293
0.0147467
0.0155053
0.0163346
0.0171999
0.0178466
0.0180911
0.0180845
0.0179832
0.0178171
0.0176064
0.0173622
0.0170853
0.0167609
0.0164252
0.016124
0.0158559
0.0156377
0.0154672
0.0153468
0.0152695
0.015241
0.0153897
0.0159749
0.0167822
0.0180696
0.0196029
0.0213209
0.0210108
0.00377514
0.0375919
0.0358018
0.0354531
0.0357969
0.0360802
0.0363123
0.0364066
0.0364597
0.0365042
0.0365351
0.0365395
0.0364901
0.0364458
0.0363657
0.0360563
0.0358255
0.0357256
0.0352412
0.0344385
0.0333116
0.0317108
0.0299985
0.028788
0.026763
0.0289666
5.97645e-07
1.34867e-12
3.36637e-18
1.29129e-18
8.58506e-19
8.60138e-19
1.11418e-18
1.57791e-18
2.18799e-18
2.89756e-18
4.07121e-18
6.93951e-18
1.16012e-17
1.89142e-17
0.0359973
0.023971
0.00618106
0.0090167
0.00552397
0.005394
0.00558451
0.00575505
0.00586634
0.0060596
0.00625956
0.00648139
0.00676014
0.0070767
0.00734625
0.0075025
0.00760097
0.00766871
0.00771402
0.00774058
0.00774954
0.00773593
0.00770115
0.00766243
0.00762668
0.00759713
0.00758347
0.00758416
0.00760088
0.00762964
0.00767444
0.00778929
0.00805495
0.008579
0.00904373
0.00164938
0.0081985
0.0146685
0.00512345
0.031022
0.0302084
0.0292408
0.0285017
0.0276461
0.0268749
0.0262898
0.025884
0.0256567
0.0255773
0.0256071
0.0256343
0.0259369
0.0264739
0.0267026
0.0268698
0.0272554
0.0278088
0.0287575
0.0297638
0.0301881
0.0300135
0.0297342
0.0282981
0.0302739
2.22906e-06
5.29707e-12
6.81764e-18
2.12098e-18
1.16145e-18
9.74989e-19
1.08373e-18
1.36871e-18
1.76671e-18
2.22949e-18
2.98885e-18
4.72913e-18
7.37164e-18
1.05129e-17
0.0156516
0.0103577
0.00619283
0.00854656
0.00497368
0.0063628
0.00685724
0.00703012
0.00698785
0.00681655
0.00654526
0.00619223
0.00578566
0.00537803
0.0050166
0.00471841
0.00448404
0.00430705
0.00417859
0.00409008
0.00403205
0.00399505
0.00398278
0.00399997
0.00403778
0.00407749
0.00411644
0.00415543
0.00419517
0.00423632
0.00426412
0.00422241
0.00359359
0.00460704
0.00165003
0.00793856
0.00857024
0.00709583
0.00897887
0.00874605
0.0114606
0.00706226
0.0108514
0.0103654
0.0101836
0.00994842
0.00984148
0.00980015
0.00979422
0.00986534
0.00994446
0.0101441
0.0104617
0.0106874
0.0017705
0.00650853
0.00947524
0.0118637
0.0150228
0.0187768
0.021844
0.0240402
0.0244493
0.0283782
7.82118e-06
1.9436e-11
1.44365e-17
3.70339e-18
1.69534e-18
1.20769e-18
1.16312e-18
1.317e-18
1.58281e-18
1.91511e-18
2.44055e-18
3.57833e-18
5.19742e-18
6.79473e-18
0.006741
0.00929945
0.0158206
0.0230161
0.024264
0.0243673
0.0244476
0.0244547
0.0243741
0.0242279
0.0240394
0.0238238
0.0235884
0.0233696
0.0231727
0.0229897
0.0228157
0.0226463
0.022475
0.0222928
0.0220998
0.0219061
0.0217183
0.0215428
0.0213839
0.021235
0.0210959
0.0209629
0.0208483
0.0207503
0.0206679
0.0206024
0.0203783
0.0198569
0.0189731
0.0177884
0.0166673
0.0146677
0.0131657
0.00672991
0.00693628
0.00678452
0.00672333
0.00731481
0.00782884
0.00811354
0.0083566
0.00852608
0.00861416
0.00869309
0.00874725
0.00878381
0.00882643
0.00886649
0.00893401
0.00934037
0.00982358
0.0103178
0.011008
0.00170441
0.00992508
0.0147312
0.0169915
0.0232498
2.51502e-05
6.4954e-11
3.18746e-17
6.83558e-18
2.64931e-18
1.6203e-18
1.36489e-18
1.39236e-18
1.55808e-18
1.80805e-18
2.18927e-18
2.96442e-18
4.70093e-18
5.89821e-18
0.00592862
0.0220687
0.0269937
0.025467
0.0256244
0.0255033
0.0252161
0.0250923
0.0249794
0.0248583
0.0247486
0.024653
0.024566
0.0244834
0.0244012
0.0243138
0.0242189
0.0241358
0.0240398
0.0239271
0.0238086
0.0236831
0.0235488
0.0234124
0.0232822
0.0231542
0.0230295
0.0229058
0.0227966
0.0227072
0.0226257
0.0225977
0.0226033
0.0225406
0.0223076
0.0219523
0.021216
0.0193408
0.0168686
0.0160031
0.0158048
0.0172378
0.018902
0.0204028
0.0216433
0.0225332
0.0231512
0.0235639
0.0238166
0.0239601
0.0240365
0.0240667
0.0240664
0.0240347
0.0239701
0.0238839
0.0237904
0.0236255
0.0230982
0.0225133
0.0207831
0.0191441
0.0183818
0.0213828
8.69256e-05
1.81291e-12
3.20963e-14
1.32878e-17
4.40728e-18
2.33812e-18
1.73778e-18
1.60489e-18
1.67307e-18
1.85638e-18
2.14507e-18
3.42331e-18
3.99847e-17
6.94111e-16
0.0255473
0.0272665
0.0223576
0.0158236
0.0130755
0.0127399
0.0138657
0.0140863
0.0141068
0.0140994
0.0140984
0.0141105
0.014135
0.014167
0.0141999
0.0142271
0.014245
0.0141909
0.014027
0.0138212
0.0136042
0.013391
0.0131888
0.0130099
0.0128626
0.0127409
0.0126411
0.0125587
0.0124992
0.0124659
0.012442
0.0124671
0.0128041
0.0136796
0.014663
0.0155928
0.0167855
0.0175474
0.0163377
0.0271593
0.0258888
0.0258638
0.026465
0.0269047
0.0272571
0.027497
0.0276126
0.0276741
0.0277222
0.0277737
0.0278469
0.0279245
0.0280518
0.0281958
0.0282632
0.0283018
0.0283353
0.0282761
0.028393
0.0282683
0.0270252
0.0252962
0.02351
0.0230953
0.000305757
1.32798e-11
2.01266e-13
2.71431e-17
7.77408e-18
3.60877e-18
2.38492e-18
2.00359e-18
1.94775e-18
2.0614e-18
2.31657e-18
2.65276e-16
4.45004e-11
1.59165e-09
0.0257518
0.0174666
0.00541884
0.00643395
0.00516259
0.00509575
0.0055681
0.00562252
0.00559714
0.00557245
0.00552571
0.00549046
0.00548743
0.00549567
0.00552539
0.00557639
0.00563894
0.00568689
0.00570132
0.00570476
0.00570562
0.00570968
0.00571778
0.00572865
0.00573855
0.00575203
0.00577187
0.00579628
0.00582778
0.00586833
0.00590955
0.00597146
0.00618122
0.00665166
0.00717736
0.00777258
0.00686189
0.0112426
0.0129666
0.0217724
0.0209733
0.0197218
0.0188689
0.018105
0.0174793
0.0170449
0.016726
0.0165494
0.0165226
0.0166192
0.0168222
0.0170292
0.0174538
0.0180767
0.0183956
0.0187429
0.0192432
0.0196267
0.0204613
0.021725
0.0228787
0.0236066
0.0232971
0.0226058
0.000929523
7.18044e-11
9.39395e-13
5.81894e-17
1.45012e-17
5.93301e-18
3.50914e-18
2.69292e-18
2.44458e-18
2.46496e-18
6.42668e-18
1.18341e-11
1.68814e-09
3.38133e-09
0.0116239
0.00764829
0.00301407
0.00466032
0.0050619
0.00529315
0.00527948
0.00529922
0.00527954
0.00523794
0.00515573
0.00507362
0.00501782
0.0049711
0.00494527
0.00494396
0.00495625
0.00504221
0.00512183
0.00519929
0.00527518
0.00535152
0.0054274
0.005496
0.00554967
0.00559517
0.00563816
0.00567799
0.00571686
0.00575745
0.00579627
0.00583336
0.00584483
0.0056705
0.00533419
0.00480158
0.00528972
0.00651011
0.00719697
0.004954
0.00558309
0.00782917
0.00714002
0.00689918
0.00671578
0.00651427
0.00640845
0.00636122
0.00635535
0.00642247
0.00653422
0.00665216
0.00687173
0.00717829
0.00737593
0.00759584
0.00788717
0.0081389
0.00872648
0.00532527
0.0104575
0.0141202
0.0168332
0.0181162
0.00234181
3.38369e-10
3.84818e-12
1.30845e-16
2.85557e-17
1.03582e-17
5.51203e-18
3.87659e-18
3.28969e-18
3.15807e-18
5.39047e-18
1.66665e-12
1.45902e-09
1.20098e-09
0.00460416
0.0048721
0.00576794
0.0124815
0.0134153
0.0138468
0.013777
0.0139565
0.0140408
0.0140433
0.0140095
0.0139626
0.0139127
0.0138649
0.0138182
0.0137712
0.0137233
0.0138335
0.0138897
0.0139126
0.0139137
0.0139004
0.013876
0.0138449
0.0138127
0.0137784
0.0137421
0.0137038
0.0136674
0.01364
0.0136193
0.0135978
0.0135211
0.0130209
0.0121613
0.0108713
0.00916122
0.00706091
0.00751103
0.00379183
0.00430453
0.00449177
0.00462785
0.00486285
0.00509462
0.00518517
0.0052675
0.00532072
0.00533902
0.00536716
0.00538863
0.00540712
0.00543164
0.00545179
0.00547599
0.00550619
0.00553958
0.00557246
0.0056018
0.00589371
0.0067255
0.00757976
0.00862985
0.0080505
0.00425421
1.39588e-09
1.38824e-11
3.08551e-16
5.92889e-17
1.91581e-17
9.21056e-18
5.95053e-18
4.7224e-18
4.30902e-18
5.82136e-18
3.73934e-13
1.12674e-11
2.78231e-09
0.00721065
0.0126361
0.0173014
0.0185012
0.0184311
0.018468
0.0186213
0.0187647
0.0188332
0.0188401
0.0188244
0.0188078
0.0187961
0.0187893
0.0187846
0.0187796
0.0187742
0.0187673
0.0187575
0.0187432
0.0187244
0.0187012
0.0186713
0.0186361
0.018601
0.0185636
0.0185234
0.0184814
0.0184408
0.0184105
0.0183924
0.0183853
0.018409
0.0182315
0.0179549
0.0171445
0.0158986
0.014439
0.0124798
0.00924735
0.0104244
0.0120181
0.012634
0.0132052
0.0137536
0.0141288
0.0143789
0.0145441
0.0146496
0.0147108
0.0147409
0.0147495
0.0147375
0.0147053
0.0146676
0.0146377
0.0146098
0.0145783
0.014538
0.0140431
0.0129184
0.0115723
0.0101533
0.00840463
0.00725509
7.2064e-09
6.29885e-11
7.62915e-16
1.29676e-16
3.74661e-17
1.63243e-17
9.70209e-18
7.19829e-18
6.22976e-18
7.07297e-18
1.09752e-13
4.99473e-09
3.38948e-09
0.0162884
0.0186279
0.0166701
0.0135508
0.0138348
0.0136373
0.0135402
0.0135709
0.013623
0.0136493
0.0136696
0.0137016
0.0137437
0.0137898
0.0138353
0.0138771
0.0139142
0.0139459
0.0139714
0.0139892
0.0139995
0.0140032
0.0139993
0.0139898
0.0139791
0.0139667
0.0139525
0.0139377
0.0139242
0.0139188
0.0139236
0.0139295
0.0139964
0.0142723
0.0146864
0.0150867
0.0152176
0.0148439
0.0136113
0.0185826
0.01871
0.0194682
0.0197915
0.0199915
0.0202544
0.0203901
0.0204668
0.0205223
0.0205669
0.0206001
0.0206287
0.0206581
0.0206831
0.0206984
0.0207176
0.0207519
0.0207842
0.0207991
0.0208425
0.0207525
0.0200464
0.0190703
0.0182468
0.0160059
0.012776
4.98436e-08
3.84518e-10
1.97738e-15
2.9847e-16
7.73306e-17
3.06047e-17
1.67442e-17
1.1604e-17
9.4999e-18
9.56466e-18
3.99927e-14
1.30786e-09
2.09593e-09
0.0188557
0.0142806
0.00821378
0.00593532
0.00549276
0.00548522
0.00546183
0.00542613
0.00539402
0.00535977
0.00529033
0.00522629
0.00519308
0.00516757
0.00516354
0.0051874
0.00522748
0.00528706
0.00536269
0.00545065
0.00554553
0.00564804
0.00575461
0.00585383
0.00593416
0.00600474
0.0060734
0.00614028
0.00620562
0.00627157
0.00633961
0.00640588
0.00650067
0.000734658
0.0044238
0.00707302
0.00943121
0.0112165
0.0116868
0.0167639
0.0160952
0.0156878
0.015712
0.0156419
0.0156063
0.0155813
0.015573
0.0155945
0.0156385
0.015699
0.0157761
0.0158719
0.0159803
0.0160969
0.016229
0.0163827
0.0165503
0.016719
0.0169277
0.0173681
0.0179126
0.0182189
0.0182595
0.0174697
0.0166419
3.35894e-07
2.29615e-09
5.37077e-15
7.22268e-16
1.68165e-16
6.05402e-17
3.04909e-17
1.97081e-17
1.52157e-17
1.39626e-17
1.70709e-14
4.64629e-10
3.06131e-09
0.0100591
0.00636784
0.00323505
4.11747e-09
4.11966e-09
4.12171e-09
4.12386e-09
4.12623e-09
4.12869e-09
4.13115e-09
4.13362e-09
4.1361e-09
4.13855e-09
4.14097e-09
4.14332e-09
4.14558e-09
4.1478e-09
4.14996e-09
4.15208e-09
4.15416e-09
4.15628e-09
4.1586e-09
4.16117e-09
4.16409e-09
4.16754e-09
4.17143e-09
4.17567e-09
4.18033e-09
4.18543e-09
4.19121e-09
4.19789e-09
4.20534e-09
4.21335e-09
0.000341759
0.0020763
0.00334758
0.00458216
0.0045473
0.00788737
0.00558135
0.00599965
0.00357287
0.00142663
0.00605152
0.00605758
0.0059926
0.00597701
0.00597359
0.00596029
0.00598349
0.00601795
0.00606859
0.000474092
0.00172319
0.00247667
0.00309282
0.00369845
0.00430424
0.004827
0.00570751
0.00793817
0.010238
0.0123066
0.0135995
0.0155955
1.97759e-06
1.20161e-08
1.52799e-14
1.83543e-15
3.84703e-16
1.26075e-16
5.84182e-17
3.51374e-17
2.54994e-17
2.16447e-17
8.25446e-15
4.66405e-11
1.02774e-09
0.00422031
4.12834e-09
0.00193518
0.00264159
0.00294703
0.00321728
0.00337901
0.00342926
0.00343944
0.00343959
0.00340876
0.00337113
0.00334692
0.00332194
0.00330844
0.00331381
0.00332995
0.00336091
0.00340474
0.00345912
0.00352134
0.00359123
0.00366763
0.00373987
0.00379739
0.00384751
0.00389657
0.00394467
0.00399179
0.00403781
0.00408402
0.0041311
0.00417987
0.00418515
0.00408919
0.00384327
0.00334274
0.00348468
0.00312705
0.0021022
0.00227379
0.00139991
0.000547757
4.14083e-09
4.14443e-09
4.14748e-09
4.15009e-09
4.15263e-09
4.15521e-09
4.1579e-09
4.16087e-09
4.16421e-09
0.000181694
0.000663899
0.000960586
0.00120864
0.00145725
0.00171047
0.00193512
0.00230746
0.00323461
0.0042021
0.00529775
0.00503957
0.0105981
9.73552e-06
5.28003e-08
4.55247e-14
4.89392e-15
9.24689e-16
2.75795e-16
1.17469e-16
6.55802e-17
4.45827e-17
3.52132e-17
4.42014e-15
8.21039e-12
2.06521e-10
0.00256946
0.00421176
0.00507372
0.00691712
0.00764416
0.00823897
0.00863434
0.00885445
0.00898656
0.009086
0.0091706
0.00924385
0.00930853
0.00936592
0.00941628
0.00946076
0.0095003
0.00953509
0.00956525
0.00959085
0.0096126
0.00963204
0.00965
0.00966704
0.00968455
0.00970158
0.00971672
0.00973068
0.00974305
0.00975469
0.00976865
0.00978677
0.0098122
0.0097391
0.00943602
0.00879597
0.00759063
0.00598758
0.00546115
0.00416317
0.00340786
0.003632
0.00360603
0.00365488
0.00371134
0.00370475
0.00372022
0.00373255
0.00372978
0.00374398
0.00375952
0.00377796
0.00380376
0.00383331
0.00387067
0.00391266
0.00395509
0.00399432
0.00403244
0.00407386
0.00400221
0.00376489
0.00336979
0.00362888
0.00520068
3.16152e-05
2.33875e-08
3.05953e-10
1.36877e-14
2.33252e-15
6.33018e-16
2.47416e-16
1.27835e-16
8.11216e-17
5.96947e-17
2.59269e-15
1.74193e-12
4.30799e-11
0.00708253
0.010693
0.0120042
0.0113887
0.0116106
0.0118184
0.0119858
0.0120964
0.0121676
0.0122279
0.0122886
0.0123471
0.0124007
0.0124496
0.0124933
0.012532
0.0125668
0.0125978
0.0126251
0.0126485
0.0126689
0.0126884
0.0127082
0.0127284
0.0127508
0.0127753
0.012799
0.0128224
0.0128444
0.0128655
0.0128888
0.0129167
0.0129707
0.0130216
0.0129478
0.0126386
0.0118732
0.0108515
0.00942567
0.00938928
0.00925874
0.00954867
0.00968675
0.00977018
0.00986296
0.00994769
0.0100204
0.0100889
0.0101551
0.0102185
0.0102802
0.0103395
0.010388
0.0104372
0.0104918
0.0105468
0.0105952
0.0106301
0.0106598
0.010701
0.0104566
0.00979145
0.00873278
0.00765203
0.00618802
0.000182233
6.83803e-07
8.47586e-09
4.01182e-14
6.1718e-15
1.52238e-15
5.45197e-16
2.59986e-16
1.53373e-16
1.05054e-16
1.67639e-15
4.26766e-13
1.2251e-09
0.0137157
0.0135944
0.0126991
0.0112581
0.0104968
0.0100276
0.00971945
0.00954058
0.00941939
0.00933226
0.00927881
0.00924609
0.00922348
0.00920792
0.00919609
0.00918663
0.00917869
0.00917232
0.00916608
0.00916
0.00915393
0.00914966
0.00914789
0.0091487
0.00915458
0.0091646
0.00917677
0.00919105
0.00920722
0.00922488
0.00924628
0.00927168
0.00931736
0.00946399
0.00977916
0.0101887
0.0105377
0.0105922
0.00987619
0.0143502
0.0139384
0.0140627
0.0141572
0.0142147
0.0142868
0.0143533
0.0144142
0.0144787
0.0145483
0.0146191
0.0146901
0.0147607
0.0148169
0.0148768
0.0149506
0.0150238
0.0150914
0.0151452
0.0151973
0.015294
0.0152882
0.0149677
0.0142882
0.0135121
0.0125528
0.00137407
7.8355e-06
2.15085e-08
4.65486e-10
1.7113e-14
3.83503e-15
1.25593e-15
5.51086e-16
3.01185e-16
1.91565e-16
1.23248e-15
1.2292e-13
1.25648e-10
0.0131841
0.0094474
0.00688465
0.00556518
0.00466984
0.00374915
0.00296146
0.00234736
0.00182309
0.00125624
0.000446749
0.00350078
0.00343327
0.00337218
0.00332625
0.00330394
0.00329543
0.00330648
0.00333441
0.00337768
0.00343257
0.00349927
0.00357651
0.00365136
0.00371039
0.00376316
0.0038173
0.00387241
0.00392824
0.00398412
0.0040409
0.00409841
0.00416421
0.00428233
0.00101619
0.00374442
0.00582535
0.00749745
0.00818463
0.0116593
0.0115533
0.0113775
0.0113336
0.011293
0.0112663
0.0112549
0.011251
0.0112619
0.0112863
0.0113181
0.0113555
0.011399
0.0114455
0.0114903
0.0115406
0.0116037
0.0116753
0.0117482
0.0118272
0.011953
0.0122504
0.0126286
0.0129311
0.0130669
0.0129285
0.00483921
5.5818e-05
2.44332e-07
4.82493e-09
4.96759e-14
1.01057e-14
3.0228e-15
1.21709e-15
6.14097e-16
3.61755e-16
1.08621e-15
4.38593e-14
2.01496e-11
0.00639115
0.00417918
0.00274242
0.00221746
0.00187693
0.00152571
0.00120772
0.000947351
0.00072688
0.000495175
0.000172669
4.21082e-09
4.21495e-09
4.21882e-09
4.22242e-09
4.22583e-09
4.22916e-09
4.23248e-09
4.23587e-09
4.23939e-09
4.24312e-09
4.24723e-09
4.25182e-09
4.25689e-09
4.26239e-09
4.26828e-09
4.27444e-09
4.28091e-09
4.28772e-09
4.29479e-09
4.30231e-09
4.31031e-09
4.31898e-09
4.32797e-09
0.000461248
0.00171718
0.0027079
0.00108988
0.00498
0.0033176
0.00410814
0.00334482
0.00287963
0.00254787
0.00229168
0.00207294
0.00186352
0.00166863
0.00149778
0.00135445
0.00124129
0.00118376
0.00119553
0.00124823
0.00134853
0.00151331
0.00173054
0.00198777
0.00225021
0.002507
0.0034742
0.00520649
0.00691569
0.00836752
0.00954444
0.00788254
0.000270695
2.08453e-06
3.75613e-08
1.50739e-13
2.78315e-14
7.59105e-15
2.79987e-15
1.3e-15
7.07346e-16
1.18803e-15
2.02341e-14
4.30303e-12
0.00266556
4.19374e-09
0.000877417
0.000940521
0.00114754
0.00138919
0.00154202
0.00161991
0.00166554
0.00169613
0.00169921
0.00168907
0.00167968
0.00166462
0.00165237
0.00164945
0.00165214
0.00166432
0.00168614
0.00172592
0.00175595
0.00178246
0.00181978
0.00185923
0.00189124
0.00192052
0.00195172
0.00198399
0.00201691
0.00204965
0.00208236
0.00211491
0.00214812
0.00218042
0.00212788
0.0019661
0.00154659
0.000952538
0.00233298
0.00126509
0.00157638
0.00132652
0.00111783
0.000993874
0.000899218
0.000804846
0.000721171
0.000643346
0.000572946
0.000516578
0.000472168
0.000449421
0.000454389
0.000475387
0.000515481
0.000581254
0.000668475
0.000772593
0.000880067
0.000986162
0.00137295
0.00206544
0.00274969
0.00345547
0.00278055
0.00529939
0.000876358
1.27787e-05
2.14983e-07
4.77421e-13
7.99795e-14
1.98687e-14
6.69942e-15
2.85593e-15
1.43155e-15
1.5818e-15
1.21094e-14
1.20229e-12
0.00195961
0.00343477
0.0022717
0.00243625
0.00294999
0.00353161
0.00391776
0.00416639
0.00434441
0.0044841
0.00459262
0.00467637
0.00474381
0.00479908
0.00484505
0.00488501
0.00492128
0.00495536
0.00498854
0.00504749
0.00505649
0.00503489
0.00502676
0.00502966
0.00504157
0.00505951
0.00508038
0.00510291
0.00512641
0.00514942
0.00517235
0.00519497
0.00521934
0.0052425
0.00506413
0.0046325
0.00360856
0.001863
0.00331515
0.00310497
0.00234109
0.0023804
0.00236742
0.00244429
0.00253622
0.0025818
0.00263785
0.00268505
0.00271267
0.00274668
0.00277556
0.0028009
0.00283031
0.00285851
0.00288928
0.00292237
0.00295606
0.00298753
0.00301643
0.00304301
0.00305245
0.0029563
0.00275228
0.00245755
0.00236955
0.00293017
0.000927088
4.84687e-05
4.00276e-07
1.07246e-08
2.39202e-13
5.40857e-14
1.66521e-14
6.50266e-15
2.99605e-15
2.44867e-15
9.27911e-15
4.33512e-13
0.00534102
0.00913174
0.00917692
0.00888716
0.00896131
0.00910613
0.00923766
0.00933994
0.0094255
0.00950333
0.00957342
0.00963352
0.00968623
0.00973282
0.00977364
0.0098111
0.00984681
0.0098817
0.00991672
0.0100095
0.0100228
0.00998235
0.0100269
0.010074
0.0101218
0.0101692
0.0102143
0.0102581
0.0103017
0.0103439
0.0103867
0.01043
0.0104783
0.0104326
0.0103299
0.0101707
0.00968916
0.00885225
0.0075918
0.00695979
0.0063062
0.00620981
0.00632165
0.00650482
0.00671814
0.00692096
0.00710196
0.00726399
0.00740626
0.00753188
0.00764337
0.00774113
0.00782647
0.00790185
0.00797126
0.0080379
0.00809951
0.00815121
0.00819364
0.00823235
0.00823549
0.00796404
0.00741867
0.00660439
0.00556451
0.00446498
0.00267081
0.000225613
5.07427e-06
1.61229e-07
7.43122e-13
1.52768e-13
4.29035e-14
1.53214e-14
6.47714e-15
4.22543e-15
8.97643e-15
2.00093e-13
0.0117108
0.0122104
0.0116341
0.0112397
0.0110199
0.0109141
0.0108691
0.010851
0.0108463
0.0108524
0.0108694
0.0108911
0.0109135
0.0109367
0.0109599
0.0109824
0.0110052
0.0110285
0.0110521
0.0110762
0.0111179
0.0111572
0.0111962
0.0112346
0.0112724
0.0113101
0.0113468
0.0113836
0.0114224
0.011462
0.011505
0.0115508
0.0115997
0.0116743
0.0117305
0.0117251
0.011612
0.0112353
0.0103335
0.0121172
0.0115036
0.0114538
0.0115359
0.0116426
0.0117511
0.0118525
0.0119389
0.0120189
0.0120959
0.0121703
0.0122432
0.0123123
0.012376
0.0124361
0.0124977
0.012565
0.0126343
0.0126978
0.0127546
0.0128133
0.0128993
0.0128026
0.0124729
0.0118908
0.0112232
0.0104275
0.00870987
0.00159613
5.14399e-05
8.97983e-07
3.45734e-08
4.46812e-13
1.14323e-13
3.72847e-14
1.44397e-14
7.88755e-15
1.0647e-14
1.16331e-13
0.0122517
0.00862435
0.00783952
0.00775049
0.00741841
0.0071378
0.00694084
0.00680384
0.0066984
0.0066166
0.00655751
0.00651593
0.00648541
0.00646355
0.00644815
0.00643699
0.00642889
0.00642332
0.00641936
0.00641642
0.00641411
0.00641317
0.00641357
0.00641474
0.00641733
0.00642228
0.00642983
0.00643977
0.00645331
0.00647022
0.00649158
0.00651695
0.00653901
0.00659177
0.00692762
0.00752594
0.00829034
0.00903329
0.00920512
0.0111859
0.0111225
0.0110865
0.0110179
0.0109624
0.0109045
0.0108591
0.0108163
0.0107834
0.0107654
0.01076
0.0107657
0.0107791
0.0107966
0.0108185
0.0108486
0.0108901
0.0109407
0.0109945
0.0110488
0.0111053
0.0112103
0.011412
0.0115846
0.011679
0.0116588
0.0114426
0.0108298
0.00526398
0.000311774
8.85008e-06
9.74697e-08
4.74777e-09
3.14432e-13
9.35405e-14
3.31482e-14
1.56126e-14
1.48539e-14
8.33727e-14
0.00556628
0.00380324
0.00316889
0.00313155
0.00302051
0.0029394
0.00286092
0.00277112
0.00269025
0.00262136
0.00253878
0.00245805
0.00239264
0.00232787
0.00227399
0.00223851
0.00221362
0.00220515
0.0022125
0.00223442
0.00226852
0.00231526
0.00237345
0.00242953
0.00246839
0.0025
0.00253402
0.00257004
0.00260837
0.00264858
0.00269106
0.0027357
0.00277924
0.00283636
0.00301778
0.00331883
0.00382954
0.004083
0.00595606
0.00439879
0.00510427
0.004468
0.0046397
0.00471835
0.00465373
0.00452976
0.00439746
0.0042693
0.00415818
0.00406575
0.0039901
0.00393053
0.00388544
0.00385407
0.00383813
0.00383954
0.00385817
0.00389294
0.00394504
0.00399095
0.00407794
0.00485517
0.00594807
0.00703659
0.00801334
0.00883553
0.00940007
0.00799443
0.00126114
5.68087e-05
1.28019e-06
5.73815e-08
8.91343e-13
2.41574e-13
7.82314e-14
3.23626e-14
2.34193e-14
7.25959e-14
0.00259487
0.00208099
0.00221097
0.00226141
0.00236995
0.00247013
0.00252764
0.00254026
0.00253919
0.00253358
0.00249865
0.00245151
0.00241066
0.00236303
0.00232064
0.00229394
0.00227619
0.00227424
0.00228868
0.00231946
0.00236396
0.00242359
0.00249781
0.00257104
0.00262377
0.00266662
0.00271078
0.00275628
0.00280338
0.00285137
0.0029006
0.00295095
0.00300279
0.00305513
0.00305265
0.00295436
0.00280855
0.00309994
0.00224806
0.00170043
0.00198448
0.0017948
0.00182207
0.00185983
0.00188686
0.0018736
0.00186592
0.00185544
0.00183539
0.00182667
0.00182058