/*--------------------------------*- C++ -*----------------------------------*\
| =========                 |                                                 |
| \\      /  F ield         | OpenFOAM: The Open Source CFD Toolbox           |
|  \\    /   O peration     | Version:  2312                                  |
|   \\  /    A nd           | Website:  www.openfoam.com                      |
|    \\/     M anipulation  |                                                 |
\*---------------------------------------------------------------------------*/
FoamFile
{
    version     2.0;
    format      ascii;
    arch        "LSB;label=32;scalar=64";
    class       volScalarField;
    location    "300";
    object      turbulenceProperties:I;
}
// * * * * * * * * * * * * * * * * * * * * * * * * * * * * * * * * * * * * * //

dimensions      [0 0 0 0 0 0 0];

internalField   nonuniform List<scalar> 
10720
(
0.00550395
0.00526138
0.00502894
0.00503209
0.00511063
0.00525445
0.00549509
0.00583408
0.00630582
0.00696106
0.00786869
0.00915726
0.0110116
0.0137362
0.0179189
0.0248374
0.0353283
0.0541242
0.0799107
0.106817
0.138608
0.186255
0.259443
0.364701
0.457277
0.514505
0.702601
0.904135
0.782039
0.530764
0.316118
0.130727
0.0627979
0.0297337
2.33177e-09
1.04031e-08
2.27693e-08
2.60623e-09
1
0.00415815
0.00444653
0.0072187
0.00983324
0.0111977
0.0152394
0.0228947
0.0386786
0.0259221
0.0169339
0.013957
0.0133219
0.013776
0.015271
0.0171222
0.0210172
0.0236946
0.0350167
0.0401959
0.0432302
0.0467206
0.0561128
0.0649764
0.07529
0.0853488
0.0949862
0.0892644
0.0687263
0.0436017
0.0222785
0.00706517
0.00178083
0.000949448
0.000632241
0.000414105
0.000265576
1.58858e-09
0.0623012
0.436328
0.00321489
0.00300848
0.00294617
0.00279312
0.00263837
0.00249631
0.00237087
0.00225984
0.00216534
0.00208679
0.00202331
0.00197089
0.00202293
0.00228264
0.00287012
0.00404352
0.00595764
0.0094577
0.0152506
0.0232455
0.0329367
0.044494
0.0599335
0.0769054
0.149642
0.212389
0.389699
0.577064
0.550304
0.444126
0.317643
0.198774
0.107491
0.0431366
0.00687538
2.20326e-09
7.90775e-09
0.00374051
0.396923
0.00478627
0.00517457
0.00399918
0.00391021
0.00437058
0.00649297
0.00947935
0.0132693
0.0115261
0.00841138
0.00628143
0.00490289
0.00384487
0.00291652
0.000907407
0.0090061
0.0102319
0.0045416
0.0172866
0.0187784
0.00807625
0.0247109
0.00982439
0.0117624
0.0379906
0.00676825
0.00708574
0.00710919
0.00531707
0.00470804
0.00362178
0.00251202
0.00165126
0.00103805
0.000634272
0.000372988
4.86816e-05
0.0152373
0.152195
0.00501613
0.0043526
0.00397725
0.00363851
0.00336675
0.00314008
0.0029574
0.00281203
0.00269998
0.00261406
0.00255147
0.00250893
0.00249143
0.00252158
0.00260586
0.00202964
0.00292047
0.00458089
0.00742606
0.0113835
0.0160813
0.0214799
0.0283856
0.0370248
0.0522263
0.0775558
0.210124
0.344518
0.351136
0.319709
0.257684
0.186738
0.116755
0.054751
0.0154565
0.00723852
1.43154e-09
0.00627402
1
0.00390908
0.000543264
0.00201282
0.00175647
0.00597949
0.00912311
0.011711
0.0134125
0.013146
0.0114111
0.00964991
0.0082925
0.00729636
0.00656927
0.00603401
0.00550364
0.00510971
0.00430215
0.00425597
0.00360829
0.0019406
0.0025426
0.000143906
0.00570412
0.00190299
0.00299031
0.00144871
0.00100281
0.00136801
0.00161213
0.00167775
0.0016275
0.00154645
0.00146678
0.00137378
0.00133272
0.000175219
0.0088492
0.0809208
0.00189949
0.0022843
0.00195675
0.00172175
0.0015334
0.00138402
0.00126227
0.00117176
0.00111814
0.00107913
0.00104076
0.00105121
0.00110043
0.00113668
0.00117457
0.00123895
0.00131887
0.00134419
0.00044834
5.9538e-10
5.99921e-10
6.06422e-10
6.15198e-10
6.26201e-10
0.0242376
0.000388925
0.000320162
0.000634709
0.000880392
0.00148131
0.00390883
0.0183228
0.045399
0.045079
0.0290221
0.0130926
0.00689722
0.00637148
0.925927
0.00167057
0.00197285
0.00406387
0.00591545
0.00688715
0.00736563
0.00761314
0.00839047
0.00853531
0.00805504
0.00735886
0.00670682
0.00617847
0.0057788
0.0054744
0.00523483
0.00502718
0.00489367
0.00478709
0.00465609
0.00451944
0.00440198
0.00428275
0.0041637
0.00402722
0.00391358
0.00380893
0.00373479
0.00366316
0.00360037
0.00354031
0.00346982
0.0033851
0.0033012
0.00317358
0.00312518
0.00063169
0.00695832
0.0597964
0.00148283
0.00125686
0.00119262
0.00110751
0.00105207
0.00100749
0.000127051
0.000317862
0.00041261
0.000477266
0.000522112
0.000550624
0.000580172
0.000607955
0.000640772
0.000679424
0.000705869
0.000705813
0.000651664
0.000740235
0.00066917
0.000352475
6.32617e-10
6.44485e-10
6.58086e-10
0.000184047
0.000151062
0.000295985
0.000406295
0.000677611
0.00177668
0.00832054
0.0206888
8.31834e-05
0.0181879
0.0176992
0.0130452
0.00702862
0.751128
0.00240906
0.00439465
0.00513202
0.00479572
0.00383298
0.00238148
0.00167276
0.00192282
0.00213338
0.00229374
0.00244367
0.00256307
0.00265227
0.00274669
0.00286108
0.00295409
0.00300225
0.00304153
0.00303298
0.00297388
0.00289403
0.00281397
0.00273383
0.00265614
0.00258633
0.00252452
0.00246947
0.00242186
0.00238179
0.00235014
0.00233405
0.00234532
0.00236984
0.00242094
0.00244157
0.0027333
0.000987276
0.00565562
0.0469508
0.00318131
0.00301444
0.00287477
0.00274189
0.00261976
0.00250636
0.00240158
0.00230789
0.00222507
0.00215263
0.00209007
0.00203653
0.00199163
0.00195457
0.0019249
0.00190189
0.00192661
0.00187342
0.00176767
0.00171494
0.00157495
0.000820415
0.000811193
0.000658425
6.60947e-10
6.75683e-10
6.90293e-10
7.04797e-10
7.20411e-10
7.38291e-10
7.5903e-10
7.8281e-10
8.11702e-10
3.84508e-05
1.269e-05
4.96824e-05
0.000123614
0.000460505
0.0380737
0.00423909
0.00408793
0.0027792
0.00194681
0.00141581
0.00129202
0.00127044
0.00135713
0.00143236
0.00145941
0.00145635
0.00144167
0.00142673
0.00142203
0.00143392
0.00146779
0.00146159
0.00144963
0.00145091
0.00143271
0.00140563
0.00137737
0.00134824
0.00131932
0.00129311
0.00126997
0.00124969
0.00123262
0.00121877
0.00120863
0.00120391
6.63063e-05
0.00044992
0.000726817
0.000899251
0.0014124
0.000616207
0.00401032
0.0324278
0.00378933
0.00334959
0.00307884
0.00285487
0.00266069
0.00249104
0.00234912
0.00223154
0.00213439
0.00205526
0.00199169
0.00194207
0.00190524
0.00188
0.00186565
0.00186293
0.00186106
0.00189238
0.00194105
0.00194138
0.00192385
0.00191613
0.00183288
0.00151883
0.000903242
2.99592e-05
6.93919e-10
7.08439e-10
7.2443e-10
7.42689e-10
7.63421e-10
7.85969e-10
8.11816e-10
8.39876e-10
5.954e-06
2.33981e-05
5.90184e-05
1.14516e-09
0.0161422
0.00292793
0.00103601
0.00118064
0.00119236
0.00154473
0.0025813
0.00282833
0.00293565
0.00303367
0.00301492
0.00290692
0.00274938
0.00257308
0.00239733
0.00223184
0.00215999
0.00196536
0.00173839
0.00165548
0.00157383
0.00149535
0.00142042
0.0013496
0.00128515
0.00122988
0.00118282
0.00114292
0.00110932
0.00108106
0.00105797
0.00103143
0.000980177
0.00092082
0.000878878
0.000822473
0.000861216
0.000694634
0.00226599
0.0177777
0.00170693
0.00181975
0.00159575
0.00143935
0.0013062
0.00118713
0.00109273
0.00102423
0.000975262
0.000942651
0.000925475
0.000922932
0.000932545
0.000954046
0.000987832
0.00103516
0.00108571
0.00115834
0.00129553
0.00144661
0.00156841
0.0016644
0.00175059
0.00177673
0.00189809
6.78989e-05
1.52323e-05
7.11312e-10
7.27e-10
7.45149e-10
7.66078e-10
7.89056e-10
8.15232e-10
8.42814e-10
8.65588e-10
9.10678e-10
9.26857e-10
1.13121e-09
5.1718e-09
0.0011751
0.00104437
0.00154882
0.00292355
0.00372239
0.00411043
0.00435359
0.00452689
0.00463638
0.00464877
0.00457109
0.00443465
0.00426769
0.00409041
0.00391562
0.00374303
0.0035911
0.00344474
0.00330429
0.00317127
0.00304653
0.00293006
0.00282184
0.00272246
0.00263305
0.002554
0.00248452
0.00242322
0.00236883
0.00232046
0.00227674
0.00222905
0.00216535
0.00208694
0.00199043
0.00188731
0.0018062
0.000841063
0.00610506
0.000780679
0.000801589
0.000769684
0.000726409
0.000707338
0.000691213
0.000669482
0.000655198
0.000643982
0.000634253
0.000629335
0.000627947
0.000629908
0.000636332
0.00064658
0.000662402
0.000681317
0.000706735
0.000769535
0.000516426
0.000827919
0.00105687
0.00126458
0.00136238
0.0017639
9.63107e-05
2.19983e-05
7.14983e-10
7.30126e-10
7.47691e-10
7.68097e-10
7.90823e-10
8.16818e-10
8.45841e-10
8.67224e-10
9.04643e-10
9.22212e-10
1.0687e-09
2.3349e-09
0.00125632
0.00242625
0.0031786
0.00333673
0.00322577
0.0032739
0.003448
0.00359114
0.00370017
0.00376062
0.00376481
0.00373075
0.0036732
0.00360287
0.00352327
0.00342378
0.00330796
0.00318624
0.003064
0.00294474
0.00283033
0.00272166
0.00261932
0.0025248
0.00243942
0.00236371
0.00229737
0.00223937
0.00218842
0.00214385
0.00210639
0.00207965
0.00205699
0.00203064
0.00200068
0.00194248
0.00194784
0.000731349
0.00297274
0.00151795
0.00143075
0.00143236
0.00144816
0.0014698
0.00148347
0.00147979
0.00146728
0.0014494
0.00142786
0.00140499
0.00138192
0.00135956
0.00133921
0.00131982
0.00130462
0.00129402
0.0012812
0.00127945
0.00121729
0.00114642
0.0011657
0.00123481
0.00124386
0.00157151
0.000130846
3.04218e-05
7.18892e-10
7.33587e-10
7.50633e-10
7.70437e-10
7.92583e-10
8.17772e-10
8.46817e-10
8.69575e-10
9.04525e-10
9.28097e-10
1.00223e-09
1.48469e-09
0.00270747
0.00301977
0.00265065
0.00203403
0.00125077
0.00119743
0.00126731
0.00135495
0.00142413
0.00150581
0.00158406
0.00165346
0.00171902
0.00177965
0.00181217
0.00180194
0.00176572
0.00171563
0.00165791
0.00159683
0.00153494
0.00147381
0.00141483
0.0013605
0.0013121
0.0012695
0.00123313
0.00120254
0.0011767
0.00115501
0.00113729
0.00113289
0.00116041
0.00120176
0.00127593
0.00136377
0.00146775
0.00142352
0.000266106
0.00271496
0.00249086
0.00236701
0.00228834
0.00221429
0.00214186
0.00206931
0.00200289
0.00194317
0.00189035
0.00184389
0.00180228
0.00176862
0.00174154
0.00171231
0.00169532
0.00169304
0.0016814
0.00166046
0.00162426
0.00156998
0.0015154
0.00149056
0.00142788
0.00159717
0.000200496
4.7435e-05
7.2301e-10
7.37238e-10
7.53793e-10
7.73053e-10
7.94631e-10
8.19025e-10
8.47177e-10
8.70689e-10
9.04679e-10
9.3772e-10
9.59676e-10
1.16694e-09
0.00269232
0.00186373
0.000496171
0.000752242
0.000479704
0.000487314
0.00052318
0.000555372
0.0005781
0.00060444
0.000626986
0.000647543
0.00067014
0.000693557
0.000710119
0.000713715
0.000708701
0.000698927
0.000686189
0.000671638
0.000656036
0.000639914
0.000623827
0.000608654
0.000594583
0.000581987
0.00057141
0.000562806
0.000555814
0.000550246
0.000545974
0.000546942
0.00055863
0.000587332
0.000611472
0.000110079
0.000542387
0.000955447
0.00034835
0.00217098
0.00204498
0.00190094
0.00177854
0.00165991
0.00155394
0.00146718
0.00139786
0.00134423
0.0013043
0.00127546
0.00125145
0.00124554
0.00125567
0.00125658
0.00125993
0.00127878
0.00130894
0.00136022
0.00141843
0.00145537
0.0014694
0.00148619
0.00145301
0.0016039
0.000305305
7.3476e-05
7.27306e-10
7.41036e-10
7.57081e-10
7.75799e-10
7.96827e-10
8.20553e-10
8.47749e-10
8.7129e-10
9.03845e-10
9.45194e-10
9.41095e-10
1.03316e-09
0.00113497
0.0007708
0.000474109
0.000678043
0.000408882
0.000541789
0.000603367
0.000635857
0.00064514
0.000637744
0.000616397
0.000583575
0.00054309
0.000500903
0.000461873
0.000427478
0.000398438
0.000374514
0.000355083
0.000339494
0.000327035
0.000316976
0.000309393
0.000304352
0.000301069
0.00029826
0.000295772
0.00029374
0.000291994
0.000290674
0.000288589
0.00028214
0.000237332
0.000300697
0.000106506
0.000506665
0.000543113
0.00044342
0.000587445
0.000595311
0.000756845
0.000448906
0.000663836
0.000611524
0.000579789
0.000547614
0.000525138
0.000508357
0.000495564
0.000488558
0.000483499
0.0004857
0.000494943
0.000501425
8.26201e-05
0.000302456
0.000439412
0.000550904
0.00070039
0.000881146
0.00103595
0.00115893
0.0012064
0.00144117
0.000423852
0.000103731
7.31807e-10
7.45006e-10
7.60509e-10
7.78656e-10
7.99109e-10
8.2219e-10
8.48549e-10
8.71991e-10
9.02728e-10
9.48419e-10
9.37084e-10
9.76206e-10
0.000472245
0.000663257
0.00116424
0.0017521
0.00190672
0.00197693
0.00204492
0.00209966
0.00213498
0.00215135
0.00215054
0.00213515
0.00210811
0.00207218
0.00202968
0.00198234
0.00193164
0.00187882
0.00182493
0.00177088
0.00171742
0.00166519
0.00161474
0.00156671
0.0015219
0.00148086
0.00144375
0.00141041
0.00138054
0.00135381
0.00132996
0.00130917
0.00128049
0.00123411
0.00116735
0.00108359
0.00100933
0.000877335
0.000826198
0.000446706
0.000447524
0.00042241
0.000403648
0.000424302
0.000438951
0.000440457
0.000440437
0.000437533
0.000431757
0.000426806
0.000421698
0.00041674
0.000412904
0.000409801
0.00040863
0.000423532
0.000442936
0.000464177
0.000495323
7.69506e-05
0.000451652
0.000679803
0.000800781
0.00112585
0.000522418
0.000129975
7.36511e-10
7.49155e-10
7.64093e-10
7.81642e-10
8.01491e-10
8.23901e-10
8.49449e-10
8.72851e-10
9.01947e-10
9.48084e-10
9.39261e-10
9.54224e-10
0.000401478
0.00152265
0.00192452
0.00187267
0.00193806
0.00198385
0.00201511
0.00205188
0.00207862
0.00209305
0.00209586
0.00208827
0.00207157
0.00204721
0.00201654
0.00198052
0.00194017
0.00189806
0.00185382
0.00180784
0.00176079
0.00171339
0.00166632
0.00162044
0.00157683
0.00153635
0.00149936
0.00146586
0.00143572
0.00140871
0.00138478
0.00136584
0.00135126
0.00133349
0.0013074
0.00127502
0.0012259
0.00110567
0.00101164
0.00103192
0.000989296
0.00104252
0.00110403
0.00115359
0.00118495
0.00119641
0.00119537
0.00118609
0.00117151
0.00115417
0.00113548
0.00111616
0.00109745
0.00108005
0.00106336
0.00104762
0.00103456
0.00102199
0.000996536
0.000971869
0.00090227
0.000841158
0.00082326
0.000982394
0.000670772
1.32331e-06
3.2475e-07
7.53486e-10
7.6784e-10
7.84769e-10
8.0399e-10
8.25709e-10
8.50419e-10
8.73754e-10
9.0161e-10
9.45746e-10
9.42659e-10
9.48126e-10
0.00167386
0.00182552
0.0015406
0.00111819
0.000947144
0.000946039
0.00105431
0.00109245
0.00111001
0.00111964
0.00112421
0.00112471
0.0011217
0.0011155
0.0011063
0.0010942
0.00107938
0.00105749
0.00102644
0.00099206
0.000957
0.000922616
0.000889703
0.000859176
0.000831707
0.000807405
0.000786126
0.000767682
0.000751914
0.000738628
0.000727264
0.00071952
0.00073082
0.000772765
0.000820811
0.000865418
0.000926898
0.00095986
0.00093451
0.00168999
0.00156311
0.00151156
0.00149712
0.00147682
0.00145195
0.00142407
0.00139427
0.00136468
0.00133679
0.00131108
0.00128776
0.00126596
0.00124845
0.00123446
0.00121942
0.00120523
0.00119413
0.00118306
0.00118227
0.0011744
0.00112524
0.00106209
0.00100249
0.00100687
0.000851718
3.43397e-06
8.56911e-07
7.57997e-10
7.71749e-10
7.88041e-10
8.06613e-10
8.2763e-10
8.51486e-10
8.74639e-10
9.01569e-10
9.42682e-10
9.45168e-10
9.48477e-10
0.00162833
0.00112863
0.000358611
0.000435119
0.000357214
0.000361031
0.000403361
0.000414722
0.000418211
0.000419696
0.000417584
0.000414632
0.000412669
0.000410349
0.000408641
0.000407632
0.000406676
0.000403981
0.000398373
0.000391627
0.000384424
0.000377239
0.000370236
0.000363393
0.000356583
0.000350371
0.000345029
0.000340536
0.000336879
0.000334018
0.000331743
0.000330877
0.000338621
0.000360591
0.000385538
0.000413971
0.000363483
0.000590306
0.000708008
0.00130882
0.00122808
0.00112106
0.00104069
0.000971077
0.000912305
0.000867094
0.000830836
0.000803178
0.000783793
0.00077107
0.000763798
0.000757287
0.000761366
0.000775196
0.000776812
0.000780417
0.000791879
0.000800547
0.000829091
0.000876211
0.000921775
0.000955116
0.000952775
0.000940576
0.000917464
6.37365e-06
1.61672e-06
7.62687e-10
7.7582e-10
7.91459e-10
8.09365e-10
8.29669e-10
8.52671e-10
8.75514e-10
9.01662e-10
9.39607e-10
9.46371e-10
9.50717e-10
0.000711311
0.000476932
0.00019192
0.000303183
0.000336766
0.000360161
0.000366642
0.000374007
0.000376858
0.000376468
0.000371601
0.000365398
0.000359997
0.000354374
0.000349545
0.000345843
0.000342526
0.000343715
0.000343874
0.000343359
0.000342258
0.000340762
0.000338915
0.000336378
0.000332832
0.000328988
0.000325331
0.000321936
0.000318842
0.000316066
0.00031365
0.000311454
0.000308439
0.000296081
0.000275967
0.000246323
0.000269806
0.00032928
0.000376338
0.000290381
0.000319943
0.000436203
0.000386504
0.000363717
0.000345017
0.000326441
0.000313538
0.000303864
0.000296492
0.000292857
0.000291484
0.000290621
0.000294506
0.000302437
0.000305951
0.00031049
0.000318317
0.000325157
0.000345793
0.000209637
0.00041028
0.000554572
0.000665522
0.000725152
0.000829428
9.96848e-06
2.56945e-06
7.6755e-10
7.80054e-10
7.95024e-10
8.12247e-10
8.31826e-10
8.53981e-10
8.76409e-10
9.01801e-10
9.36806e-10
9.46572e-10
9.52953e-10
0.000274683
0.000294758
0.000355704
0.000786157
0.000862888
0.000908891
0.000920698
0.000945813
0.000960759
0.000966526
0.000966408
0.000962363
0.000955595
0.000946899
0.000936586
0.00092477
0.00091153
0.000907409
0.000898383
0.000886076
0.000871428
0.000855124
0.000837689
0.000819647
0.000801625
0.000784156
0.00076755
0.000752006
0.000737616
0.000724423
0.000712508
0.000701527
0.000689138
0.00065648
0.000607453
0.000538485
0.000451092
0.000344954
0.000377408
0.000218047
0.000242352
0.000246011
0.000246473
0.000252443
0.000257824
0.000255888
0.000253622
0.000249963
0.000244895
0.000240662
0.00023649
0.000232548
0.000229291
0.000226324
0.000223817
0.000221702
0.000220058
0.000218896
0.00021797
0.00022745
0.000258188
0.000290606
0.000332013
0.00031232
0.000592939
1.31695e-05
3.44837e-06
7.72583e-10
7.84447e-10
7.98738e-10
8.15264e-10
8.34105e-10
8.55415e-10
8.77345e-10
9.01956e-10
9.3434e-10
9.46188e-10
9.54632e-10
0.000420702
0.000744448
0.00103813
0.00113233
0.00114964
0.00117266
0.00120093
0.00122476
0.00123933
0.00124578
0.00124692
0.00124459
0.00123974
0.00123284
0.00122409
0.0012135
0.00120115
0.00118701
0.00117111
0.00115353
0.00113441
0.00111391
0.00109225
0.00106982
0.0010473
0.00102532
0.00100426
0.000984401
0.0009659
0.000948823
0.000933289
0.000919561
0.000909073
0.000890176
0.000868205
0.000821924
0.000757402
0.000682694
0.000604114
0.00052232
0.000576628
0.000647087
0.000662001
0.000674787
0.000685094
0.000686064
0.000681057
0.000672277
0.00066156
0.000649997
0.000638107
0.000626233
0.000614564
0.000603245
0.000592419
0.000582242
0.000572997
0.000564909
0.000557438
0.000533306
0.000487253
0.000435098
0.000382122
0.000317961
0.000499795
2.09761e-05
5.57771e-06
7.77777e-10
7.88997e-10
8.02599e-10
8.18416e-10
8.36508e-10
8.56975e-10
8.78339e-10
9.02132e-10
9.32192e-10
9.4552e-10
9.55743e-10
0.000928926
0.00107064
0.000975472
0.000807535
0.000838537
0.000839672
0.000845181
0.000856019
0.000865382
0.000870536
0.000872896
0.000873859
0.000873676
0.000872246
0.000869501
0.000865335
0.000859714
0.000852611
0.00084402
0.000833933
0.000822423
0.000809615
0.000795653
0.000780863
0.000765754
0.000750834
0.000736432
0.000722766
0.000709995
0.000698219
0.000687485
0.0006777
0.000671949
0.000677127
0.000689682
0.000702108
0.000703305
0.000680797
0.000636322
0.00102944
0.00101528
0.00102935
0.00101922
0.00100445
0.000992196
0.000974038
0.000954382
0.000934921
0.000916538
0.000899338
0.000883228
0.000868189
0.00085411
0.000840937
0.000828651
0.000817207
0.000806637
0.00079703
0.000789702
0.000777992
0.000745444
0.000705793
0.000674618
0.000593369
0.000592175
4.30704e-05
1.16265e-05
7.83121e-10
7.93695e-10
8.06603e-10
8.21703e-10
8.39038e-10
8.58661e-10
8.79399e-10
9.02345e-10
9.30337e-10
9.44738e-10
9.56416e-10
0.00105017
0.000801499
0.00046912
0.000344697
0.000323922
0.000328154
0.000330876
0.000331857
0.000331974
0.000330989
0.000326953
0.000322509
0.00031938
0.000316252
0.000314043
0.00031316
0.000312871
0.000313341
0.000314329
0.000315585
0.000316756
0.000317839
0.000318643
0.000318587
0.000317155
0.000315089
0.000312971
0.000310886
0.000308912
0.000307096
0.00030548
0.000304043
0.000304299
3.39665e-05
0.000202336
0.000320433
0.000424013
0.000500254
0.000529041
0.000909453
0.000856087
0.000814033
0.000794732
0.000772377
0.000751951
0.000732955
0.00071613
0.000701685
0.000689322
0.000678698
0.000669437
0.000661415
0.000654471
0.000648562
0.00064363
0.000639551
0.000636549
0.000634657
0.000635007
0.000644213
0.000658388
0.000665635
0.000665344
0.000637004
0.00065167
8.28419e-05
2.26963e-05
7.88604e-10
7.98535e-10
8.10747e-10
8.25124e-10
8.41693e-10
8.60474e-10
8.80537e-10
9.02612e-10
9.28755e-10
9.43931e-10
9.56772e-10
0.000547266
0.000349257
0.000180393
1.1232e-09
1.14233e-09
1.1608e-09
1.17766e-09
1.19155e-09
1.20193e-09
1.209e-09
1.21306e-09
1.21451e-09
1.21381e-09
1.21134e-09
1.20737e-09
1.20204e-09
1.19542e-09
1.18753e-09
1.17839e-09
1.16798e-09
1.15635e-09
1.14356e-09
1.12976e-09
1.11519e-09
1.10039e-09
1.08592e-09
1.07217e-09
1.05947e-09
1.04808e-09
1.03818e-09
1.02994e-09
1.02353e-09
1.01905e-09
1.54333e-05
9.27023e-05
0.000147964
0.000200849
0.000197646
0.000346601
0.000296526
0.000312992
0.00018204
7.09102e-05
0.000293892
0.00028744
0.000278058
0.000271554
0.00026595
0.000260258
0.000256466
0.000253309
0.000250921
1.92661e-05
6.88854e-05
9.74411e-05
0.000119766
0.000141082
0.000162014
0.000179488
0.000209746
0.000288862
0.000369961
0.000442973
0.00048907
0.00057269
0.000133717
3.71688e-05
7.94213e-10
8.03507e-10
8.15026e-10
8.28675e-10
8.44474e-10
8.62414e-10
8.81758e-10
9.02949e-10
9.2743e-10
9.43148e-10
9.56903e-10
0.000224645
1.07782e-09
0.000105431
0.000146023
0.00016517
0.000182718
0.000194109
0.000198665
0.000200319
0.000200846
0.000199071
0.000196493
0.000194388
0.000191999
0.000190089
0.000189098
0.000188551
0.000188663
0.0001893
0.0001903
0.000191471
0.000192745
0.000194023
0.000194741
0.000194405
0.000193531
0.000192555
0.000191532
0.000190517
0.000189516
0.000188569
0.000187732
0.000187135
0.000184871
0.000178495
0.000165997
0.000143086
0.000147847
0.000133679
0.00010954
0.000116531
7.01279e-05
2.67896e-05
9.75346e-10
9.58483e-10
9.42096e-10
9.26575e-10
9.11702e-10
8.97643e-10
8.84399e-10
8.71853e-10
8.60019e-10
7.32491e-06
2.63283e-05
3.74917e-05
4.64318e-05
5.51476e-05
6.38667e-05
7.13634e-05
8.40694e-05
0.000116627
0.000150348
0.000188631
0.000179063
0.000378631
0.000173331
4.89324e-05
7.99933e-10
8.08602e-10
8.19431e-10
8.32354e-10
8.4738e-10
8.6448e-10
8.83072e-10
9.03371e-10
9.26353e-10
9.42415e-10
9.5687e-10
0.000134103
0.000221348
0.00027046
0.00037391
0.000418804
0.0004572
0.000484361
0.000500607
0.000510503
0.000517245
0.000521941
0.000524975
0.000526719
0.000527412
0.000527204
0.000526227
0.00052455
0.000522189
0.000519148
0.000515406
0.000510937
0.000505714
0.000499727
0.000493043
0.000485845
0.000478357
0.000470767
0.000463232
0.000455875
0.000448787
0.000442054
0.000435768
0.000430247
0.000421153
0.000403024
0.000371573
0.000317605
0.000248233
0.000227479
0.000213189
0.000171855
0.000179137
0.000173786
0.000172482
0.0001716
0.000167944
0.00016549
0.000162974
0.000159904
0.000157669
0.000155547
0.000153598
0.000152033
0.000150738
0.000149821
0.000149089
0.00014847
0.000147938
0.000147486
0.000147167
0.00014301
0.000133417
0.000118754
0.000127505
0.000182861
0.000142645
6.21475e-06
1.73606e-06
8.13805e-10
8.23956e-10
8.36155e-10
8.50408e-10
8.66672e-10
8.84484e-10
9.0389e-10
9.25512e-10
9.41755e-10
9.5672e-10
0.000363106
0.000551283
0.000627207
0.000603196
0.000623005
0.000641875
0.00065751
0.000668225
0.000674864
0.000679221
0.000682101
0.000683648
0.000684013
0.000683405
0.00068197
0.000679788
0.000676918
0.000673366
0.000669108
0.000664102
0.000658289
0.000651625
0.000644063
0.000635648
0.000626608
0.000617255
0.000607773
0.00059833
0.000589069
0.000580112
0.00057156
0.000563524
0.000557062
0.000551312
0.000541212
0.000522298
0.000485762
0.000439764
0.000382917
0.000473238
0.000459911
0.000464128
0.000460455
0.000455219
0.000450633
0.000445911
0.000440949
0.00043588
0.000430859
0.000425927
0.000421072
0.000416288
0.000411322
0.000406718
0.000402534
0.000398425
0.000394365
0.000390367
0.000386528
0.000383162
0.000370189
0.00034359
0.000304562
0.000265902
0.000214827
0.00020309
4.98554e-05
1.48377e-05
8.19106e-10
8.2859e-10
8.40073e-10
8.53555e-10
8.68988e-10
8.86002e-10
9.04517e-10
9.24899e-10
9.41178e-10
9.56484e-10
0.00069149
0.000688393
0.000651354
0.000585127
0.000552361
0.000533587
0.000521826
0.000515287
0.000510329
0.000505969
0.000502404
0.000499182
0.000495957
0.000492713
0.000489377
0.000485907
0.000482248
0.00047838
0.000474201
0.000469675
0.000464718
0.000459302
0.000453382
0.000446982
0.00044032
0.00043355
0.000426788
0.000420123
0.000413661
0.000407478
0.000401651
0.000396199
0.000391849
0.000392221
0.000399965
0.000411833
0.000421496
0.000419553
0.000391442
0.000712368
0.000682179
0.000673816
0.000663887
0.000653836
0.000644734
0.000635691
0.000626812
0.000618221
0.000610108
0.000602416
0.000595036
0.000587968
0.000580724
0.000574059
0.000568174
0.000562302
0.000556576
0.000551064
0.000545939
0.000542437
0.00053591
0.000519799
0.000492894
0.000464168
0.000430487
0.000389107
0.000150067
1.11e-05
3.11723e-06
8.33322e-10
8.44098e-10
8.56817e-10
8.71427e-10
8.87628e-10
9.05261e-10
9.24502e-10
9.40695e-10
9.56191e-10
0.00065386
0.000470233
0.000346943
0.000284033
0.000241101
0.000195514
0.000155634
0.000123961
9.6481e-05
6.64741e-05
2.35927e-05
0.000184252
0.000179919
0.000175838
0.000172496
0.000170325
0.000168793
0.000168166
0.000168276
0.000169004
0.000170112
0.000171542
0.000173171
0.000174356
0.0001745
0.000174146
0.000173732
0.000173271
0.000172793
0.000172315
0.000171874
0.000171478
0.000171446
0.000173677
4.06556e-05
0.000147991
0.000227726
0.000290147
0.000316462
0.00057
0.000556982
0.000537255
0.000524084
0.000512425
0.000501668
0.000491913
0.000482883
0.000474672
0.000467314
0.000460612
0.000454445
0.000448834
0.000443651
0.000438692
0.00043407
0.000429911
0.000426269
0.000423151
0.000420547
0.000419576
0.000424869
0.000433714
0.000440919
0.000443451
0.000437787
0.000429141
0.000269477
3.55473e-05
1.01271e-05
8.38139e-10
8.48223e-10
8.60187e-10
8.73985e-10
8.89368e-10
9.06128e-10
9.24311e-10
9.40313e-10
9.55863e-10
0.000311748
0.000204501
0.000135792
0.00011112
9.50483e-05
7.79449e-05
6.21014e-05
4.88955e-05
3.75605e-05
2.55633e-05
8.89054e-06
1.13896e-09
1.1396e-09
1.13929e-09
1.13822e-09
1.13648e-09
1.13413e-09
1.13118e-09
1.12759e-09
1.12332e-09
1.1183e-09
1.11246e-09
1.10573e-09
1.09813e-09
1.08986e-09
1.08125e-09
1.07254e-09
1.06398e-09
1.05578e-09
1.04817e-09
1.04136e-09
1.03559e-09
1.03106e-09
1.02796e-09
1.80493e-05
6.63501e-05
0.000103437
4.1194e-05
0.000187794
0.000159648
0.000194997
0.000155578
0.000131207
0.000113936
0.000100577
8.93094e-05
7.88563e-05
6.93607e-05
6.1181e-05
5.43993e-05
4.90449e-05
4.60391e-05
4.5794e-05
4.71117e-05
5.01544e-05
5.54497e-05
6.24886e-05
7.08044e-05
7.9121e-05
8.70172e-05
0.000119118
0.000176703
0.000232915
0.000280341
0.000318911
0.000354022
0.0003204
8.18398e-05
2.3644e-05
8.43026e-10
8.52434e-10
8.63659e-10
8.76655e-10
8.9122e-10
9.07121e-10
9.24317e-10
9.40034e-10
9.55517e-10
0.000127838
1.04549e-09
4.26663e-05
4.62419e-05
5.69519e-05
6.94716e-05
7.75273e-05
8.16639e-05
8.39892e-05
8.53894e-05
8.52708e-05
8.44035e-05
8.35258e-05
8.23411e-05
8.1284e-05
8.06712e-05
8.03052e-05
8.03602e-05
8.0823e-05
8.20674e-05
8.27492e-05
8.31477e-05
8.39094e-05
8.46205e-05
8.48636e-05
8.48878e-05
8.49294e-05
8.49582e-05
8.4964e-05
8.4937e-05
8.48821e-05
8.48109e-05
8.47524e-05
8.4688e-05
8.14637e-05
7.42864e-05
5.77361e-05
3.51651e-05
8.57999e-05
5.98945e-05
7.3643e-05
6.07453e-05
5.01492e-05
4.37618e-05
3.88629e-05
3.41541e-05
3.00677e-05
2.63588e-05
2.30776e-05
2.04663e-05
1.84097e-05
1.72544e-05
1.71873e-05
1.77229e-05
1.89408e-05
2.10438e-05
2.38506e-05
2.71898e-05
3.05719e-05
3.3818e-05
4.65022e-05
6.92277e-05
9.14175e-05
0.000114227
9.16223e-05
0.000186608
0.000260245
0.000129928
3.8898e-05
8.4797e-10
8.56722e-10
8.67222e-10
8.79433e-10
8.93185e-10
9.08242e-10
9.24507e-10
9.39863e-10
9.55166e-10
9.23766e-05
0.000162258
0.000108398
0.000117412
0.000143352
0.000172743
0.000192463
0.000205047
0.000213711
0.000220084
0.000224588
0.000227647
0.000229762
0.00023119
0.000232107
0.000232671
0.000232975
0.000233059
0.000232959
0.000233879
0.00023227
0.000229019
0.000226109
0.000223426
0.000220922
0.000218523
0.000216153
0.000213775
0.000211369
0.000208934
0.00020648
0.000204044
0.0002017
0.000199397
0.000189787
0.000171255
0.000131725
6.72047e-05
0.00011895
0.000144583
0.000107614
0.000107272
0.000104514
0.000105909
0.000107882
0.000107865
0.000108323
0.000108404
0.000107713
0.000107314
0.000106747
0.000106095
0.000105647
0.000105182
0.000104797
0.00010445
0.000104123
0.000103791
0.000103437
0.000103019
0.000102063
9.77992e-05
9.0283e-05
8.01201e-05
7.69653e-05
9.62691e-05
8.38565e-05
0.000123227
1.99909e-05
5.80894e-06
8.61074e-10
8.70867e-10
8.82311e-10
8.9526e-10
9.0949e-10
9.24871e-10
9.39799e-10
9.54819e-10
0.000247407
0.000423443
0.000429354
0.000419502
0.000426107
0.000435451
0.000443287
0.000448667
0.000452294
0.00045478
0.000456304
0.000456983
0.000457096
0.000456788
0.000456134
0.000455241
0.00045414
0.000452823
0.000451282
0.000452066
0.000448886
0.000442879
0.000440116
0.000436914
0.000433295
0.000429334
0.000425076
0.00042058
0.000415908
0.000411119
0.000406276
0.000401465
0.000396867
0.000388837
0.000379238
0.000368144
0.000346098
0.000312235
0.000265935
0.000318678
0.000285159
0.000275274
0.000274493
0.000277236
0.000281168
0.000284605
0.000287185
0.000288923
0.00028984
0.000290105
0.000289842
0.000289145
0.000288099
0.000286764
0.000285183
0.000283394
0.000281437
0.00027934
0.000277151
0.000274942
0.000271664
0.000259898
0.000240002
0.000212269
0.000178099
0.000142889
0.000117813
0.000141835
6.7338e-05
2.56301e-05
8.65474e-10
8.74585e-10
8.85281e-10
8.97442e-10
9.10862e-10
9.25397e-10
9.39843e-10
9.54491e-10
0.000532822
0.000555403
0.000533401
0.000519439
0.000512631
0.000510235
0.000509562
0.000508931
0.000507902
0.000506594
0.000505216
0.000503714
0.00050206
0.00050034
0.000498566
0.000496694
0.000494724
0.000492622
0.000490331
0.000487797
0.000485696
0.000483033
0.000479791
0.000475952
0.000471635
0.000466987
0.000462081
0.000456979
0.000451749
0.000446445
0.000441149
0.000435926
0.000430811
0.000426625
0.000422141
0.000415835
0.000406174
0.000387771
0.000353681
0.00054539
0.000511476
0.000499185
0.000492435
0.000487909
0.000483743
0.000479596
0.00047525
0.000470791
0.000466337
0.000461896
0.000457508
0.0004532
0.000448958
0.000444789
0.000440697
0.000436686
0.000432768
0.000428953
0.000425272
0.000421875
0.000419508
0.000411901
0.000397752
0.000376614
0.000353832
0.00032787
0.000294809
0.00026751
0.000175497
4.03894e-05
1.25717e-05
8.78363e-10
8.88334e-10