/*--------------------------------*- C++ -*----------------------------------*\
| =========                 |                                                 |
| \\      /  F ield         | OpenFOAM: The Open Source CFD Toolbox           |
|  \\    /   O peration     | Version:  2312                                  |
|   \\  /    A nd           | Website:  www.openfoam.com                      |
|    \\/     M anipulation  |                                                 |
\*---------------------------------------------------------------------------*/
FoamFile
{
    version     2.0;
    format      ascii;
    arch        "LSB;label=32;scalar=64";
    class       volScalarField;
    location    "300";
    object      turbulenceProperties:nuEff;
}
// * * * * * * * * * * * * * * * * * * * * * * * * * * * * * * * * * * * * * //

dimensions      [0 2 -1 0 0 0 0];

internalField   nonuniform List<scalar> 
10720
(
9.99026e-05
0.000130271
0.000158823
0.000164801
0.000152658
0.000141605
0.000139109
0.000145547
0.00016203
0.00019022
0.000235199
0.000308803
0.000431385
0.000645606
0.00104904
0.00190907
0.00362057
0.00786801
0.015639
0.0251233
0.0376322
0.0609804
0.112329
0.233376
0.439384
0.640349
1.31921
2.22409
1.6127
0.598273
0.190507
0.0246802
0.0043756
0.000689209
1e-05
1e-05
1e-05
1e-05
0.00628112
5.43415e-05
5.08242e-05
0.000100533
0.000188274
0.000122252
0.000126824
0.000125147
0.000156441
0.000175733
0.000178164
0.000183392
0.000202658
0.000239382
0.000312739
0.000419456
0.000667935
0.00102095
0.00295077
0.00309943
0.00352199
0.00437861
0.00675869
0.0083648
0.0110832
0.0143469
0.0179321
0.0142085
0.00748655
0.00274463
0.00067777
7.4983e-05
1.4115e-05
1.11869e-05
1.05356e-05
1.02295e-05
1.00908e-05
1e-05
0.00373849
0.244836
0.00038491
0.000441586
0.000332194
0.000221161
0.000145556
0.000110713
0.000104231
0.000108943
0.00011742
0.000128327
0.000141657
0.000156294
0.000189775
0.000274278
0.000483429
0.0010212
0.00217353
0.00490067
0.0106636
0.020127
0.0327169
0.0495789
0.0791558
0.124107
0.428721
0.53387
1.37901
1.52322
1.35231
1.9007
1.18709
0.302735
0.081874
0.0125981
0.000212066
1e-05
1e-05
5.14693e-05
0.00433386
0.000127621
0.000118564
6.11027e-05
8.18901e-05
4.33855e-05
5.25475e-05
6.25309e-05
8.64392e-05
9.21469e-05
9.92129e-05
0.00010613
0.000110043
0.000105703
9.04306e-05
3.41198e-05
0.00143409
0.00239213
0.000601525
0.0105278
0.00353818
0.000693465
0.0334962
0.00597116
0.000411406
0.0056221
0.000214427
0.000295396
0.000337217
0.000193767
0.000173777
0.000105896
5.65064e-05
3.05824e-05
1.85352e-05
1.33746e-05
1.12504e-05
1.00225e-05
0.0024894
0.164411
0.000227491
0.000206517
0.000206233
0.000207585
0.000211482
0.000217689
0.000226371
0.000236166
0.000246961
0.000257572
0.000268025
0.000278245
0.000288
0.00030311
0.000325678
0.000230014
0.000405595
0.000980041
0.00261112
0.00639401
0.0138353
0.0283514
0.0628101
0.16294
0.256718
0.441354
0.972179
0.911079
0.594964
0.503132
0.476891
0.322613
0.0866532
0.013815
0.00102434
0.000166276
1e-05
0.000240117
0.0430093
0.000143319
5.61799e-05
7.94676e-05
9.72325e-05
0.000126348
0.000169104
0.000196693
0.000221715
0.00024915
0.000284639
0.000336101
0.000405577
0.00049655
0.000616582
0.000772274
0.000940745
0.00115213
0.00125089
0.00156349
0.00167827
0.000513236
0.000903257
1.29351e-05
0.00468272
0.00060509
0.00157718
0.00037028
0.000165326
0.000271075
0.000378773
0.000405616
0.000309328
0.000242692
0.000199739
0.000168684
0.000163039
1.3115e-05
0.00705694
0.474533
0.000200242
0.000202978
0.00019967
0.000200002
0.000201358
0.000205164
0.000211185
0.00021982
0.000231479
0.000246742
0.000266254
0.000291281
0.000323474
0.000364645
0.000417473
0.000490289
0.00058863
0.000704282
0.000138982
1e-05
1e-05
1e-05
1e-05
1e-05
0.078823
1.00002e-05
1e-05
1e-05
1.00001e-05
1.00011e-05
1.00752e-05
9.009e-05
0.0196216
0.0200218
0.00751615
0.00156443
0.000511643
0.000521619
0.103182
0.000213326
0.000187806
0.000208316
0.000244948
0.000257398
0.000259067
0.000265329
0.000290972
0.000323953
0.000368924
0.000429749
0.000507482
0.000603968
0.00072281
0.000865502
0.0010339
0.00122541
0.00144816
0.00169718
0.00196364
0.00223552
0.00252352
0.00284912
0.00300691
0.00289273
0.00277701
0.00265206
0.00255208
0.0024413
0.00233655
0.00224114
0.00213088
0.00199782
0.0018651
0.00168509
0.00160296
7.7774e-05
0.00473952
1.38399
0.000405625
0.00035226
0.000361824
0.000354641
0.00036028
0.000368293
1.63e-05
5.31351e-05
8.86664e-05
0.000122702
0.000152904
0.000176688
0.000202171
0.000227019
0.000255604
0.000288608
0.000310644
0.000308023
0.000259793
0.000324109
0.000257747
7.70095e-05
1e-05
1e-05
1e-05
1.00001e-05
1e-05
1e-05
1e-05
1e-05
1e-05
1.00002e-05
4.45917e-05
1e-05
0.00761788
0.00683445
0.00296576
0.000779819
0.107162
0.000416951
0.000444947
0.000465338
0.000451574
0.000453966
0.000355343
0.000149025
0.000170416
0.000200931
0.000246093
0.000315825
0.000403645
0.000503062
0.000620872
0.00076284
0.000905967
0.0010267
0.00114027
0.00121275
0.00124032
0.00124547
0.00124409
0.00123571
0.00122173
0.00120516
0.00118428
0.00116116
0.00113984
0.00112261
0.00110887
0.0011062
0.00112757
0.00116073
0.00122212
0.00125285
0.00158353
0.000217753
0.00692684
0.813303
0.000767897
0.000767833
0.000780917
0.000794298
0.00081334
0.000835847
0.000862392
0.000896323
0.000939238
0.000992319
0.00105783
0.00113782
0.00123465
0.00135191
0.0014936
0.00166716
0.00189369
0.00205289
0.00180487
0.00166028
0.00135502
0.000358977
0.00033565
0.000219101
1e-05
1e-05
1e-05
1e-05
1e-05
1e-05
1e-05
1e-05
1e-05
1e-05
1e-05
1e-05
1e-05
1.00008e-05
1.0344e-05
0.000792407
0.000829781
0.000818969
0.000405109
0.000183707
0.000130581
0.000109415
0.000111571
0.000118563
0.000126041
0.000135422
0.0001473
0.000161723
0.000179719
0.000202666
0.000232879
0.000251134
0.000265877
0.000283948
0.000294618
0.000300967
0.000305662
0.000308578
0.000309915
0.000310004
0.000308835
0.000307283
0.000305796
0.000304911
0.000305523
0.000308261
1.09182e-05
5.27473e-05
0.000122473
0.000182633
0.00043497
8.93807e-05
0.00319899
0.32497
0.00137863
0.00138506
0.00140452
0.00142432
0.00144888
0.00147661
0.00151486
0.00156688
0.00163545
0.00172295
0.00183223
0.00188359
0.00189102
0.00190377
0.0019213
0.00194547
0.00195408
0.00201522
0.00209503
0.00204999
0.0019493
0.00185811
0.00162764
0.00106674
0.00036942
1e-05
1e-05
1e-05
1e-05
1e-05
1e-05
1e-05
1e-05
1e-05
1e-05
1e-05
1e-05
1e-05
1.00004e-05
0.00142582
0.000170155
0.000193966
0.000170926
0.000241936
0.000568785
0.000599153
0.000587818
0.000600533
0.000597713
0.000584248
0.000565015
0.000542789
0.000518992
0.000494266
0.000504828
0.000453337
0.000382093
0.000370404
0.000357046
0.000342844
0.000327977
0.000312745
0.000298025
0.000284684
0.000272687
0.000262496
0.000253778
0.000246545
0.000241111
0.000233747
0.000215574
0.000194209
0.00018022
0.000160694
0.000176624
0.000117749
0.00111613
0.0723481
0.000576602
0.000715359
0.000609783
0.000548875
0.000498796
0.000453996
0.00042128
0.000402122
0.000393008
0.000392446
0.000400883
0.00041904
0.000445995
0.000482578
0.000530288
0.000591639
0.00065565
0.000745057
0.000920861
0.00112286
0.00127847
0.00139016
0.00147551
0.00144826
0.00156971
1e-05
1e-05
1e-05
1e-05
1e-05
1e-05
1e-05
1e-05
1e-05
1e-05
1e-05
1e-05
1e-05
1e-05
0.000249005
0.000181727
0.000345777
0.00106137
0.00151223
0.00163001
0.00163911
0.00163332
0.00164004
0.00164161
0.00163446
0.00162331
0.0016107
0.00159684
0.00158128
0.00155771
0.00153823
0.00150984
0.00148138
0.00145268
0.0014239
0.00139466
0.00136448
0.00133165
0.00129733
0.00126453
0.00123406
0.00120531
0.00117923
0.00115584
0.00113422
0.00110657
0.00106089
0.00100071
0.000922291
0.000839438
0.000770111
0.000172805
0.00826512
0.00013029
0.000148617
0.000150357
0.000147341
0.000152711
0.000159006
0.000162032
0.000167309
0.00017314
0.000178734
0.000185941
0.000194285
0.000203734
0.000214992
0.000227687
0.000243026
0.000259277
0.000278805
0.000326294
0.000149869
0.000361175
0.00056541
0.000775508
0.00085933
0.00136608
1.00001e-05
1e-05
1e-05
1e-05
1e-05
1e-05
1e-05
1e-05
1e-05
1e-05
1e-05
1e-05
1e-05
1e-05
0.000294467
0.000984715
0.00151246
0.00149672
0.00125802
0.00116714
0.00117803
0.00118927
0.00121065
0.00123643
0.00125873
0.00128194
0.00130753
0.00133488
0.00135968
0.00136808
0.00135813
0.00133918
0.00131701
0.00129269
0.00126677
0.0012393
0.00120934
0.00117707
0.001145
0.00111492
0.00108744
0.00106237
0.00104012
0.00102056
0.00100486
0.000996973
0.000990479
0.000979368
0.000962255
0.000917497
0.00092424
0.000138759
0.002008
0.00047789
0.000461849
0.000503641
0.000561805
0.000629229
0.000695879
0.000748709
0.000791516
0.000826348
0.000853301
0.000873943
0.000889099
0.000899131
0.000905041
0.0009049
0.000902969
0.000899729
0.000885599
0.000878285
0.000786557
0.000686861
0.000692026
0.000749558
0.000729562
0.00110614
1.00005e-05
1e-05
1e-05
1e-05
1e-05
1e-05
1e-05
1e-05
1e-05
1e-05
1e-05
1e-05
1e-05
1e-05
0.00139222
0.00159125
0.00112442
0.00060807
0.00021589
0.000182215
0.000187742
0.000200735
0.000212584
0.000233084
0.000258475
0.000287284
0.000321002
0.000358914
0.000390581
0.000406741
0.0004122
0.000412138
0.000408188
0.00040156
0.00039302
0.000382937
0.000371338
0.000359624
0.000349016
0.000339375
0.000331197
0.00032442
0.00031892
0.00031447
0.0003112
0.000314199
0.000333978
0.000362283
0.00041155
0.000473248
0.000547266
0.000516706
2.65434e-05
0.00156661
0.00142164
0.00139291
0.00141622
0.00143636
0.00145412
0.00146299
0.00147004
0.00147768
0.00148571
0.0014934
0.00149874
0.00150676
0.00151485
0.00150738
0.00150952
0.0015259
0.00151305
0.00147355
0.00140266
0.00129431
0.00118125
0.00111019
0.000981467
0.00117232
1.0003e-05
1e-05
1e-05
1e-05
1e-05
1e-05
1e-05
1e-05
1e-05
1e-05
1e-05
1e-05
1e-05
1e-05
0.00143559
0.000643682
5.17734e-05
9.84314e-05
4.3115e-05
4.15512e-05
4.3851e-05
4.60546e-05
4.76394e-05
5.04199e-05
5.34822e-05
5.70595e-05
6.17367e-05
6.73627e-05
7.26048e-05
7.61339e-05
7.85645e-05
8.03496e-05
8.16465e-05
8.25402e-05
8.30738e-05
8.32221e-05
8.30328e-05
8.27431e-05
8.24082e-05
8.2078e-05
8.19088e-05
8.18952e-05
8.2025e-05
8.22506e-05
8.2605e-05
8.41455e-05
8.84683e-05
9.78424e-05
0.000106152
1.31414e-05
8.62477e-05
0.000247206
3.94025e-05
0.00104619
0.000993395
0.000928314
0.000879785
0.000826628
0.000780888
0.000747814
0.000725962
0.000714921
0.000713038
0.000718285
0.000724543
0.000747549
0.000786247
0.000809575
0.000831273
0.000868533
0.000917918
0.000995073
0.00108008
0.00112718
0.00113125
0.00112943
0.00104416
0.00121867
1.00167e-05
1e-05
1e-05
1e-05
1e-05
1e-05
1e-05
1e-05
1e-05
1e-05
1e-05
1e-05
1e-05
1e-05
0.000274431
0.000124989
5.07693e-05
8.73623e-05
3.61399e-05
5.27437e-05
5.97002e-05
6.24097e-05
6.20485e-05
5.98646e-05
5.63525e-05
5.18728e-05
4.69285e-05
4.22542e-05
3.83571e-05
3.52958e-05
3.3001e-05
3.13417e-05
3.01863e-05
2.94284e-05
2.89695e-05
2.87189e-05
2.86988e-05
2.89381e-05
2.93486e-05
2.9756e-05
3.01319e-05
3.04872e-05
3.08141e-05
3.11263e-05
3.12631e-05
3.06809e-05
2.48395e-05
3.41037e-05
1.30505e-05
7.94891e-05
8.97125e-05
6.32057e-05
9.69348e-05
9.07952e-05
0.000148886
6.25364e-05
0.000133645
0.000122553
0.00011849
0.000113502
0.000111367
0.000110751
0.000111044
0.000113114
0.000115534
0.00012075
0.000128972
0.000135607
1.34899e-05
5.76937e-05
0.000112176
0.000172017
0.0002727
0.000424759
0.000577742
0.000707262
0.00074386
0.00101843
1.00808e-05
1e-05
1e-05
1e-05
1e-05
1e-05
1e-05
1e-05
1e-05
1e-05
1e-05
1e-05
1e-05
1e-05
5.79264e-05
0.000100111
0.000270301
0.00055996
0.00061975
0.000624624
0.000629838
0.000632655
0.000631945
0.000628637
0.000623592
0.000617349
0.000610255
0.000603351
0.000596827
0.0005905
0.000584244
0.000577923
0.000571373
0.000564368
0.000556901
0.000549225
0.0005415
0.000533886
0.000526498
0.000519168
0.000511888
0.000504553
0.000497435
0.000490461
0.000483596
0.000477021
0.000462985
0.000435522
0.000393774
0.000342499
0.000297739
0.000227412
0.000189375
5.70381e-05
5.99955e-05
5.76517e-05
5.66253e-05
6.50348e-05
7.2918e-05
7.75114e-05
8.16459e-05
8.47437e-05
8.65924e-05
8.84151e-05
8.98904e-05
9.11161e-05
9.24904e-05
9.38556e-05
9.57377e-05
0.000104342
0.000115124
0.000126922
0.000144142
1.32421e-05
0.000120997
0.000257608
0.000344853
0.000649215
1.03175e-05
1e-05
1e-05
1e-05
1e-05
1e-05
1e-05
1e-05
1e-05
1e-05
1e-05
1e-05
1e-05
1e-05
4.6219e-05
0.000507451
0.000756067
0.000673038
0.000679332
0.000672112
0.000657848
0.00065319
0.000649818
0.000646566
0.000643885
0.000641706
0.000639718
0.000637724
0.000635548
0.000632962
0.000629873
0.000627263
0.000624089
0.000620092
0.000615494
0.000610243
0.000604295
0.000597849
0.00059119
0.000584275
0.000577158
0.000569786
0.000562498
0.000555411
0.000548287
0.000543038
0.00053898
0.000530863
0.000514457
0.000492071
0.000454304
0.000370984
0.000291572
0.000270434
0.000263281
0.00030986
0.000369
0.000427023
0.00047823
0.000516883
0.000545205
0.000565431
0.000579063
0.000588066
0.000593973
0.000597485
0.000599545
0.000600458
0.000599763
0.000597787
0.000595762
0.000590797
0.0005682
0.000543454
0.000468323
0.000403378
0.000378347
0.000517959
1.1397e-05
1e-05
1e-05
1e-05
1e-05
1e-05
1e-05
1e-05
1e-05
1e-05
1e-05
1e-05
1e-05
1e-05
0.00066726
0.000755929
0.000511993
0.000260318
0.000180306
0.000171338
0.000201071
0.000207386
0.000208272
0.000208456
0.000208867
0.000209648
0.000210751
0.00021204
0.000213342
0.000214495
0.000215393
0.000214201
0.000209852
0.000204364
0.000198609
0.00019299
0.000187691
0.000182979
0.000179002
0.000175625
0.000172735
0.000170228
0.000168151
0.000166519
0.000165015
0.000164513
0.000171683
0.000192803
0.000217798
0.00024205
0.000275457
0.000294093
0.000262078
0.000739284
0.000669185
0.000664669
0.000692666
0.000713748
0.000730939
0.000743292
0.000750341
0.000755124
0.000759311
0.000763626
0.000768802
0.000773839
0.000781678
0.000791026
0.000796317
0.000799902
0.000803756
0.000803253
0.000812733
0.000808548
0.000743773
0.00065848
0.00057738
0.000566735
1.61846e-05
1e-05
1e-05
1e-05
1e-05
1e-05
1e-05
1e-05
1e-05
1e-05
1e-05
1e-05
1e-05
1e-05
0.000660561
0.00030878
3.87056e-05
5.02383e-05
3.58246e-05
3.51332e-05
4.00153e-05
4.06237e-05
4.03698e-05
4.01281e-05
3.96514e-05
3.92989e-05
3.9288e-05
3.93954e-05
3.97341e-05
4.03084e-05
4.10185e-05
4.15783e-05
4.17722e-05
4.18467e-05
4.18901e-05
4.1962e-05
4.20697e-05
4.219e-05
4.2271e-05
4.23711e-05
4.25214e-05
4.27058e-05
4.29362e-05
4.32204e-05
4.34904e-05
4.39441e-05
4.60799e-05
5.13896e-05
5.7688e-05
6.52434e-05
5.25036e-05
0.000121855
0.000161675
0.000465973
0.000431811
0.000381542
0.00034891
0.000321381
0.000299976
0.000285826
0.000275902
0.000270566
0.000269814
0.000272825
0.000279125
0.000285547
0.000299308
0.000320461
0.000331733
0.000344149
0.000362579
0.000377484
0.000410205
0.000461883
0.00051248
0.000547773
0.000538492
0.000513967
3.00712e-05
1e-05
1e-05
1e-05
1e-05
1e-05
1e-05
1e-05
1e-05
1e-05
1e-05
1e-05
1e-05
1e-05
0.000139402
6.58658e-05
1.86512e-05
3.06036e-05
3.42673e-05
3.65264e-05
3.63917e-05
3.65878e-05
3.63861e-05
3.59695e-05
3.51595e-05
3.43629e-05
3.38274e-05
3.33832e-05
3.31398e-05
3.31291e-05
3.32477e-05
3.40658e-05
3.48377e-05
3.56014e-05
3.63587e-05
3.71255e-05
3.78912e-05
3.85776e-05
3.90921e-05
3.95065e-05
3.98789e-05
4.02036e-05
4.04902e-05
4.07514e-05
4.09701e-05
4.11312e-05
4.10015e-05
3.89103e-05
3.53219e-05
3.02743e-05
3.42919e-05
4.61042e-05
5.478e-05
3.31714e-05
3.94021e-05
6.75873e-05
5.77131e-05
5.44499e-05
5.20742e-05
4.95695e-05
4.82773e-05
4.76731e-05
4.75374e-05
4.82585e-05
4.95218e-05
5.08826e-05
5.35686e-05
5.75282e-05
6.01768e-05
6.31847e-05
6.73298e-05
7.10815e-05
8.02575e-05
3.61626e-05
0.000110969
0.000194584
0.000273814
0.000318243
5.5298e-05
1e-05
1e-05
1e-05
1e-05
1e-05
1e-05
1e-05
1e-05
1e-05
1e-05
1e-05
1e-05
1e-05
2.99545e-05
3.22074e-05
4.10345e-05
0.000154986
0.000177275
0.000188055
0.000186103
0.000190512
0.000192483
0.000192369
0.000191346
0.000189999
0.000188589
0.000187249
0.000185957
0.000184676
0.000183383
0.000186093
0.000187432
0.000187917
0.000187822
0.00018732
0.000186498
0.000185437
0.000184237
0.000182899
0.00018143
0.000179835
0.000178165
0.000176509
0.000174854
0.00017303
0.000169854
0.000156877
0.000136838
0.000110189
8.02557e-05
5.0996e-05
5.69012e-05
2.34005e-05
2.7254e-05
2.86952e-05
2.97562e-05
3.17519e-05
3.38237e-05
3.46253e-05
3.53501e-05
3.57862e-05
3.58793e-05
3.60752e-05
3.62162e-05
3.63365e-05
3.65332e-05
3.67118e-05
3.69318e-05
3.7193e-05
3.74885e-05
3.77976e-05
3.807e-05
4.10251e-05
5.03706e-05
6.1323e-05
7.67385e-05
6.84005e-05
6.82851e-05
1e-05
1e-05
1e-05
1e-05
1e-05
1e-05
1e-05
1e-05
1e-05
1e-05
1e-05
1e-05
1e-05
5.82269e-05
0.000156771
0.000284539
0.000323303
0.000320395
0.000321072
0.000325616
0.0003298
0.000331478
0.000331152
0.000330139
0.000329139
0.00032834
0.000327739
0.000327239
0.000326752
0.000326248
0.000325673
0.000324978
0.000324114
0.000323059
0.000321788
0.000320234
0.000318404
0.000316396
0.00031418
0.000311746
0.000309116
0.000306344
0.000303566
0.000300835
0.0002982
0.000296421
0.000288265
0.000277145
0.000250787
0.000214478
0.000175814
0.000134833
8.87395e-05
0.000109869
0.000141985
0.000155117
0.000167953
0.000180736
0.000189492
0.000195164
0.000198673
0.000200697
0.000201686
0.000201965
0.000201741
0.000201082
0.000200036
0.000198825
0.000197654
0.000196518
0.000195399
0.000194032
0.000181239
0.000154616
0.000125983
9.93957e-05
7.14451e-05
9.30069e-05
1e-05
1e-05
1e-05
1e-05
1e-05
1e-05
1e-05
1e-05
1e-05
1e-05
1e-05
1e-05
1e-05
0.000252243
0.00032375
0.000260957
0.000175474
0.000182076
0.000176766
0.00017395
0.000174237
0.000175064
0.000175316
0.00017546
0.00017591
0.000176623
0.000177449
0.00017828
0.00017903
0.000179669
0.000180167
0.000180501
0.00018064
0.000180575
0.000180312
0.000179826
0.000179147
0.000178344
0.000177423
0.000176393
0.00017527
0.000174078
0.000172903
0.000171763
0.000170518
0.000170586
0.000175347
0.000183258
0.000190714
0.000191535
0.000179896
0.000153521
0.000323542
0.000326951
0.000351122
0.00036059
0.000366108
0.000373848
0.000377015
0.000378148
0.000378625
0.000378895
0.000379001
0.000379082
0.000379225
0.000379306
0.000379212
0.00037916
0.000379296
0.00037929
0.000378858
0.000379381
0.000374835
0.000349373
0.000316585
0.000290605
0.00022618
0.000181578
1e-05
1e-05
1e-05
1e-05
1e-05
1e-05
1e-05
1e-05
1e-05
1e-05
1e-05
1e-05
1e-05
0.000329102
0.000191445
6.99965e-05
4.12543e-05
3.66949e-05
3.65481e-05
3.62475e-05
3.58296e-05
3.54515e-05
3.50614e-05
3.43532e-05
3.37079e-05
3.33509e-05
3.3068e-05
3.29801e-05
3.31427e-05
3.34517e-05
3.39382e-05
3.45754e-05
3.5334e-05
3.61654e-05
3.70752e-05
3.80303e-05
3.89159e-05
3.96056e-05
4.01874e-05
4.07393e-05
4.12587e-05
4.17447e-05
4.22053e-05
4.26456e-05
4.30372e-05
4.36982e-05
1.0426e-05
2.52824e-05
4.86065e-05
7.77545e-05
0.000104287
0.000112533
0.000261148
0.000240819
0.000227997
0.000227375
0.000224353
0.000222318
0.000220653
0.000219572
0.000219388
0.000219901
0.000220948
0.000222462
0.000224441
0.000226773
0.000229396
0.000232389
0.000235784
0.00023954
0.000243466
0.000248506
0.000259968
0.000274836
0.000283213
0.000284028
0.000260777
0.000253657
1.00006e-05
1e-05
1e-05
1e-05
1e-05
1e-05
1e-05
1e-05
1e-05
1e-05
1e-05
1e-05
1e-05
9.92514e-05
4.55062e-05
1.91613e-05
1e-05
1e-05
1e-05
1e-05
1e-05
1e-05
1e-05
1e-05
1e-05
1e-05
1e-05
1e-05
1e-05
1e-05
1e-05
1e-05
1e-05
1e-05
1e-05
1e-05
1e-05
1e-05
1e-05
1e-05
1e-05
1e-05
1e-05
1e-05
1e-05
1e-05
1.00899e-05
1.32802e-05
1.84245e-05
2.55766e-05
2.50957e-05
5.5372e-05
3.73914e-05
4.15739e-05
2.1132e-05
1.17638e-05
4.15692e-05
4.14828e-05
4.06832e-05
4.04175e-05
4.02869e-05
4.0063e-05
4.02118e-05
4.04689e-05
4.08787e-05
1.01878e-05
1.24728e-05
1.50899e-05
1.79031e-05
2.12511e-05
2.51797e-05
2.90146e-05
3.64523e-05
6.09324e-05
9.44207e-05
0.000131691
0.000158403
0.000208796
1.00059e-05
1e-05
1e-05
1e-05
1e-05
1e-05
1e-05
1e-05
1e-05
1e-05
1e-05
1e-05
1e-05
2.54576e-05
1e-05
1.32273e-05
1.6e-05
1.74524e-05
1.88657e-05
1.97586e-05
2.00248e-05
2.00553e-05
2.00256e-05
1.98153e-05
1.95684e-05
1.94005e-05
1.92303e-05
1.9126e-05
1.91271e-05
1.91881e-05
1.93319e-05
1.95492e-05
1.98288e-05
2.01563e-05
2.05303e-05
2.09446e-05
2.13344e-05
2.1631e-05
2.18769e-05
2.21117e-05
2.23348e-05
2.25454e-05
2.274e-05
2.2922e-05
2.30941e-05
2.32657e-05
2.31554e-05
2.24167e-05
2.08345e-05
1.8087e-05
1.865e-05
1.69433e-05
1.38278e-05
1.44706e-05
1.16844e-05
1.02562e-05
1e-05
1e-05
1e-05
1e-05
1e-05
1e-05
1e-05
1e-05
1e-05
1.00272e-05
1.03611e-05
1.07528e-05
1.11861e-05
1.17158e-05
1.23537e-05
1.29992e-05
1.42411e-05
1.82907e-05
2.39346e-05
3.2081e-05
2.99384e-05
9.84915e-05
1.00371e-05
1.00001e-05
1e-05
1e-05
1e-05
1e-05
1e-05
1e-05
1e-05
1e-05
1e-05
1e-05
1e-05
1.56475e-05
2.50727e-05
3.18584e-05
5.0554e-05
5.94549e-05
6.73716e-05
7.28884e-05
7.59633e-05
7.77406e-05
7.90208e-05
8.00669e-05
8.09345e-05
8.16698e-05
8.22946e-05
8.28165e-05
8.3254e-05
8.36199e-05
8.39162e-05
8.41454e-05
8.4307e-05
8.44033e-05
8.44409e-05
8.44213e-05
8.43462e-05
8.4224e-05
8.4047e-05
8.38064e-05
8.35096e-05
8.31537e-05
8.27446e-05
8.23051e-05
8.18501e-05
8.14454e-05
7.96019e-05
7.45804e-05
6.54253e-05
5.07223e-05
3.49465e-05
3.06512e-05
2.48134e-05
1.99132e-05
2.11889e-05
2.09565e-05
2.11995e-05
2.15024e-05
2.14221e-05
2.14811e-05
2.1519e-05
2.14607e-05
2.1504e-05
2.15511e-05
2.16114e-05
2.17154e-05
2.18445e-05
2.20206e-05
2.22187e-05
2.24193e-05
2.26073e-05
2.27866e-05
2.29741e-05
2.24501e-05
2.09664e-05
1.87544e-05
2.01251e-05
3.07798e-05
1.00982e-05
1e-05
1e-05
1e-05
1e-05
1e-05
1e-05
1e-05
1e-05
1e-05
1e-05
1e-05
1e-05
5.23545e-05
0.000105845
0.000130712
0.000118515
0.000122669
0.000126594
0.000129676
0.000131544
0.000132563
0.000133327
0.000134067
0.00013475
0.000135337
0.000135834
0.00013624
0.000136559
0.000136805
0.00013698
0.000137082
0.000137107
0.000137055
0.000136941
0.000136765
0.000136522
0.00013623
0.000135897
0.00013549
0.000135011
0.000134449
0.000133806
0.000133109
0.00013238
0.000132033
0.000131589
0.000128797
0.000121787
0.000107332
9.00733e-05
7.00462e-05
8.44409e-05
8.22921e-05
8.63766e-05
8.80782e-05
8.90425e-05
9.02315e-05
9.13179e-05
9.22127e-05
9.30161e-05
9.37528e-05
9.44245e-05
9.50438e-05
9.56013e-05
9.59745e-05
9.63719e-05
9.68431e-05
9.72694e-05
9.75792e-05
9.7707e-05
9.77336e-05
9.78589e-05
9.3369e-05
8.27249e-05
6.76191e-05
5.4104e-05
3.8784e-05
1.07991e-05
1.00007e-05
1e-05
1e-05
1e-05
1e-05
1e-05
1e-05
1e-05
1e-05
1e-05
1e-05
1e-05
0.000166905
0.000162955
0.000143416
0.000114773
0.000101005
9.29324e-05
8.77227e-05
8.46371e-05
8.24684e-05
8.08323e-05
7.97122e-05
7.89126e-05
7.82773e-05
7.77609e-05
7.73151e-05
7.69163e-05
7.65469e-05
7.62036e-05
7.58629e-05
7.55228e-05
7.51727e-05
7.48232e-05
7.44734e-05
7.41217e-05
7.37973e-05
7.34915e-05
7.31881e-05
7.28832e-05
7.25757e-05
7.22611e-05
7.19534e-05
7.16443e-05
7.15444e-05
7.27546e-05
7.62e-05
8.09637e-05
8.48912e-05
8.45506e-05
7.43684e-05
0.000181861
0.000171875
0.000173623
0.000174713
0.000175227
0.00017619
0.000177045
0.000177751
0.000178483
0.000179278
0.000180078
0.000180857
0.000181606
0.000182024
0.000182544
0.000183348
0.000184026
0.000184549
0.000184825
0.000185032
0.000186086
0.000184769
0.000176575
0.000161125
0.000144691
0.000125962
2.14459e-05
1.00251e-05
1e-05
1e-05
1e-05
1e-05
1e-05
1e-05
1e-05
1e-05
1e-05
1e-05
1e-05
0.000153214
8.29623e-05
4.87421e-05
3.53014e-05
2.77978e-05
2.14503e-05
1.71227e-05
1.44572e-05
1.26763e-05
1.12646e-05
1.01591e-05
1.97227e-05
1.93067e-05
1.89377e-05
1.86587e-05
1.8508e-05
1.84304e-05
1.84531e-05
1.85616e-05
1.87486e-05
1.89953e-05
1.93026e-05
1.96644e-05
2.00114e-05
2.02676e-05
2.04838e-05
2.07035e-05
2.09236e-05
2.11425e-05
2.13566e-05
2.15678e-05
2.17729e-05
2.20131e-05
2.2552e-05
1.06982e-05
1.93598e-05
3.23499e-05
4.64864e-05
5.31598e-05
0.000122091
0.000119832
0.000115741
0.000114201
0.000112904
0.000111921
0.000111229
0.000110666
0.000110341
0.000110236
0.000110258
0.000110379
0.000110609
0.000110898
0.000111162
0.000111489
0.000111971
0.000112578
0.000113244
0.000114001
0.000115482
0.00012
0.000126179
0.000131221
0.000133314
0.000130393
5.40849e-05
1.03181e-05
1.00002e-05
1e-05
1e-05
1e-05
1e-05
1e-05
1e-05
1e-05
1e-05
1e-05
1e-05
4.32289e-05
2.40998e-05
1.60715e-05
1.39674e-05
1.28387e-05
1.18711e-05
1.11681e-05
1.07154e-05
1.0419e-05
1.01934e-05
1.00234e-05
1e-05
1e-05
1e-05
1e-05
1e-05
1e-05
1e-05
1e-05
1e-05
1e-05
1e-05
1e-05
1e-05
1e-05
1e-05
1e-05
1e-05
1e-05
1e-05
1e-05
1e-05
1e-05
1e-05
1.01405e-05
1.19222e-05
1.47155e-05
1.07529e-05
2.55958e-05
1.89601e-05
2.37051e-05
1.9017e-05
1.66344e-05
1.51632e-05
1.41542e-05
1.33807e-05
1.27175e-05
1.21667e-05
1.17357e-05
1.14114e-05
1.11787e-05
1.10661e-05
1.10816e-05
1.11727e-05
1.13608e-05
1.17026e-05
1.22115e-05
1.28991e-05
1.36911e-05
1.45482e-05
1.86683e-05
2.93394e-05
4.39399e-05
5.94797e-05
7.41888e-05
6.87503e-05
1.182e-05
1.00036e-05
1e-05
1e-05
1e-05
1e-05
1e-05
1e-05
1e-05
1e-05
1e-05
1e-05
1.57035e-05
1e-05
1.06133e-05
1.07041e-05
1.10463e-05
1.15287e-05
1.18755e-05
1.20589e-05
1.2164e-05
1.22307e-05
1.22253e-05
1.21859e-05
1.21498e-05
1.21006e-05
1.20599e-05
1.20433e-05
1.20409e-05
1.20619e-05
1.21067e-05
1.21968e-05
1.22624e-05
1.23181e-05
1.24011e-05
1.24892e-05
1.25566e-05
1.26156e-05
1.2679e-05
1.27444e-05
1.28102e-05
1.28743e-05
1.29364e-05
1.29957e-05
1.30537e-05
1.31067e-05
1.29211e-05
1.24614e-05
1.15023e-05
1.05617e-05
1.33406e-05
1.12854e-05
1.19905e-05
1.13984e-05
1.09852e-05
1.07737e-05
1.06295e-05
1.05014e-05
1.04002e-05
1.03167e-05
1.02497e-05
1.02017e-05
1.01676e-05
1.01509e-05
1.01534e-05
1.0167e-05
1.01952e-05
1.02464e-05
1.03236e-05
1.04293e-05
1.05533e-05
1.06895e-05
1.13258e-05
1.29796e-05
1.52505e-05
1.82541e-05
1.53272e-05
3.06504e-05
1.47488e-05
1.00344e-05
1.00002e-05
1e-05
1e-05
1e-05
1e-05
1e-05
1e-05
1e-05
1e-05
1e-05
1.304e-05
1.9269e-05
1.40522e-05
1.46546e-05
1.68089e-05
1.9724e-05
2.19092e-05
2.33915e-05
2.44699e-05
2.53162e-05
2.59632e-05
2.64491e-05
2.68294e-05
2.71312e-05
2.73737e-05
2.75777e-05
2.77573e-05
2.79205e-05
2.80747e-05
2.84123e-05
2.83799e-05
2.81172e-05
2.7942e-05
2.78358e-05
2.77848e-05
2.77685e-05
2.77665e-05
2.77682e-05
2.77664e-05
2.77523e-05
2.77247e-05
2.7682e-05
2.7634e-05
2.75632e-05
2.61759e-05
2.33562e-05
1.79923e-05
1.20995e-05
1.65861e-05
1.76351e-05
1.43283e-05
1.44375e-05
1.43515e-05
1.46056e-05
1.49261e-05
1.50732e-05
1.52644e-05
1.54217e-05
1.55001e-05
1.56041e-05
1.56874e-05
1.57567e-05
1.58434e-05
1.5925e-05
1.60144e-05
1.61088e-05
1.62032e-05
1.62897e-05
1.63658e-05
1.64287e-05
1.64162e-05
1.59745e-05
1.51465e-05
1.40831e-05
1.37823e-05
1.58436e-05
1.16065e-05
1.01229e-05
1.00002e-05
1e-05
1e-05
1e-05
1e-05
1e-05
1e-05
1e-05
1e-05
1e-05
3.22599e-05
7.45418e-05
7.51085e-05
7.09547e-05
7.18076e-05
7.35728e-05
7.50836e-05
7.61259e-05
7.69014e-05
7.75526e-05
7.80941e-05
7.85132e-05
7.88527e-05
7.91298e-05
7.93488e-05
7.95365e-05
7.97058e-05
7.98614e-05
8.00091e-05
8.09582e-05
8.07574e-05
7.97694e-05
7.99294e-05
8.00816e-05
8.02074e-05
8.02958e-05
8.03304e-05
8.03139e-05
8.02539e-05
8.01389e-05
7.99796e-05
7.97755e-05
7.95741e-05
7.80737e-05
7.58594e-05
7.29801e-05
6.63551e-05
5.63497e-05
4.3745e-05
4.78115e-05
4.09522e-05
3.97441e-05
4.05375e-05
4.20855e-05
4.3989e-05
4.58403e-05
4.75099e-05
4.90007e-05
5.02888e-05
5.13988e-05
5.23552e-05
5.31646e-05
5.38424e-05
5.44076e-05
5.4885e-05
5.52953e-05
5.56277e-05
5.58553e-05
5.59851e-05
5.60562e-05
5.57104e-05
5.24255e-05
4.65771e-05
3.88356e-05
3.03888e-05
2.31137e-05
1.64535e-05
1.06539e-05
1.00069e-05
1.00001e-05
1e-05
1e-05
1e-05
1e-05
1e-05
1e-05
1e-05
1e-05
0.000115414
0.000123575
0.000112941
0.000105877
0.000101891
9.97653e-05
9.8543e-05
9.76846e-05
9.701e-05
9.65008e-05
9.61744e-05
9.59523e-05
9.57774e-05
9.56488e-05
9.55502e-05
9.54609e-05
9.53848e-05
9.53165e-05
9.52454e-05
9.51652e-05
9.53302e-05
9.54178e-05
9.54462e-05
9.54118e-05
9.53271e-05
9.5207e-05
9.50452e-05
9.48485e-05
9.46317e-05
9.43812e-05
9.4119e-05
9.38352e-05
9.35226e-05
9.34892e-05
9.31678e-05
9.19469e-05
8.92279e-05
8.30637e-05
7.11321e-05
0.000122911
0.000111446
0.000109601
0.000110028
0.000111068
0.000112227
0.00011331
0.000114169
0.000114909
0.000115568
0.000116149
0.000116678
0.000117138
0.000117516
0.000117831
0.000118127
0.000118438
0.000118732
0.000118938
0.000119052
0.000119176
0.000119716
0.000117247
0.000111116
0.000101389
9.10638e-05
7.97397e-05
6.22781e-05
1.8665e-05
1.01823e-05
1.00007e-05
1e-05
1e-05
1e-05
1e-05
1e-05
1e-05
1e-05
1e-05
0.000123554
6.57178e-05
5.59546e-05
5.4816e-05
5.0934e-05
4.77369e-05
4.54833e-05
4.3871e-05
4.25981e-05
4.1578e-05
4.07961e-05
4.02017e-05
3.97304e-05
3.93551e-05
3.90523e-05
3.87975e-05
3.85754e-05
3.83783e-05
3.8195e-05
3.80182e-05
3.78413e-05
3.76657e-05
3.74863e-05
3.72982e-05
3.71106e-05
3.69335e-05
3.67708e-05
3.66179e-05
3.64797e-05
3.63556e-05
3.6248e-05
3.61536e-05
3.6011e-05
3.60821e-05
3.84177e-05
4.30706e-05
4.9552e-05
5.62494e-05
5.74689e-05
0.000104718
0.000103329
0.000101776
9.96952e-05
9.80575e-05
9.64917e-05
9.51888e-05
9.39787e-05
9.29296e-05
9.20986e-05
9.1435e-05
9.09216e-05
9.05244e-05
9.02027e-05
8.9955e-05
8.98036e-05
8.97651e-05
8.98209e-05
8.99269e-05
9.00571e-05
9.02156e-05
9.10382e-05
9.33255e-05
9.52772e-05
9.61716e-05
9.54773e-05
9.20058e-05
8.43174e-05
4.39206e-05
1.16816e-05
1.00192e-05
1e-05
1e-05
1e-05
1e-05
1e-05
1e-05
1e-05
1e-05
3.30447e-05
2.0647e-05
1.7379e-05
1.71907e-05
1.66701e-05
1.629e-05
1.59245e-05
1.55207e-05
1.51653e-05
1.48677e-05
1.45322e-05
1.42188e-05
1.3971e-05
1.37358e-05
1.35442e-05
1.34154e-05
1.33219e-05
1.3279e-05
1.32834e-05
1.33307e-05
1.34138e-05
1.35347e-05
1.36903e-05
1.38391e-05
1.39325e-05
1.40013e-05
1.40763e-05
1.41559e-05
1.42405e-05
1.43287e-05
1.44208e-05
1.45165e-05
1.46046e-05
1.4732e-05
1.52837e-05
1.63005e-05
1.82673e-05
1.92551e-05
2.94556e-05
2.44038e-05
2.93235e-05
2.46466e-05
2.56233e-05
2.60207e-05
2.54679e-05
2.45517e-05
2.36231e-05
2.27548e-05
2.20152e-05
2.14022e-05
2.0897e-05
2.04917e-05
2.01744e-05
1.9936e-05
1.97783e-05
1.97045e-05
1.97131e-05
1.98025e-05
1.99809e-05
2.01286e-05
2.0483e-05
2.47418e-05
3.19707e-05
4.05633e-05
4.94428e-05
5.77446e-05
6.39914e-05
5.68689e-05
1.72049e-05
1.02088e-05
1.0001e-05
1e-05
1e-05
1e-05
1e-05
1e-05
1e-05
1e-05
1.49184e-05
1.31299e-05
1.35284e-05
1.36843e-05