/*--------------------------------*- C++ -*----------------------------------*\
| =========                 |                                                 |
| \\      /  F ield         | OpenFOAM: The Open Source CFD Toolbox           |
|  \\    /   O peration     | Version:  2312                                  |
|   \\  /    A nd           | Website:  www.openfoam.com                      |
|    \\/     M anipulation  |                                                 |
\*---------------------------------------------------------------------------*/
FoamFile
{
    version     2.0;
    format      ascii;
    arch        "LSB;label=32;scalar=64";
    class       volVectorField;
    location    "12.275326089954282";
    object      U;
}
// * * * * * * * * * * * * * * * * * * * * * * * * * * * * * * * * * * * * * //

dimensions      [0 1 -1 0 0 0 0];

internalField   nonuniform List<vector> 
21039
(
(0.913789 0.0474227 0)
(1.02606 0.0664475 0)
(1.00449 0.0294397 0)
(1.00177 0.0188476 0)
(1.00121 0.0138296 0)
(1.0008 0.0104411 0)
(1.00055 0.00810805 0)
(1.0004 0.00645935 0)
(1.00031 0.00524386 0)
(1.00024 0.00431776 0)
(1.00019 0.00359558 0)
(1.00015 0.00302235 0)
(1.00012 0.00256106 0)
(1.0001 0.00218617 0)
(1.00008 0.00187957 0)
(1.00006 0.00162813 0)
(1.00005 0.00142216 0)
(1.00004 0.00125435 0)
(1.00003 0.00111904 0)
(1.00002 0.00101164 0)
(1.00002 0.00092826 0)
(1.00001 0.000866805 0)
(1.00001 0.000828821 0)
(1 0.000795593 0)
(1.00001 0.000771154 0)
(1.00001 0.000752143 0)
(1.00001 0.000734325 0)
(1.00001 0.0007079 0)
(1.00001 0.000651251 0)
(0.794694 0.0730301 0)
(1.07453 0.121566 0)
(1.03989 0.0706702 0)
(1.01814 0.0495422 0)
(1.01131 0.038096 0)
(1.00766 0.0292881 0)
(1.0054 0.0229686 0)
(1.00398 0.0183716 0)
(1.00302 0.0148968 0)
(1.00235 0.0122029 0)
(1.00186 0.0100734 0)
(1.0015 0.00836172 0)
(1.00122 0.00696709 0)
(1.001 0.00581914 0)
(1.00082 0.00486763 0)
(1.00068 0.00407602 0)
(1.00056 0.00341733 0)
(1.00045 0.00287134 0)
(1.00036 0.00242263 0)
(1.00029 0.00205918 0)
(1.00022 0.00177096 0)
(1.00016 0.00155146 0)
(1.00011 0.00140434 0)
(1.00008 0.00129841 0)
(1.00007 0.00123697 0)
(1.00007 0.00120177 0)
(1.00007 0.00117875 0)
(1.00008 0.00114896 0)
(1.00009 0.00108305 0)
(0.667625 0.0572309 0)
(1.08316 0.124619 0)
(1.0844 0.0900119 0)
(1.04635 0.0673892 0)
(1.02913 0.0538318 0)
(1.02031 0.0428323 0)
(1.01475 0.0344926 0)
(1.01104 0.0280794 0)
(1.00849 0.0230207 0)
(1.00666 0.0189851 0)
(1.00532 0.0157269 0)
(1.00432 0.013064 0)
(1.00354 0.0108649 0)
(1.00293 0.00903443 0)
(1.00243 0.00750264 0)
(1.00202 0.00621754 0)
(1.00168 0.00514024 0)
(1.00138 0.00424133 0)
(1.00113 0.00349836 0)
(1.0009 0.00289399 0)
(1.0007 0.00241402 0)
(1.00052 0.00204789 0)
(1.00036 0.00180089 0)
(1.00025 0.00163592 0)
(1.00019 0.00154935 0)
(1.00016 0.00150623 0)
(1.00016 0.00148301 0)
(1.00017 0.00145524 0)
(1.00017 0.00139062 0)
(0.54153 0.0352094 0)
(1.05109 0.110589 0)
(1.11602 0.0966311 0)
(1.07621 0.0758681 0)
(1.04935 0.0616638 0)
(1.03538 0.0505076 0)
(1.02653 0.0417892 0)
(1.02035 0.0347199 0)
(1.01592 0.028898 0)
(1.01267 0.0240982 0)
(1.01024 0.0201162 0)
(1.00838 0.0167882 0)
(1.00693 0.0139899 0)
(1.00577 0.0116262 0)
(1.00482 0.00962392 0)
(1.00404 0.00792716 0)
(1.00337 0.00649293 0)
(1.00279 0.0052882 0)
(1.00229 0.00428748 0)
(1.00183 0.00347109 0)
(1.00143 0.00282308 0)
(1.00106 0.00233047 0)
(1.00073 0.00199978 0)
(1.00049 0.0017903 0)
(1.00034 0.00168852 0)
(1.00026 0.00164436 0)
(1.00023 0.00162621 0)
(1.00023 0.00160509 0)
(1.00023 0.00154414 0)
(0.444934 0.0186101 0)
(0.998364 0.0915957 0)
(1.12924 0.0951664 0)
(1.10157 0.0789212 0)
(1.0684 0.0648299 0)
(1.04994 0.0540975 0)
(1.03842 0.0456558 0)
(1.0302 0.0385669 0)
(1.0241 0.0325438 0)
(1.0195 0.0274374 0)
(1.01598 0.023089 0)
(1.01322 0.0193709 0)
(1.01103 0.0161835 0)
(1.00926 0.0134463 0)
(1.00779 0.0110952 0)
(1.00656 0.00907966 0)
(1.0055 0.00735964 0)
(1.00458 0.00590388 0)
(1.00376 0.00468796 0)
(1.00302 0.0036929 0)
(1.00235 0.00290354 0)
(1.00174 0.0023065 0)
(1.00119 0.00191 0)
(1.00077 0.00167119 0)
(1.00049 0.00156564 0)
(1.00033 0.0015299 0)
(1.00026 0.00152556 0)
(1.00025 0.00151929 0)
(1.00023 0.00146728 0)
(0.379637 0.00804176 0)
(0.940703 0.0715329 0)
(1.12743 0.0877044 0)
(1.12104 0.077917 0)
(1.08572 0.0651094 0)
(1.0633 0.0550611 0)
(1.04953 0.0471244 0)
(1.0397 0.0403063 0)
(1.03226 0.0343772 0)
(1.02652 0.0292328 0)
(1.02203 0.0247531 0)
(1.01845 0.0208444 0)
(1.01555 0.0174322 0)
(1.01316 0.0144545 0)
(1.01116 0.0118607 0)
(1.00945 0.00961013 0)
(1.00797 0.00767013 0)
(1.00666 0.00601484 0)
(1.00549 0.00462399 0)
(1.00442 0.00348191 0)
(1.00343 0.00257638 0)
(1.00252 0.00189567 0)
(1.00169 0.00145074 0)
(1.00105 0.0011978 0)
(1.00062 0.00110091 0)
(1.00037 0.00108428 0)
(1.00024 0.00110363 0)
(1.0002 0.00112177 0)
(1.00016 0.00108653 0)
(0.334696 0.00226681 0)
(0.88488 0.0534876 0)
(1.1148 0.0771412 0)
(1.13421 0.0739141 0)
(1.10118 0.0632845 0)
(1.07565 0.0541376 0)
(1.05981 0.0468339 0)
(1.04866 0.0404566 0)
(1.04015 0.0347895 0)
(1.03347 0.0297618 0)
(1.02815 0.0252932 0)
(1.02384 0.0213219 0)
(1.02029 0.0177966 0)
(1.01732 0.0146732 0)
(1.0148 0.0119157 0)
(1.01262 0.00949451 0)
(1.0107 0.00738618 0)
(1.00898 0.00557221 0)
(1.00742 0.00403842 0)
(1.00598 0.00277426 0)
(1.00464 0.00177229 0)
(1.00339 0.00102444 0)
(1.00223 0.000545074 0)
(1.00133 0.000290589 0)
(1.00071 0.000213138 0)
(1.00034 0.000224389 0)
(1.00014 0.000275275 0)
(1.00006 0.000327722 0)
(0.999981 0.000323737 0)
(0.302706 -0.000266483 0)
(0.833716 0.0391722 0)
(1.09504 0.0661105 0)
(1.14111 0.0682687 0)
(1.11428 0.0601237 0)
(1.08697 0.0519516 0)
(1.06931 0.0452829 0)
(1.05706 0.0394046 0)
(1.04769 0.0340811 0)
(1.04024 0.0292553 0)
(1.03423 0.0248813 0)
(1.02928 0.0209252 0)
(1.02516 0.0173566 0)
(1.02166 0.0141485 0)
(1.01864 0.0112789 0)
(1.016 0.00872972 0)
(1.01364 0.00648711 0)
(1.0115 0.00454081 0)
(1.00953 0.00288395 0)
(1.00769 0.00151254 0)
(1.00596 0.000423967 0)
(1.00432 -0.000383866 0)
(1.00279 -0.000890798 0)
(1.00158 -0.00114082 0)
(1.00075 -0.00119247 0)
(1.00023 -0.00114497 0)
(0.999944 -0.00105474 0)
(0.999795 -0.000968035 0)
(0.999665 -0.000948479 0)
(0.280078 -0.00106587 0)
(0.788718 0.0286233 0)
(1.07144 0.0559733 0)
(1.1426 0.0620251 0)
(1.12473 0.0563014 0)
(1.09716 0.0490818 0)
(1.07804 0.042949 0)
(1.06487 0.0375172 0)
(1.05482 0.032532 0)
(1.04677 0.0279285 0)
(1.04019 0.0236813 0)
(1.03471 0.0197761 0)
(1.03009 0.0161991 0)
(1.02611 0.012938 0)
(1.02263 0.00998309 0)
(1.01954 0.00732725 0)
(1.01675 0.004966 0)
(1.01419 0.00289763 0)
(1.0118 0.00112311 0)
(1.00954 -0.000355286 0)
(1.00738 -0.00153328 0)
(1.00532 -0.00240567 0)
(1.00337 -0.00294491 0)
(1.00181 -0.00319263 0)
(1.00072 -0.00321776 0)
(1.00002 -0.00312959 0)
(0.999615 -0.00299065 0)
(0.999381 -0.00285617 0)
(0.999175 -0.00281175 0)
(0.264028 -0.00111516 0)
(0.750269 0.021134 0)
(1.04653 0.0471477 0)
(1.14001 0.05575 0)
(1.13272 0.0522081 0)
(1.10628 0.0458985 0)
(1.0861 0.0401892 0)
(1.07214 0.0351026 0)
(1.06156 0.0303951 0)
(1.05305 0.0259847 0)
(1.04601 0.0218533 0)
(1.0401 0.0179983 0)
(1.03504 0.014417 0)
(1.03064 0.011108 0)
(1.02675 0.00807175 0)
(1.02325 0.00531029 0)
(1.02004 0.00282793 0)
(1.01705 0.000630792 0)
(1.01423 -0.00127387 0)
(1.01154 -0.00287564 0)
(1.00893 -0.00416062 0)
(1.0064 -0.00511623 0)
(1.00398 -0.00570632 0)
(1.00201 -0.00596684 0)
(1.00062 -0.00597488 0)
(0.999702 -0.00585034 0)
(0.999142 -0.00566203 0)
(0.998784 -0.00547306 0)
(0.998467 -0.00539039 0)
(0.252241 -0.000901627 0)
(0.717873 0.015917 0)
(1.02194 0.0396577 0)
(1.13459 0.0497311 0)
(1.13859 0.0480346 0)
(1.11447 0.0425805 0)
(1.09365 0.0372101 0)
(1.079 0.0323682 0)
(1.06799 0.0278609 0)
(1.05911 0.0235901 0)
(1.05173 0.0195379 0)
(1.04546 0.015707 0)
(1.04004 0.0121018 0)
(1.03528 0.00872832 0)
(1.03101 0.00559451 0)
(1.02712 0.00271005 0)
(1.02352 8.56133e-05 0)
(1.02012 -0.00226658 0)
(1.01687 -0.00433079 0)
(1.01372 -0.00608761 0)
(1.01063 -0.00751471 0)
(1.00759 -0.00859065 0)
(1.00466 -0.00926895 0)
(1.00223 -0.00957597 0)
(1.00048 -0.00959208 0)
(0.999293 -0.00944799 0)
(0.998525 -0.00921988 0)
(0.997994 -0.00898016 0)
(0.997519 -0.00885745 0)
(0.243198 -0.000648639 0)
(0.690692 0.0122888 0)
(0.998575 0.0333831 0)
(1.12734 0.044118 0)
(1.14269 0.0438923 0)
(1.12185 0.0392186 0)
(1.10083 0.0341263 0)
(1.08561 0.0294438 0)
(1.07422 0.0250599 0)
(1.06506 0.0208685 0)
(1.05739 0.0168474 0)
(1.05084 0.0130007 0)
(1.04512 0.00933671 0)
(1.04004 0.00586654 0)
(1.03544 0.00260335 0)
(1.0312 -0.00043894 0)
(1.02723 -0.00324457 0)
(1.02343 -0.00579371 0)
(1.01976 -0.00806265 0)
(1.01614 -0.0100242 0)
(1.01255 -0.0116479 0)
(1.00897 -0.0129028 0)
(1.00547 -0.0137311 0)
(1.00253 -0.0141437 0)
(1.00036 -0.0142161 0)
(0.99884 -0.0140883 0)
(0.997797 -0.0138447 0)
(0.997025 -0.0135693 0)
(0.99633 -0.0134134 0)
(0.236027 -0.00044644 0)
(0.667893 0.00971375 0)
(0.976915 0.0281468 0)
(1.119 0.0389735 0)
(1.14535 0.0398569 0)
(1.12851 0.035872 0)
(1.10775 0.0310113 0)
(1.09207 0.0264182 0)
(1.08035 0.0220869 0)
(1.07096 0.0179145 0)
(1.06307 0.0138725 0)
(1.05629 0.00996352 0)
(1.05033 0.00619749 0)
(1.04499 0.00258805 0)
(1.04011 -0.000849814 0)
(1.03556 -0.0040989 0)
(1.03124 -0.00713753 0)
(1.02707 -0.00993953 0)
(1.02297 -0.0124747 0)
(1.01889 -0.0147087 0)
(1.01478 -0.0166037 0)
(1.01063 -0.01812 0)
(1.00653 -0.0191889 0)
(1.00302 -0.0197995 0)
(1.00037 -0.0200098 0)
(0.998442 -0.0199646 0)
(0.997041 -0.0197551 0)
(0.995941 -0.0194788 0)
(0.994943 -0.0193094 0)
(0.230218 -0.000312877 0)
(0.648746 0.00781875 0)
(0.957168 0.0237666 0)
(1.11016 0.0343028 0)
(1.14689 0.0359767 0)
(1.13455 0.0325832 0)
(1.11447 0.0279176 0)
(1.09849 0.0233587 0)
(1.08649 0.0190185 0)
(1.07691 0.0148085 0)
(1.06886 0.0106941 0)
(1.06191 0.00667419 0)
(1.05576 0.00275802 0)
(1.05021 -0.00104153 0)
(1.0451 -0.00470861 0)
(1.04028 -0.00822262 0)
(1.03566 -0.0115575 0)
(1.03114 -0.0146823 0)
(1.02664 -0.0175613 0)
(1.0221 -0.0201539 0)
(1.01747 -0.0224155 0)
(1.01273 -0.0243 0)
(1.008 -0.0257303 0)
(1.00389 -0.026671 0)
(1.0007 -0.0271466 0)
(0.998284 -0.0272967 0)
(0.996421 -0.0272136 0)
(0.994874 -0.0270074 0)
(0.993456 -0.0268713 0)
(0.225446 -0.000238063 0)
(0.632636 0.00637284 0)
(0.939381 0.0201086 0)
(1.10121 0.0301104 0)
(1.14755 0.0322958 0)
(1.14002 0.0293846 0)
(1.12101 0.0248785 0)
(1.10488 0.0203118 0)
(1.09265 0.015912 0)
(1.08292 0.0116143 0)
(1.07477 0.0073795 0)
(1.0677 0.00320117 0)
(1.06142 -0.000914842 0)
(1.05571 -0.00495757 0)
(1.05042 -0.00891085 0)
(1.04539 -0.0127521 0)
(1.0405 -0.0164529 0)
(1.03567 -0.0199788 0)
(1.03079 -0.0232892 0)
(1.02581 -0.0263372 0)
(1.02066 -0.0290723 0)
(1.01535 -0.0314444 0)
(1.01 -0.0333756 0)
(1.00531 -0.0348162 0)
(1.0016 -0.0357484 0)
(0.998681 -0.036292 0)
(0.996277 -0.0365202 0)
(0.994157 -0.0365364 0)
(0.992176 -0.0365312 0)
(0.221815 -0.000188971 0)
(0.620034 0.00532543 0)
(0.924677 0.017259 0)
(1.09319 0.026638 0)
(1.14769 0.0291094 0)
(1.14473 0.026562 0)
(1.127 0.0221796 0)
(1.11088 0.0175822 0)
(1.0985 0.0130969 0)
(1.08868 0.00868509 0)
(1.08047 0.00430395 0)
(1.07335 -5.9498e-05 0)
(1.06701 -0.00440442 0)
(1.06123 -0.00872278 0)
(1.05583 -0.0129999 0)
(1.05066 -0.0172143 0)
(1.04559 -0.0213376 0)
(1.04052 -0.0253343 0)
(1.03535 -0.0291599 0)
(1.02999 -0.0327607 0)
(1.02439 -0.0360773 0)
(1.01856 -0.0390513 0)
(1.01265 -0.0415995 0)
(1.00748 -0.0436642 0)
(1.00338 -0.0452094 0)
(1.00005 -0.0463571 0)
(0.997134 -0.0471488 0)
(0.994349 -0.0476328 0)
(0.991593 -0.0479341 0)
(0.219225 -0.000158776 0)
(0.610931 0.00460936 0)
(0.913585 0.0152038 0)
(1.08675 0.0240147 0)
(1.14756 0.0266282 0)
(1.14846 0.0243353 0)
(1.13198 0.0200392 0)
(1.11598 0.0154041 0)
(1.10352 0.0108343 0)
(1.09366 0.00631268 0)
(1.08544 0.00179174 0)
(1.07832 -0.00274809 0)
(1.07199 -0.00731129 0)
(1.0662 -0.0118941 0)
(1.06077 -0.0164852 0)
(1.05554 -0.0210671 0)
(1.05039 -0.0256153 0)
(1.04518 -0.0300961 0)
(1.03982 -0.0344649 0)
(1.0342 -0.0386641 0)
(1.02826 -0.042625 0)
(1.02202 -0.0462748 0)
(1.01567 -0.0495032 0)
(1.01016 -0.0522143 0)
(1.00585 -0.0543729 0)
(1.0024 -0.0561848 0)
(0.999309 -0.0577733 0)
(0.996196 -0.0591728 0)
(0.992942 -0.0602216 0)
(0.217262 -0.000111267 0)
(0.604042 0.00412079 0)
(0.90492 0.0137058 0)
(1.08145 0.022021 0)
(1.14726 0.0246979 0)
(1.15144 0.0225916 0)
(1.13613 0.0183671 0)
(1.1203 0.0137061 0)
(1.1078 0.00906953 0)
(1.09793 0.00445664 0)
(1.08973 -0.000183722 0)
(1.08265 -0.0048771 0)
(1.07635 -0.00963274 0)
(1.07059 -0.0144513 0)
(1.06519 -0.019327 0)
(1.05997 -0.0242486 0)
(1.05479 -0.0291976 0)
(1.04954 -0.034146 0)
(1.04407 -0.0390542 0)
(1.0383 -0.043866 0)
(1.03213 -0.0485083 0)
(1.02557 -0.0528969 0)
(1.01885 -0.0568779 0)
(1.01301 -0.0602342 0)
(1.00853 -0.0628479 0)
(1.00512 -0.0650011 0)
(1.00238 -0.0670668 0)
(0.99997 -0.0694172 0)
(0.99726 -0.0715078 0)
(0.216106 -0.00011592 0)
(0.59944 0.00374349 0)
(0.898887 0.0126341 0)
(1.07772 0.0205987 0)
(1.14716 0.0232947 0)
(1.15383 0.021275 0)
(1.13948 0.017066 0)
(1.12383 0.012375 0)
(1.11134 0.00768983 0)
(1.10149 0.00300706 0)
(1.09335 -0.00173084 0)
(1.08633 -0.00655347 0)
(1.0801 -0.0114739 0)
(1.07442 -0.0164975 0)
(1.06908 -0.0216248 0)
(1.06392 -0.026852 0)
(1.0588 -0.0321689 0)
(1.05357 -0.0375566 0)
(1.04812 -0.0429848 0)
(1.04231 -0.048406 0)
(1.03607 -0.0537549 0)
(1.0294 -0.0589574 0)
(1.02254 -0.063851 0)
(1.01658 -0.0680643 0)
(1.01201 -0.0712584 0)
(1.00861 -0.0735013 0)
(1.00608 -0.0748443 0)
(1.00437 -0.0760599 0)
(1.00449 -0.0809021 0)
(1.00002 0.000660841 0)
(1.00001 0.000663208 0)
(1.00001 0.000660794 0)
(1.00001 0.000659369 9.56149e-22)
(1.00001 0.000659977 4.76814e-21)
(1.00001 0.000662442 -8.57941e-21)
(1.00001 0.000666599 4.76458e-21)
(1 0.000672331 -3.79572e-21)
(1 0.000679487 4.85197e-22)
(1 0.000688077 3.79375e-21)
(1 0.000697933 0)
(0.999999 0.00070904 -4.24112e-21)
(0.999998 0.000721279 4.82016e-22)
(0.999997 0.000734523 3.76518e-21)
(0.999996 0.000748751 0)
(0.999994 0.000763797 0)
(0.999993 0.00077962 -3.729e-21)
(0.999992 0.000796084 3.73135e-21)
(0.999991 0.000813029 0)
(0.99999 0.000830452 -1.85026e-21)
(0.999989 0.000848173 1.9666e-21)
(0.999988 0.000866075 1.72456e-21)
(0.999987 0.000884104 -2.75745e-21)
(0.999986 0.000902085 8.88692e-22)
(0.999986 0.000919922 2.84774e-23)
(0.999985 0.000937546 -5.69193e-23)
(0.999985 0.000954783 7.91677e-22)
(0.999984 0.000971572 -9.04947e-22)
(0.999984 0.000987824 0)
(0.999984 0.0010033 0)
(0.999984 0.001018 -2.23238e-22)
(0.999984 0.00103194 -2.22292e-22)
(0.999984 0.00104495 -3.75511e-21)
(0.999984 0.00105704 3.09053e-21)
(0.999985 0.00106807 -3.94085e-21)
(0.999985 0.00107801 3.93578e-21)
(0.999986 0.00108682 -3.03495e-21)
(0.999986 0.00109439 3.03374e-21)
(0.999987 0.00110072 4.30403e-22)
(0.999988 0.00110572 4.28295e-22)
(0.999989 0.00110936 -4.26156e-22)
(0.99999 0.00111161 0)
(0.999991 0.00111239 0)
(0.999993 0.00111174 0)
(0.999994 0.00110956 0)
(0.999996 0.00110602 0)
(0.999997 0.001101 1.64986e-21)
(0.999999 0.00109367 -1.64711e-21)
(1 0.00108003 0)
(1.00008 0.00109321 0)
(1.00007 0.00109729 1.92965e-21)
(1.00005 0.00109864 -1.92288e-21)
(1.00004 0.00110402 -9.59749e-22)
(1.00002 0.00111456 -9.59816e-22)
(1.00001 0.00112965 -2.87e-21)
(0.999994 0.00114903 4.79127e-21)
(0.99998 0.00117264 0)
(0.999967 0.00119996 -4.76739e-22)
(0.999955 0.00123114 -9.52613e-22)
(0.999943 0.00126567 0)
(0.999932 0.00130345 4.74058e-22)
(0.999921 0.0013443 -4.25299e-21)
(0.999911 0.00138776 3.78324e-21)
(0.999902 0.00143383 0)
(0.999893 0.00148208 9.41074e-22)
(0.999885 0.00153229 0)
(0.999878 0.00158432 0)
(0.999872 0.00163765 0)
(0.999866 0.0016922 -1.85859e-21)
(0.999861 0.00174769 1.7433e-21)
(0.999857 0.00180371 -1.15938e-22)
(0.999853 0.00186013 0)
(0.999851 0.00191662 -4.30382e-22)
(0.999849 0.00197286 4.52002e-22)
(0.999848 0.00202867 8.57001e-23)
(0.999848 0.00208373 1.13779e-22)
(0.999849 0.00213776 0)
(0.99985 0.00219056 -1.80444e-21)
(0.999853 0.00224184 1.80403e-21)
(0.999856 0.00229136 -3.35648e-21)
(0.99986 0.0023389 7.36854e-21)
(0.999865 0.0023842 -3.34209e-21)
(0.99987 0.00242707 4.42697e-22)
(0.999876 0.00246723 4.40785e-22)
(0.999883 0.00250453 4.39348e-22)
(0.999891 0.00253876 -4.36776e-22)
(0.999899 0.00256965 3.90664e-21)
(0.999908 0.00259714 -3.03537e-21)
(0.999918 0.00262088 -1.29203e-21)
(0.999929 0.00264084 4.70671e-21)
(0.99994 0.00265681 -3.41709e-21)
(0.999952 0.00266852 -1.69669e-21)
(0.999965 0.00267601 3.36886e-21)
(0.999978 0.00267886 -6.71627e-21)
(0.999992 0.00267727 3.34649e-21)
(1.00001 0.00267102 1.65795e-21)
(1.00002 0.00265933 -3.72177e-24)
(1.00004 0.00263729 0)
(1.00015 0.00139574 2.90408e-21)
(1.00011 0.00140292 -9.69421e-22)
(1.00007 0.00141289 -3.86293e-21)
(1.00003 0.00142973 1.92552e-21)
(0.999984 0.00145463 -1.92562e-21)
(0.999943 0.00148675 0)
(0.999905 0.00152579 -1.91585e-21)
(0.999868 0.00157184 -5.73776e-21)
(0.999833 0.00162381 5.73899e-21)
(0.999799 0.00168211 9.52555e-22)
(0.999768 0.0017458 0)
(0.999738 0.00181473 -5.69574e-21)
(0.999711 0.00188875 1.07658e-23)
(0.999685 0.00196687 3.78812e-21)
(0.999662 0.00204928 0)
(0.99964 0.0021352 -9.40438e-22)
(0.999621 0.00222421 -9.40644e-22)
(0.999604 0.0023163 0)
(0.999589 0.00241038 -9.35738e-22)
(0.999576 0.00250642 -1.86035e-21)
(0.999566 0.00260406 1.86091e-21)
(0.999557 0.00270248 -2.32513e-22)
(0.999551 0.00280154 -2.31208e-22)
(0.999548 0.00290078 0)
(0.999546 0.00299956 3.57787e-23)
(0.999547 0.00309762 -2.00154e-22)
(0.99955 0.00319455 0)
(0.999555 0.00328975 0)
(0.999563 0.00338293 -1.80508e-21)
(0.999573 0.0034737 1.80473e-21)
(0.999585 0.00356156 -3.58145e-21)
(0.999599 0.00364617 3.58025e-21)
(0.999615 0.00372716 0)
(0.999633 0.00380412 0)
(0.999653 0.00387666 0)
(0.999675 0.00394451 -8.77389e-22)
(0.999699 0.00400722 -1.74854e-21)
(0.999725 0.00406447 0)
(0.999753 0.00411605 -8.651e-22)
(0.999783 0.00416141 -8.53831e-22)
(0.999815 0.00420048 2.57761e-21)
(0.999848 0.00423283 0)
(0.999884 0.00425807 3.38606e-21)
(0.999921 0.00427622 -5.06873e-21)
(0.999959 0.00428652 0)
(0.999999 0.00428923 0)
(1.00004 0.00428373 0)
(1.00009 0.00426924 -1.65262e-21)
(1.00013 0.00424183 -1.64196e-21)
(1.00018 0.00154603 -1.94026e-21)
(1.00011 0.00156199 3.88457e-21)
(1.00003 0.00158719 3.87725e-21)
(0.999944 0.00162181 5.79572e-21)
(0.999863 0.00166744 -1.93656e-21)
(0.999785 0.00172309 -3.84723e-21)
(0.999711 0.00178842 7.69248e-21)
(0.99964 0.00186377 -3.64485e-24)
(0.999573 0.00194726 -1.91342e-21)
(0.999509 0.00203978 1.91643e-21)
(0.99945 0.0021398 0)
(0.999394 0.00224711 1.90194e-21)
(0.999342 0.0023617 -1.89081e-21)
(0.999294 0.00248186 7.58646e-21)
(0.999251 0.00260811 -7.56839e-21)
(0.999211 0.00273919 5.67271e-21)
(0.999176 0.0028745 -9.47513e-22)
(0.999145 0.00301426 9.41157e-22)
(0.999119 0.0031566 9.34934e-22)
(0.999097 0.00330162 -9.36004e-22)
(0.999079 0.00344892 0)
(0.999066 0.00359715 -1.38997e-21)
(0.999057 0.00374622 1.16095e-21)
(0.999053 0.00389553 9.23812e-22)
(0.999053 0.00404403 4.3061e-23)
(0.999058 0.00419144 8.56426e-23)
(0.999067 0.00433725 1.36797e-21)
(0.999081 0.00448048 -9.10715e-22)
(0.999099 0.00462079 1.80755e-21)
(0.999121 0.00475769 -1.80725e-21)
(0.999147 0.00489035 0)
(0.999177 0.00501839 4.46606e-21)
(0.999212 0.00514126 -3.56905e-21)
(0.999251 0.00525831 3.5386e-21)
(0.999293 0.00536913 -3.53728e-21)
(0.99934 0.00547324 0)
(0.99939 0.00557001 3.48644e-21)
(0.999444 0.00565905 -1.7459e-21)
(0.999502 0.00573999 0)
(0.999563 0.0058121 3.43991e-21)
(0.999628 0.0058753 -3.43506e-21)
(0.999697 0.00592891 1.70536e-21)
(0.999769 0.00597246 1.69628e-21)
(0.999845 0.00600595 5.06075e-21)
(0.999923 0.00602831 6.44212e-24)
(1.00001 0.00603987 3.34517e-21)
(1.00009 0.00603963 1.65648e-21)
(1.00018 0.00602673 1.64541e-21)
(1.00028 0.00599863 1.64306e-21)
(1.00015 0.00147052 0)
(1.00003 0.00150317 -3.88978e-21)
(0.999904 0.0015521 -3.88093e-21)
(0.999771 0.00161299 0)
(0.99964 0.00168805 -3.87142e-21)
(0.999513 0.00177607 9.33807e-24)
(0.999391 0.00187669 7.74281e-21)
(0.999275 0.00199059 -1.93934e-21)
(0.999166 0.00211495 -9.70586e-24)
(0.999062 0.00225129 -5.76293e-21)
(0.998965 0.00239736 0)
(0.998875 0.00255295 -5.74049e-21)
(0.998791 0.00271821 1.91825e-21)
(0.998714 0.00289054 0)
(0.998644 0.00307095 -1.9059e-21)
(0.998581 0.00325758 1.02758e-23)
(0.998525 0.00344962 -1.88939e-21)
(0.998477 0.00364763 6.60056e-21)
(0.998436 0.00384876 -1.19037e-23)
(0.998402 0.00405335 -9.48587e-22)
(0.998375 0.00426095 -9.34713e-22)
(0.998356 0.00446954 1.85975e-21)
(0.998344 0.00467917 -1.86001e-21)
(0.99834 0.00488906 -2.29822e-22)
(0.998343 0.00509769 4.76174e-22)
(0.998353 0.00530481 -2.56921e-22)
(0.998371 0.00550977 9.1505e-22)
(0.998396 0.00571114 -9.13176e-22)
(0.998429 0.00590858 9.09846e-22)
(0.998468 0.00610148 1.80432e-21)
(0.998515 0.00628862 -5.39651e-21)
(0.998568 0.00646962 -8.79884e-22)
(0.998628 0.00664374 5.36329e-21)
(0.998695 0.00681007 1.77872e-21)
(0.998769 0.00696816 -3.52756e-21)
(0.998849 0.00711733 3.52542e-21)
(0.998935 0.00725677 8.22488e-24)
(0.999028 0.007386 5.22637e-21)
(0.999127 0.00750453 -3.4833e-21)
(0.999232 0.00761143 -8.62786e-21)
(0.999343 0.00770662 3.43085e-21)
(0.999459 0.00778919 1.70684e-21)
(0.999582 0.0078586 6.77842e-21)
(0.99971 0.00791484 -3.38077e-21)
(0.999843 0.00795652 -8.25015e-24)
(0.999983 0.00798416 -8.94066e-24)
(1.00013 0.00799629 0)
(1.00028 0.00799216 -3.30144e-21)
(1.00045 0.00797119 -3.27692e-21)
(1.00004 0.00109794 0)
(0.999868 0.00115718 -5.88764e-21)
(0.999676 0.00123968 5.87897e-21)
(0.99948 0.00133685 0)
(0.999285 0.0014519 0)
(0.999096 0.00158327 -3.88839e-21)
(0.998914 0.00173052 -3.00235e-24)
(0.998741 0.00189469 -3.8893e-21)
(0.998577 0.00207185 -9.41094e-24)
(0.998422 0.00226434 0)
(0.998277 0.00246899 0)
(0.998143 0.00268565 1.91896e-21)
(0.998018 0.00291467 0)
(0.997903 0.00315238 0)
(0.9978 0.00340043 -1.91128e-21)
(0.997707 0.00365621 3.83083e-21)
(0.997624 0.0039187 1.90857e-21)
(0.997553 0.00418889 0)
(0.997493 0.00446272 1.87681e-21)
(0.997444 0.00474088 -4.7207e-21)
(0.997406 0.00502285 -1.87891e-21)
(0.99738 0.00530583 -1.86872e-21)
(0.997364 0.00559005 1.86889e-21)
(0.99736 0.00587454 1.45045e-24)
(0.997367 0.00615723 1.45163e-23)
(0.997386 0.00643787 2.30281e-22)
(0.997415 0.00671572 -4.6024e-22)
(0.997456 0.00698881 0)
(0.997507 0.00725681 -9.08803e-22)
(0.99757 0.00751896 0)
(0.997643 0.00777362 0)
(0.997726 0.00802041 -1.8017e-21)
(0.99782 0.00825837 -7.14807e-21)
(0.997924 0.0084863 2.29513e-23)
(0.998038 0.00870375 1.77606e-21)
(0.998162 0.0089098 0)
(0.998296 0.00910343 -1.75069e-21)
(0.998439 0.00928412 -3.49278e-21)
(0.998591 0.0094512 3.46517e-21)
(0.998753 0.00960357 6.90128e-21)
(0.998923 0.00974115 -6.86223e-21)
(0.999102 0.00986282 2.95602e-24)
(0.999289 0.00996791 -3.3923e-21)
(0.999485 0.0100565 8.94707e-26)
(0.999689 0.0101269 0)
(0.999902 0.0101797 -3.33476e-21)
(1.00012 0.010213 -1.65277e-21)
(1.00036 0.0102263 1.65153e-21)
(1.00061 0.0102221 3.27846e-21)
(0.999804 0.000353282 0)
(0.99957 0.000447422 3.93662e-21)
(0.999306 0.00057379 -1.18335e-20)
(0.999031 0.000719511 0)
(0.998757 0.000887689 0)
(0.99849 0.00107573 -7.85669e-21)
(0.998234 0.00128331 7.8248e-21)
(0.997989 0.00151211 -3.92512e-21)
(0.997757 0.00175691 -9.53662e-24)
(0.997538 0.00202097 3.89854e-21)
(0.997333 0.00229998 0)
(0.997143 0.00259389 0)
(0.996966 0.00290326 3.88664e-21)
(0.996805 0.00322317 0)
(0.996658 0.00355602 0)
(0.996527 0.00389834 -3.84152e-21)
(0.996412 0.00424884 1.62033e-23)
(0.996312 0.00460902 0)
(0.996228 0.00497344 1.896e-21)
(0.99616 0.0053432 4.74446e-21)
(0.996108 0.00571765 -1.90145e-21)
(0.996072 0.00609313 0)
(0.996052 0.0064701 -9.36712e-22)
(0.996049 0.00684729 1.1703e-21)
(0.996061 0.00722206 -5.10235e-22)
(0.99609 0.00759418 -2.32752e-22)
(0.996135 0.00796271 4.57989e-22)
(0.996195 0.00832515 -9.21303e-22)
(0.996272 0.00868111 0)
(0.996363 0.00902968 -3.64564e-21)
(0.99647 0.00936876 5.43449e-21)
(0.996593 0.00969791 1.78261e-21)
(0.99673 0.010016 -7.71275e-24)
(0.996881 0.0103214 1.78036e-21)
(0.997047 0.0106137 -1.78858e-21)
(0.997227 0.0108917 -3.52411e-21)
(0.997421 0.0111542 7.02638e-21)
(0.997628 0.0114005 -3.49916e-21)
(0.997848 0.0116299 6.96062e-21)
(0.998081 0.011841 7.1778e-24)
(0.998326 0.0120338 6.86767e-21)
(0.998584 0.0122069 -3.41081e-21)
(0.998853 0.0123596 0)
(0.999134 0.0124919 3.56277e-25)
(0.999426 0.0126019 6.70245e-21)
(0.99973 0.0126904 0)
(1.00005 0.012755 0)
(1.00038 0.0127954 5.75139e-21)
(1.00073 0.0128187 8.19314e-22)
(0.999414 -0.000862501 9.95797e-22)
(0.999089 -0.000693192 7.00333e-21)
(0.99873 -0.000527975 7.91861e-21)
(0.99836 -0.000329945 -7.98053e-21)
(0.998004 -9.4562e-05 0)
(0.997643 0.000166724 -1.25106e-23)
(0.997295 0.00045181 -3.99025e-21)
(0.996961 0.000763448 -3.97811e-21)
(0.996645 0.00109426 1.18401e-20)
(0.996347 0.00144876 -3.93504e-21)
(0.996067 0.00182153 0)
(0.995807 0.00221269 7.84721e-21)
(0.995566 0.00262299 -7.79641e-21)
(0.995346 0.00304605 2.6827e-23)
(0.995146 0.00348519 7.77054e-21)
(0.994967 0.00393586 -1.95187e-21)
(0.99481 0.0043965 -1.8958e-21)
(0.994674 0.00486915 3.85703e-21)
(0.99456 0.00534678 0)
(0.994468 0.00583101 -1.90438e-21)
(0.994398 0.00632099 1.90666e-21)
(0.994351 0.00681206 1.89515e-21)
(0.994326 0.00730494 -1.89508e-21)
(0.994323 0.007798 2.36612e-22)
(0.994342 0.00828795 2.91885e-23)
(0.994384 0.00877453 6.98309e-22)
(0.994448 0.00925656 -2.78743e-24)
(0.994533 0.00973096 0)
(0.994641 0.0101972 0)
(0.99477 0.0106542 -1.53093e-24)
(0.99492 0.0110993 -1.80851e-21)
(0.995092 0.0115321 3.63447e-21)
(0.995283 0.011951 -3.60675e-21)
(0.995495 0.0123541 3.57534e-21)
(0.995726 0.0127408 -7.15058e-21)
(0.995977 0.0131098 1.87236e-23)
(0.996246 0.0134595 3.53261e-21)
(0.996534 0.0137892 3.49281e-21)
(0.996839 0.0140979 -6.98061e-21)
(0.997161 0.0143841 -6.92481e-21)
(0.9975 0.0146477 -3.44776e-21)
(0.997855 0.0148871 -3.42441e-21)
(0.998225 0.0151014 0)
(0.998611 0.0152909 -3.36938e-21)
(0.999012 0.0154531 -2.83139e-24)
(0.999429 0.0155892 6.64813e-21)
(0.999863 0.0156961 -8.2478e-21)
(1.00032 0.0157743 1.63084e-21)
(1.0008 0.0158368 0)
(0.998836 -0.00272389 0)
(0.998401 -0.0024896 -8.00682e-21)
(0.997925 -0.00221106 0)
(0.997436 -0.00185782 7.99214e-21)
(0.996951 -0.0015322 4.00542e-21)
(0.996473 -0.00123609 -8.00555e-21)
(0.996014 -0.000859588 1.19592e-20)
(0.995586 -0.000444318 3.96898e-21)
(0.995167 -6.18216e-06 -3.96397e-21)
(0.994771 0.000461237 0)
(0.994398 0.000951618 3.96311e-21)
(0.994051 0.00146469 -7.90253e-21)
(0.99373 0.00200122 3.97349e-21)
(0.993436 0.00255329 -3.91834e-21)
(0.99317 0.00312527 3.07557e-23)
(0.992931 0.00371139 3.92243e-21)
(0.992721 0.00430976 -7.81466e-21)
(0.99254 0.00492294 0)
(0.992388 0.00554222 3.87158e-21)
(0.992265 0.00616973 -3.8715e-21)
(0.992173 0.00680429 -9.573e-22)
(0.99211 0.00744025 0)
(0.992077 0.00807847 9.6007e-22)
(0.992075 0.00871689 2.37669e-22)
(0.992103 0.00935153 -5.0373e-22)
(0.992161 0.00998197 7.06211e-22)
(0.992249 0.0106067 4.64982e-22)
(0.992366 0.011222 -9.34266e-22)
(0.992513 0.0118272 0)
(0.992689 0.0124208 -1.83927e-21)
(0.992894 0.0129997 3.68021e-21)
(0.993127 0.013563 0)
(0.993388 0.0141091 1.80668e-21)
(0.993675 0.0146355 0)
(0.993989 0.0151413 3.57138e-21)
(0.994329 0.0156252 -7.11782e-21)
(0.994693 0.016085 3.52382e-21)
(0.995081 0.0165199 -2.18467e-23)
(0.995493 0.0169288 3.46008e-21)
(0.995927 0.0173096 -3.47675e-21)
(0.996383 0.0176626 3.43772e-21)
(0.996859 0.0179857 6.83967e-21)
(0.997355 0.0182779 0)
(0.997871 0.0185398 0)
(0.998406 0.0187682 -6.69417e-21)
(0.998961 0.0189649 -1.32826e-20)
(0.999538 0.0191258 1.31851e-20)
(1.00014 0.0192525 -7.37121e-21)
(1.00078 0.0193663 7.30205e-21)
(0.998014 -0.00527373 0)
(0.997458 -0.00495862 8.1702e-21)
(0.996847 -0.00458494 8.15919e-21)
(0.996214 -0.00416909 1.22218e-20)
(0.995568 -0.00372866 -1.22166e-20)
(0.994946 -0.00326095 -4.04963e-21)
(0.994346 -0.00269964 1.22081e-20)
(0.993774 -0.00215643 -4.03843e-21)
(0.993226 -0.00164061 4.04086e-21)
(0.99271 -0.00104103 0)
(0.992228 -0.000405704 8.09732e-21)
(0.991774 0.000257836 0)
(0.991353 0.000950486 -3.97531e-21)
(0.990966 0.00166291 -4.02022e-21)
(0.990615 0.00240029 5.38507e-23)
(0.9903 0.00315531 0)
(0.990023 0.00392569 3.96528e-21)
(0.989783 0.00471441 7.91417e-21)
(0.989582 0.00551106 0)
(0.98942 0.00631823 1.9515e-21)
(0.989297 0.00713425 -1.95085e-21)
(0.989214 0.0079524 -1.93456e-21)
(0.989171 0.00877359 1.94628e-21)
(0.989169 0.00959516 -4.3136e-24)
(0.989206 0.0104124 -4.79041e-22)
(0.989284 0.0112246 -2.1082e-22)
(0.989402 0.0120297 -4.7404e-22)
(0.989559 0.0128234 9.45889e-22)
(0.989756 0.0136044 0)
(0.989992 0.0143708 1.85364e-21)
(0.990266 0.015119 -3.69227e-21)
(0.990578 0.0158476 0)
(0.990926 0.0165546 0)
(0.99131 0.0172367 3.61187e-21)
(0.991728 0.017893 -7.20051e-21)
(0.992181 0.0185217 3.58801e-21)
(0.992666 0.0191201 3.56104e-21)
(0.993182 0.0196871 0)
(0.993728 0.0202213 1.04971e-20)
(0.994303 0.0207205 -6.9465e-21)
(0.994904 0.0211849 -3.4446e-21)
(0.995533 0.0216119 1.34693e-23)
(0.996186 0.0220006 -6.79464e-21)
(0.996863 0.0223517 -6.73354e-21)
(0.997564 0.0226614 -6.68282e-21)
(0.998289 0.0229321 9.36288e-24)
(0.999042 0.0231587 -1.50814e-23)
(0.999827 0.023344 0)
(1.00066 0.0235204 -1.29443e-20)
(0.996911 -0.00869272 0)
(0.996194 -0.00827295 2.15141e-21)
(0.995413 -0.00778128 -1.02102e-20)
(0.994606 -0.00725383 -8.1648e-21)
(0.993792 -0.00667944 8.15819e-21)
(0.992995 -0.00606363 4.16308e-21)
(0.99222 -0.00539244 -4.04773e-21)
(0.991462 -0.00468727 0)
(0.990751 -0.00395616 0)
(0.990078 -0.00315286 8.23879e-21)
(0.989446 -0.00233931 -8.10583e-21)
(0.988855 -0.0015145 4.0688e-21)
(0.988305 -0.000635079 -4.06543e-21)
(0.9878 0.000274799 4.06084e-21)
(0.98734 0.00121681 4.06685e-21)
(0.986926 0.00218144 -4.03141e-21)
(0.986561 0.0031662 -3.98424e-21)
(0.986245 0.00417423 -3.968e-21)
(0.985978 0.00519323 3.97377e-21)
(0.985764 0.00622624 -3.97277e-21)
(0.9856 0.00727076 0)
(0.985489 0.00831902 1.98002e-21)
(0.985432 0.00937175 -1.94603e-21)
(0.985427 0.0104254 1.45778e-21)
(0.985475 0.0114746 0)
(0.985577 0.0125178 9.6233e-22)
(0.985732 0.0135524 0)
(0.98594 0.0145732 -9.44889e-22)
(0.986201 0.0155782 1.8331e-23)
(0.986513 0.0165648 1.17514e-23)