/*--------------------------------*- C++ -*----------------------------------*\
| =========                 |                                                 |
| \\      /  F ield         | OpenFOAM: The Open Source CFD Toolbox           |
|  \\    /   O peration     | Version:  2312                                  |
|   \\  /    A nd           | Website:  www.openfoam.com                      |
|    \\/     M anipulation  |                                                 |
\*---------------------------------------------------------------------------*/
FoamFile
{
    version     2.0;
    format      ascii;
    arch        "LSB;label=32;scalar=64";
    class       surfaceScalarField;
    location    "66.996483614514744";
    object      phi;
}
// * * * * * * * * * * * * * * * * * * * * * * * * * * * * * * * * * * * * * //

dimensions      [0 3 -1 0 0 0 0];

oriented        oriented;

internalField   nonuniform List<scalar> 
41713
(
0.00736133
0.0568851
0.00362848
0.0679793
0.00211731
0.0657576
0.00148442
0.0648793
0.00109855
0.0646323
0.000844411
0.0645006
0.000669284
0.0644216
0.000542239
0.0643735
0.000446666
0.064342
0.000372908
0.0643202
0.000314839
0.0643045
0.000268404
0.0642929
0.000230837
0.064284
0.0002002
0.0642771
0.000175099
0.0642715
0.000154511
0.064267
0.000137674
0.0642633
0.000124002
0.0642601
0.000113038
0.0642574
0.000104398
0.0642551
9.77195e-05
0.0642531
9.26387e-05
0.0642515
8.8873e-05
0.0642502
8.6172e-05
0.0548139
8.38678e-05
0.0456783
8.17344e-05
0.0380654
7.97717e-05
0.0317214
7.79979e-05
0.0264346
0.022029
7.63795e-05
0.00999323
0.0468919
0.00842558
0.0695469
0.00571416
0.068469
0.0041208
0.0664727
0.00312016
0.0656329
0.0024287
0.065192
0.00193066
0.0649196
0.00156061
0.0647435
0.00127824
0.0646244
0.00105776
0.0645407
0.000882228
0.06448
0.00074027
0.0644348
0.000624042
0.0644002
0.000528007
0.0643731
0.00044818
0.0643514
0.000381645
0.0643336
0.000326234
0.0643187
0.000280308
0.064306
0.000242609
0.0642951
0.000212146
0.0642855
0.00018811
0.0642772
0.000169794
0.0642698
0.000156482
0.0642635
0.000148183
0.0548222
0.00014284
0.0456836
0.000139087
0.0380692
0.000136129
0.0317243
0.000133572
0.0264372
0.0220312
0.000131401
0.00859344
0.0382984
0.00970303
0.0684373
0.00746501
0.0707071
0.00569618
0.0682415
0.00450747
0.0668217
0.00362154
0.066078
0.00293826
0.0656029
0.00240603
0.0652758
0.00198618
0.0650442
0.00165015
0.0648767
0.0013775
0.0647527
0.00115362
0.0646587
0.000967973
0.0645859
0.00081286
0.0645282
0.000682625
0.0644816
0.000573062
0.0644431
0.000481012
0.0644107
0.000404082
0.064383
0.000340437
0.0643587
0.000288651
0.0643373
0.000247593
0.0643182
0.000216325
0.0643011
0.000193901
0.0642859
0.00018052
0.0548356
0.000172558
0.0456916
0.00016749
0.0380743
0.000163824
0.031728
0.00016082
0.0264402
0.0220337
0.000158337
0.00677149
0.0315269
0.00946663
0.0657422
0.00811081
0.0720629
0.00643091
0.0699214
0.00523913
0.0680134
0.00433242
0.0669847
0.00359947
0.0663358
0.00300093
0.0658743
0.00250965
0.0655355
0.0021036
0.0652828
0.00176552
0.0650908
0.00148203
0.0649422
0.00124285
0.0648251
0.0010401
0.064731
0.000867764
0.0646539
0.000721232
0.0645897
0.000596987
0.064535
0.000492325
0.0644876
0.000405163
0.0644459
0.000333886
0.0644086
0.000277223
0.0643749
0.00023413
0.0643442
0.000203478
0.0643166
0.000185588
0.0548534
0.000175354
0.0457018
0.000169181
0.0380804
0.000164984
0.0317322
0.000161766
0.0264434
0.0220361
0.000159281
0.00506105
0.0264659
0.00855828
0.062245
0.00816673
0.0724544
0.0067221
0.0713661
0.0055655
0.06917
0.00468739
0.0678628
0.00396664
0.0670566
0.0033595
0.0664814
0.00284504
0.06605
0.00240734
0.0657205
0.00203346
0.0654646
0.00171291
0.0652627
0.00143724
0.0651007
0.0011997
0.0649685
0.000994943
0.0648587
0.000818756
0.0647658
0.000667836
0.0646859
0.000539618
0.0646158
0.000432109
0.0645534
0.000343766
0.0644969
0.000273381
0.0644453
0.000219936
0.0643976
0.000182223
0.0643543
0.000160712
0.054875
0.00014892
0.0457136
0.000142258
0.0380871
0.000138111
0.0317364
0.000135248
0.0264463
0.0220381
0.000133292
0.00361393
0.022852
0.00729765
0.0585613
0.00776389
0.0719882
0.00670297
0.072427
0.0056402
0.0702328
0.00481168
0.0686913
0.0041267
0.0677416
0.00353714
0.067071
0.00302517
0.0665619
0.00257924
0.0661664
0.00218989
0.065854
0.00184927
0.0656034
0.00155097
0.065399
0.00128976
0.0652297
0.00106137
0.0650871
0.000862408
0.0649648
0.000690165
0.0648581
0.000542528
0.0647635
0.000417868
0.0646781
0.000314939
0.0645999
0.000232788
0.0645274
0.000170596
0.0644598
0.000127172
0.0643977
0.000103141
0.054899
9.0769e-05
0.045726
8.44573e-05
0.0380934
8.1103e-05
0.0317397
7.9241e-05
0.0264481
0.0220389
7.84116e-05
0.00251844
0.0203335
0.0060046
0.0550751
0.00707637
0.0709164
0.00644338
0.07306
0.00552892
0.0711473
0.00476965
0.0694506
0.00413503
0.0683762
0.00357826
0.0676278
0.00308351
0.0670567
0.00264316
0.0666067
0.00225097
0.0662462
0.00190154
0.0659528
0.00159037
0.0657102
0.00131371
0.0655064
0.00106851
0.0653323
0.000852292
0.065181
0.000663132
0.0650473
0.000499547
0.0649271
0.000360443
0.0648172
0.000245047
0.0647153
0.000152832
0.0646196
8.33817e-05
0.0645293
3.58082e-05
0.0644453
1.04026e-05
0.0549244
-1.92369e-06
0.0457383
-7.23553e-06
0.0380987
-9.1779e-06
0.0317417
-9.48666e-06
0.0264484
0.0220382
-8.74408e-06
0.00175447
0.0185791
0.00487487
0.0519547
0.00629902
0.0694923
0.0060466
0.0733124
0.00529843
0.0718954
0.00461352
0.0701355
0.0040326
0.0689571
0.00351546
0.0681449
0.00304617
0.067526
0.00261966
0.0670332
0.00223246
0.0666334
0.00188142
0.0663038
0.0015638
0.0660278
0.00127729
0.0657929
0.00102
0.0655896
0.000790434
0.0654106
0.000587488
0.0652503
0.000410396
0.0651042
0.000258711
0.0649689
0.000132248
0.0648417
3.09735e-05
0.0647209
-4.51772e-05
0.0646054
-9.67836e-05
0.0644969
-0.000123157
0.0549508
-0.000134335
0.0457495
-0.000137623
0.038102
-0.000137054
0.0317411
-0.000134601
0.026446
0.0220347
-0.00013111
0.00124425
0.0173348
0.0039566
0.0492423
0.00554619
0.0679027
0.00559706
0.0732615
0.00501011
0.0724824
0.00439417
0.0707514
0.00385984
0.0694915
0.00337996
0.0686248
0.00293743
0.0679685
0.00252782
0.0674428
0.00214935
0.0670119
0.00180056
0.0666526
0.00148018
0.0663482
0.00118711
0.066086
0.000920537
0.0658562
0.000679892
0.0656512
0.000464887
0.0654653
0.000275512
0.0652935
0.000111999
0.0651324
-2.52356e-05
0.064979
-0.000135611
0.0648313
-0.000218476
0.0646883
-0.000273777
0.0645522
-0.000300774
0.0549778
-0.000310634
0.0457593
-0.000311406
0.0381028
-0.000307691
0.0317374
-0.000301806
0.0264401
0.0220277
-0.000294796
0.000910714
0.0164241
0.00323056
0.0469225
0.00486107
0.0662722
0.00513883
0.0729838
0.00469966
0.0729215
0.00414638
0.0713047
0.00364892
0.0699889
0.00319912
0.0690746
0.00277975
0.0683879
0.0023858
0.0678368
0.00201623
0.0673814
0.00167061
0.0669982
0.00134864
0.0666702
0.0010502
0.0663844
0.000775319
0.066131
0.000524245
0.0659023
0.000297458
0.065692
9.5636e-05
0.0654954
-8.03535e-05
0.0653084
-0.00022938
0.065128
-0.000350032
0.0649519
-0.000440887
0.0647792
-0.000501282
0.0646126
-0.000529813
0.0550063
-0.000538744
0.0457683
-0.000536997
0.038101
-0.000529773
0.0317301
-0.000519839
0.0264302
0.0220165
-0.000508611
0.000694119
0.01573
0.00266315
0.0449535
0.00425586
0.0646794
0.004693
0.0725466
0.00438376
0.0732308
0.00388804
0.0718004
0.0034195
0.0704575
0.00299209
0.069502
0.0025905
0.0687895
0.0022088
0.0682185
0.00184604
0.0677442
0.00150232
0.067342
0.00117798
0.0669945
0.000873528
0.0666889
0.000589656
0.0664149
0.00032727
0.0661647
8.74522e-05
0.0659319
-0.000128543
0.0657113
-0.000319142
0.065499
-0.000482392
0.0652912
-0.000616064
0.0650856
-0.000717902
0.064881
-0.000786436
0.0646811
-0.00081897
0.0550388
-0.000828708
0.045778
-0.000825483
0.0380978
-0.000815206
0.0317199
-0.000801221
0.0264162
0.0220007
-0.000785452
0.000550878
0.0151791
0.00222002
0.0432843
0.00372968
0.0631698
0.00427095
0.0720053
0.00407158
0.0734302
0.00362855
0.0722434
0.00318291
0.0709031
0.00277113
0.0699138
0.00238181
0.0691788
0.00200825
0.0685921
0.00164917
0.0681033
0.00130487
0.0676863
0.000976037
0.0673234
0.000663587
0.0670013
0.000368678
0.0667098
9.26519e-05
0.0664407
-0.000162978
0.0661875
-0.000396353
0.0659447
-0.000605164
0.0657078
-0.000786711
0.0654728
-0.000937978
0.0652369
-0.00105585
0.0649989
-0.00113794
0.0647632
-0.00117923
0.0550801
-0.00119349
0.0457923
-0.00119144
0.0380958
-0.00117981
0.0317082
-0.0011627
0.0263991
0.0219808
-0.00114278
0.000451741
0.0147274
0.00187071
0.0418653
0.00327507
0.0617654
0.00387825
0.0714022
0.00376905
0.0735394
0.00337371
0.0726388
0.00294648
0.0713303
0.00254468
0.0703156
0.00216251
0.069561
0.00179288
0.0689617
0.00143397
0.0684622
0.00108599
0.0680342
0.000749747
0.0676596
0.000426381
0.0673247
0.000117278
0.0670189
-0.000175993
0.066734
-0.000451496
0.066463
-0.000706778
0.0662
-0.000938929
0.0659399
-0.0011446
0.0656785
-0.00132006
0.0654123
-0.00146145
0.0651402
-0.00156553
0.0648673
-0.0016235
0.0551381
-0.00164909
0.0458179
-0.00165359
0.0381003
-0.00164448
0.0316991
-0.00162684
0.0263814
0.0219583
-0.00160434
0.000378966
0.0143484
0.00159122
0.0406531
0.00288229
0.0604744
0.00351642
0.070768
0.00347964
0.0735761
0.00312728
0.0729911
0.00271534
0.0717423
0.00231912
0.0707118
0.00193962
0.0699405
0.00156996
0.0693313
0.00120766
0.0688245
0.000852636
0.0683893
0.000505612
0.0680066
0.000167732
0.0676626
-0.000159651
0.0673463
-0.000474787
0.0670491
-0.000775343
0.0667636
-0.00105844
0.0664831
-0.00132067
0.0662022
-0.00155813
0.0659159
-0.00176649
0.0656207
-0.00194139
0.0653151
-0.00207925
0.0650052
-0.00216588
0.0552247
-0.00221406
0.045866
-0.00223482
0.038121
-0.00223593
0.0317002
-0.00222344
0.0263689
0.0219373
-0.00220245
0.000322522
0.0140259
0.00136567
0.03961
0.0025448
0.0592952
0.00318699
0.0701258
0.00320593
0.0735572
0.00289139
0.0733057
0.00249255
0.0721411
0.00209879
0.0711055
0.00171839
0.0703209
0.00134526
0.0697045
0.000976313
0.0691934
0.000610984
0.0687546
0.000249747
0.0683679
-0.000106548
0.0680188
-0.000456644
0.0676964
-0.000798666
0.0673911
-0.00113007
0.067095
-0.00144769
0.0668007
-0.00174771
0.0665022
-0.0020257
0.0661939
-0.00227689
0.0658719
-0.00249683
0.0655351
-0.00268277
0.0651911
-0.00281459
0.0553565
-0.00290363
0.0459551
-0.00295905
0.0381764
-0.00298663
0.0317278
-0.00299174
0.0263741
0.0219262
-0.00298064
0.000237916
0.013788
0.00100704
0.0388408
0.00191812
0.0583842
0.00245481
0.0695891
0.00250435
0.0735077
0.00226519
0.0735449
0.00193816
0.0724681
0.00160688
0.0714368
0.0012838
0.070644
0.000964675
0.0700236
0.000646417
0.0695117
0.000328056
0.0690729
9.56933e-06
0.0686863
-0.000308666
0.0683371
-0.000625802
0.0680135
-0.000940349
0.0677057
-0.00125024
0.0674048
-0.00155271
0.0671032
-0.00184427
0.0667937
-0.00212069
0.0664703
-0.00237726
0.0661284
-0.00260977
0.0657676
-0.00281655
0.0653979
-0.00297598
0.0555159
-0.00309893
0.046078
-0.00319259
0.0382701
-0.00325846
0.0317937
-0.0032968
0.0264124
0.0219411
-0.00331168
0.000178996
0.013609
0.000753873
0.0382659
0.00145857
0.0576795
0.00189895
0.0691488
0.00195963
0.073447
0.00177678
0.0737277
0.00151025
0.0727347
0.00123438
0.0717127
0.000963095
0.0709152
0.000693467
0.0702932
0.000422493
0.0697827
0.000148939
0.0693465
-0.000127659
0.0689629
-0.000407327
0.0686168
-0.000689612
0.0682958
-0.000973612
0.0679897
-0.00125787
0.0676891
-0.00154027
0.0673856
-0.0018179
0.0670714
-0.00208697
0.0667394
-0.00234288
0.0663844
-0.00258102
0.0660057
-0.00279888
0.0656158
-0.00297273
0.0556898
-0.00311585
0.0462212
-0.00323984
0.0383941
-0.00334957
0.0319034
-0.00344289
0.0265057
0.0220043
-0.00350618
0.000138833
0.0134701
0.000577374
0.0378274
0.00112875
0.0571281
0.00148913
0.0687884
0.00155119
0.0733849
0.00140991
0.073869
0.00119255
0.072952
0.000963376
0.0719419
0.000736272
0.0711423
0.000509218
0.0705203
0.000279448
0.0700124
4.559e-05
0.0695804
-0.000193087
0.0692016
-0.000436902
0.0688606
-0.000685831
0.0685447
-0.000939522
0.0682434
-0.00119716
0.0679467
-0.00145734
0.0676458
-0.00171792
0.0673319
-0.00197586
0.0669973
-0.00222705
0.0666356
-0.00246662
0.0662453
-0.00268972
0.0658389
-0.00286648
0.0558665
-0.00300819
0.0463629
-0.00313197
0.0385179
-0.00325232
0.0320238
-0.00338749
0.0266409
0.0221657
-0.00354888
0.000106997
0.0133631
0.0004496
0.0374848
0.000889574
0.0566881
0.00118648
0.0684915
0.00124379
0.0733276
0.00113114
0.0739816
0.000952271
0.0731309
0.000762005
0.0721321
0.000572543
0.0713318
0.000382067
0.0707108
0.000188023
0.0702065
-1.0969e-05
0.0697794
-0.000215658
0.0694063
-0.00042663
0.0690715
-0.000644225
0.0687623
-0.000868543
0.0684677
-0.00109935
0.0681775
-0.00133597
0.0678824
-0.00157707
0.0675731
-0.00182064
0.0672409
-0.00206376
0.0668787
-0.00230271
0.0664842
-0.00253238
0.0660686
-0.00271611
0.0560503
-0.00285362
0.0465004
-0.00295172
0.038616
-0.00302037
0.0320924
-0.00307704
0.0266976
-0.00325972
0.0223484
0.000120937
0.0219828
0.000162975
0.0219853
0.000196067
0.0219943
0.000226816
0.0219966
0.000251744
0.0220024
0.000272139
0.022007
0.000289503
0.02201
0.000300547
0.0220163
0.000309582
0.0220183
0.000313593
0.0220233
0.000314534
0.0220264
0.000312944
0.0220289
0.000306905
0.0220334
0.00029926
0.022035
0.000288359
0.0220383
0.000275147
0.0220406
0.000260592
0.0220419
0.000243052
0.0220449
0.000224439
0.022046
0.000204579
0.0220472
0.000183145
0.0220488
0.000161086
0.0220494
0.000138348
0.0220501
0.000115091
0.0220506
9.17132e-05
0.0220507
6.83829e-05
0.0220507
4.54849e-05
0.0220503
2.30169e-05
0.0220498
1.2995e-06
0.0220491
-1.90271e-05
0.0220477
-3.84598e-05
0.0220468
-5.61677e-05
0.0220451
-7.18467e-05
0.022043
-8.62622e-05
0.0220418
-9.73748e-05
0.0220385
-0.000106508
0.0220365
-0.000113355
0.0220342
-0.000116021
0.02203
-0.000116898
0.0220282
-0.000113093
0.0220236
-0.000106122
0.0220204
-9.60187e-05
0.0220173
-8.01052e-05
0.0220114
-6.20216e-05
0.0220093
-3.72091e-05
0.0220025
-8.94259e-06
0.0219991
2.41431e-05
0.0219943
6.35963e-05
0.0219879
0.0219854
0.000105561
0.000175549
0.0219386
0.000217402
0.0219435
0.000250537
0.0219611
0.000281567
0.0219656
0.000307024
0.021977
0.000328193
0.0219858
0.000346563
0.0219916
0.000358842
0.022004
0.000369322
0.0220078
0.000374982
0.0220177
0.000377758
0.0220236
0.000378176
0.0220285
0.000374311
0.0220373
0.000368984
0.0220403
0.000360537
0.0220467
0.000349901
0.0220512
0.000338026
0.0220538
0.000323266
0.0220597
0.00030751
0.0220617
0.000290573
0.0220642
0.000272121
0.0220672
0.000253081
0.0220685
0.000233389
0.0220698
0.000213194
0.0220708
0.000192877
0.022071
0.000172595
0.022071
0.000152725
0.0220701
0.000133244
0.0220693
0.000114465
0.0220679
9.70207e-05
0.0220651
8.03896e-05
0.0220634
6.53957e-05
0.0220601
5.23285e-05
0.0220561
4.04001e-05
0.0220537
3.16515e-05
0.0220472
2.47332e-05
0.0220434
1.99414e-05
0.022039
1.91688e-05
0.0220308
1.9995e-05
0.0220274
2.53146e-05
0.0220182
3.35907e-05
0.0220121
4.47764e-05
0.0220061
6.1548e-05
0.0219947
8.02351e-05
0.0219906
0.000105403
0.0219774
0.000133746
0.0219707
0.000166612
0.0219614
0.000205528
0.021949
0.0219443
0.000246614
0.000202336
0.0218947
0.000244259
0.0219015
0.00027772
0.0219277
0.000309337
0.021934
0.000335639
0.0219507
0.000357902
0.0219635
0.000377604
0.0219719
0.000391444
0.0219902
0.000403699
0.0219956
0.000411338
0.02201
0.000416284
0.0220187
0.000419051
0.0220258
0.000417702
0.0220386
0.000415041
0.022043
0.000409402
0.0220523
0.000401699
0.0220589
0.000392868
0.0220626
0.000381255
0.0220713
0.000368729
0.0220742
0.000355093
0.0220778
0.000340002
0.0220823
0.000324366
0.0220841
0.000308108
0.022086
0.000291368
0.0220875
0.000274506
0.0220879
0.000257668
0.0220878
0.000241222
0.0220866
0.000225125
0.0220854
0.000209677
0.0220833
0.000195503
0.0220793
0.000182061
0.0220769
0.000170165
0.022072
0.000160094
0.0220662
0.000151039
0.0220628
0.000145039
0.0220532
0.000140723
0.0220477
0.000138374
0.0220413
0.000139882
0.0220293
0.000142798
0.0220245
0.000150018
0.022011
0.000159984
0.0220021
0.000172634
0.0219934
0.000190643
0.0219767
0.00021031
0.0219709
0.000236204
0.0219515
0.000264991
0.021942
0.00029801
0.0219284
0.000336771
0.0219102
0.0219037
0.000377354
0.00020364
0.0218503
0.000246131
0.0218591
0.000280397
0.0218934
0.000313081
0.0219013
0.000340713
0.021923
0.000364566
0.0219397
0.000386113
0.0219504
0.000402037
0.0219743
0.000416609
0.021981
0.000426783
0.0219999
0.000434468
0.022011
0.000440166
0.0220201
0.000441925
0.0220368
0.000442537
0.0220424
0.000440321
0.0220546
0.000436176
0.0220631
0.000431023
0.0220678
0.000423196
0.0220791
0.000414549
0.0220829
0.000404867
0.0220875
0.000393795
0.0220934
0.000382224
0.0220957
0.000370064
0.0220982
0.000357442
0.0221002
0.0003447
0.0221007
0.000331971
0.0221005
0.00031961
0.0220989
0.000307557
0.0220975
0.000296099
0.0220948
0.000285849
0.0220896
0.000276244
0.0220865
0.000268092
0.0220801
0.000261654
0.0220726
0.000256104
0.0220683
0.000253477
0.0220558
0.000252382
0.0220488
0.000253088
0.0220406
0.00025748
0.0220249
0.000263086
0.0220189
0.000272801
0.0220013
0.000285046
0.0219899
0.000299748
0.0219787
0.000319578
0.0219568
0.000340808
0.0219497
0.000368012
0.0219243
0.000397827
0.0219121
0.000431583
0.0218946
0.000470779
0.021871
0.021863
0.000511457
0.000178735
0.0218048
0.000222501
0.0218153
0.000258264
0.0218576
0.000292721
0.0218668
0.000322398
0.0218934
0.000348571
0.0219135
0.000372707
0.0219262
0.000391476
0.0219555
0.000409143
0.0219633
0.000422644
0.0219864
0.000433879
0.0219998
0.000443336
0.0220106
0.000449046
0.0220311
0.000453789
0.0220376
0.000455866
0.0220525
0.000456164
0.0220628
0.000455587
0.0220683
0.000452452
0.0220822
0.000448599
0.0220868
0.000443796
0.0220923
0.000437673
0.0220995
0.000431103
0.0221022
0.000423981
0.0221053
0.000416418
0.0221077
0.00040874
0.0221083
0.000401062
0.0221082
0.000393728
0.0221063
0.000386657
0.0221045
0.000380122
0.0221013
0.000374722
0.022095
0.000369876
0.0220913
0.000366379
0.0220836
0.00036448
0.0220745
0.00036333
0.0220695
0.000364963
0.0220542
0.000367963
0.0220458
0.000372588
0.022036
0.000380719
0.0220168
0.000389857
0.0220097
0.000402899
0.0219883
0.000418248
0.0219745
0.000435816
0.0219611
0.000458277
0.0219344
0.000481874
0.0219261
0.000511191
0.021895
0.000542839
0.0218805
0.000578137
0.0218593
0.000618581
0.0218306
0.0218215
0.000660169
0.00012587
0.0217574
0.000171804
0.0217694
0.000210019
0.0218194
0.000247197
0.0218296
0.000279851
0.0218607
0.000309294
0.0218841
0.000337002
0.0218985
0.00035962
0.0219329
0.000381415
0.0219416
0.0003993
0.0219685
0.000415166
0.0219839
0.000429487
0.0219963
0.000440272
0.0220204
0.000450294
0.0220276
0.000457832
0.0220449
0.000463756
0.0220568
0.000468958
0.0220631
0.00047173
0.0220795
0.000473899
0.0220846
0.000475215
0.022091
0.000475289
0.0220995
0.000474976
0.0221025
0.000474152
0.0221061
0.000472912
0.022109
0.000471561
0.0221097
0.000470197
0.0221096
0.000469148
0.0221073
0.000468311
0.0221054
0.000467943
0.0221017
0.000468631
0.0220943
0.000469767
0.0220902
0.000472137
0.0220812
0.000475972
0.0220707
0.000480403
0.022065
0.000487458
0.0220472
0.000495698
0.0220376
0.000505367
0.0220263
0.000518344
0.0220038
0.0005321
0.021996
0.000549538
0.0219708
0.000569037
0.021955
0.0005905
0.0219397
0.000616605
0.0219083
0.000643563
0.0218991
0.000675974
0.0218625
0.000710418
0.0218461
0.000748212
0.0218215
0.000790843
0.021788
0.021778
0.00083426
4.15467e-05
0.0217071
9.10294e-05
0.0217199
0.000133038
0.0217774
0.000174068
0.0217886
0.00021101
0.0218238
0.000245052
0.02185
0.00027764
0.0218659
0.000305411
0.0219051
0.000332668
0.0219143
0.000356304
0.0219449
0.000378201
0.021962
0.000398815
0.0219757
0.000416135
0.022003
0.000432925
0.0220108
0.000447437
0.0220304
0.000460528
0.0220437
0.000473069
0.0220506
0.00048333
0.0220692
0.000493122
0.0220748
0.000502173
0.0220819
0.000510071
0.0220916
0.000517653
0.022095
0.000524772
0.022099
0.000531502
0.0221022
0.000538126
0.0221031
0.000544721
0.022103
0.000551596
0.0221004
0.000558624
0.0220983
0.00056604
0.0220942
0.000574415
0.0220859
0.000583116
0.0220815
0.000592911
0.0220714
0.000604017
0.0220596
0.000615533
0.0220535
0.000629489
0.0220332
0.000644415
0.0220227
0.000660539
0.0220102
0.00067974
0.0219846
0.000699453
0.0219763
0.000722592
0.0219477
0.00074751
0.0219301
0.000774096
0.0219131
0.000805041
0.0218773
0.000836514
0.0218677
0.000873145
0.0218259
0.000911475
0.0218077
0.00095282
0.0217802
0.000998662
0.0217421
0.0217318
0.0010449
-7.67952e-05
0.0216528
-2.34564e-05
0.0216665
2.28923e-05
0.0217311
6.96063e-05
0.0217419
0.000112485
0.0217809
0.000152726
0.0218098
0.000191735
0.0218269
0.000226357
0.0218705
0.00026081
0.0218798
0.000291932
0.0219137
0.000321619
0.0219323
0.000350332
0.021947
0.000376029
0.0219773
0.000401471
0.0219854
0.00042488
0.022007
0.000447095
0.0220215
0.000468969
0.0220287
0.000488739
0.0220494
0.000508202
0.0220553
0.000527059
0.022063
0.000544871
0.0220737
0.000562452
0.0220774
0.000579628
0.0220819
0.000596448
0.0220854
0.000613169
0.0220863
0.000629838
0.0220863
0.000646744
0.0220835
0.000663726
0.0220814
0.000680996
0.022077
0.000699106
0.0220678
0.000717385
0.0220632
0.000736586
0.0220522
0.000756903
0.0220393
0.0007774
0.022033
0.000800109
0.0220105
0.000823519
0.0219992
0.00084784
0.0219859
0.000874955
0.0219575
0.000902253
0.021949
0.000932664
0.0219173
0.00096451
0.0218983
0.000997665
0.0218799
0.00103484
0.0218401
0.00107215
0.0218303
0.00111427
0.0217838
0.00115769
0.0217643
0.00120373
0.0217342
0.00125387
0.021692
0.0216817
0.00130394
-0.000234778
0.0215928
-0.00017507
0.0216068
-0.000122173
0.0216782
-6.95059e-05
0.0216892
-2.0181e-05
0.0217316
2.74193e-05
0.0217622
7.49462e-05
0.0217794
0.000118443
0.021827
0.000162101
0.0218362
0.00020275
0.0218731
0.000242396
0.0218927
0.000281439
0.0219079
0.000317788
0.021941
0.000354219
0.0219489
0.000388921
0.0219723
0.000422713
0.0219877
0.000456425
0.021995
0.000488256
0.0220176
0.000519986
0.0220236
0.00055128
0.0220318
0.000581669
0.0220434
0.000611938
0.0220471
0.000641876
0.0220519
0.000671504
0.0220558
0.000701039
0.0220568
0.000730495
0.0220569
0.000760133
0.0220539
0.000789747
0.0220517
0.000819518
0.0220472
0.000849973
0.0220373
0.000880392
0.0220328
0.000911509
0.0220211
0.000943487
0.0220073
0.000975341
0.0220012
0.00100911
0.0219767
0.00104323
0.0219651
0.00107788
0.0219512
0.00111496
0.0219204
0.0011518
0.0219121
0.00119135
0.0218777
0.00123189
0.0218577
0.00127327
0.0218386
0.00131824
0.0217952
0.00136285
0.0217857
0.00141183
0.0217348
0.00146162
0.0217145
0.00151353
0.0216822
0.00156907
0.0216364
0.0216268
0.00162398
-0.000441634
0.0215258
-0.00037446
0.0215396
-0.000313477
0.0216172
-0.000251673
0.0216274
-0.000192677
0.0216726
-0.000135342
0.0217048
-7.82902e-05
0.0217224
-2.46899e-05
0.0217734
3.00865e-05
0.0217814
8.28064e-05
0.0218204
0.000135037
0.0218404
0.000186985
0.021856
0.000236739
0.0218912
0.000287041
0.0218986
0.000336009
0.0219234
0.000384439
0.0219393
0.000433136
0.0219463
0.000480253
0.0219705
0.000527545
0.0219763
0.000574635
0.0219847
0.000621013
0.021997
0.000667421
0.0220007
0.000713605
0.0220057
0.000759544
0.0220099
0.000805401
0.0220109
0.000851145
0.0220111
0.000897001
0.022008
0.000942699
0.022006
0.000988377
0.0220015
0.00103453
0.0219912
0.00108037
0.0219869
0.0011266
0.0219749
0.00117334
0.0219605
0.00121955
0.021955
0.00126727
0.021929
0.00131485
0.0219175
0.00136247
0.0219036
0.00141202
0.0218708
0.00146074
0.0218634
0.00151162
0.0218268
0.00156291
0.0218065
0.00161442
0.021787
0.00166894
0.0217406
0.00172245
0.0217322
0.00177974
0.0216775
0.00183719
0.0216571
0.00189613
0.0216233
0.00195809
0.0215745
0.0215662
0.0020187
-0.000710077
0.0214504
-0.000633697
0.0214633
-0.000562866
0.0215464
-0.000490558
0.0215551
-0.000420338
0.0216023
-0.000350825
0.0216353
-0.000280497
0.021652
-0.00021297
0.0217059
-0.000144011
0.0217124
-7.695e-05
0.0217533
-9.71755e-06
0.0217732
5.84497e-05
0.0217878
0.000124988
0.0218247
0.000192641
0.021831
0.000259527
0.0218565
0.000326421
0.0218724
0.000394088
0.0218787
0.0004606
0.021904
0.000527679
0.0219092
0.000594887
0.0219175
0.00066166
0.0219302
0.000728681
0.0219337
0.000795634
0.0219388
0.00086244
0.0219431
0.000929191
0.0219442
0.000995789
0.0219445
0.00106241
0.0219414
0.00112869
0.0219398
0.0011947
0.0219355
0.00126091
0.021925
0.00132641
0.0219214
0.00139187
0.0219094
0.00145737
0.021895
0.00152174
0.0218906
0.00158705
0.0218637
0.00165157
0.021853
0.0017154
0.0218398
0.00178045
0.0218058
0.00184387
0.0218
0.0019087
0.021762
0.00197309
0.0217421
0.00203685
0.0217233
0.00210284
0.0216747
0.0021669
0.0216682
0.00223396
0.0216105
0.00230031
0.0215907
0.0023673
0.0215563
0.0024365
0.0215053
0.0214993
0.00250344
-0.0010579
0.0213655
-0.000970909
0.0213763
-0.000888517
0.021464
-0.00080355
0.0214702
-0.000719697
0.0215185
-0.000635603
0.0215512
-0.000549755
0.0215662
-0.000465748
0.0216219
-0.000379085
0.0216258
-0.000293171
0.0216674
-0.000206156
0.0216862
-0.000117887
0.0216995
-3.04411e-05
0.0217372
5.89754e-05
0.0217416
0.000148345
0.0217671
0.000238655
0.0217821
0.000330405
0.0217869
0.000421616
0.0218128
0.00051397
0.0218169
0.000606939
0.0218245
0.000699878
0.0218373
0.000793389
0.0218402
0.000887068
0.0218451
0.000980759
0.0218494
0.00107445
0.0218505
0.00116794
0.021851
0.00126134
0.021848
0.00135416
0.0218469
0.00144638
0.0218433
0.00153838
0.021833
0.00162913
0.0218307
0.00171923
0.0218193
0.00180867
0.0218056
0.00189615
0.0218031
0.00198375
0.0217761
0.00206957
0.0217672
0.00215369
0.0217557
0.00223802
0.0217215
0.00231954
0.0217185
0.00240138
0.0216802
0.00248159
0.0216619
0.00255996
0.0216449
0.00263942
0.0215952
0.00271569
0.0215919
0.00279386
0.0215323
0.00287011
0.0215145
0.00294586
0.0214805
0.00302271
0.0214284
0.0214259
0.00309609
-0.00150934
0.0212705
-0.00141064
0.0212776
-0.00131523
0.0213686
-0.00121576
0.0213707
-0.00111602
0.0214188
-0.00101463
0.0214498
-0.000910016
0.0214616
-0.000805924
0.0215178
-0.000697778
0.0215176
-0.000589106
0.0215587
-0.000477965
0.0215751
-0.000364024
0.0215856
-0.000249689
0.0216229
-0.000132161
0.021624
-1.35934e-05
0.0216485
0.000106253
0.0216623
0.000228609
0.0216645
0.000351445
0.0216899
0.000476254
0.0216921
0.000602397
0.0216983
0.000729116
0.0217105
0.000856898
0.0217124
0.000985221
0.0217168
0.00111382
0.0217208
0.00124253
0.0217218
0.00137102
0.0217225
0.00149928
0.0217198
0.00162664
0.0217196
0.00175295
0.021717
0.00187846
0.0217074
0.00200194
0.0217072
0.00212389
0.0216974
0.00224416
0.0216853
0.00236126
0.021686
0.00247726
0.0216601
0.00259006
0.0216544
0.00269964
0.0216461
0.00280793
0.0216132
0.00291171
0.0216147
0.00301418
0.0215777
0.00311328
0.0215628
0.00320879
0.0215494
0.00330374
0.0215003
0.00339369
0.0215019
0.00348397
0.021442
0.00357064
0.0214278
0.00365523
0.021396
0.00373943
0.0213442
0.0213468
0.00381855
-0.00209823
0.0211663
-0.00198808
0.0211674
-0.00187931
0.0212598
-0.0017642
0.0212556
-0.00164669
0.0213012
-0.00152529
0.0213284
-0.00139836
0.0213346
-0.00126983
0.0213892
-0.00113499
0.0213828
-0.000997627
0.0214213
-0.00085586
0.0214333
-0.000709517
0.0214392
-0.00056118
0.0214746
-0.000408095
0.021471
-0.000252554
0.021493
-9.37533e-05
0.0215035
6.83982e-05
0.0215024
0.000231704
0.0215266
0.000398489
0.0215253
0.000567599
0.0215292
0.000738202
0.0215399
0.00091064
0.02154
0.00108424
0.0215432
0.00125857
0.0215464
0.00143328
0.0215471
0.00160783
0.021548
0.00178203
0.0215456
0.00195494
0.0215467
0.00212618
0.0215457
0.00229583
0.0215378
0.00246233
0.0215407
0.00262603
0.0215337
0.00278654
0.0215248
0.0029421
0.0215304
0.00309472
0.0215075
0.00324202
0.0215071
0.00338383
0.0215043
0.00352207
0.0214749
0.00365323
0.0214835
0.00378064
0.0214503
0.00390207
0.0214413
0.00401725
0.0214342
0.0041294
0.0213881
0.0042339
0.0213975
0.0043364
0.0213395
0.00443286
0.0213313
0.004525
0.0213038
0.00461473
0.0212545
0.0212643
0.00469723
-0.00287059
0.0210563
-0.00275104
0.0210479
-0.00263017
0.0211389
-0.00249965
0.021125
-0.00236326
0.0211649
-0.00221917
0.0211843
-0.00206561
0.0211811
-0.00190683
0.0212305
-0.0017382
0.0212142
-0.00156399
0.0212471
-0.00138257
0.0212519
-0.00119408
0.0212508
-0.00100142
0.0212819
-0.000801943
0.0212715
-0.000598198
0.0212892
-0.000389662
0.0212949
-0.000175697
0.0212884
4.11365e-05
0.0213098
0.000261559
0.0213049
0.000486468
0.0213043
0.000714277
0.0213121
0.000945221
0.021309
0.00117845
0.0213099
0.00141335
0.0213115
0.00164923
0.0213112
0.00188527
0.0213119
0.002121
0.0213098
0.00235501
0.0213127
0.00258658
0.0213142
0.00281547
0.0213089
0.00303959
0.0213166
0.00325899
0.0213143
0.00347296
0.0213109
0.00367923
0.0213242
0.00387977
0.0213069
0.00407174
0.0213151
0.00425472
0.0213213
0.00443065
0.021299
0.0045956
0.0213186
0.00475303
0.0212929
0.0049005
0.0212939
0.00503768
0.021297
0.00516805
0.0212577
0.00528674
0.0212788
0.00539994
0.0212263
0.00550356
0.0212277
0.00559969
0.0212077
0.0056906
0.0211636
0.0211835
0.00577135
-0.00322627
0.0209709
-0.00312994
0.0209515
-0.00302771
0.0210367
-0.00290989
0.0210072
-0.00277938
0.0210344
-0.00263508
0.02104
-0.00247658
0.0210226
-0.00230886
0.0210627
-0.00212902
0.0210343
-0.00194174
0.0210599
-0.0017463
0.0210564
-0.00154327
0.0210477
-0.00133543
0.0210741
-0.0011206
0.0210567
-0.000900946
0.0210696
-0.000675944
0.0210699
-0.000445063
0.0210575
-0.000210012
0.0210747
3.08467e-05
0.021064
0.000275205
0.02106
0.000524295
0.021063
0.000777929
0.0210554
0.00103523
0.0210527
0.00129547
0.0210513
0.00155773
0.021049
0.00182094
0.0210487
0.0020843
0.0210465
0.00234604
0.0210509
0.00260503
0.0210552
0.0028606
0.0210533
0.00311032
0.0210669
0.0033538
0.0210708
0.00358998
0.0210747
0.00381637
0.0210978
0.00403452
0.0210888
0.00424153
0.0211081
0.00443683
0.021126
0.00462208
0.0211137
0.00479352
0.0211472
0.0049543
0.0211321
0.00510208
0.0211461
0.00523652
0.0211626
0.00536071
0.0211335
0.00547018
0.0211693
0.00557054
0.021126
0.00565823
0.02114
0.00573547
0.0211304
0.00580497
0.0210941
0.0211254
0.00586304
-0.00344293
0.0209076
-0.00337907
0.0208877
-0.0033058
0.0209634
-0.00320605
0.0209075
-0.00308181
0.0209101
-0.00293498
0.0208932
-0.00276881
0.0208564
-0.00259076
0.0208847
-0.00240046
0.020844
-0.00220332
0.0208627
-0.00199938
0.0208525