/*--------------------------------*- C++ -*----------------------------------*\
| =========                 |                                                 |
| \\      /  F ield         | OpenFOAM: The Open Source CFD Toolbox           |
|  \\    /   O peration     | Version:  2312                                  |
|   \\  /    A nd           | Website:  www.openfoam.com                      |
|    \\/     M anipulation  |                                                 |
\*---------------------------------------------------------------------------*/
FoamFile
{
    version     2.0;
    format      ascii;
    arch        "LSB;label=32;scalar=64";
    class       volVectorField;
    location    "7.597054463007002";
    object      U;
}
// * * * * * * * * * * * * * * * * * * * * * * * * * * * * * * * * * * * * * //

dimensions      [0 1 -1 0 0 0 0];

internalField   nonuniform List<vector> 
21039
(
(0.913858 0.047548 0)
(1.02601 0.0665152 0)
(1.00449 0.0293917 0)
(1.00177 0.0188704 0)
(1.00121 0.0138529 0)
(1.0008 0.0104645 0)
(1.00055 0.00813445 0)
(1.0004 0.00648876 0)
(1.0003 0.00527575 0)
(1.00023 0.0043516 0)
(1.00018 0.00363078 0)
(1.00015 0.00305819 0)
(1.00012 0.00259676 0)
(1.0001 0.00222082 0)
(1.00008 0.00191218 0)
(1.00006 0.00165761 0)
(1.00005 0.00144735 0)
(1.00004 0.00127398 0)
(1.00003 0.00113177 0)
(1.00002 0.00101604 0)
(1.00002 0.000922824 0)
(1.00001 0.000850041 0)
(1.00001 0.000799619 0)
(1.00001 0.000752683 0)
(1.00001 0.000715395 0)
(1.00001 0.000684778 0)
(1.00002 0.000656695 0)
(1.00002 0.000620556 0)
(1.00002 0.000552436 0)
(0.794843 0.073136 0)
(1.07444 0.121607 0)
(1.03987 0.0706057 0)
(1.01814 0.0495743 0)
(1.01131 0.0381192 0)
(1.00765 0.0293087 0)
(1.0054 0.0229928 0)
(1.00397 0.0183971 0)
(1.00301 0.0149217 0)
(1.00234 0.0122257 0)
(1.00186 0.0100924 0)
(1.0015 0.00837458 0)
(1.00122 0.00697144 0)
(1.00101 0.0058123 0)
(1.00083 0.00484667 0)
(1.00069 0.00403779 0)
(1.00057 0.00335846 0)
(1.00047 0.00278826 0)
(1.00039 0.00231162 0)
(1.00032 0.00191638 0)
(1.00025 0.00159241 0)
(1.0002 0.00133315 0)
(1.00015 0.00114313 0)
(1.00013 0.000992851 0)
(1.00012 0.00089141 0)
(1.00012 0.000820948 0)
(1.00013 0.000767594 0)
(1.00014 0.000711411 0)
(1.00015 0.000619109 0)
(0.667717 0.0572777 0)
(1.08307 0.124633 0)
(1.08435 0.0899613 0)
(1.04635 0.0674188 0)
(1.02912 0.0538437 0)
(1.0203 0.0428406 0)
(1.01474 0.0345037 0)
(1.01104 0.0280886 0)
(1.00849 0.0230254 0)
(1.00667 0.0189827 0)
(1.00534 0.0157144 0)
(1.00434 0.0130376 0)
(1.00357 0.0108207 0)
(1.00296 0.00896797 0)
(1.00247 0.00740899 0)
(1.00207 0.00609143 0)
(1.00174 0.00497606 0)
(1.00146 0.00403317 0)
(1.00121 0.00324009 0)
(1.00099 0.00257932 0)
(1.0008 0.00203652 0)
(1.00064 0.00160109 0)
(1.00049 0.00127943 0)
(1.0004 0.00103851 0)
(1.00034 0.000883933 0)
(1.00032 0.000781109 0)
(1.00032 0.000706612 0)
(1.00034 0.000634985 0)
(1.00035 0.000529221 0)
(0.541558 0.035232 0)
(1.05102 0.110604 0)
(1.11597 0.0966022 0)
(1.07619 0.0758918 0)
(1.04934 0.0616707 0)
(1.03537 0.0505126 0)
(1.02652 0.041796 0)
(1.02035 0.0347231 0)
(1.01593 0.0288949 0)
(1.0127 0.0240856 0)
(1.01028 0.0200898 0)
(1.00843 0.0167429 0)
(1.00699 0.0139202 0)
(1.00585 0.0115257 0)
(1.00492 0.00948578 0)
(1.00415 0.00774389 0)
(1.0035 0.00625658 0)
(1.00295 0.00499037 0)
(1.00246 0.00391946 0)
(1.00203 0.00302393 0)
(1.00165 0.00228768 0)
(1.00131 0.0016976 0)
(1.001 0.00126155 0)
(1.00078 0.000945128 0)
(1.00065 0.000747454 0)
(1.00058 0.000618644 0)
(1.00056 0.000527636 0)
(1.00057 0.000445085 0)
(1.00059 0.000329382 0)
(0.444947 0.018625 0)
(0.998317 0.0916116 0)
(1.1292 0.09515 0)
(1.10155 0.0789357 0)
(1.06839 0.0648353 0)
(1.04993 0.054104 0)
(1.03842 0.0456642 0)
(1.03021 0.0385724 0)
(1.02412 0.0325439 0)
(1.01954 0.0274279 0)
(1.01603 0.0230647 0)
(1.0133 0.0193256 0)
(1.01114 0.0161098 0)
(1.00939 0.0133362 0)
(1.00795 0.0109398 0)
(1.00675 0.00886914 0)
(1.00573 0.00708353 0)
(1.00484 0.00555114 0)
(1.00406 0.00424704 0)
(1.00336 0.00315196 0)
(1.00273 0.00225052 0)
(1.00215 0.00152905 0)
(1.00164 0.000997154 0)
(1.00125 0.000620837 0)
(1.00101 0.000391539 0)
(1.00087 0.000244699 0)
(1.00083 0.000140382 0)
(1.00083 6.11214e-05 0)
(1.00083 -4.82239e-05 0)
(0.379643 0.00805036 0)
(0.940681 0.0715423 0)
(1.12738 0.0876869 0)
(1.121 0.0779181 0)
(1.08571 0.0651106 0)
(1.06329 0.0550678 0)
(1.04953 0.0471357 0)
(1.03971 0.0403182 0)
(1.03229 0.0343872 0)
(1.02658 0.0292362 0)
(1.02211 0.0247436 0)
(1.01856 0.0208146 0)
(1.0157 0.0173733 0)
(1.01335 0.0143565 0)
(1.0114 0.0117126 0)
(1.00974 0.00939974 0)
(1.00831 0.00738426 0)
(1.00705 0.00563954 0)
(1.00594 0.00414464 0)
(1.00492 0.00288346 0)
(1.004 0.00184351 0)
(1.00314 0.00101279 0)
(1.00237 0.000402412 0)
(1.00178 -1.90356e-05 0)
(1.0014 -0.000266788 0)
(1.00119 -0.000418053 0)
(1.0011 -0.000519352 0)
(1.00108 -0.000603989 0)
(1.00107 -0.000729023 0)
(0.334686 0.00227057 0)
(0.884884 0.0534875 0)
(1.11477 0.077113 0)
(1.13416 0.0738968 0)
(1.10116 0.0632764 0)
(1.07564 0.0541426 0)
(1.0598 0.0468502 0)
(1.04867 0.0404811 0)
(1.04019 0.0348196 0)
(1.03354 0.0297922 0)
(1.02826 0.0253169 0)
(1.02399 0.0213303 0)
(1.02049 0.0177794 0)
(1.01758 0.0146186 0)
(1.01512 0.0118102 0)
(1.01301 0.0093234 0)
(1.01116 0.0071334 0)
(1.00952 0.00522056 0)
(1.00804 0.00356983 0)
(1.00669 0.00217008 0)
(1.00543 0.00101351 0)
(1.00426 9.02015e-05 0)
(1.00318 -0.000582483 0)
(1.00236 -0.00103503 0)
(1.00181 -0.00129268 0)
(1.0015 -0.00144055 0)
(1.00135 -0.00152991 0)
(1.00131 -0.00160586 0)
(1.00127 -0.00173588 0)
(0.302683 -0.000264013 0)
(0.833756 0.0391609 0)
(1.09503 0.0660638 0)
(1.14105 0.0682263 0)
(1.11422 0.0601005 0)
(1.08693 0.0519539 0)
(1.06928 0.0453084 0)
(1.05705 0.0394511 0)
(1.04771 0.034146 0)
(1.04031 0.0293332 0)
(1.03434 0.0249644 0)
(1.02946 0.0210038 0)
(1.0254 0.0174189 0)
(1.02198 0.0141807 0)
(1.01905 0.0112651 0)
(1.0165 0.00865236 0)
(1.01424 0.00632683 0)
(1.0122 0.0042768 0)
(1.01034 0.00249402 0)
(1.00862 0.000973628 0)
(1.007 -0.000286852 0)
(1.00547 -0.0012932 0)
(1.00406 -0.00202069 0)
(1.00296 -0.00249774 0)
(1.00222 -0.00275851 0)
(1.00178 -0.00289623 0)
(1.00157 -0.00296687 0)
(1.00148 -0.00302256 0)
(1.00139 -0.00314528 0)
(0.280053 -0.00106204 0)
(0.788814 0.0285967 0)
(1.07145 0.0558975 0)
(1.14252 0.0619468 0)
(1.12464 0.056255 0)
(1.09707 0.0490793 0)
(1.07797 0.0429884 0)
(1.06482 0.0375971 0)
(1.05481 0.0326501 0)
(1.04681 0.0280793 0)
(1.04029 0.0238566 0)
(1.03489 0.0199652 0)
(1.03035 0.0163885 0)
(1.02648 0.0131116 0)
(1.02311 0.0101225 0)
(1.02015 0.00741166 0)
(1.01749 0.00497239 0)
(1.01506 0.00280094 0)
(1.01282 0.000896618 0)
(1.01071 -0.000740311 0)
(1.0087 -0.00210536 0)
(1.00679 -0.00319605 0)
(1.005 -0.00398182 0)
(1.00358 -0.00448691 0)
(1.00261 -0.00475078 0)
(1.00203 -0.004876 0)
(1.00172 -0.004924 0)
(1.00156 -0.00495351 0)
(1.00141 -0.0050631 0)
(0.264012 -0.00110804 0)
(0.750453 0.021086 0)
(1.04659 0.0470286 0)
(1.1399 0.0556197 0)
(1.13256 0.0521255 0)
(1.10611 0.0458858 0)
(1.08595 0.040246 0)
(1.07201 0.0352279 0)
(1.06148 0.0305871 0)
(1.05303 0.0262379 0)
(1.04607 0.0221592 0)
(1.04025 0.018345 0)
(1.03531 0.0147892 0)
(1.03104 0.0114873 0)
(1.02729 0.00843671 0)
(1.02394 0.00563645 0)
(1.0209 0.00308789 0)
(1.01809 0.000794874 0)
(1.01546 -0.00123801 0)
(1.01296 -0.00300309 0)
(1.01055 -0.00448708 0)
(1.00822 -0.00567938 0)
(1.00601 -0.00654201 0)
(1.00423 -0.00709215 0)
(1.003 -0.00737124 0)
(1.00223 -0.00749112 0)
(1.00179 -0.00751894 0)
(1.00153 -0.00752129 0)
(1.00129 -0.00761557 0)
(0.252245 -0.00088976 0)
(0.718188 0.0158398 0)
(1.02207 0.0394763 0)
(1.13445 0.049526 0)
(1.13832 0.0478964 0)
(1.11418 0.0425473 0)
(1.09338 0.0372845 0)
(1.07876 0.0325495 0)
(1.06779 0.0281478 0)
(1.05899 0.0239772 0)
(1.0517 0.0200159 0)
(1.04554 0.0162627 0)
(1.04026 0.012718 0)
(1.03565 0.00938399 0)
(1.03157 0.00626466 0)
(1.02787 0.00336588 0)
(1.02448 0.000695376 0)
(1.02131 -0.00173842 0)
(1.0183 -0.00392375 0)
(1.0154 -0.00584411 0)
(1.01257 -0.00747923 0)
(1.0098 -0.00880975 0)
(1.00713 -0.00978814 0)
(1.00495 -0.0104202 0)
(1.00342 -0.0107444 0)
(1.00242 -0.0108806 0)
(1.00181 -0.010902 0)
(1.0014 -0.0108847 0)
(1.00103 -0.0109669 0)
(0.243239 -0.000631565 0)
(0.691198 0.0121725 0)
(0.99883 0.0331148 0)
(1.12715 0.043807 0)
(1.14227 0.04367 0)
(1.12138 0.0391466 0)
(1.10038 0.0342125 0)
(1.08518 0.0296874 0)
(1.07385 0.0254593 0)
(1.06476 0.0214183 0)
(1.05721 0.0175374 0)
(1.05079 0.0138161 0)
(1.04524 0.0102581 0)
(1.04036 0.00686944 0)
(1.03598 0.00365877 0)
(1.03198 0.000636226 0)
(1.02827 -0.00218728 0)
(1.02476 -0.00479745 0)
(1.02139 -0.00717494 0)
(1.0181 -0.0092966 0)
(1.01484 -0.0111354 0)
(1.01159 -0.0126635 0)
(1.00844 -0.0138228 0)
(1.00582 -0.0146019 0)
(1.00393 -0.0150267 0)
(1.00266 -0.0152229 0)
(1.00181 -0.0152693 0)
(1.0012 -0.0152537 0)
(1.00063 -0.0153363 0)
(0.236126 -0.00042497 0)
(0.668672 0.00954673 0)
(0.977352 0.0277619 0)
(1.11877 0.0385164 0)
(1.14472 0.0395112 0)
(1.12778 0.0357323 0)
(1.10702 0.0310941 0)
(1.09138 0.0267216 0)
(1.07972 0.0226086 0)
(1.07041 0.0186483 0)
(1.06266 0.014807 0)
(1.05604 0.0110819 0)
(1.05028 0.00747719 0)
(1.04518 0.00400111 0)
(1.04056 0.000664002 0)
(1.03631 -0.00252278 0)
(1.03232 -0.00554432 0)
(1.02851 -0.00838059 0)
(1.02479 -0.0110071 0)
(1.02111 -0.013395 0)
(1.01743 -0.0155116 0)
(1.01371 -0.0173222 0)
(1.01005 -0.0187591 0)
(1.00697 -0.0197871 0)
(1.00468 -0.0204058 0)
(1.00306 -0.02074 0)
(1.00192 -0.0208725 0)
(1.00103 -0.0209036 0)
(1.00018 -0.0210154 0)
(0.230405 -0.000288944 0)
(0.649902 0.00758822 0)
(0.957873 0.023231 0)
(1.10989 0.0336504 0)
(1.14599 0.0354561 0)
(1.13347 0.0323336 0)
(1.11338 0.0279686 0)
(1.09743 0.0237072 0)
(1.08549 0.0196595 0)
(1.07602 0.0157343 0)
(1.06812 0.0118913 0)
(1.06137 0.00812343 0)
(1.05546 0.00443356 0)
(1.05019 0.000829065 0)
(1.0454 -0.00268078 0)
(1.04095 -0.00608308 0)
(1.03673 -0.00935949 0)
(1.03265 -0.0124865 0)
(1.02863 -0.0154359 0)
(1.02459 -0.0181743 0)
(1.02049 -0.0206646 0)
(1.01631 -0.022868 0)
(1.01215 -0.0247113 0)
(1.00858 -0.026133 0)
(1.00587 -0.0270885 0)
(1.00386 -0.02769 0)
(1.00232 -0.028017 0)
(1.00104 -0.0281808 0)
(0.999815 -0.0283812 0)
(0.225754 -0.000212873 0)
(0.634301 0.00606513 0)
(0.940471 0.0193856 0)
(1.10093 0.0292065 0)
(1.14632 0.0315372 0)
(1.13846 0.0289679 0)
(1.11942 0.024853 0)
(1.10333 0.020673 0)
(1.09118 0.0166511 0)
(1.08157 0.0127207 0)
(1.07359 0.00883727 0)
(1.06675 0.00498818 0)
(1.06075 0.00117257 0)
(1.05538 -0.00260567 0)
(1.05047 -0.00633824 0)
(1.04588 -0.0100116 0)
(1.04149 -0.0136062 0)
(1.0372 -0.0170967 0)
(1.03291 -0.0204521 0)
(1.02856 -0.0236353 0)
(1.02409 -0.0266059 0)
(1.01948 -0.029324 0)
(1.01486 -0.03172 0)
(1.01088 -0.0337183 0)
(1.0078 -0.0352204 0)
(1.00541 -0.0363093 0)
(1.00343 -0.0370385 0)
(1.00164 -0.0375091 0)
(0.999902 -0.0379129 0)
(0.22228 -0.000157643 0)
(0.622315 0.00493638 0)
(0.926261 0.016328 0)
(1.09294 0.0254464 0)
(1.1461 0.0280667 0)
(1.14263 0.0259286 0)
(1.12483 0.0220285 0)
(1.10876 0.0179091 0)
(1.09648 0.0138881 0)
(1.0868 0.00992623 0)
(1.07879 0.00597595 0)
(1.07193 0.00201929 0)
(1.06592 -0.00195169 0)
(1.06053 -0.00593733 0)
(1.05558 -0.00993049 0)
(1.05094 -0.0139205 0)
(1.04646 -0.0178895 0)
(1.04204 -0.0218128 0)
(1.03758 -0.0256578 0)
(1.03299 -0.029383 0)
(1.02821 -0.0329415 0)
(1.02325 -0.0362881 0)
(1.01826 -0.0393517 0)
(1.014 -0.042051 0)
(1.01071 -0.0442606 0)
(1.00806 -0.0460579 0)
(1.00569 -0.0474576 0)
(1.00333 -0.0484983 0)
(1.00087 -0.0492951 0)
(0.219859 -0.000116621 0)
(0.613855 0.00414596 0)
(0.915705 0.0140703 0)
(1.08658 0.022536 0)
(1.14563 0.0252926 0)
(1.14583 0.0234651 0)
(1.12923 0.0197332 0)
(1.11329 0.0156593 0)
(1.10094 0.0116318 0)
(1.09125 0.00763401 0)
(1.08326 0.00361529 0)
(1.07644 -0.000449581 0)
(1.07047 -0.00457348 0)
(1.06512 -0.00876143 0)
(1.06021 -0.0130115 0)
(1.05559 -0.0173176 0)
(1.05111 -0.0216669 0)
(1.04666 -0.026039 0)
(1.04212 -0.0304033 0)
(1.03741 -0.0347167 0)
(1.03244 -0.0389253 0)
(1.02723 -0.0429715 0)
(1.02198 -0.0467587 0)
(1.01758 -0.0501672 0)
(1.01428 -0.053066 0)
(1.01168 -0.0556146 0)
(1.00929 -0.0579121 0)
(1.00671 -0.0599841 0)
(1.00385 -0.0616354 0)
(0.218066 -5.85908e-05 0)
(0.607594 0.00358951 0)
(0.907583 0.0123828 0)
(1.0814 0.0202699 0)
(1.14503 0.0230772 0)
(1.1483 0.0214814 0)
(1.13283 0.0178923 0)
(1.11706 0.0138661 0)
(1.10469 0.00984069 0)
(1.09501 0.00581655 0)
(1.08706 0.00174072 0)
(1.08031 -0.00241754 0)
(1.07442 -0.00667566 0)
(1.06915 -0.0110439 0)
(1.06432 -0.0155266 0)
(1.05977 -0.0201247 0)
(1.05535 -0.024833 0)
(1.05094 -0.029639 0)
(1.04642 -0.0345191 0)
(1.04167 -0.0394343 0)
(1.03661 -0.0443288 0)
(1.03124 -0.0491352 0)
(1.02579 -0.0537131 0)
(1.02125 -0.0578164 0)
(1.01794 -0.0612189 0)
(1.01557 -0.0641546 0)
(1.0137 -0.0669862 0)
(1.01203 -0.0701041 0)
(1.00991 -0.0729095 0)
(0.217086 -5.80064e-05 0)
(0.603592 0.00315018 0)
(0.902073 0.01114 0)
(1.07779 0.0185985 0)
(1.14467 0.0214078 0)
(1.15022 0.019936 0)
(1.13566 0.0164259 0)
(1.12009 0.0124354 0)
(1.10775 0.00842198 0)
(1.09811 0.00438495 0)
(1.09024 0.000266294 0)
(1.08358 -0.00396836 0)
(1.07779 -0.00834002 0)
(1.07264 -0.0128639 0)
(1.06793 -0.0175515 0)
(1.0635 -0.0224121 0)
(1.05921 -0.0274505 0)
(1.05492 -0.0326652 0)
(1.05051 -0.0380444 0)
(1.04585 -0.0435612 0)
(1.04085 -0.0491704 0)
(1.03552 -0.0548189 0)
(1.0301 -0.0603583 0)
(1.02561 -0.0653813 0)
(1.02238 -0.0694157 0)
(1.02016 -0.072452 0)
(1.01866 -0.0744917 0)
(1.01784 -0.0763108 0)
(1.01881 -0.0818926 0)
(1.00002 0.000556698 0)
(1.00002 0.000553128 0)
(1.00002 0.000544188 0)
(1.00002 0.000536116 9.70362e-22)
(1.00002 0.000530014 4.8409e-21)
(1.00001 0.000525694 -8.71172e-21)
(1.00001 0.000523005 4.83875e-21)
(1.00001 0.000521809 -3.85683e-21)
(1.00001 0.000521974 4.91933e-22)
(1.00001 0.000523508 3.85597e-21)
(1.00001 0.000526246 0)
(1.00001 0.000530189 -4.31471e-21)
(1 0.000535206 4.89082e-22)
(1 0.000541185 3.83202e-21)
(1 0.00054811 0)
(1 0.000555812 0)
(1 0.000564275 -3.80126e-21)
(0.999999 0.000573345 3.80367e-21)
(0.999997 0.000582872 0)
(0.999996 0.00059288 -1.88874e-21)
(0.999995 0.000603167 2.00752e-21)
(0.999994 0.000613633 1.76227e-21)
(0.999993 0.000624241 -2.81819e-21)
(0.999993 0.000634799 9.08591e-22)
(0.999992 0.00064523 2.91484e-23)
(0.999991 0.000655484 -5.82661e-23)
(0.999991 0.000665421 8.11366e-22)
(0.99999 0.000674881 -9.27345e-22)
(0.99999 0.000683786 0)
(0.99999 0.000692108 0)
(0.999989 0.000699822 -2.29232e-22)
(0.999989 0.000706836 -2.28421e-22)
(0.999989 0.000713025 -3.86309e-21)
(0.999989 0.000718386 3.17934e-21)
(0.99999 0.000722786 -4.06023e-21)
(0.99999 0.000726176 4.05535e-21)
(0.99999 0.000728553 -3.13225e-21)
(0.999991 0.000729783 3.13062e-21)
(0.999992 0.000729886 4.44692e-22)
(0.999992 0.000728773 4.42891e-22)
(0.999993 0.000726426 -4.41062e-22)
(0.999994 0.000722849 0)
(0.999996 0.000717949 0)
(0.999997 0.000711794 0)
(0.999998 0.000704319 0)
(0.999999 0.000695647 0)
(1 0.000685839 1.7181e-21)
(1 0.000674132 -1.71551e-21)
(1 0.000655851 0)
(1.00015 0.000611298 0)
(1.00013 0.00059657 1.95712e-21)
(1.00012 0.00057841 -1.95124e-21)
(1.0001 0.000564048 -9.7386e-22)
(1.00009 0.000554643 -9.74392e-22)
(1.00007 0.000549564 -2.91439e-21)
(1.00006 0.000548599 4.86495e-21)
(1.00005 0.000551675 0)
(1.00003 0.000558312 -4.84489e-22)
(1.00002 0.000568663 -9.68052e-22)
(1.00001 0.000582234 0)
(0.999998 0.000598979 4.82225e-22)
(0.999987 0.00061869 -4.32807e-21)
(0.999977 0.000640936 3.8501e-21)
(0.999967 0.000665748 0)
(0.999958 0.000692682 9.5838e-22)
(0.99995 0.000721604 0)
(0.999942 0.00075231 0)
(0.999935 0.000784315 0)
(0.999929 0.000817628 -1.89716e-21)
(0.999923 0.000851895 1.77944e-21)
(0.999918 0.000886776 -1.18359e-22)
(0.999914 0.000922172 0)
(0.999911 0.000957718 -4.40263e-22)
(0.999908 0.000993149 4.62377e-22)
(0.999907 0.00102832 8.77323e-23)
(0.999906 0.00106289 1.16577e-22)
(0.999905 0.00109661 0)
(0.999906 0.00112937 -1.85166e-21)
(0.999907 0.00116075 1.85114e-21)
(0.999909 0.00119057 -3.44848e-21)
(0.999911 0.00121875 7.57204e-21)
(0.999915 0.00124502 -3.43508e-21)
(0.999919 0.00126927 4.55521e-22)
(0.999923 0.00129118 4.53858e-22)
(0.999929 0.00131064 4.52439e-22)
(0.999935 0.0013275 -4.50387e-22)
(0.999942 0.00134145 4.03283e-21)
(0.99995 0.0013525 -3.13354e-21)
(0.999958 0.00136032 -1.33542e-21)
(0.999967 0.00136486 4.87127e-21)
(0.999976 0.00136599 -3.53737e-21)
(0.999987 0.00136341 -1.75874e-21)
(0.999997 0.00135722 3.49801e-21)
(1.00001 0.00134705 -6.97835e-21)
(1.00002 0.00133325 3.47945e-21)
(1.00003 0.00131514 1.72735e-21)
(1.00004 0.00129188 -3.19754e-24)
(1.00006 0.00125843 0)
(1.00033 0.000502468 2.94421e-21)
(1.00029 0.000476493 -9.8335e-22)
(1.00025 0.000452907 -3.91766e-21)
(1.00021 0.000436017 1.95405e-21)
(1.00017 0.000426919 -1.95345e-21)
(1.00013 0.000424725 0)
(1.00009 0.000429221 -1.94564e-21)
(1.00006 0.000440467 -5.8269e-21)
(1.00002 0.000457435 5.82875e-21)
(0.999989 0.000480571 9.68193e-22)
(0.999957 0.000508943 0)
(0.999928 0.000542477 -5.79143e-21)
(0.9999 0.000580987 9.61879e-24)
(0.999873 0.00062356 3.85393e-21)
(0.999849 0.00067041 0)
(0.999827 0.000720742 -9.57958e-22)
(0.999806 0.000774281 -9.5792e-22)
(0.999788 0.000830913 0)
(0.999771 0.000889632 -9.53786e-22)
(0.999757 0.000950508 -1.89841e-21)
(0.999744 0.00101309 1.89901e-21)
(0.999734 0.00107667 -2.37192e-22)
(0.999726 0.00114117 -2.36152e-22)
(0.99972 0.00120605 0)
(0.999716 0.00127079 3.66121e-23)
(0.999714 0.00133518 -2.04839e-22)
(0.999714 0.00139875 0)
(0.999716 0.00146101 0)
(0.999721 0.00152173 -1.85194e-21)
(0.999727 0.00158046 1.8516e-21)
(0.999735 0.0016368 -3.67966e-21)
(0.999745 0.00169045 3.6784e-21)
(0.999757 0.00174097 0)
(0.999771 0.00178814 0)
(0.999787 0.00183155 0)
(0.999805 0.00187096 -9.04506e-22)
(0.999824 0.00190607 -1.803e-21)
(0.999845 0.00193647 0)
(0.999868 0.00196208 -8.94038e-22)
(0.999893 0.00198234 -8.84987e-22)
(0.999919 0.0019972 2.66658e-21)
(0.999947 0.00200635 0)
(0.999977 0.00200947 3.51487e-21)
(1.00001 0.00200635 -5.26142e-21)
(1.00004 0.00199601 0)
(1.00007 0.00197919 0)
(1.00011 0.00195527 0)
(1.00015 0.00192322 -1.72319e-21)
(1.00019 0.00187845 -1.71341e-21)
(1.00055 0.00028569 -1.96709e-21)
(1.00048 0.000252378 3.93591e-21)
(1.0004 0.00022879 3.92964e-21)
(1.00032 0.000214872 5.87731e-21)
(1.00024 0.000211709 -1.9631e-21)
(1.00016 0.00021819 -3.90337e-21)
(1.00009 0.000234091 7.80577e-21)
(1.00002 0.000259665 -3.4944e-24)
(0.999952 0.000293167 -1.94337e-21)
(0.999888 0.000335482 1.94523e-21)
(0.999828 0.000385105 0)
(0.999772 0.000441967 1.93354e-21)
(0.999719 0.000505951 -1.92384e-21)
(0.999669 0.000575502 7.71492e-21)
(0.999624 0.000651145 -7.6995e-21)
(0.999583 0.00073163 5.77147e-21)
(0.999545 0.000816534 -9.63241e-22)
(0.999511 0.000905932 9.58136e-22)
(0.999482 0.000998102 9.53186e-22)
(0.999456 0.00109327 -9.53795e-22)
(0.999435 0.00119091 0)
(0.999417 0.00128983 -1.41898e-21)
(0.999404 0.00139002 1.18491e-21)
(0.999395 0.00149079 9.43689e-22)
(0.99939 0.00159126 4.40265e-23)
(0.999389 0.00169122 8.76735e-23)
(0.999392 0.00179006 1.40042e-21)
(0.999399 0.00188697 -9.32614e-22)
(0.999411 0.0019817 1.85352e-21)
(0.999426 0.00207364 -1.85324e-21)
(0.999445 0.00216216 0)
(0.999467 0.0022469 4.58901e-21)
(0.999494 0.00232729 -3.66804e-21)
(0.999523 0.0024029 3.64247e-21)
(0.999557 0.00247317 -3.64118e-21)
(0.999594 0.00253774 0)
(0.999635 0.00259614 3.59938e-21)
(0.999679 0.00264783 -1.80178e-21)
(0.999727 0.00269269 0)
(0.999777 0.00272989 3.5584e-21)
(0.999832 0.0027594 -3.55469e-21)
(0.999889 0.0027807 1.76661e-21)
(0.99995 0.00279321 1.76002e-21)
(1.00001 0.00279708 5.25411e-21)
(1.00008 0.0027911 3.87523e-24)
(1.00015 0.00277581 3.4788e-21)
(1.00022 0.00275026 1.72623e-21)
(1.0003 0.00271338 1.71575e-21)
(1.00039 0.00266165 1.71524e-21)
(1.00076 -0.00010786 0)
(1.00065 -0.000148833 -3.9417e-21)
(1.00052 -0.000165343 -3.93338e-21)
(1.0004 -0.000167932 0)
(1.00027 -0.0001569 -3.92375e-21)
(1.00014 -0.000133488 8.7113e-24)
(1.00002 -9.78139e-05 7.84729e-21)
(0.999908 -4.92878e-05 -1.9647e-21)
(0.999799 9.4885e-06 -8.88346e-24)
(0.999696 7.99483e-05 -5.84793e-21)
(0.999598 0.00015988 0)
(0.999506 0.000249257 -5.82753e-21)
(0.999421 0.00034808 1.94658e-21)
(0.999341 0.000454 0)
(0.999268 0.000567984 -1.93575e-21)
(0.999202 0.000688217 7.99412e-24)
(0.999142 0.000814129 -1.92166e-21)
(0.999088 0.000946056 6.71672e-21)
(0.999041 0.00108139 -1.03803e-23)
(0.999001 0.00122061 -9.64381e-22)
(0.998968 0.00136308 -9.52867e-22)
(0.998942 0.00150706 1.89694e-21)
(0.998922 0.00165265 -1.89725e-21)
(0.99891 0.00179896 -2.34933e-22)
(0.998904 0.00194474 4.86279e-22)
(0.998905 0.00208976 -2.62922e-22)
(0.998912 0.00223328 9.35833e-22)
(0.998927 0.00237412 -9.34347e-22)
(0.998948 0.00251202 9.31248e-22)
(0.998975 0.00264622 1.85008e-21)
(0.999009 0.00277581 -5.53624e-21)
(0.999049 0.00290036 -9.06551e-22)
(0.999095 0.00301914 5.50751e-21)
(0.999148 0.00313151 1.82776e-21)
(0.999206 0.00323683 -3.63178e-21)
(0.999271 0.00333462 3.62965e-21)
(0.999341 0.00342423 6.62354e-24)
(0.999417 0.003505 5.39221e-21)
(0.999499 0.00357676 -3.59242e-21)
(0.999586 0.00363845 -8.91703e-21)
(0.999678 0.00369007 3.54868e-21)
(0.999777 0.00373092 1.76578e-21)
(0.99988 0.00376024 7.02924e-21)
(0.999989 0.00377833 -3.51025e-21)
(1.0001 0.00378365 -7.78278e-24)
(1.00022 0.00377685 -8.71545e-24)
(1.00035 0.00375657 0)
(1.00048 0.00372176 -3.44288e-21)
(1.00062 0.00367078 -3.41947e-21)
(1.00095 -0.000780814 0)
(1.00079 -0.000786781 -5.95449e-21)
(1.0006 -0.000789073 5.94675e-21)
(1.00041 -0.000781322 0)
(1.00023 -0.000748256 0)
(1.00005 -0.000697858 -3.93738e-21)
(0.999867 -0.000632053 -2.42498e-24)
(0.999696 -0.000549807 -3.93716e-21)
(0.999533 -0.000454971 -6.77177e-24)
(0.999378 -0.00034527 0)
(0.999233 -0.000223642 0)
(0.999096 -9.00048e-05 1.94727e-21)
(0.998969 5.57392e-05 0)
(0.998851 0.00021027 0)
(0.998742 0.000375104 -1.93953e-21)
(0.998644 0.000547743 3.88651e-21)
(0.998555 0.000727454 1.93729e-21)
(0.998476 0.000914895 0)
(0.998408 0.00110641 1.9111e-21)
(0.998349 0.00130279 -4.80099e-21)
(0.998302 0.00150329 -1.91237e-21)
(0.998264 0.00170551 -1.90372e-21)
(0.998237 0.00190969 1.90395e-21)
(0.99822 0.00211474 1.0926e-24)
(0.998213 0.00231894 1.47973e-23)
(0.998217 0.00252208 2.35083e-22)
(0.998231 0.00272327 -4.70039e-22)
(0.998255 0.00292092 0)
(0.998289 0.00311472 -9.30427e-22)
(0.998333 0.00330377 0)
(0.998387 0.00348686 0)
(0.99845 0.00366348 -1.84605e-21)
(0.998523 0.00383271 -7.33752e-21)
(0.998605 0.00399372 1.78455e-23)
(0.998696 0.00414574 1.82589e-21)
(0.998796 0.0042882 0)
(0.998905 0.00442024 -1.80434e-21)
(0.999023 0.00454106 -3.59859e-21)
(0.999149 0.00465048 3.57821e-21)
(0.999284 0.00474714 7.12924e-21)
(0.999426 0.00483116 -7.09629e-21)
(0.999577 0.00490162 -7.64912e-25)
(0.999736 0.00495758 -3.51738e-21)
(0.999902 0.00499956 -3.27054e-24)
(1.00008 0.00502553 0)
(1.00026 0.00503644 -3.46916e-21)
(1.00045 0.00503041 -1.72177e-21)
(1.00065 0.00500653 1.72052e-21)
(1.00087 0.0049662 3.42241e-21)
(1.00111 -0.00179833 0)
(1.00088 -0.00178284 3.97803e-21)
(1.00062 -0.00173626 -1.19513e-20)
(1.00035 -0.00166017 0)
(1.00008 -0.00159256 0)
(0.99982 -0.00152766 -7.9406e-21)
(0.99957 -0.00142201 7.91567e-21)
(0.999337 -0.00129278 -3.96622e-21)
(0.999108 -0.00114818 -6.89666e-24)
(0.99889 -0.000985086 3.94459e-21)
(0.998684 -0.000806859 0)
(0.998491 -0.00061387 0)
(0.998311 -0.000405968 3.93232e-21)
(0.998144 -0.000187402 0)
(0.997992 4.41064e-05 0)
(0.997853 0.000285252 -3.89453e-21)
(0.997728 0.000535092 1.26332e-23)
(0.997618 0.000794635 0)
(0.997522 0.00105903 1.92661e-21)
(0.997441 0.00132943 4.81833e-21)
(0.997374 0.00160494 -1.92999e-21)
(0.997322 0.0018824 0)
(0.997286 0.00216224 -9.53285e-22)
(0.997264 0.00244309 1.19104e-21)
(0.997257 0.00272274 -5.19598e-22)
(0.997264 0.00300097 -2.36996e-22)
(0.997287 0.00327668 4.68e-22)
(0.997323 0.00354787 -9.40129e-22)
(0.997375 0.00381416 0)
(0.99744 0.00407444 -3.72589e-21)
(0.99752 0.00432717 5.56124e-21)
(0.997613 0.00457176 1.83004e-21)
(0.99772 0.00480707 -6.70001e-24)
(0.99784 0.00503205 1.82657e-21)
(0.997973 0.00524575 -1.83349e-21)
(0.998119 0.00544753 -3.62384e-21)
(0.998278 0.00563627 7.22897e-21)
(0.998449 0.005811 -3.60118e-21)
(0.998632 0.00597157 7.17126e-21)
(0.998826 0.00611626 2.15284e-24)
(0.999032 0.00624537 7.09524e-21)
(0.99925 0.00635767 -3.5302e-21)
(0.999477 0.00645211 0)
(0.999716 0.00652943 -3.80253e-24)
(0.999966 0.00658706 6.95329e-21)
(1.00023 0.00662636 0)
(1.0005 0.00664476 0)
(1.00079 0.00664173 5.98908e-21)
(1.0011 0.00662316 8.54265e-22)
(1.00118 -0.00320805 1.00273e-21)
(1.00087 -0.00316287 7.0456e-21)
(1.00052 -0.00307729 7.98538e-21)
(1.00016 -0.00296863 -8.03549e-21)
(0.999792 -0.00284151 0)
(0.999437 -0.00269237 -9.49354e-24)
(0.999095 -0.00248591 -4.01898e-21)
(0.998769 -0.00229486 -4.00855e-21)
(0.998456 -0.00212196 1.19519e-20)
(0.998161 -0.00189269 -3.97417e-21)
(0.997883 -0.00164099 0)
(0.997626 -0.00137077 7.9256e-21)
(0.997381 -0.00108197 -7.88436e-21)
(0.997155 -0.000780108 2.16819e-23)
(0.996947 -0.00046196 7.85996e-21)
(0.996758 -0.000132066 -1.97236e-21)
(0.996588 0.000208422 -1.92691e-21)
(0.996438 0.000560913 3.90536e-21)
(0.996308 0.000919253 0)
(0.996198 0.001285 -1.93254e-21)
(0.996109 0.00165699 1.93355e-21)
(0.99604 0.0020313 1.92367e-21)
(0.995991 0.00240848 -1.92369e-21)
(0.995963 0.00278682 2.40085e-22)
(0.995955 0.00316363 2.97068e-23)
(0.995968 0.00353859 7.10836e-22)
(0.996001 0.00391032 -2.17408e-24)
(0.996055 0.00427644 0)
(0.996128 0.00463635 0)
(0.996221 0.00498872 -3.69268e-25)
(0.996334 0.0053317 -1.84938e-21)
(0.996465 0.00566444 3.71371e-21)
(0.996616 0.00598564 -3.68994e-21)
(0.996785 0.00629392 3.66337e-21)
(0.996971 0.00658808 -7.32452e-21)
(0.997176 0.00686749 1.33351e-23)
(0.997398 0.00713062 3.62713e-21)
(0.997636 0.00737635 3.59389e-21)
(0.99789 0.00760456 -7.18228e-21)
(0.99816 0.00781308 -7.13847e-21)
(0.998446 0.00800246 -3.55526e-21)
(0.998746 0.00817112 -3.536e-21)
(0.99906 0.00831785 0)
(0.999389 0.00844369 -3.49229e-21)
(0.999732 0.00854544 -1.23532e-23)
(1.00009 0.00862497 6.89955e-21)
(1.00047 0.00867886 -8.57407e-21)
(1.00086 0.00870719 1.69006e-21)
(1.00129 0.00872224 0)
(1.00111 -0.00511615 0)
(1.00071 -0.00502337 -8.05431e-21)
(1.00026 -0.004879 0)
(0.999789 -0.0047124 8.03826e-21)
(0.999313 -0.0045164 4.02583e-21)
(0.998846 -0.0042938 -8.04976e-21)
(0.998392 -0.00403563 1.20396e-20)
(0.997948 -0.00375688 3.99896e-21)
(0.997532 -0.00346252 -3.99601e-21)
(0.997138 -0.00312766 0)
(0.996767 -0.00276196 3.99471e-21)
(0.99642 -0.00239928 -7.97174e-21)
(0.996095 -0.00202965 4.00156e-21)
(0.995794 -0.00162475 -3.9575e-21)
(0.995521 -0.00119656 2.46218e-23)
(0.99527 -0.000753717 3.95889e-21)
(0.995044 -0.000297679 -7.89063e-21)
(0.994845 0.000173465 0)
(0.994672 0.000651995 3.91394e-21)
(0.994526 0.00113974 -3.91408e-21)
(0.994407 0.00163514 -9.69786e-22)
(0.994316 0.00213348 0)
(0.994253 0.00263539 9.70979e-22)
(0.994217 0.0031387 2.40724e-22)
(0.994209 0.00364024 -5.10697e-22)
(0.994229 0.00413945 7.16549e-22)
(0.994276 0.00463461 4.72773e-22)
(0.99435 0.00512291 -9.49301e-22)
(0.994452 0.00560342 0)
(0.99458 0.00607447 -1.87344e-21)
(0.994735 0.00653386 3.74685e-21)
(0.994916 0.00698037 0)
(0.995122 0.00741245 1.84679e-21)
(0.995353 0.00782832 0)
(0.995608 0.00822641 3.65799e-21)
(0.995887 0.00860613 -7.28927e-21)
(0.996188 0.00896543 3.61512e-21)
(0.996512 0.00930294 -1.83663e-23)
(0.996856 0.00961862 3.56394e-21)
(0.997222 0.00990972 -3.57557e-21)
(0.997607 0.0101771 3.54533e-21)
(0.998011 0.0104188 7.04897e-21)
(0.998433 0.0106334 0)
(0.998874 0.0108222 0)
(0.999333 0.0109815 -6.9401e-21)
(0.999811 0.0111137 -1.37794e-20)
(1.00031 0.0112143 1.36986e-20)
(1.00084 0.0112842 -7.67485e-21)
(1.00141 0.0113446 7.60521e-21)
(1.00089 -0.00765021 0)
(1.00037 -0.00749382 8.183e-21)
(0.999787 -0.00727348 8.17024e-21)
(0.999181 -0.00702681 1.22408e-20)
(0.998568 -0.00674409 -1.22336e-20)
(0.997964 -0.00642911 -4.0579e-21)
(0.997377 -0.00608041 1.2221e-20)
(0.996808 -0.00569555 -4.04808e-21)
(0.996266 -0.00528362 4.05232e-21)
(0.99575 -0.004837 0)
(0.99526 -0.00436191 8.11632e-21)
(0.994798 -0.00386581 0)
(0.99437 -0.00334402 -4.00119e-21)
(0.993975 -0.0027876 -4.03653e-21)
(0.993612 -0.00222108 4.16794e-23)
(0.993282 -0.00164985 0)
(0.992985 -0.00104975 3.99103e-21)
(0.992722 -0.000428392 7.9647e-21)
(0.992494 0.000202632 0)
(0.992303 0.000845413 1.9681e-21)
(0.992146 0.00149787 -1.96758e-21)
(0.992026 0.00215453 -1.95321e-21)
(0.991944 0.00281587 1.96198e-21)
(0.991898 0.00347912 -3.34773e-24)
(0.991889 0.00414062 -4.84272e-22)
(0.991917 0.00479932 -2.12708e-22)
(0.991982 0.00545301 -4.79943e-22)
(0.992084 0.00609846 9.57109e-22)
(0.992222 0.00673415 0)
(0.992396 0.00735788 1.88299e-21)
(0.992605 0.00796708 -3.75448e-21)
(0.992849 0.00855992 0)
(0.993127 0.00913451 0)
(0.993438 0.00968854 3.68411e-21)
(0.993781 0.0102199 -7.34893e-21)
(0.994155 0.010728 3.66686e-21)
(0.994559 0.0112101 3.6409e-21)
(0.994991 0.0116645 0)
(0.995452 0.0120913 1.0758e-20)
(0.995938 0.012487 -7.13393e-21)
(0.996449 0.0128528 -3.53551e-21)
(0.996985 0.0131861 -2.29211e-24)
(0.997543 0.0134855 -6.99945e-21)
(0.998124 0.0137528 -6.94737e-21)
(0.998727 0.0139833 -6.90621e-21)
(0.999354 0.0141801 2.19432e-23)
(1.00001 0.0143377 -2.68146e-23)
(1.0007 0.0144582 0)
(1.00144 0.0145738 -1.34781e-20)
(1.00048 -0.0109744 0)
(0.999813 -0.0107382 2.12999e-21)
(0.999071 -0.0104258 -1.02214e-20)
(0.998296 -0.0100805 -8.17391e-21)
(0.997513 -0.00969057 8.1655e-21)
(0.996738 -0.00926056 4.14777e-21)
(0.995982 -0.00878973 -4.05503e-21)
(0.995251 -0.00827449 0)
(0.99455 -0.00772574 0)
(0.993882 -0.00713528 8.2148e-21)
(0.993249 -0.00651219 -8.11124e-21)
(0.992652 -0.00585546 4.06776e-21)
(0.992095 -0.00516449 -4.06667e-21)
(0.991577 -0.00444614 4.0638e-21)
(0.991099 -0.00370112 4.06772e-21)
(0.990665 -0.00293643 -4.04154e-21)
(0.990276 -0.00214785 -4.00453e-21)
(0.98993 -0.00133703 -3.99044e-21)
(0.989629 -0.000513691 3.99193e-21)
(0.989375 0.000325521 -3.99123e-21)
(0.989168 0.00117756 0)
(0.98901 0.00203637 1.98773e-21)
(0.988901 0.00290181 -1.96077e-21)
(0.98884 0.00377012 1.46885e-21)