/*--------------------------------*- C++ -*----------------------------------*\
| =========                 |                                                 |
| \\      /  F ield         | OpenFOAM: The Open Source CFD Toolbox           |
|  \\    /   O peration     | Version:  2312                                  |
|   \\  /    A nd           | Website:  www.openfoam.com                      |
|    \\/     M anipulation  |                                                 |
\*---------------------------------------------------------------------------*/
FoamFile
{
    version     2.0;
    format      ascii;
    arch        "LSB;label=32;scalar=64";
    class       volVectorField;
    location    "44.992164610564899";
    object      U;
}
// * * * * * * * * * * * * * * * * * * * * * * * * * * * * * * * * * * * * * //

dimensions      [0 1 -1 0 0 0 0];

internalField   nonuniform List<vector> 
21039
(
(0.913736 0.0474119 0)
(1.02608 0.0665035 0)
(1.00449 0.0295517 0)
(1.00176 0.0189443 0)
(1.0012 0.0139478 0)
(1.00079 0.01058 0)
(1.00055 0.00826574 0)
(1.0004 0.00663571 0)
(1.0003 0.0054391 0)
(1.00023 0.00453201 0)
(1.00018 0.003829 0)
(1.00014 0.00327507 0)
(1.00011 0.00283319 0)
(1.00009 0.00247779 0)
(1.00007 0.0021907 0)
(1.00006 0.00195877 0)
(1.00004 0.00177223 0)
(1.00003 0.0016237 0)
(1.00003 0.00150743 0)
(1.00002 0.00141874 0)
(1.00001 0.00135364 0)
(1.00001 0.00130998 0)
(1 0.00128907 0)
(1 0.00127096 0)
(1 0.00125866 0)
(1 0.00124937 0)
(1.00001 0.00123911 0)
(1.00001 0.00121853 0)
(1.00001 0.0011674 0)
(0.79446 0.0730568 0)
(1.0745 0.121755 0)
(1.03986 0.0709819 0)
(1.01807 0.0498441 0)
(1.01125 0.0384614 0)
(1.00761 0.0297135 0)
(1.00535 0.0234505 0)
(1.00392 0.0189111 0)
(1.00296 0.0154944 0)
(1.00229 0.012859 0)
(1.0018 0.0107885 0)
(1.00144 0.00913611 0)
(1.00116 0.00780104 0)
(1.00094 0.00671279 0)
(1.00076 0.00582101 0)
(1.00062 0.00508897 0)
(1.0005 0.00448951 0)
(1.0004 0.00400218 0)
(1.00031 0.0036113 0)
(1.00023 0.00330453 0)
(1.00016 0.00307153 0)
(1.00011 0.00290553 0)
(1.00006 0.00280971 0)
(1.00003 0.00274884 0)
(1.00002 0.00272328 0)
(1.00002 0.0027165 0)
(1.00003 0.00271565 0)
(1.00004 0.00270308 0)
(1.00005 0.002652 0)
(0.667158 0.0573001 0)
(1.08293 0.124921 0)
(1.08428 0.0904982 0)
(1.0462 0.0678989 0)
(1.02897 0.0544336 0)
(1.02015 0.0435277 0)
(1.01458 0.0352792 0)
(1.01088 0.0289594 0)
(1.00832 0.0239949 0)
(1.00649 0.020054 0)
(1.00516 0.0168912 0)
(1.00415 0.014324 0)
(1.00337 0.012221 0)
(1.00276 0.0104868 0)
(1.00226 0.00905116 0)
(1.00185 0.00786187 0)
(1.00151 0.00687973 0)
(1.00122 0.00607496 0)
(1.00096 0.00542471 0)
(1.00074 0.00491118 0)
(1.00054 0.0045196 0)
(1.00037 0.00423902 0)
(1.00022 0.00407396 0)
(1.00012 0.00398084 0)
(1.00006 0.00395139 0)
(1.00004 0.00395341 0)
(1.00004 0.00396552 0)
(1.00006 0.00396549 0)
(1.00007 0.0039243 0)
(0.540755 0.0352899 0)
(1.0505 0.110965 0)
(1.11573 0.0972717 0)
(1.07594 0.0765858 0)
(1.04904 0.0624884 0)
(1.03506 0.0514523 0)
(1.0262 0.0428569 0)
(1.02002 0.0359132 0)
(1.01559 0.0302175 0)
(1.01234 0.0255445 0)
(1.00991 0.02169 0)
(1.00805 0.0184899 0)
(1.0066 0.0158198 0)
(1.00544 0.0135843 0)
(1.00449 0.0117099 0)
(1.0037 0.0101405 0)
(1.00304 0.00883263 0)
(1.00247 0.00775281 0)
(1.00197 0.00687504 0)
(1.00152 0.00617901 0)
(1.00112 0.00564809 0)
(1.00077 0.00526868 0)
(1.00046 0.00504639 0)
(1.00023 0.0049319 0)
(1.00009 0.00490562 0)
(1.00002 0.00492107 0)
(1 0.00494969 0)
(1.00002 0.00496543 0)
(1.00003 0.00493523 0)
(0.443813 0.0186886 0)
(0.99728 0.0920116 0)
(1.12867 0.095936 0)
(1.10115 0.0798373 0)
(1.06792 0.0658662 0)
(1.04942 0.0552737 0)
(1.0379 0.0469822 0)
(1.02967 0.0400469 0)
(1.02357 0.0341777 0)
(1.01897 0.0292258 0)
(1.01544 0.0250326 0)
(1.01268 0.02147 0)
(1.01049 0.0184381 0)
(1.00872 0.0158562 0)
(1.00725 0.01366 0)
(1.00602 0.0117984 0)
(1.00497 0.010231 0)
(1.00405 0.00892596 0)
(1.00324 0.00785833 0)
(1.00252 0.00700842 0)
(1.00186 0.00636022 0)
(1.00127 0.00589962 0)
(1.00074 0.00563388 0)
(1.00034 0.00550968 0)
(1.00009 0.00549532 0)
(0.999953 0.00553163 0)
(0.999903 0.00558384 0)
(0.999905 0.00562199 0)
(0.999909 0.00560635 0)
(0.378168 0.00812166 0)
(0.939042 0.0719702 0)
(1.12645 0.0885732 0)
(1.12039 0.0790109 0)
(1.08504 0.0663456 0)
(1.06256 0.0564514 0)
(1.04877 0.0486861 0)
(1.03893 0.0420446 0)
(1.03149 0.0362923 0)
(1.02575 0.0313251 0)
(1.02125 0.0270231 0)
(1.01766 0.0232921 0)
(1.01476 0.0200574 0)
(1.01238 0.0172567 0)
(1.01038 0.0148391 0)
(1.00868 0.0127636 0)
(1.0072 0.0109969 0)
(1.0059 0.00951279 0)
(1.00474 0.00829024 0)
(1.00369 0.00731287 0)
(1.00273 0.0065676 0)
(1.00185 0.00604193 0)
(1.00104 0.00574587 0)
(1.00044 0.00562362 0)
(1.00004 0.00563097 0)
(0.99982 0.00569702 0)
(0.999725 0.00578131 0)
(0.999707 0.00584984 0)
(0.999694 0.00585409 0)
(0.332875 0.00235165 0)
(0.88258 0.0539389 0)
(1.11331 0.0780833 0)
(1.13326 0.0751613 0)
(1.10028 0.0647066 0)
(1.07466 0.055725 0)
(1.05878 0.0486075 0)
(1.04763 0.0424244 0)
(1.03911 0.0369519 0)
(1.03243 0.0321188 0)
(1.0271 0.0278448 0)
(1.02279 0.0240679 0)
(1.01924 0.0207363 0)
(1.01627 0.0178058 0)
(1.01376 0.0152401 0)
(1.01158 0.0130093 0)
(1.00967 0.0110894 0)
(1.00797 0.00946132 0)
(1.00642 0.00811036 0)
(1.00501 0.00702526 0)
(1.0037 0.00619762 0)
(1.00248 0.00561844 0)
(1.00137 0.00530175 0)
(1.00051 0.00519056 0)
(0.999937 0.00522801 0)
(0.999604 0.00533202 0)
(0.999448 0.00545678 0)
(0.999395 0.00556402 0)
(0.999352 0.00559462 0)
(0.300521 -0.00017709 0)
(0.830732 0.0396386 0)
(1.09294 0.0671094 0)
(1.13979 0.0696482 0)
(1.11311 0.0617183 0)
(1.08572 0.0537225 0)
(1.068 0.047249 0)
(1.05573 0.041577 0)
(1.04635 0.0364608 0)
(1.0389 0.0318418 0)
(1.03288 0.0276742 0)
(1.02794 0.0239237 0)
(1.02382 0.0205596 0)
(1.02032 0.0175551 0)
(1.01731 0.0148874 0)
(1.01468 0.0125386 0)
(1.01233 0.0104942 0)
(1.01021 0.00874347 0)
(1.00826 0.007279 0)
(1.00646 0.00609595 0)
(1.00476 0.00519199 0)
(1.00317 0.00456317 0)
(1.00169 0.00422899 0)
(1.00053 0.00413276 0)
(0.999755 0.00420528 0)
(0.999285 0.0043535 0)
(0.999046 0.00452644 0)
(0.998939 0.00468115 0)
(0.998849 0.00474622 0)
(0.277517 -0.000974349 0)
(0.785013 0.0291096 0)
(1.06864 0.0570223 0)
(1.14082 0.0635224 0)
(1.12327 0.0580582 0)
(1.09563 0.0510273 0)
(1.07643 0.0450943 0)
(1.06323 0.0398759 0)
(1.05318 0.0351059 0)
(1.04513 0.030717 0)
(1.03854 0.0266832 0)
(1.03307 0.0229902 0)
(1.02844 0.0196241 0)
(1.02447 0.0165723 0)
(1.02101 0.0138251 0)
(1.01793 0.011375 0)
(1.01516 0.00921748 0)
(1.01262 0.00735026 0)
(1.01025 0.00577372 0)
(1.00803 0.00449051 0)
(1.00592 0.00350555 0)
(1.0039 0.00282091 0)
(1.00202 0.00246329 0)
(1.00052 0.00237883 0)
(0.999489 0.00248585 0)
(0.998849 0.00268029 0)
(0.998496 0.0029063 0)
(0.998307 0.00311594 0)
(0.998146 0.0032238 0)
(0.261075 -0.00102379 0)
(0.745811 0.0216465 0)
(1.04296 0.0482487 0)
(1.13769 0.0573592 0)
(1.13092 0.054122 0)
(1.10446 0.0480155 0)
(1.08419 0.042508 0)
(1.07019 0.0376373 0)
(1.05961 0.0331491 0)
(1.05109 0.028957 0)
(1.04406 0.0250425 0)
(1.03815 0.0214027 0)
(1.0331 0.0180348 0)
(1.02871 0.0149375 0)
(1.02482 0.0121111 0)
(1.02134 0.00955761 0)
(1.01815 0.00728119 0)
(1.01519 0.00528808 0)
(1.0124 0.00358695 0)
(1.00974 0.00218835 0)
(1.00718 0.00110505 0)
(1.0047 0.000343033 0)
(1.00236 -5.73889e-05 0)
(1.00047 -0.000142731 0)
(0.99914 -1.21247e-05 0)
(0.998289 0.000222626 0)
(0.997787 0.000498806 0)
(0.997482 0.000769459 0)
(0.997214 0.000942466 0)
(0.248877 -0.000811778 0)
(0.712624 0.0164619 0)
(1.01754 0.040819 0)
(1.13166 0.0514544 0)
(1.13641 0.0501072 0)
(1.11235 0.0448725 0)
(1.09144 0.0397041 0)
(1.07674 0.0350774 0)
(1.06572 0.0307904 0)
(1.05684 0.0267392 0)
(1.04946 0.0229047 0)
(1.0432 0.0192895 0)
(1.03779 0.0158979 0)
(1.03303 0.0127362 0)
(1.02878 0.00981238 0)
(1.02491 0.00713603 0)
(1.02133 0.00471908 0)
(1.01795 0.00257563 0)
(1.01473 0.000721158 0)
(1.01162 -0.00082711 0)
(1.00858 -0.00204743 0)
(1.00561 -0.00292048 0)
(1.00276 -0.00339971 0)
(1.00041 -0.00352337 0)
(0.998738 -0.0033886 0)
(0.997625 -0.00312238 0)
(0.996925 -0.0027994 0)
(0.99646 -0.00248161 0)
(0.996046 -0.00227678 0)
(0.239402 -0.000560821 0)
(0.684604 0.0128708 0)
(0.993285 0.0346161 0)
(1.12373 0.0459646 0)
(1.14008 0.0461327 0)
(1.11942 0.0416963 0)
(1.09832 0.0368059 0)
(1.08304 0.0323357 0)
(1.07163 0.0281711 0)
(1.06247 0.024199 0)
(1.05481 0.0203952 0)
(1.04826 0.0167637 0)
(1.04256 0.0133128 0)
(1.03749 0.0100538 0)
(1.03291 0.00699995 0)
(1.02869 0.00416713 0)
(1.02474 0.0015733 0)
(1.02096 -0.000762571 0)
(1.01732 -0.00281808 0)
(1.01374 -0.00456637 0)
(1.01021 -0.00597633 0)
(1.00669 -0.0070176 0)
(1.00328 -0.0076327 0)
(1.00042 -0.00784589 0)
(0.99833 -0.00774984 0)
(0.996889 -0.00748199 0)
(0.995922 -0.00712428 0)
(0.995226 -0.0067545 0)
(0.994605 -0.00651104 0)
(0.231774 -0.000360344 0)
(0.66091 0.010336 0)
(0.970661 0.0294638 0)
(1.11465 0.040957 0)
(1.14227 0.0422798 0)
(1.12576 0.0385527 0)
(1.10494 0.0338946 0)
(1.08919 0.0295102 0)
(1.07745 0.0253966 0)
(1.06806 0.0214431 0)
(1.06018 0.0176184 0)
(1.05341 0.0139245 0)
(1.04747 0.0103714 0)
(1.04214 0.00697323 0)
(1.03728 0.00374693 0)
(1.03274 0.00071176 0)
(1.02844 -0.0021111 0)
(1.02429 -0.0046964 0)
(1.02022 -0.0070134 0)
(1.01618 -0.00902714 0)
(1.01212 -0.0106983 0)
(1.00804 -0.0119867 0)
(1.00401 -0.0128229 0)
(1.00058 -0.0132106 0)
(0.998007 -0.0132278 0)
(0.996159 -0.013019 0)
(0.994836 -0.0126734 0)
(0.993815 -0.0122808 0)
(0.992896 -0.0120063 0)
(0.225484 -0.000227914 0)
(0.640802 0.0084829 0)
(0.949872 0.0251788 0)
(1.10499 0.0364385 0)
(1.14329 0.0386011 0)
(1.13146 0.0354895 0)
(1.11136 0.0310295 0)
(1.0953 0.0266767 0)
(1.08327 0.0225532 0)
(1.07369 0.0185629 0)
(1.06566 0.0146672 0)
(1.05872 0.0108641 0)
(1.05259 0.00716291 0)
(1.04706 0.00357846 0)
(1.04195 0.000128475 0)
(1.03715 -0.00316649 0)
(1.03255 -0.00628111 0)
(1.02805 -0.00918387 0)
(1.02357 -0.0118375 0)
(1.01906 -0.0141996 0)
(1.01447 -0.0162237 0)
(1.0098 -0.0178616 0)
(1.00512 -0.0190343 0)
(1.00107 -0.0197212 0)
(0.997949 -0.0199709 0)
(0.995605 -0.0199258 0)
(0.993816 -0.0196776 0)
(0.992348 -0.0193277 0)
(0.991012 -0.0190619 0)
(0.220203 -0.000153625 0)
(0.623658 0.00707989 0)
(0.930953 0.0216249 0)
(1.09513 0.0324136 0)
(1.14337 0.0351426 0)
(1.13657 0.0325428 0)
(1.1176 0.0282497 0)
(1.10138 0.023889 0)
(1.08912 0.0197072 0)
(1.07939 0.0156327 0)
(1.07125 0.0116209 0)
(1.06419 0.00766436 0)
(1.05793 0.00376978 0)
(1.05224 -5.00725e-05 0)
(1.04696 -0.00377862 0)
(1.04194 -0.00739404 0)
(1.03707 -0.0108674 0)
(1.03224 -0.0141627 0)
(1.02739 -0.017237 0)
(1.02243 -0.0200412 0)
(1.01731 -0.0225216 0)
(1.01203 -0.0246247 0)
(1.00671 -0.026268 0)
(1.00206 -0.0274161 0)
(0.99839 -0.0280801 0)
(0.995516 -0.0283865 0)
(0.993175 -0.0284104 0)
(0.991131 -0.0282462 0)
(0.98923 -0.0280793 0)
(0.216078 -0.000106493 0)
(0.610032 0.00607032 0)
(0.915119 0.0188765 0)
(1.08619 0.0291075 0)
(1.14292 0.0321788 0)
(1.14093 0.0299765 0)
(1.12331 0.025819 0)
(1.1071 0.0214312 0)
(1.09467 0.0171681 0)
(1.08485 0.0129857 0)
(1.07665 0.00883523 0)
(1.06955 0.00470239 0)
(1.06322 0.000588908 0)
(1.05745 -0.00349647 0)
(1.05206 -0.00753949 0)
(1.0469 -0.0115188 0)
(1.04184 -0.0154047 0)
(1.03678 -0.0191595 0)
(1.03162 -0.0227361 0)
(1.02627 -0.026078 0)
(1.02068 -0.0291217 0)
(1.01485 -0.0318039 0)
(1.00895 -0.0340345 0)
(1.00377 -0.035768 0)
(0.999658 -0.0370003 0)
(0.996344 -0.0378635 0)
(0.993468 -0.0384049 0)
(0.990747 -0.0386645 0)
(0.988067 -0.038765 0)
(0.213054 -8.01504e-05 0)
(0.600017 0.00538199 0)
(0.903012 0.0169063 0)
(1.07892 0.0266297 0)
(1.14225 0.0298968 0)
(1.14433 0.0279834 0)
(1.12805 0.0239268 0)
(1.11196 0.0195072 0)
(1.09943 0.0151657 0)
(1.08957 0.0108815 0)
(1.08136 0.0066009 0)
(1.07426 0.00230207 0)
(1.06793 -0.00201869 0)
(1.06215 -0.00635772 0)
(1.05673 -0.0107047 0)
(1.05152 -0.0150413 0)
(1.04637 -0.0193409 0)
(1.04116 -0.0235677 0)
(1.0358 -0.0276745 0)
(1.03017 -0.0316002 0)
(1.02423 -0.0352713 0)
(1.01796 -0.0386097 0)
(1.01157 -0.0414965 0)
(1.00599 -0.0438464 0)
(1.00163 -0.0456563 0)
(0.99814 -0.0471424 0)
(0.995061 -0.0484349 0)
(0.99199 -0.0495595 0)
(0.988797 -0.0503689 0)
(0.210721 -3.81964e-05 0)
(0.592334 0.00491293 0)
(0.893449 0.0154781 0)
(1.07286 0.0247597 0)
(1.14145 0.0281396 0)
(1.14701 0.0264465 0)
(1.13198 0.0224773 0)
(1.11607 0.0180392 0)
(1.1035 0.013638 0)
(1.09361 0.00927168 0)
(1.08542 0.00488191 0)
(1.07835 0.000440538 0)
(1.07207 -0.00406169 0)
(1.06632 -0.00862614 0)
(1.06092 -0.0132475 0)
(1.05571 -0.0179132 0)
(1.05054 -0.0226028 0)
(1.04527 -0.027286 0)
(1.0398 -0.0319199 0)
(1.034 -0.0364448 0)
(1.02781 -0.0407827 0)
(1.0212 -0.0448435 0)
(1.0144 -0.048465 0)
(1.00846 -0.0514429 0)
(1.00387 -0.0536915 0)
(1.00038 -0.0554972 0)
(0.997574 -0.0572317 0)
(0.995138 -0.0592638 0)
(0.992466 -0.0610575 0)
(0.209241 -4.96385e-05 0)
(0.587041 0.00454793 0)
(0.88664 0.0144615 0)
(1.06847 0.0234418 0)
(1.14092 0.0268881 0)
(1.14914 0.0253143 0)
(1.13514 0.0213754 0)
(1.11942 0.016914 0)
(1.10685 0.0124716 0)
(1.09698 0.00804518 0)
(1.08884 0.00356813 0)
(1.08183 -0.000992264 0)
(1.07562 -0.00564902 0)
(1.06994 -0.0104086 0)
(1.06461 -0.0152717 0)
(1.05945 -0.0202329 0)
(1.05432 -0.0252801 0)
(1.04909 -0.0303919 0)
(1.0436 -0.0355343 0)
(1.03776 -0.0406559 0)
(1.03147 -0.0456858 0)
(1.02473 -0.0505432 0)
(1.01775 -0.0550552 0)
(1.01162 -0.0588683 0)
(1.00688 -0.0616803 0)
(1.00335 -0.0635648 0)
(1.00071 -0.0645707 0)
(0.998954 -0.0654028 0)
(0.998985 -0.0698609 0)
(1.00001 0.00118026 0)
(1.00001 0.00118542 0)
(1.00001 0.00118564 0)
(1.00001 0.00118662 1.03334e-21)
(1.00001 0.00118947 5.14843e-21)
(1.00001 0.001194 -9.26012e-21)
(1 0.00120003 5.14065e-21)
(1 0.00120748 -4.09026e-21)
(1 0.00121616 5.25379e-22)
(1 0.0012261 4.08543e-21)
(1 0.00123713 0)
(0.999998 0.00124921 -4.55816e-21)
(0.999997 0.00126225 5.20631e-22)
(0.999996 0.00127611 4.0437e-21)
(0.999995 0.00129077 0)
(0.999994 0.00130606 0)
(0.999993 0.00132192 -3.99367e-21)
(0.999992 0.00133826 3.99618e-21)
(0.999991 0.00135488 0)
(0.99999 0.00137178 -1.97734e-21)
(0.999989 0.0013888 2.10163e-21)
(0.999988 0.00140581 1.84032e-21)
(0.999988 0.00142275 -2.9419e-21)
(0.999987 0.00143946 9.47692e-22)
(0.999987 0.00145585 3.03235e-23)
(0.999986 0.00147183 -6.05973e-23)
(0.999986 0.00148726 8.41729e-22)
(0.999985 0.00150204 -9.62208e-22)
(0.999985 0.00151611 0)
(0.999985 0.00152931 0)
(0.999985 0.00154163 -2.36827e-22)
(0.999986 0.00155286 -2.3567e-22)
(0.999986 0.00156291 -3.97701e-21)
(0.999986 0.00157187 3.27328e-21)
(0.999987 0.00157958 -4.16769e-21)
(0.999987 0.00158601 4.162e-21)
(0.999988 0.00159111 -3.20473e-21)
(0.999989 0.0015948 3.20378e-21)
(0.99999 0.00159708 4.53978e-22)
(0.999991 0.00159782 4.51428e-22)
(0.999992 0.00159706 -4.48849e-22)
(0.999994 0.00159474 0)
(0.999995 0.00159076 0)
(0.999997 0.00158522 0)
(0.999998 0.00157812 0)
(1 0.00156931 0)
(1 0.00155867 1.72929e-21)
(1 0.00154584 -1.7263e-21)
(1.00001 0.00152673 0)
(1.00005 0.00267215 0)
(1.00004 0.00268431 2.08737e-21)
(1.00002 0.00269346 -2.07798e-21)
(1.00001 0.00270611 -1.0363e-21)
(0.999995 0.00272341 -1.03623e-21)
(0.999982 0.00274475 -3.09533e-21)
(0.99997 0.00276981 5.16771e-21)
(0.999959 0.00279859 0)
(0.999948 0.00283052 -5.13363e-22)
(0.999937 0.00286574 -1.02516e-21)
(0.999927 0.00290376 0)
(0.999918 0.00294442 5.09445e-22)
(0.99991 0.00298761 -4.56597e-21)
(0.999902 0.00303281 4.06149e-21)
(0.999894 0.00308001 0)
(0.999888 0.00312882 1.0085e-21)
(0.999882 0.00317895 0)
(0.999877 0.00323032 0)
(0.999872 0.00328241 0)
(0.999869 0.00333507 -1.98538e-21)
(0.999866 0.00338808 1.86226e-21)
(0.999864 0.00344103 -1.23695e-22)
(0.999862 0.00349373 0)
(0.999862 0.00354593 -4.58392e-22)
(0.999862 0.00359729 4.81437e-22)
(0.999863 0.00364756 9.11757e-23)
(0.999865 0.00369653 1.2097e-22)
(0.999868 0.00374388 0)
(0.999872 0.00378937 -1.9149e-21)
(0.999876 0.00383278 1.91447e-21)
(0.999881 0.00387387 -3.55662e-21)
(0.999887 0.00391237 7.80531e-21)
(0.999894 0.00394809 -3.53897e-21)
(0.999901 0.00398083 4.68274e-22)
(0.99991 0.0040103 4.65913e-22)
(0.999919 0.00403642 4.6388e-22)
(0.999928 0.00405889 -4.61007e-22)
(0.999938 0.00407754 4.11884e-21)
(0.999949 0.00409229 -3.20045e-21)
(0.999961 0.0041028 -1.36056e-21)
(0.999974 0.00410909 4.95184e-21)
(0.999987 0.0041109 -3.5948e-21)
(1 0.00410803 -1.78272e-21)
(1.00001 0.00410054 3.5365e-21)
(1.00003 0.00408804 -7.04803e-21)
(1.00004 0.00407071 3.51057e-21)
(1.00006 0.00404828 1.7368e-21)
(1.00008 0.00402016 -4.82351e-24)
(1.00009 0.00398172 0)
(1.00005 0.00394558 3.1423e-21)
(1.00002 0.00396599 -1.04912e-21)
(0.999979 0.00398885 -4.1756e-21)
(0.999941 0.0040177 2.0795e-21)
(0.999905 0.00405376 -2.07856e-21)
(0.99987 0.00409623 0)
(0.999837 0.00414469 -2.06507e-21)
(0.999806 0.00419934 -6.17947e-21)
(0.999776 0.00425898 6.17937e-21)
(0.999749 0.00432403 1.02468e-21)
(0.999723 0.00439359 0)
(0.9997 0.00446736 -6.11721e-21)
(0.999678 0.00454533 1.44298e-23)
(0.999658 0.00462641 4.06507e-21)
(0.999641 0.00471078 0)
(0.999626 0.00479772 -1.00741e-21)
(0.999613 0.00488668 -1.00683e-21)
(0.999602 0.00497777 0)
(0.999593 0.00506988 -1.0001e-21)
(0.999586 0.00516285 -1.98626e-21)
(0.999582 0.00525646 1.98686e-21)
(0.99958 0.00534987 -2.4791e-22)
(0.99958 0.00544283 -2.46373e-22)
(0.999583 0.00553502 0)
(0.999588 0.00562575 3.80625e-23)
(0.999595 0.0057147 -2.12832e-22)
(0.999604 0.00580157 0)
(0.999615 0.00588575 0)
(0.999629 0.00596686 -1.91442e-21)
(0.999645 0.00604466 1.91406e-21)
(0.999662 0.00611858 -3.79277e-21)
(0.999682 0.00618829 3.79151e-21)
(0.999704 0.0062535 0)
(0.999728 0.00631374 0)
(0.999754 0.00636869 0)
(0.999782 0.00641812 -9.26204e-22)
(0.999811 0.00646152 -1.8438e-21)
(0.999843 0.00649866 0)
(0.999876 0.00652934 -9.11243e-22)
(0.999911 0.006553 -8.97568e-22)
(0.999947 0.00656968 2.71193e-21)
(0.999986 0.00657887 0)
(1.00003 0.00658029 3.55534e-21)
(1.00007 0.00657397 -5.31991e-21)
(1.00011 0.00655914 0)
(1.00015 0.00653618 0)
(1.0002 0.00650438 0)
(1.00025 0.00646306 -1.72971e-21)
(1.0003 0.00640881 -1.71654e-21)
(0.999988 0.00495841 -2.09898e-21)
(0.999923 0.00499242 4.20067e-21)
(0.999852 0.00503529 4.1905e-21)
(0.99978 0.00508639 6.25775e-21)
(0.99971 0.0051473 -2.0913e-21)
(0.999643 0.00521712 -4.14742e-21)
(0.999579 0.00529538 8.28984e-21)
(0.999519 0.00538253 -5.34402e-24)
(0.999463 0.00547657 -2.05909e-21)
(0.999411 0.00557838 2.06095e-21)
(0.999363 0.00568648 0)
(0.999319 0.0058005 2.04243e-21)
(0.999279 0.00592057 -2.02756e-21)
(0.999243 0.00604486 8.13492e-21)
(0.999211 0.00617387 -8.10958e-21)
(0.999184 0.00630643 6.07522e-21)
(0.999161 0.00644174 -1.01355e-21)
(0.999143 0.0065802 1.00612e-21)
(0.999128 0.00671991 9.9888e-22)
(0.999119 0.00686081 -9.99083e-22)
(0.999114 0.00700266 0)
(0.999113 0.00714406 -1.48078e-21)
(0.999116 0.00728484 1.23768e-21)
(0.999124 0.00742453 9.8358e-22)
(0.999137 0.00756204 4.57804e-23)
(0.999154 0.00769701 9.10152e-23)
(0.999175 0.00782907 1.45214e-21)
(0.9992 0.00795722 -9.66696e-22)
(0.99923 0.00808103 1.91574e-21)
(0.999264 0.00820015 -1.91543e-21)
(0.999302 0.00831374 0)
(0.999344 0.00842136 4.72276e-21)
(0.99939 0.00852263 -3.77412e-21)
(0.99944 0.0086168 3.73626e-21)
(0.999493 0.00870353 -3.7349e-21)
(0.99955 0.00878244 0)
(0.999611 0.00885279 3.67391e-21)
(0.999676 0.00891432 -1.84057e-21)
(0.999743 0.0089667 0)
(0.999815 0.00900915 3.61485e-21)
(0.999889 0.00904176 -3.61083e-21)
(0.999967 0.00906376 1.79002e-21)
(1.00005 0.00907479 1.78029e-21)
(1.00013 0.00907491 5.30534e-21)
(1.00022 0.009063 6.69982e-24)
(1.00031 0.0090396 3.50364e-21)
(1.0004 0.00900355 1.73248e-21)
(1.0005 0.00895409 1.71831e-21)
(1.0006 0.0088892 1.71716e-21)
(0.999842 0.00563463 0)
(0.999739 0.00568981 -4.20504e-21)
(0.999624 0.00576113 -4.19272e-21)
(0.999508 0.00584283 0)
(0.999393 0.00593713 -4.17569e-21)
(0.999283 0.00604298 1.29942e-23)
(0.999179 0.00615987 8.34419e-21)
(0.999081 0.00628863 -2.08965e-21)
(0.99899 0.00642627 -1.34512e-23)
(0.998905 0.00657432 -6.19718e-21)
(0.998826 0.00673055 0)
(0.998755 0.00689458 -6.16082e-21)
(0.99869 0.00706673 2.05918e-21)
(0.998633 0.00724426 0)
(0.998582 0.00742814 -2.0412e-21)
(0.998539 0.00761661 1.0699e-23)
(0.998503 0.00780865 -2.01884e-21)
(0.998474 0.008005 7.05324e-21)
(0.998453 0.00820278 -1.58276e-23)
(0.998439 0.00840214 -1.01431e-21)
(0.998433 0.00860282 -9.97446e-22)
(0.998434 0.00880275 1.98038e-21)
(0.998442 0.00900187 -1.98067e-21)
(0.998458 0.00919957 -2.44301e-22)
(0.998481 0.00939427 5.0625e-22)
(0.998511 0.00958561 -2.72717e-22)
(0.998548 0.00977314 9.70702e-22)
(0.998593 0.0099554 -9.68622e-22)
(0.998645 0.0101319 9.63689e-22)
(0.998703 0.0103023 1.90939e-21)
(0.998769 0.0104653 -5.70782e-21)
(0.998841 0.0106204 -9.27306e-22)
(0.998919 0.0107672 5.66548e-21)
(0.999004 0.0109046 1.87655e-21)
(0.999095 0.0110322 -3.71857e-21)
(0.999193 0.0111495 3.71635e-21)
(0.999296 0.0112555 9.91647e-24)
(0.999405 0.0113499 5.49833e-21)
(0.99952 0.0114324 -3.66343e-21)
(0.999641 0.0115019 -9.06445e-21)
(0.999767 0.0115585 3.6e-21)
(0.999898 0.0116012 1.7882e-21)
(1.00003 0.0116296 7.10218e-21)
(1.00018 0.0116439 -3.54543e-21)
(1.00032 0.0116425 -1.12472e-23)
(1.00047 0.0116262 -1.23868e-23)
(1.00063 0.0115935 0)
(1.0008 0.0115435 -3.44941e-21)
(1.00097 0.0114761 -3.41821e-21)
(0.999592 0.00589202 0)
(0.999442 0.00597811 -6.36602e-21)
(0.999273 0.00608841 6.35356e-21)
(0.999099 0.00621126 0)
(0.998928 0.00634978 0)
(0.998764 0.00650272 -4.19059e-21)
(0.998608 0.0066696 -3.3285e-24)
(0.99846 0.00685168 -4.18703e-21)
(0.998323 0.00704481 -8.72798e-24)
(0.998195 0.00725139 0)
(0.998077 0.00746825 0)
(0.99797 0.00769505 2.05943e-21)
(0.997873 0.00793233 0)
(0.997787 0.00817626 0)
(0.997712 0.00842846 -2.04454e-21)
(0.997648 0.00868641 4.09945e-21)
(0.997595 0.00894885 2.03989e-21)
(0.997553 0.00921699 0)
(0.997522 0.00948672 2.00165e-21)
(0.997502 0.00975853 -5.03541e-21)
(0.997494 0.0100321 -2.00193e-21)
(0.997497 0.0103046 -1.98869e-21)
(0.997511 0.010576 1.98888e-21)
(0.997536 0.0108457 1.43038e-24)
(0.997572 0.0111115 1.5413e-23)
(0.99762 0.0113731 2.44116e-22)
(0.997678 0.0116298 -4.88205e-22)
(0.997747 0.0118797 0)
(0.997827 0.0121224 -9.62338e-22)
(0.997917 0.0123572 0)
(0.998018 0.0125826 0)
(0.998128 0.0127981 -1.90195e-21)
(0.998249 0.013003 -7.54107e-21)
(0.998379 0.0131959 2.57701e-23)
(0.998519 0.0133764 1.8735e-21)
(0.998668 0.0135439 0)
(0.998826 0.0136972 -1.84221e-21)
(0.998993 0.0138359 -3.6692e-21)
(0.999169 0.0139595 3.6407e-21)
(0.999353 0.0140667 7.2418e-21)
(0.999545 0.0141578 -7.19525e-21)
(0.999745 0.0142315 -5.63573e-25)
(0.999952 0.0142873 -3.55334e-21)
(1.00017 0.0143255 -3.71371e-24)
(1.00039 0.0143442 0)
(1.00062 0.0143444 -3.48531e-21)
(1.00086 0.014324 -1.7246e-21)
(1.00111 0.0142824 1.72334e-21)
(1.00137 0.0142223 3.41907e-21)
(0.999205 0.0056485 0)
(0.998996 0.00577769 4.25638e-21)
(0.99876 0.00593966 -1.27887e-20)
(0.998517 0.00611645 0)
(0.998276 0.00631251 0)
(0.998043 0.00652627 -8.46944e-21)
(0.997821 0.0067573 8.43074e-21)
(0.997611 0.00700738 -4.22544e-21)
(0.997415 0.007271 -8.75801e-24)
(0.997233 0.00755162 4.19137e-21)
(0.997065 0.00784493 0)
(0.996912 0.00815072 0)
(0.996774 0.00846976 4.16648e-21)
(0.996651 0.00879693 0)
(0.996543 0.00913464 0)
(0.996452 0.00947948 -4.10794e-21)
(0.996376 0.00982995 1.6821e-23)
(0.996316 0.0101877 0)
(0.996272 0.0105473 2.0227e-21)
(0.996244 0.0109097 5.05539e-21)
(0.996232 0.0112743 -2.02523e-21)
(0.996237 0.0116375 0)
(0.996257 0.0119995 -9.95359e-22)
(0.996294 0.0123594 1.2432e-21)
(0.996346 0.0127143 -5.41698e-22)
(0.996415 0.013064 -2.46718e-22)
(0.996499 0.0134077 4.84984e-22)
(0.996598 0.013743 -9.7568e-22)
(0.996713 0.0140692 0)
(0.996843 0.0143857 -3.851e-21)
(0.996988 0.0146904 5.73745e-21)
(0.997147 0.0149829 1.87819e-21)
(0.997321 0.015262 -9.91817e-24)
(0.997508 0.0155263 1.87276e-21)
(0.997709 0.0157753 -1.883e-21)
(0.997923 0.0160081 -3.70406e-21)
(0.99815 0.0162233 7.38218e-21)
(0.998389 0.0164204 -3.6715e-21)
(0.99864 0.0165989 7.3003e-21)
(0.998904 0.0167571 3.17235e-24)
(0.999178 0.0168956 7.19152e-21)
(0.999463 0.0170127 -3.57106e-21)
(0.999759 0.0171078 0)
(1.00007 0.0171814 -4.38449e-24)
(1.00038 0.0172312 6.99145e-21)
(1.00071 0.0172585 0)
(1.00105 0.0172607 0)
(1.0014 0.0172375 5.98491e-21)
(1.00178 0.0171954 8.53028e-22)
(0.998641 0.00482492 1.07805e-21)
(0.99836 0.00501187 7.57838e-21)
(0.998042 0.00523972 8.55748e-21)
(0.997713 0.00548499 -8.62025e-21)
(0.997386 0.00575413 0)
(0.997068 0.00604498 -1.23009e-23)
(0.996764 0.00635714 -4.29823e-21)
(0.996476 0.00669299 -4.28123e-21)
(0.996206 0.00704539 1.27345e-20)
(0.995955 0.0074191 -4.23035e-21)
(0.995723 0.00780845 0)
(0.995512 0.00821336 8.41607e-21)
(0.995321 0.00863488 -8.35805e-21)
(0.995151 0.00906637 3.03503e-23)
(0.995002 0.00951122 8.31372e-21)
(0.994874 0.00996491 -2.08809e-21)
(0.994768 0.0104257 -2.02371e-21)
(0.994684 0.0108957 4.11753e-21)
(0.994623 0.011368 0)
(0.994583 0.0118439 -2.02887e-21)
(0.994566 0.0123227 2.02907e-21)
(0.994571 0.0127998 2.01414e-21)
(0.994598 0.0132757 -2.01408e-21)
(0.994648 0.0137489 2.51048e-22)
(0.994719 0.0142162 3.09616e-23)
(0.994813 0.0146771 7.39696e-22)
(0.994928 0.0151307 -2.99758e-24)
(0.995065 0.0155738 0)
(0.995223 0.0160059 0)
(0.995402 0.0164261 7.71405e-26)
(0.995602 0.0168317 -1.90495e-21)
(0.995821 0.0172221 3.83181e-21)
(0.99606 0.0175962 -3.79732e-21)
(0.996318 0.0179519 3.75947e-21)
(0.996595 0.0182888 -7.51476e-21)
(0.99689 0.0186057 1.87162e-23)
(0.997202 0.018901 3.70811e-21)
(0.997531 0.019174 3.65994e-21)
(0.997876 0.0194242 -7.31422e-21)
(0.998237 0.0196496 -7.2509e-21)
(0.998613 0.0198508 -3.60606e-21)
(0.999004 0.0200259 -3.57919e-21)
(0.999409 0.0201743 0)
(0.999828 0.0202966 -3.51696e-21)
(1.00026 0.02039 -1.48945e-23)
(1.00071 0.0204563 6.91614e-21)
(1.00117 0.0204922 -8.57423e-21)
(1.00165 0.0204978 1.68366e-21)
(1.00215 0.0204853 0)
(0.99786 0.00333907 0)
(0.997489 0.00360114 -8.67389e-21)
(0.997071 0.00391073 0)
(0.996637 0.0042412 8.63378e-21)
(0.996202 0.00460142 4.32178e-21)
(0.995779 0.00498828 -8.6338e-21)
(0.995372 0.0054015 1.28866e-20)
(0.994986 0.00584419 4.27225e-21)
(0.994624 0.00630736 -4.26309e-21)
(0.994286 0.00679724 0)
(0.993973 0.00730651 4.25277e-21)
(0.993687 0.00783529 -8.47808e-21)
(0.993428 0.00838482 4.25799e-21)
(0.993197 0.00894679 -4.19515e-21)
(0.992994 0.00952564 3.46099e-23)
(0.992819 0.0101156 4.19343e-21)
(0.992674 0.0107146 -8.34279e-21)
(0.992558 0.0113253 0)
(0.992472 0.011939 4.12346e-21)
(0.992416 0.0125575 -4.12338e-21)
(0.992389 0.01318 -1.01838e-21)
(0.992393 0.0138005 0)
(0.992427 0.0144198 1.01879e-21)
(0.992491 0.0150361 2.51727e-22)
(0.992585 0.0156453 -5.3393e-22)
(0.992709 0.0162469 7.47168e-22)
(0.992862 0.0168395 4.90997e-22)
(0.993044 0.0174195 -9.87504e-22)
(0.993255 0.0179859 0)
(0.993495 0.0185376 -1.93852e-21)
(0.993761 0.0190715 3.87667e-21)
(0.994055 0.0195866 0)
(0.994376 0.0200816 1.90082e-21)
(0.994722 0.020554 0)
(0.995093 0.021003 3.75067e-21)
(0.995487 0.0214275 -7.46272e-21)
(0.995906 0.0218252 3.68969e-21)
(0.996346 0.0221954 -2.63071e-23)
(0.996808 0.0225375 3.61744e-21)
(0.99729 0.0228491 -3.63381e-21)
(0.997791 0.023131 3.59112e-21)
(0.998312 0.0233811 7.12503e-21)
(0.99885 0.0235984 0)
(0.999406 0.023784 0)
(0.999978 0.0239345 -6.96901e-21)
(1.00057 0.0240523 -1.38017e-20)
(1.00118 0.024133 1.36887e-20)
(1.00181 0.0241778 -7.6537e-21)
(1.00248 0.0242063 7.56095e-21)
(0.996815 0.00111535 0)
(0.996325 0.00146519 8.88051e-21)
(0.995788 0.00186476 8.85334e-21)
(0.995229 0.00229472 1.32372e-20)
(0.994662 0.00276582 -1.32151e-20)
(0.994107 0.00327088 -4.3698e-21)
(0.993572 0.00380936 1.31643e-20)
(0.993062 0.00438449 -4.3465e-21)
(0.992581 0.00498505 4.34897e-21)
(0.992132 0.00561904 0)
(0.991715 0.00627735 8.69439e-21)
(0.991334 0.00696032 0)
(0.990986 0.00766934 -4.25941e-21)
(0.990676 0.00839421 -4.30332e-21)
(0.990402 0.00914054 5.72518e-23)
(0.990165 0.00990111 0)
(0.989968 0.0106734 4.23387e-21)
(0.989808 0.0114607 8.43885e-21)
(0.989688 0.0122522 0)
(0.989608 0.0130504 2.07521e-21)
(0.989567 0.0138539 -2.07452e-21)
(0.989566 0.0146557 -2.05299e-21)
(0.989606 0.0154565 2.06472e-21)
(0.989686 0.0162539 -4.62397e-24)
(0.989806 0.0170432 -5.07296e-22)
(0.989965 0.0178233 -2.23021e-22)
(0.990164 0.0185925 -5.00998e-22)
(0.990402 0.0193465 9.97535e-22)
(0.990679 0.0200839 0)
(0.990993 0.0208031 1.951e-21)
(0.991344 0.0215003 -3.88646e-21)
(0.991731 0.0221742 0)
(0.992153 0.0228231 0)
(0.992609 0.0234439 3.7861e-21)
(0.993098 0.0240353 -7.54413e-21)
(0.993618 0.0245963 3.76235e-21)
(0.994169 0.0251238 3.72539e-21)
(0.994748 0.0256171 0)
(0.995356 0.0260753 1.0944e-20)
(0.995989 0.0264956 -7.24192e-21)
(0.996646 0.0268792 -3.57694e-21)
(0.997328 0.0272232 -2.53833e-24)
(0.998031 0.0275268 -7.05382e-21)
(0.998756 0.0277914 -6.98351e-21)
(0.999501 0.0280128 -6.92415e-21)
(1.00027 0.0281943 2.77823e-23)
(1.00106 0.0283306 -3.40175e-23)
(1.00188 0.0284236 0)
(1.00274 0.0285032 -1.33804e-20)
(0.995497 -0.00203868 0)
(0.994847 -0.00152133 2.3504e-21)
(0.994136 -0.000961089 -1.11071e-20)
(0.993404 -0.000430042 -8.86674e-21)
(0.992668 0.000143738 8.84473e-21)
(0.991948 0.000787581 4.51418e-21)
(0.991263 0.0014784 -4.36958e-21)
(0.9906 0.00221443 0)
(0.989969 0.00298427 0)
(0.989377 0.00379656 8.86109e-21)
(0.988827 0.00463998 -8.70293e-21)
(0.988321 0.00551492 4.36187e-21)
(0.987859 0.00642267 -4.35823e-21)
(0.987444 0.00735106 4.34898e-21)
(0.987076 0.00830688 4.34797e-21)
(0.986757 0.00928135 -4.30782e-21)
(0.986488 0.0102714 -4.2509e-21)
(0.986269 0.0112808 -4.22911e-21)
(0.986102 0.0122968 4.22769e-21)
(0.985987 0.0133223 -4.2266e-21)
(0.985924 0.014355 0)
(0.985914 0.0153868 2.10002e-21)
(0.985958 0.0164185 -2.06211e-21)
(0.986054 0.0174465 1.54395e-21)
(0.986203 0.0184654 0)
(0.986406 0.0194734 1.01637e-21)
(0.986661 0.0204683 0)
(0.986968 0.0214448 -9.96333e-22)
(0.987326 0.0224008 1.89143e-23)
(0.987734 0.023334 1.45996e-23)
(0.988192 0.02424 3.93298e-21)
(0.988697 0.0251166 0)
(0.989248 0.0259617 0)
(0.989844 0.0267712 0)
(0.990483 0.0275434 0)
(0.991163 0.0282771 -7.5045e-21)
(0.991883 0.0289684 3.73679e-21)
(0.992639 0.0296161 0)
(0.993431 0.0302193 -3.66084e-21)
(0.994255 0.0307745 -3.63751e-21)