/*--------------------------------*- C++ -*----------------------------------*\
| =========                 |                                                 |
| \\      /  F ield         | OpenFOAM: The Open Source CFD Toolbox           |
|  \\    /   O peration     | Version:  2312                                  |
|   \\  /    A nd           | Website:  www.openfoam.com                      |
|    \\/     M anipulation  |                                                 |
\*---------------------------------------------------------------------------*/
FoamFile
{
    version     2.0;
    format      ascii;
    arch        "LSB;label=32;scalar=64";
    class       volScalarField;
    location    "36.716502849787737";
    object      p;
}
// * * * * * * * * * * * * * * * * * * * * * * * * * * * * * * * * * * * * * //

dimensions      [0 2 -2 0 0 0 0];

internalField   nonuniform List<scalar> 
21039
(
0.597962
0.464235
0.421977
0.393722
0.37239
0.356296
0.343843
0.333929
0.32587
0.319217
0.313653
0.308947
0.304929
0.301466
0.298457
0.295819
0.293485
0.291399
0.289513
0.287786
0.286185
0.284678
0.283238
0.281919
0.280776
0.279767
0.278851
0.277996
0.277185
0.450931
0.413043
0.399181
0.380809
0.364027
0.350724
0.339957
0.331092
0.323734
0.317572
0.312364
0.307924
0.30411
0.300808
0.297927
0.295395
0.293148
0.291136
0.289313
0.287641
0.286086
0.284618
0.28321
0.281913
0.280778
0.279771
0.278856
0.278001
0.277191
0.361472
0.359057
0.361203
0.354454
0.345994
0.338181
0.330911
0.324362
0.318609
0.313591
0.309222
0.305413
0.302085
0.299167
0.296596
0.294318
0.292285
0.290455
0.28879
0.287256
0.285823
0.284461
0.283146
0.281923
0.280841
0.279873
0.278987
0.278155
0.277365
0.323334
0.325445
0.329906
0.328816
0.326182
0.322948
0.319129
0.315191
0.311403
0.307867
0.304627
0.301694
0.299059
0.296697
0.294583
0.292685
0.290975
0.289424
0.288004
0.286688
0.28545
0.284266
0.283112
0.282025
0.281049
0.280163
0.279342
0.27856
0.277808
0.298286
0.302253
0.308134
0.309836
0.310029
0.309291
0.307744
0.305799
0.303679
0.301508
0.299383
0.297363
0.295478
0.293741
0.292153
0.290706
0.289387
0.28818
0.287067
0.28603
0.285047
0.284098
0.283163
0.282266
0.281439
0.280671
0.279942
0.279231
0.278532
0.27861
0.283865
0.291208
0.295071
0.297074
0.297878
0.297802
0.297224
0.296329
0.29524
0.294059
0.292857
0.291681
0.290559
0.289508
0.288536
0.28764
0.286816
0.286053
0.285339
0.284658
0.283993
0.283327
0.282665
0.282027
0.281407
0.280795
0.280174
0.279542
0.265796
0.270819
0.277908
0.282852
0.286076
0.288021
0.289041
0.289482
0.289521
0.289286
0.288884
0.288386
0.287844
0.287296
0.286765
0.286267
0.285808
0.285388
0.285004
0.284648
0.284309
0.283971
0.28362
0.283239
0.282829
0.282391
0.281923
0.281415
0.280867
0.258449
0.262549
0.268288
0.273238
0.276952
0.279546
0.2813
0.282481
0.283238
0.283689
0.283931
0.284037
0.284058
0.284036
0.283997
0.28396
0.283938
0.283935
0.283951
0.283981
0.284018
0.284048
0.284058
0.284005
0.283865
0.283645
0.283351
0.282979
0.282533
0.253874
0.257073
0.261442
0.265939
0.26965
0.272468
0.274603
0.27625
0.277513
0.278487
0.27925
0.279864
0.280377
0.280829
0.281248
0.281655
0.282063
0.282481
0.28291
0.283349
0.283791
0.284227
0.284644
0.284967
0.285142
0.285179
0.285093
0.284885
0.284562
0.250417
0.252865
0.256194
0.260165
0.26369
0.266526
0.268829
0.270741
0.272339
0.273692
0.274858
0.275888
0.276823
0.277698
0.278538
0.279364
0.280191
0.281028
0.281879
0.282743
0.283618
0.284494
0.28536
0.286109
0.286646
0.286984
0.287143
0.28713
0.286956
0.247378
0.249224
0.251806
0.255271
0.258562
0.261348
0.263722
0.26579
0.267611
0.269239
0.270718
0.272087
0.273381
0.274629
0.275853
0.277074
0.278305
0.279555
0.280831
0.282133
0.283461
0.284807
0.286165
0.287388
0.288336
0.28902
0.289465
0.289689
0.289695
0.244448
0.245845
0.2479
0.250903
0.253948
0.256653
0.259051
0.261213
0.26319
0.265024
0.26675
0.2684
0.270001
0.271579
0.273154
0.274744
0.276362
0.278017
0.279717
0.281465
0.283262
0.285104
0.286988
0.288731
0.290139
0.291216
0.291985
0.292461
0.29267
0.241471
0.242554
0.244242
0.246847
0.249654
0.252262
0.254649
0.256864
0.25895
0.260941
0.262866
0.264749
0.266615
0.268486
0.270381
0.272315
0.274302
0.276353
0.278474
0.28067
0.282942
0.285293
0.287726
0.290021
0.291929
0.293442
0.294583
0.29536
0.295792
0.238382
0.239248
0.240673
0.242945
0.245532
0.248036
0.250391
0.25263
0.254789
0.256898
0.25898
0.261057
0.263151
0.265282
0.267466
0.269722
0.272062
0.274497
0.277033
0.279673
0.282417
0.285271
0.288247
0.291094
0.293514
0.295491
0.297043
0.298168
0.298876
0.235166
0.23588
0.237097
0.239077
0.241451
0.243845
0.246158
0.248401
0.250606
0.2528
0.255004
0.257239
0.259524
0.26188
0.264326
0.266881
0.269558
0.272366
0.275309
0.278386
0.281593
0.284927
0.288403
0.291737
0.294604
0.297002
0.298951
0.300436
0.301449
0.232097
0.2327
0.233755
0.235514
0.237716
0.240007
0.242271
0.244506
0.246737
0.248989
0.25128
0.253633
0.256068
0.258609
0.261279
0.264098
0.267079
0.270232
0.273557
0.277046
0.280679
0.284429
0.288279
0.291881
0.294906
0.297417
0.299501
0.301177
0.302431
0.229492
0.230023
0.230975
0.232595
0.234667
0.236867
0.239087
0.241317
0.24357
0.245866
0.248224
0.250669
0.253225
0.255919
0.258779
0.261826
0.265077
0.268543
0.272223
0.276101
0.280136
0.28426
0.288384
0.292016
0.294767
0.296771
0.298265
0.29949
0.300652
0.227329
0.227814
0.228694
0.230211
0.232182
0.234321
0.236529
0.238774
0.241057
0.243396
0.245816
0.248343
0.251008
0.253843
0.256877
0.260136
0.263644
0.267414
0.271449
0.275728
0.280197
0.284747
0.289198
0.292828
0.295012
0.295751
0.295279
0.29408
0.293222
0.225582
0.226116
0.227015
0.228431
0.230234
0.232266
0.234462
0.236744
0.239074
0.241466
0.243953
0.246567
0.249344
0.252319
0.255526
0.258997
0.262762
0.266843
0.271248
0.275961
0.280933
0.286038
0.291044
0.295002
0.296885
0.296177
0.292521
0.28533
0.274274
0.276399
0.275607
0.274821
0.274039
0.27326
0.272483
0.271707
0.270931
0.270155
0.269377
0.268597
0.267814
0.267027
0.266235
0.265439
0.264636
0.263828
0.263012
0.26219
0.26136
0.260523
0.259678
0.258825
0.257965
0.257097
0.256221
0.255339
0.25445
0.253556
0.252655
0.251749
0.250838
0.249923
0.249005
0.248085
0.247162
0.246239
0.245317
0.244395
0.243475
0.242559
0.241646
0.240738
0.239837
0.238943
0.238056
0.237179
0.23631
0.235452
0.276407
0.275625
0.274849
0.274078
0.273309
0.272542
0.271776
0.271009
0.270243
0.269474
0.268702
0.267927
0.267148
0.266363
0.265573
0.264776
0.263972
0.263161
0.262342
0.261514
0.260678
0.259834
0.25898
0.258119
0.257249
0.25637
0.255484
0.254591
0.25369
0.252783
0.251869
0.250951
0.250028
0.249101
0.248171
0.247239
0.246306
0.245372
0.244439
0.243508
0.24258
0.241655
0.240735
0.239821
0.238914
0.238015
0.237125
0.236245
0.235375
0.276604
0.275847
0.275095
0.274346
0.2736
0.272854
0.272108
0.271361
0.270612
0.26986
0.269103
0.268341
0.267573
0.266799
0.266016
0.265225
0.264425
0.263616
0.262796
0.261967
0.261127
0.260276
0.259416
0.258544
0.257663
0.256771
0.25587
0.25496
0.254041
0.253114
0.25218
0.25124
0.250293
0.249342
0.248386
0.247428
0.246467
0.245505
0.244543
0.243582
0.242623
0.241668
0.240717
0.239771
0.238832
0.2379
0.236977
0.236064
0.235162
0.277084
0.276365
0.275648
0.274932
0.274216
0.2735
0.272781
0.272058
0.271331
0.270599
0.269859
0.269112
0.268356
0.26759
0.266813
0.266025
0.265226
0.264414
0.263589
0.262751
0.2619
0.261036
0.260158
0.259268
0.258365
0.257449
0.256521
0.255582
0.254633
0.253673
0.252704
0.251726
0.250741
0.249749
0.248752
0.24775
0.246745
0.245737
0.244728
0.243719
0.242712
0.241706
0.240704
0.239707
0.238715
0.237731
0.236754
0.235787
0.23483
0.277856
0.277187
0.276516
0.275842
0.275166
0.274486
0.2738
0.273107
0.272406
0.271695
0.270975
0.270242
0.269498
0.268739
0.267967
0.267179
0.266376
0.265556
0.26472
0.263867
0.262998
0.262111
0.261209
0.260289
0.259354
0.258403
0.257437
0.256457
0.255464
0.254458
0.25344
0.252411
0.251373
0.250326
0.249271
0.24821
0.247144
0.246074
0.245001
0.243927
0.242853
0.24178
0.240709
0.239642
0.23858
0.237523
0.236474
0.235433
0.234402
0.278929
0.278323
0.277708
0.277087
0.276459
0.275823
0.275176
0.274518
0.273848
0.273163
0.272464
0.271748
0.271015
0.270263
0.269492
0.268701
0.26789
0.267058
0.266205
0.26533
0.264435
0.263518
0.26258
0.261622
0.260643
0.259646
0.25863
0.257596
0.256545
0.255478
0.254397
0.253302
0.252195
0.251076
0.249948
0.248811
0.247667
0.246518
0.245364
0.244207
0.243048
0.24189
0.240732
0.239577
0.238425
0.237279
0.236138
0.235005
0.233883
0.28033
0.279799
0.279253
0.278695
0.278124
0.27754
0.27694
0.276323
0.275688
0.275032
0.274356
0.273658
0.272936
0.272189
0.271418
0.27062
0.269797
0.268947
0.26807
0.267166
0.266236
0.265279
0.264296
0.263287
0.262254
0.261197
0.260117
0.259016
0.257893
0.256751
0.25559
0.254413
0.25322
0.252013
0.250794
0.249564
0.248324
0.247076
0.245822
0.244563
0.243302
0.242038
0.240774
0.239512
0.238252
0.236996
0.235746
0.234502
0.233269
0.282089
0.281647
0.281181
0.280696
0.280193
0.279669
0.279123
0.278552
0.277956
0.277334
0.276682
0.276002
0.275291
0.274548
0.273774
0.272966
0.272125
0.271251
0.270343
0.269402
0.268428
0.267421
0.266382
0.265312
0.264212
0.263082
0.261924
0.26074
0.25953
0.258296
0.257039
0.255762
0.254466
0.253152
0.251822
0.250479
0.249123
0.247758
0.246384
0.245003
0.243617
0.242228
0.240838
0.239448
0.238059
0.236674
0.235293
0.233919
0.232556
0.284228
0.283887
0.283513
0.283113
0.282687
0.282233
0.281748
0.28123
0.280679
0.280092
0.279469
0.278808
0.278107
0.277367
0.276587
0.275765
0.274903
0.273998
0.273053
0.272067
0.27104
0.269974
0.268868
0.267725
0.266545
0.265328
0.264078
0.262796
0.261482
0.260139
0.258769
0.257372
0.255953
0.254512
0.253051
0.251574
0.250081
0.248575
0.247058
0.245532
0.244
0.242462
0.240922
0.239381
0.237841
0.236303
0.234769
0.233243
0.23173
0.28675
0.286523
0.286255
0.285953
0.285615
0.28524
0.284825
0.284368
0.283868
0.283323
0.282731
0.282092
0.281404
0.280668
0.279881
0.279044
0.278157
0.277219
0.276231
0.275194
0.274108
0.272973
0.271792
0.270564
0.269292
0.267976
0.266619
0.265223
0.263788
0.262318
0.260814
0.259278
0.257714
0.256122
0.254507
0.25287
0.251214
0.249542
0.247855
0.246158
0.244451
0.242738
0.241021
0.239302
0.237583
0.235867
0.234154
0.23245
0.230763
0.289629
0.28953
0.289385
0.289191
0.288957
0.288675
0.288344
0.287958
0.287519
0.287024
0.286472
0.285862
0.285193
0.284465
0.283676
0.282826
0.281916
0.280946
0.279916
0.278825
0.277676
0.27647
0.275205
0.273885
0.272512
0.271084
0.269607
0.268081
0.266507
0.26489
0.263231
0.261532
0.259798
0.258029
0.25623
0.254405
0.252554
0.250683
0.248794
0.246891
0.244977
0.243053
0.241125
0.239193
0.237262
0.235334
0.23341
0.231498
0.229606
0.292812
0.292891
0.29291
0.292739
0.292653
0.292492
0.29226
0.291963
0.291602
0.291174
0.290679
0.290113
0.289478
0.288772
0.287994
0.287145
0.286224
0.285231
0.284167
0.28303
0.281823
0.280546
0.279199
0.277784
0.276303
0.274755
0.273146
0.271475
0.269744
0.267958
0.266119
0.264229
0.262294
0.260313
0.258294
0.256241
0.254154
0.252041
0.249905
0.24775
0.245582
0.243401
0.241215
0.239026
0.236838
0.234654
0.232476
0.230315
0.22818
0.296115
0.296351
0.296523
0.296638
0.296675
0.296631
0.296508
0.29632
0.296065
0.295731
0.295322
0.294831
0.29426
0.293608
0.292872
0.292053
0.291148
0.290157
0.289083
0.28792
0.286672
0.285339
0.283918
0.282414
0.280827
0.279155
0.277404
0.275575
0.273667
0.271688
0.269639
0.267521
0.265343
0.263105
0.260816
0.25848
0.256099
0.253684
0.251237
0.248766
0.246277
0.243772
0.241264
0.238751
0.236243
0.233742
0.231252
0.228784
0.226355
0.299434
0.29986
0.300202
0.300479
0.300685
0.300821
0.300883
0.300866
0.300767
0.300585
0.30035
0.299996
0.299554
0.299021
0.298387
0.297655
0.296819
0.295881
0.294842
0.293694
0.292442
0.291084
0.289614
0.288039
0.286356
0.284563
0.282666
0.280664
0.278556
0.276351
0.274049
0.271654
0.269175
0.266613
0.263978
0.261277
0.258514
0.255703
0.252849
0.249961
0.24705
0.244121
0.241188
0.238254
0.235332
0.232425
0.229538
0.226687
0.223892
0.302274
0.302914
0.303477
0.30399
0.304446
0.304845
0.305177
0.305437
0.305617
0.305701
0.305689
0.305572
0.305376
0.305096
0.304654
0.304103
0.303423
0.302618
0.301691
0.300626
0.299432
0.298103
0.296631
0.295021
0.293268
0.291366
0.289323
0.287136
0.2848
0.282328
0.279719
0.276976
0.274113
0.271128
0.268039
0.264855
0.261579
0.258234
0.254825
0.251369
0.247881
0.24437
0.240858
0.237351
0.23387
0.230422
0.227015
0.223671
0.220414
0.3035
0.304319
0.305156
0.306046
0.306955
0.307855
0.308702
0.309469
0.310134
0.310673
0.311084
0.311348
0.311467
0.311444
0.311298
0.311106
0.310671
0.310092
0.309369
0.308479
0.30743
0.306212
0.304809
0.303228
0.301455
0.29948
0.29731
0.294938
0.292356
0.289578
0.286603
0.283435
0.280092
0.276573
0.272902
0.269091
0.265149
0.261104
0.256966
0.252759
0.248504
0.244215
0.239926
0.23565
0.231423
0.227263
0.223189
0.219237
0.215438
0.301907
0.302817
0.304108
0.305765
0.307584
0.309413
0.311126
0.312661
0.313989
0.315093
0.315994
0.316689
0.317203
0.317545
0.3177
0.317695
0.317634
0.31736
0.316915
0.316279
0.315462
0.314444
0.313201
0.311733
0.31002
0.308039
0.305795
0.303274
0.300463
0.297379
0.294018
0.290388
0.286513
0.282394
0.278067
0.273548
0.26885
0.264014
0.259049
0.253987
0.248852
0.243661
0.238454
0.23325
0.228097
0.223037
0.218118
0.213418
0.209001
0.293126
0.294496
0.297938
0.302183
0.306292
0.30992
0.312959
0.315447
0.317468
0.319088
0.320398
0.321435
0.32226
0.322907
0.323378
0.323688
0.323829
0.323906
0.32382
0.323515
0.323022
0.32231
0.321335
0.320089
0.318536
0.316635
0.314383
0.311754
0.308729
0.305328
0.301547
0.2974
0.292921
0.288119
0.283045
0.277726
0.272185
0.266476
0.260614
0.254639
0.248572
0.242424
0.236229
0.229982
0.223723
0.217487
0.211359
0.20554
0.200315
0.265946
0.276793
0.289097
0.299147
0.306626
0.312059
0.316009
0.318955
0.321219
0.322996
0.324435
0.325599
0.326569
0.327386
0.32807
0.328654
0.329102
0.329441
0.329741
0.329833
0.329737
0.329418
0.32881
0.327897
0.326623
0.324916
0.322754
0.320096
0.31691
0.313225
0.309038
0.304372
0.299279
0.293779
0.287942
0.281814
0.275431
0.268868
0.26215
0.255329
0.24843
0.241456
0.234422
0.227275
0.219973
0.212422
0.20453
0.196362
0.188561
0.234613
0.233746
0.23281
0.231794
0.23068
0.229462
0.228168
0.226954
0.225937
0.225147
0.224619
0.224387
0.224492
0.224982
0.225908
0.227335
0.229341
0.232024
0.235511
0.239969
0.245622
0.252783
0.261897
0.273643
0.28912
0.309925
0.337749
0.37959
0.512976
0.234521
0.233638
0.232683
0.231642
0.230496
0.22924
0.227901
0.226637
0.225569
0.224726
0.224141
0.223846
0.223882
0.224289
0.225116
0.226421
0.228275
0.230762
0.233992
0.238101
0.243271
0.249738
0.257809
0.267874
0.28056
0.296805
0.314734
0.328167
0.365741
0.234275
0.233355
0.232354
0.231257
0.230043
0.228702
0.227261
0.225883
0.224695
0.223725
0.223002
0.222556
0.222419
0.222625
0.223211
0.224223
0.22571
0.227729
0.230346
0.233636
0.237678
0.242556
0.248323
0.254901
0.2621
0.270016
0.276291
0.273666
0.275778
0.233885
0.232902
0.231827
0.23064
0.229319
0.227848
0.226248
0.224694
0.223321
0.222156
0.221222
0.220544
0.220145
0.220049
0.22028
0.220863
0.221821
0.223177
0.224946
0.227133
0.229721
0.232656
0.23583
0.238971
0.241599
0.243683
0.244268
0.239311
0.236937
0.23338
0.23231
0.231133
0.229826
0.22836
0.226715
0.224907
0.223124
0.221514
0.220102
0.218904
0.217941
0.217222
0.216768
0.216585
0.216679
0.217051
0.217695
0.218591
0.2197
0.220956
0.222255
0.223463
0.224352
0.224499
0.223764
0.221549
0.215199
0.211027
0.232763
0.231585
0.230281
0.228824
0.227179
0.22532
0.223259
0.2212
0.219311
0.217611
0.216114
0.214831
0.21377
0.212935
0.212324
0.21193
0.211739
0.211725
0.211853
0.212065
0.212285
0.2124
0.212279
0.211729
0.210363
0.207836
0.203478
0.195708
0.190303
0.232032
0.230724
0.229267
0.227629
0.22577
0.223657
0.221299
0.218922
0.216717
0.214699
0.212877
0.211258
0.209844
0.20863
0.207605
0.206755
0.206055
0.205472
0.204959
0.204456
0.203879
0.203116
0.202027
0.200426
0.197959
0.194246
0.188844
0.181382
0.176258
0.23118
0.229716
0.228078
0.226227
0.224118
0.22171
0.21901
0.216277
0.213724
0.211364
0.209203
0.207243
0.205478
0.203899
0.202491
0.20123
0.200087
0.199023
0.197987
0.196916
0.195728
0.194317
0.192554
0.19028
0.187219
0.183071
0.17772
0.171678
0.167518
0.230192
0.228545
0.226695
0.224596
0.222196
0.21945
0.216366
0.213239
0.210312
0.207594
0.205088
0.20279
0.20069
0.198774
0.197021
0.195404
0.193889
0.192434
0.19099
0.189495
0.187877
0.186046
0.1839
0.181323
0.178112
0.174042
0.169221
0.164626
0.1614
0.229035
0.227176
0.225079
0.222692
0.219958
0.216829
0.213318
0.209763
0.20644
0.203355
0.200507
0.197886
0.195476
0.19326
0.19121
0.189298
0.187487
0.185736
0.183997
0.182216
0.180332
0.178275
0.175965
0.173317
0.170182
0.166392
0.162188
0.158709
0.156256
0.227657
0.225549
0.223165
0.220445
0.217329
0.213767
0.209784
0.205771
0.202038
0.198588
0.19541
0.19249
0.189806
0.187334
0.185044
0.182903
0.180875
0.178917
0.176987
0.175035
0.173012
0.17086
0.168516
0.165912
0.162939
0.159493
0.155895
0.153234
0.151401
0.225968
0.223568
0.220848
0.217743
0.214189
0.210143
0.205645
0.20115
0.197004
0.193199
0.189718
0.186536
0.183625
0.180953
0.178485
0.176184
0.174017
0.171935
0.169901
0.167871
0.1658
0.163643
0.161347
0.158855
0.156091
0.153013
0.149979
0.147912
0.146541
0.223826
0.221079
0.217964
0.214411
0.210359
0.205776
0.200728
0.195743
0.191197
0.187069
0.183328
0.179938
0.17686
0.174054
0.171479
0.169095
0.166859
0.164733
0.162675
0.160645
0.158603
0.15651
0.154324
0.151995
0.149471
0.146762
0.144229
0.142588
0.14154
0.220976
0.217814
0.214235
0.210166
0.205558
0.200399
0.194789
0.189332
0.184431
0.180039
0.176108
0.172586
0.16942
0.166561
0.163961
0.161573
0.159353
0.15726
0.155253
0.153294
0.151347
0.149379
0.147352
0.145223
0.14296
0.140608
0.138508
0.13718
0.136357
0.217019
0.213359
0.209241
0.204594
0.199391
0.193651
0.187514
0.181657
0.176489
0.171934
0.167917
0.164366
0.161215
0.158403
0.155872
0.153572
0.151453
0.149472
0.147591
0.145772
0.143981
0.142188
0.140359
0.13846
0.136474
0.134472
0.132758
0.131674
0.131001
0.211501
0.207308
0.202648
0.197466
0.19176
0.185577
0.179088
0.173018
0.167761
0.163207
0.159257
0.155818
0.152809
0.150156
0.147798
0.145676
0.143741
0.141947
0.140255
0.138629
0.137036
0.135448
0.133838
0.132178
0.130464
0.128771
0.127366
0.126476
0.125906
0.204473
0.199764
0.194695
0.189195
0.183251
0.176906
0.17034
0.164295
0.159148
0.154762
0.151018
0.147806
0.145034
0.142623
0.140502
0.138614
0.136907
0.135334
0.133857
0.13244
0.131052
0.129667
0.128263
0.126828
0.125365
0.123936
0.122763
0.122016
0.12152
0.195274
0.190351
0.185382
0.180051
0.174263
0.168065
0.161669
0.155843
0.150954
0.146854
0.143407
0.140495
0.138017
0.135888
0.134038
0.132407
0.130943
0.129601
0.128344
0.127135
0.125945
0.124746
0.12352
0.12227
0.121018
0.119817
0.118844
0.118221
0.117787
0.182485
0.178847
0.175102
0.170527
0.165242
0.159418
0.15336
0.147883
0.143349
0.139605
0.136508
0.133932
0.13177
0.129938
0.128365
0.12699
0.125765
0.124646
0.123596
0.122581
0.121569
0.120529
0.11945
0.118371
0.117367
0.116457
0.115685
0.115111
0.114656
0.223796
0.22411
0.224827
0.226264
0.228256
0.23049
0.232811
0.235153
0.237524
0.239967
0.242526
0.245238
0.248138
0.251263
0.254652
0.258341
0.262367
0.266759
0.271531
0.276674
0.282146
0.287821
0.293437
0.297902
0.299836
0.29804
0.290966
0.276233
0.245416
0.222018
0.222454
0.223284
0.224707
0.226612
0.22877
0.231053
0.2334
0.235815
0.238332
0.240987
0.243817
0.246857
0.250147
0.25373
0.257649
0.261946
0.266661
0.271818
0.277433
0.283504
0.28997
0.296652
0.302568
0.306413
0.307465
0.305115
0.30129
0.30569
0.220205
0.220722
0.221635
0.223051
0.224884
0.226965
0.229191
0.23152
0.233956
0.236523
0.239252
0.242174
0.245329
0.248758
0.25251
0.256637
0.261193
0.266232
0.27181
0.277989
0.284856
0.292523
0.301117
0.310175
0.318797
0.327233
0.33571
0.343101
0.359974
0.218331
0.218826
0.219712
0.221111
0.222946
0.225032
0.227253
0.229578
0.232024
0.234622
0.237399
0.24039
0.243633
0.247175
0.25107
0.255378
0.260168
0.265516
0.271513
0.278283
0.286023
0.295074
0.305927
0.318756
0.332691
0.348235
0.366043
0.382432
0.404238
0.216397
0.216857
0.217691
0.219058
0.220892
0.222989
0.225216
0.227544
0.229998
0.232613
0.235423
0.238462
0.241772
0.245402
0.24941
0.253866
0.258851
0.264463
0.270825
0.278126
0.286653
0.29698
0.309772
0.325872
0.343874
0.364609
0.388754
0.412009
0.438142
0.214406
0.214847
0.215649
0.216975
0.218776
0.220853
0.223067
0.225385
0.227836
0.230456
0.23328
0.236345
0.239694
0.243378
0.247461
0.252017
0.257139
0.262939
0.269565
0.277263
0.286343
0.297646
0.311578
0.329971
0.349716
0.373353
0.400431
0.429591
0.458873
0.212351
0.212782
0.21356
0.214844
0.216592
0.218623
0.220801
0.223092
0.225522
0.228126
0.230941
0.234003
0.237357
0.241056
0.245164
0.24976
0.254941
0.26083
0.267575
0.275488
0.284772
0.296687
0.310587
0.329777
0.351727
0.375911
0.401965
0.42924
0.45675
0.210229
0.210648
0.2114
0.212635
0.214322
0.216294
0.21842
0.220665
0.223052
0.225617
0.228395
0.231423
0.234744
0.238411
0.242488
0.247053
0.252202
0.258066
0.26475
0.272659
0.281733
0.293348
0.30809
0.326723
0.347893
0.370442
0.393575
0.416914
0.440223
0.208036
0.208442
0.209165
0.210347
0.211962
0.213861
0.215919
0.2181
0.220424
0.222925
0.225637
0.228596
0.231842
0.235427
0.239412
0.243871
0.248886
0.254603
0.261039
0.268598
0.277623
0.288712
0.302807
0.319876
0.338601
0.358179
0.377832
0.397303
0.415913
0.205771
0.206165
0.206858
0.20798
0.209512
0.211324
0.213297
0.215395
0.217633
0.220044
0.22266
0.225514
0.228644
0.232096
0.235925
0.240201
0.244978
0.250398
0.256556
0.26368
0.272156
0.282294
0.294781
0.309528
0.3252
0.34117
0.356867
0.372314
0.386549
0.203431
0.203811
0.20447
0.205528
0.20697
0.208682
0.210555
0.21255
0.214682
0.216978
0.219468
0.222182
0.225154
0.228422
0.232034
0.23605
0.240532
0.245582
0.251296
0.257787
0.265315
0.274142
0.284649
0.296651
0.308972
0.321054
0.332511
0.343663
0.353675
0.201017
0.201384
0.202009
0.202997
0.204341
0.205941
0.207697
0.209571
0.211574
0.21373
0.216067
0.218608
0.221382
0.224421
0.227766
0.231471
0.23558
0.240156
0.245263
0.25095
0.257354
0.264664
0.273019
0.282096
0.290972
0.299215
0.30661
0.31364
0.319737
0.198532
0.19889
0.199483
0.200399
0.201633
0.203105
0.204725
0.206458
0.208311
0.210305
0.212461
0.214798
0.217338
0.220111
0.223143
0.226476
0.230134
0.234146
0.238536
0.243314
0.248514
0.254208
0.260341
0.266521
0.272114
0.276864
0.280725
0.284224
0.287025
0.195976
0.196321
0.196875
0.197715
0.198836
0.200173
0.201647
0.203226
0.20491
0.206719
0.208671
0.210777
0.213055
0.215525
0.218202
0.221111
0.224258
0.227647
0.231263
0.235073
0.239033
0.2431
0.247079
0.250584
0.253275
0.255079
0.256088
0.256824
0.257143
0.193353
0.193688
0.194204
0.194963
0.195965
0.197157
0.198474
0.199883
0.201381
0.20299
0.204719
0.206574
0.208564
0.210701
0.212989
0.215438
0.218037
0.220767
0.223583
0.226406
0.229137
0.23165
0.23366
0.234837
0.23512
0.234587
0.233432
0.232168
0.230824
0.19067
0.190995
0.191474
0.192152
0.193029
0.194068
0.195214
0.196442
0.197736
0.199138
0.200626
0.20221
0.203892
0.205673
0.207548
0.209511
0.211539
0.213591
0.215597
0.217448
0.219004
0.220089
0.220371
0.21961
0.21799
0.215709
0.213021
0.210432
0.208141
0.187929
0.188243
0.188681
0.189276
0.190027
0.190911
0.191881
0.192911
0.194012
0.195184
0.19642
0.197721
0.19908
0.20049
0.201936
0.203402
0.204849
0.206221
0.20743
0.208349
0.208816
0.208631
0.207445
0.205138
0.202096
0.198604
0.194919
0.191555
0.188865
0.185139
0.185444
0.185841
0.186352
0.186976
0.187701
0.188489
0.189322
0.190213
0.191151
0.192129
0.193139
0.194168
0.1952
0.196214
0.19718
0.19805
0.198756
0.199199
0.199245
0.198725
0.197433
0.19504
0.19155
0.187515
0.183261
0.179
0.175256
0.172537
0.182307
0.182607
0.182964
0.183395
0.18389
0.184451
0.185051
0.185686
0.18636
0.187061
0.187778
0.188495
0.189191
0.189846
0.190429
0.190902
0.191209
0.191274
0.190993
0.19023
0.188823
0.186579
0.183206
0.178845
0.174168
0.169507
0.164984
0.161144
0.158648
0.17944
0.179733
0.180047
0.180398
0.180766
0.181163
0.181586
0.182022
0.182479
0.182946
0.183402
0.183827
0.184196
0.18448
0.184643
0.184639
0.184407
0.183865
0.182908
0.181406
0.179208
0.176145
0.171983
0.167002
0.16197
0.157192
0.152661
0.148955
0.146878
0.176547
0.176834
0.177106
0.177382
0.177614
0.177871
0.178108
0.178347
0.178594
0.17883
0.179032
0.179174
0.179226
0.179153
0.178915
0.17846
0.177723
0.176618
0.175043
0.172873
0.169976
0.166212
0.161412
0.156001
0.150831
0.146164
0.141834
0.138456
0.136992
0.173636
0.173916
0.174153
0.174344
0.174481
0.174574
0.174629
0.17468
0.174723
0.174736
0.174694
0.174565
0.174315
0.173906
0.173292
0.172419
0.171216
0.169601
0.16747
0.164708
0.161197
0.156826
0.151494
0.145769
0.140597
0.136202
0.132234
0.129365
0.128732
0.170716
0.170989
0.171205
0.171327
0.171346
0.171279
0.171164
0.171034
0.170882
0.170685
0.170412
0.170028
0.169496
0.168774
0.167815
0.166559
0.164939
0.162869
0.16025
0.156974
0.152934
0.148038
0.142237
0.136229
0.131078
0.127009
0.123487
0.121271
0.121719
0.167795
0.168062
0.168251
0.168304
0.168204
0.167994
0.167724
0.167426
0.167094
0.166701
0.166214
0.165594
0.164803
0.163796
0.162524
0.16093
0.158942
0.156481
0.153449
0.149745
0.145269
0.139933
0.133717
0.127406
0.122196
0.118368
0.115238
0.113728
0.11548
0.164882
0.16515
0.165313
0.1653
0.165089
0.164742
0.164323
0.163869
0.163373
0.162803
0.162121
0.161288
0.160263
0.159003
0.157457
0.155569
0.153271
0.150486
0.147125
0.143093
0.138294
0.132632
0.126077
0.119428
0.113982
0.11012
0.107076
0.106151
0.109429
0.161984
0.162246
0.162375
0.162294
0.161982
0.161513
0.160965
0.160379
0.159742
0.159016
0.158162
0.157138
0.155908
0.154426
0.152646
0.150512
0.147961
0.144924
0.141322
0.137071
0.132084
0.126261
0.119539
0.112644
0.106855
0.102578
0.0989444
0.0980714
0.103054
0.159126
0.159435
0.159591
0.159467
0.159032
0.158392
0.157681
0.156959
0.156196
0.155337
0.154335
0.153151
0.151746
0.15008
0.148108
0.145779
0.143035
0.139818
0.136062
0.131706
0.126681
0.120869
0.11414
0.107103
0.100951
0.0960225
0.0910869
0.0887912
0.094304
0.149199
0.130062
0.103387
0.0687698
0.0290114
-0.010553
-0.0470154
-0.0801723
-0.11096
-0.142542
-0.175216
-0.211496
-0.248749
-0.283547
-0.311613
-0.330241
-0.339586
-0.342104
-0.341731
0.157832
0.143503
0.118244
0.0832887
0.0404261
-0.00550607
-0.0513184
-0.0961295
-0.139625
-0.185982
-0.232365
-0.27901
-0.323645
-0.36264
-0.392554
-0.41219
-0.422981
-0.427766
-0.429537
0.154023
0.141059
0.117326
0.0827593
0.0380006
-0.0125792
-0.0656206
-0.122311
-0.178991
-0.235735
-0.292126
-0.347014
-0.397472
-0.439958
-0.471889
-0.493017
-0.505331
-0.51171
-0.514869
0.144547
0.131946
0.110295
0.0765243
0.0299094
-0.0255007
-0.0860849
-0.150186
-0.215942
-0.282217
-0.348016
-0.411071
-0.467563
-0.513706
-0.547479
-0.569541
-0.582678
-0.590047
-0.594189
0.131762
0.120312
0.100493
0.0674886
0.0198819
-0.0384662
-0.10412
-0.174696
-0.248599
-0.324084
-0.398605
-0.468528
-0.529327
-0.577423
-0.611803
-0.634189
-0.648005
-0.656352
-0.661356
0.114185
0.103542
0.0855
0.0540637
0.00688726
-0.0527705
-0.121827
-0.19807
-0.279122
-0.362152
-0.443317
-0.517898
-0.581128
-0.630135
-0.665019
-0.688264
-0.703561
-0.713711
-0.7204
0.0922715
0.080996
0.0637372
0.0337696
-0.0123189
-0.072255
-0.143306
-0.223203
-0.30881
-0.396212
-0.480463
-0.556049
-0.618366
-0.665542
-0.698756
-0.721057
-0.736233
-0.746642
-0.753607
0.0672299
0.0541158
0.0361952
0.00660522
-0.0386543
-0.0981976
-0.169644
-0.250622
-0.337569
-0.425784
-0.509482
-0.582822
-0.641862
-0.685892
-0.716944
-0.738256
-0.753367
-0.764046
-0.771366
0.0400501
0.0245698
0.00488668
-0.0255632
-0.0706455
-0.129442
-0.199921
-0.279757
-0.365148
-0.450817
-0.530484
-0.598542
-0.652078
-0.691485
-0.719339
-0.738813
-0.753087
-0.763423
-0.770569
0.0116168
-0.00621155
-0.0281409
-0.0602297
-0.10571
-0.163674
-0.232348
-0.309539
-0.391313
-0.472057
-0.545445
-0.606582
-0.653749
-0.688252
-0.712933
-0.730734
-0.744409
-0.754844
-0.762432
-0.0171019
-0.0369738
-0.0611609
-0.0951467
-0.14139
-0.198646
-0.265161
-0.33871
-0.41513
-0.48862
-0.553275
-0.605379
-0.64449
-0.672613
-0.692616
-0.707107
-0.718347
-0.727004
-0.733263
-0.0449736
-0.0664044
-0.0924896
-0.128098
-0.175012
-0.231476
-0.295518
-0.364689
-0.434599
-0.499615
-0.554792
-0.597838
-0.629401
-0.651816
-0.667711
-0.679236
-0.688121
-0.69495
-0.699795
-0.0709581
-0.0933787
-0.120781
-0.157356
-0.204394
-0.259645
-0.320841
-0.38526
-0.448422
-0.505181
-0.551771
-0.587179
-0.612763
-0.63089
-0.643835
-0.653348
-0.660767
-0.66668
-0.670986
-0.0943418
-0.117224
-0.145343
-0.18215
-0.228621
-0.282084
-0.339936
-0.399125
-0.455183
-0.503709
-0.542225
-0.570809
-0.591227
-0.605681
-0.616055
-0.623724
-0.629694
-0.634522
-0.638007
-0.114708
-0.137607
-0.165895
-0.202243
-0.247437
-0.298473
-0.352448
-0.40606
-0.455094
-0.496118
-0.52787
-0.551196
-0.567964
-0.580063
-0.588966
-0.595708
-0.601031
-0.605424
-0.608621
-0.132026
-0.154616
-0.182633
-0.217973
-0.261319
-0.309438
-0.359246
-0.407359
-0.450022
-0.484784
-0.511334
-0.530941
-0.545371
-0.556178
-0.564485
-0.571064
-0.576485
-0.58113
-0.584634
-0.146628
-0.168733
-0.196206
-0.230205
-0.27134
-0.316177
-0.36151
-0.404017
-0.440601
-0.469816
-0.492079
-0.508823
-0.521574
-0.531524
-0.539481
-0.545992
-0.551491
-0.55623
-0.559815
-0.158957
-0.180531
-0.207336
-0.239843
-0.278591
-0.319978
-0.360781
-0.39794
-0.429146
-0.453826
-0.472856
-0.487626
-0.499358
-0.508905
-0.516806
-0.523417
-0.529067
-0.533905
-0.537554
-0.169531
-0.190656
-0.216829
-0.247887
-0.284297
-0.322345
-0.358922
-0.391361
-0.418109
-0.439243
-0.455856
-0.469191
-0.480186
-0.489421
-0.497233
-0.503845
-0.509515
-0.514335
-0.517961
-0.178883
-0.199768
-0.225537
-0.255372
-0.289573
-0.324291
-0.356659
-0.384598
-0.407356
-0.425493
-0.440127
-0.452257
-0.46253
-0.471301
-0.478764
-0.485057
-0.490397
-0.494857
-0.498163
-0.187331
-0.208346
-0.234143
-0.263168
-0.295394
-0.326847
-0.35511
-0.378891
-0.398197
-0.413865
-0.426882
-0.43796
-0.447495
-0.455675
-0.462605
-0.46838
-0.473187
-0.477116
-0.479982
-0.195061
-0.216783
-0.243281
-0.272053
-0.302509
-0.330615
-0.354697