/*--------------------------------*- C++ -*----------------------------------*\
| =========                 |                                                 |
| \\      /  F ield         | OpenFOAM: The Open Source CFD Toolbox           |
|  \\    /   O peration     | Version:  2312                                  |
|   \\  /    A nd           | Website:  www.openfoam.com                      |
|    \\/     M anipulation  |                                                 |
\*---------------------------------------------------------------------------*/
FoamFile
{
    version     2.0;
    format      ascii;
    arch        "LSB;label=32;scalar=64";
    class       volScalarField;
    location    "77.861028276582971";
    object      p;
}
// * * * * * * * * * * * * * * * * * * * * * * * * * * * * * * * * * * * * * //

dimensions      [0 2 -2 0 0 0 0];

internalField   nonuniform List<scalar> 
21039
(
0.608822
0.475105
0.432806
0.404514
0.383133
0.366977
0.354448
0.344443
0.33628
0.329507
0.323806
0.318947
0.314757
0.311105
0.307888
0.305022
0.302439
0.300083
0.297906
0.295867
0.293932
0.292069
0.29025
0.288562
0.287092
0.285801
0.284644
0.283582
0.282596
0.461821
0.423927
0.410032
0.391622
0.374791
0.361426
0.350584
0.34163
0.334168
0.327888
0.322544
0.317952
0.313968
0.310477
0.30739
0.30463
0.302135
0.299854
0.297741
0.295757
0.293868
0.292044
0.290257
0.288589
0.287127
0.285837
0.284678
0.283616
0.282628
0.372414
0.369991
0.372107
0.365318
0.35681
0.348938
0.341595
0.33496
0.329105
0.323971
0.319469
0.315511
0.312016
0.308912
0.306136
0.303634
0.301355
0.299258
0.297304
0.295459
0.293691
0.291973
0.290278
0.288682
0.28727
0.286017
0.284886
0.283845
0.282876
0.334353
0.336455
0.340889
0.339763
0.337085
0.333794
0.329905
0.325884
0.321999
0.31835
0.314982
0.311904
0.309106
0.306563
0.304248
0.30213
0.300178
0.298362
0.296656
0.29503
0.293458
0.291916
0.290381
0.288918
0.287608
0.286433
0.285363
0.284369
0.283436
0.309401
0.31336
0.319222
0.320894
0.321046
0.320256
0.318643
0.31662
0.314408
0.31213
0.309882
0.307723
0.305681
0.30377
0.301987
0.300324
0.298767
0.297301
0.295905
0.294559
0.293244
0.291936
0.290618
0.28934
0.288176
0.287114
0.286131
0.285204
0.284319
0.289846
0.295092
0.302423
0.306263
0.308232
0.308988
0.308853
0.308203
0.307223
0.306034
0.304738
0.303405
0.302079
0.30079
0.299553
0.298372
0.297246
0.296168
0.295127
0.294108
0.293096
0.292072
0.29102
0.289973
0.288992
0.288073
0.287201
0.286359
0.285536
0.27718
0.282192
0.289274
0.294202
0.297398
0.299302
0.300271
0.300647
0.300608
0.300284
0.299776
0.299156
0.298477
0.297772
0.297064
0.296368
0.295687
0.295022
0.294367
0.293712
0.293044
0.292349
0.291609
0.290839
0.290079
0.289335
0.288601
0.287865
0.28712
0.270004
0.274094
0.279826
0.284766
0.288459
0.29102
0.292731
0.293857
0.294547
0.294919
0.295068
0.295065
0.294962
0.294796
0.294594
0.294372
0.294142
0.293904
0.293659
0.293398
0.293112
0.292786
0.292407
0.29196
0.291463
0.29093
0.290363
0.289755
0.289106
0.265619
0.268809
0.273173
0.277664
0.28136
0.284153
0.286255
0.287858
0.289067
0.289976
0.29066
0.291181
0.291587
0.291913
0.292186
0.292425
0.292642
0.29284
0.293022
0.293181
0.29331
0.293395
0.293423
0.293348
0.29316
0.292876
0.292508
0.292056
0.291524
0.262367
0.264809
0.268135
0.272101
0.275617
0.278437
0.280717
0.282598
0.284157
0.28546
0.286567
0.287524
0.288372
0.289142
0.289859
0.29054
0.291197
0.291835
0.292457
0.293059
0.293633
0.294168
0.294649
0.294998
0.295166
0.295172
0.295039
0.294774
0.294384
0.259541
0.261384
0.263966
0.267427
0.270714
0.273493
0.275857
0.277908
0.279707
0.281305
0.282746
0.284066
0.285298
0.286468
0.287597
0.288701
0.289789
0.290869
0.291942
0.293006
0.294054
0.295076
0.296058
0.296882
0.297457
0.297802
0.297943
0.297893
0.29767
0.256825
0.258224
0.260281
0.263283
0.266329
0.269037
0.271436
0.273598
0.275573
0.277401
0.279115
0.280743
0.282313
0.283846
0.28536
0.286868
0.28838
0.289901
0.291434
0.292976
0.294523
0.296065
0.297593
0.298948
0.299984
0.300718
0.301179
0.301379
0.301335
0.254054
0.255145
0.256838
0.259446
0.262259
0.26488
0.267283
0.269518
0.271624
0.273635
0.275577
0.277472
0.279344
0.281209
0.283084
0.284981
0.286909
0.288872
0.290873
0.292908
0.294972
0.297059
0.299167
0.301096
0.302644
0.30382
0.304654
0.305158
0.305345
0.251154
0.252033
0.253469
0.255749
0.258348
0.260876
0.263265
0.265544
0.26775
0.269908
0.272042
0.27417
0.276312
0.278484
0.2807
0.282973
0.285311
0.287718
0.290193
0.292731
0.295324
0.297967
0.300665
0.30318
0.305261
0.306911
0.308157
0.309002
0.309458
0.248101
0.248833
0.250069
0.252064
0.254459
0.25689
0.259254
0.261561
0.26384
0.266118
0.268412
0.270742
0.273125
0.275578
0.278116
0.280754
0.2835
0.286353
0.289311
0.292363
0.295494
0.29869
0.301954
0.305009
0.307571
0.309662
0.311315
0.312523
0.313282
0.245151
0.245778
0.246859
0.248641
0.250873
0.253214
0.255547
0.257868
0.260203
0.262571
0.264993
0.267487
0.270073
0.27277
0.275598
0.278571
0.281698
0.284979
0.288407
0.291961
0.295611
0.299314
0.303039
0.306436
0.309209
0.31145
0.313261
0.314676
0.315682
0.242618
0.243177
0.244164
0.245813
0.247924
0.250184
0.252489
0.254826
0.257208
0.259651
0.262176
0.264804
0.267558
0.270464
0.273544
0.276814
0.280286
0.283963
0.287833
0.29187
0.296019
0.300196
0.304293
0.307806
0.310373
0.312156
0.313413
0.314401
0.315333
0.240493
0.241009
0.241931
0.243485
0.245502
0.247711
0.250017
0.252386
0.254819
0.257332
0.25995
0.262698
0.265605
0.2687
0.27201
0.275556
0.279355
0.283413
0.287724
0.292253
0.296934
0.301638
0.306166
0.30977
0.311844
0.31242
0.311756
0.310357
0.309297
0.238761
0.239329
0.240274
0.241735
0.24359
0.2457
0.248005
0.250426
0.252925
0.255514
0.258225
0.261092
0.264149
0.267429
0.270961
0.274775
0.278895
0.283336
0.288095
0.293146
0.298423
0.303782
0.308967
0.312996
0.314847
0.314035
0.310231
0.302877
0.291692
0.281647
0.280691
0.279738
0.278788
0.277839
0.27689
0.27594
0.274989
0.274036
0.27308
0.27212
0.271156
0.270187
0.269212
0.268231
0.267243
0.266248
0.265245
0.264235
0.263216
0.26219
0.261156
0.260113
0.259063
0.258005
0.256939
0.255867
0.254788
0.253704
0.252614
0.251519
0.250421
0.249319
0.248215
0.247109
0.246002
0.244896
0.243791
0.242688
0.241589
0.240494
0.239405
0.238323
0.237248
0.236182
0.235126
0.23408
0.233046
0.232024
0.281682
0.280735
0.279792
0.278852
0.277912
0.276972
0.276032
0.27509
0.274145
0.273197
0.272245
0.271288
0.270325
0.269356
0.26838
0.267396
0.266405
0.265405
0.264396
0.263379
0.262352
0.261317
0.260273
0.25922
0.258158
0.257088
0.256011
0.254926
0.253834
0.252736
0.251633
0.250525
0.249414
0.248299
0.247183
0.246065
0.244947
0.24383
0.242715
0.241603
0.240496
0.239393
0.238298
0.237209
0.23613
0.23506
0.234002
0.232955
0.23192
0.28195
0.281026
0.280105
0.279186
0.278266
0.277346
0.276423
0.275498
0.274568
0.273634
0.272694
0.271747
0.270793
0.269831
0.268859
0.267878
0.266888
0.265886
0.264874
0.263852
0.262818
0.261773
0.260718
0.259651
0.258575
0.257488
0.256392
0.255287
0.254174
0.253053
0.251926
0.250792
0.249654
0.248511
0.247365
0.246218
0.245069
0.243921
0.242774
0.241629
0.240488
0.239352
0.238223
0.2371
0.235986
0.234881
0.233788
0.232706
0.231637
0.282544
0.281655
0.280766
0.279876
0.278984
0.278088
0.277189
0.276284
0.275373
0.274454
0.273527
0.27259
0.271643
0.270684
0.269714
0.268731
0.267736
0.266727
0.265704
0.264668
0.263617
0.262553
0.261476
0.260385
0.259281
0.258164
0.257036
0.255897
0.254747
0.253588
0.25242
0.251244
0.250061
0.248873
0.247681
0.246484
0.245286
0.244087
0.242888
0.241691
0.240497
0.239306
0.238121
0.236943
0.235773
0.234611
0.23346
0.232321
0.231194
0.283472
0.282629
0.281781
0.280929
0.280071
0.279207
0.278335
0.277454
0.276563
0.275661
0.274746
0.273819
0.272876
0.271919
0.270946
0.269957
0.26895
0.267927
0.266886
0.265827
0.264751
0.263657
0.262547
0.261419
0.260276
0.259117
0.257943
0.256755
0.255554
0.254341
0.253116
0.251882
0.250639
0.249388
0.248131
0.246869
0.245603
0.244335
0.243065
0.241796
0.240529
0.239265
0.238006
0.236752
0.235505
0.234267
0.233038
0.23182
0.230614
0.284747
0.283961
0.283165
0.282359
0.281543
0.280716
0.279878
0.279025
0.278157
0.277273
0.276371
0.275452
0.274513
0.273554
0.272574
0.271572
0.270549
0.269504
0.268436
0.267346
0.266234
0.2651
0.263945
0.262769
0.261572
0.260357
0.259122
0.257871
0.256602
0.255319
0.254022
0.252711
0.25139
0.250058
0.248718
0.247371
0.246019
0.244662
0.243303
0.241943
0.240583
0.239226
0.237872
0.236522
0.235179
0.233844
0.232517
0.231201
0.229898
0.286402
0.285685
0.28495
0.284199
0.283433
0.282651
0.28185
0.281029
0.280187
0.279323
0.278435
0.277522
0.276584
0.27562
0.274628
0.273609
0.272562
0.271487
0.270384
0.269252
0.268093
0.266907
0.265694
0.264456
0.263192
0.261904
0.260594
0.259262
0.257909
0.256538
0.255149
0.253744
0.252325
0.250893
0.24945
0.247998
0.246538
0.245073
0.243603
0.242131
0.240658
0.239185
0.237716
0.23625
0.23479
0.233337
0.231892
0.230457
0.229036
0.288474
0.287837
0.287173
0.286487
0.28578
0.285048
0.28429
0.283505
0.282691
0.281848
0.280973
0.280066
0.279126
0.278152
0.277144
0.2761
0.275022
0.273908
0.272759
0.271575
0.270357
0.269106
0.267822
0.266506
0.26516
0.263784
0.26238
0.260949
0.259494
0.258016
0.256515
0.254996
0.253458
0.251905
0.250337
0.248758
0.247169
0.245571
0.243968
0.242361
0.240752
0.239142
0.237534
0.235929
0.23433
0.232737
0.231151
0.229576
0.228017
0.290993
0.290447
0.289865
0.289254
0.288613
0.287938
0.28723
0.286485
0.285702
0.284881
0.284019
0.283116
0.282171
0.281183
0.280153
0.279078
0.27796
0.276799
0.275594
0.274347
0.273059
0.271729
0.270359
0.268951
0.267505
0.266024
0.264508
0.262961
0.261382
0.259776
0.258143
0.256486
0.254807
0.253108
0.251392
0.249661
0.247917
0.246163
0.244401
0.242633
0.240862
0.239089
0.237318
0.235548
0.233784
0.232027
0.230277
0.228538
0.226818
0.293975
0.293532
0.293044
0.292518
0.291954
0.291345
0.290692
0.289992
0.289244
0.288447
0.287599
0.2867
0.285748
0.284744
0.283686
0.282576
0.281412
0.280195
0.278926
0.277606
0.276234
0.274814
0.273344
0.271829
0.270268
0.268663
0.267017
0.265332
0.263609
0.261853
0.260063
0.258244
0.256398
0.254527
0.252634
0.250724
0.248796
0.246855
0.244904
0.242946
0.240982
0.239016
0.237051
0.235087
0.233129
0.231179
0.229236
0.227307
0.2254
0.297417
0.297073
0.296686
0.29628
0.295808
0.295273
0.294681
0.294033
0.293326
0.292558
0.291729
0.290836
0.289879
0.288859
0.287775
0.286627
0.285414
0.284138
0.2828
0.281398
0.279936
0.278415
0.276835
0.275198
0.273506
0.271761
0.269966
0.268123
0.266233
0.264301
0.262328
0.260318
0.258275
0.256199
0.254097
0.251972
0.249825
0.247662
0.245484
0.243297
0.241104
0.238907
0.23671
0.234516
0.232328
0.230148
0.227978
0.225826
0.2237
0.301231
0.301064
0.300833
0.300533
0.300155
0.299669
0.299162
0.29859
0.29794
0.297213
0.296413
0.295537
0.294586
0.293559
0.292456
0.291277
0.290021
0.28869
0.287284
0.285803
0.284248
0.282622
0.280923
0.279156
0.277322
0.275421
0.273458
0.271434
0.269352
0.267216
0.265029
0.262793
0.260515
0.258196
0.255841
0.253457
0.251043
0.248609
0.246156
0.243691
0.241218
0.238738
0.236261
0.233786
0.231319
0.228864
0.226422
0.224003
0.221618
0.305427
0.305401
0.305288
0.305103
0.304847
0.304518
0.304112
0.30362
0.303044
0.302383
0.301638
0.300806
0.299887
0.29888
0.297782
0.296596
0.295317
0.293949
0.292492
0.290942
0.289304
0.287578
0.285763
0.283862
0.281877
0.279807
0.277659
0.275433
0.273129
0.270757
0.268316
0.265811
0.26325
0.260632
0.257968
0.255263
0.252518
0.249746
0.246948
0.244134
0.241309
0.238476
0.235647
0.232823
0.230012
0.227217
0.224441
0.221697
0.218999
0.309764
0.309914
0.309967
0.309943
0.309837
0.309648
0.309373
0.30901
0.308561
0.308019
0.307382
0.306645
0.305824
0.304887
0.303852
0.30271
0.301454
0.30009
0.298618
0.29703
0.295334
0.293529
0.291609
0.289582
0.287445
0.285197
0.282847
0.280392
0.277834
0.275181
0.272435
0.2696
0.266686
0.263694
0.260636
0.257519
0.254348
0.251136
0.24789
0.244619
0.241335
0.238043
0.234757
0.231481
0.228227
0.225
0.221803
0.218654
0.215572
0.313847
0.314196
0.314455
0.31465
0.31477
0.314817
0.314781
0.314656
0.314439
0.314115
0.313684
0.313128
0.312442
0.311635
0.310891
0.309841
0.308667
0.307366
0.305936
0.304363
0.302655
0.300809
0.298815
0.296682
0.294404
0.291976
0.289408
0.286697
0.283841
0.280853
0.277731
0.274483
0.27112
0.267643
0.264071
0.260412
0.256673
0.252874
0.249023
0.245138
0.241232
0.237316
0.233413
0.229529
0.225684
0.221886
0.218144
0.214478
0.210914
0.316487
0.317004
0.317518
0.318068
0.318616
0.319135
0.319583
0.31993
0.320156
0.320238
0.320176
0.319957
0.319588
0.319059
0.318362
0.317516
0.316587
0.315443
0.314146
0.312676
0.311036
0.309219
0.307212
0.305022
0.30264
0.300053
0.297274
0.294294
0.291108
0.287732
0.284165
0.280414
0.276496
0.272413
0.26819
0.263839
0.25937
0.254813
0.250177
0.245488
0.240767
0.236029
0.231308
0.226618
0.221994
0.217455
0.21302
0.208724
0.2046
0.316331
0.316934
0.31789
0.31919
0.320626
0.322048
0.323329
0.324407
0.325255
0.325855
0.326229
0.326375
0.326322
0.326082
0.32565
0.325019
0.324174
0.323441
0.322321
0.320998
0.319491
0.31778
0.315838
0.313668
0.311251
0.308566
0.305621
0.302401
0.298898
0.295129
0.291092
0.286796
0.282268
0.27751
0.272558
0.267431
0.262143
0.256734
0.251216
0.245622
0.239975
0.234293
0.228617
0.222965
0.217387
0.211924
0.206624
0.201563
0.196807
0.308956
0.310007
0.313104
0.316978
0.320686
0.323882
0.326459
0.328457
0.329959
0.331032
0.331768
0.332205
0.332402
0.332396
0.3322
0.331839
0.331263
0.330488
0.329861
0.328747
0.327462
0.325963
0.324197
0.322156
0.319805
0.317107
0.314061
0.310644
0.306837
0.302664
0.298123
0.293229
0.288019
0.282504
0.276735
0.270742
0.26455
0.258213
0.251746
0.245191
0.238571
0.231896
0.2252
0.218479
0.211773
0.205115
0.19859
0.192397
0.186819
0.283228
0.293701
0.305658
0.315328
0.322383
0.327358
0.330815
0.333239
0.334948
0.33614
0.336961
0.337476
0.337767
0.337872
0.337816
0.337645
0.337336
0.336871
0.336265
0.335537
0.334577
0.333384
0.331894
0.33009
0.327922
0.325321
0.32227
0.318727
0.314668
0.310121
0.305086
0.29959
0.293687
0.287397
0.280795
0.273927
0.266831
0.259584
0.252211
0.244766
0.237273
0.229739
0.222176
0.214532
0.206766
0.198783
0.190492
0.181955
0.173807
0.231023
0.229981
0.22884
0.227583
0.22619
0.224648
0.222988
0.2214
0.220031
0.218911
0.218074
0.217556
0.217394
0.217638
0.21834
0.219563
0.221384
0.2239
0.227239
0.231565
0.237103
0.244164
0.253193
0.264869
0.280288
0.301049
0.328842
0.370669
0.504015
0.230904
0.229845
0.228683
0.227401
0.225975
0.224394
0.222687
0.221049
0.219628
0.218455
0.217561
0.216981
0.216749
0.216913
0.217517
0.218619
0.220288
0.22261
0.225692
0.229671
0.234726
0.241095
0.249083
0.259078
0.271708
0.287909
0.305809
0.319224
0.356777
0.230586
0.229488
0.228279
0.226938
0.225441
0.223774
0.221963
0.220209
0.218668
0.217368
0.216337
0.215606
0.215204
0.215168
0.215534
0.216345
0.217651
0.219507
0.221979
0.22514
0.229071
0.233853
0.239539
0.24605
0.253196
0.261069
0.267319
0.264681
0.266779
0.230082
0.228918
0.227631
0.226198
0.224589
0.222788
0.220816
0.218883
0.217157
0.215662
0.214422
0.213462
0.212797
0.212464
0.212478
0.212865
0.213646
0.214843
0.216471
0.218535
0.221015
0.223858
0.226955
0.230032
0.232611
0.234657
0.23522
0.230256
0.227875
0.22942
0.228166
0.226772
0.225213
0.223456
0.221475
0.219291
0.217127
0.215163
0.21342
0.211918
0.210674
0.209701
0.209012
0.208616
0.208519
0.20872
0.209211
0.209972
0.210963
0.212117
0.21333
0.214465
0.215296
0.215398
0.21463
0.212399
0.206046
0.201869
0.228601
0.227233
0.225708
0.223993
0.22205
0.21985
0.217407
0.214965
0.21272
0.210692
0.208894
0.207335
0.206024
0.204961
0.204145
0.203568
0.203213
0.203054
0.203054
0.203157
0.203282
0.203317
0.203129
0.202528
0.201122
0.198569
0.194201
0.186431
0.181019
0.227616
0.226111
0.224425
0.222523
0.220359
0.217898
0.215153
0.212391
0.209831
0.207488
0.20537
0.203482
0.201825
0.200393
0.199173
0.19815
0.197296
0.196578
0.195948
0.195344
0.194681
0.193847
0.1927
0.191054
0.188555
0.184824
0.179419
0.171959
0.166826
0.22645
0.224782
0.222908
0.220784
0.218361
0.215599
0.212509
0.209388
0.206483
0.203803
0.201353
0.199133
0.197137
0.195352
0.193762
0.192341
0.191058
0.189872
0.188731
0.187571
0.18631
0.184838
0.183026
0.180717
0.177632
0.173473
0.168125
0.162087
0.157917
0.22508
0.223221
0.221126
0.218745
0.216024
0.212916
0.209438
0.205925
0.20265
0.19962
0.196836
0.194292
0.191976
0.18987
0.187953
0.186192
0.184554
0.182994
0.181461
0.179893
0.178214
0.176336
0.174153
0.171551
0.168325
0.164253
0.159439
0.154849
0.151613
0.223462
0.221382
0.21903
0.216352
0.213289
0.209793
0.205885
0.201948
0.198286
0.194903
0.191793
0.188944
0.186338
0.183953
0.18176
0.179727
0.177814
0.175978
0.174171
0.172334
0.170407
0.168317
0.165985
0.163323
0.160183
0.156397
0.152203
0.148729
0.146268
0.221529
0.21919
0.216542
0.213522
0.210069
0.206137
0.201758
0.197372
0.193315
0.189584
0.186167
0.183045
0.180192
0.17758
0.175173
0.172939
0.170834
0.168818
0.166842
0.164857
0.16281
0.160643
0.158292
0.155687
0.15272
0.149285
0.145698
0.143043
0.141205
0.219172
0.216531
0.213537
0.210124
0.206228
0.201811
0.196925
0.192073
0.187625
0.183567
0.179878
0.176528
0.173482
0.170705
0.168156
0.165795
0.163582
0.161473
0.159422
0.157385
0.155314
0.153162
0.150876
0.148397
0.145649
0.142588
0.139569
0.137509
0.136136
0.216223
0.213225
0.209828
0.205961
0.201566
0.196618
0.191198
0.185881
0.181067
0.176725
0.172818
0.169304
0.166136
0.163269
0.160656
0.158252
0.156013
0.153895
0.151853
0.149845
0.147829
0.145765
0.143607
0.141307
0.138811
0.136126
0.13361
0.131979
0.130934
0.212395
0.208974
0.205108
0.200723
0.195777
0.190268
0.184313
0.178567
0.173445
0.168893
0.164853
0.161263
0.158064
0.1552
0.152615
0.150258
0.14808
0.146037
0.144085
0.142182
0.140292
0.138377
0.1364
0.134318
0.132094
0.129773
0.127696
0.126382
0.125565
0.207247
0.203323
0.198917
0.19396
0.188435
0.182373
0.175938
0.169853
0.164534
0.159891
0.155839
0.152294
0.149182
0.146432
0.143981
0.14177
0.139747
0.137867
0.136084
0.134359
0.132658
0.130946
0.129191
0.127355
0.125422
0.12346
0.121775
0.12071
0.120048
0.200381
0.195926
0.190986
0.18551
0.17951
0.173052
0.166334
0.160119
0.154799
0.150248
0.146352
0.143005
0.140115
0.137602
0.135392
0.133425
0.131643
0.13
0.12845
0.126958
0.125487
0.124009
0.122495
0.120917
0.119268
0.117624
0.116254
0.115389
0.114834
0.191995
0.187033
0.1817
0.175932
0.169736
0.163177
0.156464
0.15037
0.145257
0.140971
0.137373
0.134341
0.13177
0.12957
0.127666
0.125992
0.124492
0.123115
0.121821
0.120573
0.119337
0.118086
0.116798
0.11546
0.114073
0.112699
0.111568
0.110851
0.110373
0.181487
0.176318
0.171102
0.165537
0.159548
0.153208
0.146757
0.140984
0.136231
0.132327
0.129118
0.12647
0.124269
0.122422
0.120849
0.119486
0.118276
0.117172
0.116133
0.115123
0.114109
0.113065
0.111972
0.110831
0.109664
0.108525
0.107599
0.107012
0.106597
0.167442
0.163576
0.159611
0.154844
0.149419
0.14353
0.137514
0.132194
0.127895
0.124442
0.121669
0.119434
0.117619
0.116131
0.114889
0.113831
0.112901
0.112055
0.111253
0.110462
0.109648
0.10878
0.107846
0.106888
0.105976
0.105133
0.104413
0.103878
0.103445
0.236975
0.237325
0.238091
0.239577
0.24163
0.24395
0.24639
0.248883
0.251439
0.254099
0.256907
0.2599
0.263114
0.266584
0.270344
0.274429
0.278871
0.283692
0.288895
0.294461
0.300332
0.306363
0.312266
0.316901
0.318888
0.317049
0.309876
0.295033
0.264218
0.235184
0.235656
0.236539
0.238018
0.23999
0.24224
0.244651
0.247161
0.249775
0.252527
0.255454
0.258592
0.261977
0.265648
0.269647
0.274012
0.278785
0.283995
0.289661
0.295786
0.302353
0.309285
0.316379
0.322578
0.32659
0.327684
0.325296
0.321257
0.325478
0.233343
0.233898
0.234867
0.236344
0.238251
0.240431
0.242792
0.245295
0.247943
0.250762
0.253783
0.257039
0.260569
0.264416
0.268627
0.273251
0.278341
0.283946
0.290112
0.296892
0.304358
0.312611
0.321764
0.331222
0.340172
0.348745
0.357279
0.364519
0.380991
0.231426
0.231961
0.232905
0.23437
0.236284
0.238475
0.240839
0.243347
0.246018
0.248884
0.251973
0.255322
0.258971
0.262967
0.267364
0.272222
0.277607
0.283592
0.29026
0.297728
0.306175
0.315931
0.327528
0.340821
0.355332
0.371141
0.388986
0.405567
0.426873
0.229434
0.229935
0.23083
0.232266
0.234184
0.236392
0.238769
0.241289
0.243979
0.246877
0.250018
0.253439
0.257183
0.261302
0.265855
0.270913
0.276557
0.282878
0.289998
0.298096
0.307441
0.318569
0.332377
0.348859
0.367815
0.38909
0.412683
0.43689
0.463576
0.227368
0.227852
0.228716
0.230116
0.232005
0.234198
0.236566
0.239084
0.241782
0.244698
0.24787
0.251339
0.255149
0.259356
0.264026
0.269236
0.275078
0.281663
0.289133
0.297731
0.307752
0.319877
0.335271
0.353595
0.374885
0.399129
0.426771
0.456256
0.485667
0.225223
0.225697
0.226539
0.2279
0.22974
0.23189
0.234228
0.236724
0.239409
0.242321
0.245499
0.248984
0.252825
0.257078
0.261813
0.267111
0.273075
0.279824
0.287496
0.296416
0.306789
0.319395
0.335197
0.35529
0.378052
0.402966
0.429697
0.457246
0.484893
0.222993
0.223456
0.224274
0.225588
0.227369
0.229463
0.231751
0.234206
0.236855
0.239737
0.242891
0.246358
0.250188
0.254438
0.259178
0.264492
0.270483
0.277285
0.284972
0.294009
0.304267
0.31718
0.333396
0.353451
0.375612
0.399024
0.422895
0.446759
0.470418
0.220675
0.221126
0.221916
0.223178
0.224889
0.226911
0.229133
0.231526
0.234116
0.23694
0.240038
0.24345
0.247224
0.251416
0.256097
0.261346
0.267259
0.274002
0.281473
0.290319
0.300731
0.313325
0.328976
0.347637
0.367721
0.388429
0.409034
0.429269
0.448432
0.218268
0.218707
0.219467
0.22067
0.222299
0.224233
0.22637
0.22868
0.231187
0.233925
0.236933
0.24025
0.243921
0.248
0.252553
0.257654
0.263371
0.269864
0.277218
0.285704
0.295696
0.307491
0.321809
0.338365
0.355681
0.373058
0.389952
0.406383
0.421379
0.215768
0.216194
0.21692
0.218059
0.219597
0.22143
0.223464
0.22567
0.228069
0.230693
0.233578
0.236761
0.240282
0.244191
0.24855
0.253419
0.258886
0.265065
0.27206
0.280011
0.289188
0.299843
0.312431
0.326515
0.340747
0.354504
0.367415
0.379797
0.390813
0.213176
0.213589
0.21428
0.215349
0.216787
0.218505
0.220418
0.222499
0.224766
0.227248
0.229977
0.232987
0.236314
0.240001
0.244104
0.248689
0.253814
0.259571
0.26602
0.273264
0.281449
0.290762
0.301414
0.312851
0.323924
0.334129
0.343258
0.351791
0.359156
0.210497
0.210901
0.211559
0.212554
0.213879
0.215465
0.217236
0.219169
0.221279
0.223592
0.226134
0.228935
0.232026
0.235444
0.239239
0.243465
0.24816
0.25339
0.259179
0.265594
0.272687
0.280546
0.289182
0.29799
0.306072
0.313086
0.318974
0.32426
0.328603
0.207729
0.208119
0.208738
0.209653
0.210861
0.212307
0.213925
0.215693
0.217625
0.219743
0.22207
0.224628
0.227446
0.230554
0.233989
0.237789
0.241983
0.246609
0.251664
0.257171
0.263114
0.269486
0.27616
0.282547
0.288015
0.292383
0.295718
0.298529
0.300668
0.204879
0.205257
0.205835
0.206667
0.207751
0.209046
0.210496
0.212082
0.213816
0.215718
0.217805
0.220095
0.222608
0.225366
0.228396
0.231722
0.235361
0.239328
0.243598
0.248154
0.252932
0.25786
0.262727
0.267017
0.270343
0.272663
0.274128
0.275227
0.275983
0.201952
0.202319
0.202857
0.203604
0.204558
0.205691
0.206961
0.208348
0.209868
0.211536
0.213363
0.215359
0.217538
0.219913
0.222501
0.225313
0.228355
0.231622
0.235072
0.238661
0.242294
0.245865
0.249125
0.251666
0.253325
0.254166
0.254379
0.254433
0.254513
0.198953
0.199308
0.199802
0.20046
0.201281
0.20225
0.203334
0.204508
0.205803
0.207224
0.208774
0.210457
0.212278
0.214244
0.216361
0.218631
0.221046
0.223587
0.2262
0.228825
0.231357
0.233678
0.235537
0.236665
0.237092
0.236957
0.236434
0.235972
0.23591
0.19589
0.196234
0.196684
0.197253
0.197939
0.198739
0.199637
0.200574
0.201647
0.202809
0.204068
0.205423
0.206871
0.20841
0.210038
0.211746
0.213516
0.215316
0.217089
0.218767
0.220247
0.221421
0.222067
0.222071
0.221629
0.220915
0.220039
0.219425
0.219564
0.192774
0.19311
0.193517
0.193998
0.194547
0.195171
0.195854
0.196597
0.197421
0.198314
0.199274
0.200291
0.201355
0.202457
0.203584
0.204718
0.205833
0.206888
0.207824
0.208571
0.20904
0.209147
0.20872
0.207812
0.206762
0.20575
0.20478
0.204249
0.204796
0.189612
0.189938
0.190299
0.190692
0.191103
0.191553
0.19204
0.192569
0.193148
0.193772
0.194429
0.195105
0.195781
0.196441
0.197063
0.197622
0.198081
0.198394
0.198499
0.198331
0.197818
0.196905
0.195487
0.193796
0.192306
0.191186
0.190298
0.190004
0.191092
0.186415
0.186733
0.187047
0.187358
0.187626
0.187909
0.188208
0.188516
0.188854
0.189211
0.189569
0.189905
0.190197
0.190419
0.190542
0.190532
0.190345
0.189928
0.189218
0.188151
0.186672
0.184756
0.182369
0.17993
0.178065
0.176926
0.176211
0.176241
0.17796
0.183191
0.183506
0.18377
0.184018
0.184114
0.18427
0.18437
0.184462
0.184566
0.184661
0.184725
0.184731
0.184646
0.184441
0.184077
0.183513
0.182697
0.18157
0.180063
0.178113
0.175673
0.17274
0.16934
0.166084
0.163784
0.162604
0.162063
0.162438
0.164858
0.179953
0.180272
0.180481
0.180633
0.180667
0.180637
0.180539
0.180426
0.180303
0.180147
0.179929
0.179614
0.179168
0.178551
0.177719
0.176623
0.175204
0.173393
0.171116
0.168302
0.164903
0.160919
0.156405
0.152149
0.149202
0.1478
0.147298
0.147951
0.151119
0.176711
0.177014
0.177198
0.177278
0.1772
0.177004
0.176731
0.176427
0.176092
0.175699
0.175213
0.174595
0.173805
0.172797
0.171522
0.169923
0.167932
0.165474
0.162463
0.158818
0.154472
0.149405
0.143661
0.138149
0.134202
0.132206
0.131407
0.132123
0.136019
0.173478
0.173768
0.173936
0.173948
0.173748
0.1734
0.172964
0.172483
0.171952
0.17134
0.170606
0.169706
0.168595
0.167224
0.165537
0.163471
0.160951
0.157891
0.154198
0.149771
0.144521
0.138378
0.131318
0.12428
0.118859
0.115658
0.113892
0.114206
0.118753
0.170261
0.170539
0.170673
0.17061
0.170302
0.169824
0.169247
0.168613
0.167911
0.167103
0.166143
0.164984
0.163579
0.161875
0.159811
0.157318
0.154316
0.15071
0.146394
0.141254
0.135171
0.128018
0.119664
0.110971
0.103683
0.0985507
0.0947394
0.0937353
0.0988239
0.167089
0.167408
0.167566
0.167454
0.167021
0.166368
0.165616
0.164825
0.163969
0.16299
0.161832
0.160446
0.158781
0.156783
0.154388
0.151521
0.148095
0.14401
0.139152
0.133395
0.126597
0.118561
0.109007
0.0986432
0.0892611
0.0816577
0.0746718
0.070234
0.0740509
0.13268
0.112473
0.0847322
0.0488533
0.0082421
-0.0323705
-0.0692518
-0.103345
-0.134604
-0.16715
-0.200549
-0.237867
-0.27612
-0.311862
-0.340737
-0.359943
-0.369592
-0.372178
-0.371765
0.139739
0.123814
0.0974406
0.0609364
0.0170869
-0.0302981
-0.0765521
-0.122871
-0.166701
-0.214139
-0.261562
-0.309307
-0.35503
-0.395059
-0.425838
-0.446072
-0.457167
-0.462027
-0.463772
0.134064
0.119329
0.0945512
0.0581392
0.0122779
-0.0402486
-0.0937835
-0.151945
-0.209762
-0.267761
-0.32538
-0.381528
-0.433226
-0.476851
-0.509701
-0.531442
-0.54406
-0.550516
-0.553655
0.122529
0.108373
0.0856759
0.0502148
0.00186363
-0.0555028
-0.117803
-0.183461
-0.250685
-0.318444
-0.385676
-0.450191
-0.508098
-0.555502
-0.590252
-0.61294
-0.626369
-0.633802
-0.637921
0.108244
0.0950463
0.0735798
0.0385033
-0.0112639
-0.0717818
-0.139608
-0.212072
-0.287702
-0.364919
-0.441123
-0.512725
-0.575109
-0.624563
-0.659943
-0.682933
-0.697006
-0.705394
-0.710366
0.0888424
0.0761684
0.0560474
0.0221239
-0.0275941
-0.0898076
-0.161271
-0.239763
-0.322898
-0.407972
-0.49112
-0.567633
-0.632628
-0.683081
-0.718982
-0.742812
-0.758342
-0.768528
-0.775192
0.0647364
0.0512067
0.0316212
-0.00112126
-0.0501301
-0.113031
-0.186854
-0.269402
-0.357513
-0.447346
-0.533939
-0.61174
-0.675991
-0.724657
-0.75884
-0.781638
-0.796962
-0.807347
-0.81425
0.0373841
0.0218154
0.00133885
-0.0313001
-0.0798599
-0.142767
-0.217425
-0.301494
-0.391395
-0.48247
-0.568901
-0.64475
-0.70588
-0.751428
-0.783403
-0.805147
-0.820347
-0.830965
-0.838198
0.00786321
-0.0102876
-0.0327915
-0.0666058
-0.115376
-0.177931
-0.252054
-0.335425
-0.42423
-0.513209
-0.596008
-0.666849
-0.722601
-0.763534
-0.792261
-0.812109
-0.826428
-0.836676
-0.843718
-0.0229365
-0.0436695
-0.0687141
-0.104509
-0.154069
-0.216184
-0.288913
-0.37007
-0.455714
-0.540214
-0.617111
-0.681279
-0.730771
-0.766823
-0.792373
-0.810552
-0.824296
-0.834683
-0.842204
-0.0539994
-0.0770353
-0.10466
-0.14271
-0.19343
-0.255231
-0.326209
-0.404154
-0.484896
-0.56256
-0.631027
-0.68629
-0.727713
-0.757302
-0.778087
-0.792897
-0.804185
-0.812788
-0.818981
-0.0840961
-0.108981
-0.138861
-0.17892
-0.230721
-0.292129
-0.36104
-0.435028
-0.509677
-0.579203
-0.638365
-0.684572
-0.718344
-0.742106
-0.758696
-0.770502
-0.779438
-0.786231
-0.791026
-0.112081
-0.138285
-0.169882
-0.211332
-0.263689
-0.32429
-0.390753
-0.460384
-0.528639
-0.590145
-0.640787
-0.679286
-0.706957
-0.726331
-0.739927
-0.749727
-0.757241
-0.763177
-0.767486
-0.137144
-0.16419
-0.196961
-0.239112
-0.291363
-0.350595
-0.414106
-0.47887
-0.540297
-0.593675
-0.636159
-0.667631
-0.689917
-0.705444
-0.716362
-0.72427
-0.730327
-0.735187
-0.738685
-0.158753
-0.186263
-0.219727
-0.261947
-0.313419
-0.370648
-0.430649
-0.490131
-0.544689
-0.590521
-0.626032
-0.651979
-0.670381
-0.6834
-0.69277
-0.699728
-0.705147
-0.709591
-0.712817
-0.176755
-0.204497
-0.238301
-0.280118
-0.330284
-0.385021
-0.441173
-0.49535
-0.543558
-0.58297
-0.613016
-0.634982
-0.650862
-0.662493
-0.671249
-0.678076
-0.683654
-0.688419
-0.692014
-0.191372
-0.219292
-0.253279
-0.294473
-0.343049
-0.394947
-0.446889
-0.495535
-0.537527
-0.571085
-0.596487
-0.615289
-0.62929
-0.639965
-0.648344
-0.655119
-0.660813
-0.665714
-0.669423
-0.202904
-0.231114
-0.265307
-0.305885
-0.352816
-0.401743
-0.449354
-0.492576
-0.528883
-0.557492
-0.579276
-0.595831
-0.60867
-0.618899
-0.627241
-0.634165
-0.64007
-0.645123
-0.648937
-0.211715
-0.240487
-0.275106
-0.315328
-0.360846
-0.406985
-0.450511
-0.488796
-0.520208
-0.544793
-0.563782
-0.578678
-0.590689
-0.60061
-0.608923
-0.615932
-0.621948
-0.62707
-0.63093
-0.218183
-0.24795
-0.283439
-0.32383
-0.368352
-0.411877
-0.451317
-0.484728
-0.511522
-0.532499
-0.549066
-0.562505
-0.573688
-0.583127
-0.591112
-0.597837
-0.603556
-0.608345
-0.611902
-0.222424
-0.253785
-0.29081
-0.332156
-0.376322
-0.417565
-0.453059
-0.481801
-0.504345
-0.522122
-0.53657
-0.548687
-0.559022
-0.56785
-0.575319
-0.581549
-0.586753
-0.59102
-0.59414
-0.224421
-0.258164
-0.297628
-0.340947
-0.385509