/*--------------------------------*- C++ -*----------------------------------*\
| =========                 |                                                 |
| \\      /  F ield         | OpenFOAM: The Open Source CFD Toolbox           |
|  \\    /   O peration     | Version:  2312                                  |
|   \\  /    A nd           | Website:  www.openfoam.com                      |
|    \\/     M anipulation  |                                                 |
\*---------------------------------------------------------------------------*/
FoamFile
{
    version     2.0;
    format      ascii;
    arch        "LSB;label=32;scalar=64";
    class       surfaceScalarField;
    location    "80.582774485740615";
    object      phi;
}
// * * * * * * * * * * * * * * * * * * * * * * * * * * * * * * * * * * * * * //

dimensions      [0 3 -1 0 0 0 0];

oriented        oriented;

internalField   nonuniform List<scalar> 
41713
(
0.00736081
0.0568856
0.00362766
0.0679796
0.00211612
0.065758
0.00148282
0.0648797
0.00109652
0.0646327
0.000841922
0.064501
0.000666311
0.064422
0.000538758
0.064374
0.000442653
0.0643425
0.000368339
0.0643208
0.000309688
0.0643051
0.000262647
0.0642935
0.00022445
0.0642846
0.000193159
0.0642777
0.000167381
0.0642722
0.000146097
0.0642677
0.000128545
0.064264
0.000114145
0.0642608
0.000102442
0.0642581
9.30582e-05
0.0642558
8.56384e-05
0.0642539
7.98243e-05
0.0642523
7.534e-05
0.0642509
7.20441e-05
0.0548145
6.92612e-05
0.0456788
6.67423e-05
0.0380658
6.44681e-05
0.0317217
6.24431e-05
0.0264349
0.0220292
6.06222e-05
0.00999241
0.0468932
0.00842354
0.0695485
0.00571107
0.0684705
0.00411668
0.0664741
0.0031149
0.0656345
0.0024222
0.0651937
0.00192287
0.0649214
0.00155145
0.0647454
0.00126766
0.0646263
0.0010457
0.0645427
0.000868615
0.0644822
0.000725044
0.064437
0.00060714
0.0644025
0.000509368
0.0643755
0.000427746
0.0643538
0.000359364
0.0643361
0.00030206
0.0643213
0.000254205
0.0643087
0.000214551
0.0642978
0.000182119
0.0642883
0.000156117
0.0642799
0.000135854
0.0642725
0.000120632
0.0642661
0.000110751
0.0548243
0.000104135
0.0456854
9.936e-05
0.0380706
9.55836e-05
0.0317255
9.23706e-05
0.0264381
0.0220319
8.96726e-05
0.00859264
0.0383006
0.00970068
0.0684404
0.00746106
0.0707101
0.00569066
0.0682445
0.00450027
0.0668249
0.00361254
0.0660815
0.00292738
0.0656065
0.00239319
0.0652796
0.00197128
0.0650482
0.00163309
0.0648809
0.00135821
0.0647571
0.001132
0.0646633
0.000943931
0.0645906
0.00078631
0.0645331
0.000653482
0.0644867
0.000541247
0.0644483
0.000446456
0.0644161
0.000366729
0.0643884
0.000300246
0.0643643
0.0002456
0.0643429
0.000201681
0.0643238
0.000167577
0.0643066
0.00014237
0.0642913
0.000126685
0.05484
0.000116871
0.0456952
0.000110317
0.0380772
0.000105462
0.0317303
0.000101503
0.0264421
0.0220352
9.82502e-05
0.00677092
0.0315297
0.00946479
0.0657465
0.00810712
0.0720677
0.00642526
0.0699264
0.00523149
0.0680187
0.00432269
0.0669903
0.00358755
0.0663417
0.00298672
0.0658804
0.00249306
0.0655419
0.00208452
0.0652894
0.00174385
0.0650977
0.00145767
0.0649494
0.00121568
0.0648326
0.00101002
0.0647388
0.000834662
0.064662
0.000685014
0.064598
0.000557564
0.0645435
0.000449622
0.0644964
0.000359123
0.0644548
0.000284472
0.0644176
0.000224426
0.0643838
0.000177972
0.0643531
0.000144016
0.0643253
0.000123392
0.0548607
0.000110957
0.0457076
0.000103019
0.0380851
9.74091e-05
0.0317359
9.30594e-05
0.0264464
0.0220386
8.96599e-05
0.00506081
0.0264689
0.00855761
0.0622497
0.00816447
0.0724609
0.00671768
0.0713732
0.00555896
0.0691774
0.00467874
0.0678705
0.00395578
0.0670646
0.00334636
0.0664898
0.00282953
0.0660587
0.00238936
0.0657296
0.00201291
0.0654742
0.00168967
0.0652727
0.0014112
0.0651111
0.00117074
0.0649792
0.00096295
0.0648698
0.000783611
0.0647773
0.000629432
0.0646977
0.000497859
0.0646279
0.000386918
0.0645657
0.000295086
0.0645094
0.00022118
0.0644577
0.000164224
0.06441
0.000123048
0.0643665
9.8669e-05
0.054885
8.45534e-05
0.0457217
7.60258e-05
0.0380936
7.03915e-05
0.0317416
6.63506e-05
0.0264504
0.0220414
6.34574e-05
0.00361405
0.0228548
0.00729855
0.0585652
0.00776399
0.0719955
0.00670108
0.0724361
0.00563625
0.0702422
0.00480581
0.0687009
0.00411892
0.0677515
0.0035274
0.0670814
0.0030134
0.0665727
0.00256538
0.0661776
0.00217384
0.0658657
0.00183094
0.0656156
0.00153023
0.0654118
0.00126649
0.065243
0.00103545
0.0651009
0.000833701
0.0649791
0.000658549
0.0648729
0.000507886
0.0647786
0.000380096
0.0646935
0.000273952
0.0646155
0.000188519
0.0645432
0.000123003
0.0644755
7.62686e-05
0.0644132
4.96006e-05
0.0549117
3.49881e-05
0.0457364
2.68692e-05
0.0381017
2.20351e-05
0.0317464
1.89468e-05
0.0264535
0.0220432
1.7151e-05
0.00251889
0.0203359
0.00600712
0.055077
0.00707937
0.0709232
0.00644502
0.0730704
0.00552879
0.0711585
0.004768
0.0694617
0.00413203
0.0683875
0.00357393
0.0676395
0.00307783
0.0670688
0.0026361
0.0666194
0.00224245
0.0662594
0.00189148
0.0659666
0.00157866
0.0657246
0.00130023
0.0655214
0.00105312
0.065348
0.000834861
0.0651973
0.000643512
0.0650642
0.000477594
0.0649445
0.000336021
0.0648351
0.000218036
0.0647335
0.000123133
0.0646381
5.08955e-05
0.0645478
5.9253e-07
0.0644635
-2.74694e-05
0.0549398
-4.17249e-05
0.0457506
-4.86085e-05
0.0381086
-5.18023e-05
0.0317496
-5.31012e-05
0.0264548
0.0220434
-5.32255e-05
0.00175521
0.0185807
0.00487881
0.0519534
0.00630497
0.069497
0.0060523
0.0733231
0.00530299
0.0719078
0.00461718
0.0701475
0.00403568
0.068969
0.0035181
0.068157
0.00304841
0.0675385
0.00262151
0.0670463
0.00223388
0.066647
0.00188235
0.0663181
0.00156414
0.0660428
0.00127693
0.0658086
0.00101881
0.0656061
0.00078825
0.0654279
0.000584142
0.0652683
0.000405713
0.0651229
0.000252507
0.0649883
0.000124343
0.0648617
2.12332e-05
0.0647412
-5.68519e-05
0.0646259
-0.000110594
0.0645173
-0.000138675
0.0549678
-0.000151358
0.0457633
-0.000155841
0.0381131
-0.000156223
0.03175
-0.000154537
0.0264531
0.0220405
-0.000151635
0.00124524
0.0173355
0.00396159
0.049237
0.00555473
0.0679039
0.00560682
0.073271
0.00501974
0.0724948
0.00440375
0.0707635
0.0038698
0.069503
0.00339059
0.0686362
0.00294883
0.0679803
0.00254004
0.0674551
0.0021624
0.0670246
0.0018144
0.0666661
0.00149473
0.0663625
0.00120227
0.0661011
0.000936163
0.0658722
0.000695813
0.0656682
0.000480907
0.0654832
0.00029141
0.0653124
0.000127557
0.0651521
-1.02243e-05
0.0649995
-0.000121387
0.0648523
-0.000205239
0.0647097
-0.000261727
0.0645738
-0.000289775
0.0549959
-0.000300565
0.0457741
-0.000302112
0.0381147
-0.000299025
0.0317469
-0.000293655
0.0264478
0.0220339
-0.000287076
0.000911902
0.0164236
0.00323614
0.0469128
0.0048715
0.0662685
0.00515216
0.0729903
0.00471423
0.0729328
0.00416198
0.0713158
0.00366604
0.0699989
0.00321814
0.0690841
0.00280086
0.0683976
0.00240911
0.0678468
0.00204178
0.067392
0.00169838
0.0670095
0.00137859
0.0666823
0.00108221
0.0663975
0.000809251
0.0661452
0.000559905
0.0659176
0.000334609
0.0657085
0.000134036
0.065513
-4.09504e-05
0.0653271
-0.000189268
0.0651478
-0.000309521
0.0649726
-0.000400295
0.0648005
-0.000460915
0.0646344
-0.000489808
0.0550248
-0.000499132
0.0457834
-0.00049775
0.0381133
-0.000490852
0.03174
-0.000481209
0.0264381
0.0220229
-0.000470243
0.000695438
0.0157281
0.00266883
0.0449394
0.0042673
0.0646701
0.004709
0.0725486
0.00440262
0.0732392
0.00390928
0.0718091
0.0034435
0.0704647
0.00301932
0.0695083
0.00262123
0.0687956
0.00224318
0.0682249
0.00188415
0.067751
0.00154417
0.0673495
0.00122353
0.0670029
0.000922675
0.0666983
0.00064224
0.0664256
0.000383069
0.0661768
0.000146227
0.0659454
-6.70469e-05
0.0657263
-0.000255262
0.0655153
-0.000416521
0.065309
-0.000548623
0.0651047
-0.000649354
0.0649012
-0.000717202
0.0647022
-0.000749458
0.055057
-0.000759119
0.0457931
-0.000755917
0.0381101
-0.000745718
0.0317298
-0.00073185
0.0264243
0.0220073
-0.000716226
0.000552247
0.0151759
0.00222534
0.0432663
0.00374115
0.0631543
0.00428844
0.0720013
0.0040937
0.0734339
0.00365456
0.0722483
0.00321304
0.0709062
0.00280586
0.0699155
0.00242147
0.06918
0.00205302
0.0685933
0.00169917
0.0681049
0.00136012
0.0676885
0.00103651
0.0673265
0.000729178
0.0670056
0.000439208
0.0667156
0.000167913
0.066448
-8.32267e-05
0.0661965
-0.000312456
0.0659555
-0.000517566
0.0657204
-0.000695909
0.0654874
-0.000844539
0.0652533
-0.000960397
0.0650171
-0.00104106
0.0647829
-0.00108156
0.0550975
-0.00109542
0.0458069
-0.0010932
0.0381078
-0.00108152
0.0317181
-0.00106447
0.0264072
0.0219875
-0.00104465
0.00045307
0.0147228
0.00187529
0.0418441
0.00328569
0.0617439
0.00389595
0.0713911
0.00379307
0.0735368
0.00340325
0.0726381
0.00298157
0.0713279
0.00258573
0.0703113
0.00220987
0.0695559
0.00184678
0.0689564
0.00149452
0.0684571
0.00115324
0.0680298
0.000823674
0.0676561
0.000506873
0.0673224
0.000204197
0.0670182
-8.28645e-05
0.0667351
-0.000352467
0.0664661
-0.000602304
0.0662054
-0.000829541
0.0659477
-0.00103093
0.0656888
-0.00120285
0.0654252
-0.0013415
0.0651557
-0.00144365
0.064885
-0.00150057
0.0551545
-0.00152565
0.045832
-0.00152998
0.0381122
-0.00152091
0.0317091
-0.00150343
0.0263897
0.0219652
-0.00148117
0.000380179
0.0143426
0.00159477
0.0406295
0.00289126
0.0604474
0.00353305
0.0707493
0.00350407
0.0735658
0.00315885
0.0729833
0.00275389
0.0717328
0.00236493
0.0707003
0.00199303
0.0699278
0.00163121
0.0693182
0.00127689
0.0688114
0.000929908
0.0683768
0.000590901
0.0679951
0.000260963
0.0676524
-5.86304e-05
0.0673378
-0.000366177
0.0670427
-0.00065957
0.0667595
-0.000936026
0.0664818
-0.00119227
0.0662039
-0.00142453
0.065921
-0.00162864
0.0656293
-0.00180029
0.0653274
-0.00193598
0.0650207
-0.00202156
0.05524
-0.00206942
0.0458799
-0.00209029
0.0381331
-0.00209178
0.0317106
-0.00207981
0.0263778
0.0219448
-0.0020594
0.000323548
0.0140191
0.00136801
0.0395851
0.00255153
0.0592638
0.00320141
0.0700994
0.00322923
0.073538
0.00292329
0.0732892
0.00253278
0.0721234
0.0021475
0.0710856
0.00177585
0.0702994
0.00141171
0.0696824
0.00105192
0.0691712
0.000695816
0.0687329
0.000343805
0.0683471
-3.29946e-06
0.0679995
-0.0003443
0.0676788
-0.000677569
0.0673759
-0.00100067
0.0670826
-0.00131058
0.0667917
-0.00160367
0.066497
-0.0018757
0.0661931
-0.00212207
0.0658757
-0.00233848
0.0655438
-0.00252226
0.0652045
-0.00265332
0.0553711
-0.00274251
0.0459691
-0.00279863
0.0381892
-0.00282722
0.0317391
-0.00283347
0.026384
0.0219349
-0.00282354
0.000238594
0.0137805
0.00100798
0.0388157
0.00192174
0.0583501
0.00246454
0.0695566
0.00252205
0.0734804
0.00229106
0.0735202
0.00197198
0.0724424
0.00164865
0.0714089
0.00133371
0.0706144
0.00102293
0.0699931
0.00071316
0.069481
0.000403386
0.0690426
9.35602e-05
0.0686569
-0.000216038
0.0683091
-0.000524688
0.0679875
-0.000830996
0.0676822
-0.00113304
0.0673846
-0.00142823
0.0670869
-0.00171327
0.0667821
-0.00198412
0.0664639
-0.00223626
0.0661279
-0.00246564
0.0657732
-0.00267072
0.0654096
-0.00282985
0.0555302
-0.00295345
0.0460927
-0.00304834
0.0382841
-0.00311577
0.0318066
-0.0031558
0.026424
0.0219514
-0.00317233
0.000179427
0.0136011
0.000753924
0.0382412
0.00146002
0.057644
0.00190497
0.0691117
0.00197238
0.073413
0.00179681
0.0736958
0.00153745
0.0727018
0.00126868
0.0716777
0.00100462
0.0708784
0.000742374
0.0702554
0.000478931
0.0697445
0.00021301
0.0693086
-5.58476e-05
0.0689258
-0.00032775
0.068581
-0.000602378
0.0682621
-0.000878918
0.0679588
-0.00115605
0.0676618
-0.00143182
0.0673627
-0.00170352
0.0670538
-0.00196754
0.0667279
-0.00221949
0.0663798
-0.00245492
0.0660086
-0.00267143
0.0656261
-0.00284527
0.0557041
-0.00298926
0.0462367
-0.0031147
0.0384095
-0.00322626
0.0319181
-0.00332161
0.0265194
0.0220168
-0.003387
0.000139096
0.013462
0.000576913
0.0378033
0.00112882
0.0570921
0.00149253
0.068748
0.00156009
0.0733455
0.00142509
0.0738308
0.00121398
0.0729129
0.000990994
0.0719007
0.000770142
0.0710993
0.00054948
0.070476
0.000326248
0.0699677
9.90509e-05
0.0695358
-0.000132843
0.0691577
-0.000369833
0.068818
-0.000611981
0.0685043
-0.000859032
0.0682058
-0.00111029
0.067913
-0.00136452
0.0676169
-0.00161977
0.067309
-0.00187318
0.0669813
-0.00212083
0.0666275
-0.00235802
0.0662458
-0.00258004
0.0658481
-0.00275694
0.055881
-0.00289955
0.0463793
-0.00302472
0.0385347
-0.00314685
0.0320403
-0.00328421
0.0266567
0.0221805
-0.00344791
0.000107144
0.0133548
0.000448875
0.0374616
0.00088884
0.0566521
0.0011881
0.0684487
0.00124983
0.0732837
0.00114249
0.0739381
0.000968979
0.0730864
0.000784005
0.0720856
0.000599879
0.0712834
0.000414862
0.0706611
0.000226424
0.0701561
3.31914e-05
0.069729
-0.000165651
0.0693565
-0.000370692
0.069023
-0.000582348
0.0687159
-0.000800813
0.0684243
-0.00102597
0.0681382
-0.00125729
0.0678482
-0.00149362
0.0675453
-0.00173311
0.0672208
-0.00197307
0.0668674
-0.00220991
0.0664826
-0.00243866
0.0660769
-0.00262254
0.0560648
-0.00276073
0.0465175
-0.00285977
0.0386337
-0.00292946
0.03211
-0.00298727
0.0267146
-0.00317139
0.0223646
0.000105042
0.0219829
0.000146948
0.0219854
0.000179914
0.0219944
0.000210542
0.0219967
0.000235354
0.0220025
0.00025564
0.0220071
0.000272899
0.0220101
0.000283843
0.0220164
0.000292784
0.0220184
0.000296707
0.0220234
0.000297564
0.0220265
0.000295897
0.022029
0.000289786
0.0220335
0.000282076
0.0220351
0.000271114
0.0220383
0.000257846
0.0220406
0.000243244
0.022042
0.000225659
0.0220449
0.000207009
0.022046
0.000187118
0.0220472
0.000165658
0.0220488
0.000143581
0.0220494
0.000120829
0.0220501
9.75637e-05
0.0220506
7.41843e-05
0.0220507
5.08578e-05
0.0220507
2.79684e-05
0.0220502
5.51506e-06
0.0220498
-1.61815e-05
0.0220491
-3.64811e-05
0.0220477
-5.58784e-05
0.0220468
-7.35434e-05
0.022045
-8.91722e-05
0.022043
-0.000103529
0.0220417
-0.000114578
0.0220384
-0.000123641
0.0220364
-0.000130413
0.0220341
-0.000133
0.0220299
-0.000133792
0.0220281
-0.000129899
0.0220235
-0.000122835
0.0220203
-0.000112632
0.0220172
-9.66138e-05
0.0220113
-7.84175e-05
0.0220092
-5.34859e-05
0.0220024
-2.50927e-05
0.021999
8.12626e-06
0.0219941
4.77182e-05
0.0219878
0.0219852
8.98282e-05
0.000133455
0.0219392
0.000174957
0.0219439
0.000207751
0.0219616
0.000238454
0.021966
0.000263596
0.0219774
0.000284464
0.0219862
0.000302549
0.021992
0.000314554
0.0220044
0.000324777
0.0220082
0.000330192
0.022018
0.00033274
0.022024
0.000332947
0.0220288
0.000328883
0.0220375
0.000323375
0.0220406
0.000314762
0.0220469
0.000303976
0.0220514
0.000291969
0.022054
0.00027709
0.0220598
0.000261235
0.0220619
0.000244215
0.0220643
0.000225695
0.0220673
0.000206606
0.0220685
0.000186881
0.0220698
0.000166669
0.0220708
0.000146354
0.0220711
0.00012609
0.0220709
0.000106254
0.0220701
8.68263e-05
0.0220692
6.81174e-05
0.0220678
5.07574e-05
0.022065
3.4229e-05
0.0220633
1.93525e-05
0.0220599
6.41714e-06
0.0220559
-5.36144e-06
0.0220535
-1.3947e-05
0.022047
-2.06829e-05
0.0220432
-2.52726e-05
0.0220387
-2.58268e-05
0.0220305
-2.47606e-05
0.0220271
-1.91851e-05
0.0220179
-1.0635e-05
0.0220117
8.41209e-07
0.0220057
1.79158e-05
0.0219943
3.69221e-05
0.0219902
6.24194e-05
0.0219769
9.11052e-05
0.0219703
0.000124328
0.0219609
0.000163612
0.0219485
0.0219438
0.000205082
0.00014169
0.0218957
0.000183075
0.0219026
0.000216011
0.0219287
0.000247124
0.0219349
0.000272941
0.0219516
0.000294738
0.0219644
0.000313998
0.0219728
0.000327413
0.021991
0.000339269
0.0219963
0.000346529
0.0220108
0.00035112
0.0220194
0.000353557
0.0220264
0.000351899
0.0220392
0.000348957
0.0220435
0.000343059
0.0220528
0.000335123
0.0220593
0.000326087
0.022063
0.000314289
0.0220716
0.000301609
0.0220745
0.000287844
0.022078
0.000272649
0.0220825
0.000256938
0.0220842
0.000240631
0.0220861
0.000223866
0.0220876
0.000207009
0.0220879
0.000190203
0.0220878
0.000173813
0.0220865
0.000157802
0.0220852
0.000142467
0.0220831
0.000128429
0.0220791
0.000115152
0.0220766
0.000103448
0.0220716
9.35921e-05
0.0220658
8.47821e-05
0.0220623
7.90497e-05
0.0220527
7.50281e-05
0.0220472
7.30003e-05
0.0220407
7.48493e-05
0.0220286
7.81354e-05
0.0220238
8.57461e-05
0.0220103
9.61272e-05
0.0220014
0.000109218
0.0219926
0.000127685
0.0219758
0.000147837
0.02197
0.000174234
0.0219505
0.000203545
0.021941
0.000237108
0.0219273
0.000276431
0.0219092
0.0219026
0.000317601
0.0001333
0.0218521
0.000175094
0.0218608
0.00020868
0.0218951
0.00024071
0.0219029
0.000267712
0.0219246
0.000290961
0.0219412
0.000311932
0.0219518
0.000327304
0.0219756
0.000341356
0.0219823
0.000351036
0.0220011
0.000358259
0.0220121
0.000363526
0.0220211
0.000364882
0.0220378
0.000365126
0.0220433
0.000362571
0.0220554
0.000358121
0.0220638
0.000352699
0.0220684
0.000344632
0.0220797
0.000335781
0.0220834
0.000325932
0.0220879
0.000314723
0.0220937
0.000303053
0.0220959
0.00029083
0.0220984
0.000278177
0.0221003
0.000265442
0.0221006
0.000252755
0.0221004
0.000240471
0.0220988
0.000228531
0.0220972
0.000217222
0.0220944
0.000207153
0.0220891
0.000197766
0.0220859
0.000189865
0.0220795
0.000183711
0.0220719
0.000178482
0.0220675
0.000176206
0.022055
0.000175494
0.0220479
0.000176618
0.0220396
0.000181455
0.0220238
0.00018754
0.0220177
0.000197761
0.0220001
0.000210542
0.0219886
0.00022581
0.0219773
0.00024623
0.0219554
0.000268082
0.0219481
0.00029593
0.0219227
0.000326416
0.0219105
0.000360867
0.0218929
0.000400781
0.0218692
0.0218612
0.000442205
0.000108048
0.0218075
0.000150991
0.0218178
0.000185951
0.0218601
0.000219633
0.0218692
0.000248565
0.0218957
0.000274022
0.0219157
0.000297475
0.0219283
0.000315589
0.0219575
0.000332639
0.0219652
0.000345553
0.0219882
0.000356238
0.0220015
0.000365181
0.0220122
0.000370411
0.0220326
0.000374713
0.022039
0.000376387
0.0220537
0.000376319
0.0220639
0.000375419
0.0220693
0.000371997
0.0220831
0.000367898
0.0220875
0.000362893
0.0220929
0.000356606
0.0221
0.000349916
0.0221026
0.000342716
0.0221056
0.000335116
0.0221079
0.000327445
0.0221083
0.000319817
0.0221081
0.000312573
0.022106
0.000305636
0.0221041
0.000299278
0.0221008
0.000294095
0.0220943
0.000289508
0.0220905
0.000286311
0.0220827
0.00028475
0.0220735
0.000283981
0.0220683
0.00028603
0.0220529
0.000289485
0.0220444
0.000294604
0.0220345
0.000303261
0.0220152
0.000312964
0.022008
0.000326602
0.0219864
0.000342581
0.0219726
0.000360813
0.0219591
0.000383966
0.0219322
0.000408288
0.0219238
0.000438357
0.0218926
0.000470785
0.0218781
0.000506892
0.0218568
0.00054817
0.021828
0.0218187
0.00059062
6.39036e-05
0.0217607
0.000108885
0.0217728
0.000146214
0.0218228
0.00018254
0.0218329
0.00021438
0.0218638
0.000243043
0.021887
0.000269997
0.0219014
0.000291892
0.0219356
0.000313
0.0219441
0.000330232
0.0219709
0.000345484
0.0219862
0.000359228
0.0219984
0.000369476
0.0220224
0.000379002
0.0220294
0.000386084
0.0220466
0.000391597
0.0220584
0.00039643
0.0220645
0.000398878
0.0220807
0.000400768
0.0220856
0.000401852
0.0220918
0.000401739
0.0221001
0.000401287
0.022103
0.000400372
0.0221065
0.000399088
0.0221091
0.000397742
0.0221097
0.000396431
0.0221094
0.000395483
0.0221069
0.000394795
0.0221048
0.000394624
0.0221009
0.000395554
0.0220934
0.000396981
0.0220891
0.000399686
0.02208
0.000403901
0.0220693
0.000408756
0.0220634
0.000416279
0.0220454
0.000425028
0.0220357
0.000435247
0.0220243
0.000448812
0.0220016
0.000463195
0.0219936
0.000481297
0.0219683
0.000501495
0.0219524
0.000523692
0.0219369
0.000550563
0.0219053
0.000578318
0.0218961
0.000611557
0.0218594
0.000646858
0.0218427
0.000685537
0.0218181
0.000729079
0.0217844
0.0217744
0.000773435
-4.22261e-06
0.0217117
4.45842e-05
0.021724
8.59032e-05
0.0217815
0.000126111
0.0217927
0.000162198
0.0218277
0.000195401
0.0218538
0.000227179
0.0218696
0.0002542
0.0219086
0.000280739
0.0219176
0.000303688
0.021948
0.000324932
0.021965
0.000344931
0.0219784
0.000361677
0.0220056
0.000377931
0.0220132
0.000391952
0.0220326
0.000404596
0.0220457
0.000416735
0.0220524
0.000426644
0.0220707
0.000436131
0.0220761
0.000444926
0.022083
0.00045262
0.0220924
0.000460047
0.0220956
0.000467064
0.0220995
0.000473745
0.0221025
0.000480371
0.022103
0.000487021
0.0221027
0.000494004
0.0221
0.000501191
0.0220976
0.000508817
0.0220933
0.000517456
0.0220847
0.000526469
0.0220801
0.000536626
0.0220698
0.000548143
0.0220578
0.000560115
0.0220515
0.000574576
0.022031
0.00059005
0.0220202
0.000606764
0.0220076
0.000626598
0.0219818
0.000646982
0.0219732
0.000670832
0.0219445
0.000696497
0.0219267
0.000723864
0.0219095
0.000755625
0.0218736
0.000787942
0.0218638
0.000825449
0.0218219
0.000864682
0.0218035
0.000906957
0.0217758
0.000953756
0.0217376
0.0217272
0.00100097
-9.8132e-05
0.0216582
-4.59283e-05
0.0216718
-6.94767e-07
0.0217362
4.52091e-05
0.0217468
8.73485e-05
0.0217856
0.000126613
0.0218146
0.000164869
0.0218313
0.00019869
0.0218748
0.000232343
0.0218839
0.000262723
0.0219176
0.000291721
0.021936
0.00031978
0.0219504
0.000344869
0.0219805
0.00036974
0.0219883
0.000392627
0.0220097
0.000414367
0.022024
0.000435809
0.0220309
0.000455206
0.0220514
0.000474343
0.022057
0.000492924
0.0220644
0.000510519
0.0220749
0.000527934
0.0220782
0.000544999
0.0220824
0.000561768
0.0220857
0.00057849
0.0220863
0.000595215
0.022086
0.000612238
0.0220829
0.000629388
0.0220805
0.000646881
0.0220758
0.000665272
0.0220663
0.00068388
0.0220615
0.000703466
0.0220503
0.000724219
0.022037
0.000745196
0.0220305
0.000768439
0.0220077
0.000792427
0.0219962
0.000817368
0.0219826
0.00084515
0.021954
0.000873151
0.0219452
0.000904306
0.0219133
0.000936931
0.0218941
0.000970897
0.0218756
0.00100892
0.0218356
0.0010471
0.0218256
0.00109012
0.0217788
0.00113446
0.0217592
0.00118145
0.0217288
0.00123257
0.0216865
0.0216761
0.00128365
-0.000227996
0.0215991
-0.000169208
0.021613
-0.000117223
0.0216842
-6.55944e-05
0.0216951
-1.72611e-05
0.0217373
2.99059e-05
0.0217674
7.6624e-05
0.0217846
0.000119216
0.0218322
0.000161967
0.0218412
0.000201862
0.0218777
0.000240756
0.0218971
0.000279078
0.021912
0.00031478
0.0219448
0.000350606
0.0219525
0.000384756
0.0219756
0.000418045
0.0219907
0.000451299
0.0219977
0.000482739
0.0220199
0.000514125
0.0220256
0.000545129
0.0220334
0.000575294
0.0220447
0.00060539
0.0220481
0.000635214
0.0220526
0.000664792
0.0220561
0.000694331
0.0220568
0.00072385
0.0220565
0.000753617
0.0220532
0.000783412
0.0220507
0.000813421
0.0220458
0.000844178
0.0220356
0.000874948
0.0220307
0.000906472
0.0220187
0.000938912
0.0220046
0.000971271
0.0219981
0.0010056
0.0219734
0.00104033
0.0219615
0.00107563
0.0219473
0.00111341
0.0219162
0.00115098
0.0219077
0.0011913
0.021873
0.00123264
0.0218528
0.00127486
0.0218333
0.0013207
0.0217897
0.0013662
0.0217801
0.0014161
0.021729
0.00146682
0.0217085
0.00151969
0.021676
0.00157621
0.02163
0.0216202
0.00163211
-0.000404186
0.0215331
-0.000337944
0.0215468
-0.000277858
0.0216242
-0.000216988
0.0216343
-0.000158975
0.0216792
-0.000102893
0.0217113
-4.68355e-05
0.0217286
6.1825e-06
0.0217792
6.05298e-05
0.0217868
0.00011253
0.0218257
0.000163822
0.0218458
0.00021509
0.0218608
0.000264195
0.0218957
0.000313862
0.0219028
0.000362252
0.0219272
0.000410161
0.0219428
0.000458382
0.0219494
0.000505096
0.0219732
0.000552034
0.0219787
0.000598826
0.0219866
0.000644978
0.0219985
0.000691213
0.0220019
0.000737287
0.0220065
0.000783185
0.0220102
0.000829058
0.0220109
0.00087488
0.0220107
0.000920885
0.0220072
0.000966787
0.0220048
0.00101273
0.0219999
0.00105922
0.0219891
0.00110543
0.0219845
0.00115211
0.0219721
0.00119935
0.0219573
0.0012461
0.0219514
0.00129442
0.0219251
0.00134266
0.0219133
0.00139096
0.021899
0.00144125
0.0218659
0.00149073
0.0218582
0.00154243
0.0218213
0.00159455
0.0218006
0.00164693
0.021781
0.00170235
0.0217343
0.00175676
0.0217257
0.00181499
0.0216707
0.00187338
0.0216501
0.00193329
0.0216161
0.00199623
0.0215671
0.0215586
0.00205783
-0.000641787
0.0214586
-0.000566376
0.0214714
-0.000496519
0.0215543
-0.00042519
0.0215629
-0.000355901
0.0216099
-0.000287291
0.0216427
-0.000217956
0.0216592
-0.000151605
0.0217128
-8.38823e-05
0.0217191
-1.77372e-05
0.0217596
4.9157e-05
0.0217789
0.00011662
0.0217933
0.000182456
0.0218299
0.000249489
0.0218358
0.000315814
0.0218609
0.000382188
0.0218764
0.000449362
0.0218823
0.000515458
0.0219071
0.000582174
0.0219119
0.000649079
0.0219197
0.000715628
0.021932
0.000782481
0.021935
0.000849333
0.0219396
0.000916116
0.0219434
0.000982904
0.0219441
0.00104961
0.021944
0.00111641
0.0219404
0.00118293
0.0219383
0.00124926
0.0219335
0.00131584
0.0219225
0.00138178
0.0219186
0.00144774
0.0219061
0.0015138
0.0218913
0.00157878
0.0218864
0.00164476
0.0218591
0.00170999
0.021848
0.00177457
0.0218344
0.00184044
0.0218
0.00190469
0.0217939
0.00197039
0.0217556
0.00203568
0.0217354
0.00210036
0.0217163
0.0021673
0.0216674
0.00223231
0.0216607
0.00230035
0.0216027
0.00236768
0.0215827
0.00243567
0.0215481
0.00250587
0.0214969
0.0214906
0.00257381
-0.000960745
0.0213747
-0.000874769
0.0213854
-0.000793408
0.0214729
-0.000709509
0.021479
-0.000626739
0.0215272
-0.000543741
0.0215597
-0.000458935
0.0215744
-0.000375889
0.0216298
-0.000290204
0.0216334
-0.00020533
0.0216747
-0.000119591
0.0216931
-3.23449e-05
0.0217061
5.4252e-05
0.0217433
0.000142881
0.0217472
0.000231783
0.021772
0.000321489
0.0217867
0.000412723
0.021791
0.000503499
0.0218163
0.000595468
0.02182
0.000688116
0.0218271
0.000780821
0.0218393
0.000874162
0.0218417
0.00096775
0.0218461
0.00106144
0.0218497
0.00115519
0.0218504
0.00124883
0.0218503
0.00134247
0.0218467
0.00143559
0.0218451
0.00152819
0.0218409
0.00162065
0.0218301
0.00171192
0.0218273
0.00180262
0.0218154
0.00189272
0.0218012
0.00198091
0.0217982
0.00206929
0.0217707
0.00215595
0.0217614
0.00224094
0.0217495
0.0023262
0.0217148
0.00240867
0.0217115
0.0024915
0.0216728
0.00257273
0.0216541
0.00265214
0.0216369
0.00273266
0.0215868
0.00280999
0.0215833
0.00288923
0.0215234
0.00296654
0.0215054
0.00304336
0.0214713
0.00312129
0.0214189
0.0214162
0.00319573
-0.00138727
0.0212808
-0.00128974
0.0212879
-0.00119553
0.0213787
-0.0010973
0.0213808
-0.000998849
0.0214287
-0.000898754
0.0214596
-0.000795453
0.0214711
-0.000692666
0.021527
-0.000585798
0.0215266
-0.000478315
0.0215672
-0.000368302
0.0215831
-0.00025547
0.0215932
-0.000142194
0.02163
-2.5713e-05
0.0216307
9.14539e-05
0.0216548
0.000210577
0.0216676
0.000332442
0.0216692
0.000454767
0.021694
0.000579152
0.0216956
0.000704935
0.0217013
0.000831387
0.0217128
0.000958984
0.0217141
0.00108722
0.0217178
0.00121583
0.0217211
0.00134465
0.0217215
0.00147335
0.0217216
0.00160192
0.0217182
0.00172968
0.0217174
0.00185647
0.0217142
0.00198257
0.0217039
0.00210671
0.0217031
0.00222942
0.0216927
0.00235052
0.0216801
0.00246851
0.0216802
0.00258549
0.0216537
0.00269932
0.0216475
0.00280998
0.0216388
0.00291941
0.0216054
0.00302435
0.0216065
0.00312803
0.0215691
0.00322836
0.0215538
0.00332511
0.0215401
0.00342132
0.0214906
0.00351253
0.0214921
0.00360407
0.0214319
0.00369199
0.0214175
0.00377782
0.0213854
0.00386326
0.0213335
0.0213359
0.00394359
-0.00195656
0.021178
-0.00184788
0.0211792
-0.00174063
0.0212715
-0.00162712
0.0212673
-0.00151126
0.0213129
-0.00139153
0.0213399
-0.00126629
0.0213459
-0.00113943
0.0214001
-0.00100627
0.0213934
-0.00087053
0.0214315
-0.000730355
0.0214429
-0.00058553
0.0214484
-0.000438609
0.0214831
-0.000286806
0.0214789
-0.000132227
0.0215002
2.52009e-05
0.0215101
0.000185911
0.0215085
0.000348905
0.021531
0.000515035
0.0215295
0.00068363
0.0215327
0.000853855
0.0215426
0.00102604
0.0215419
0.00119952
0.0215443
0.00137388
0.0215468
0.00154874
0.0215467
0.00172358
0.0215468
0.0018982
0.0215435
0.00207165
0.0215439
0.00224355
0.0215422
0.00241399
0.0215335
0.00258138
0.0215358
0.00274608
0.021528
0.0029077
0.0215184
0.00306444
0.0215235
0.00321835
0.0214998
0.00336701
0.0214989
0.00351023
0.0214956
0.00364996
0.0214656
0.00378264
0.0214738
0.00391162
0.0214401
0.00403463
0.0214308
0.00415142
0.0214233
0.00426519
0.0213769
0.00437129
0.021386
0.0044754
0.0213278
0.00457344
0.0213195
0.00466714
0.0212917
0.00475839
0.0212422
0.0212519
0.00484238
-0.00271538
0.0210698
-0.00259785
0.0210617
-0.00247909
0.0211527
-0.00235076
0.021139
-0.00221663
0.0211787
-0.00207483
0.0211981
-0.00192358
0.0211946
-0.0017671
0.0212436
-0.00160076
0.021227
-0.00142878
0.0212595
-0.00124954
0.0212637
-0.00106313
0.021262
-0.000872453
0.0212924
-0.000674862
0.0212813
-0.000472811
0.0212982
-0.000265544
0.0213029
-5.26396e-05
0.0212955
0.000161898
0.0213165
0.000381731
0.0213096
0.000605787
0.0213086
0.000833015
0.0213154
0.00106359
0.0213113
0.00129665
0.0213113
0.00153156
0.0213118
0.00176764
0.0213106
0.00200408
0.0213103
0.00224039
0.0213072
0.00247516
0.0213092
0.00270765
0.0213098
0.00293763
0.0213035
0.003163
0.0213104
0.00338381
0.0213072
0.00359931
0.0213029
0.00380725
0.0213155
0.00400957
0.0212975
0.00420342
0.021305
0.00438836
0.0213106
0.00456635
0.0212876
0.0047334
0.0213068
0.00489299
0.0212805
0.00504264
0.0212811
0.00518203
0.021284
0.00531461
0.0212443
0.00543549
0.0212651
0.00555086
0.0212124
0.00565662
0.0212137
0.00575484
0.0211935
0.00584779
0.0211493
0.0211691
0.00593052
-0.00308911
0.0209866
-0.00299512
0.0209677
-0.00289537
0.021053
-0.00278015
0.0210237
-0.0026523
0.0210509
-0.00251071
0.0210565
-0.00235493
0.0210389
-0.00218993
0.0210786
-0.00201278
0.0210499
-0.00182815
0.0210749
-0.00163529
0.0210708
-0.00143475
0.0210615
-0.00122931
0.021087
-0.00101675
0.0210687
-0.000799279
0.0210807
-0.000576376
0.02108
-0.000347321
0.0210665
-0.000113348
0.0210825
0.000125251
0.021071
0.000369174
0.0210647
0.000617749
0.0210668
0.000871061
0.021058
0.00112823
0.0210541
0.00138853
0.0210515
0.00165106
0.0210481
0.00191476
0.0210467
0.0021788
0.0210432
0.00244144
0.0210465
0.00270154
0.0210497
0.0029584
0.0210467
0.0032096
0.0210592
0.00345474
0.021062
0.00369274
0.0210649
0.0039211
0.0210872
0.00414135
0.0210773
0.00435058
0.0210958
0.0045482
0.021113
0.00473585
0.0211
0.00490977
0.0211329
0.00507306
0.0211172
0.00522339
0.0211308
0.00536039
0.021147
0.00548715
0.0211175
0.00559916
0.0211531
0.00570202
0.0211095
0.00579216
0.0211236
0.00587179
0.0211139
0.0059436
0.0210775
0.0211088
0.00600391
-0.00332626
0.0209259
-0.0032651
0.0209065
-0.00319467
0.0209826
-0.00309786
0.0209269
-0.00297663
0.0209297
-0.00283284
0.0209127
-0.00266971
0.0208757
-0.0024947
0.0209036
-0.0023074
0.0208626
-0.00211321
0.0208807