/*--------------------------------*- C++ -*----------------------------------*\
| =========                 |                                                 |
| \\      /  F ield         | OpenFOAM: The Open Source CFD Toolbox           |
|  \\    /   O peration     | Version:  2312                                  |
|   \\  /    A nd           | Website:  www.openfoam.com                      |
|    \\/     M anipulation  |                                                 |
\*---------------------------------------------------------------------------*/
FoamFile
{
    version     2.0;
    format      ascii;
    arch        "LSB;label=32;scalar=64";
    class       volScalarField;
    location    "50";
    object      div(phi);
}
// * * * * * * * * * * * * * * * * * * * * * * * * * * * * * * * * * * * * * //

dimensions      [0 0 -1 0 0 0 0];

internalField   nonuniform List<scalar> 
10720
(
0.00696781
0.0139604
0.0176193
-0.00746463
-0.00887496
-0.00498273
-0.00426289
-0.00504463
-0.00537549
-0.00444997
-0.00221449
0.000581577
0.00369067
0.00691833
0.0102097
0.0133207
0.015409
0.0161241
0.0167284
0.0189923
0.0209283
0.0169677
0.00675336
-0.00471607
-0.00652844
0.0123857
0.0293393
0.0155282
-0.0286676
-0.0423453
0.0651211
0.06424
-0.102103
-0.085546
0.0954367
0.131037
-0.00699689
-0.212861
0.0790005
0.0291668
0.0353451
0.00356245
0.00508323
0.00991373
0.0294042
0.0315627
0.0124833
0.00683764
0.00706416
0.0101442
0.0118582
0.0109948
0.00930387
0.00843689
0.0087049
0.00930776
0.00947267
0.00888386
0.00725418
0.00456359
0.00162567
-0.000319294
-0.000434961
-0.000206289
0.000268852
0.000747039
0.00180901
0.00339535
0.00388227
0.000472191
-0.0090417
-0.0147626
0.00695829
0.0155363
-0.0214922
0.00027569
0.00328476
0.0170111
-0.00535598
0.048269
0.01554
0.0322176
0.0275563
0.0178308
0.00519073
-0.00753149
-0.0166588
-0.0220555
-0.0238563
-0.0224437
-0.0186318
-0.0136754
-0.00957553
-0.00828054
-0.0114808
-0.0178612
-0.0248794
-0.0312719
-0.0352738
-0.0319715
-0.0134224
0.0214799
0.0473353
0.0235465
-0.0273427
-0.034705
0.032244
0.0260329
-0.0263985
-0.00181634
0.0195153
0.0888055
-0.0908901
-0.0497925
-0.0249202
-0.0537282
-0.0274327
0.034678
0.0120271
0.0281269
0.0440368
0.0397558
0.0164387
0.0116188
0.0117999
0.0162336
0.0218294
0.0248652
0.0245072
0.0231294
0.0227882
0.0235226
0.0240915
0.0229992
0.0194451
0.0137812
0.00796746
0.0039948
0.00200398
-0.000113143
-0.00160195
-0.00119522
5.80238e-05
0.00118209
0.000861578
-0.00284079
-0.0127326
-0.0203069
-0.0033298
0.00254359
-0.0173519
0.0117859
-0.00264817
0.000587227
-0.0112768
0.00672564
0.0224917
0.0108318
-0.0109045
-0.00207709
-0.0021235
-0.00452137
-0.00785975
-0.00992942
-0.00981853
-0.00802622
-0.00500712
-0.00124917
0.00300096
0.0070851
0.0103135
0.0113284
0.0105287
0.00980406
0.00830502
0.00351585
-0.00241444
-0.00603285
-0.00808943
-0.00301387
0.0129897
0.0130414
-0.0067733
-0.0180127
0.00569484
-0.00383094
-0.00203888
0.011074
-0.0168028
0.0124001
-0.0220888
-0.00197662
-0.0172524
-0.00438057
-0.0180024
0.0421443
-0.00156827
0.0217565
0.0288083
0.0247584
0.0167588
0.00789397
0.00845674
0.0126745
0.0159646
0.016594
0.0151923
0.0137971
0.0136446
0.0141665
0.0144286
0.0135865
0.0112177
0.00768552
0.00394409
0.00110991
-0.000279905
0.000159527
-0.000153983
-0.00103461
-0.00107971
8.67816e-05
0.00107591
-0.000871958
-0.00861869
-0.015214
-0.00274943
-1.87746e-05
-0.0114371
0.0105983
-0.00878956
-0.00137217
-0.00979611
0.00477239
0.0294134
0.0305343
0.0293771
0.0242409
0.0176817
0.0106779
0.00372783
-0.00146742
-0.00465417
-0.00607013
-0.00577744
-0.00416976
-0.00135574
0.00193772
0.00470623
0.00577076
0.00424304
0.00235516
0.00144237
-0.000179688
-0.00344217
-0.00593795
-0.00488667
0.00458777
0.0210015
0.0191753
-0.018364
-0.0262704
0.0162951
-0.00255486
0.0115725
0.0208116
-0.021192
0.00410254
-0.0141096
-0.00558123
-0.0272113
0.000198018
-0.024363
0.0242285
0.0227982
0.0196641
0.0138624
0.00654565
0.00487862
0.0052023
0.00848385
0.012375
0.0145982
0.0149247
0.0142388
0.0138761
0.0144553
0.0152533
0.0154869
0.0146128
0.0124902
0.00952263
0.00648169
0.00376491
0.000881192
-0.000730032
-0.000713847
-6.56459e-05
0.00107956
0.00310983
0.0049429
0.00373333
-0.0037896
-0.0107548
0.00146004
0.00398835
-0.00867095
0.0135784
-0.00533991
0.00143305
-0.00289041
0.00865643
0.00457899
0.0277365
0.0152356
0.0102469
0.00575837
0.00188956
-0.00171465
-0.00445
-0.0060747
-0.00659692
-0.00589079
-0.00402082
-0.0011201
0.00234166
0.0052111
0.00652505
0.005644
0.0041768
0.00288888
0.000170112
-0.00406224
-0.00812514
-0.00925964
-0.000325783
0.0182787
0.0203035
-0.0250444
-0.0348133
0.0303774
0.00666348
0.00509506
0.0189545
-0.0227651
0.00193777
-0.0144796
-0.00583084
-0.0260298
0.0158854
-0.0339354
0.0270308
0.0261672
0.0153907
0.00854365
0.00508241
0.00577788
0.00729127
0.0094569
0.0111086
0.0115907
0.0112303
0.0107202
0.0107145
0.0112976
0.0117894
0.0115681
0.0104217
0.00833968
0.00554894
0.00262433
3.17781e-05
-0.00212592
-0.00373387
-0.00439234
-0.00406612
-0.00264148
-0.000184713
0.00191326
0.000824279
-0.0067043
-0.0138804
-0.00216145
0.000216244
-0.0127996
0.00928208
-0.00882486
-0.00146701
-0.00483395
0.00814316
0.00830302
0.0249749
0.00829902
0.00664461
0.00370082
0.00089825
-0.00202192
-0.00496645
-0.00717978
-0.00854225
-0.00883128
-0.00783476
-0.00561342
-0.00267497
-5.93605e-05
0.000731233
-0.000530111
-0.00213589
-0.00281358
-0.00452895
-0.00760846
-0.010277
-0.00954536
0.00141227
0.0218442
0.0233085
-0.0265623
-0.038755
0.0326416
0.00715139
0.00418335
0.0179454
-0.0249506
0.000192736
-0.0143009
-0.000395068
-0.0192224
0.0350624
-0.0442262
0.0334957
0.0172446
0.00874549
0.00477799
0.00430399
0.0052941
0.00640008
0.00756331
0.00835722
0.0087483
0.00904491
0.00959866
0.0106254
0.0119106
0.0128042
0.0127997
0.0117887
0.00987475
0.007294
0.00460236
0.00209197
1.86849e-05
-0.00155913
-0.00227902
-0.00207355
-0.000777326
0.00163903
0.00383613
0.0028915
-0.00454713
-0.0118441
-0.000172141
0.00239872
-0.0112446
0.0106318
-0.00635329
0.00150386
-0.00363227
0.00612795
0.0158661
0.0169454
0.00760043
0.00798502
0.00637473
0.00435783
0.00187209
-0.000999176
-0.00331614
-0.00495686
-0.00563939
-0.00504598
-0.00317335
-0.000533265
0.00189038
0.0025292
0.00116575
-0.000495042
-0.00112389
-0.00225084
-0.00434164
-0.00623978
-0.00533494
0.0046666
0.0238558
0.0251983
-0.024092
-0.0375678
0.0315567
0.0071652
0.00516082
0.0195822
-0.0243355
0.000715276
-0.0118691
0.00300673
-0.0172134
0.0747125
-0.00936756
0.0253129
0.00555998
0.00234063
0.00174978
0.00325747
0.00454773
0.00540041
0.00618012
0.00675669
0.00722378
0.00780073
0.00861427
0.00974361
0.0109369
0.011633
0.0114327
0.0102886
0.00836928
0.00598825
0.00365467
0.00154657
-0.000102885
-0.00133195
-0.00188859
-0.00164691
-0.000422503
0.00182013
0.00386684
0.00291255
-0.00437388
-0.0116915
-0.000545792
0.0019305
-0.0121082
0.00879175
-0.00692463
0.000948599
-0.00672766
0.00201858
0.0139558
0.00845917
0.00795329
0.008971
0.00830407
0.00686585
0.00468353
0.00204719
-0.000275109
-0.00214757
-0.00317943
-0.00301045
-0.00155241
0.000809307
0.00311043
0.00380317
0.00235338
0.000520319
-0.000183596
-0.000956098
-0.00241239
-0.00385329
-0.00290537
0.00628469
0.024089
0.0247828
-0.0235786
-0.037597
0.0285592
0.00618735
0.00443775
0.0192614
-0.023057
0.00234103
-0.00892129
0.00429963
-0.0153983
0.0963945
0.0378416
0.00884591
-0.00163904
-0.000673759
0.00103678
0.00324474
0.00439626
0.00494085
0.00545817
0.00589977
0.0063014
0.00680955
0.00745233
0.00829383
0.00917031
0.00963242
0.00935131
0.00828489
0.0066008
0.0046315
0.00282384
0.00128696
0.000146923
-0.000702935
-0.00113612
-0.000999145
-2.7659e-05
0.00189389
0.00370852
0.00278054
-0.00416756
-0.0112276
-0.000506766
0.00201003
-0.0116769
0.00820586
-0.00681785
0.0016672
-0.00708779
-0.00341822
0.0056307
0.0015511
0.00496372
0.00572177
0.00548375
0.00448691
0.00270295
0.000652337
-0.00123264
-0.00280568
-0.00361181
-0.00331761
-0.00177399
0.000742472
0.00329629
0.00430227
0.00302585
0.00109633
0.000270228
-0.000288207
-0.00129565
-0.00242929
-0.00161963
0.00668436
0.0233192
0.023683
-0.0229756
-0.0368657
0.0261802
0.0056449
0.0044226
0.0185525
-0.0219948
0.00381355
-0.00681345
0.00506263
-0.011579
0.0665418
0.0260659
-0.00256455
-0.00304879
-0.000368441
0.00213939
0.0040042
0.00464768
0.00489609
0.00526928
0.00567085
0.00604642
0.00645269
0.00685658
0.00734945
0.00788373
0.0081248
0.00780124
0.0068523
0.00540029
0.00375886
0.00230533
0.00112762
0.00026656
-0.000406578
-0.000859976
-0.000951409
-0.000358065
0.00112036
0.00257189
0.00152186
-0.0052549
-0.0121375
-0.00155623
0.00120958
-0.0120796
0.00726035
-0.00726589
0.00196152
-0.00732215
-0.00721722
-0.00107415
-0.00145727
0.00137712
0.00140544
0.0010338
0.000216282
-0.00122568
-0.00265819
-0.00394623
-0.0049825
-0.00530824
-0.00465974
-0.00284874
-5.95871e-05
0.00282174
0.00418711
0.00313393
0.00105535
-0.000169311
-0.000954135
-0.00198848
-0.00310406
-0.00251548
0.00498861
0.0207117
0.0211525
-0.0231959
-0.0365026
0.0236877
0.00501534
0.00447621
0.0181774
-0.0203599
0.00519387
-0.00531432
0.00562866
-0.0084868
0.0422874
0.0152641
-0.00511275
-0.000860249
0.00170657
0.00388799
0.00485682
0.00485985
0.00484694
0.00513965
0.00556774
0.00599441
0.0063981
0.00667044
0.00691833
0.00720191
0.00728514
0.00694064
0.00608041
0.00476889
0.00329735
0.00200668
0.00100926
0.000303951
-0.000238885
-0.000656739
-0.00085256
-0.000486155
0.00069973
0.00189877
0.000765889
-0.00585842
-0.0124752
-0.00157755
0.0017437
-0.0115864
0.00742623
-0.00645125
0.00315314
-0.00663928
-0.00602854
-0.00302487
-0.000717885
-0.000372788
-0.00118388
-0.00201715
-0.00290674
-0.00417072
-0.00520834
-0.00603759
-0.00661727
-0.00653995
-0.00560277
-0.00359443
-0.000630376
0.00248744
0.0041675
0.00332139
0.00110878
-0.000524687
-0.0015502
-0.00260399
-0.00361446
-0.00311406
0.00372698
0.0185792
0.019173
-0.0225621
-0.0352455
0.0218591
0.00485456
0.00451976
0.0179284
-0.0177226
0.00697685
-0.00381494
0.00519713
-0.00558095
0.0244984
0.00718739
-0.0017581
0.00242047
0.0040355
0.00531782
0.00532114
0.00479895
0.00458508
0.00481926
0.00528341
0.0057842
0.00624413
0.00650273
0.00664216
0.00678792
0.00677883
0.00642505
0.00560777
0.00434113
0.00290031
0.00161317
0.000648959
1.42629e-05
-0.000401362
-0.000685949
-0.000820522
-0.000509913
0.000509494
0.0015003
0.000250963
-0.00626692
-0.012676
-0.00160512
0.00225547
-0.0112167
0.00721767
-0.0057247
0.00379933
-0.00664522
-0.00101776
-0.00141342
0.00208036
-0.000110654
-0.00151897
-0.00279649
-0.00386386
-0.0050831
-0.00597757
-0.0065973
-0.00695907
-0.00672387
-0.00572078
-0.00373154
-0.000800065
0.00237389
0.00424917
0.00358639
0.00126524
-0.000774505
-0.00211599
-0.00319869
-0.00398328
-0.00332925
0.003163
0.0173296
0.0181125
-0.0208755
-0.0329603
0.0207342
0.00523467
0.00463253
0.0175089
-0.0146298
0.00903643
-0.00222197
0.00393364
-0.00165858
0.0130418
0.00196466
0.00330105
0.00528997
0.00568144
0.00605096
0.00531408
0.00448025
0.00415322
0.00433596
0.00480029
0.00534616
0.00586293
0.00616343
0.00630013
0.00641707
0.00640544
0.00609036
0.00533461
0.00410038
0.00263236
0.00126421
0.000230649
-0.000409465
-0.000719706
-0.000811173
-0.000746483
-0.000322492
0.000674294
0.00153607
0.000179519
-0.00622913
-0.0124689
-0.00154027
0.00273142
-0.0106347
0.00691462
-0.0049842
0.00407943
-0.00697138
0.00347955
0.0015245
0.00511064
0.00111873
-0.000372179
-0.00184159
-0.00302818
-0.00422735
-0.00510663
-0.00569169
-0.00602893
-0.00585046
-0.00499611
-0.00323437
-0.000532465
0.00252758
0.00448668
0.00398629
0.00163072
-0.000711722
-0.00235825
-0.0034903
-0.00401375
-0.00307674
0.0032473
0.0168312
0.0177976
-0.0184127
-0.0300012
0.0199641
0.00584331
0.00463258
0.0166506
-0.0118541
0.0105117
-0.000850735
0.00196104
0.00187102
0.00559547
-0.000414108
0.00737739
0.0071785
0.00634309
0.00605702
0.00494827
0.00399812
0.00362833
0.0037587
0.00418003
0.00470909
0.00524202
0.00558715
0.00577562
0.00594729
0.0060161
0.00582333
0.00520476
0.00407007
0.00261161
0.00115472
-1.14469e-05
-0.000750031
-0.00104896
-0.000999609
-0.000716846
-9.89362e-05
0.000977978
0.00179609
0.000372892
-0.00591959
-0.0120456
-0.00154012
0.00296306
-0.0100533
0.00645099
-0.00450199
0.00381834
-0.0071143
0.00570794
0.00408084
0.00717908
0.00238454
0.00123371
-0.000164206
-0.00131674
-0.00240649
-0.00327272
-0.00386963
-0.00426163
-0.00425689
-0.0036767
-0.0022815
3.94103e-05
0.00284032
0.00478479
0.00445064
0.00216188
-0.000363291
-0.00226731
-0.00350852
-0.00388569
-0.00272346
0.00343112
0.0164208
0.0176016
-0.0157838
-0.0268906
0.0191506
0.00635347
0.00432066
0.0152168
-0.00978043
0.0107248
-0.000248576
-0.000172993
0.00397184
0.000618851
-0.00101967
0.00962742
0.00789569
0.00622176
0.00562586
0.0044028
0.00345828
0.00308857
0.00316179
0.00350905
0.00397817
0.00448108
0.00484441
0.00508846
0.00534657
0.00554255
0.00552902
0.00512308
0.00417862
0.00281676
0.0013279
2.71888e-05
-0.000872718
-0.001264
-0.0011786
-0.000738136
7.8206e-05
0.00129372
0.00215008
0.000725054
-0.00543319
-0.0114785
-0.0015028
0.00314274
-0.00938877
0.00612413
-0.00406482
0.00332942
-0.00654865
0.00636627
0.00554192
0.0078445
0.00327299
0.00259302
0.00141006
0.000422009
-0.000469224
-0.00126073
-0.00183704
-0.00227761
-0.00246964
-0.00220504
-0.00123978
0.00061103
0.00305329
0.00490252
0.0047416
0.00262677
6.78663e-05
-0.00198578
-0.0033144
-0.00362382
-0.00232728
0.00355589
0.0158183
0.0172122
-0.0133055
-0.0239156
0.018116
0.00659852
0.00359045
0.0132376
-0.00842224
0.00964272
-0.000790179
-0.00186596
0.00478264
-0.00230332
0.000200085
0.0102948
0.00754108
0.00563127
0.00492915
0.00376048
0.00291506
0.0025766
0.00260378
0.00287116
0.00326008
0.00369374
0.00403538
0.00431335
0.00464203
0.00496056
0.00513874
0.00498094
0.00430201
0.00314146
0.0017237
0.000352001
-0.000708543
-0.00125644
-0.00123824
-0.000741516
0.000210814
0.00155544
0.00248235
0.00108931
-0.00494337
-0.0109351
-0.00143963
0.00333833
-0.0088305
0.00578154
-0.00368363
0.00263231
-0.00549863
0.00605334
0.00601946
0.00752907
0.00376139
0.00344044
0.00251072
0.00174698
0.00109229
0.000446613
-4.13844e-05
-0.000472818
-0.000799997
-0.000803901
-0.00024765
0.00111674
0.00314455
0.00481982
0.00478723
0.00289056
0.000408415
-0.00170462
-0.00310601
-0.00338826
-0.00200701
0.00356059
0.0149901
0.0165584
-0.0110638
-0.0211107
0.0169115
0.00662707
0.00251607
0.0108968
-0.00757609
0.00775848
-0.00226187
-0.00298721
0.00498519
-0.00373935
0.00253152
0.00968837
0.00645394
0.00472559
0.00402633
0.00301812
0.00232083
0.00202766
0.0020189
0.00221426
0.00251949
0.00286425
0.00315224
0.00342287
0.00377516
0.00417115
0.0044996
0.00457885
0.00419756
0.00332515
0.0020984
0.000771643
-0.000377032
-0.00107341
-0.00117389
-0.000705391
0.000302534
0.00172932
0.00272337
0.00138983
-0.00448371
-0.0103911
-0.00134491
0.00357476
-0.00833816
0.00535417
-0.00331346
0.00177986
-0.00425674
0.0050389
0.00578511
0.0067223
0.00384426
0.00372429
0.00303687
0.0024952
0.00206659
0.00161301
0.00127535
0.000932396
0.000577342
0.000412468
0.000655394
0.00159296
0.00320593
0.00465523
0.00469189
0.0030152
0.000670069
-0.00144344
-0.00291096
-0.00320693
-0.00181013
0.00341155
0.0139505
0.0156247
-0.00909538
-0.018479
0.0156719
0.00660615
0.00131332
0.00849341
-0.00696286
0.00572393
-0.00391537
-0.00373979
0.00475306
-0.00418945
0.00382865
0.00818294
0.00509759
0.00368866
0.00305499
0.00224102
0.00169204
0.00143831
0.00140036
0.00153156
0.00175535
0.00200644
0.00222331
0.00245011
0.00277146
0.00317191
0.00357135
0.0038154
0.00370282
0.00314484
0.0021947
0.00102798
-0.000101524
-0.000883218
-0.0010975
-0.000702256
0.000295394
0.00174885
0.00278957
0.00154305
-0.00410015
-0.00985046
-0.00129104
0.00375739
-0.00780292
0.00490357
-0.00297386
0.000807023
-0.00302118
0.00352776
0.00504872
0.00565976
0.00348949
0.00347303
0.00298202
0.00261164
0.00235656
0.00209005
0.00192121
0.00171955
0.00143716
0.00123149
0.00129117
0.00191282
0.00316756
0.00438621
0.00445945
0.00300418
0.000848702
-0.00120748
-0.00271483
-0.00305436
-0.00172625
0.00308738
0.0126899
0.014418
-0.0074332
-0.0160358
0.0144771
0.00665693
0.000187756
0.00631299
-0.00632785
0.00399157
-0.00501717
-0.00428314
0.0037923
-0.00406202
0.00260335
0.00639979
0.00389848
0.00276844
0.00223512
0.00160411
0.00117751
0.000957575
0.000900292
0.000982451
0.00113758
0.00130733
0.00145269
0.0016143
0.00186427
0.00220262
0.00258136
0.00288798
0.00295427
0.00266465
0.00200361
0.00106248
4.01943e-05
-0.000751581
-0.00104453
-0.000735438
0.000206367
0.00163399
0.00268706
0.00153073
-0.00383787
-0.00937014
-0.00133655
0.00383507
-0.00720913
0.00451616
-0.00265042
-0.000182157
-0.00187236
0.00179495
0.00408194
0.00449884
0.00283763
0.00288445
0.00252815
0.0022618
0.00210887
0.00197811
0.00194962
0.00189167
0.00173157
0.00157422
0.00156945
0.00199727
0.00298217
0.00400252
0.00410186
0.00286913
0.000947296
-0.000984954
-0.00248325
-0.00287318
-0.00167969
0.00264275
0.0112466
0.0129853
-0.00607135
-0.0137908
0.0133574
0.00681355
-0.000748468
0.00450952
-0.00550562
0.00272065
-0.0052267
-0.00455184
0.00202598
-0.00356595
-0.000343539
0.00485018
0.00297387
0.0020723
0.00165687
0.00117921
0.000849077
0.000665272
0.00060446
0.000658263
0.000767868
0.000881643
0.000970854
0.00106889
0.00123388
0.00147274
0.0017633
0.00203899
0.00217685
0.00206625
0.0016467
0.000935573
6.52468e-05
-0.000680926
-0.0010136
-0.00078355
7.79459e-05
0.0014405
0.00247029
0.00138964
-0.00369563
-0.00898351
-0.00152312
0.00375151
-0.00661401
0.00422054
-0.0023439
-0.00107682
-0.000849043
0.000114323
0.0031602
0.00339722
0.00216893
0.00225188
0.00198094
0.00176433
0.00165334
0.00159183
0.00164508
0.00169221
0.00165064
0.00157864
0.00158737
0.00192048
0.00272172
0.00358733
0.00370767
0.00268063
0.00100116
-0.000765563
-0.00220755
-0.00263534
-0.00160552
0.00217358
0.00972378
0.0114146
-0.00497955
-0.011744
0.0123081
0.00704038
-0.00144503
0.00310696
-0.00445745
0.00188325
-0.00462075
-0.00435849
-0.000145892
-0.00268568
-0.00342164
0.00364473
0.00224463
0.0015637
0.0012589
0.000903888
0.000656758
0.000512733
0.000463075
0.000506899
0.000593018
0.000675999
0.000730891
0.000781986
0.000873732
0.00101126
0.00118951
0.00137976
0.00150665
0.00148351
0.00123225
0.000714985
2.99227e-07
-0.000671616
-0.00101296
-0.000846721
-7.09193e-05
0.00120663
0.00219009
0.00116831
-0.0036458
-0.00869724
-0.00183641
0.00350381
-0.00608386
0.00399179
-0.00206084
-0.00179028
2.32606e-05
-0.00129311
0.00239188
0.00247008
0.00164075
0.00173496
0.00151531
0.00132378
0.00121747
0.00117469
0.00125466
0.00135415
0.00139558
0.00140608
0.00146337
0.0017681
0.00245643
0.00321155
0.00335375
0.00251038
0.00106134
-0.000531219
-0.00189196
-0.00234719
-0.00149383
0.00173662
0.00823188
0.0098033
-0.00411856
-0.00990065
0.0113235
0.00728835
-0.00188847
0.00205305
-0.00326846
0.00137913
-0.00354036
-0.00364543
-0.00215243
-0.0015256
-0.00577724
0.00267502
0.0016287
0.00116344
0.000952007
0.000700241
0.000528194
0.000425632
0.000394968
0.000440315
0.000516733
0.00058478
0.000621361
0.000643025
0.000681815
0.000738643
0.000815874
0.000910094
0.000986441
0.000988365
0.000838798
0.000466805
-0.000111287
-0.000703135
-0.00103612
-0.000919127
-0.000225569
0.000960947
0.00188845
0.000918658
-0.00363402
-0.00846338
-0.00221471
0.00313805
-0.00565445
0.00376313
-0.00181487
-0.00228539
0.000711493
-0.00229436
0.00175148
0.00174842
0.00124762
0.00132785
0.00114927
0.000979028
0.000866226
0.000817611
0.000889073
0.000997066
0.0010812
0.00115208
0.00126433
0.00157819
0.00220745
0.00289363
0.00306744
0.0023897
0.00114947
-0.000274896
-0.00154535
-0.00202441
-0.00135137
0.00135701
0.00684504
0.00824346
-0.00343891
-0.0082577
0.0103849
0.00749748
-0.0020966
0.00127455
-0.00210003
0.00107616
-0.00237713
-0.00258366
-0.00348003
-0.000267197
-0.00710265
0.00185635
0.00111221
0.000827519
0.000689339
0.000524928
0.000418536
0.000354864
0.000345794
0.000398407
0.000472077
0.000533282
0.00055946
0.000560945
0.00056178
0.000558869
0.000557799
0.000569375
0.0005876
0.000583205
0.000489024
0.000218659
-0.000250235
-0.000770234
-0.00109103
-0.00101664
-0.000402534
0.00069213
0.00156524
0.000658325
-0.00361817
-0.00821985
-0.00260811
0.00267552
-0.00530395
0.0035053
-0.00162591
-0.00256248
0.00118667
-0.00284327
0.00121682
0.00120417
0.000926575
0.000981666
0.000842287
0.000697718
0.000581021
0.000522407
0.000570938
0.000661631
0.000756612
0.000861413
0.00101836
0.00135378
0.00195536
0.00260601
0.00282441
0.00230619
0.00126471
8.3232e-06
-0.00116711
-0.00167721
-0.00118293
0.00103756
0.00559116
0.00679205
-0.00289617
-0.00681049
0.00949159
0.00761999
-0.00211191
0.000706941
-0.00109914
0.000849723
-0.00142815
-0.00148058
-0.00389594
0.00102766
-0.00739182
0.00119131
0.000717543
0.000557286
0.000472406
0.000377041
0.000323601
0.0002942
0.000307363
0.00037149
0.000447526
0.000507505
0.000527738
0.000511946
0.000481623
0.00043159
0.000370142
0.000317299
0.000285408
0.000264585
0.00019963
-1.31386e-06
-0.000387318
-0.000850062
-0.00116454
-0.00113534
-0.000604777
0.000393413
0.0012149
0.000389339
-0.00358043
-0.00793139
-0.00297247
0.00214745
-0.0049991
0.00322535
-0.00150697
-0.00264055
0.00143308
-0.00296871
0.000786505
0.000798094
0.00064001
0.000669664
0.00056638
0.000448438
0.000333731
0.000269296
0.000294035
0.000358125
0.00044468
0.000560538
0.000743452
0.00109465
0.00167757
0.00230817
0.00257838
0.00221846
0.00137384
0.000293471
-0.000776359
-0.00131232
-0.000986326
0.000783134
0.00448552
0.00548455
-0.00244798
-0.00553587
0.00863734
0.00762667
-0.00198597
0.000306491
-0.000347744
0.000619959
-0.000818058
-0.00056949
-0.00349604
0.00223834
-0.0069227
0.000715087
0.000450101
0.000361913
0.000314698
0.000268883
0.000254827
0.000254143
0.000289362
0.000368424
0.00045339
0.000519412
0.000539396
0.000509717
0.000451848
0.000360512
0.00024864
0.000144553
7.25699e-05
3.5925e-05
-1.08453e-05
-0.000160612
-0.000480886
-0.000897861
-0.00121323
-0.00123694
-0.000801672
8.70028e-05
0.000849781
0.00011761
-0.00351771
-0.00758486
-0.00327255
0.00160675
-0.00471141
0.0029354
-0.00145464
-0.00255344
0.00145278
-0.0027558
0.000474015
0.000503397
0.000397771
0.000405891
0.000328898
0.000233327
0.000123754
5.89603e-05
6.56591e-05
0.000104705
0.000175829
0.000288884
0.000480289
0.000832285
0.00138955
0.00199589
0.00230998
0.00209756
0.00144603
0.000551316
-0.000394713
-0.00093339
-0.00075528
0.000609637
0.00354991
0.00434818
-0.00205727
-0.00441021
0.00783052
0.00751106
-0.001753
6.15846e-05
0.000184497
0.000408921
-0.000490094
5.74032e-05
-0.00256661
0.00316631
-0.00593194
0.000422063
0.000284701
0.000235323
0.000213153
0.00019838
0.000209805
0.000230705
0.000284714
0.000379343
0.000477769
0.00055651
0.000583296
0.000546884
0.000467849
0.000340738
0.000184273
3.62765e-05
-6.94793e-05
-0.000119502
-0.000151413
-0.000257194
-0.000517822
-0.000890571
-0.00120739
-0.00128748
-0.000959117
-0.00019893
0.000487934
-0.000154415
-0.00344026
-0.00719775
-0.0034963
0.00107701
-0.00441998
0.00264885
-0.00145534
-0.00234635
0.0012649
-0.00232633
0.000277397
0.000303325
0.0002205
0.000209001
0.00014558
6.41849e-05
-4.13901e-05
-0.000103871
-0.000107879
-8.64028e-05
-2.79134e-05
7.88422e-05
0.000268492
0.000607594
0.00112652
0.00169346
0.00202923
0.00193608
0.00146407
0.000757189
-4.51448e-05
-0.000558102
-0.000497202
0.000516559
0.00279364
0.00340295
-0.00169969
-0.00341406
0.00708587
0.00728605
-0.0014324
-3.43395e-05
0.000578982
0.00030238
-0.000282294
0.000436896
-0.00149764
0.00358874
-0.00467967
0.000259647
0.000185674
0.000160591
0.000152575
0.00015342
0.000178046
0.000211402
0.000277278
0.000382959
0.000494137
0.000587365
0.000626075
0.000591761
0.000501474
0.000348313
0.000155104
-3.13596e-05
-0.00016785
-0.000230864
-0.000249419
-0.000312705
-0.000511344
-0.000831637
-0.00113744
-0.00126566
-0.001046
-0.000430229
0.000157619
-0.000414259
-0.0033567
-0.00678636
-0.00364562
0.000594654
-0.00411167
0.00237588
-0.00148221
-0.00206427
0.000905491
-0.00181321
0.000166297
0.000180076
0.000108065
7.71466e-05
1.55104e-05
-6.11266e-05
-0.000167065
-0.000228442
-0.000238377
-0.000226622
-0.000173108
-6.78759e-05
0.000119911
0.000441467
0.000913537
0.00142568
0.00175399
0.00174221
0.00141861
0.000888629
0.000242255
-0.000212968
-0.000230516
0.000493007
0.00221012
0.0026491
-0.00135719
-0.00253448
0.00640492
0.00698216
-0.0010277
1.74604e-05
0.000932917
0.000387157
-5.26018e-05
0.0006352
-0.000640975
0.00349211
-0.00343443
0.000172575
0.000127749
0.000118739
0.000116481
0.000122109
0.000149973
0.000186608
0.000255188
0.000363687
0.000481603
0.000585565
0.000637191
0.000612279
0.000521895
0.000355946
0.00013774
-8.01945e-05
-0.00024591
-0.000324835
-0.000335219
-0.000359509
-0.000492839
-0.000746839
-0.00102088
-0.00117503
-0.00105132
-0.000582193
-0.000113523
-0.000641695
-0.00326427
-0.00636252
-0.00372882
0.000166117
-0.00378058
0.00212089
-0.00150529
-0.00174184
0.000428041
-0.00133171
0.000106541
0.000115079
4.58574e-05
-3.1676e-06
-7.07594e-05
-0.000151002
-0.000262752
-0.000326984
-0.000342266
-0.000335499
-0.000279903
-0.000168737
2.34512e-05
0.000331647
0.000758126
0.00120708
0.00150326
0.00153029
0.00131382
0.000933251
0.000441581
6.90671e-05
1.50347e-05
0.000515
0.00177636
0.00207289
-0.00102588
-0.00176245
0.00578339
0.00661487
-0.000572702
0.000182452
0.00128749
0.000683321
0.000236295
0.000670706
-0.00024372
0.00296646
-0.00220716
0.000127555
9.90909e-05
9.70436e-05
9.45909e-05
9.78373e-05
0.000121703
0.000154044
0.000216935
0.000319413
0.000435524
0.000542717
0.000604015
0.000592054
0.000510906
0.000346243
0.000117643
-0.000121721
-0.000314202
-0.000414428
-0.000427344
-0.000422823
-0.000494163
-0.000672786
-0.000892705
-0.00104407
-0.00098923
-0.000653623
-0.000310978
-0.000820853
-0.00315416
-0.00593528
-0.00376153
-0.000225634
-0.00343579
0.00188342
-0.00149878
-0.00140399
-9.82514e-05
-0.000959273
7.69755e-05
9.08759e-05
1.73513e-05
-4.51655e-05
-0.000121813
-0.000210981
-0.000332611
-0.000404687
-0.000427966
-0.000425861
-0.000365374
-0.000242943
-3.91913e-05
0.000264527
0.000654067
0.00104199
0.00129017
0.00131939
0.00116438
0.000894272
0.000539541
0.000261327
0.00020714
0.000550571
0.00145907
0.00164324
-0.000713038
-0.00109942
0.00521269
0.00619002
-0.000104618
0.000407071
0.0016341
0.00112198
0.000540873
0.000524928
-0.000326554
0.00213338
-0.000983296
0.00011301
9.4308e-05
8.99527e-05
8.34947e-05
8.01472e-05
9.58623e-05
0.000119438
0.000171284
0.000261056
0.000367483
0.000469826
0.000534691
0.000534793
0.000468252
0.000316611
9.25325e-05
-0.000155333
-0.000368549
-0.000494171
-0.000522283
-0.000505932
-0.00052866
-0.00063358
-0.000785716
-0.000906717
-0.000886191
-0.000655419
-0.000430479
-0.000938728
-0.00302141
-0.00550817
-0.00375719
-0.00059002
-0.00309784
0.00165896
-0.00144545
-0.00106449
-0.000596759
-0.000723892
6.83448e-05
9.34586e-05
1.13537e-05
-5.80499e-05
-0.000143164
-0.000242585
-0.000375131
-0.000458531
-0.000493394
-0.000498618
-0.000434923
-0.000300528
-8.12992e-05
0.00022646
0.000591848
0.000928548
0.00112474
0.00113076
0.000995756
0.000791548
0.000541469
0.000353665
0.000325168
0.000573514
0.00122371
0.00132956
-0.000426169
-0.000547237
0.00467703
0.00570588
0.000321701
0.000626354
0.00192562
0.00160313
0.000809003
0.000220066
-0.000730138
0.00119087
2.00839e-05
0.000123813
0.000106613
9.31254e-05
8.08296e-05
6.92049e-05
7.52856e-05
8.88993e-05
0.000127937
0.000201834
0.000293527
0.000384266
0.000446275
0.00045415
0.00040282
0.000271358
6.45723e-05
-0.000177768
-0.000401636
-0.00055146
-0.000604862
-0.000595409
-0.000590607
-0.000635782
-0.000719057
-0.000791305
-0.000772178
-0.000609711
-0.000478672
-0.000988416
-0.00285185
-0.0050827
-0.00372292
-0.000931496
-0.0027916
0.00143472
-0.00134064
-0.000734709
-0.000994607
-0.000607122
7.64893e-05
0.000111671
2.15185e-05
-4.84055e-05
-0.00013903
-0.000246706
-0.000387774
-0.00048331
-0.000531966
-0.000547359
-0.000485017
-0.000342014
-0.000108063
0.000208803
0.000562063
0.000862455
0.00101285
0.000983498
0.000836867
0.000656113
0.000471097
0.000354865
0.000364167
0.000567658
0.00104306
0.00110441
-0.00017334
-0.000104257
0.00416702
0.00517122
0.000655432
0.000776131
0.00210842
0.00203037
0.00101729
-0.000147041
-0.0012431
0.000287816
0.000511506
0.000150688
0.000126459
0.000100947
8.21151e-05
6.2439e-05
5.96228e-05
6.43874e-05
9.14292e-05
0.000149308
0.000224263
0.000299604
0.000352764
0.000362677
0.000323151
0.000213731
3.25304e-05
-0.00019165
-0.000413176
-0.000579887
-0.000661878
-0.000674441
-0.000665052
-0.000672368
-0.000698533
-0.000717441
-0.000675624
-0.000544735
-0.000474753
-0.000976149
-0.00264558
-0.00465161
-0.00365811
-0.00124927
-0.00253694
0.0011959
-0.0011958
-0.000424436
-0.00123768
-0.000557399
9.5471e-05
0.000136211
4.13168e-05
-2.47915e-05
-0.000116996
-0.000228875
-0.000374022
-0.000479674
-0.000541812
-0.000569306
-0.000512661
-0.000366667
-0.000122303
0.000204173
0.000554303
0.000833298
0.000950568
0.000886146
0.000710609
0.000519834
0.000359973
0.000288317
0.000333586
0.000526742
0.000896233
0.000944565
4.41633e-05
0.000237992
0.00367783
0.00459271
0.000872726
0.000826333
0.00215349
0.00233789
0.00117009
-0.000452824
-0.00169442
-0.000547612
0.000411918
0.000180995
0.000144758
0.000107344
8.21642e-05
5.61068e-05
4.64152e-05
4.46348e-05
6.19656e-05
0.000105713
0.000164448
0.000223005
0.000263646
0.000269944
0.000236774
0.000146542
-6.55275e-06
-0.000203922
-0.000410623
-0.000582647
-0.000688662
-0.000730108
-0.000734446
-0.000728335
-0.000717993
-0.000691864
-0.000617011
-0.000488508
-0.000444606
-0.000916964
-0.002403
-0.00421193
-0.0035561
-0.0015354
-0.00234362
0.000930103
-0.00103284
-0.000147761
-0.00130145
-0.000512308
0.000117264
0.000158949
6.30456e-05
2.93367e-06
-8.71683e-05
-0.000198709
-0.000342981
-0.000454928
-0.000528227
-0.000567262
-0.000519514
-0.000376029
-0.000127582
0.000205495
0.000556866
0.000827215
0.000926538
0.000836062
0.000627582
0.00040715
0.000239665
0.000182442
0.000253628
0.000455137
0.000771206
0.000833419
0.000229454
0.000496404
0.00321925
0.00400037
0.000973218
0.000772998
0.00205567
0.00249017
0.00126831
-0.000625107
-0.00198395