/*--------------------------------*- C++ -*----------------------------------*\
| =========                 |                                                 |
| \\      /  F ield         | OpenFOAM: The Open Source CFD Toolbox           |
|  \\    /   O peration     | Version:  2312                                  |
|   \\  /    A nd           | Website:  www.openfoam.com                      |
|    \\/     M anipulation  |                                                 |
\*---------------------------------------------------------------------------*/
FoamFile
{
    version     2.0;
    format      ascii;
    arch        "LSB;label=32;scalar=64";
    class       volScalarField;
    location    "50";
    object      k;
}
// * * * * * * * * * * * * * * * * * * * * * * * * * * * * * * * * * * * * * //

dimensions      [0 2 -2 0 0 0 0];

internalField   nonuniform List<scalar> 
10720
(
0.00432765
0.00728873
0.0183683
0.0299583
0.0434663
0.0596843
0.081297
0.109676
0.147374
0.1996
0.276342
0.397465
0.59487
0.967611
1.67772
3.11385
5.8418
12.3527
23.2267
33.6629
41.8164
50.3852
63.6156
70.4258
105.641
132.412
410.841
817.561
478.415
146.604
19.9259
3.84149
0.740794
0.0113402
1e-15
1e-15
1e-15
2.18649
170.761
0.0206421
0.0520228
0.143128
0.222918
0.233441
0.200612
0.205933
0.213966
0.227613
0.24694
0.271827
0.303152
0.343883
0.401707
0.492888
0.639936
0.911193
1.33055
1.9935
2.80949
3.78968
5.16051
7.22238
10.4549
15.1416
20.0039
21.7948
16.0881
8.25237
3.00849
0.758025
0.0859351
0.0131998
0.00468933
0.000647238
0.0071681
0.00011191
1.32665
102.243
0.0352112
0.0411627
0.0470233
0.0525598
0.0576924
0.0621007
0.0657237
0.0686235
0.0706734
0.0716778
0.0711408
0.0681998
0.0588623
0.103453
0.119317
0.124471
0.210239
0.450382
1.31423
3.20468
6.29007
10.3805
16.3512
20.466
27.6429
21.4622
84.3292
273.731
203.685
110.463
47.5853
15.2099
3.32162
0.0504641
0.000975558
1e-15
1e-15
1.4313
106.325
0.139769
0.218551
0.210357
0.132992
0.0669787
0.0495392
0.0498082
0.0529813
0.0562241
0.0601171
0.0646876
0.0693664
0.0735558
0.0772991
0.083359
0.086505
0.0959988
0.0969869
0.0419668
0.0182697
0.0645224
0.0966464
0.116651
0.0823289
0.128322
0.26476
0.45955
0.546376
0.475502
0.348371
0.213934
0.111432
0.0506781
0.0208371
0.00788559
0.00132997
0.00792337
0.324336
23.7821
0.210983
0.193576
0.195467
0.197739
0.199668
0.20139
0.202933
0.204314
0.205666
0.206901
0.207958
0.209012
0.21002
0.211021
0.21324
0.21839
0.195351
0.114392
0.283916
0.0516515
0.17093
0.271023
1.15709
2.73175
5.34356
5.44477
6.71618
54.6289
53.9252
38.6332
23.3587
12.0895
4.33801
0.712578
0.0703881
0.014833
1e-15
1.09243
77.2265
0.229789
0.134096
0.0286977
0.0190211
0.00809626
0.00617577
0.00637607
0.0069975
0.00765941
0.00845798
0.00938738
0.0103859
0.0113723
0.0123379
0.0137292
0.0146911
0.0167943
0.0175699
0.00165812
0.000676584
0.0125974
0.000518409
0.00264338
0.00455019
0.00792411
0.00832848
0.00857758
0.0158262
0.0217203
0.0252389
0.0297595
0.0348474
0.0397546
0.0437018
0.0453883
0.0494802
0.0346338
0.0932218
6.46645
0.168414
0.153002
0.145014
0.140497
0.136128
0.132842
0.130588
0.129025
0.128367
0.128675
0.129898
0.132
0.134932
0.1385
0.142289
0.146054
0.150311
0.157188
0.156021
0.142191
0.0638214
0.066621
0.237371
0.568598
0.165353
7.32537e-05
1.44928
5.2682e-05
0.000120692
0.000364947
0.00290314
0.0869168
0.838543
0.710658
0.249084
0.0655951
0.00117129
0.851171
57.2683
0.055717
0.0222893
0.00694151
0.0107471
0.00165719
0.000517921
0.0146357
0.0146827
0.0147313
0.0150009
0.0152927
0.0156772
0.01602
0.0163502
0.0166936
0.0170653
0.0174056
0.0177246
0.0183202
0.0183977
0.0184779
0.0187555
0.0193381
0.000267309
0.00088626
0.0017753
0.00264434
0.00330408
0.00392581
0.00438004
0.00512259
0.0061704
0.00769823
0.0107465
0.0147458
0.0175676
0.0398068
0.0204786
1.31619
0.0139457
0.0301958
0.0221203
0.0172595
0.0132747
0.0104559
0.00860118
0.00714843
0.00655919
0.00694267
0.00788921
0.00925306
0.0110036
0.0131322
0.0157155
0.0187544
0.0221451
0.0269957
0.035943
0.0426218
0.0503478
0.0493798
0.022269
0.00119243
0.0342426
1.54327e-05
1e-15
1.14475e-05
2.65902e-05
8.14372e-05
0.000655526
0.0198461
0.000213857
5.41685e-06
0.118503
0.124609
0.00233601
0.596386
38.1945
0.00781404
0.0126961
0.0318327
0.0882351
0.112787
0.111305
0.109745
0.10884
0.107347
0.107146
0.107373
0.107922
0.107736
0.107299
0.106762
0.106209
0.105477
0.104593
0.103602
0.102448
0.101171
0.0998393
0.0984408
0.0969427
0.0953128
0.0935773
0.0917286
0.0897144
0.0874481
0.0850622
0.0819889
0.0776639
0.0723128
0.0696017
0.0628952
0.0480932
0.0531047
0.0114661
0.415815
0.0051216
0.00729284
0.0072824
0.00709405
0.00741173
0.00793308
0.00839559
0.00892378
0.00951661
0.0101639
0.0108924
0.0116575
0.0124596
0.0133243
0.0142549
0.0152612
0.0163311
0.0176258
0.0193314
0.0203074
0.0216755
0.00214446
0.00985228
0.00891514
0.0111724
7.03382e-06
1e-15
1e-15
1e-15
1e-15
1e-15
1e-15
4.90439e-05
1.25645e-06
9.37273e-08
5.17391e-07
1.01802e-08
0.00437841
0.267008
0.000213353
0.0784181
0.145254
0.154214
0.153816
0.154427
0.153954
0.154372
0.153874
0.154374
0.155878
0.15621
0.156118
0.156157
0.156197
0.156228
0.156089
0.155887
0.155488
0.154695
0.153909
0.15306
0.15196
0.150541
0.148765
0.14665
0.144217
0.141491
0.137967
0.134938
0.1325
0.127565
0.120676
0.113457
0.105797
0.0930111
0.0859284
0.0463927
0.0435931
0.0326239
0.0345444
0.0381251
0.0416998
0.0465155
0.0515956
0.0561913
0.0602179
0.0636632
0.0665354
0.0689107
0.0708488
0.0724065
0.0736359
0.0745832
0.0752957
0.0757962
0.0759261
0.0739321
0.0698981
0.0661343
0.0574343
0.0501077
0.0435722
0.0571746
3.53898e-05
1.64881e-06
1e-15
1e-15
1e-15
1e-15
1e-15
1e-15
1e-15
2.17914e-08
1.21324e-07
2.53585e-14
1.46055e-15
0.0639822
0.114434
0.158626
0.12813
0.0806705
0.069442
0.0713222
0.0726897
0.0743071
0.075574
0.0767773
0.0791792
0.0805569
0.0816318
0.0833108
0.0848766
0.0864134
0.087689
0.0892002
0.0902286
0.0901758
0.0913249
0.0929862
0.0937785
0.0942722
0.094348
0.0940346
0.0933823
0.0924338
0.091221
0.0899268
0.0891554
0.0886055
0.087993
0.0872257
0.0863998
0.0835798
0.0852404
0.0696994
0.00122361
0.136041
0.128786
0.128134
0.12921
0.132724
0.135761
0.138237
0.140235
0.141962
0.143484
0.144838
0.146065
0.147194
0.148242
0.149225
0.150159
0.151062
0.15159
0.152419
0.151047
0.14325
0.130747
0.119125
0.102567
0.106705
0.000125119
6.05993e-06
1e-15
1e-15
1e-15
1e-15
1e-15
1e-15
1e-15
1e-15
1e-15
1e-15
1e-15
1e-15
0.152887
0.0862147
0.0236597
0.0133319
0.00927264
0.00986439
0.0102557
0.0105319
0.0107756
0.0110573
0.0115768
0.000967666
0.00263714
0.004242
0.00578343
0.00729462
0.00882467
0.0103048
0.0118434
0.0133641
0.0147187
0.0160624
0.017326
0.0184397
0.0194601
0.0203775
0.0212361
0.0220714
0.0228979
0.0237028
0.0250338
0.0275385
0.0310041
0.0351971
0.0401598
0.0446613
0.0519371
0.0641921
0.00118324
0.121924
0.110459
0.105433
0.101371
0.0977428
0.094887
0.0929291
0.0917036
0.0912153
0.0913021
0.0917952
0.0926744
0.0938942
0.0954411
0.0973173
0.0994875
0.10192
0.104706
0.109003
0.114831
0.119467
0.122841
0.125501
0.117981
0.126008
0.000309152
1.55573e-05
1e-15
1e-15
1e-15
1e-15
1e-15
1e-15
1e-15
1e-15
1e-15
1e-15
1e-15
1e-15
0.0469379
0.0164877
0.00307413
0.00144055
0.00154652
0.00153558
0.00151364
0.00146831
0.0014248
0.00139455
0.00135643
0.00148584
0.00174641
0.00200795
0.00227246
0.00254844
0.0028397
0.00313781
0.00345953
0.00379248
0.00410902
0.00443415
0.00475383
0.00505023
0.00532827
0.00558571
0.00583253
0.00607526
0.00631642
0.00654955
0.00687567
0.00735064
0.00835556
0.00897083
9.62306e-05
0.0060234
0.0126954
0.0358698
0.000694089
0.0196592
0.0267715
0.0200809
0.015543
0.0121384
0.00966316
0.0080707
0.00725453
0.00711472
0.00739444
0.00798271
0.00893857
0.0102458
0.0119391
0.0141018
0.0167152
0.0197767
0.0231568
0.0270664
0.0353898
0.047477
0.061016
0.0759884
0.0839702
0.109568
0.00060865
3.18017e-05
1e-15
1e-15
1e-15
1e-15
1e-15
1e-15
1e-15
1e-15
1e-15
1e-15
1e-15
1e-15
0.00809248
0.00271479
0.00865881
0.0108482
0.0113319
0.010888
0.0105662
0.0102809
0.00999923
0.00976743
0.00953252
0.009449
0.00945726
0.00944889
0.00939896
0.009314
0.00919351
0.00904571
0.0088759
0.00869288
0.00850496
0.00831116
0.00811256
0.00792317
0.00774905
0.00757948
0.00741138
0.00724623
0.00708435
0.00691002
0.00663553
0.00582657
0.00646845
0.00445881
0.000596615
0.000459178
0.0090137
0.0157775
0.00240875
0.00237798
0.00341194
0.00319028
0.0029179
0.00285058
0.00285311
0.00284136
0.0029264
0.00308082
0.00325801
0.00348277
0.00375308
0.00407235
0.00446349
0.00493836
0.00550417
0.00616694
0.0068995
0.0080152
0.00924886
0.0113258
0.008703
0.0229327
0.034325
0.0689969
0.000954332
5.17462e-05
1e-15
1e-15
1e-15
1e-15
1e-15
1e-15
1e-15
1e-15
1e-15
1e-15
1e-15
1e-15
0.00821129
0.0225009
0.0556102
0.0684018
0.0684091
0.067639
0.0671584
0.0669076
0.0667509
0.0666484
0.0664346
0.0663356
0.0662558
0.0660758
0.0657983
0.0654395
0.0650113
0.0645202
0.063972
0.0633685
0.0627114
0.0620001
0.0612338
0.0604137
0.0595435
0.0586233
0.0576527
0.0566304
0.0555587
0.0544368
0.0532959
0.0512532
0.0481468
0.0439118
0.0387225
0.0330237
0.0257902
0.0243594
0.00930418
0.0129466
0.000783075
0.00396585
0.00696948
0.00941308
0.0114386
0.0129793
0.0141982
0.015213
0.0160233
0.0166656
0.0171755
0.0175623
0.0178656
0.0181168
0.0183231
0.018509
0.0186117
0.0203017
0.017839
0.0124987
0.0111036
0.0137481
0.015603
0.041418
0.0015186
8.53917e-05
1e-15
1e-15
1e-15
1e-15
1e-15
1e-15
1e-15
1e-15
1e-15
1e-15
1e-15
1e-15
0.0444968
0.0771842
0.0772715
0.0714057
0.0717197
0.0714326
0.0712987
0.0713631
0.0715547
0.0718149
0.0718864
0.0720637
0.0722965
0.0723487
0.0722903
0.0721429
0.071915
0.07161
0.0712294
0.0707722
0.0702385
0.0696288
0.0689398
0.0681743
0.0673394
0.0664398
0.0654729
0.0644359
0.0633317
0.0621659
0.0610915
0.0599358
0.0582537
0.0560108
0.0528448
0.049325
0.0425927
0.0348379
0.0268696
0.0581355
0.0565794
0.0589747
0.0616026
0.0633104
0.0645554
0.0655513
0.0663758
0.0671065
0.0677382
0.0682951
0.0687946
0.069196
0.0695649
0.0699081
0.0701596
0.0703087
0.0703417
0.0701061
0.0688513
0.0646306
0.0605474
0.0521912
0.0387297
0.0461512
0.00389699
0.000227107
1e-15
1e-15
1e-15
1e-15
1e-15
1e-15
1e-15
1e-15
1e-15
1e-15
1e-15
1e-15
0.0813832
0.0595965
0.028669
0.01876
0.0189918
0.0195172
0.0198228
0.0200736
0.0203955
0.0207799
0.0212065
0.0215727
0.0219478
0.0223252
0.0226895
0.0230273
0.0233238
0.023571
0.023763
0.0238966
0.0239709
0.023994
0.0239754
0.023936
0.0238888
0.0238261
0.0237464
0.0236504
0.0235389
0.023409
0.023348
0.0240059
0.0253136
0.0272116
0.0292124
0.0307205
0.0317371
0.0310785
0.0274038
0.0722475
0.0657043
0.0638574
0.0630953
0.0620211
0.061034
0.060513
0.060226
0.0601492
0.060271
0.060556
0.0609862
0.0614454
0.0620649
0.0628691
0.0637135
0.064617
0.0655677
0.0666415
0.0684005
0.0693076
0.0690689
0.0670981
0.0583208
0.0575639
0.0101862
8.75283e-09
4.94727e-10
1e-15
1e-15
1e-15
1e-15
1e-15
1e-15
1e-15
1e-15
1e-15
1e-15
1e-15
0.0416241
0.00735129
0.00491418
0.00265485
0.00275042
0.00291058
0.00298755
0.00299583
0.00301297
0.00305095
0.00306988
0.00308786
0.00313618
0.00319622
0.00327721
0.00338095
0.00349519
0.00362038
0.0037522
0.0038861
0.00401704
0.00414567
0.00426992
0.00438494
0.00448405
0.00457165
0.00465275
0.0047268
0.00479362
0.00485201
0.00492018
0.00513795
0.00549706
0.0060973
0.00317745
0.00741023
0.0127152
0.0180236
0.0205551
0.0222143
0.0222214
0.0196108
0.0182138
0.0171908
0.0163857
0.0158442
0.0155162
0.0153749
0.015415
0.0156179
0.0159798
0.0165027
0.0171679
0.0179985
0.0189984
0.0201893
0.0215847
0.0231329
0.0252574
0.0299038
0.0358178
0.0422662
0.0447075
0.0498624
0.0181411
6.29369e-08
3.68733e-09
1e-15
1e-15
1e-15
1e-15
1e-15
1e-15
1e-15
1e-15
1e-15
1e-15
1e-15
0.00798645
0.000946131
0.00134974
0.00162708
0.00167065
0.00171461
0.0017272
0.00169757
0.00166362
0.00163532
0.00159053
0.00154873
0.0015228
0.00150204
0.00149294
0.00149651
0.00150801
0.00152726
0.00155291
0.00158294
0.0016153
0.00164962
0.00168437
0.00171514
0.00173674
0.00175256
0.00176475
0.00177351
0.00177886
0.00178072
0.0017761
0.00173173
0.00156741
0.00131308
0.00169519
0.0023546
0.00325805
0.00440062
0.010949
0.00287299
0.0029266
0.00276405
0.00248345
0.00238054
0.00230926
0.00221254
0.00217628
0.00216701
0.00217341
0.00222126
0.00229601
0.00240041
0.00253834
0.00270928
0.00291677
0.00316523
0.00345783
0.00378779
0.00422568
0.00525615
0.00184327
0.0087643
0.0161492
0.0257324
0.0191442
2.29936e-07
1.39554e-08
1e-15
1e-15
1e-15
1e-15
1e-15
1e-15
1e-15
1e-15
1e-15
1e-15
1e-15
0.000617756
0.0037209
0.00952674
0.0114163
0.0114719
0.011447
0.0114347
0.0113955
0.0113347
0.0112666
0.0111884
0.0111001
0.0110087
0.0109164
0.0108225
0.0107283
0.0106343
0.0105398
0.0104447
0.0103486
0.0102504
0.010149
0.0100427
0.00993144
0.00981549
0.00969229
0.00955972
0.00941957
0.00927285
0.00912008
0.00894637
0.00858724
0.00765903
0.00632844
0.00471815
0.00326047
0.00117887
0.0013283
0.00611125
0.00215135
0.00151388
0.00166761
0.00173759
0.00188187
0.00201335
0.00206625
0.00213085
0.00218419
0.00221543
0.0022575
0.00229658
0.00233399
0.00237791
0.00242087
0.00246477
0.00250878
0.0025512
0.00258867
0.00261955
0.00251897
0.00252977
0.00347211
0.00459137
0.00401062
0.0108938
4.89377e-07
3.07477e-08
1e-15
1e-15
1e-15
1e-15
1e-15
1e-15
1e-15
1e-15
1e-15
1e-15
1e-15
0.0048407
0.0208751
0.0294541
0.0300964
0.0300663
0.0298904
0.0297436
0.0296236
0.0295134
0.029414
0.029318
0.0292169
0.0291165
0.0290146
0.0289059
0.0287921
0.0286713
0.02854
0.0283973
0.0282407
0.0280674
0.0278743
0.0276585
0.027418
0.0271501
0.0268544
0.0265323
0.0261851
0.0258141
0.0254193
0.0249977
0.0245357
0.0235896
0.0221442
0.0201375
0.0173256
0.0140727
0.00934561
0.00772138
0.0120557
0.0114524
0.0117815
0.0127377
0.0136097
0.0143297
0.0148975
0.0153429
0.0157011
0.0159847
0.0162063
0.0163777
0.0165046
0.0165926
0.0166443
0.0166622
0.0166501
0.0166105
0.0165283
0.0164045
0.0154804
0.0133594
0.011486
0.00827837
0.00503798
0.00932882
1.51141e-06
9.82402e-08
1e-15
1e-15
1e-15
1e-15
1e-15
1e-15
1e-15
1e-15
1e-15
1e-15
1e-15
0.0283726
0.0317664
0.0241616
0.0230628
0.0228605
0.0226183
0.0224394
0.0223378
0.0222783
0.0222405
0.0222258
0.0222242
0.0222246
0.0222251
0.0222215
0.0222103
0.0221888
0.0221549
0.0221059
0.02204
0.0219546
0.0218479
0.0217174
0.0215624
0.0213855
0.0211894
0.0209741
0.0207394
0.0204856
0.0202139
0.0199197
0.0196979
0.01963
0.0195582
0.0193052
0.0185089
0.0170439
0.0135428
0.0102824
0.0309836
0.0289068
0.0290873
0.0294239
0.0293201
0.029097
0.0288904
0.0286921
0.0285274
0.028396
0.0282839
0.0281909
0.0281131
0.0280465
0.0279858
0.0279273
0.0278697
0.0278088
0.0277449
0.0277501
0.0276765
0.0266057
0.0244915
0.0214241
0.016474
0.0154654
6.84924e-06
4.60259e-07
1e-15
1e-15
1e-15
1e-15
1e-15
1e-15
1e-15
1e-15
1e-15
1e-15
1e-15
0.0288011
0.0140615
0.00533358
0.00410388
0.00399863
0.00396586
0.00392284
0.00388512
0.0038648
0.00386046
0.00386618
0.00388091
0.00390348
0.00393281
0.0039672
0.00400573
0.00404692
0.00408982
0.00413302
0.00417568
0.00421697
0.00425645
0.00429507
0.00433365
0.00437168
0.00440745
0.00444053
0.00447025
0.00449586
0.00451839
0.00452519
0.00455287
0.00508804
0.00610679
0.00745303
0.00906905
0.0107771
0.0111716
0.00962302
0.0219971
0.0203756
0.0185989
0.0175328
0.0166857
0.0160009
0.0154898
0.0150867
0.0147712
0.014535
0.0143603
0.0142396
0.0141695
0.0141449
0.014165
0.0142265
0.0143307
0.0144772
0.0146649
0.0149288
0.0156226
0.0168901
0.0179999
0.0185217
0.0173304
0.0180108
2.3186e-05
1.60963e-06
1e-15
1e-15
1e-15
1e-15
1e-15
1e-15
1e-15
1e-15
1e-15
1e-15
1e-15
0.00836171
0.0028719
0.000791247
0.000611015
0.000606968
0.000617879
0.000614902
0.000598655
0.000584327
0.000574317
0.000559226
0.00054609
0.000539561
0.00053555
0.000536573
0.000544108
0.000555717
0.000572077
0.000592492
0.000616414
0.00064292
0.000671836
0.000702892
0.000733454
0.000760508
0.000785512
0.0008102
0.000834301
0.000857549
0.000879938
0.000898861
0.000921531
0.00104838
0.00127971
0.00159473
0.000193622
0.00272568
0.00544186
0.00672437
0.0030894
0.0027966
0.000857118
0.00256177
0.00238117
0.00231587
0.00220739
0.0021475
0.00210026
0.00205179
0.00203135
0.00202093
0.00202172
0.0020399
0.0020681
0.00210845
0.00215969
0.00222125
0.00229186
0.00238457
8.10963e-05
0.0016267
0.00403943
0.00687443
0.00896519
0.0131295
5.57894e-05
3.99813e-06
1e-15
1e-15
1e-15
1e-15
1e-15
1e-15
1e-15
1e-15
1e-15
1e-15
1e-15
0.00147553
0.000330581
0.00100349
0.00108181
0.00110484
0.00112838
0.00112984
0.00110513
0.00107804
0.00105407
0.00101728
0.000980864
0.000955009
0.000931633
0.000916116
0.000911442
0.000912839
0.00092172
0.000937237
0.000957605
0.000981621
0.00100848
0.00103776
0.00106405
0.00108214
0.00109559
0.00110769
0.00111819
0.00112701
0.00113393
0.00113894
0.0011428
0.00111432
0.00101328
0.0008395
0.000657217
0.000988518
0.000167749
0.00292207
0.000420147
0.000385915
0.000177038
8.10039e-05
0.000104147
0.00013044
0.000150515
0.00017097
0.000190145
0.000204909
0.000219259
0.000231796
0.000242582
0.000252961
0.00026207
0.000270378
0.000277699
0.000284039
0.000289606
0.000293743
0.000305003
0.000495628
0.000845669
0.00123259
0.000298142
0.00539263
9.09703e-05
6.72621e-06
1e-15
1e-15
1e-15
1e-15
1e-15
1e-15
1e-15
1e-15
1e-15
1e-15
1e-15
0.000999719
0.00246362
0.00677021
0.00728139
0.00730029
0.00726845
0.00724295
0.00722425
0.0072032
0.0071809
0.00716053
0.00713901
0.00711539
0.0070911
0.00706489
0.00703604
0.00700467
0.00697003
0.00693167
0.00688902
0.00684166
0.00678875
0.00672963
0.00666487
0.00659584
0.00652265
0.006445
0.00636288
0.00627665
0.00618637
0.00609253
0.00599928
0.00574594
0.0051367
0.00418722
0.00302386
0.00188468
0.00110796
0.00192714
0.00184881
0.00133979
0.000346114
0.00057731
0.000734291
0.000907862
0.00106655
0.00121556
0.00135655
0.00147698
0.00158146
0.00167127
0.00174508
0.0018053
0.00185272
0.0018878
0.00191158
0.00192517
0.00193129
0.00192721
0.00188561
0.00146644
0.00111074
0.000334622
0.00122958
0.00199841
0.000165613
1.30826e-05
1e-15
1e-15
1e-15
1e-15
1e-15
1e-15
1e-15
1e-15
1e-15
1e-15
1e-15
0.00537515
0.0122685
0.0126149
0.0129174
0.0128252
0.0126835
0.0125645
0.0124723
0.0123947
0.0123258
0.0122666
0.0122136
0.0121641
0.0121179
0.0120732
0.0120284
0.0119828
0.0119352
0.0118845
0.0118295
0.0117689
0.011701
0.0116234
0.011535
0.0114364
0.011328
0.0112095
0.0110807
0.010942
0.0107935
0.0106371
0.0104922
0.010303
0.00992736
0.00897128
0.00796405
0.00681127
0.00495306
0.00374877
0.00908651
0.0094868
0.0100081
0.0101737
0.0102072
0.0102229
0.0102349
0.0102468
0.0102637
0.0102789
0.0102896
0.0102959
0.0102952
0.0102874
0.0102722
0.0102487
0.0102168
0.0101763
0.0101266
0.0100672
0.010011
0.00962673
0.00877523
0.00749729
0.00611292
0.00540654
0.000893999
2.66028e-06
1.98279e-07
1e-15
1e-15
1e-15
1e-15
1e-15
1e-15
1e-15
1e-15
1e-15
1e-15
0.0138159
0.0106078
0.00685287
0.00661219
0.0065376
0.00643462
0.00634464
0.0062729
0.0062159
0.00616804
0.00612959
0.00609963
0.00607484
0.00605404
0.00603595
0.00601897
0.00600245
0.00598543
0.00596707
0.00594639
0.00592315
0.00589662
0.00586559
0.00582945
0.0057896
0.00574557
0.00569736
0.00564577
0.00558967
0.00552913
0.00546511
0.00540606
0.00544907
0.0056501
0.00589277
0.00611113
0.00606733
0.00540006
0.00438089
0.0126771
0.0114649
0.0111271
0.0106652
0.0102529
0.00995822
0.00976433
0.0096254
0.00951833
0.00943369
0.0093594
0.00929354
0.00923478
0.00918095
0.00913213
0.00908757
0.00904748
0.00901149
0.00897855
0.00894685
0.00899779
0.00915481
0.00914358
0.00886629
0.00810677
0.00731516
0.00307563
3.46257e-05
2.66128e-06
1e-15
1e-15
1e-15
1e-15
1e-15
1e-15
1e-15
1e-15
1e-15
1e-15
0.00796032
0.00229949
0.00129811
0.0010117
0.00101791
0.00102657
0.00101608
0.000984077
0.000952449
0.000924927
0.00088621
0.000848647
0.00082101
0.000795415
0.000777305
0.000769504
0.000767939
0.000774289
0.000787608
0.000806705
0.000830379
0.000858285
0.000889684
0.000918739
0.000939723
0.000956242
0.000972045
0.000986989
0.00100076
0.00101297
0.00102369
0.00103463
0.00106459
0.00115672
0.000580823
0.0014359
0.00245066
0.00324179
0.00333692
0.00411268
0.00365712
0.00273238
0.00267595
0.00262212
0.00252524
0.00243331
0.00236152
0.00229646
0.00223838
0.00218732
0.00214396
0.00210959
0.00208393
0.0020675
0.00206054
0.00206402
0.00207784
0.00210315
0.00213071
0.00219072
0.00255437
0.00330974
0.00405197
0.0046491
0.0052575
0.00425095
0.000163321
1.29343e-05
1e-15
1e-15
1e-15
1e-15
1e-15
1e-15
1e-15
1e-15
1e-15
1e-15
0.0015565
0.000320018
0.000139428
0.000172825
0.000187384
0.000198991
0.000204041
0.000201728
0.000197418
0.000193082
0.000185255
0.000176696
0.000169991
0.000163479
0.000158368
0.000155551
0.000154055
0.000154369
0.00015626
0.000159626
0.000164075
0.00016962
0.000176154
0.000182427
0.000186805
0.000190008
0.000192954
0.000195673
0.000198167
0.00020039
0.000202383
0.000203248
0.000200783
0.000175898
0.000247545
0.000380288
0.000557672
0.000686712
0.00159248
0.000574876
0.00051783
0.000413189
0.000387713
0.000383474
0.000373591
0.000352725
0.00034041
0.000329001
0.000316336
0.000307876
0.000300803
0.00029556
0.000293299
0.000292769
0.000294567
0.000298448
0.000304396
0.000312392
0.000321028
0.00033459
0.000394746
0.000516773
0.000688608
0.000540895
0.00151124
0.00275574
0.000405801
3.30909e-05
1e-15
1e-15
1e-15
1e-15
1e-15
1e-15
1e-15
1e-15
1e-15
1e-15
0.000154241
0.000668841
0.000918002
0.00113714
0.00121229
0.00125688
0.00128489
0.00129899
0.0013042
0.00130647
0.00130468
0.00129885
0.00129258
0.00128587
0.00127845
0.0012715
0.00126491
0.0012587
0.0012528
0.00124743
0.001242
0.00123641
0.00123099
0.00122562
0.00121918
0.00121051
0.00120021
0.0011887
0.00117615
0.00116268
0.00114879
0.00112948
0.00109306
0.000938806
0.000685058
0.00044343
8.21885e-05
8.02567e-05
0.000802825
0.000518203
0.000367827
0.000427333
0.000419579
0.000438351
0.000453395
0.000450745
0.000453091
0.00045444
0.000451432
0.000452062
0.000452424
0.000452785
0.000455233
0.000457751
0.000461132
0.000464784
0.000468464
0.000471898
0.000474848
0.000476984
0.000469359
0.000423352
0.000353335
0.00036735
0.000510554
0.000571956
0.000469481
5.26069e-05
1e-15
1e-15
1e-15
1e-15
1e-15
1e-15
1e-15
1e-15
1e-15
1e-15
0.00112602
0.00419079
0.00521991
0.00545976
0.00547893
0.00545028
0.0054141
0.0053806
0.00534843
0.00531856
0.00529157
0.00526563
0.00524163
0.00521907
0.00519679
0.00517512
0.00515364
0.00513152
0.00510855
0.00508417
0.00505774
0.00502827
0.0049954
0.00495901
0.00491846
0.00487323
0.00482403
0.00477132
0.00471505
0.00465515
0.00459151
0.00452366
0.00445604
0.00427584
0.00395684
0.00346198
0.00277328
0.00208271
0.00169926
0.00283045
0.00261818
0.00284787
0.00292262
0.00302723
0.00309746
0.00314779
0.00318669
0.00322103
0.00325074
0.00327522
0.00329535
0.00331065
0.00332097
0.00332652
0.00332705
0.00332263
0.00331327
0.00329901
0.00328023
0.00325877
0.00317818
0.0028467
0.0023662
0.00187093
0.00140471
0.0011847
0.00105629
8.0114e-05
7.5024e-06
1e-15
1e-15
1e-15
1e-15
1e-15
1e-15
1e-15
1e-15
1e-15
0.00552078
0.00564377
0.00469352
0.0046884
0.00462146
0.00453274
0.00445404
0.00439557
0.00435034
0.00431246
0.00428274
0.00425899
0.00423856
0.00422046
0.00420429
0.00418863
0.00417312
0.00415706
0.00414015
0.0041216
0.00410097
0.00407752
0.00405047
0.00401926
0.00398484
0.00394792
0.00390884
0.00386723
0.00382296
0.00377599
0.00372607
0.00367253
0.00364007
0.00365151
0.00364486
0.00354418
0.00332372
0.00282907
0.00222577
0.00589443
0.00536912
0.00517544
0.00515231
0.00508206
0.00499596
0.00493145
0.00488117
0.00484291
0.00481305
0.00478645
0.0047624
0.00473936
0.00471597
0.00469205
0.00466711
0.00464084
0.00461313
0.00458371
0.00455337
0.00453066
0.00453075
0.00440891
0.00419077
0.00385944
0.00327423
0.00256968
0.00222563
0.000512787
5.45718e-06
4.40646e-07
1e-15
1e-15
1e-15
1e-15
1e-15
1e-15
1e-15
1e-15
0.00482305
0.00195399
0.00117216
0.00101707
0.000977631
0.000937897
0.000900167
0.00086758
0.000841941
0.000820925
0.000802391
0.000786638
0.000773052
0.000761115
0.000750844
0.000741873
0.000733726
0.000726786
0.000720555
0.00071511
0.000710562
0.000707132
0.000704778
0.000703313
0.000702403
0.000701975
0.000701713
0.000701039
0.000699917
0.000698276
0.000695994
0.000689666
0.000688406
0.000796875
0.00104357
0.00134805
0.00164532
0.00186848
0.00181482
0.00324559
0.00306567
0.00271204
0.00248373
0.0023304
0.00220151
0.00210746
0.00203571
0.00197726
0.00192965
0.00188877
0.00185295
0.00182169
0.00179398
0.00176978
0.00174904
0.00173157
0.00171758
0.00170725
0.00170044
0.00169831
0.00174973
0.00194342
0.00217881
0.00237723
0.00244764
0.00234076
0.00228796
0.00118926
5.02764e-05
4.18107e-06
1e-15
1e-15
1e-15
1e-15
1e-15
1e-15
1e-15
1e-15
0.00100735
0.000387917
0.000183366
0.000159089
0.000155391
0.000152561
0.000146738
0.000138162
0.000130484
0.000123941
0.000115963
0.000108308
0.000102231
9.64866e-05
9.18742e-05
8.88535e-05
8.67356e-05
8.59092e-05
8.62283e-05
8.76081e-05
8.98732e-05
9.31118e-05
9.72595e-05
0.000101404
0.000104439
0.000106983
0.000109665
0.000112355
0.000115031
0.000117644
0.000120165
0.000121972
0.000124654
0.000147662
0.000197795
0.000261249
0.000353388
0.000510569
0.000917037
0.000462589
0.000442075
0.000417341
0.000365496
0.000345664
0.000329861
0.000308576
0.00029566
0.000284576
0.000272876
0.000265016
0.000258088
0.000252209
0.000248406
0.000245504
0.000243872
0.000243206
0.000243385
0.000244303
0.000245812
0.000247753
0.000256913
0.000286608
0.000349686
0.000270493
0.000690091
0.0010662
0.00135456
0.00131513
0.000202133
1.82767e-05
1e-15
1e-15
1e-15
1e-15
1e-15
1e-15
1e-15
1e-15
0.000142316
0.000179072
0.00026297
0.000269105
0.000276311
0.000286133
0.000289938
0.000285238
0.000278373
0.000271199
0.000258999
0.000245706
0.000234688
0.000223456
0.000214059
0.00020786
0.000203564
0.000201948
0.000202997
0.000206451
0.000211877
0.000219365
0.000228719
0.000237505
0.000242893
0.000246496
0.000250122
0.000253656
0.000257051
0.000260206
0.000263093
0.000265683
0.000268088
0.000264854
0.00024762
0.000213592
0.000166872
0.000231438
0.000130361
5.25385e-05
5.87198e-05
8.45602e-05
9.69317e-05
0.00010984
0.000120522
0.00012383
0.00012703
0.000128916
0.000128654
0.000129065
0.000129089
0.000128901
0.000129242
0.000129532
0.000130029
0.000130564
0.000131106
0.000131534
0.000131795
0.000131636
0.000130088
0.000116085
9.39342e-05
0.000116215
0.000150024
0.0002076
0.000233819
0.000653731
0.000343941
5.96621e-06
5.01719e-07
1e-15
1e-15
1e-15
1e-15
1e-15
1e-15
1e-15
0.000417323
0.00127465
0.00169747
0.00173816
0.00175696
0.00177838
0.00179912
0.0018137
0.00182119
0.00182416
0.00182462
0.00182284
0.00181971
0.00181595
0.00181152
0.00180656
0.00180122
0.00179529
0.00178873
0.00178139
0.00177311
0.00176356
0.00175254
0.00174023
0.00172687
0.00171231
0.00169649
0.0016795
0.00166125
0.00164172
0.00162088
0.00159878
0.00157621
0.00152187
0.00139089
0.001173
0.000896377
0.000642101
0.000517575
0.000372373
0.000411529
0.000555293
0.00066631
0.000749474
0.00081451
0.000857368
0.000887603
0.000910148
0.000925931
0.000937587
0.00094637
0.000952502
0.00095664
0.000958961
0.00095953
0.000958468
0.0009558
0.000951538
0.00094598
0.000938552
0.000924207
0.000823997
0.000669349
0.000543344
0.000326136
0.000147048
0.000184295
0.000372194
0.000468426
7.44782e-05
9.39921e-06
1e-15
1e-15
1e-15
1e-15
1e-15
1e-15
1e-15
0.00199845
0.00299538
0.00282612
0.00286854
0.00285124
0.00282989
0.00281209
0.00279597
0.00277909
0.00276186
0.00274602
0.00273135
0.00271759
0.00270508
0.00269337
0.00268209
0.00267122
0.00266039
0.00264934
0.00263778
0.00262543
0.00261173
0.00259611
0.00257845
0.0025591
0.00253811
0.00251519
0.00249037
0.00246368
0.00243506
0.00240444
0.00237218
0.00234248
0.00231113
0.00224082
0.00211125
0.00190167
0.00156682
0.00120515
0.00249469
0.00236642
0.00242414
0.00248058
0.00250242
0.00250691
0.0025008
0.0024882
0.00247402
0.00245896
0.0024436
0.00242864
0.00241354
0.00239832
0.0023829
0.00236692
0.00235032
0.002333
0.00231479
0.00229565
0.00227554
0.00225673
0.00218259
0.00204469
0.00185801
0.00160367
0.00135827
0.00106757
0.000813747
0.000793131
0.000353725
1.81746e-05
1.73923e-06
1e-15
1e-15
1e-15
1e-15
1e-15
1e-15
0.0029706
0.00177796
0.00136438
0.00135743
0.00133657
0.00130301
0.00127184
0.00124573
0.00122349
0.00120384
0.00118727
0.00117372
0.00116205
0.00115221
0.00114357
0.00113588
0.00112868
0.00112196
0.00111531
0.0011086
0.00110157
0.00109407
0.00108577
0.00107659
0.0010669
0.00105682
0.00104623
0.00103536
0.0010241
0.00101245
0.00100054
0.000987996
0.000976366
0.000988311
0.00104852
0.00113662
0.00122405
0.00124303
0.00113305
0.00250359
0.00224943
0.0020755
0.00197106
0.00187561
0.00179252
0.00172856
0.00167532
0.00163098
0.00159496
0.00156415
0.00153749
0.00151434
0.0014936
0.00147487
0.00145774
0.00144192
0.0014273
0.00141371
0.00140098
0.00138858
0.00139181
0.00143347
0.00147903
0.00150193
0.00148328
0.00141876
0.00129247
0.00109651
0.000967389
0.000709587
0.000130945
1.17757e-06
9.83662e-08
1e-15
1e-15
1e-15
1e-15
1e-15
0.00120433
3.65079e-05
0.000220135
0.000215047
0.000214995
0.000214339
0.000209475
0.000200156
0.000190909
0.000182517
0.000171536
0.000160542
0.00015151
0.00014256
0.000134994
0.000129728
0.000125749
0.000123701
0.000123499
0.000125058
0.000128046
0.000132578
0.00013853
0.00014413
0.000147303
0.000149325
0.000151415
0.000153569
0.000155767
0.000157925
0.000160064
0.00016212
0.00016433
0.000170618
0.000185675
0.000217835
0.000163285
0.000404561
0.000573343
0.000661358
0.000615135
0.000436795
0.000331445
0.000261921
0.00020851
0.00016839
0.000138681
0.00011508
9.63641e-05
8.14151e-05
6.90577e-05
5.90118e-05
5.08465e-05
4.42886e-05
3.91814e-05
3.54588e-05
3.30231e-05
3.18878e-05
3.18372e-05
3.01034e-05
3.22212e-05
0.000101104
0.00023087
0.000388291
0.000556498
0.000714253
0.000826134
0.000852491
0.000830582
0.000793158
0.000359407
2.41399e-05
2.09369e-06
1e-15
1e-15
1e-15
1e-15
1e-15
0.000242987
2.21272e-05
5.04607e-05
5.31287e-05
5.60341e-05
5.96072e-05
6.06743e-05
5.89451e-05
5.64414e-05
5.39509e-05
5.05369e-05
4.7007e-05
4.4089e-05
4.11997e-05
3.87146e-05
3.6935e-05
3.55554e-05
3.47592e-05
3.45473e-05
3.48777e-05
3.56841e-05
3.6996e-05
3.88101e-05
4.06118e-05
4.1684e-05
4.23541e-05
4.30252e-05
4.37039e-05
4.43815e-05
4.50381e-05
4.56674e-05
4.62747e-05
4.68072e-05
4.69013e-05