/*--------------------------------*- C++ -*----------------------------------*\
| =========                 |                                                 |
| \\      /  F ield         | OpenFOAM: The Open Source CFD Toolbox           |
|  \\    /   O peration     | Version:  2312                                  |
|   \\  /    A nd           | Website:  www.openfoam.com                      |
|    \\/     M anipulation  |                                                 |
\*---------------------------------------------------------------------------*/
FoamFile
{
    version     2.0;
    format      ascii;
    arch        "LSB;label=32;scalar=64";
    class       volScalarField;
    location    "50";
    object      magR;
}
// * * * * * * * * * * * * * * * * * * * * * * * * * * * * * * * * * * * * * //

dimensions      [0 2 -2 0 0 0 0];

internalField   nonuniform List<scalar> 
10720
(
0.0109983
0.0207832
0.0351138
0.0475027
0.0599601
0.0768269
0.101698
0.135872
0.182124
0.24654
0.341299
0.490891
0.734699
1.19506
2.0721
3.84583
7.21507
15.2565
28.6868
41.5764
51.6468
62.2303
78.5716
86.9833
130.478
163.543
507.424
1009.79
580.57
175.195
23.6928
4.51904
0.866068
0.0132097
1.15648e-15
1.15917e-15
1.1687e-15
2.70021
210.879
0.0255596
0.064252
0.176778
0.275332
0.288294
0.247698
0.25432
0.264273
0.28113
0.304998
0.335734
0.374423
0.424731
0.49615
0.608771
0.790392
1.12552
1.66328
2.52268
3.52177
4.70497
6.38029
8.92144
12.9131
18.7017
24.7071
26.8248
19.543
9.94469
3.61135
0.909667
0.103436
0.0159846
0.00572974
0.000799613
0.00896274
0.000141054
1.67831
126.283
0.0492692
0.0591649
0.0608066
0.0653859
0.0711881
0.0765668
0.0809784
0.0844804
0.0869125
0.0880328
0.0872372
0.0834774
0.0718946
0.126081
0.145139
0.151193
0.255227
0.547333
1.60226
3.92386
7.731
12.7884
20.1707
25.2605
33.5097
25.331
98.1676
316.33
235.307
127.76
55.0953
17.6299
3.89385
0.0606104
0.00117348
1.20049e-15
1.17115e-15
1.76691
122.984
0.172609
0.269919
0.259815
0.164262
0.0827252
0.0611833
0.0615154
0.0654375
0.0694429
0.0742402
0.0798566
0.0855845
0.0906826
0.0952048
0.102555
0.106303
0.117838
0.11893
0.0514216
0.0211807
0.0747548
0.118233
0.142567
0.0950798
0.148211
0.305821
0.530926
0.63137
0.549577
0.402951
0.247643
0.12916
0.058873
0.0243071
0.00926546
0.00158423
0.00967889
0.415679
28.0981
0.260572
0.239059
0.241372
0.244134
0.246458
0.248497
0.250269
0.251808
0.253272
0.254555
0.255619
0.25669
0.257735
0.258811
0.261485
0.26788
0.239784
0.140533
0.349125
0.0635777
0.2106
0.33419
1.42764
3.37067
6.21706
6.36825
7.80979
63.1789
62.3086
44.6363
26.9974
13.9693
5.01087
0.824022
0.0819738
0.0179218
1.18094e-15
1.29139
89.2945
0.283805
0.165621
0.0354457
0.0235426
0.0103884
0.00814725
0.00833566
0.00903136
0.00980571
0.01076
0.0118812
0.0130909
0.0142875
0.0154535
0.0171164
0.0182498
0.0207335
0.0216148
0.00219721
0.00087227
0.0158132
0.000650711
0.00330065
0.0056456
0.00992382
0.0104472
0.0106422
0.0192806
0.0262202
0.0307147
0.0366937
0.0426254
0.0486224
0.0536058
0.05579
0.060849
0.0418146
0.114884
7.98667
0.208011
0.188975
0.179106
0.173524
0.168124
0.164056
0.161259
0.15931
0.158468
0.158809
0.160262
0.16278
0.166297
0.170567
0.175067
0.179492
0.184462
0.192614
0.190952
0.174008
0.0782399
0.0819024
0.292607
0.701848
0.204185
8.45861e-05
1.67349
6.08319e-05
0.000139363
0.000421405
0.00335226
0.100363
0.969705
0.821559
0.289891
0.0779269
0.00137978
0.99816
66.3613
0.0688318
0.0278003
0.010261
0.0143044
0.00623688
0.00337284
0.018748
0.0188165
0.01889
0.0192225
0.0195857
0.0200615
0.0204951
0.0209204
0.0213664
0.0218515
0.0223075
0.0227488
0.0235216
0.0237144
0.0239071
0.0243217
0.0250868
0.000357275
0.00114451
0.00223128
0.00325784
0.00400826
0.00470318
0.00519466
0.0060342
0.00723906
0.0090165
0.0126098
0.0174313
0.021293
0.0502068
0.0259092
1.62555
0.0197255
0.0381064
0.0287257
0.0233221
0.0191313
0.0164379
0.0148591
0.0137794
0.0134536
0.0138515
0.0146988
0.0159464
0.0176234
0.0197659
0.0224803
0.0257939
0.0296011
0.0351565
0.0455942
0.0535902
0.0629248
0.0618428
0.0300463
0.00269792
0.0422541
1.78202e-05
1.1547e-15
1.32185e-05
3.07037e-05
9.40356e-05
0.000756937
0.0229163
0.00024694
6.25484e-06
0.138335
0.147846
0.0027346
0.697095
44.4545
0.0140468
0.0185741
0.0401343
0.108998
0.139308
0.137479
0.135553
0.134436
0.132593
0.132345
0.132627
0.133306
0.133077
0.132539
0.131873
0.131185
0.13027
0.12916
0.127914
0.126465
0.124864
0.123197
0.12146
0.119592
0.116678
0.1131
0.10983
0.10676
0.103666
0.100591
0.0967671
0.0915
0.0850489
0.0817503
0.073799
0.0565398
0.0625856
0.0141211
0.512692
0.016968
0.018148
0.0183723
0.0184541
0.0188375
0.0193082
0.0197281
0.0202046
0.0207532
0.0213746
0.0220951
0.022888
0.0237574
0.0247293
0.0258124
0.0270238
0.0283528
0.0299345
0.0319706
0.0334921
0.0355123
0.00329942
0.0142172
0.0123339
0.0154684
8.12195e-06
1.1547e-15
1.1547e-15
1.1547e-15
1.1547e-15
1.1547e-15
1.1547e-15
5.66311e-05
1.45082e-06
1.08227e-07
5.97431e-07
1.17551e-08
0.00505575
0.308314
0.00103841
0.0972563
0.179425
0.190487
0.189996
0.190751
0.190169
0.190687
0.190074
0.190693
0.192553
0.192968
0.19286
0.192915
0.192973
0.193019
0.19286
0.192624
0.192148
0.191182
0.190223
0.189186
0.187843
0.186105
0.18392
0.17989
0.174457
0.169424
0.163963
0.159413
0.155705
0.149193
0.140558
0.131746
0.122607
0.107726
0.0995541
0.054191
0.0533925
0.0457628
0.0479317
0.0519451
0.0559725
0.0614111
0.0671924
0.072497
0.0772013
0.0812729
0.0847091
0.08759
0.0899801
0.0919437
0.0935451
0.0948429
0.0959001
0.096749
0.0972087
0.0952973
0.0912285
0.0877237
0.0791134
0.0723949
0.0624153
0.0780488
4.08646e-05
1.90388e-06
1.1547e-15
1.1547e-15
1.1547e-15
1.1547e-15
1.1547e-15
1.1547e-15
1.1547e-15
2.51626e-08
1.40093e-07
2.92815e-14
1.6865e-15
0.0738803
0.141893
0.196087
0.158622
0.101124
0.0878247
0.0900678
0.0917276
0.0937113
0.0953013
0.0968313
0.0997941
0.101557
0.102974
0.105123
0.107159
0.109186
0.110939
0.11301
0.114492
0.114657
0.11619
0.118293
0.118252
0.116968
0.115311
0.113433
0.111503
0.10953
0.107477
0.105521
0.104335
0.103524
0.102716
0.10178
0.100792
0.0975361
0.0994526
0.0819918
0.0014696
0.169136
0.160432
0.159678
0.161025
0.165284
0.168967
0.171987
0.174438
0.176576
0.178481
0.180194
0.181767
0.183235
0.184623
0.185958
0.187264
0.188572
0.189474
0.190804
0.189614
0.180979
0.166982
0.154333
0.136585
0.141387
0.000144475
6.99741e-06
1.1547e-15
1.1547e-15
1.1547e-15
1.1547e-15
1.1547e-15
1.1547e-15
1.1547e-15
1.1547e-15
1.1547e-15
1.1547e-15
1.1547e-15
1.1547e-15
0.189739
0.109814
0.0438208
0.037009
0.028958
0.0299018
0.0299208
0.0293268
0.028447
0.0275115
0.0269961
0.00210635
0.00534648
0.00800638
0.0101797
0.0120227
0.0136996
0.0151805
0.0167205
0.018234
0.0195399
0.0208533
0.0220721
0.0230848
0.0239612
0.0247267
0.0254673
0.0262303
0.0270244
0.0278265
0.0292703
0.0320997
0.0360558
0.0408678
0.0465848
0.0518123
0.060245
0.0750163
0.00142188
0.154536
0.141147
0.135355
0.130726
0.126555
0.123316
0.121163
0.119893
0.119508
0.119817
0.12062
0.121891
0.123585
0.125707
0.128278
0.131271
0.134663
0.138573
0.144335
0.152023
0.158342
0.163266
0.167481
0.160606
0.167909
0.000356978
1.7964e-05
1.1547e-15
1.1547e-15
1.1547e-15
1.1547e-15
1.1547e-15
1.1547e-15
1.1547e-15
1.1547e-15
1.1547e-15
1.1547e-15
1.1547e-15
1.1547e-15
0.0719344
0.0471905
0.00866061
0.00399559
0.00420865
0.0040718
0.00388322
0.00362207
0.00336296
0.00313512
0.00289142
0.00299297
0.00331759
0.00359451
0.00383652
0.00406798
0.00430386
0.00454463
0.00482369
0.00512412
0.00540983
0.00571348
0.00601277
0.00628104
0.00652531
0.00674961
0.00697271
0.00720385
0.00744408
0.00768361
0.00803936
0.00857395
0.00972861
0.0104321
0.000111803
0.00699936
0.0147452
0.0419499
0.000834183
0.0499157
0.0651117
0.05168
0.0401733
0.0314467
0.0249804
0.0207294
0.0184391
0.0178209
0.0181773
0.0191769
0.0208937
0.0232019
0.0260722
0.0295608
0.0334984
0.0377662
0.0420434
0.0466408
0.0579041
0.073944
0.0907082
0.108191
0.114938
0.144847
0.000702809
3.67214e-05
1.1547e-15
1.1547e-15
1.1547e-15
1.1547e-15
1.1547e-15
1.1547e-15
1.1547e-15
1.1547e-15
1.1547e-15
1.1547e-15
1.1547e-15
1.1547e-15
0.0204755
0.00680082
0.0214994
0.0265941
0.0273102
0.0256632
0.0242269
0.0228253
0.0214134
0.0201
0.0187812
0.0177752
0.0169565
0.016132
0.0152851
0.0144533
0.0136606
0.0129412
0.0122903
0.011707
0.0111874
0.0107143
0.0102728
0.0098707
0.00951113
0.00918166
0.00888178
0.00861084
0.00836377
0.00811704
0.00776486
0.00679826
0.00752985
0.00518184
0.000692509
0.000532974
0.0104573
0.0184189
0.00287025
0.00540097
0.00780282
0.00735161
0.00676709
0.00663789
0.00664708
0.0065989
0.00675426
0.00704159
0.00734656
0.00771631
0.008136
0.00860209
0.00914626
0.00977318
0.0104794
0.0112585
0.0120492
0.0133857
0.0147976
0.017371
0.0128136
0.0324729
0.0468435
0.0910733
0.00110197
5.97513e-05
1.1547e-15
1.1547e-15
1.1547e-15
1.1547e-15
1.1547e-15
1.1547e-15
1.1547e-15
1.1547e-15
1.1547e-15
1.1547e-15
1.1547e-15
1.1547e-15
0.0185367
0.0503206
0.096498
0.107414
0.107214
0.106413
0.106045
0.106084
0.106376
0.10688
0.107454
0.108278
0.109256
0.108039
0.103357
0.0988944
0.0948298
0.0911473
0.0878304
0.0848452
0.0821453
0.0796609
0.0773323
0.0751207
0.0730023
0.070984
0.0690877
0.0673031
0.0656046
0.0639598
0.0623857
0.0598283
0.0560819
0.0510702
0.0449817
0.0383615
0.02995
0.0284413
0.0110513
0.0266734
0.0016232
0.00829778
0.0146866
0.0199414
0.0242906
0.0275504
0.0300501
0.0320023
0.0333819
0.0342528
0.0346928
0.0347349
0.0344647
0.033953
0.0332439
0.0324171
0.0314273
0.0330531
0.0279927
0.0188917
0.0161815
0.0193378
0.0212114
0.0545651
0.00175353
9.86018e-05
1.1547e-15
1.1547e-15
1.1547e-15
1.1547e-15
1.1547e-15
1.1547e-15
1.1547e-15
1.1547e-15
1.1547e-15
1.1547e-15
1.1547e-15
1.1547e-15
0.0908513
0.126029
0.125132
0.119493
0.119496
0.119127
0.119131
0.119583
0.120365
0.121402
0.122464
0.120381
0.117013
0.113389
0.109751
0.106257
0.102925
0.0997797
0.0968347
0.0940921
0.0915349
0.0891328
0.0868494
0.0846537
0.0825283
0.0804785
0.0785204
0.0766485
0.0748452
0.0730898
0.0715456
0.0699858
0.0678669
0.0651461
0.0613863
0.0572891
0.0494573
0.0406348
0.0319253
0.109584
0.107286
0.112866
0.11874
0.122747
0.125608
0.127731
0.129112
0.130036
0.130479
0.130175
0.129334
0.12792
0.126061
0.123783
0.121066
0.118075
0.114801
0.111045
0.10576
0.0962314
0.0873806
0.0730046
0.0525221
0.0607724
0.00449986
0.00026224
1.1547e-15
1.1547e-15
1.1547e-15
1.1547e-15
1.1547e-15
1.1547e-15
1.1547e-15
1.1547e-15
1.1547e-15
1.1547e-15
1.1547e-15
1.1547e-15
0.142276
0.111479
0.0532397
0.0344767
0.0345215
0.0349962
0.0349582
0.0347361
0.0345773
0.034468
0.0343749
0.0341451
0.0339017
0.0336573
0.0333938
0.0330978
0.0327579
0.0323774
0.0319611
0.0315154
0.0310488
0.0305761
0.0301057
0.0296566
0.0292393
0.0288444
0.0284761
0.0281369
0.0278237
0.0275274
0.027347
0.0280351
0.0294966
0.0316584
0.0339455
0.0356907
0.0368599
0.0362227
0.0325128
0.125709
0.115036
0.112773
0.112234
0.111015
0.109738
0.109107
0.108691
0.108364
0.108087
0.107802
0.107495
0.106987
0.106525
0.106133
0.105584
0.104918
0.104084
0.103252
0.103323
0.101953
0.0988546
0.0933839
0.0789135
0.0757885
0.011762
1.01069e-08
5.71262e-10
1.1547e-15
1.1547e-15
1.1547e-15
1.1547e-15
1.1547e-15
1.1547e-15
1.1547e-15
1.1547e-15
1.1547e-15
1.1547e-15
1.1547e-15
0.0721977
0.0127254
0.00844007
0.00451989
0.00463997
0.00485663
0.00491938
0.00486023
0.00481107
0.00479102
0.00473813
0.0046827
0.00467176
0.00467532
0.00470589
0.00476483
0.00483425
0.00491552
0.00500326
0.00509307
0.00518043
0.00526726
0.00535119
0.00542655
0.00548568
0.00553494
0.00558203
0.00562711
0.00566996
0.00570888
0.00576527
0.00600189
0.00640641
0.00709437
0.00369262
0.00860964
0.0147678
0.0209923
0.0243082
0.0361513
0.0364379
0.0324422
0.0303505
0.0288257
0.0276101
0.0267918
0.0262884
0.026045
0.0260533
0.0262824
0.0267277
0.0273915
0.0282265
0.0292466
0.0304493
0.0318572
0.0334598
0.0351599
0.037589
0.0435154
0.0508896
0.0585709
0.0603904
0.0656711
0.0209476
7.26733e-08
4.25777e-09
1.1547e-15
1.1547e-15
1.1547e-15
1.1547e-15
1.1547e-15
1.1547e-15
1.1547e-15
1.1547e-15
1.1547e-15
1.1547e-15
1.1547e-15
0.0129808
0.00153193
0.00217199
0.00260232
0.0026524
0.00269852
0.0026903
0.00261431
0.00253176
0.0024581
0.00236016
0.00226779
0.0021998
0.0021398
0.00209652
0.0020707
0.00205526
0.0020499
0.00205279
0.00206144
0.00207356
0.00208896
0.00210589
0.00211904
0.00212252
0.00212092
0.00211727
0.00211196
0.00210497
0.00209609
0.00208186
0.00202338
0.00182695
0.00152795
0.00197028
0.00273617
0.00378484
0.00512382
0.0129123
0.00443243
0.00455071
0.00433397
0.00392032
0.00377991
0.00368428
0.00354231
0.00349169
0.00347927
0.00348752
0.0035577
0.00366595
0.00381607
0.00401143
0.00424766
0.00452803
0.0048565
0.00523239
0.00564115
0.00618502
0.00755042
0.0025947
0.0120749
0.0217551
0.0338839
0.0221065
2.65507e-07
1.61144e-08
1.1547e-15
1.1547e-15
1.1547e-15
1.1547e-15
1.1547e-15
1.1547e-15
1.1547e-15
1.1547e-15
1.1547e-15
1.1547e-15
1.17815e-15
0.0009514
0.00570417
0.0145377
0.0173399
0.0173149
0.017147
0.0169824
0.0167731
0.0165316
0.0162789
0.0160096
0.0157254
0.0154376
0.0151475
0.0148531
0.014556
0.0142575
0.0139574
0.0136581
0.0133619
0.0130706
0.0127853
0.0125057
0.0122332
0.0119698
0.0117128
0.0114602
0.0112134
0.0109723
0.0107364
0.0104878
0.0100342
0.00892711
0.00736314
0.00548298
0.00378832
0.00136947
0.00154601
0.00719167
0.00317
0.00224457
0.00248997
0.00260999
0.00284176
0.00305322
0.00314374
0.00325035
0.00333773
0.00338925
0.00345459
0.00351179
0.00356252
0.00361757
0.00366385
0.0037045
0.0037384
0.00376176
0.00376947
0.00376168
0.00356231
0.00351814
0.00474321
0.00615472
0.00527136
0.0125819
5.65084e-07
3.55044e-08
1.1547e-15
1.1547e-15
1.1547e-15
1.1547e-15
1.1547e-15
1.1547e-15
1.1547e-15
1.1547e-15
1.1547e-15
1.16768e-15
1.61114e-15
0.00710966
0.0305392
0.0429329
0.0436722
0.0433789
0.0428504
0.0423505
0.0418908
0.0414485
0.0410202
0.0405902
0.0401486
0.0397053
0.0392528
0.038781
0.0382905
0.037778
0.0372406
0.0366801
0.036099
0.035501
0.0348896
0.0342674
0.0336396
0.0330104
0.0323825
0.0317599
0.0311427
0.0305288
0.029916
0.0293008
0.0286671
0.0274917
0.0257589
0.023395
0.0201234
0.0163434
0.0108715
0.00906814
0.0170236
0.0162494
0.0168215
0.0182867
0.0196349
0.0207591
0.0216588
0.022381
0.0229714
0.0234441
0.0238106
0.0240821
0.0242635
0.0243551
0.0243534
0.0242659
0.024102
0.023859
0.0235141
0.0230837
0.0215181
0.0183178
0.015521
0.011015
0.00659452
0.0107892
1.74522e-06
1.13438e-07
1.1547e-15
1.1547e-15
1.1547e-15
1.1547e-15
1.1547e-15
1.1547e-15
1.1547e-15
1.1547e-15
1.1547e-15
1.16062e-15
1.16604e-15
0.0399234
0.0445931
0.0338185
0.0321487
0.0317155
0.0312241
0.0308195
0.0305248
0.0302901
0.0300828
0.0299012
0.0297327
0.0295634
0.0293877
0.0291984
0.0289893
0.0287555
0.0284945
0.0282038
0.0278831
0.0275338
0.0271586
0.0267591
0.0263407
0.0259137
0.0254862
0.0250601
0.0246342
0.0242065
0.0237769
0.023341
0.0230096
0.0228725
0.0227447
0.0224196
0.0214867
0.0197836
0.0157417
0.0120499
0.0421391
0.0394811
0.0399565
0.0406231
0.0406679
0.0405269
0.0403998
0.0402815
0.0401976
0.0401401
0.0400806
0.0400131
0.039932
0.0398222
0.0396681
0.0394697
0.0392298
0.0389308
0.0385657
0.0382495
0.0377834
0.0359254
0.032683
0.0282362
0.0214266
0.0180227
7.90882e-06
5.31462e-07
1.1547e-15
1.1547e-15
1.1547e-15
1.1547e-15
1.1547e-15
1.1547e-15
1.1547e-15
1.1547e-15
1.1547e-15
1.1547e-15
1.23215e-15
0.0390691
0.019054
0.0072102
0.00552929
0.00536758
0.00530398
0.00522699
0.00515779
0.00511209
0.00508722
0.00507472
0.00507316
0.00508105
0.00509648
0.00511682
0.00514053
0.00516524
0.00518949
0.00521131
0.00522972
0.00524397
0.00525414
0.00526209
0.00526992
0.00527843
0.00528662
0.00529461
0.00530171
0.00530675
0.00531087
0.00529977
0.00531651
0.00592694
0.00709971
0.0086521
0.0105222
0.0125013
0.0129735
0.0112522
0.0289978
0.0269658
0.0247414
0.0234297
0.0223944
0.0215647
0.0209625
0.0205017
0.0201497
0.0198934
0.019707
0.0195798
0.0195084
0.0194833
0.0194992
0.0195537
0.0196491
0.0197781
0.0199325
0.020164
0.0209466
0.0224508
0.0237013
0.0241472
0.022357
0.0214881
2.67729e-05
1.85863e-06
1.1547e-15
1.1547e-15
1.1547e-15
1.1547e-15
1.1547e-15
1.1547e-15
1.1547e-15
1.1547e-15
1.1547e-15
2.13005e-15
1.21002e-15
0.0110084
0.00377911
0.0010391
0.000800284
0.000792755
0.000804807
0.000798756
0.000775583
0.000755033
0.00074011
0.000718628
0.000699674
0.000689183
0.000681838
0.000680767
0.000687738
0.000699543
0.000716919
0.000738868
0.000764608
0.000792925
0.000823576
0.000856234
0.0008878
0.000914889
0.000939515
0.000963926
0.000987865
0.00101101
0.00103339
0.00105209
0.00107566
0.00122087
0.00148735
0.00185064
0.000224527
0.00315959
0.00631342
0.00784581
0.0039718
0.00360808
0.00111077
0.00333325
0.00311053
0.00303716
0.00290628
0.00283849
0.00278596
0.00273018
0.00271008
0.00270186
0.00270734
0.00273453
0.00277305
0.00282583
0.00289108
0.00296701
0.00305074
0.00315981
0.000106874
0.00212946
0.00524855
0.00886205
0.0114611
0.0161294
6.442e-05
4.61664e-06
1.1547e-15
1.1547e-15
1.1547e-15
1.1547e-15
1.1547e-15
1.1547e-15
1.1547e-15
1.1547e-15
1.1547e-15
1.15471e-15
1.15561e-15
0.00189624
0.000424645
0.00128679
0.00138432
0.00141074
0.0014378
0.00143671
0.00140252
0.00136555
0.00133266
0.00128358
0.00123504
0.00119987
0.00116778
0.00114545
0.00113648
0.00113476
0.00114193
0.00115679
0.001177
0.001201
0.00122781
0.00125691
0.0012819
0.00129687
0.00130646
0.0013148
0.00132166
0.00132692
0.00133036
0.00133215
0.00133326
0.0012972
0.00117735
0.000973901
0.000761754
0.00114515
0.000194434
0.00340255
0.000529429
0.00048775
0.000224598
0.000103121
0.000133049
0.000167222
0.000193629
0.0002207
0.000246227
0.000266095
0.00028544
0.00030241
0.000317073
0.000331123
0.000343356
0.000354356
0.000363862
0.00037177
0.000378231
0.000382434
0.000395532
0.000639518
0.00108487
0.00157148
0.00037762
0.00671362
0.000105043
7.76676e-06
1.1547e-15
1.1547e-15
1.1547e-15
1.1547e-15
1.1547e-15
1.1547e-15
1.1547e-15
1.1547e-15
1.1547e-15
1.1547e-15
1.15579e-15
0.00125969
0.00310255
0.00851394
0.00914157
0.00914953
0.00909444
0.00904802
0.00901128
0.00897266
0.00893291
0.00889528
0.0088557
0.00881307
0.00876873
0.00872076
0.00866799
0.00861011
0.00854587
0.00847446
0.00839506
0.00830729
0.00821056
0.00810471
0.00799147
0.00787407
0.00775393
0.00763134
0.00750642
0.00737928
0.00725005
0.00712016
0.00699486
0.00668604
0.00596643
0.00485606
0.00350336
0.00218207
0.00128315
0.00224002
0.00229205
0.00166501
0.000431473
0.000721803
0.000920838
0.00114189
0.00134542
0.00153787
0.00172095
0.00187849
0.00201609
0.00213518
0.00223391
0.00231499
0.0023789
0.00242604
0.00245759
0.00247436
0.00247922
0.00246895
0.0024091
0.00186675
0.00140777
0.000422097
0.00154309
0.0024871
0.000191233
1.51065e-05
1.1547e-15
1.1547e-15
1.1547e-15
1.1547e-15
1.1547e-15
1.1547e-15
1.1547e-15
1.1547e-15
1.1547e-15
1.1547e-15
1.15475e-15
0.0066636
0.0152016
0.0156134
0.0159661
0.0158295
0.0156334
0.0154671
0.0153364
0.0152258
0.0151271
0.0150402
0.0149605
0.0148846
0.0148116
0.0147387
0.0146632
0.014584
0.0144989
0.014406
0.0143036
0.0141902
0.0140642
0.0139235
0.0137681
0.0136011
0.0134249
0.0132401
0.0130466
0.0128447
0.0126345
0.01242
0.012225
0.0119826
0.0115266
0.010401
0.00922351
0.00788227
0.00573222
0.00435084
0.0111152
0.011627
0.0122976
0.0125318
0.0126045
0.0126548
0.0127006
0.0127469
0.0127983
0.0128466
0.0128883
0.0129233
0.0129483
0.0129622
0.0129627
0.0129484
0.0129187
0.0128708
0.0128016
0.0127113
0.0126182
0.0121033
0.0109974
0.00936238
0.00760375
0.00669129
0.0010323
3.07182e-06
2.28953e-07
1.1547e-15
1.1547e-15
1.1547e-15
1.1547e-15
1.1547e-15
1.1547e-15
1.1547e-15
1.1547e-15
1.1547e-15
1.1547e-15
0.016899
0.0129703
0.00837195
0.00806866
0.00796812
0.00783396
0.00771678
0.0076232
0.00754866
0.00748584
0.00743456
0.00739344
0.00735841
0.0073277
0.00729954
0.00727179
0.00724339
0.00721292
0.00717913
0.00714068
0.00709721
0.00704803
0.0069919
0.00692869
0.00686097
0.00678902
0.00671327
0.00663469
0.00655169
0.00646453
0.0063752
0.00629425
0.00633383
0.00655753
0.00682973
0.00707525
0.00701862
0.00624604
0.00507822
0.0153378
0.0138923
0.0135118
0.0129773
0.012501
0.0121661
0.0119534
0.0118082
0.0117013
0.0116211
0.0115531
0.0114946
0.011444
0.0113979
0.0113553
0.011315
0.011277
0.0112391
0.0111981
0.0111522
0.0112045
0.0113813
0.0113417
0.0109691
0.00999992
0.0089918
0.00355144
3.99823e-05
3.07298e-06
1.1547e-15
1.1547e-15
1.1547e-15
1.1547e-15
1.1547e-15
1.1547e-15
1.1547e-15
1.1547e-15
1.1547e-15
1.1547e-15
0.0096302
0.0027813
0.00156903
0.00122165
0.00122793
0.0012373
0.00122375
0.0011845
0.00114589
0.00111234
0.00106537
0.0010198
0.000986166
0.000954957
0.000932676
0.000922678
0.000920035
0.000926714
0.00094152
0.000962963
0.000989556
0.00102084
0.00105591
0.00108785
0.00111002
0.00112684
0.0011428
0.00115776
0.00117129
0.00118298
0.00119308
0.00120373
0.00123674
0.00134191
0.000672954
0.00166194
0.002834
0.00374803
0.00386432
0.0049315
0.00439071
0.00328628
0.0032237
0.0031641
0.00305224
0.00294615
0.00286441
0.00279059
0.00272502
0.00266779
0.00261967
0.00258228
0.00255524
0.00253902
0.00253397
0.00254122
0.00256038
0.00259249
0.0026262
0.00269896
0.00314395
0.00406757
0.0049706
0.00569078
0.00641889
0.00490885
0.000188586
1.49353e-05
1.1547e-15
1.1547e-15
1.1547e-15
1.1547e-15
1.1547e-15
1.1547e-15
1.1547e-15
1.1547e-15
1.1547e-15
1.15476e-15
0.00186631
0.000383672
0.000167065
0.00020691
0.000224161
0.000237887
0.000243791
0.00024093
0.000235713
0.000230485
0.000221094
0.000210832
0.000202781
0.000194954
0.000188788
0.000185343
0.000183454
0.000183694
0.00018578
0.000189578
0.000194611
0.000200888
0.000208271
0.000215285
0.00022002
0.000223355
0.000226382
0.000229138
0.000231617
0.000233767
0.000235666
0.000236303
0.000233118
0.000203967
0.000286714
0.000440029
0.000644733
0.000793678
0.00184277
0.000684367
0.000617097
0.000493115
0.000463329
0.000458887
0.000447677
0.000423285
0.000409143
0.000396058
0.000381428
0.000371837
0.000363886
0.00035812
0.000355935
0.00035581
0.000358476
0.000363638
0.000371241
0.000381218
0.000391847
0.000408384
0.000481594
0.000629897
0.000838316
0.000657479
0.00183346
0.00318437
0.000468579
3.82101e-05
1.1547e-15
1.1547e-15
1.1547e-15
1.1547e-15
1.1547e-15
1.1547e-15
1.1547e-15
1.1547e-15
1.1547e-15
1.1547e-15
0.000183618
0.000796157
0.00109221
0.00135201
0.00144044
0.00149267
0.00152535
0.00154168
0.0015476
0.00155014
0.00154787
0.00154079
0.00153316
0.00152495
0.0015158
0.00150709
0.00149868
0.00149056
0.00148262
0.00147508
0.00146724
0.00145895
0.00145062
0.00144212
0.00143227
0.0014198
0.00140548
0.0013898
0.00137289
0.00135492
0.0013366
0.00131228
0.00126839
0.00108814
0.000793184
0.00051295
9.49976e-05
9.27328e-05
0.000928459
0.000613326
0.000435728
0.000506827
0.000498173
0.00052105
0.000539559
0.000537064
0.000540578
0.000542925
0.000540084
0.00054161
0.000542816
0.000544022
0.000547727
0.000551493
0.000556271
0.000561341
0.000566359
0.000570931
0.000574761
0.000577487
0.00056822
0.000512288
0.00042724
0.000443727
0.00061586
0.000664647
0.000542112
6.07452e-05
1.1547e-15
1.1547e-15
1.1547e-15
1.1547e-15
1.1547e-15
1.1547e-15
1.1547e-15
1.1547e-15
1.1547e-15
1.1547e-15
0.00133274
0.0049597
0.00617514
0.00645528
0.00647476
0.00643853
0.00639408
0.00635347
0.00631498
0.00627952
0.00624756
0.00621678
0.00618819
0.0061611
0.00613401
0.00610728
0.00608031
0.00605206
0.00602217
0.0059899
0.0059544
0.00591447
0.00586968
0.00581999
0.00576498
0.00570443
0.00563939
0.00557038
0.00549713
0.00541952
0.00533795
0.00525242
0.00516804
0.00495384
0.00457983
0.00400369
0.00320485
0.00240596
0.00196428
0.00333439
0.00308659
0.00336072
0.00345206
0.003579
0.00366564
0.00372908
0.00377942
0.00382454
0.00386439
0.00389824
0.00392703
0.00395016
0.00396735
0.00397877
0.00398406
0.00398326
0.00397606
0.00396216
0.00394194
0.00391785
0.00382174
0.0034227
0.00284386
0.00224716
0.00168561
0.00139694
0.00121973
9.25076e-05
8.66303e-06
1.1547e-15
1.1547e-15
1.1547e-15
1.1547e-15
1.1547e-15
1.1547e-15
1.1547e-15
1.1547e-15
1.1547e-15
0.00650382
0.00664816
0.00552704
0.00551858
0.00543774
0.0053319
0.00523837
0.0051691
0.00511576
0.0050713
0.00503649
0.00500867
0.00498469
0.00496333
0.00494404
0.00492511
0.00490606
0.004886
0.00486453
0.00484065
0.00481379
0.00478304
0.00474745
0.00470641
0.00466127
0.00461309
0.00456244
0.00450886
0.00445206
0.00439195
0.00432859
0.0042616
0.00421961
0.00422881
0.0042174
0.00409776
0.00384028
0.0032676
0.002572
0.00691771
0.00630512
0.00608271
0.00606014
0.00598231
0.00588586
0.00581497
0.00576112
0.00572147
0.00569184
0.00566625
0.00564372
0.00562244
0.00560073
0.00557828
0.00555452
0.00552905
0.00550142
0.0054709
0.0054383
0.00541413
0.0054163
0.0052712
0.00500976
0.00461209
0.0039104
0.00305414
0.00257098
0.000592116
6.30141e-06
5.08814e-07
1.1547e-15
1.1547e-15
1.1547e-15
1.1547e-15
1.1547e-15
1.1547e-15
1.1547e-15
1.1547e-15
0.00566044
0.0022931
0.00137526
0.00119289
0.00114631
0.0010995
0.00105513
0.00101688
0.00098683
0.000962235
0.000940556
0.000922131
0.000906239
0.000892264
0.000880215
0.000869657
0.000860026
0.000851761
0.000844268
0.000837629
0.000831965
0.000827524
0.000824251
0.000821924
0.000820175
0.000818952
0.000817907
0.000816363
0.000814254
0.000811489
0.000807979
0.000799839
0.000797644
0.000922525
0.00120716
0.00155827
0.00190075
0.00215784
0.0020966
0.00379742
0.00358877
0.00317701
0.00291144
0.00273356
0.00258419
0.00247562
0.00239323
0.00232638
0.00227224
0.00222605
0.0021858
0.0021509
0.00212017
0.00209355
0.00207099
0.00205226
0.00203755
0.00202695
0.00202025
0.00201895
0.00208108
0.00231207
0.00259226
0.00282797
0.00291073
0.00278019
0.00265178
0.00137325
5.80542e-05
4.82788e-06
1.1547e-15
1.1547e-15
1.1547e-15
1.1547e-15
1.1547e-15
1.1547e-15
1.1547e-15
1.1547e-15
0.00117865
0.000453868
0.000214504
0.000186056
0.000181691
0.000178355
0.000171532
0.000161502
0.000152529
0.000144888
0.000135569
0.000126626
0.000119528
0.000112816
0.000107425
0.000103892
0.000101411
0.000100436
0.000100794
0.000102385
0.000105001
0.000108742
0.000113531
0.000118299
0.000121759
0.000124636
0.000127665
0.000130696
0.000133697
0.000136611
0.000139411
0.000141384
0.000144374
0.00017089
0.000228744
0.000301935
0.000408203
0.00058959
0.00105923
0.000539903
0.000516183
0.000487588
0.000427252
0.000404302
0.000386048
0.000361361
0.000346463
0.000333698
0.000320201
0.000311206
0.000303301
0.000296627
0.000292393
0.000289216
0.000287536
0.000286997
0.000287449
0.000288758
0.000290741
0.000293219
0.000304226
0.00033951
0.000414308
0.000320487
0.000817513
0.00126258
0.00158493
0.00151868
0.000233403
2.11041e-05
1.1547e-15
1.1547e-15
1.1547e-15
1.1547e-15
1.1547e-15
1.1547e-15
1.1547e-15
1.1547e-15
0.000166107
0.000209008
0.000306893
0.00031399
0.000322341
0.000333761
0.000338177
0.00033269
0.000324691
0.000316338
0.000302123
0.000286631
0.000273793
0.000260702
0.000249747
0.000242519
0.000237504
0.000235608
0.00023681
0.000240804
0.00024708
0.000255738
0.000266544
0.000276657
0.000282782
0.000286812
0.000290853
0.000294774
0.000298512
0.000301946
0.000305056
0.000307824
0.000310387
0.00030643
0.000286307
0.000246822
0.000192741
0.000267246
0.000150558
6.11969e-05
6.84215e-05
9.85798e-05
0.000113055
0.000128172
0.000140708
0.000144644
0.000148464
0.000150753
0.000150534
0.000151109
0.000151234
0.000151117
0.000151623
0.000152072
0.00015277
0.000153515
0.00015427
0.000154885
0.000155294
0.000155201
0.000153462
0.000137
0.000110887
0.000137206
0.000177119
0.000245063
0.000275142
0.000755452
0.00039715
6.88919e-06
5.79335e-07
1.1547e-15
1.1547e-15
1.1547e-15
1.1547e-15
1.1547e-15
1.1547e-15
1.1547e-15
0.000486121
0.00148483
0.00197717
0.00202423
0.00204584
0.0020706
0.00209464
0.0021116
0.00212038
0.00212393
0.00212457
0.0021226
0.00211906
0.00211479
0.00210971
0.00210401
0.00209781
0.00209087
0.00208313
0.00207438
0.00206442
0.00205286
0.00203946
0.00202442
0.00200803
0.00199018
0.00197083
0.00195006
0.00192776
0.00190387
0.00187844
0.00185161
0.00182432
0.00176035
0.00160793
0.00135535
0.00103529
0.00074144
0.000597737
0.000433042
0.000478719
0.000646221
0.00077572
0.000872894
0.000949036
0.000999405
0.00103513
0.00106192
0.00108086
0.00109504
0.0011059
0.00111371
0.00111923
0.00112264
0.00112404
0.00112355
0.00112118
0.00111691
0.00111106
0.00110298
0.00108672
0.000969316
0.000787635
0.000639489
0.000383878
0.000173082
0.000216793
0.00043193
0.000540905
8.6e-05
1.08533e-05
1.1547e-15
1.1547e-15
1.1547e-15
1.1547e-15
1.1547e-15
1.1547e-15
1.1547e-15
0.00232418
0.00348374
0.00328662
0.00333551
0.00331501
0.00328996
0.00326915
0.00325041
0.00323086
0.00321096
0.00319267
0.00317575
0.00315989
0.0031455
0.003132
0.00311901
0.00310645
0.00309387
0.00308096
0.00306733
0.00305265
0.00303625
0.00301745
0.0029961
0.00297264
0.00294718
0.0029194
0.00288935
0.00285702
0.00282232
0.00278525
0.00274632
0.00271044
0.00267274
0.00259013
0.00243928
0.00219634
0.00180925
0.00139179
0.00289736
0.00274906
0.00281708
0.00288359
0.00290997
0.0029162
0.00291015
0.00289661
0.00288124
0.00286488
0.00284823
0.00283212
0.0028159
0.00279959
0.00278309
0.00276597
0.00274818
0.00272955
0.00270984
0.00268894
0.00266683
0.00264618
0.00256035
0.00239936
0.00218082
0.00188258
0.00159463
0.00125327
0.000950515
0.000916109
0.000408447
2.09862e-05
2.00829e-06
1.1547e-15
1.1547e-15
1.1547e-15
1.1547e-15
1.1547e-15
1.1547e-15
0.00345033
0.00206516
0.00158466
0.00157642
0.00155205
0.001513
0.00147676
0.00144645
0.00142066
0.0013979
0.00137871
0.00136302
0.00134951
0.00133814
0.00132815
0.00131927
0.00131096
0.00130317
0.00129545
0.00128761
0.00127936
0.00127051
0.00126067
0.00124975
0.00123819
0.00122613
0.00121347
0.00120044
0.00118693
0.00117289
0.00115855
0.00114347
0.00112947
0.00114276
0.00121184
0.00131315
0.00141373
0.00143542
0.00130855
0.00290465
0.00261029
0.00240914
0.00228852
0.0021783
0.0020824
0.00200872
0.00194748
0.00189656
0.00185532
0.00182015
0.00178984
0.00176362
0.00174024
0.00171921
0.00170006
0.00168247
0.00166627
0.00165127
0.00163724
0.00162355
0.00162812
0.00167755
0.00173142
0.00175868
0.00173719
0.00166184
0.00151405
0.0012832
0.0011197
0.000819376
0.000151202
1.35974e-06
1.13584e-07
1.1547e-15
1.1547e-15
1.1547e-15
1.1547e-15
1.1547e-15
0.00139735
4.23605e-05
0.00025541
0.000249484
0.000249403