/*--------------------------------*- C++ -*----------------------------------*\
| =========                 |                                                 |
| \\      /  F ield         | OpenFOAM: The Open Source CFD Toolbox           |
|  \\    /   O peration     | Version:  2312                                  |
|   \\  /    A nd           | Website:  www.openfoam.com                      |
|    \\/     M anipulation  |                                                 |
\*---------------------------------------------------------------------------*/
FoamFile
{
    version     2.0;
    format      ascii;
    arch        "LSB;label=32;scalar=64";
    class       volVectorField;
    location    "50";
    object      momentError;
}
// * * * * * * * * * * * * * * * * * * * * * * * * * * * * * * * * * * * * * //

dimensions      [0 1 -2 0 0 0 0];

internalField   nonuniform List<vector> 
10720
(
(4.32846 -16.6306 8.74292e-15)
(2.01279 -18.7302 9.50863e-16)
(-1.3761 -18.2891 -1.10603e-14)
(-2.75044 -19.3527 1.54396e-14)
(-3.73833 -19.0231 1.25982e-14)
(-4.40038 -17.4914 -2.68305e-14)
(-4.92896 -15.4378 -5.3933e-14)
(-5.14139 -12.9192 -4.86085e-14)
(-5.11118 -10.4224 8.15789e-15)
(-4.9195 -8.16025 3.43753e-15)
(-4.58081 -6.2329 -1.39498e-14)
(-4.19554 -4.70398 4.30565e-14)
(-3.8013 -3.6324 -1.45665e-13)
(-3.54507 -2.86779 -2.69063e-13)
(-3.41943 -2.01555 4.99136e-14)
(-3.53995 -1.46141 -7.4831e-14)
(-4.09547 -0.961889 8.03959e-14)
(-3.95557 -1.64798 6.62408e-13)
(-4.33846 -2.80054 1.82538e-13)
(-6.77799 -3.35232 -3.82476e-13)
(-12.3084 -2.93384 -1.56445e-13)
(-19.5051 -3.06868 3.4501e-14)
(-28.2496 -3.92234 3.35823e-13)
(-34.4001 -1.3823 -2.40174e-13)
(-23.9574 2.01614 4.50321e-14)
(-11.641 2.905 -2.79634e-14)
(-2.01295 -2.75073 -4.96421e-14)
(-2.68693 -3.39961 1.40544e-14)
(-5.01774 -1.04769 -8.12051e-15)
(-5.3626 0.656599 1.26099e-13)
(-4.71603 0.717715 8.83042e-14)
(-6.53089 0.823695 -1.04054e-13)
(-4.62571 0.493034 -5.29828e-14)
(6.64076 -0.746331 -1.5672e-13)
(-2.0555 0.424741 -4.6472e-16)
(5.7787 -1.0537 3.69273e-15)
(23.1572 -4.35158 6.39332e-16)
(3.32786 -0.779836 -1.55528e-14)
(14.4325 10.5136 -7.64674e-14)
(4.97334 -13.4327 2.15713e-14)
(4.2529 -9.69504 -3.70439e-14)
(3.75567 -6.96407 4.40107e-14)
(2.92808 -4.1027 1.3703e-13)
(1.01943 -0.957817 3.43501e-15)
(0.0161019 0.244961 1.80712e-14)
(0.533315 -0.971446 -1.51619e-13)
(1.41167 -2.09888 -1.78075e-13)
(1.69456 -1.94062 -1.66897e-14)
(1.45823 -1.42507 4.3583e-14)
(1.22193 -1.13823 -5.32654e-14)
(1.12361 -1.00675 -1.05042e-13)
(1.09136 -0.912197 2.44384e-14)
(1.06033 -0.808929 4.92012e-14)
(0.981004 -0.705284 -7.82832e-14)
(0.84683 -0.628752 -6.76238e-14)
(0.687172 -0.496949 -4.51853e-14)
(0.474291 -0.385776 -5.11249e-14)
(0.391402 0.0989063 -1.79073e-14)
(0.222576 0.236318 1.70387e-16)
(0.0377763 0.101875 1.25201e-14)
(-0.0790843 -0.074614 2.31491e-14)
(0.110237 0.194415 -5.54276e-15)
(0.357633 0.587662 -5.56817e-15)
(0.225382 0.370246 -2.36594e-15)
(0.0184842 0.0980374 -2.11274e-15)
(-0.102737 0.0381294 3.1017e-15)
(-0.112277 0.0339204 5.12824e-15)
(-0.150162 0.0161924 -2.09274e-15)
(-0.0966895 -0.0364692 2.85246e-15)
(0.154273 -0.0785471 9.03182e-15)
(0.290443 -0.10423 -4.22227e-15)
(0.212324 -0.126944 -6.38627e-15)
(0.625963 -0.0639783 -9.93961e-14)
(0.75583 0.00341746 -8.69209e-14)
(0.492481 -0.00173583 5.18189e-14)
(0.3139 0.0666698 -5.47211e-15)
(0.342523 -0.18915 2.60598e-15)
(-1.38648 1.44126 -5.74788e-15)
(0.349319 -13.959 -7.80033e-15)
(-1.64648 -15.1934 9.64558e-15)
(-3.41544 -14.0432 -9.52534e-15)
(-4.98873 -14.5603 -1.23095e-15)
(-6.22499 -14.0232 -1.22266e-15)
(-7.28947 -12.8413 1.54155e-14)
(-8.30818 -11.2526 2.4541e-14)
(-8.84778 -9.30689 1.6198e-14)
(-8.94272 -7.2925 -4.20649e-14)
(-8.78985 -5.40958 -8.81099e-15)
(-8.37537 -3.82901 -1.5517e-13)
(-7.83816 -2.58615 -2.7022e-13)
(-7.33116 -1.65295 -1.71348e-14)
(-6.76185 -1.13027 -1.09525e-14)
(-6.29596 -1.0932 -6.21496e-14)
(-5.80398 -1.01044 6.53835e-14)
(-4.93538 -0.893636 2.69008e-13)
(-5.28685 0.336043 -5.19506e-13)
(-4.98761 1.74838 -4.07147e-13)
(-3.75779 3.39692 -2.71861e-13)
(2.42986 3.2333 1.86199e-13)
(8.82012 3.1933 1.69041e-13)
(16.3097 2.11447 -2.52821e-13)
(24.3344 -1.11383 4.00648e-14)
(18.1764 -3.66437 -1.63664e-15)
(5.68175 -5.63505 -1.16146e-14)
(-5.72596 -0.580124 -2.02208e-15)
(-8.46583 1.29193 1.04653e-14)
(-3.90642 1.57996 -1.19341e-14)
(-2.06806 1.39168 2.70147e-14)
(-1.39123 0.619118 8.10265e-15)
(-3.22025 0.471698 -1.46749e-14)
(-2.78902 0.300758 -1.06222e-13)
(1.76001 -0.504211 -2.3527e-13)
(-8.11383 0.822 1.68118e-13)
(-6.5682 1.7641 1.89211e-13)
(10.9853 -0.780297 2.55022e-14)
(5.31034 0.546074 1.54703e-14)
(15.069 21.2219 -3.07115e-14)
(1.79952 -11.6775 -2.34616e-14)
(2.70413 -9.04908 2.12937e-13)
(3.25351 -6.62176 -5.90852e-14)
(3.00848 -4.2168 -1.40044e-13)
(1.77455 -1.86976 -7.1769e-15)
(1.08529 -1.1392 9.6789e-14)
(1.36638 -1.66099 -5.68941e-14)
(1.7665 -1.97367 1.97377e-13)
(1.9171 -1.70352 1.61882e-13)
(1.7269 -1.37612 -8.24052e-14)
(1.45849 -1.21782 5.29375e-14)
(1.26153 -1.15171 -9.19155e-14)
(1.13459 -1.09198 3.0019e-14)
(1.03408 -0.995284 6.59616e-15)
(0.926128 -0.845232 1.33412e-14)
(0.820752 -0.638635 1.31385e-14)
(0.684035 -0.426051 3.20069e-14)
(0.606114 -0.13862 -8.22254e-15)
(0.25448 -0.288381 1.7684e-15)
(0.00406988 -0.224367 -3.10186e-15)
(-0.0155208 -0.027983 8.44016e-15)
(0.168949 0.200521 2.36646e-14)
(0.0856023 0.00168841 -2.72009e-15)
(-0.246205 -0.408634 7.48359e-17)
(-0.120671 -0.139152 -2.04041e-15)
(0.0755217 0.212831 -9.06054e-15)
(0.00997422 0.211588 -5.3116e-15)
(-0.182643 0.154979 1.19665e-15)
(-0.266097 0.0904401 5.00436e-17)
(-0.322254 -0.00680066 -5.52144e-19)
(-0.252127 -0.0655455 -2.19185e-16)
(0.107329 -0.134413 -1.2669e-14)
(0.396877 -0.154986 1.959e-14)
(0.363798 -0.0119283 7.7396e-14)
(0.444967 0.151873 1.32144e-14)
(0.42559 0.233015 -2.27717e-14)
(0.340409 0.270243 1.24535e-14)
(0.336014 0.303185 -3.0155e-14)
(-2.89116 0.809906 -1.69868e-14)
(0.916819 -12.4598 1.55758e-15)
(-0.866475 -13.189 1.82763e-14)
(-2.45733 -12.0429 8.71027e-15)
(-3.60089 -12.4522 -2.93216e-14)
(-4.36616 -11.9907 9.03579e-16)
(-5.26821 -10.9821 -1.58036e-14)
(-6.26188 -9.71638 -1.14915e-14)
(-6.93345 -8.09048 4.06497e-14)
(-7.2756 -6.31182 2.47239e-14)
(-7.35788 -4.6555 4.9735e-14)
(-7.15276 -3.26519 7.06956e-15)
(-6.78878 -2.1814 1.07583e-14)
(-6.33006 -1.42779 2.11907e-13)
(-5.90952 -0.952748 4.80752e-15)
(-5.58381 -0.666518 1.5218e-13)
(-5.37841 -0.418165 -1.29919e-14)
(-5.18349 -0.282053 -4.83104e-13)
(-4.31039 -0.363578 3.03997e-13)
(-3.4471 -0.26757 6.94168e-13)
(-1.72341 -0.511582 1.29636e-13)
(-2.07082 1.2528 -4.14081e-14)
(-0.905194 1.87613 -1.79746e-14)
(0.450135 2.35985 1.00246e-13)
(1.84306 2.88161 9.06845e-14)
(2.88677 1.87989 -7.01675e-14)
(3.89251 2.84608 -1.11499e-14)
(-2.11577 -0.0127934 -3.69362e-14)
(-5.58246 -0.0397622 1.81026e-14)
(-3.93996 0.852718 -2.47504e-14)
(-2.61938 0.949895 -9.69008e-14)
(-2.70068 0.573201 6.96726e-15)
(-2.73256 0.482055 1.53704e-13)
(2.77166 0.0857688 2.02004e-14)
(-4.87668 0.307518 1.5892e-13)
(-10.3999 -0.0151893 9.48783e-14)
(7.83023 -3.28563 -4.77955e-14)
(20.6972 -2.65806 -1.32058e-13)
(3.38215 1.08792 -8.19878e-15)
(-0.30813 23.7925 1.98173e-14)
(2.51428 -11.2511 3.59102e-14)
(3.27496 -9.08744 -5.74015e-14)
(3.2808 -6.28904 -8.88221e-14)
(2.58352 -4.01081 1.40824e-14)
(1.57137 -2.29719 -1.66596e-14)
(1.26754 -1.96643 -4.15003e-14)
(1.5185 -2.28027 1.49083e-14)
(1.78665 -2.32345 -2.09296e-13)
(1.87342 -2.12236 -1.18124e-13)
(1.76014 -1.85967 -1.0231e-13)
(1.56722 -1.63417 9.56171e-14)
(1.38372 -1.4312 1.14666e-13)
(1.23673 -1.21262 -5.57006e-14)
(1.10922 -0.966648 -1.19617e-13)
(0.974471 -0.694883 3.48683e-14)
(0.816841 -0.404273 5.33336e-14)
(0.65426 -0.114461 -1.40965e-14)
(0.48094 0.151812 -6.00179e-14)
(0.397895 0.422256 -1.60007e-14)
(0.271382 0.535847 2.27635e-15)
(0.132349 0.488547 -8.33566e-15)
(0.0303725 0.445635 -1.92493e-14)
(0.116098 0.56091 4.12935e-15)
(0.293373 0.828301 -7.6832e-16)
(0.232779 0.794125 -3.77186e-15)
(0.089372 0.790419 7.0681e-15)
(-0.00354329 0.893448 1.22898e-14)
(-0.0843186 0.839296 -3.57511e-15)
(-0.145634 0.579735 -1.00556e-15)
(-0.16091 0.262631 -3.87766e-15)
(-0.055051 -0.0181283 1.90531e-16)
(0.213101 -0.149168 1.41594e-14)
(0.383306 -0.194005 -1.38488e-14)
(0.359992 -0.142998 -2.11104e-14)
(0.330353 -0.00352633 1.97243e-15)
(0.210925 0.134474 1.41686e-15)
(-0.0484493 0.198711 -2.05337e-15)
(0.704208 0.223339 1.01489e-14)
(-3.47939 0.458973 -2.70841e-14)
(0.555208 -11.1671 1.59611e-14)
(-1.01367 -11.2764 1.0268e-14)
(-2.34666 -10.2991 -5.90504e-15)
(-3.42706 -10.6707 2.65419e-15)
(-4.18867 -10.2428 -7.07084e-15)
(-5.1046 -9.38488 -5.51262e-15)
(-6.11311 -8.38112 2.98867e-14)
(-6.77123 -7.09912 -2.69646e-15)
(-7.08509 -5.74216 -9.60803e-14)
(-7.12722 -4.54066 3.39622e-14)
(-6.86879 -3.57283 1.4079e-13)
(-6.47752 -2.84666 1.94954e-13)
(-6.04297 -2.35042 4.42614e-14)
(-5.62071 -2.02848 -2.46616e-13)
(-5.24258 -1.80959 -6.16784e-14)
(-4.90436 -1.6197 -5.95656e-14)
(-4.5912 -1.31842 -1.20001e-13)
(-4.37449 -0.764859 -2.79808e-13)
(-4.02368 -0.292849 -4.82168e-13)
(-3.47118 0.430302 1.20097e-13)
(-2.83134 0.349196 -9.18081e-14)
(-2.16749 0.395662 -1.44542e-13)
(-1.24819 -0.179409 7.08655e-16)
(-1.49537 -2.00085 -1.85786e-13)
(-2.90248 -2.50409 -3.26574e-14)
(-4.70506 -2.44079 2.87705e-14)
(-4.38185 -0.905725 3.64394e-14)
(-3.77432 0.387296 -1.67058e-14)
(-2.67948 0.963801 2.29746e-14)
(-2.03518 0.91761 4.46294e-14)
(-2.1149 0.426003 -3.98343e-14)
(-3.06179 0.103802 1.61249e-14)
(0.853241 0.269246 1.29762e-13)
(-0.223936 0.0624122 1.02312e-13)
(-8.99752 -1.6311 5.56302e-15)
(-13.0969 -1.16564 -8.71015e-14)
(12.0754 -2.43406 -5.86101e-14)
(2.18292 2.08586 -4.33799e-14)
(-17.2992 15.9435 6.00763e-14)
(1.67013 -9.97301 -7.81233e-15)
(2.22966 -7.73902 -3.89912e-14)
(2.19452 -5.47604 -4.31877e-14)
(1.81527 -3.88521 -7.5727e-14)
(1.31438 -2.66982 1.96396e-13)
(1.24596 -2.43775 1.65439e-13)
(1.50093 -2.60997 2.80288e-14)
(1.6744 -2.51333 1.70705e-13)
(1.7362 -2.25424 -2.52944e-14)
(1.68024 -1.93154 -5.53909e-14)
(1.56461 -1.62071 -6.14234e-14)
(1.43266 -1.33703 -3.37637e-14)
(1.30857 -1.07583 -3.44118e-14)
(1.18343 -0.833641 6.49084e-14)
(1.04262 -0.606268 -3.58507e-14)
(0.876131 -0.392162 -9.46127e-14)
(0.695492 -0.196089 -1.55253e-14)
(0.515636 -0.0356082 5.66685e-14)
(0.35572 0.0516048 -3.22339e-15)
(0.229068 0.0991366 -1.4515e-14)
(0.140334 0.134359 -3.57192e-14)
(0.0914103 0.11808 1.27861e-14)
(0.0822783 0.114661 1.53544e-14)
(0.106107 0.149223 -3.47915e-15)
(0.125561 0.356955 -7.89062e-17)
(0.0840724 0.480364 -2.96078e-15)
(-0.00176203 0.425451 -5.53148e-15)
(-0.0921718 0.26571 2.07252e-15)
(-0.153051 0.0474117 1.86414e-15)
(-0.164585 -0.177766 1.18315e-15)
(-0.0408368 -0.35185 -3.84182e-15)
(0.221796 -0.447638 -7.29554e-15)
(0.376265 -0.446611 -4.06065e-15)
(0.436024 -0.276333 9.80014e-15)
(0.48787 -0.00504142 2.18291e-14)
(0.426786 0.171098 -2.26191e-14)
(0.071078 0.284987 5.95613e-15)
(0.563261 0.333608 3.95801e-14)
(-2.92621 0.934084 -2.327e-14)
(0.45965 -9.66202 -1.38557e-14)
(-0.669188 -9.90092 1.38929e-14)
(-1.68528 -9.02274 -1.41889e-14)
(-2.51776 -9.39348 1.86291e-14)
(-3.12853 -9.02136 3.1421e-14)
(-3.90745 -8.30621 -1.65405e-14)
(-4.79716 -7.56141 -1.21679e-14)
(-5.38628 -6.59175 1.78638e-14)
(-5.71028 -5.5822 -4.16387e-14)
(-5.79304 -4.7131 -1.3504e-13)
(-5.60594 -4.00077 -6.99739e-15)
(-5.29751 -3.45176 -8.09528e-14)
(-4.9554 -3.04983 -4.35754e-14)
(-4.62579 -2.73946 -1.51464e-14)
(-4.34261 -2.46954 -2.09875e-13)
(-4.09469 -2.19027 2.0813e-13)
(-3.85655 -1.84634 1.14561e-13)
(-3.54548 -1.5523 -2.54423e-13)
(-3.25589 -1.19398 9.3491e-14)
(-2.79727 -0.805116 -1.51923e-13)
(-2.14176 -0.539685 -1.01455e-13)
(-1.54947 -0.525517 1.94715e-13)
(-0.984037 -0.688361 9.89863e-15)
(-0.757361 -1.06606 1.67558e-13)
(-1.12547 -1.66248 7.47563e-14)
(-3.2996 -1.12313 -1.57835e-14)
(-4.51009 -0.400674 4.43171e-15)
(-3.57268 0.359289 1.77141e-14)
(-1.75147 0.85001 -2.11619e-14)
(-0.682612 0.915421 -3.85507e-14)
(-0.469322 0.44902 1.14793e-14)
(-1.52393 -0.059317 -3.052e-14)
(-0.81419 0.400829 -2.1426e-14)
(0.137553 0.177395 -1.08548e-13)
(-11.4841 -1.59375 -1.90434e-13)
(-11.6452 -1.82267 3.21735e-14)
(9.72238 -2.98033 4.87991e-14)
(-1.1946 2.64002 -8.28001e-15)
(-32.8511 7.60681 -2.71219e-14)
(1.16294 -8.36318 2.42804e-14)
(1.51755 -6.66368 4.25351e-14)
(1.62909 -4.95953 -2.02561e-14)
(1.56061 -3.69355 -5.62132e-14)
(1.34509 -2.83688 -7.82199e-15)
(1.37241 -2.64652 -9.64649e-14)
(1.5848 -2.64633 -7.38801e-14)
(1.69994 -2.46939 1.0555e-13)
(1.71248 -2.19232 1.8934e-13)
(1.63381 -1.88066 1.47516e-14)
(1.50807 -1.60143 -4.3284e-14)
(1.37044 -1.35282 -4.39818e-14)
(1.23284 -1.13503 1.07717e-13)
(1.09406 -0.94182 -3.60923e-14)
(0.942194 -0.766073 -9.72097e-15)
(0.769551 -0.605267 6.98109e-14)
(0.589651 -0.467687 -3.18195e-14)
(0.417509 -0.358392 2.52397e-14)
(0.26912 -0.280408 1.77468e-14)
(0.154296 -0.225608 5.16275e-16)
(0.0757144 -0.18136 3.8392e-14)
(0.0333703 -0.138398 -1.21707e-14)
(0.0312207 -0.0848098 -1.81773e-14)
(0.0762065 -0.00874817 -4.40772e-15)
(0.108844 0.101852 4.325e-15)
(0.093315 0.205353 -1.80081e-15)
(0.0306539 0.229334 -3.07746e-15)
(-0.0334615 0.142795 5.98027e-16)
(-0.0803972 -0.0308085 -7.34816e-16)
(-0.103548 -0.238802 1.75328e-15)
(-0.00797892 -0.408737 3.20024e-15)
(0.224006 -0.467777 3.74731e-15)
(0.3506 -0.41482 -6.84913e-15)
(0.377139 -0.26187 -2.7933e-14)
(0.409798 -0.0361205 -9.37565e-15)
(0.348127 0.203333 -7.88184e-15)
(0.0549432 0.351841 -1.21388e-14)
(0.523426 0.338079 -2.54667e-15)
(-2.03914 0.709263 1.24283e-14)
(-0.0941302 -8.22616 2.35244e-16)
(-0.892295 -8.48918 3.36975e-16)
(-1.67962 -7.82339 7.70343e-16)
(-2.43369 -8.10438 2.60143e-15)
(-2.97951 -7.72858 -1.16896e-14)
(-3.6631 -7.08286 -1.50005e-14)
(-4.45376 -6.45521 -2.72887e-16)
(-4.99268 -5.65709 1.73144e-14)
(-5.33266 -4.83322 5.79301e-14)
(-5.48724 -4.11443 -4.35861e-14)
(-5.40016 -3.48991 -4.70053e-14)
(-5.17984 -2.96882 3.67796e-14)
(-4.89678 -2.55412 -7.80902e-14)
(-4.5877 -2.20872 -2.14429e-15)
(-4.29999 -1.89576 -2.75942e-14)
(-4.03663 -1.58048 1.7973e-14)
(-3.76505 -1.23388 3.22169e-14)
(-3.46009 -0.81263 3.15763e-13)
(-3.18174 -0.364114 2.64398e-13)
(-2.77175 0.0415919 -1.13535e-13)
(-2.23292 0.323098 1.64418e-13)
(-1.70241 0.445526 1.56419e-14)
(-1.15837 0.221351 -4.90699e-14)
(-0.724923 -0.261424 -9.47892e-14)
(-1.12266 -0.667628 7.5036e-15)
(-2.61606 -0.62133 2.28884e-14)
(-4.02031 -0.0219511 2.88268e-14)
(-3.56483 0.610992 -2.70806e-14)
(-1.99186 0.954606 5.88833e-15)
(-0.85762 0.934324 5.42955e-14)
(-0.370396 0.463249 -2.29512e-14)
(-0.371141 -0.11168 -1.26326e-13)
(0.396247 0.475958 -5.73173e-14)
(-1.03944 0.590613 -8.52105e-14)
(-10.9296 -1.57227 5.71574e-14)
(-7.60983 -2.31401 2.31212e-14)
(10.4775 -3.84488 7.8697e-14)
(-3.1665 4.60962 1.15579e-13)
(-25.8358 5.58005 -3.58601e-14)
(0.60964 -7.12718 -9.43117e-15)
(1.12587 -5.79727 -2.59704e-14)
(1.46185 -4.55965 -2.61151e-15)
(1.59003 -3.56043 5.42504e-14)
(1.53495 -2.8753 1.06125e-13)
(1.62812 -2.67322 -2.10405e-13)
(1.79535 -2.55612 -1.57904e-13)
(1.87275 -2.31795 -1.12384e-13)
(1.84676 -2.02014 6.37933e-14)
(1.74552 -1.68997 2.33255e-14)
(1.59133 -1.40841 -6.51536e-14)
(1.43417 -1.16038 3.89333e-15)
(1.27881 -0.927971 -2.23999e-14)
(1.12407 -0.717793 -3.47981e-14)
(0.963757 -0.521382 -1.18278e-13)
(0.788211 -0.337825 -1.30273e-14)
(0.60758 -0.178945 6.51085e-14)
(0.435636 -0.0478241 -1.01111e-14)
(0.287483 0.0511485 1.27092e-14)
(0.169184 0.130049 -1.91961e-14)
(0.0817688 0.189056 -2.76926e-14)
(0.0272188 0.232694 -8.22655e-16)
(0.00649255 0.270244 5.94773e-15)
(0.0181696 0.312923 6.22586e-15)
(0.0408952 0.369937 -2.02671e-15)
(0.0368795 0.413448 2.76838e-15)
(-0.00377077 0.405678 4.70263e-15)
(-0.0517066 0.339958 -9.81133e-16)
(-0.0900834 0.22383 7.60784e-16)
(-0.112712 0.0817966 -1.71971e-15)
(-0.0237576 -0.0215968 -3.22387e-15)
(0.196877 -0.0665141 -3.25453e-15)
(0.310226 -0.0604081 5.75747e-15)
(0.327909 0.0316935 2.51004e-14)
(0.36794 0.194566 8.00424e-15)
(0.31732 0.292021 1.08498e-14)
(0.0469065 0.340005 -3.72031e-15)
(0.543544 0.119192 -2.66156e-14)
(-1.54224 0.967419 -3.08115e-15)
(-0.267129 -7.02251 -9.21235e-17)
(-0.963903 -7.31161 -1.08021e-15)
(-1.57223 -6.81647 -7.65802e-15)
(-2.22318 -7.09848 4.57563e-15)
(-2.68699 -6.77358 2.37068e-14)
(-3.26522 -6.21067 7.03438e-15)
(-3.93496 -5.69109 2.81959e-15)
(-4.39769 -5.04789 -1.1583e-14)
(-4.72747 -4.39709 2.87819e-14)
(-4.93806 -3.82674 4.74638e-14)
(-4.94991 -3.30341 3.2143e-15)
(-4.833 -2.83734 1.38798e-14)
(-4.62665 -2.44 1.15132e-13)
(-4.35421 -2.09009 2.25842e-13)
(-4.07214 -1.76566 2.04631e-13)
(-3.79514 -1.43797 -3.71819e-15)
(-3.50783 -1.07833 2.6999e-13)
(-3.17845 -0.671409 -4.26145e-16)
(-2.82777 -0.285633 -8.05162e-14)
(-2.40398 0.101335 1.18317e-13)
(-1.93022 0.38786 -1.98596e-13)
(-1.46218 0.476001 8.13852e-14)
(-1.05078 0.336267 9.07777e-14)
(-0.702172 -0.0232129 3.07525e-14)
(-1.09129 -0.377567 8.96823e-14)
(-2.53314 -0.314976 -3.60291e-14)
(-3.77066 0.103714 -3.07569e-14)
(-3.38934 0.576884 4.15294e-15)
(-2.07297 0.806699 2.04674e-14)
(-1.14289 0.781735 -5.15779e-14)
(-0.981591 0.341097 -4.95753e-14)
(-0.948023 -0.272883 8.98232e-14)
(1.21231 0.338732 1.65076e-14)
(0.238742 0.696662 -2.60649e-14)
(-7.47346 -1.75739 2.18087e-14)
(-3.46449 -3.05826 -1.08123e-13)
(9.86858 -4.11342 -1.2598e-13)
(-3.20189 4.15783 -4.62197e-14)
(-26.5592 7.74723 5.84346e-15)
(0.413426 -6.18818 -5.50501e-15)
(1.02835 -5.35031 -2.18123e-15)
(1.41097 -4.36386 1.04754e-14)
(1.49031 -3.41684 5.7284e-14)
(1.51428 -2.84823 4.13152e-14)
(1.67489 -2.65892 3.21217e-14)
(1.84861 -2.48015 1.28889e-13)
(1.93606 -2.21371 -1.06222e-13)
(1.92332 -1.91571 -1.60522e-13)
(1.809 -1.59711 3.4941e-14)
(1.65512 -1.2947 8.83351e-14)
(1.51127 -1.01812 -1.67845e-14)
(1.3326 -0.785002 5.13372e-14)
(1.15616 -0.565946 9.03075e-16)
(0.980833 -0.362203 2.67831e-14)
(0.797343 -0.173237 1.63919e-14)
(0.6137 -0.0108026 -2.54835e-14)
(0.437721 0.117917 2.33215e-14)
(0.28421 0.211187 -1.68856e-14)
(0.159409 0.271476 -2.257e-16)
(0.0591099 0.298545 3.71732e-14)
(-0.0126677 0.298348 -1.2105e-14)
(-0.0526305 0.276245 -1.44351e-14)
(-0.0638558 0.2508 2.85466e-15)
(-0.0624954 0.246809 3.74249e-16)
(-0.0695836 0.253395 -1.26037e-15)
(-0.093208 0.24556 -1.80628e-15)
(-0.121862 0.207048 3.56015e-16)
(-0.146102 0.130669 5.45804e-16)
(-0.162063 0.024909 -3.48733e-16)
(-0.0777791 -0.0896315 -7.43998e-15)
(0.138797 -0.159335 4.02714e-16)
(0.252099 -0.176229 1.12517e-14)
(0.275975 -0.131777 -4.30815e-16)
(0.329915 -0.0214387 -6.06878e-16)
(0.302441 0.0628088 -3.9029e-16)
(0.0435454 0.127928 3.87398e-15)
(0.57352 -0.131341 1.7904e-14)
(-1.58489 1.17365 -2.78654e-14)
(-0.288829 -6.1964 4.95906e-15)
(-0.956914 -6.40419 -4.80191e-15)
(-1.42124 -6.01813 1.01528e-14)
(-1.96953 -6.26856 -3.48034e-14)
(-2.38471 -6.00906 2.02269e-14)
(-2.87708 -5.53631 4.16446e-15)
(-3.44067 -5.12047 4.29632e-15)
(-3.82496 -4.60983 -3.51102e-14)
(-4.12359 -4.10106 8.07214e-15)
(-4.36839 -3.65778 5.73302e-14)
(-4.46971 -3.21995 -1.97153e-14)
(-4.46667 -2.79657 -7.62046e-14)
(-4.36521 -2.40734 -1.63718e-13)
(-4.16424 -2.03868 -1.52725e-13)
(-3.9147 -1.68741 -1.06842e-13)
(-3.63948 -1.34305 -4.55352e-14)
(-3.34274 -0.987132 -1.53739e-13)
(-3.00175 -0.613466 -2.10964e-13)
(-2.63199 -0.198062 -1.10501e-13)
(-2.23683 0.184989 2.67299e-13)
(-1.82881 0.459511 2.52189e-13)
(-1.49575 0.587599 -2.26232e-14)
(-1.13446 0.506283 -3.6665e-14)
(-0.792278 0.169956 -1.20517e-13)
(-1.13593 -0.231527 -6.85341e-14)
(-2.50507 -0.297251 3.12635e-14)
(-3.65659 0.0257945 2.38116e-14)
(-3.23605 0.44557 2.78643e-15)
(-2.02048 0.655362 -1.42868e-14)
(-1.1492 0.695906 5.22264e-14)
(-1.01116 0.290198 1.12321e-13)
(-1.57225 -0.393569 2.2758e-15)
(0.462034 0.199655 1.15871e-14)
(1.30859 0.697902 2.47786e-14)
(-5.11639 -1.64909 -3.88314e-14)
(-1.58009 -3.53573 1.41399e-13)
(8.85761 -3.89846 1.10074e-13)
(-8.51688 5.35635 -7.64455e-14)
(-41.8507 12.0494 -2.39133e-14)
(0.415135 -5.69858 1.87086e-14)
(0.925482 -4.98697 2.49281e-14)
(1.21264 -3.99217 -5.92972e-15)
(1.1984 -3.15825 1.53691e-13)
(1.26156 -2.77352 -1.92927e-13)
(1.48667 -2.61221 5.56396e-14)
(1.68578 -2.41254 1.47754e-13)
(1.81021 -2.15349 1.02285e-13)
(1.83384 -1.86074 -2.47379e-14)
(1.75085 -1.57199 -3.15876e-14)
(1.65113 -1.3078 2.55658e-14)
(1.4977 -1.04738 3.08638e-14)
(1.30386 -0.80126 -6.91046e-14)
(1.12959 -0.588698 6.05545e-14)
(0.955806 -0.387804 1.19136e-14)
(0.779417 -0.198913 -1.28421e-14)
(0.607354 -0.0323723 -4.42451e-14)
(0.446368 0.101204 -4.3616e-14)
(0.304568 0.202108 3.34257e-14)
(0.186339 0.261927 1.0124e-14)
(0.092628 0.286495 3.66198e-15)
(0.0234959 0.281852 2.76109e-14)
(-0.019044 0.251451 9.34048e-15)
(-0.0366401 0.22084 -1.14095e-15)
(-0.0420747 0.209659 9.37826e-16)
(-0.0544675 0.215796 1.96439e-16)
(-0.0806544 0.223245 2.51641e-16)
(-0.106947 0.214616 2.64302e-16)
(-0.128831 0.17736 6.11384e-16)
(-0.146362 0.107209 1.44514e-15)
(-0.0654538 0.0301872 6.29009e-15)
(0.142696 -0.020262 -7.0165e-15)
(0.244278 -0.0462311 -2.31494e-14)
(0.260601 -0.038129 -1.83128e-14)
(0.310675 0.0252787 -9.88714e-15)
(0.296919 0.054125 4.131e-15)
(0.0407043 0.0747294 -5.27279e-15)
(0.598626 -0.299789 -1.22808e-14)
(-1.47695 0.939105 1.62672e-14)
(-0.230911 -5.64739 8.31771e-16)
(-0.842589 -5.68812 2.53708e-15)
(-1.23569 -5.41148 -1.6715e-15)
(-1.71772 -5.66739 -1.45584e-14)
(-2.08094 -5.4382 -2.84171e-14)
(-2.50808 -5.03606 1.89452e-14)
(-2.99085 -4.71115 -1.05862e-14)
(-3.30636 -4.31086 9.37645e-15)
(-3.56364 -3.91358 -1.62137e-14)
(-3.81498 -3.56741 -1.56486e-14)
(-3.97795 -3.19937 6.75171e-15)
(-4.07101 -2.81331 9.49421e-14)
(-4.07688 -2.42578 1.30938e-13)
(-3.97036 -2.0381 2.33538e-14)
(-3.78227 -1.66064 1.08834e-14)
(-3.5363 -1.2927 1.31802e-14)
(-3.24855 -0.931509 -3.09884e-14)
(-2.9188 -0.569657 9.15929e-14)
(-2.51692 -0.204277 7.9832e-14)
(-2.14776 0.146607 -2.10652e-13)
(-1.7743 0.393616 -2.35725e-14)
(-1.47249 0.501105 4.55939e-14)
(-1.18754 0.439536 -5.43391e-14)
(-0.892836 0.170278 6.22293e-14)
(-1.16237 -0.23342 3.66299e-16)
(-2.40427 -0.411667 -1.04075e-14)
(-3.53394 -0.14952 -3.05795e-14)
(-3.10291 0.253286 1.525e-15)
(-1.9799 0.476006 -2.39632e-16)
(-1.17216 0.591597 3.08724e-14)
(-0.726338 0.269718 1.09231e-14)
(-1.38415 -0.42458 -5.17941e-14)
(-0.599062 0.251193 -1.13294e-14)
(0.409223 0.988651 1.10235e-13)
(-4.55934 -1.26099 2.47922e-14)
(-0.338468 -3.83386 -6.7204e-14)
(7.7857 -3.04113 -2.90779e-14)
(-14.599 7.24741 5.77475e-14)
(-40.9161 11.6434 -1.73685e-14)
(0.382195 -5.21754 5.86642e-15)
(0.689205 -4.51676 -5.65465e-14)
(0.801213 -3.63061 1.72972e-15)
(0.846276 -2.87338 4.18535e-14)
(0.955271 -2.58977 5.09687e-14)
(1.20025 -2.47832 -2.65763e-14)
(1.40387 -2.28532 -1.04394e-14)
(1.54848 -2.05309 -8.84414e-15)
(1.60579 -1.79516 -1.85765e-14)
(1.57372 -1.53144 2.48557e-15)
(1.48845 -1.28802 2.60578e-14)
(1.34231 -1.07989 5.31936e-14)
(1.19034 -0.867767 3.50878e-15)
(1.03049 -0.673138 -1.2077e-13)
(0.867237 -0.490186 2.01968e-14)
(0.704755 -0.318563 5.79147e-14)
(0.551843 -0.163727 4.24326e-14)
(0.413313 -0.0339672 1.9584e-14)
(0.296021 0.0648794 -1.2681e-14)
(0.201242 0.132107 -2.15093e-15)
(0.127029 0.171335 -1.28328e-14)
(0.0728111 0.183187 -2.31405e-14)
(0.0365151 0.174364 8.72763e-15)
(0.0139447 0.159641 8.14383e-15)
(-0.00160965 0.152354 6.90215e-16)
(-0.0235391 0.156837 1.89231e-15)
(-0.0550885 0.163278 -7.91671e-16)
(-0.0826773 0.159989 -3.25058e-16)
(-0.104179 0.136559 -1.01974e-15)
(-0.122738 0.0875272 -1.99765e-15)
(-0.0470636 0.0237076 4.8155e-15)
(0.152812 -0.0185659 5.20858e-15)
(0.245486 -0.0404408 8.65074e-15)
(0.253704 -0.0412795 6.30143e-15)
(0.299222 0.00785255 -1.31143e-14)
(0.292187 0.0213947 1.67371e-15)
(0.0403889 0.0382791 -9.59165e-16)
(0.571184 -0.346691 -1.13616e-15)
(-1.07923 0.512559 4.96158e-15)
(-0.269408 -5.16069 3.46282e-15)
(-0.782212 -5.15476 -4.83561e-16)
(-1.15022 -4.86428 -1.26612e-14)
(-1.58168 -5.09508 5.11222e-15)
(-1.93253 -4.8996 4.85906e-15)
(-2.33274 -4.54877 2.31968e-15)
(-2.74957 -4.27757 6.27161e-15)
(-2.99669 -3.94228 1.37291e-15)
(-3.19786 -3.61776 3.89847e-15)
(-3.41087 -3.33862 1.85927e-14)
(-3.57335 -3.02643 3.74497e-14)
(-3.70367 -2.68338 3.74417e-14)
(-3.76467 -2.31814 -8.38134e-14)
(-3.71663 -1.93779 -1.41814e-13)
(-3.58278 -1.5601 2.32541e-14)
(-3.37243 -1.19178 1.95497e-13)
(-3.10093 -0.842041 4.50732e-14)
(-2.77871 -0.516901 -1.1681e-13)
(-2.37106 -0.203403 -1.80287e-14)
(-1.99484 0.10641 2.75942e-14)
(-1.65686 0.308111 -5.38723e-14)
(-1.42395 0.374577 -6.52266e-14)
(-1.20999 0.323167 5.27435e-15)
(-0.981403 0.127009 4.85569e-14)
(-1.21158 -0.200115 4.41018e-14)
(-2.32576 -0.405111 -2.58543e-15)
(-3.40477 -0.183629 2.57506e-14)
(-2.97984 0.224682 4.60189e-15)
(-1.93317 0.45471 4.427e-14)
(-1.23757 0.572554 -3.60539e-14)
(-0.550367 0.284512 -1.13465e-13)
(-0.894157 -0.364733 -4.15065e-14)
(-1.20044 0.48072 2.50367e-14)
(-1.14019 1.46758 2.23283e-14)
(-4.03311 -1.05463 -2.72316e-14)
(1.30336 -4.1819 -1.68391e-14)
(6.01383 -1.40533 5.14367e-15)
(-20.0068 9.22969 5.67936e-16)
(-39.6863 10.7936 4.1138e-14)
(0.0694945 -4.63272 -9.08814e-15)
(0.342159 -3.85992 -9.95258e-15)
(0.432687 -3.04344 -9.78755e-15)
(0.556692 -2.54618 -4.18124e-14)
(0.711218 -2.36243 3.63829e-14)
(0.930566 -2.26499 -2.93421e-14)
(1.11398 -2.09561 -2.67138e-14)
(1.24957 -1.89907 6.01055e-14)
(1.31536 -1.68403 -2.06887e-14)
(1.30535 -1.46323 6.21594e-14)
(1.25266 -1.25974 6.59317e-14)
(1.15618 -1.07193 4.61812e-14)
(1.02694 -0.896068 2.21387e-14)
(0.884729 -0.732311 4.10549e-14)
(0.738634 -0.573459 -1.17526e-14)
(0.5947 -0.422738 4.88778e-15)
(0.46296 -0.284863 2.88686e-14)
(0.346566 -0.161745 1.97492e-14)
(0.251905 -0.0580317 -2.12356e-15)
(0.180502 0.0222293 -3.95063e-14)
(0.127765 0.0803111 -8.81584e-15)
(0.088691 0.115159 3.36543e-16)
(0.0606254 0.126406 -1.88377e-14)
(0.0403099 0.122132 2.03294e-15)
(0.0216465 0.115012 -6.95216e-16)
(-0.00413906 0.110287 -2.48926e-15)
(-0.0377471 0.104335 3.38928e-16)
(-0.0649765 0.0916065 3.74651e-17)
(-0.0844401 0.0669623 -7.63743e-17)
(-0.101895 0.0252989 1.69797e-15)
(-0.0289069 -0.0251047 -4.08867e-15)
(0.166304 -0.0527637 -1.0087e-14)
(0.252775 -0.0582853 7.1712e-15)
(0.252263 -0.0501762 1.74289e-14)
(0.294581 0.00472239 8.08112e-15)
(0.288863 0.0226376 -5.63206e-15)
(0.0501802 0.0500287 1.08697e-14)
(0.463263 -0.29069 1.94593e-14)
(-0.574412 0.31184 2.29716e-15)
(-0.46506 -4.36451 -3.57733e-15)
(-0.860628 -4.54383 1.34904e-15)
(-1.23992 -4.31176 1.11453e-14)
(-1.66699 -4.49598 1.87614e-14)
(-1.99536 -4.30183 -8.35672e-15)
(-2.35704 -3.97859 -1.04958e-15)
(-2.71581 -3.73948 7.92823e-15)
(-2.90256 -3.44841 -9.83366e-15)
(-3.04055 -3.17055 -1.4566e-14)
(-3.19136 -2.93642 -8.76787e-15)
(-3.30694 -2.66931 -3.68345e-14)
(-3.41436 -2.37135 -8.96403e-15)
(-3.47628 -2.04419 7.80514e-14)
(-3.44626 -1.68576 3.89067e-14)
(-3.33492 -1.32149 -4.77434e-15)
(-3.14393 -0.968893 -1.54626e-13)
(-2.88718 -0.643161 -4.35952e-14)
(-2.57173 -0.356213 1.45904e-13)
(-2.16529 -0.100885 7.12613e-14)
(-1.76678 0.11879 -3.55415e-14)
(-1.46533 0.237691 -2.14857e-15)
(-1.29042 0.256158 3.66125e-14)
(-1.1532 0.204817 9.36538e-15)
(-0.988243 0.0671711 -6.72082e-14)
(-1.23829 -0.160667 -1.12382e-13)
(-2.27682 -0.32182 3.34507e-14)
(-3.27741 -0.110848 -6.0711e-15)
(-2.86557 0.314459 -6.79226e-15)
(-1.86158 0.549703 -2.42181e-14)
(-1.25594 0.626075 -2.26708e-14)
(-0.539202 0.321443 3.36075e-14)
(-0.629978 -0.237971 1.16244e-13)
(-1.38653 0.776416 2.95156e-14)
(-1.82214 1.80478 -8.56332e-14)
(-2.67969 -1.32231 1.64475e-14)
(2.46979 -4.48347 -3.16985e-14)
(3.06384 0.826006 2.11255e-15)
(-23.948 11.0805 -4.61586e-15)
(-36.2996 9.10271 1.72268e-14)
(-0.235048 -3.76622 9.43581e-15)
(0.047594 -3.16909 3.89807e-14)
(0.368489 -2.61422 -7.89681e-14)
(0.587243 -2.2891 -1.97085e-15)
(0.759776 -2.13013 -1.26645e-13)
(0.948296 -2.02264 1.33109e-15)
(1.10167 -1.85432 3.07372e-14)
(1.21175 -1.66538 -1.1478e-13)
(1.25997 -1.46466 1.77134e-14)
(1.24335 -1.26053 -1.77534e-14)
(1.18969 -1.07253 -4.60008e-14)
(1.10291 -0.897465 -6.75338e-14)
(0.981139 -0.743677 -1.54929e-16)
(0.842716 -0.610067 4.40791e-14)
(0.695396 -0.484392 2.35297e-14)
(0.548351 -0.364453 -1.89459e-14)
(0.416018 -0.25597 -2.63477e-14)
(0.304579 -0.156923 -5.23492e-15)
(0.217757 -0.0672677 1.115e-14)
(0.154833 0.0100755 3.22315e-14)
(0.111783 0.0724383 3.10923e-14)
(0.0831681 0.116938 2.44788e-14)
(0.0634262 0.141273 -1.20255e-16)
(0.0468439 0.147085 -2.01248e-14)
(0.027836 0.141153 2.0319e-15)
(0.000268744 0.128107 -3.54943e-15)
(-0.0345432 0.107318 -5.01952e-16)
(-0.0616853 0.0780185 5.00385e-16)
(-0.0795412 0.0404394 1.91492e-16)
(-0.0953708 -0.00744719 -2.38172e-15)
(-0.0243856 -0.0585444 2.03248e-15)
(0.167251 -0.083168 9.5227e-15)
(0.251546 -0.0794693 -8.4111e-15)
(0.24492 -0.0632044 -5.55003e-15)
(0.283363 0.000539257 1.02964e-14)
(0.277278 0.0300388 2.04027e-15)
(0.0707528 0.066397 -5.73407e-15)
(0.342171 -0.223721 -9.67858e-15)
(-0.363794 0.329433 -2.78227e-14)
(-0.714879 -3.54939 -9.97989e-16)
(-1.07427 -3.76775 1.05844e-15)
(-1.39648 -3.64153 -1.66341e-15)
(-1.77989 -3.79962 -8.7808e-15)
(-2.06528 -3.63296 1.11105e-14)
(-2.38273 -3.35415 -2.19537e-15)
(-2.69475 -3.14879 -9.05186e-16)
(-2.84249 -2.90209 4.50692e-15)
(-2.94081 -2.6673 -7.398e-15)
(-3.04616 -2.46926 -4.53022e-14)
(-3.11477 -2.23933 -2.79213e-14)
(-3.18182 -1.98117 -4.54424e-14)
(-3.21897 -1.69386 -3.08645e-14)
(-3.18212 -1.367 -5.60026e-14)
(-3.07673 -1.02825 -6.6879e-14)
(-2.90137 -0.699048 6.05632e-14)
(-2.66407 -0.397747 -9.72858e-15)
(-2.3693 -0.140972 -1.11289e-13)
(-1.98906 0.071114 -4.86242e-14)
(-1.57774 0.232531 -3.90901e-14)
(-1.26899 0.29222 -2.97414e-14)
(-1.11733 0.238598 7.76279e-14)
(-1.03504 0.141867 -9.26238e-15)
(-0.930899 0.015054 -1.44764e-14)
(-1.20908 -0.160389 5.398e-15)
(-2.22888 -0.257136 -2.91335e-14)
(-3.15032 -0.0301568 -3.8566e-14)
(-2.76081 0.412042 5.09305e-15)
(-1.78754 0.654556 -5.48778e-15)
(-1.22314 0.687418 2.20828e-14)
(-0.594508 0.354314 8.69334e-15)
(-0.620189 -0.105395 -5.74414e-14)
(-1.38145 0.995551 -1.19444e-13)
(-1.52812 1.81705 4.50292e-14)
(-1.11226 -1.90329 2.59898e-14)