/*--------------------------------*- C++ -*----------------------------------*\
| =========                 |                                                 |
| \\      /  F ield         | OpenFOAM: The Open Source CFD Toolbox           |
|  \\    /   O peration     | Version:  2312                                  |
|   \\  /    A nd           | Website:  www.openfoam.com                      |
|    \\/     M anipulation  |                                                 |
\*---------------------------------------------------------------------------*/
FoamFile
{
    version     2.0;
    format      ascii;
    arch        "LSB;label=32;scalar=64";
    class       volSymmTensorField;
    location    "50";
    object      turbulenceProperties:R;
}
// * * * * * * * * * * * * * * * * * * * * * * * * * * * * * * * * * * * * * //

dimensions      [0 2 -2 0 0 0 0];

internalField   nonuniform List<symmTensor> 
10720
(
(0.00635188 0.0059483 -2.35897e-20 -0.000745399 -1.09617e-19 0.00304882)
(0.012293 0.0111316 3.5542e-20 -0.00275585 1.25466e-19 0.00504034)
(0.0247818 0.0150882 1.43214e-20 -0.000807497 7.02878e-20 0.0127623)
(0.0361523 0.0160518 4.60134e-19 0.0031695 1.79653e-18 0.0205949)
(0.0469031 0.0143633 -7.75498e-19 0.0104879 -2.42019e-18 0.0295415)
(0.0599739 0.0124293 -7.35313e-19 0.0189119 -1.41956e-18 0.0404829)
(0.079008 0.0113753 1.27048e-19 0.0285986 -1.0698e-20 0.0549875)
(0.105867 0.0103456 7.4376e-20 0.0394199 1.17602e-19 0.0740646)
(0.142772 0.00803906 2.23553e-19 0.0524531 -1.80578e-19 0.0995233)
(0.19403 0.00336786 -4.84939e-20 0.0704603 -4.86535e-20 0.134711)
(0.268555 -0.00562353 6.21976e-18 0.0977035 2.93077e-18 0.186425)
(0.384523 -0.0224102 -1.50688e-18 0.142377 -1.15677e-18 0.26803)
(0.570614 -0.0539116 3.57466e-18 0.218154 -5.36187e-18 0.400972)
(0.916893 -0.118785 2.07514e-18 0.366402 4.68174e-18 0.651927)
(1.56537 -0.255689 4.77292e-18 0.660211 -8.46193e-18 1.12985)
(2.85265 -0.558465 7.50663e-19 1.27911 4.06719e-17 2.09594)
(5.23917 -1.1912 2.91033e-16 2.5133 1.38876e-16 3.93113)
(10.8196 -2.78827 -6.06004e-17 5.57499 1.3137e-16 8.31075)
(19.8154 -5.69375 -6.69197e-17 11.011 -8.15326e-16 15.627)
(27.9154 -8.81691 4.93103e-17 16.7672 -2.16188e-18 22.6432)
(33.6358 -11.5483 -1.00987e-15 21.8802 -5.25443e-16 28.1168)
(39.2669 -14.493 1.43588e-15 27.6463 1.62624e-15 33.8572)
(47.9889 -18.8665 -5.11643e-16 36.5391 -1.32725e-15 42.7033)
(51.3744 -21.3451 3.70231e-16 42.2438 8.97086e-17 47.2334)
(74.6465 -32.4523 -1.59518e-16 65.9041 -7.72378e-18 70.7305)
(90.9879 -40.9327 3.44818e-17 85.0444 -1.02692e-15 88.7917)
(275.785 -127.276 5.71629e-16 269.676 -1.96066e-16 276.222)
(536.707 -253.321 7.98642e-16 551.548 1.24465e-15 546.868)
(308.296 -125.773 8.14849e-15 330.564 3.02498e-16 317.969)
(93.7787 -31.6421 2.9528e-15 101.982 2.89371e-15 97.4477)
(12.6761 -3.94951 -4.66157e-16 13.9125 -1.95113e-16 13.2632)
(2.45632 -0.601424 -1.12443e-16 2.66699 -8.16598e-17 2.55967)
(0.476068 -0.0941787 -9.78195e-18 0.511648 -2.66991e-17 0.493873)
(0.00732671 -0.00120785 -3.95324e-19 0.00779758 -1.30579e-18 0.00755618)
(6.61573e-16 -4.49685e-17 3.39148e-32 6.73255e-16 1.25908e-31 6.65172e-16)
(6.86518e-16 6.90365e-17 5.15743e-33 6.46227e-16 9.98555e-32 6.67255e-16)
(6.08697e-16 -1.14391e-16 -3.71729e-33 7.21291e-16 2.62953e-34 6.70011e-16)
(1.15437 -0.598133 -2.72346e-16 1.78725 -1.11022e-16 1.43135)
(90.6896 -47.9993 4.0537e-17 134.883 -4.02257e-15 115.949)
(0.0165947 0.00586509 8.07016e-21 0.010874 -1.59029e-20 0.0138155)
(0.0410544 0.0147326 -1.61467e-19 0.0279734 1.95835e-19 0.0350179)
(0.111535 0.0412325 -1.88604e-18 0.0787956 -1.78176e-18 0.095925)
(0.173389 0.064528 7.75532e-18 0.123924 -9.34153e-18 0.148523)
(0.185867 0.0662107 -1.73492e-17 0.127967 1.00189e-17 0.153048)
(0.167815 0.0528999 -2.18996e-17 0.103367 3.42954e-17 0.130042)
(0.180946 0.0475211 2.50173e-17 0.0959814 5.51161e-18 0.134938)
(0.193538 0.0428009 7.65773e-18 0.0922028 -3.01158e-17 0.14219)
(0.208368 0.0418589 6.01825e-18 0.0947671 1.09691e-18 0.152091)
(0.225722 0.0455633 -4.02373e-18 0.102717 -1.37425e-18 0.16544)
(0.246135 0.0530021 2.89256e-18 0.11516 6.77168e-18 0.182358)
(0.27081 0.0633814 5.99088e-18 0.132092 -3.18027e-18 0.2034)
(0.302219 0.0770021 -6.99201e-18 0.154838 1.06349e-18 0.230709)
(0.346877 0.0954992 4.01075e-18 0.187109 -8.04298e-19 0.269427)
(0.418414 0.122936 1.62564e-17 0.237016 -1.31442e-18 0.330347)
(0.534137 0.166011 1.41028e-17 0.317018 -3.57601e-18 0.428717)
(0.748745 0.244009 4.46011e-18 0.463542 3.54518e-18 0.610099)
(1.09451 0.398952 -2.3849e-19 0.675741 5.14693e-18 0.890842)
(1.63855 0.65956 2.4131e-18 1.01391 -1.33678e-18 1.33455)
(2.24989 0.891383 3.03677e-18 1.48913 3.4541e-19 1.87996)
(2.95965 1.1413 -3.87265e-18 2.08489 -2.29645e-17 2.53483)
(3.95389 1.52665 -1.55311e-17 2.91584 1.34108e-18 3.4513)
(5.44142 2.14909 1.25582e-17 4.17314 3.14208e-18 4.8302)
(7.73112 3.14742 1.66615e-18 6.18448 4.65539e-18 6.99419)
(10.969 4.6078 3.69722e-16 9.18226 -2.1203e-17 10.132)
(14.1933 6.13778 5.76742e-18 12.4298 2.2003e-17 13.3846)
(15.1272 6.5362 -6.13007e-19 13.8841 -2.25935e-17 14.5782)
(10.9215 4.28577 -2.24147e-18 10.5003 6.88629e-20 10.7545)
(5.50735 2.01173 1.1765e-18 5.48268 1.59329e-20 5.51473)
(1.97946 0.69737 1.71024e-17 2.02727 -2.91622e-18 2.01025)
(0.492078 0.174692 -4.69901e-19 0.51746 -2.32261e-20 0.506512)
(0.054982 0.0205234 -1.30116e-19 0.0594647 4.23634e-19 0.0574236)
(0.00830443 0.00337057 -5.38343e-19 0.00927473 -9.42654e-20 0.00882051)
(0.00289186 0.00130452 -3.58225e-19 0.00335324 1.58635e-19 0.00313357)
(0.000390013 0.000196806 5.21256e-20 0.000471978 -4.7808e-23 0.000432485)
(0.00421052 0.00236514 -4.18166e-21 0.00533651 -8.14278e-20 0.00478917)
(6.41187e-05 3.86036e-05 -2.35001e-22 8.49623e-05 1.72978e-21 7.47395e-05)
(0.737783 0.462992 -1.60007e-18 1.02514 -5.13561e-18 0.890379)
(56.7967 29.6211 -1.03972e-14 79.3458 -7.59874e-16 68.3441)
(0.0408537 -0.0100635 -8.94428e-20 0.00707933 -2.40384e-19 0.0224893)
(0.0468369 -0.0164836 7.30398e-21 0.00956921 4.37018e-19 0.0259193)
(0.0434822 -0.0156064 1.18063e-19 0.0207411 3.3618e-20 0.0298233)
(0.0430405 -0.0155747 1.42497e-19 0.0287172 -2.34145e-21 0.0333619)
(0.0436853 -0.0171512 7.13034e-19 0.0353002 1.92321e-18 0.0363993)
(0.0435772 -0.0188231 1.9057e-18 0.0418535 3.6842e-18 0.0387707)
(0.0428654 -0.0196029 -5.69838e-19 0.0480417 1.10655e-19 0.0405402)
(0.0418459 -0.0195611 -7.03504e-19 0.0536129 -2.72491e-19 0.0417881)
(0.0406177 -0.0187735 -7.17167e-18 0.0582989 -7.62192e-18 0.0424303)
(0.0394042 -0.0174584 -2.16644e-18 0.0615815 -9.28245e-19 0.04237)
(0.037962 -0.0157266 -2.57545e-17 0.0629595 -2.41407e-17 0.0413602)
(0.0358563 -0.0136439 -3.44405e-19 0.0615857 3.47817e-18 0.0389576)
(0.0309669 -0.0107493 -1.20873e-17 0.0537554 -3.49424e-19 0.0330023)
(0.0551338 -0.0176748 1.52984e-17 0.0947858 9.08929e-18 0.0569864)
(0.0651976 -0.0201583 -3.77106e-17 0.108647 -1.15242e-17 0.0647901)
(0.0706283 -0.0221628 8.83959e-17 0.111414 2.18805e-17 0.0669)
(0.125952 -0.0417885 -1.46363e-16 0.181987 -1.15899e-16 0.11254)
(0.288931 -0.102415 -2.85569e-16 0.368943 -9.20582e-17 0.24289)
(0.902903 -0.336013 -8.20055e-16 0.999573 3.02275e-16 0.725978)
(2.31808 -0.884937 1.90638e-16 2.25507 1.02853e-18 1.8362)
(4.68021 -1.81381 1.68766e-15 4.14974 1.62989e-15 3.75019)
(7.79341 -3.05849 -2.36805e-15 6.57673 -3.41221e-15 6.39084)
(12.2128 -4.88772 1.74946e-16 10.1703 3.03872e-15 10.3194)
(15.0779 -6.18343 3.49564e-17 12.7554 -6.02054e-16 13.0987)
(19.8042 -7.11164 -0 17.5462 -0 17.9353)
(14.7715 -3.68291 -1.10866e-17 14.2217 1.93094e-16 13.9311)
(56.5658 -8.68321 -2.961e-16 57.462 1.22144e-16 54.6307)
(182.991 -8.90029 -1.5199e-16 182.899 -5.24405e-16 181.573)
(137.109 -4.73452 -4.63412e-15 133.509 -3.51921e-15 136.753)
(75.2228 -4.47718 -2.09761e-16 70.6911 -1.3503e-14 75.0121)
(32.0923 -2.76963 3.87707e-16 30.9039 7.36426e-15 32.1743)
(10.0612 -1.08392 1.17606e-17 10.177 2.53979e-15 10.1816)
(2.14711 -0.47037 -2.67842e-16 2.27873 3.85014e-16 2.2174)
(0.0319831 -0.0116688 1.04151e-17 0.0353869 3.19793e-17 0.0335582)
(0.000621284 -0.000230099 -3.5835e-20 0.000686742 -2.88442e-19 0.00064309)
(6.00672e-16 -2.23059e-16 8.88623e-33 7.29641e-16 -1.49895e-31 6.69687e-16)
(5.89675e-16 -1.18174e-16 -1.86255e-32 7.31965e-16 4.1814e-33 6.7836e-16)
(0.749768 -0.389138 3.60403e-16 1.16807 2.50427e-16 0.944769)
(67.2855 -3.62825 7.21025e-14 74.405 -4.42544e-15 70.9605)
(0.134816 -0.0142793 3.64153e-19 0.0531419 4.15195e-19 0.091579)
(0.213653 -0.00934623 5.25111e-19 0.0795574 -1.23994e-17 0.143891)
(0.205417 0.00647182 -8.11236e-18 0.075652 2.3765e-19 0.139644)
(0.127013 0.0148869 2.77317e-18 0.0501229 1.34468e-17 0.0888486)
(0.0610366 0.0125356 9.4547e-18 0.0279461 -6.99456e-18 0.0449747)
(0.0422352 0.0121274 -4.76607e-18 0.0234281 -4.77806e-18 0.033415)
(0.0388303 0.0142859 -2.81371e-18 0.0271762 -4.67353e-18 0.03361)
(0.0366141 0.0163614 -1.06079e-17 0.0338157 4.42751e-18 0.0355328)
(0.0338804 0.0170288 -1.30208e-18 0.0412874 7.06801e-18 0.0372805)
(0.0317926 0.016456 -4.71525e-18 0.0491337 1.27883e-18 0.039308)
(0.0308329 0.0150846 2.89349e-18 0.056888 -9.09943e-18 0.0416543)
(0.0308468 0.0133041 -1.37741e-18 0.0639299 -3.144e-18 0.0439561)
(0.0314966 0.0114442 3.67577e-18 0.069765 9.57522e-18 0.0458498)
(0.0327006 0.00994203 -7.33857e-18 0.0745025 -1.3708e-18 0.0473952)
(0.0354422 0.00935777 -2.96955e-18 0.0809612 -9.54941e-18 0.0503145)
(0.0373082 0.00906486 -2.57343e-17 0.084232 7.42332e-19 0.0514699)
(0.0422293 0.0100962 -2.57171e-18 0.0933678 7.35428e-19 0.0564005)
(0.0436509 0.0108409 -9.70048e-20 0.0939418 -1.3355e-18 0.0563811)
(0.0193227 0.00511994 -2.4099e-18 0.0404018 9.40121e-19 0.0242092)
(0.0112687 0.000617541 3.49457e-19 0.0135215 -9.84779e-20 0.0117492)
(0.0401894 0.00214818 -1.24052e-17 0.0472756 4.22319e-18 0.04158)
(0.0470679 0.0143587 -1.29472e-17 0.0912848 1.92729e-18 0.0549402)
(0.057808 0.0175605 5.49764e-18 0.109744 -2.94787e-18 0.0657496)
(0.0542113 0.000640619 3.2453e-18 0.0560248 -3.65189e-19 0.0544216)
(0.0843017 0.00138455 -6.16876e-18 0.0877845 5.85843e-19 0.0845569)
(0.173917 0.00362357 -1.23071e-17 0.181401 -4.58999e-19 0.174203)
(0.301378 0.0089735 3.0722e-19 0.315992 1.33406e-18 0.301731)
(0.358133 0.0139776 1.27387e-20 0.375819 6.66502e-19 0.3588)
(0.311718 0.0146581 -1.04118e-20 0.326507 -1.41479e-22 0.312779)
(0.227511 0.0150893 3.22354e-19 0.240261 2.97756e-18 0.22897)
(0.139328 0.0114408 6.67394e-20 0.147828 -1.41377e-18 0.140713)
(0.0722288 0.00747359 7.52823e-19 0.0773104 -2.16305e-18 0.0733252)
(0.0326116 0.00433337 1.49211e-17 0.0353845 3.50613e-19 0.0333601)
(0.0132598 0.00232897 5.48228e-18 0.0146941 -3.47664e-18 0.0137203)
(0.00493626 0.00115881 -1.93457e-18 0.00563962 3.71297e-19 0.00519529)
(0.000811984 0.000263154 3.53158e-19 0.000971445 4.24767e-20 0.000876514)
(0.00464428 0.00213356 -4.10991e-18 0.00596163 -5.64525e-19 0.00524083)
(0.176378 0.120112 -1.7051e-16 0.261591 -2.37676e-17 0.210703)
(14.6908 4.03288 -1.01473e-14 17.079 -1.97318e-15 15.7945)
(0.19701 -0.0315306 -1.50197e-19 0.0825279 2.65173e-19 0.142428)
(0.173839 -0.0385086 -5.21016e-18 0.0820356 -8.73965e-18 0.131277)
(0.165566 -0.0479893 3.7716e-18 0.0921043 4.54565e-18 0.133265)
(0.154909 -0.055609 5.12824e-18 0.104741 7.26173e-18 0.135828)
(0.14198 -0.0603568 1.00911e-17 0.119161 1.44054e-17 0.138194)
(0.127118 -0.0615686 -3.18121e-17 0.135033 -4.5858e-17 0.140629)
(0.111657 -0.0585579 2.31343e-17 0.150974 3.51486e-17 0.143235)
(0.0972022 -0.0513266 3.04925e-17 0.165649 2.92547e-17 0.145776)
(0.0848995 -0.0401215 -1.67853e-18 0.178047 3.34593e-18 0.148387)
(0.0761333 -0.0259892 2.55554e-17 0.186735 3.61034e-17 0.150933)
(0.0715983 -0.0103886 -4.83832e-17 0.191157 -6.42181e-18 0.153161)
(0.0713698 0.00522501 7.36913e-17 0.191453 7.41399e-17 0.155201)
(0.0748822 0.0195601 3.5892e-17 0.1882 1.63928e-17 0.156957)
(0.0812797 0.0318864 1.56931e-17 0.182303 -1.45849e-17 0.158458)
(0.089905 0.0419791 5.40963e-17 0.176217 5.00891e-17 0.160357)
(0.100439 0.0503581 -1.35691e-16 0.172498 -1.31572e-16 0.163843)
(0.0966717 0.0496018 2.78882e-17 0.148292 4.32283e-17 0.145739)
(0.0598923 0.0308232 1.47397e-16 0.0842068 4.26347e-17 0.0846849)
(0.155464 0.0796443 1.12365e-16 0.204094 7.94087e-17 0.208275)
(0.029343 0.0149261 -6.32504e-18 0.0364801 -4.24092e-19 0.0374797)
(0.100487 0.0505847 2.46194e-17 0.118869 -5.44415e-17 0.122503)
(0.165136 0.0817309 7.85545e-18 0.185081 6.38011e-17 0.19183)
(0.739391 0.353892 6.71158e-16 0.765355 -1.56129e-16 0.809443)
(1.92781 0.823043 -1.31446e-15 1.62721 -5.29144e-16 1.90848)
(3.96014 0.286863 1.99799e-17 3.06482 3.33833e-17 3.66217)
(4.17705 -0.321026 -1.10928e-15 2.92499 3.11194e-16 3.7875)
(4.78105 -0.554247 8.09447e-17 4.10488 1.56117e-17 4.54642)
(37.1441 -2.38329 -1.22753e-16 35.649 -1.78253e-19 36.4647)
(36.1791 -1.58711 -1.37751e-15 35.7831 9.43082e-16 35.8882)
(25.8172 -1.08515 -1.46042e-15 25.7642 3.47247e-17 25.685)
(15.5763 -0.820736 3.00115e-15 15.6225 -8.40615e-16 15.5186)
(8.04897 -0.363269 1.67383e-15 8.09501 7.49181e-16 8.03501)
(2.8824 -0.093329 4.64047e-17 2.90324 3.9852e-16 2.89039)
(0.473373 -0.0314782 8.5525e-17 0.477194 -5.80786e-17 0.474589)
(0.0457787 -0.00744792 4.92586e-18 0.0481361 -2.83212e-18 0.0468613)
(0.00877926 -0.00356921 -9.46188e-19 0.0109485 -2.74711e-18 0.0099382)
(5.9912e-16 -1.62409e-16 -3.4916e-33 7.29454e-16 -1.00893e-31 6.71426e-16)
(0.673538 -0.189132 3.47219e-16 0.770404 -1.54653e-16 0.740923)
(51.0334 -3.06571 -1.66305e-13 52.8263 3.36958e-14 50.5933)
(0.220299 -0.0214043 -1.65524e-18 0.0844975 -2.80354e-18 0.154781)
(0.130353 -0.00490803 -4.21076e-19 0.0478163 2.22401e-18 0.090022)
(0.0279355 0.00088612 2.24883e-18 0.01023 1.65191e-18 0.0192298)
(0.0183351 0.00196571 -1.17365e-18 0.00701044 -1.69643e-19 0.0126967)
(0.00806684 0.00177315 4.2008e-20 0.00273196 1.10775e-19 0.00539372)
(0.00596013 0.00208748 4.34364e-19 0.00226989 1.04616e-18 0.00412153)
(0.00545116 0.00248732 3.54309e-19 0.00304127 2.95332e-19 0.00425972)
(0.00516069 0.00280875 2.41551e-18 0.00416026 8.28517e-19 0.00467405)
(0.0048372 0.0029829 9.01785e-19 0.00535462 -5.93706e-19 0.00512701)
(0.00456136 0.00301532 1.56485e-18 0.00666171 1.46979e-19 0.00569289)
(0.00435114 0.00289873 -3.0571e-18 0.00804966 -3.3313e-19 0.00637397)
(0.00419621 0.00262031 -1.99841e-18 0.00943981 2.62296e-18 0.00713586)
(0.00408018 0.00216921 5.43769e-18 0.0107275 -2.38277e-18 0.00793689)
(0.00403872 0.00156135 2.35292e-18 0.0118478 -2.24167e-20 0.00878936)
(0.00430471 0.000850624 -5.83306e-18 0.0131496 3.26733e-18 0.0100041)
(0.00455332 4.18943e-06 -3.51337e-18 0.0138439 5.37652e-18 0.010985)
(0.00546948 -0.00091334 1.61434e-17 0.0152742 -6.56781e-18 0.012845)
(0.00605624 -0.00177741 1.38975e-17 0.0153402 -2.77013e-18 0.0137434)
(0.000331029 -0.000357923 7.99666e-19 0.00154818 -1.25911e-19 0.00143703)
(0.000192655 -0.000158652 -1.10965e-19 0.00058146 2.16672e-19 0.000579052)
(0.0046471 -0.00293767 2.95173e-17 0.0100546 -1.83255e-18 0.0104932)
(0.00021102 -0.000136467 1.78519e-20 0.000394503 -7.7533e-20 0.000431296)
(0.00122468 -0.000742365 -1.13417e-20 0.00188626 -1.54875e-20 0.00217583)
(0.00242362 -0.00130801 -6.78838e-20 0.00295917 6.65628e-21 0.00371758)
(0.00478019 -0.0024496 2.5008e-19 0.00444309 -6.11103e-19 0.00662494)
(0.0056656 -0.00242309 3.05963e-17 0.00393099 -2.10317e-18 0.00706038)
(0.00629001 -0.00204373 -7.3674e-19 0.00365591 4.56089e-20 0.00720923)
(0.0119288 -0.00288687 -5.04187e-18 0.00683945 -2.95185e-19 0.0128841)
(0.0165135 -0.003526 -1.18718e-19 0.00976202 2.32159e-20 0.0171652)
(0.0195564 -0.00477716 -1.16472e-17 0.0111459 -3.29236e-19 0.0197753)
(0.0234526 -0.00690148 2.54364e-17 0.0129959 4.19507e-18 0.0230706)
(0.0270519 -0.0080911 -1.91195e-18 0.0165792 -2.84585e-20 0.0260636)
(0.0306595 -0.00971972 -8.05798e-17 0.01984 2.33648e-17 0.0290098)
(0.0336447 -0.0113575 -2.0863e-19 0.0224849 1.58934e-17 0.031274)
(0.0348554 -0.0122806 2.35797e-18 0.0239352 -2.13778e-17 0.031986)
(0.0382433 -0.0134682 -6.83328e-18 0.0262366 3.03857e-17 0.0344805)
(0.0259615 -0.00803629 1.0045e-17 0.0197052 -4.31278e-17 0.0236008)
(0.0819985 -0.0174327 5.00275e-16 0.0378627 8.52692e-17 0.0665823)
(4.1059 1.99509 2.68581e-14 4.48322 6.31855e-15 4.34378)
(0.157974 -0.0255995 -1.15179e-18 0.0669791 -1.21734e-18 0.111874)
(0.138817 -0.0301692 -1.54445e-18 0.065631 -2.99701e-18 0.101556)
(0.125315 -0.0349028 3.55421e-18 0.0686853 3.4237e-18 0.0960269)
(0.1141 -0.0386718 2.20485e-18 0.0741161 4.77873e-18 0.0927774)
(0.102734 -0.0405919 4.22361e-19 0.0799166 1.51412e-19 0.0896057)
(0.0920197 -0.0410309 2.17112e-20 0.0865866 1.20203e-18 0.0870771)
(0.0824009 -0.0399933 3.19279e-17 0.0936007 3.17243e-17 0.085174)
(0.0740102 -0.0375984 -3.137e-17 0.100374 -3.61599e-17 0.0836665)
(0.0670609 -0.0341314 5.28801e-18 0.107025 1.43008e-18 0.0826484)
(0.0617733 -0.0299407 4.40496e-17 0.113379 3.24157e-17 0.0821981)
(0.0580977 -0.0252435 4.00432e-17 0.119463 3.75716e-17 0.0822341)
(0.0559545 -0.0202334 4.61837e-17 0.125312 1.61867e-17 0.0827325)
(0.0552658 -0.0150762 -5.58236e-17 0.130962 -4.08412e-17 0.0836348)
(0.0558644 -0.00985911 -4.27496e-17 0.13633 -3.77566e-17 0.0848048)
(0.0575385 -0.0046998 4.01123e-18 0.141087 -1.35151e-17 0.0859532)
(0.0600763 0.000261554 -1.23144e-16 0.145073 4.27299e-18 0.0869597)
(0.0636644 0.00501588 -4.16369e-17 0.148876 -4.8425e-17 0.0880822)
(0.0691863 0.0105672 -2.8567e-16 0.15446 -2.12189e-16 0.0907306)
(0.0721604 0.0169388 3.31562e-17 0.150844 -4.69511e-17 0.0890383)
(0.0701818 0.0229937 1.70208e-17 0.133129 -3.8233e-17 0.0810719)
(0.0342057 0.0140668 -9.05752e-17 0.0564773 -2.20849e-20 0.0369597)
(0.0388526 0.0178254 1.53703e-17 0.0545533 3.00207e-18 0.0398361)
(0.148783 0.0703118 -2.53255e-16 0.178315 -4.85486e-17 0.147644)
(0.378282 0.174759 -1.94604e-16 0.394228 1.97996e-16 0.364687)
(0.116316 0.0508921 1.39458e-17 0.106675 9.08295e-19 0.107716)
(4.88358e-05 1.52342e-10 1.7465e-25 4.88358e-05 8.53001e-26 4.88358e-05)
(0.966189 9.04342e-08 -1.30893e-23 0.966189 6.49693e-24 0.966189)
(3.51213e-05 -9.84352e-13 9.9034e-28 3.51213e-05 6.15733e-29 3.51213e-05)
(8.0461e-05 -3.46854e-11 7.41599e-26 8.0461e-05 -2.83773e-27 8.0461e-05)
(0.000243298 -6.71333e-10 -7.93582e-26 0.000243298 5.97713e-25 0.000243298)
(0.00193544 -7.28977e-08 -1.1256e-22 0.00193542 -9.48082e-23 0.00193543)
(0.0579492 -0.000119497 3.24213e-19 0.0579395 -2.95709e-19 0.057945)
(0.558203 -0.0373343 1.00783e-16 0.559335 -7.17576e-18 0.559547)
(0.474737 -0.0280847 -2.97341e-17 0.472751 -1.99236e-16 0.473828)
(0.162731 -0.0253781 -4.99945e-17 0.169713 -2.14326e-17 0.165726)
(0.0403476 -0.0125205 2.95912e-18 0.0469959 1.87099e-17 0.0438467)
(0.000716056 -0.000182797 -5.20566e-19 0.000840058 9.28311e-20 0.000786472)
(0.54065 -0.119474 -3.90181e-16 0.599671 5.8211e-17 0.56202)
(40.3433 -3.34525 9.96324e-14 37.9725 -2.16229e-14 36.2208)
(0.0535459 -0.00556025 -1.25477e-19 0.02078 3.81841e-19 0.0371082)
(0.0222117 -0.00108741 1.58365e-19 0.0075096 1.40527e-18 0.0148572)
(0.00913815 0.000298585 4.75677e-19 9.77894e-05 5.92805e-19 0.00464707)
(0.0119754 0.00146378 1.16258e-18 0.00234967 -6.43264e-19 0.00716919)
(0.00471019 0.00215326 -1.90001e-18 -0.0024959 -1.0117e-18 0.00110009)
(0.00199872 0.00166592 -2.7681e-19 -0.00130818 -6.9686e-19 0.000345295)
(0.0126049 0.0049786 -3.46922e-18 0.00689322 -1.4073e-18 0.00977324)
(0.0112413 0.00558284 -3.51627e-18 0.00831481 2.35988e-19 0.00980925)
(0.0098007 0.00580875 -1.2379e-19 0.00982299 -1.00098e-18 0.00983897)
(0.00853315 0.00570885 2.34058e-18 0.0114615 -1.44021e-18 0.0100072)
(0.00741408 0.00529996 1.39198e-18 0.0129989 3.13585e-18 0.0101725)
(0.00655969 0.00468416 5.80191e-18 0.0144176 -2.42409e-18 0.0103771)
(0.00591785 0.00394048 -5.57154e-18 0.0155898 -2.35857e-18 0.0105324)
(0.00549593 0.00316837 3.92332e-19 0.0165467 1.17096e-18 0.0106578)
(0.00527901 0.00245152 8.32105e-18 0.0173405 -2.32712e-18 0.0107677)
(0.00521412 0.00182349 1.58732e-17 0.0180339 -2.39839e-18 0.0108826)
(0.00522535 0.00129725 -1.41014e-17 0.0186202 2.7818e-19 0.0109656)
(0.00527655 0.000868874 -2.22588e-18 0.0191459 -2.98579e-18 0.0110268)
(0.00548243 0.000501555 -9.87815e-19 0.0198973 6.5747e-19 0.0112607)
(0.00542509 0.000119312 2.98472e-17 0.0202054 -8.01482e-18 0.0111648)
(0.00539719 -0.00031744 3.5174e-18 0.0204826 -3.14635e-18 0.011076)
(0.00550927 -0.000858819 -3.49299e-17 0.0208827 6.62589e-18 0.011119)
(0.00584094 -0.00161134 -6.12416e-19 0.0214653 1.54985e-18 0.0113701)
(7.20305e-05 -3.98122e-05 -3.1686e-21 0.000309695 -4.46115e-21 0.000152892)
(0.000308621 -0.000150282 -1.12847e-20 0.000953286 8.15587e-22 0.000510613)
(0.000735172 -0.000294954 -3.10177e-18 0.00179555 5.95374e-19 0.00101987)
(0.00122738 -0.00040493 5.24566e-20 0.00254642 -1.08099e-20 0.00151488)
(0.00166457 -0.000454878 1.19033e-18 0.00304714 -1.40183e-19 0.00189644)
(0.00210927 -0.000476169 -7.75655e-20 0.00347534 -4.12465e-22 0.00226702)
(0.00248437 -0.000469354 -3.20228e-20 0.00372076 -6.27792e-19 0.00255496)
(0.00303094 -0.000503166 -5.08564e-18 0.00419705 6.63021e-19 0.00301719)
(0.0037757 -0.000595548 -6.81307e-20 0.00489827 -3.28317e-21 0.00366684)
(0.00485967 -0.000811318 4.39197e-19 0.00592122 -9.92119e-19 0.00461558)
(0.00702083 -0.00140143 3.02613e-17 0.0079655 7.07456e-18 0.00650675)
(0.0100041 -0.0025425 -6.93329e-19 0.0104354 -8.56988e-20 0.00905225)
(0.0126729 -0.00448872 -8.06017e-17 0.0115607 -9.90731e-19 0.0109015)
(0.0306404 -0.0138133 6.86171e-16 0.0237516 9.3844e-17 0.0252216)
(0.0169591 -0.00678378 -5.97674e-19 0.0106417 -1.13207e-18 0.0133564)
(1.10697 0.33313 7.38737e-16 0.636945 -4.10864e-15 0.888461)
(0.0163222 -0.00391337 -1.84515e-19 0.00223998 -1.27558e-19 0.00932921)
(0.0285321 -0.00685152 -6.07083e-19 0.0116509 -8.73191e-19 0.0202086)
(0.0206454 -0.00714858 1.77997e-18 0.00876767 2.2551e-18 0.0148275)
(0.0154933 -0.00755539 -6.75858e-18 0.00742468 -7.15713e-18 0.011601)
(0.0110696 -0.00776655 1.61019e-18 0.00651167 1.17448e-18 0.00896819)
(0.00746611 -0.00786643 3.39105e-18 0.00633125 3.34728e-18 0.00711439)
(0.00451859 -0.00773219 -3.26756e-18 0.00676694 -3.86536e-18 0.00591683)
(0.00188731 -0.00729403 -9.90644e-19 0.00741009 -3.58848e-20 0.00499947)
(-9.49424e-05 -0.0065647 -1.31656e-17 0.00854374 -1.12969e-17 0.00466958)
(-0.00130051 -0.00554728 -3.0337e-18 0.010174 -4.85358e-18 0.00501189)
(-0.00194184 -0.00423962 3.16307e-19 0.0119692 -1.10851e-18 0.00575109)
(-0.00206071 -0.00266701 -9.29436e-18 0.0137704 -9.99444e-18 0.00679638)
(-0.00162684 -0.000870121 4.91054e-18 0.0155008 5.1226e-18 0.00813322)
(-0.00060236 0.00110773 -2.13074e-17 0.0171051 -1.06048e-17 0.00976165)
(0.001099 0.00321281 4.4335e-18 0.0185936 2.46374e-18 0.0117384)
(0.00350863 0.0053728 2.65932e-17 0.0199392 2.03922e-17 0.0140609)
(0.00660075 0.0075104 -3.92831e-17 0.021035 -1.10758e-17 0.0166545)
(0.0108869 0.00961309 -8.09021e-18 0.0229004 3.53095e-17 0.0202041)
(0.017859 0.0122475 -3.32473e-18 0.0274711 -5.49429e-18 0.0265559)
(0.0239821 0.0144829 -4.89352e-17 0.0300095 -7.40806e-18 0.031252)
(0.0313133 0.0168009 6.19265e-17 0.0327525 3.66142e-17 0.0366298)
(0.033358 0.0166499 2.15997e-18 0.0296474 -3.17897e-18 0.0357542)
(0.0166763 0.0105687 3.59382e-17 0.0113669 9.76625e-18 0.0164948)
(0.0012467 0.00153302 4.18019e-18 0.000135195 1.31089e-18 0.00100296)
(0.0266109 0.00956917 -2.71488e-18 0.0179872 -2.5048e-19 0.0238871)
(1.02885e-05 4.67345e-11 1.53107e-27 1.02885e-05 -5.86519e-27 1.02885e-05)
(6.66667e-16 7.04095e-27 2.57803e-42 6.66667e-16 -6.28069e-43 6.66667e-16)
(7.6317e-06 1.71643e-16 -3.01439e-32 7.6317e-06 -4.41129e-32 7.6317e-06)
(1.77268e-05 8.19256e-16 -2.83622e-30 1.77268e-05 -1.91161e-31 1.77268e-05)
(5.42915e-05 3.1542e-15 2.77375e-30 5.42915e-05 1.24709e-31 5.42915e-05)
(0.000437018 -1.58302e-13 -1.69896e-28 0.000437018 1.49366e-28 0.000437018)
(0.0132307 -1.53227e-10 -9.56269e-25 0.0132307 -6.84508e-25 0.0132307)
(0.000142574 -6.38119e-08 -2.4108e-23 0.000142567 -8.71135e-23 0.000142572)
(3.61123e-06 -2.36974e-12 -3.28872e-26 3.61123e-06 2.02937e-27 3.61123e-06)
(0.0786147 -0.0143458 1.14937e-17 0.0798232 4.09607e-17 0.0785678)
(0.0783974 -0.0235884 8.03485e-20 0.0875998 -1.46705e-20 0.0832207)
(0.00146649 -0.000305988 1.98343e-19 0.00163797 1.76092e-18 0.00156756)
(0.390255 -0.0754602 5.81405e-18 0.412126 2.44467e-17 0.390392)
(27.148 -3.5468 -6.18301e-14 25.5395 6.83525e-15 23.7015)
(0.0123967 -0.00245611 4.37356e-19 -0.002014 -1.01298e-19 0.00524536)
(0.0164213 -0.00124357 -1.4002e-18 0.000484882 -1.41263e-18 0.00848597)
(0.0325829 0.000541702 -2.1824e-18 0.00981993 2.86967e-18 0.0212625)
(0.0852607 0.00720234 1.47594e-17 0.0324183 -2.17652e-21 0.0587911)
(0.10594 0.0167259 -3.90221e-18 0.0445208 -2.44093e-17 0.0751123)
(0.0996962 0.0232816 -1.45068e-17 0.0487464 1.88202e-17 0.0741676)
(0.0917471 0.0284997 2.81708e-17 0.0545592 1.61308e-17 0.0731836)
(0.083292 0.0319929 -1.59194e-17 0.0617949 -1.65266e-17 0.0725933)
(0.0741135 0.0331904 -2.4754e-17 0.0689689 -5.96539e-18 0.0716111)
(0.0660913 0.0328052 -2.10678e-17 0.0766799 9.26958e-18 0.0715198)
(0.0590478 0.0308844 3.26553e-17 0.0839616 -4.76358e-18 0.0717363)
(0.0532077 0.0278207 -2.82557e-17 0.0904356 -5.31142e-18 0.0722006)
(0.0481606 0.0237967 -2.76224e-17 0.0950814 1.69442e-17 0.0722296)
(0.0441516 0.0193654 3.01518e-17 0.0982815 5.29886e-18 0.0721651)
(0.0411436 0.0149044 -6.47714e-17 0.100263 1.58287e-17 0.0721164)
(0.0389627 0.0105843 -2.74037e-18 0.10129 -2.86079e-17 0.0721656)
(0.0373832 0.00647265 1.20391e-17 0.101372 1.51862e-17 0.0721988)
(0.0362956 0.0025847 -1.00954e-16 0.100692 1.29776e-17 0.0721982)
(0.0356474 -0.00111149 4.35558e-17 0.0994348 -4.66755e-18 0.0721212)
(0.0353958 -0.00474456 -2.00528e-16 0.0976016 2.78466e-17 0.0718986)
(0.0356025 -0.00841644 -1.17721e-17 0.0952216 3.54949e-18 0.0715172)
(0.0364257 -0.0122787 1.8857e-16 0.0921958 -1.22561e-17 0.0710572)
(0.0380964 -0.0163376 1.78209e-16 0.0883625 -2.65015e-17 0.0704228)
(0.040894 -0.0204499 -1.72794e-16 0.083214 1.52432e-17 0.0697773)
(0.045851 -0.022444 -1.5985e-18 0.0758639 4.6601e-20 0.0689107)
(0.0511999 -0.0215408 -1.5988e-16 0.0683119 -4.16303e-18 0.0676429)
(0.0551317 -0.0197463 8.49543e-19 0.061966 6.01972e-20 0.0663596)
(0.0577289 -0.017684 5.3331e-20 0.0567112 2.79098e-18 0.0649887)
(0.0592708 -0.0155967 9.21332e-19 0.0522193 -1.31961e-19 0.063406)
(0.0599567 -0.0136115 5.06273e-17 0.0485781 6.05955e-18 0.0615895)
(0.059423 -0.0116576 -2.18959e-19 0.0453809 -1.29591e-17 0.0591739)
(0.0574194 -0.00965325 -4.82104e-18 0.042031 -7.26562e-19 0.0558776)
(0.054264 -0.00765075 -2.65359e-16 0.0385083 -5.2297e-17 0.0518533)
(0.0528526 -0.00616134 -2.30518e-16 0.0366353 -1.31711e-17 0.0497156)
(0.0481347 -0.00462287 -2.8231e-19 0.0328533 4.15417e-19 0.0448024)
(0.0374727 -0.00358728 -2.65026e-16 0.0247113 -9.0817e-17 0.0340023)
(0.0420864 -0.00409099 -2.06341e-17 0.0267538 1.51183e-16 0.0373692)
(0.0103986 -0.00171352 7.84071e-19 0.00441521 1.26948e-19 0.00811844)
(0.380252 0.0586332 -5.48361e-15 0.156713 -8.09723e-17 0.294664)
(0.0132184 -0.00550849 9.11937e-19 -0.00639042 6.5484e-19 0.00341527)
(0.013686 -0.00715993 -6.1682e-19 -0.00397225 -3.95223e-19 0.00487196)
(0.0122973 -0.00883463 -7.32962e-20 -0.00258418 -1.10739e-19 0.00485171)
(0.0103919 -0.0102364 2.09719e-19 -0.000911503 -4.17395e-19 0.00470768)
(0.00856551 -0.0113046 7.77981e-18 0.00135207 7.36151e-18 0.00490587)
(0.00659563 -0.0119507 -5.33702e-18 0.00404588 -5.00815e-18 0.00522466)
(0.00446608 -0.0120919 -1.37137e-19 0.00682338 2.27727e-19 0.00550172)
(0.00239544 -0.0117433 1.88848e-17 0.00963552 1.59724e-17 0.00581659)
(0.000467967 -0.0109237 -2.65975e-18 0.0124039 6.39607e-19 0.00616138)
(-0.0012092 -0.0096861 -2.30998e-17 0.0150023 -1.50425e-17 0.00653474)
(-0.00254911 -0.00809647 7.59989e-18 0.0173881 5.80156e-18 0.00694588)
(-0.00353517 -0.00621956 -2.09631e-17 0.0194886 -7.509e-18 0.00736168)
(-0.00413571 -0.00413513 -8.96944e-18 0.0212734 -3.60986e-18 0.00778146)
(-0.00432619 -0.00190749 -1.54381e-17 0.0227615 6.91084e-18 0.0082133)
(-0.00410559 0.000405116 1.33877e-18 0.0239633 7.38762e-19 0.00865212)
(-0.00347867 0.00275099 1.49473e-17 0.0249067 3.37482e-18 0.00909443)
(-0.00245624 0.00508879 2.45957e-17 0.025603 3.22061e-17 0.00951535)
(-0.000941833 0.00742799 1.03007e-16 0.0261544 2.77515e-17 0.0100391)
(0.00126063 0.00995631 -4.71482e-17 0.0265374 -2.14635e-18 0.0108649)
(0.00360112 0.0126266 5.17693e-17 0.0257487 2.2023e-17 0.0112651)
(0.00696258 0.0153928 9.25067e-18 0.0243872 -2.62115e-17 0.0120013)
(0.0010887 0.00146551 -9.05492e-19 0.00197745 1.64797e-18 0.00122279)
(0.00656802 0.00598281 -2.49277e-17 0.00731593 -1.35829e-17 0.00582063)
(0.00701794 0.00471275 7.24432e-19 0.00540727 -9.52089e-19 0.00540506)
(0.0100282 0.0055666 2.11373e-18 0.00549388 -4.2685e-19 0.00682265)
(4.68922e-06 1.08737e-11 3.00091e-26 4.6892e-06 -8.34409e-27 4.68921e-06)
(6.66667e-16 6.24599e-27 -6.9446e-42 6.66667e-16 -2.40782e-42 6.66667e-16)
(6.66667e-16 6.44738e-27 -6.83681e-42 6.66667e-16 -3.71808e-43 6.66667e-16)
(6.66667e-16 1.16139e-26 6.10305e-41 6.66667e-16 2.53874e-41 6.66667e-16)
(6.66667e-16 2.81439e-26 -2.1099e-41 6.66667e-16 -8.88386e-41 6.66667e-16)
(6.66667e-16 7.74848e-26 -7.67239e-40 6.66667e-16 2.78609e-40 6.66667e-16)
(6.66667e-16 1.41205e-25 -4.25212e-39 6.66667e-16 3.83825e-39 6.66667e-16)
(3.2696e-05 -7.34876e-14 1.53702e-29 3.2696e-05 -3.10098e-28 3.2696e-05)
(8.37631e-07 -1.63604e-14 1.43979e-29 8.37631e-07 1.09665e-28 8.37631e-07)
(6.24849e-08 -4.05802e-15 2.73827e-29 6.24849e-08 -9.00423e-30 6.24849e-08)
(3.44927e-07 -2.70304e-13 -4.09096e-29 3.44927e-07 -7.00234e-28 3.44927e-07)
(6.78677e-09 -8.2859e-14 1.06782e-27 6.7868e-09 -3.77144e-28 6.78679e-09)
(0.00291894 -1.19516e-07 -5.13732e-23 0.00291895 1.10943e-23 0.00291893)
(0.178 -7.0821e-05 3.07706e-19 0.17802 -7.92523e-20 0.177996)
(0.000814374 -0.000236823 -4.47985e-20 -0.000531304 -2.23417e-20 0.000143636)
(0.0770013 -0.00423338 5.50509e-18 0.0275294 1.17832e-18 0.0523055)
(0.141825 0.00120339 -4.58187e-18 0.0517257 -6.35006e-18 0.0969565)
(0.149322 0.011293 -1.94188e-17 0.0563623 3.39886e-18 0.102744)