/*--------------------------------*- C++ -*----------------------------------*\
| =========                 |                                                 |
| \\      /  F ield         | OpenFOAM: The Open Source CFD Toolbox           |
|  \\    /   O peration     | Version:  2312                                  |
|   \\  /    A nd           | Website:  www.openfoam.com                      |
|    \\/     M anipulation  |                                                 |
\*---------------------------------------------------------------------------*/
FoamFile
{
    version     2.0;
    format      ascii;
    arch        "LSB;label=32;scalar=64";
    class       volScalarField;
    location    "50";
    object      turbulenceProperties:L;
}
// * * * * * * * * * * * * * * * * * * * * * * * * * * * * * * * * * * * * * //

dimensions      [0 1 0 0 0 0 0];

internalField   nonuniform List<scalar> 
10720
(
0.00328386
0.00305171
0.00403396
0.00482767
0.00600556
0.00743967
0.00909097
0.0109076
0.0127041
0.0144651
0.016318
0.0185103
0.0212717
0.0254248
0.0307386
0.0360432
0.0380374
0.0360374
0.0271379
0.0237653
0.0252219
0.0298466
0.0368783
0.0418287
0.0527594
0.0616467
0.202092
0.215974
0.0663407
0.0311074
0.0110834
0.00418796
0.00176648
0.000248071
8.53192e-11
1.09613e-10
1.71404e-10
0.0171278
0.301232
0.0112745
0.0336864
0.0743489
0.0180078
0.0561526
0.0414777
0.0337418
0.0296904
0.0278923
0.027016
0.0261739
0.0253625
0.0248588
0.0246221
0.0232583
0.0197857
0.0145695
0.00906849
0.00809845
0.00878434
0.010162
0.012063
0.0143102
0.0164698
0.0182039
0.0185627
0.0168938
0.0127948
0.00836344
0.00481485
0.00242308
0.000857376
0.000366678
0.000244927
0.000103297
0.000392178
5.54702e-05
0.00662835
0.0642661
0.0176115
0.0167367
0.0219791
0.0293864
0.0410006
0.0570314
0.0753297
0.0948404
0.113739
0.131113
0.146347
0.157692
0.159529
0.228776
0.263081
0.283589
0.378014
0.596288
0.709555
0.307429
0.161076
0.123724
0.111489
0.0927121
0.07936
0.0500377
0.083004
0.0794468
0.0705651
0.118593
0.100949
0.0392572
0.0177598
0.00217947
0.000251622
2.46752e-10
3.27081e-10
0.0244611
0.295916
0.0890764
0.717819
0.853948
0.0874307
0.120007
0.123834
0.128374
0.137317
0.145141
0.152846
0.162797
0.17522
0.190838
0.211243
0.246018
0.301079
0.448234
0.932471
67.0204
0.00364055
0.00665139
0.500782
0.117112
0.00171911
0.00273989
0.00434657
0.00707449
0.00858047
0.00786985
0.00750422
0.00570712
0.00407923
0.00277552
0.00184692
0.0011985
0.000529299
0.00141794
0.0102149
0.079098
0.223699
0.195906
0.200915
0.205284
0.207962
0.20912
0.208476
0.206743
0.204404
0.201695
0.19874
0.195792
0.192949
0.190304
0.188237
0.187298
0.174142
0.131165
0.196942
0.0918493
0.596508
0.0938342
0.145401
0.163531
0.157331
0.135148
0.0508237
0.0555939
0.0375317
0.0349838
0.0426391
0.0423206
0.0188398
0.00575675
0.00164437
0.000850769
3.07128e-10
0.0192856
0.428607
0.195337
0.190041
0.0812252
0.0588736
0.0389957
0.0348459
0.0359558
0.0378836
0.0394118
0.040841
0.0422133
0.0434624
0.04448
0.0453189
0.0467612
0.0472881
0.0493827
0.0492694
0.0147349
0.00914026
0.0381958
0.00748154
0.0162553
0.0204082
0.0293565
0.0308691
0.0297456
0.0354802
0.0368619
0.0399085
0.0425852
0.0368964
0.0338801
0.0321877
0.0312856
0.0333149
0.0329317
0.153879
0.379766
0.184403
0.176038
0.172556
0.169987
0.167893
0.166208
0.164936
0.164031
0.163514
0.163356
0.163485
0.163869
0.164474
0.165148
0.165587
0.16559
0.16546
0.166405
0.162686
0.151576
0.106911
0.154276
3.93023
2.11332
8.08656
6.71452e-09
4.26568e-08
3.96719e-10
1.52049e-09
9.91154e-09
3.08049e-07
8.95755e-05
0.0122378
0.0129165
0.00686195
0.0040241
0.00071464
0.0253224
0.622545
0.102809
0.0702397
0.0392063
0.0486892
0.019126
0.0106531
0.0564546
0.056323
0.0561515
0.0563454
0.0565032
0.0567386
0.0567911
0.0567084
0.0565411
0.0563106
0.0559121
0.0553581
0.0550885
0.0539156
0.0528874
0.0522422
0.0520345
0.00599748
0.0106867
0.0147643
0.0175829
0.0191668
0.0203623
0.0210021
0.0223206
0.0241373
0.0265578
0.0309307
0.0357183
0.0386593
0.0617984
0.0607583
2.00676
0.0557881
0.0820554
0.0700393
0.0616446
0.0539152
0.047582
0.0429196
0.0388982
0.0370139
0.037803
0.0399773
0.0429175
0.0463518
0.0500957
0.0541396
0.0583196
0.0623757
0.0676774
0.076601
0.0816304
0.0865834
0.0851796
0.0611149
0.0192779
0.731965
6.30528e-09
1.20623e-19
2.99384e-14
1.26902e-13
7.70669e-13
9.77762e-12
5.45422e-10
1.49508e-06
4.00713e-10
0.0123934
0.0130834
0.00145578
0.0254438
0.476904
0.0413704
0.0526201
0.0826533
0.13881
0.15676
0.155088
0.153093
0.151346
0.149074
0.147604
0.146311
0.145108
0.143283
0.14116
0.138838
0.136357
0.133599
0.130561
0.127267
0.124249
0.121609
0.11922
0.116969
0.114821
0.112732
0.11058
0.108513
0.106654
0.105051
0.103569
0.10187
0.0996447
0.0969474
0.0963794
0.0931284
0.0832499
0.0903834
0.0437758
3.72859
0.0341182
0.0406265
0.040254
0.0394701
0.04006
0.041208
0.0421926
0.0432843
0.0444504
0.0456458
0.0469106
0.0481273
0.0492834
0.0504134
0.0514989
0.052527
0.0534639
0.0545608
0.0560132
0.0561236
0.0565116
0.0172824
0.0362793
0.0348356
0.0445604
4.49185e-09
2.65879e-19
2.736e-19
4.61442e-19
1.11315e-18
3.44931e-18
1.38735e-17
1.52573e-11
9.39269e-12
6.17663e-12
1.15276e-10
2.55335e-10
5.72287e-07
3.10309e-05
0.00695334
0.130205
0.178475
0.183451
0.182439
0.18204
0.180874
0.179981
0.178307
0.177005
0.176084
0.174335
0.172211
0.170018
0.167671
0.165135
0.1623
0.159194
0.155916
0.153141
0.150841
0.1488
0.146815
0.144833
0.142666
0.140332
0.138191
0.136216
0.134281
0.133215
0.132883
0.131588
0.129291
0.126815
0.123741
0.117119
0.112722
0.0807305
0.13247
0.0865131
0.0884562
0.0921511
0.095783
0.100646
0.105683
0.109934
0.113355
0.115974
0.117825
0.119013
0.119622
0.119727
0.119372
0.118589
0.117396
0.115828
0.113799
0.10998
0.104383
0.0988064
0.0896057
0.0817841
0.0747565
0.0854406
1.51327e-08
2.44544e-14
3.65585e-19
4.19779e-19
7.38886e-19
1.73485e-18
4.87449e-18
1.36692e-17
3.45338e-17
2.5821e-13
1.90371e-12
4.09126e-15
2.34374e-15
7.58737e-08
0.15923
0.18588
0.168626
0.133006
0.123113
0.124479
0.125179
0.125809
0.125907
0.125783
0.126478
0.126213
0.125595
0.125298
0.124749
0.123982
0.122814
0.121576
0.120271
0.118682
0.118181
0.118176
0.117711
0.11708
0.116091
0.114921
0.113896
0.112926
0.112134
0.11174
0.112087
0.112989
0.114153
0.115608
0.117158
0.117498
0.120291
0.107766
0.0163185
0.177237
0.171118
0.170089
0.170024
0.171995
0.173719
0.174857
0.175471
0.175652
0.175445
0.174913
0.174112
0.173066
0.171744
0.170106
0.168127
0.165816
0.163
0.159973
0.155291
0.147016
0.137098
0.127941
0.116162
0.116408
5.94612e-08
1.08957e-13
5.64122e-19
4.68381e-19
6.23273e-19
1.15207e-18
2.54639e-18
5.52502e-18
1.00853e-17
1.56768e-17
3.25227e-17
8.79687e-17
1.99963e-16
7.65909e-16
0.184489
0.139499
0.0729156
0.0546296
0.045597
0.0469867
0.0477458
0.0481085
0.0483154
0.0485461
0.0492233
0.0140896
0.023007
0.02883
0.0332171
0.0367551
0.0397614
0.0421985
0.0446205
0.0468909
0.0487826
0.0505807
0.0521696
0.0533893
0.0543768
0.0552614
0.0561608
0.0571164
0.0582153
0.0594672
0.0615568
0.0652503
0.0701608
0.0760374
0.0827812
0.0892415
0.0981744
0.110779
0.0154337
0.167856
0.159681
0.155762
0.152472
0.149766
0.14745
0.145588
0.144092
0.142976
0.142148
0.14151
0.141046
0.140693
0.140367
0.139999
0.139526
0.138901
0.138155
0.137922
0.138002
0.137507
0.136343
0.13471
0.12778
0.129594
2.08821e-07
4.15334e-13
9.58266e-19
5.97542e-19
6.17483e-19
9.17229e-19
1.66662e-18
3.05445e-18
4.96878e-18
7.17002e-18
1.21769e-17
2.6272e-17
5.27711e-17
1.47561e-16
0.103881
0.0619064
0.0265766
0.018257
0.0189571
0.0188775
0.0186832
0.0183083
0.0179228
0.0176033
0.0172156
0.0178476
0.0191455
0.0202881
0.0213017
0.0222303
0.0230903
0.023916
0.0248291
0.0257661
0.0266268
0.0274869
0.0282715
0.0289102
0.0294699
0.0299978
0.0305422
0.0311243
0.0317808
0.0325012
0.0335409
0.0350327
0.0378229
0.0398259
0.00420062
0.0339534
0.0503294
0.0868339
0.0120405
0.0682098
0.0797591
0.0689913
0.0607629
0.0537526
0.0479433
0.0437347
0.0413346
0.0407632
0.0413466
0.0427067
0.0448813
0.047664
0.0509487
0.0547116
0.0587288
0.0628427
0.0667292
0.0705791
0.0789888
0.0896949
0.0995827
0.108741
0.111826
0.125205
6.79502e-07
1.44554e-12
1.74584e-18
8.42844e-19
6.92039e-19
8.38569e-19
1.27862e-18
2.04544e-18
3.05633e-18
4.19888e-18
6.33069e-18
1.18767e-17
2.15375e-17
4.32841e-17
0.0440116
0.0254142
0.0454456
0.0511398
0.0523682
0.0513199
0.0504501
0.0495765
0.0486408
0.0477591
0.0468024
0.0461623
0.0456979
0.0451426
0.0444389
0.0436068
0.0427046
0.041893
0.0411391
0.0404283
0.0397544
0.0390841
0.0383547
0.0376208
0.0369751
0.0363974
0.035899
0.0354755
0.0351479
0.0348664
0.0344087
0.0325515
0.0346993
0.0292401
0.0108783
0.00973594
0.043998
0.0599391
0.0231578
0.0242479
0.0290502
0.0281182
0.0269609
0.0266892
0.0267131
0.0266332
0.0269766
0.0276026
0.0282785
0.0290931
0.0300114
0.0310188
0.0321579
0.0334181
0.0347807
0.0362146
0.0375921
0.0397375
0.0419712
0.0456392
0.0392595
0.0624804
0.0748184
0.10386
2.03634e-06
4.59529e-12
3.36637e-18
1.29129e-18
8.58506e-19
8.60138e-19
1.11418e-18
1.57791e-18
2.18799e-18
2.89756e-18
4.07121e-18
6.93951e-18
1.16012e-17
1.89142e-17
0.045114
0.0745008
0.118131
0.131699
0.132006
0.13136
0.13077
0.130148
0.129384
0.128454
0.127214
0.125928
0.124533
0.122918
0.121113
0.119253
0.117678
0.116303
0.115059
0.113885
0.112726
0.111465
0.110065
0.10866
0.107364
0.106192
0.105178
0.10428
0.103557
0.102961
0.102573
0.101469
0.0993747
0.0961657
0.0916805
0.0861952
0.0775408
0.0775421
0.0471672
0.0578817
0.0142229
0.0321156
0.0427062
0.0497357
0.0548842
0.0584539
0.061073
0.0630853
0.0645161
0.065461
0.0660129
0.0662061
0.0661004
0.0657428
0.0651781
0.0644763
0.0636461
0.0655181
0.0605626
0.0499505
0.0463688
0.0507222
0.0529774
0.0845248
6.3417e-06
1.50702e-11
6.81764e-18
2.12098e-18
1.16145e-18
9.74989e-19
1.08373e-18
1.36871e-18
1.76671e-18
2.22949e-18
2.98885e-18
4.72913e-18
7.37164e-18
1.05129e-17
0.107037
0.141969
0.143224
0.138191
0.138813
0.138654
0.13837
0.137979
0.137454
0.136774
0.135726
0.134642
0.133494
0.13211
0.130695
0.129479
0.128399
0.127403
0.126442
0.125464
0.124407
0.123231
0.121999
0.120823
0.119765
0.118812
0.117964
0.117185
0.11655
0.116009
0.115767
0.115599
0.115043
0.114145
0.112378
0.110322
0.104157
0.0967465
0.0832609
0.125032
0.12321
0.126276
0.129466
0.131556
0.133027
0.134094
0.134831
0.135257
0.135334
0.135102
0.134619
0.133871
0.132898
0.131691
0.130309
0.128994
0.127644
0.125985
0.123469
0.118367
0.113271
0.103714
0.0878019
0.0939674
2.58866e-05
6.43295e-11
1.44365e-17
3.70339e-18
1.69534e-18
1.20769e-18
1.16312e-18
1.317e-18
1.58281e-18
1.91511e-18
2.44055e-18
3.57833e-18
5.19742e-18
6.79473e-18
0.14815
0.128325
0.0891739
0.072262
0.0728812
0.0739222
0.07436
0.0745336
0.0747189
0.0749167
0.0751214
0.0751788
0.0752173
0.0753267
0.0754946
0.0756739
0.0758285
0.0759372
0.0759728
0.0759033
0.0757302
0.0755041
0.0752652
0.0750681
0.0749486
0.0748736
0.0748428
0.0748459
0.0749336
0.0751002
0.0754863
0.0771288
0.0798897
0.0837217
0.0878098
0.0913607
0.0942059
0.0955501
0.0876182
0.141756
0.135108
0.133699
0.133385
0.132617
0.131815
0.13138
0.131015
0.130647
0.130273
0.129894
0.129546
0.129141
0.128869
0.128751
0.128706
0.128753
0.128749
0.12874
0.129403
0.129205
0.127749
0.124345
0.114046
0.111129
0.000110114
1.07301e-12
2.24196e-14
6.83558e-18
2.64931e-18
1.6203e-18
1.36489e-18
1.39236e-18
1.55808e-18
1.80805e-18
2.18927e-18
2.96442e-18
4.70093e-18
5.89821e-18
0.108444
0.0459773
0.0375
0.0276056
0.028179
0.0290278
0.0293833
0.0293467
0.02932
0.0293681
0.0293232
0.0292829
0.0293957
0.0295701
0.0298453
0.0302221
0.0306409
0.0311022
0.0315743
0.0320408
0.0324992
0.032954
0.0333968
0.0338195
0.0342079
0.0345729
0.0349367
0.0352949
0.0356698
0.0360683
0.0365377
0.0376121
0.0392222
0.0417194
0.0304566
0.047133
0.0625702
0.0761978
0.0793576
0.0802764
0.0805238
0.0760066
0.0735669
0.0716848
0.0701423
0.0690613
0.0683254
0.0678941
0.0677847
0.0679784
0.0685006
0.0693706
0.0705057
0.0718896
0.0735498
0.0755288
0.0777528
0.0800595
0.0831993
0.0899921
0.0976923
0.10491
0.106235
0.11009
0.000399005
7.94781e-12
1.4071e-13
1.32878e-17
4.40728e-18
2.33812e-18
1.73778e-18
1.60489e-18
1.67307e-18
1.85638e-18
2.14507e-18
3.42331e-18
3.99847e-17
6.94111e-16
0.0486061
0.0167918
0.0200372
0.0220994
0.0224745
0.0228159
0.0229044
0.0226858
0.0224226
0.022187
0.0218329
0.0214966
0.0212724
0.0210871
0.0209859
0.0209725
0.0210137
0.0211097
0.0212498
0.0214176
0.021601
0.0217998
0.0220052
0.0221956
0.0223457
0.0224735
0.0225939
0.0227053
0.0228205
0.0229477
0.0230514
0.0229281
0.0219878
0.0203175
0.0233332
0.0278475
0.0331829
0.0393805
0.0606871
0.029694
0.0301271
0.0294237
0.0280043
0.0274875
0.0271242
0.0265643
0.0263149
0.0262066
0.0261893
0.0264224
0.0268208
0.027395
0.0281398
0.0290195
0.0300509
0.0312477
0.0325785
0.0339767
0.035757
0.0397368
0.0234061
0.050598
0.0678058
0.084178
0.00114556
4.32186e-11
6.55014e-13
2.71431e-17
7.77408e-18
3.60877e-18
2.38492e-18
2.00359e-18
1.94775e-18
2.0614e-18
2.31657e-18
2.65276e-16
4.45004e-11
1.59165e-09
0.013877
0.0341155
0.0546862
0.0602058
0.0605451
0.0605445
0.0604984
0.0603578
0.0601528
0.0599208
0.0596591
0.0593733
0.0590849
0.058798
0.0585051
0.0582062
0.0579015
0.0575887
0.057268
0.0569393
0.0566085
0.056281
0.0559561
0.0556481
0.0553744
0.0551136
0.0548588
0.0546072
0.0543876
0.0542231
0.0540223
0.0533192
0.050761
0.0465778
0.0406412
0.0342019
0.0208332
0.0225572
0.0474638
0.0264111
0.0222241
0.0234149
0.0239851
0.0250127
0.0258944
0.0262244
0.0266012
0.0269062
0.0270884
0.0273483
0.0276001
0.0278486
0.0281239
0.0283647
0.0286009
0.028842
0.0290557
0.0292116
0.0293264
0.0287122
0.0286975
0.0334445
0.0381151
0.0351725
0.00246092
1.85156e-10
2.42234e-12
5.81894e-17
1.45012e-17
5.93301e-18
3.50914e-18
2.69292e-18
2.44458e-18
2.46496e-18
6.42668e-18
1.18341e-11
1.68814e-09
3.38133e-09
0.0397905
0.0828625
0.0987101
0.100163
0.100278
0.100017
0.0997638
0.0995683
0.0994
0.0992422
0.0990846
0.0989201
0.0987607
0.0985984
0.098418
0.0982171
0.0979963
0.0977526
0.0974851
0.0971903
0.0968752
0.0965472
0.0962036
0.0958621
0.0955448
0.0952307
0.0949199
0.0946058
0.0943287
0.0941324
0.0939433
0.0937782
0.0927005
0.0906526
0.0873381
0.0819839
0.0748433
0.0621559
0.0556704
0.0636965
0.0621411
0.06328
0.0660491
0.068424
0.070284
0.0716948
0.0727912
0.0737183
0.0745122
0.0751759
0.0757247
0.0761641
0.0764674
0.0766097
0.0766581
0.0766714
0.0765975
0.0763653
0.0760375
0.0738676
0.0685682
0.0634065
0.0535266
0.0413932
0.00640468
9.88469e-10
1.12416e-11
1.30845e-16
2.85557e-17
1.03582e-17
5.51203e-18
3.87659e-18
3.28969e-18
3.15807e-18
5.39047e-18
1.66665e-12
1.45902e-09
1.20098e-09
0.0980099
0.104347
0.0912682
0.0893767
0.0890995
0.0887023
0.0884322
0.0883342
0.088321
0.0883324
0.0883745
0.088437
0.0885
0.0885588
0.0886023
0.0886231
0.0886211
0.0885969
0.0885463
0.0884641
0.0883528
0.0882184
0.0880549
0.0878748
0.0877071
0.0875437
0.0873822
0.0872191
0.0870806
0.0870112
0.0869786
0.0871843
0.0877644
0.0884203
0.0887373
0.0879011
0.0854219
0.0775166
0.066807
0.103444
0.100005
0.100813
0.101851
0.101959
0.101789
0.101644
0.101548
0.101565
0.101662
0.101763
0.10186
0.10195
0.101993
0.101954
0.101914
0.101946
0.101966
0.101915
0.102001
0.102019
0.100099
0.0959547
0.0894627
0.0780169
0.0211505
6.62574e-09
6.58947e-11
3.08551e-16
5.92889e-17
1.91581e-17
9.21056e-18
5.95053e-18
4.7224e-18
4.30902e-18
5.82136e-18
3.73934e-13
1.12674e-11
2.78231e-09
0.100213
0.0706582
0.0436141
0.0383347
0.0379056
0.037819
0.0376896
0.0375896
0.0375684
0.0376128
0.037697
0.0378202
0.0379778
0.0381648
0.0383725
0.0385972
0.0388345
0.039082
0.0393335
0.0395846
0.0398338
0.0400832
0.0403371
0.0406049
0.0408953
0.0411954
0.041503
0.0418173
0.0421438
0.0425086
0.0428558
0.0433461
0.0462265
0.0511275
0.0570616
0.0636736
0.0702888
0.0727903
0.0670353
0.0882237
0.0850721
0.081743
0.0797723
0.0781083
0.0767613
0.0758137
0.0751191
0.0746331
0.0743155
0.0741013
0.073984
0.0739734
0.0740435
0.0741787
0.0744336
0.0748657
0.0754171
0.076034
0.0768575
0.0788425
0.0821445
0.0848478
0.0859602
0.0828924
0.0466121
3.98492e-08
3.48307e-10
7.62915e-16
1.29676e-16
3.74661e-17
1.63243e-17
9.70209e-18
7.19829e-18
6.22976e-18
7.07297e-18
1.09752e-13
4.99473e-09
3.38948e-09
0.0548548
0.0324631
0.0170605
0.015024
0.0150096
0.0151832
0.015188
0.0150279
0.0148861
0.0147925
0.0146276
0.0144832
0.014423
0.0143944
0.0144319
0.0145558
0.0147334
0.014973
0.0152635
0.0155956
0.0159568
0.0163457
0.0167578
0.0171635
0.0175338
0.0178858
0.01824
0.0185957
0.0189532
0.0193225
0.0196802
0.0200984
0.0216344
0.0241383
0.0272296
0.00959924
0.0364782
0.0524017
0.057979
0.0335285
0.0319914
0.0178165
0.0309736
0.0299963
0.0297191
0.029151
0.0288806
0.0286791
0.0284486
0.02839
0.0283895
0.028465
0.0286556
0.028903
0.029242
0.0296824
0.0301966
0.0307528
0.0314551
0.00582246
0.0261582
0.0412939
0.0538835
0.0614585
0.0597059
2.10008e-07
1.62011e-09
1.97738e-15
2.9847e-16
7.73306e-17
3.06047e-17
1.67442e-17
1.1604e-17
9.4999e-18
9.56466e-18
3.99927e-14
1.30786e-09
2.09593e-09
0.0234419
0.0111931
0.0195109
0.0203055
0.0205761
0.0208518
0.0209246
0.0207554
0.0205585
0.0203837
0.0200766
0.0197633
0.0195484
0.0193529
0.0192344
0.0192269
0.0192827
0.0194177
0.0196223
0.0198769
0.0201693
0.0204936
0.0208456
0.0211731
0.0214312
0.0216545
0.0218746
0.0220914
0.0223061
0.0225257
0.0227568
0.0229986
0.0229284
0.0220875
0.0203222
0.0181956
0.0226073
0.00946574
0.0394396
0.0125626
0.0120762
0.00822756
0.00559845
0.00638019
0.00717591
0.00774445
0.00828768
0.00877193
0.00913518
0.00947567
0.00976864
0.0100216
0.0102625
0.0104719
0.0106664
0.0108499
0.0110155
0.0111599
0.0112782
0.0115434
0.0147734
0.019351
0.0233965
0.0115095
0.0457184
9.47715e-07
6.47851e-09
5.37077e-15
7.22268e-16
1.68165e-16
6.05402e-17
3.04909e-17
1.97081e-17
1.52157e-17
1.39626e-17
1.70709e-14
4.64629e-10
3.06131e-09
0.0196337
0.0310476
0.0514832
0.0535211
0.0537281
0.0537399
0.0537813
0.0538619
0.0539394
0.0540123
0.0540933
0.0541704
0.0542383
0.0543014
0.0543527
0.0543885
0.0544106
0.0544168
0.0544048
0.0543727
0.0543237
0.054264
0.0541952
0.0541243
0.0540686
0.0540221
0.0539776
0.0539388
0.0539083
0.0539008
0.0539348
0.0540183
0.0533976
0.0510218
0.0465798
0.0400647
0.0320515
0.0249734
0.0329681
0.0267837
0.0228561
0.011685
0.015186
0.0172171
0.0192352
0.0209353
0.0224281
0.0237682
0.0248743
0.025812
0.0266149
0.0272888
0.0278535
0.0283105
0.0286791
0.0289846
0.0292172
0.0293773
0.029464
0.0292898
0.0259502
0.0226644
0.0124696
0.0239356
0.0299566
4.70475e-06
2.91011e-08
1.52799e-14
1.83543e-15
3.84703e-16
1.26075e-16
5.84182e-17
3.51374e-17
2.54994e-17
2.16447e-17
8.25446e-15
4.66405e-11
1.02774e-09
0.0462702
0.0703649
0.0713852
0.0723981
0.0722878
0.0720189
0.0718332
0.071756
0.0717397
0.0717584
0.0718143
0.0718938
0.0719849
0.0720846
0.0721838
0.0722751
0.0723584
0.0724302
0.0724859
0.072523
0.0725455
0.0725629
0.0725771
0.0725908
0.0726206
0.0726599
0.0726964
0.0727333
0.0727715
0.0728225
0.0729154
0.0731219
0.0732216
0.0726601
0.0698644
0.0666377
0.0624586
0.0541137
0.0472286
0.0602772
0.0616963
0.0637507
0.0646955
0.0651386
0.0654689
0.065746
0.0659899
0.0662451
0.0665004
0.06675
0.0670099
0.0672784
0.067535
0.0677557
0.0679617
0.0681853
0.0683847
0.0685133
0.0686173
0.0687997
0.067819
0.0650174
0.0602805
0.0545484
0.0511183
4.18748e-05
4.41506e-08
6.41047e-10
4.89392e-15
9.24689e-16
2.75795e-16
1.17469e-16
6.55802e-17
4.45827e-17
3.52132e-17
4.42014e-15
8.21039e-12
2.06521e-10
0.0752629
0.066391
0.0533989
0.0525473
0.0523263
0.0519842
0.0517192
0.0515603
0.0514814
0.0514516
0.0514705
0.05153
0.0516124
0.0517104
0.0518158
0.0519209
0.0520241
0.0521217
0.0522095
0.0522843
0.0523512
0.0524188
0.0524896
0.0525657
0.0526623
0.0527721
0.0528863
0.0530108
0.0531383
0.0532739
0.0534392
0.0536849
0.0544854
0.0561055
0.0579691
0.0597696
0.0603648
0.0578434
0.0523557
0.0721545
0.0687063
0.0681168
0.0671323
0.0661508
0.0654524
0.0650359
0.0647773
0.0646307
0.0645739
0.0645658
0.0646086
0.0647
0.0648147
0.0649345
0.0650777
0.0652747
0.0654897
0.0656792
0.0658833
0.0664605
0.0674237
0.0676951
0.0668977
0.0641403
0.0609749
0.000309145
5.59965e-07
7.32543e-09
1.36877e-14
2.33252e-15
6.33018e-16
2.47416e-16
1.27835e-16
8.11216e-17
5.96947e-17
2.59269e-15
1.74193e-12
4.30799e-11
0.0578766
0.031333
0.0235577
0.0208232
0.0209082
0.0210231
0.0209582
0.0206848
0.0204186
0.0201959
0.0198463
0.019499
0.0192553
0.019027
0.0188805
0.0188546
0.0189033
0.0190489
0.0192797
0.0195806
0.019938
0.0203511
0.0208134
0.0212587
0.0216258
0.0219568
0.0222919
0.022631
0.0229701
0.023306
0.0236471
0.0240184
0.0246379
0.0259781
0.0186281
0.0296572
0.0392718
0.0458616
0.0468136
0.0415983
0.0392774
0.0341788
0.0340507
0.0338712
0.033372
0.0328789
0.0325075
0.0321823
0.0319076
0.0316827
0.0315157
0.0314179
0.0313831
0.0314108
0.0315148
0.0317171
0.0320027
0.0323621
0.0327458
0.0334133
0.0363064
0.0415401
0.0461458
0.0495816
0.0528328
0.00148412
4.46798e-06
5.27294e-08
4.01182e-14
6.1718e-15
1.52238e-15
5.45197e-16
2.59986e-16
1.53373e-16
1.05054e-16
1.67639e-15
4.26766e-13
1.2251e-09
0.025908
0.0118387
0.00781757
0.0087105
0.00907771
0.00936807
0.00950942
0.00948721
0.00942216
0.00935782
0.00920706
0.00903216
0.0088979
0.00876266
0.00865941
0.00861542
0.00860661
0.00864804
0.00873396
0.00886158
0.00902053
0.00921253
0.00943557
0.00965649
0.00983398
0.00998754
0.0101399
0.0102925
0.0104455
0.0105975
0.0107527
0.0108893
0.0109477
0.010368
0.0124489
0.0156249
0.0191785
0.0216008
0.033121
0.0157356
0.0149589
0.0134564
0.0131233
0.0131166
0.0130023
0.0126868
0.0125163
0.0123613
0.0121803
0.0120766
0.0119983
0.0119554
0.0119714
0.012021
0.0121214
0.0122727
0.0124688
0.0127016
0.0129494
0.0133086
0.0145536
0.0167461
0.0194162
0.0172672
0.0289327
0.00474292
2.70252e-05
2.88189e-07
1.23115e-13
1.7113e-14
3.83503e-15
1.25593e-15
5.51086e-16
3.01185e-16
1.91565e-16
1.23248e-15
1.2292e-13
1.25648e-10
0.00825618
0.017328
0.0203032
0.022609
0.0233668
0.0238373
0.0241747
0.024404
0.0245644
0.0247062
0.0248139
0.024882
0.0249408
0.0249892
0.025024
0.0250583
0.0250938
0.0251326
0.0251759
0.0252272
0.025284
0.0253508
0.025435
0.0255359
0.0256428
0.0257414
0.0258331
0.0259235
0.0260139
0.0261041
0.0262052
0.026263
0.0261392
0.0245187
0.0212039
0.0172772
0.00753935
0.00755956
0.0240874
0.0151212
0.0127664
0.0138608
0.0138303
0.0142121
0.0145243
0.0145514
0.0146605
0.0147585
0.0147889
0.0148794
0.0149658
0.0150523
0.0151728
0.015294
0.0154352
0.015592
0.0157536
0.0159061
0.0160533
0.0162028
0.0161891
0.0154701
0.014202
0.0145356
0.0171822
0.00695827
0.000116233
1.29838e-06
3.95383e-13
4.96759e-14
1.01057e-14
3.0228e-15
1.21709e-15
6.14097e-16
3.61755e-16
1.08621e-15
4.38593e-14
2.01496e-11
0.0225932
0.0439214
0.0490186
0.0501594
0.0503136
0.0503047
0.0503228
0.0504004
0.0505111
0.0506476
0.0508027
0.0509554
0.0511032
0.051242
0.0513655
0.0514802
0.0515904
0.0516979
0.0518056
0.0519147
0.0520282
0.0521514
0.0522901
0.0524424
0.0526034
0.0527664
0.0529263
0.0530886
0.0532545
0.0534187
0.0535921
0.0537751
0.0540076
0.053563
0.0521774
0.049438
0.0448533
0.0394341
0.0359038
0.0357953
0.0345118
0.0362663
0.03701
0.0378892
0.0385371
0.0390592
0.0395121
0.0399473
0.0403615
0.0407445
0.0410997
0.0414228
0.041712
0.0419722
0.0422186
0.0424657
0.0426939
0.042877
0.0430334
0.0432074
0.0429957
0.0409618
0.0375446
0.033524
0.0291337
0.0199383
0.000716725
5.98092e-06
1.14955e-07
1.50739e-13
2.78315e-14
7.59105e-15
2.79987e-15
1.3e-15
7.07346e-16
1.18803e-15
2.02341e-14
4.30303e-12
0.0506983
0.051644
0.0471033
0.0471158
0.0468627
0.0465516
0.0463448
0.0462821
0.0463095
0.0463867
0.0465085
0.0466519
0.0467975
0.0469389
0.0470742
0.0472002
0.0473219
0.0474411
0.0475611
0.0476812
0.0478046
0.0479357
0.0480765
0.0482216
0.0483728
0.0485306
0.0486904
0.0488533
0.0490225
0.0491925
0.0493725
0.0495592
0.049935
0.0506499
0.0512562
0.05121
0.0502772
0.0470587
0.0421009
0.0523585
0.0501053
0.0495831
0.0498662
0.0498498
0.0497269
0.0496959
0.0497263
0.0498221
0.0499648
0.0501229
0.0502905
0.0504575
0.0506161
0.0507729
0.0509469
0.0511526
0.0513674
0.0515575
0.0517408
0.0520026
0.0524164
0.0520704
0.0510594
0.0492231
0.0454857
0.0377593
0.00417891
5.88518e-05
3.43347e-07
1.00227e-08
7.99795e-14
1.98687e-14
6.69942e-15
2.85593e-15
1.43155e-15
1.5818e-15
1.21094e-14
1.20229e-12
0.0480491
0.0308165
0.0238815
0.0222738
0.0218882
0.0215148
0.0211794
0.0209125
0.0207299
0.0206021
0.0205
0.0204232
0.0203634
0.0203148
0.0202787
0.0202532
0.0202352
0.0202332
0.0202427
0.020267
0.0203103
0.0203798
0.0204782
0.0206025
0.0207461
0.0209069
0.0210781
0.0212532
0.0214345
0.0216191
0.0218103
0.021954
0.0222005
0.0241952
0.028052
0.0323117
0.0361976
0.0391396
0.0389363
0.0394008
0.0384008
0.0364224
0.0351581
0.0343003
0.0335573
0.0330374
0.032664
0.0323859
0.0321902
0.0320448
0.0319359
0.0318579
0.031803
0.0317769
0.031794
0.0318638
0.0319764
0.0321148
0.0322829
0.032513
0.0332711
0.0353219
0.0376304
0.0395012
0.0402268
0.0389353
0.0140171
0.000361
3.80042e-06
1.01825e-07
2.39202e-13
5.40857e-14
1.66521e-14
6.50266e-15
2.99605e-15
2.44867e-15
9.27911e-15
4.33512e-13
0.0222781
0.0139379
0.00959348
0.00895157
0.00887105
0.00882427
0.00869929
0.0084932
0.0083083
0.00815226
0.00793861
0.00772123
0.00754641
0.00737235
0.00723155
0.00714694
0.00709547
0.00709589
0.00714442
0.00723867
0.00737196
0.00754856
0.00776601
0.00798709
0.00816823
0.00833413
0.0085089
0.00868853
0.00887384
0.00906261
0.00925619
0.00943091
0.00965041
0.0106415
0.0124808
0.0145406
0.0171524
0.0209242
0.0283292
0.0150913
0.0147963
0.0145065
0.0137034
0.0134292
0.0132095
0.0128589
0.0126639
0.0125008
0.0123185
0.0122184
0.0121369
0.012076
0.0120609
0.0120667
0.0121086
0.0121837
0.0122856
0.0124045
0.0125372
0.0126861
0.0130262
0.0138626
0.0154114
0.0136262
0.0218512
0.0271891
0.022282
0.00154614
2.88658e-05
7.29643e-07
7.43122e-13
1.52768e-13
4.29035e-14
1.53214e-14
6.47714e-15
4.22543e-15
8.97643e-15
2.00093e-13
0.00850075
0.00962167
0.0116786
0.011839
0.0120321
0.0122945
0.0124436
0.0124217
0.0123556
0.012281
0.0120849
0.0118482
0.0116509
0.0114343
0.0112518
0.0111449
0.0110847
0.0110963
0.0111822
0.0113367
0.011549
0.0118224
0.0121524
0.0124737
0.0127119
0.0129099
0.013114
0.0133229
0.013538
0.013756
0.0139796
0.0142082
0.0144473
0.014551
0.0142605
0.0134294
0.0120417
0.0143961
0.0109235
0.00516261
0.00547502
0.00663407
0.00717431
0.00769891
0.00812246
0.00828802
0.00844703
0.00856311
0.00861022
0.00868262
0.00874415
0.00879878
0.00887054
0.00894078
0.00902216
0.00911204
0.00920697
0.00929726
0.00938022
0.00945021
0.00947418
0.00901904
0.00816744
0.00913531
0.0104242
0.0123043
0.0121536
0.00411746
0.000147409
1.48201e-06
5.35864e-08
4.46812e-13
1.14323e-13
3.72847e-14
1.44397e-14
7.88755e-15
1.0647e-14
1.16331e-13
0.0147906
0.0261045
0.0301795
0.0306077
0.0308658
0.0311843
0.0315421
0.0318804
0.0321727
0.0324322
0.0326686
0.0328743
0.0330549
0.0332179
0.0333635
0.0334965
0.033622
0.0337413
0.0338567
0.0339693
0.034081
0.0341947
0.0343145
0.034442
0.0345748
0.0347086
0.0348397
0.0349718
0.0351099
0.0352513
0.0354029
0.0355642
0.0357467
0.0355968
0.0344974
0.0321285
0.0284959
0.0244877
0.0222432
0.0139624
0.0147281
0.0172856
0.019135
0.0204636
0.0214903
0.0221996
0.0227332
0.0231695
0.0235275
0.0238439
0.0241329
0.024391
0.0246217
0.0248285
0.0250217
0.0252116
0.0253932
0.0255524
0.025688
0.0257983
0.0258218
0.0245738
0.0223006
0.0202092
0.0157295
0.0106046
0.0117345
0.00863197
0.00068523
1.92652e-05
7.72528e-07
1.35036e-12
3.14432e-13
9.35405e-14
3.31482e-14
1.56126e-14
1.48539e-14
8.33727e-14
0.0329205
0.0407256
0.0396252
0.0400073
0.0400041
0.040023
0.0401266
0.0402854
0.0404576
0.0406343
0.0408182
0.0409958
0.0411625
0.0413226
0.0414735
0.041617
0.0417573
0.0418951
0.0420317
0.0421678
0.042306
0.042449
0.0426009
0.0427622
0.0429302
0.0431019
0.0432712
0.0434412
0.043619
0.0438013
0.0439958
0.0442044
0.0444691
0.0447657
0.0446895
0.0439972
0.04237
0.0390521
0.0346702
0.03675
0.0359243
0.0367562
0.0375876
0.0380749
0.0383973
0.0386221
0.038782
0.0389315
0.0390853
0.0392526
0.039437
0.0396226
0.0398005
0.0399708
0.0401448
0.0403375
0.0405435
0.0407414
0.040921
0.0410871
0.0412757
0.0409172
0.0398826
0.038248
0.035709
0.0330062
0.0292884
0.0213057
0.0034051
0.000159245
3.69727e-06
1.75754e-07
8.91343e-13
2.41574e-13
7.82314e-14
3.23626e-14
2.34193e-14
7.25959e-14
0.0408689
0.031955
0.0280293
0.0280109
0.027873
0.0276379
0.0274659
0.0273742
0.027334
0.0273246
0.0273458
0.0273894
0.0274409
0.0275014
0.0275642
0.0276295
0.027695
0.0277627
0.0278301
0.0278975
0.027965
0.0280355
0.0281113
0.0281931
0.0282826
0.028379
0.0284788
0.028586
0.0287037
0.02883
0.0289724
0.029125
0.0293121
0.0298883
0.0312134
0.0329639
0.0347121
0.035519
0.034339
0.03748
0.0356654
0.0346466
0.0341407
0.0335932
0.0330961
0.0327394
0.032456
0.032248
0.0321223
0.0320556
0.0320384
0.0320565
0.0320912
0.0321387
0.0322052
0.0323016
0.0324263
0.0325646
0.0327059
0.0328452
0.0331763
0.0339437
0.0347268
0.0352127
0.0351762
0.0345612
0.0331025
0.029351
0.0115097
0.000868999
3.52498e-05
4.65557e-07
2.58203e-08
6.41844e-13
1.89638e-13
6.97036e-14
4.0446e-14
7.58334e-14
0.0265248
0.00466676
0.011469
0.0113536
0.0113827
0.011414
0.0113519
0.0111773
0.0110017
0.0108444
0.0105982
0.010332
0.0101096
0.00987266
0.00966746
0.00953314
0.00943903
0.00941348
0.00945695
0.00956839
0.00973615
0.00996554
0.0102529
0.010533
0.010731
0.0108937
0.0110652
0.0112457
0.0114363
0.0116338
0.0118411
0.0120563
0.0122892
0.0126906
0.0134234
0.0147479
0.0129565
0.0207063
0.0249641
0.019633
0.0190114
0.0162068
0.0142784
0.0128055
0.0115174
0.0104296
0.00953408
0.00874856
0.00806608
0.00747298
0.00693993
0.00646959
0.00605516
0.00569681
0.00540176
0.00518279
0.00504708
0.00500558
0.00504746
0.00495221
0.00516991
0.00923398
0.0140559
0.0183453
0.0220829
0.02514
0.0271502
0.0274452
0.0204984
0.00340704
0.00021316
6.99788e-06
3.58395e-07
1.75392e-12
4.72093e-13
1.55292e-13
7.48788e-14
9.31779e-14
0.0121559
0.00370555
0.00559795
0.00575158
0.00592216
0.00613479
0.00622807
0.00618497
0.00610161
0.00601598
0.00587178
0.00570869
0.00557033
0.00542242
0.00529035
0.00519858
0.00512989
0.00510028
0.00511246
0.00516492
0.00525349
0.00538082
0.00554697
0.00571521
0.00583567
0.00593177
0.00603155