/*--------------------------------*- C++ -*----------------------------------*\
| =========                 |                                                 |
| \\      /  F ield         | OpenFOAM: The Open Source CFD Toolbox           |
|  \\    /   O peration     | Version:  2312                                  |
|   \\  /    A nd           | Website:  www.openfoam.com                      |
|    \\/     M anipulation  |                                                 |
\*---------------------------------------------------------------------------*/
FoamFile
{
    version     2.0;
    format      ascii;
    arch        "LSB;label=32;scalar=64";
    class       volVectorField;
    location    "50";
    object      U;
}
// * * * * * * * * * * * * * * * * * * * * * * * * * * * * * * * * * * * * * //

dimensions      [0 1 -1 0 0 0 0];

internalField   nonuniform List<vector> 
10720
(
(1.58589 18.4964 -2.98761e-17)
(2.73541 20.8148 2.63936e-17)
(4.29027 23.1282 0)
(6.18444 25.1113 -7.15351e-17)
(8.38014 26.7947 8.62144e-17)
(10.8257 28.1132 1.20161e-16)
(13.3899 28.9656 2.36517e-16)
(15.9806 29.3613 0)
(18.5172 29.336 0)
(20.915 28.9134 0)
(23.1307 28.1569 9.54795e-17)
(25.1372 27.1382 0)
(26.906 25.8915 1.81544e-15)
(28.4355 24.4818 0)
(29.6685 22.9076 0)
(30.565 21.1754 0)
(31.0816 19.2893 -3.34241e-15)
(31.2129 17.2696 -5.16231e-15)
(30.9626 15.0883 4.70424e-15)
(30.3726 12.7674 0)
(29.4247 10.3765 4.06334e-15)
(28.1594 8.06965 -8.22361e-15)
(26.7935 5.90069 4.19786e-15)
(25.4056 4.09 -1.28892e-16)
(25.1955 2.64422 0)
(25.3182 2.19935 1.45159e-15)
(27.1717 1.93055 1.44344e-17)
(28.2007 0.133493 -2.67843e-16)
(27.7167 -1.92679 -1.20778e-15)
(26.6758 -2.59716 -5.1488e-15)
(24.9077 -2.50438 2.95423e-15)
(21.5609 -2.17159 7.04211e-15)
(15.8737 -1.62557 7.55274e-15)
(8.89505 -0.967404 3.89062e-14)
(-0.349992 0.0944648 -2.95839e-14)
(-6.96267 0.942909 -1.39945e-16)
(6.95563 -1.37151 5.11444e-17)
(6.93968 -1.50143 6.6243e-15)
(11.5249 -2.10267 1.22881e-15)
(0.77896 16.1025 -2.58813e-17)
(0.261888 13.4716 -7.30642e-17)
(0.127285 10.5419 2.08141e-16)
(0.453944 7.31734 -5.79677e-16)
(1.30211 4.23887 -2.14852e-15)
(2.52564 1.49907 3.31517e-15)
(4.08568 -1.12808 6.46748e-15)
(6.07831 -3.54775 1.2368e-15)
(8.3203 -5.47052 0)
(10.5802 -6.79978 0)
(12.6889 -7.58375 1.02709e-15)
(14.5662 -7.94399 3.83294e-16)
(16.1921 -8.00004 -6.66763e-16)
(17.5716 -7.85183 5.49851e-16)
(18.7374 -7.58799 9.16251e-16)
(19.7365 -7.2642 5.89312e-16)
(20.6069 -6.91629 7.09452e-16)
(21.3807 -6.56564 4.5317e-16)
(22.0926 -6.21569 0)
(22.7637 -5.8639 0)
(23.4114 -5.51095 -4.64765e-16)
(24.0445 -5.14067 -1.21612e-17)
(24.6634 -4.72611 1.11541e-16)
(25.2283 -4.24337 6.71342e-17)
(25.6607 -3.69106 3.10513e-17)
(25.9389 -3.09467 0)
(26.1028 -2.44642 -1.80067e-16)
(26.1361 -1.78797 0)
(25.9887 -1.1805 0)
(25.6363 -0.635632 -2.44084e-16)
(25.0729 -0.142608 0)
(24.3069 0.308107 1.076e-15)
(23.3045 0.713975 2.0059e-15)
(22.031 1.06272 9.59714e-15)
(20.4787 1.34788 -3.37072e-15)
(18.5728 1.53387 1.2836e-17)
(16.0284 1.69615 0)
(13.4699 1.18419 -1.9724e-16)
(17.5166 3.0943 2.88898e-15)
(6.44633 16.0768 -3.39864e-17)
(7.7216 17.8313 2.88583e-17)
(9.36044 19.527 0)
(11.3341 21.0526 0)
(13.5596 22.3297 -2.45429e-17)
(16.0367 23.2972 -1.14675e-16)
(18.6703 23.8953 0)
(21.3492 24.1187 0)
(24.0157 23.9633 3.93659e-16)
(26.587 23.4593 0)
(29.0077 22.6486 1.72545e-15)
(31.245 21.5701 0)
(33.276 20.2691 6.82797e-16)
(35.0792 18.7787 -6.72008e-16)
(36.6793 17.1772 1.41718e-15)
(38.1024 15.5271 -2.90681e-15)
(39.3579 13.8502 3.17934e-15)
(40.3915 12.1928 2.90634e-15)
(41.1403 10.5755 2.83597e-15)
(41.5072 9.0243 1.71638e-16)
(41.4517 7.52382 -2.92652e-15)
(40.9339 6.06696 2.76232e-15)
(39.8444 4.65713 -1.52772e-16)
(38.3926 3.2187 0)
(36.3534 1.87444 0)
(34.5105 0.485187 0)
(31.6628 -0.486015 7.94661e-17)
(29.7791 -0.693472 -1.21176e-17)
(28.7839 -0.864158 9.463e-16)
(27.9789 -1.26583 -1.58312e-17)
(27.1008 -1.72042 4.86378e-19)
(26.3382 -2.05619 -4.40349e-17)
(24.8169 -2.1733 4.13016e-15)
(21.2788 -2.01474 -7.57435e-15)
(11.1608 -1.06351 -6.77511e-17)
(-5.91967 0.983492 -1.84317e-14)
(7.33305 -1.6657 0)
(12.3008 -3.90002 -1.54773e-15)
(11.9883 -2.3107 5.54566e-16)
(5.45398 14.2622 4.91792e-17)
(4.67179 12.2975 -1.34866e-16)
(4.15447 10.0243 -1.41353e-15)
(3.97679 7.52235 1.87819e-15)
(4.30319 4.96788 0)
(5.09629 2.49884 -3.19188e-15)
(6.2721 0.125363 -1.17112e-15)
(7.82161 -1.94869 -5.31801e-15)
(9.63974 -3.5485 1.4493e-15)
(11.5708 -4.65463 -1.07479e-15)
(13.4743 -5.31802 1.41448e-15)
(15.2507 -5.62903 -4.06232e-16)
(16.8545 -5.68082 0)
(18.2689 -5.55468 -2.50952e-16)
(19.4996 -5.33359 7.22528e-17)
(20.5773 -5.0602 -5.17344e-16)
(21.5294 -4.76867 0)
(22.3864 -4.47119 0)
(23.1729 -4.18378 -4.74991e-17)
(23.9145 -3.893 4.62429e-17)
(24.6291 -3.58585 -4.58373e-16)
(25.3312 -3.23327 -3.86915e-17)
(26.0136 -2.81065 1.41021e-17)
(26.642 -2.2818 8.93797e-18)
(27.162 -1.65074 1.5769e-16)
(27.5551 -0.991076 1.96574e-16)
(27.8335 -0.357534 0)
(28.0509 0.233901 0)
(28.2633 0.79859 0)
(28.4732 1.34509 9.58971e-18)
(28.665 1.87327 0)
(28.8241 2.3739 0)
(28.9394 2.83377 -3.00573e-15)
(28.98 3.2411 -2.70522e-15)
(28.8865 3.58975 2.23968e-15)
(28.6546 3.88752 -1.61715e-15)
(27.8682 4.03461 1.96916e-15)
(27.4955 4.68176 -2.09381e-16)
(22.7226 4.12786 -1.60313e-15)
(8.52695 14.8565 -9.17997e-18)
(9.42464 16.3869 -1.19856e-16)
(10.5767 17.9357 8.45251e-17)
(11.965 19.4183 4.37839e-17)
(13.5686 20.7314 -6.98526e-18)
(15.3872 21.8524 1.29575e-16)
(17.3596 22.7292 -1.17248e-16)
(19.4225 23.3167 -2.28599e-16)
(21.5237 23.6053 1.92231e-17)
(23.6061 23.5947 -3.84966e-16)
(25.6176 23.2962 4.02126e-16)
(27.5215 22.7331 -1.1107e-15)
(29.2853 21.9348 -5.58336e-16)
(30.8868 20.9276 0)
(32.3043 19.7379 -1.41917e-15)
(33.5234 18.3927 2.95829e-15)
(34.5408 16.9139 0)
(35.4025 15.2988 -5.90061e-15)
(36.1444 13.5565 -2.98614e-15)
(36.7797 11.7265 3.51557e-16)
(37.2954 9.85938 -3.45946e-16)
(37.6687 8.01656 -1.57262e-16)
(37.8593 6.21836 -2.17375e-15)
(37.7597 4.53278 1.05348e-15)
(37.1792 3.04393 0)
(36.401 1.86654 9.4483e-16)
(35.0974 0.763762 -1.02097e-16)
(32.9038 -0.176299 0)
(30.968 -0.861714 1.27001e-15)
(29.1402 -1.46267 2.26419e-15)
(27.6025 -1.915 -4.35237e-15)
(26.2981 -2.17226 -4.18012e-15)
(25.6322 -2.2619 -7.19649e-17)
(24.9441 -2.21354 -5.47853e-15)
(19.4323 -1.76751 -5.38145e-15)
(12.6976 -1.65963 1.35441e-14)
(15.4404 -3.14278 0)
(16.7944 -4.09899 -1.02298e-15)
(12.2114 -2.43366 -9.19497e-16)
(7.84628 13.2849 -4.58876e-17)
(7.29547 11.6177 -1.2538e-16)
(6.93724 9.68836 5.74901e-16)
(6.77187 7.58106 0)
(6.93716 5.4234 9.52463e-16)
(7.44301 3.27908 0)
(8.29792 1.20281 3.24101e-15)
(9.4598 -0.669176 1.352e-15)
(10.844 -2.23124 1.13504e-15)
(12.3539 -3.4596 0)
(13.8912 -4.36017 -1.58083e-15)
(15.3765 -4.96426 -3.21092e-16)
(16.7636 -5.3225 1.46624e-15)
(18.0273 -5.49093 0)
(19.1608 -5.52393 -6.3189e-16)
(20.1764 -5.46103 -1.89499e-16)
(21.092 -5.33366 7.40647e-16)
(21.9272 -5.16226 3.68261e-16)
(22.7044 -4.95926 9.00253e-17)
(23.4436 -4.72375 -5.34358e-17)
(24.158 -4.45125 4.19366e-16)
(24.8543 -4.12766 0)
(25.5338 -3.72926 0)
(26.1749 -3.23426 3.07457e-17)
(26.7247 -2.66967 0)
(27.1565 -2.09556 -3.68243e-16)
(27.4889 -1.5266 6.77658e-18)
(27.7408 -0.961476 7.33402e-17)
(27.9195 -0.401983 0)
(28.0303 0.152302 1.90053e-16)
(28.0779 0.696809 -3.74285e-16)
(28.0764 1.22743 0)
(28.0391 1.74145 1.43392e-15)
(27.9772 2.23291 0)
(27.8906 2.6994 0)
(27.8684 3.14156 4.96998e-17)
(27.6407 3.59139 -1.06042e-16)
(27.7593 4.08816 2.00482e-16)
(24.6015 4.18305 2.74848e-15)
(10.7235 13.6918 -3.50889e-17)
(11.5436 14.9937 -4.89659e-17)
(12.5834 16.3196 6.97901e-17)
(13.8353 17.5859 5.06352e-17)
(15.2807 18.708 0)
(16.9271 19.6714 0)
(18.7294 20.4228 -2.19295e-16)
(20.6395 20.9191 3.47967e-16)
(22.6158 21.1464 0)
(24.6079 21.0954 -6.04862e-16)
(26.5674 20.7702 -8.61828e-16)
(28.4557 20.1854 -8.46242e-16)
(30.2372 19.3623 1.07635e-15)
(31.8833 18.3237 1.03964e-15)
(33.3687 17.097 0)
(34.6735 15.7144 1.74892e-15)
(35.7885 14.2032 6.25144e-16)
(36.6775 12.6209 5.23361e-15)
(37.3097 11.0169 3.21966e-16)
(37.6804 9.42167 -3.1734e-16)
(37.7933 7.85124 2.74482e-15)
(37.6713 6.33993 -4.51014e-16)
(37.369 4.91977 2.46388e-15)
(36.9427 3.61837 1.00978e-15)
(36.3775 2.45698 -5.87765e-17)
(35.6678 1.43642 -8.98072e-16)
(34.9679 0.685875 6.63278e-18)
(34.1343 0.00603947 -6.27726e-18)
(33.0795 -0.731559 -1.49266e-15)
(31.7263 -1.39892 -3.97692e-17)
(30.0946 -1.90373 2.51459e-15)
(28.2022 -2.205 -4.2165e-15)
(26.5409 -2.2905 -3.19309e-15)
(25.7987 -2.19679 -5.16995e-17)
(23.398 -2.10736 4.3541e-15)
(19.4966 -2.53585 0)
(19.3189 -3.72514 7.13142e-15)
(19.1431 -4.42976 9.94964e-16)
(12.3186 -2.46491 4.84146e-16)
(10.0848 12.3597 -5.21096e-17)
(9.56049 10.9535 1.89541e-16)
(9.19352 9.316 6.89459e-16)
(8.98758 7.51895 0)
(9.05051 5.66965 -7.48263e-16)
(9.3864 3.79733 0)
(10.0035 1.95275 -2.33939e-15)
(10.8776 0.259085 -5.5208e-17)
(11.9551 -1.19489 9.05997e-16)
(13.1742 -2.38018 7.50775e-16)
(14.4613 -3.2856 1.08157e-17)
(15.7498 -3.92311 1.26e-15)
(16.9949 -4.32832 -7.42924e-16)
(18.1664 -4.54464 2.43583e-16)
(19.2483 -4.61587 7.93824e-16)
(20.2403 -4.58124 8.40468e-16)
(21.1504 -4.47229 -7.16714e-16)
(21.9901 -4.31182 1.67245e-17)
(22.774 -4.11521 0)
(23.5174 -3.88534 6.32625e-16)
(24.2315 -3.61883 2.51516e-17)
(24.9232 -3.30364 -3.57045e-16)
(25.5904 -2.92728 0)
(26.2147 -2.4683 3.16598e-17)
(26.7567 -1.93102 0)
(27.1923 -1.35957 1.57815e-16)
(27.5314 -0.780964 0)
(27.7894 -0.205818 -7.05672e-17)
(27.9737 0.360617 3.61947e-18)
(28.0843 0.910655 -2.49951e-18)
(28.1194 1.43644 3.45378e-16)
(28.0871 1.9347 1.0695e-17)
(27.9906 2.39938 0)
(27.83 2.82095 -1.11579e-15)
(27.6038 3.19904 -1.64402e-17)
(27.3644 3.52384 1.42601e-15)
(26.9395 3.83186 -3.25764e-15)
(26.6798 4.1299 -2.73471e-18)
(24.7918 4.17642 0)
(12.3735 12.8027 -4.44721e-17)
(13.0678 13.9502 -3.51728e-17)
(13.9492 15.1347 1.16945e-16)
(15.0031 16.2815 -3.40435e-16)
(16.2124 17.3155 6.33362e-17)
(17.5942 18.2364 2.20365e-17)
(19.1115 18.9967 7.53578e-17)
(20.728 19.5578 0)
(22.417 19.9058 5.97662e-16)
(24.1374 20.0267 3.42623e-16)
(25.8511 19.9163 0)
(27.5248 19.58 8.05036e-16)
(29.1246 19.0294 -4.542e-16)
(30.621 18.2795 1.26706e-15)
(31.9884 17.3507 0)
(33.2046 16.2659 -2.28544e-15)
(34.2497 15.0498 2.2464e-15)
(35.1127 13.7182 -1.48379e-16)
(35.7971 12.2633 0)
(36.2864 10.7105 2.59549e-15)
(36.5614 9.09605 -2.64379e-15)
(36.6071 7.47519 -1.36312e-16)
(36.4295 5.90086 -2.0766e-15)
(36.0474 4.43401 -1.92326e-15)
(35.4895 3.1279 0)
(34.7707 2.02151 0)
(34.0169 1.12467 -2.09657e-16)
(33.3381 0.30003 -2.35758e-17)
(32.6655 -0.519511 1.46589e-15)
(31.891 -1.21229 -3.81401e-17)
(30.9478 -1.73604 3.80302e-17)
(29.7269 -2.09308 3.78226e-15)
(28.159 -2.25278 0)
(26.8541 -2.1731 8.69385e-15)
(25.0587 -2.21183 -3.20591e-17)
(22.193 -2.8399 0)
(21.4472 -4.00424 -2.10055e-16)
(20.6763 -4.70285 0)
(12.4025 -2.51307 -7.19394e-16)
(11.8253 11.6328 6.59368e-17)
(11.3702 10.408 -3.51419e-16)
(11.0331 8.98181 -5.29017e-17)
(10.8153 7.41811 1.40322e-15)
(10.8102 5.80348 -2.10118e-15)
(11.0273 4.14952 -2.01419e-15)
(11.4788 2.50387 1.79081e-15)
(12.1476 0.970972 -1.63429e-15)
(12.9961 -0.377813 -7.01881e-16)
(13.9818 -1.51886 -6.09288e-16)
(15.0486 -2.43794 1.16723e-15)
(16.1433 -3.13647 -1.07507e-15)
(17.2287 -3.63686 -4.51684e-16)
(18.2763 -3.96906 4.43347e-16)
(19.2672 -4.1628 -9.02506e-16)
(20.1947 -4.24864 1.76947e-16)
(21.0602 -4.2512 0)
(21.8696 -4.18911 -5.56906e-16)
(22.6323 -4.0747 1.8887e-16)
(23.359 -3.91243 -6.75269e-16)
(24.0589 -3.70071 0)
(24.7369 -3.43231 3.11871e-16)
(25.3909 -3.09578 1.99721e-16)
(26.005 -2.67837 -5.59066e-17)
(26.5457 -2.18917 0)
(26.9894 -1.66496 9.82918e-17)
(27.3403 -1.13169 0)
(27.6114 -0.599396 0)
(27.8089 -0.0739108 0)
(27.9323 0.441687 -1.49545e-16)
(27.9813 0.950534 0)
(27.9645 1.44969 0)
(27.885 1.93233 1.16849e-15)
(27.7392 2.38657 1.08494e-15)
(27.5226 2.80431 0)
(27.2626 3.17799 1.28149e-15)
(26.8129 3.53711 7.97428e-17)
(26.3629 3.80732 0)
(24.7416 4.00379 -1.90881e-15)
(13.7957 12.0351 5.93257e-17)
(14.4176 13.0517 -4.19587e-17)
(15.2066 14.1065 0)
(16.1455 15.13 1.42914e-17)
(17.2164 16.0553 1.55341e-16)
(18.4421 16.8884 -2.04291e-17)
(19.7906 17.5856 3.76317e-17)
(21.234 18.1122 -2.32343e-16)
(22.7552 18.4538 -5.84968e-17)
(24.3214 18.5939 6.31826e-16)
(25.9017 18.5237 -2.34858e-16)
(27.4678 18.2421 5.98806e-16)
(28.9876 17.7531 3.07198e-16)
(30.4324 17.0653 2.18527e-16)
(31.7758 16.1922 0)
(32.9925 15.1511 -4.95652e-16)
(34.0608 13.9611 -1.12192e-15)
(34.9642 12.6429 -4.32265e-15)
(35.6732 11.2423 1.30052e-15)
(36.168 9.79497 -1.673e-15)
(36.4348 8.33335 -2.6104e-16)
(36.4716 6.88964 0)
(36.2889 5.49498 1.85412e-15)
(35.9065 4.18156 1.18525e-16)
(35.3469 2.98789 -5.30351e-17)
(34.6419 1.94475 -7.4903e-16)
(33.8585 1.07274 1.71323e-16)
(33.0807 0.280132 3.59324e-16)
(32.3085 -0.481992 -1.35934e-15)
(31.4984 -1.13564 -7.0916e-17)
(30.6453 -1.64734 2.20715e-15)
(29.7739 -2.01508 3.39064e-15)
(28.8241 -2.20394 0)
(27.7881 -2.14791 2.6295e-17)
(26.1111 -2.23375 -3.51381e-15)
(23.772 -2.94052 0)
(23.042 -4.15509 -1.31733e-14)
(22.1337 -4.85591 0)
(12.9097 -2.65291 2.12695e-15)
(13.2999 10.9999 -6.26355e-17)
(12.8852 9.92433 1.38835e-16)
(12.5639 8.66898 -3.23938e-16)
(12.3368 7.29038 0)
(12.2852 5.86186 8.2618e-16)
(12.4201 4.38534 3.05163e-15)
(12.7527 2.90473 0)
(13.2702 1.51109 -1.23993e-15)
(13.9462 0.264821 -1.15665e-15)
(14.7508 -0.814134 1.12432e-15)
(15.6412 -1.71018 -3.56201e-17)
(16.5757 -2.41788 4.74407e-16)
(17.5247 -2.95077 3.84607e-17)
(18.4632 -3.32936 1.15972e-15)
(19.3721 -3.57391 9.93975e-16)
(20.2414 -3.70787 -9.03255e-16)
(21.0679 -3.75159 1.19509e-16)
(21.8523 -3.72195 -2.17892e-16)
(22.5992 -3.63154 9.85628e-17)
(23.315 -3.48726 5.2547e-16)
(24.0055 -3.29049 6.41544e-17)
(24.6737 -3.03697 -3.39281e-17)
(25.3168 -2.71811 -1.60696e-16)
(25.921 -2.32392 0)
(26.4582 -1.85897 -2.26326e-18)
(26.9059 -1.35187 -1.57257e-16)
(27.2642 -0.827084 2.65136e-18)
(27.5431 -0.295418 -2.6578e-18)
(27.748 0.236274 0)
(27.8784 0.762576 1.40689e-16)
(27.9333 1.27444 0)
(27.9215 1.76365 0)
(27.8466 2.22264 -1.08409e-15)
(27.7052 2.64138 -9.63161e-16)
(27.4941 3.01784 0)
(27.2386 3.34042 -1.20529e-15)
(26.7951 3.64393 2.64127e-15)
(26.3522 3.82481 -3.77342e-18)
(24.7559 3.93784 2.57532e-15)
(14.9937 11.3804 7.131e-18)
(15.5513 12.2915 -3.63867e-17)
(16.259 13.2421 8.6909e-17)
(17.0968 14.1673 -8.36454e-17)
(18.0446 15.0075 -8.69916e-17)
(19.1284 15.7739 0)
(20.3194 16.428 -4.70785e-17)
(21.5943 16.939 -2.08593e-17)
(22.9436 17.2956 -1.71209e-16)
(24.3401 17.4817 -3.69934e-16)
(25.7599 17.487 0)
(27.1805 17.3076 -1.07217e-15)
(28.5732 16.9432 -9.87932e-16)
(29.9115 16.3979 -2.49802e-15)
(31.1701 15.6811 0)
(32.3231 14.8057 -1.64173e-15)
(33.3475 13.7885 -1.77126e-15)
(34.2213 12.6511 2.01286e-15)
(34.9296 11.4061 -2.04261e-15)
(35.4566 10.0705 1.90646e-15)
(35.7855 8.67056 2.37377e-16)
(35.9054 7.24669 -2.0428e-15)
(35.8185 5.84388 0)
(35.5366 4.51017 -1.76605e-15)
(35.0722 3.29206 1.04106e-16)
(34.4527 2.22123 7.78304e-16)
(33.7405 1.30974 0)
(32.9998 0.491263 -2.66902e-17)
(32.2249 -0.282563 5.70554e-17)
(31.3741 -0.955095 2.17884e-15)
(30.4351 -1.49186 -1.95568e-15)
(29.4731 -1.88911 -3.2145e-15)
(28.6926 -2.10666 2.48022e-15)
(28.1094 -2.08713 -5.55916e-18)
(26.8972 -2.22701 3.22021e-15)
(25.1238 -3.00438 7.26107e-15)
(24.372 -4.2304 6.61582e-15)
(23.1713 -4.92651 -2.05499e-17)
(15.8974 -3.09783 -1.01632e-17)
(14.5442 10.4543 2.46867e-17)
(14.1645 9.49851 2.43215e-16)
(13.8577 8.38036 2.8551e-16)
(13.6269 7.14991 -6.00543e-16)
(13.5437 5.87189 -1.98737e-15)
(13.6194 4.54226 5.12348e-16)
(13.8646 3.20148 1.06328e-15)
(14.2696 1.92995 2.593e-15)
(14.8141 0.779632 9.97786e-16)
(15.4762 -0.234257 -9.28974e-16)
(16.2227 -1.09662 -8.76936e-18)
(17.0204 -1.79991 -4.09938e-16)
(17.8462 -2.35351 0)
(18.6795 -2.77172 -1.08765e-17)
(19.5028 -3.06821 -6.20096e-16)
(20.3054 -3.26046 2.58359e-16)
(21.0818 -3.36417 -2.54474e-16)
(21.8289 -3.39295 0)
(22.5479 -3.35711 3.44881e-16)
(23.2419 -3.26293 -5.49438e-16)
(23.9142 -3.11173 0)
(24.5658 -2.90019 3.30412e-16)
(25.1936 -2.62134 0)
(25.785 -2.26791 -4.43078e-18)
(26.3162 -1.84375 4.42928e-18)
(26.7658 -1.3723 6.04876e-17)
(27.1308 -0.877364 3.91045e-19)
(27.4185 -0.372173 2.19334e-18)
(27.633 0.134061 -1.74171e-18)
(27.7736 0.632742 1.17601e-16)
(27.8392 1.11805 2.48298e-16)
(27.8385 1.58589 -4.8101e-16)
(27.7752 2.03142 -1.54106e-17)
(27.6455 2.44634 3.43152e-17)
(27.4454 2.82724 0)
(27.2007 3.16523 -1.29781e-17)
(26.765 3.4872 -1.17429e-15)
(26.3517 3.67344 -1.41544e-17)
(24.8184 3.82945 2.50741e-15)
(16.0278 10.8069 9.52049e-18)
(16.5358 11.6283 5.69237e-17)
(17.1803 12.4887 0)
(17.9401 13.3273 -1.77123e-17)
(18.7934 14.0895 -1.01838e-16)
(19.768 14.7897 0)
(20.8374 15.3928 -1.64227e-17)
(21.9818 15.872 2.97509e-16)
(23.1962 16.2178 -5.64725e-16)
(24.4589 16.4148 1.7554e-16)
(25.7506 16.4521 3.20629e-16)
(27.0542 16.3235 1.33388e-15)
(28.3455 16.0251 1.01352e-15)
(29.6009 15.5568 1.27783e-15)
(30.7965 14.923 3.55428e-16)
(31.9073 14.1317 1.20395e-15)
(32.9088 13.195 1.68673e-15)
(33.7791 12.1276 1.67954e-15)
(34.4973 10.9507 -1.29211e-15)
(35.0404 9.69434 -4.00632e-15)
(35.3894 8.38752 0)
(35.5348 7.06267 8.08057e-17)
(35.4815 5.75553 1.58402e-15)
(35.2438 4.50244 1.67333e-15)
(34.8334 3.34096 -9.50039e-17)
(34.2705 2.30095 -6.94608e-16)
(33.6092 1.40151 4.96051e-18)
(32.911 0.596783 -3.51716e-16)
(32.1749 -0.158076 3.71098e-17)
(31.3566 -0.817375 -4.04644e-15)
(30.4298 -1.34792 -8.2147e-18)
(29.3926 -1.75364 -5.17129e-17)
(28.4749 -1.98339 -2.39561e-15)
(28.0064 -1.99012 -7.4034e-18)
(27.238 -2.17499 -2.99645e-15)
(25.9793 -3.01452 -1.32701e-14)
(25.282 -4.25331 6.00838e-15)
(23.6189 -4.66801 1.32949e-16)
(16.004 -2.70899 4.6639e-15)
(15.6137 9.97328 -9.2614e-17)
(15.2608 9.11699 -3.20554e-16)
(14.9667 8.11249 -2.10554e-16)
(14.7358 7.00365 -5.24555e-16)
(14.6314 5.85008 1.06805e-15)
(14.6636 4.64419 -6.22832e-17)
(14.843 3.42301 -2.66929e-15)
(15.1623 2.2583 -8.7553e-16)
(15.6049 1.19589 2.89305e-17)
(16.1542 0.247017 0)
(16.7839 -0.574341 -7.79305e-16)
(17.4668 -1.25956 7.10273e-16)
(18.1852 -1.81564 -6.65209e-16)
(18.923 -2.25279 -3.30685e-16)
(19.6653 -2.57966 2.64053e-16)
(20.4024 -2.80884 2.63558e-16)
(21.1273 -2.95165 8.89535e-16)
(21.8353 -3.01839 -2.06093e-16)
(22.5247 -3.01729 -3.22189e-16)
(23.196 -2.95403 0)
(23.8497 -2.83029 -4.3114e-16)
(24.4855 -2.64401 -2.75927e-16)
(25.0991 -2.39 -1.15833e-17)
(25.6791 -2.06301 -2.19207e-17)
(26.2044 -1.66631 -6.32717e-19)
(26.6551 -1.21879 -1.73786e-17)
(27.0257 -0.742394 3.52237e-18)
(27.321 -0.251072 -3.62494e-17)
(27.5442 0.24522 -1.23172e-17)
(27.6936 0.73759 -1.08391e-16)
(27.7679 1.21829 -1.37786e-17)
(27.7754 1.67914 9.35303e-16)
(27.7196 2.11382 8.2873e-16)
(27.5968 2.51388 8.0633e-16)
(27.4024 2.87729 2.0121e-17)
(27.1626 3.19431 -8.74623e-18)
(26.7322 3.49506 9.71066e-16)
(26.3262 3.63618 -4.34909e-16)
(24.9206 3.76974 -2.4029e-15)
(16.9256 10.3004 -2.97394e-17)
(17.3928 11.0454 -2.51443e-17)
(17.9837 11.8285 -1.31944e-16)
(18.6771 12.5925 4.50342e-16)
(19.451 13.2868 -1.62546e-16)
(20.3331 13.9286 6.99976e-17)
(21.2989 14.4858 1.30151e-17)
(22.3306 14.9349 0)
(23.4264 15.269 1.68787e-16)
(24.5678 15.4738 2.18692e-17)
(25.7399 15.539 -2.68243e-16)
(26.9297 15.4581 -1.22564e-15)
(28.1169 15.2254 -5.40546e-16)
(29.2814 14.8384 0)
(30.4018 14.2981 0)
(31.4541 13.6094 0)
(32.4142 12.7811 0)
(33.2588 11.8264 -1.59985e-15)
(33.9673 10.7622 1.68798e-15)
(34.519 9.60542 1.66736e-15)
(34.8939 8.3797 -1.34486e-15)
(35.08 7.11681 1.18919e-15)
(35.0783 5.8548 -1.22878e-15)
(34.8995 4.63391 -9.00238e-17)
(34.5527 3.49239 -4.09153e-17)
(34.0528 2.45938 6.97319e-16)
(33.4443 1.55342 1.49404e-16)
(32.7869 0.744041 0)
(32.089 -0.00665735 0)
(31.3114 -0.66338 3.38696e-17)
(30.442 -1.19357 0)
(29.4539 -1.61082 2.79495e-15)
(28.4412 -1.85423 -2.30439e-15)
(27.8195 -1.87326 -3.2813e-15)
(27.1722 -2.07715 5.68337e-15)
(26.2486 -2.96531 6.2237e-15)
(25.6586 -4.16088 -5.34369e-15)
(23.5197 -4.18487 -1.24182e-16)
(15.7356 -2.09454 -3.83975e-15)
(16.5411 9.54554 0)
(16.2114 8.77209 9.07262e-17)
(15.9301 7.86214 3.97426e-16)
(15.7022 6.85485 -1.67664e-15)
(15.5835 5.80652 1.26037e-15)
(15.583 4.70679 -8.03796e-16)
(15.7121 3.58901 2.41944e-17)
(15.965 2.51832 7.16268e-16)
(16.3278 1.53587 7.21566e-16)
(16.7871 0.650066 0)
(17.3212 -0.127041 3.23172e-16)
(17.9074 -0.786858 -9.7699e-16)
(18.5326 -1.33521 1.49485e-15)
(19.1842 -1.77987 2.62484e-16)
(19.8502 -2.12665 -5.20339e-16)
(20.5222 -2.38441 -4.68541e-16)
(21.1935 -2.56108 -4.14945e-16)
(21.8584 -2.66398 0)
(22.5138 -2.69916 0)
(23.1577 -2.67106 0)
(23.789 -2.58108 4.07185e-16)
(24.4053 -2.42777 0)
(25.0021 -2.20705 -2.09564e-16)
(25.5685 -1.91546 -2.29959e-17)
(26.0856 -1.55601 -7.10813e-17)
(26.535 -1.14391 1.71803e-17)
(26.9096 -0.698705 0)
(27.2117 -0.234446 3.13184e-17)
(27.4435 0.238524 1.30404e-17)
(27.6024 0.710673 -2.71003e-18)
(27.6865 1.17331 -4.18466e-16)
(27.7039 1.62002 -2.3298e-17)
(27.6579 2.04504 -8.14211e-16)
(27.5441 2.44019 6.98414e-16)
(27.3578 2.80298 0)
(27.1236 3.12284 1.04596e-17)
(26.7038 3.4268 -8.34015e-17)
(26.2899 3.56078 4.1722e-16)
(25.0474 3.68543 -9.80456e-18)
(17.7134 9.84791 2.86005e-17)
(18.1463 10.5266 0)
(18.6921 11.2424 2.38955e-16)
(19.3301 11.9407 -2.14021e-16)
(20.0378 12.5743 6.66418e-17)
(20.8429 13.1623 -6.49163e-17)
(21.7221 13.6753 -2.11301e-18)
(22.6593 14.0929 -5.91392e-17)
(23.655 14.4095 0)
(24.6929 14.6125 -2.27575e-16)
(25.7612 14.6925 -2.71298e-16)
(26.8504 14.6427 2.66981e-16)
(27.9437 14.4565 1.10987e-15)
(29.0247 14.1294 4.84291e-16)
(30.0747 13.6597 -1.48447e-15)
(31.0713 13.0489 -1.11411e-15)
(31.9918 12.3027 8.99302e-16)
(32.8127 11.4304 6.84597e-16)
(33.5129 10.4457 -3.59652e-16)
(34.0695 9.36866 3.70637e-16)
(34.4607 8.224 9.44148e-16)
(34.6736 7.0404 1.7462e-16)
(34.7084 5.85156 -1.65126e-16)
(34.5744 4.69286 -1.09945e-15)
(34.279 3.59809 0)
(33.8335 2.59356 -5.83864e-16)
(33.2735 1.69845 -2.78415e-16)
(32.6533 0.895688 -2.5707e-16)
(31.9882 0.154386 -9.52057e-16)
(31.2415 -0.499646 3.53772e-15)
(30.415 -1.0329 1.42123e-15)
(29.5075 -1.46225 1.35385e-17)
(28.5109 -1.72355 1.67488e-17)
(27.7144 -1.75219 0)
(26.9761 -1.97058 -2.74982e-15)
(26.2213 -2.89599 0)
(25.6685 -3.97444 0)
(23.0702 -3.57646 1.55546e-17)
(15.3214 -1.41952 1.12291e-17)
(17.3541 9.16014 -9.40751e-17)
(17.0456 8.456 2.90124e-16)
(16.7772 7.62675 2.05285e-17)
(16.5531 6.70592 3.69482e-16)
(16.4248 5.74786 -1.06785e-15)
(16.3999 4.74041 6.45913e-16)
(16.4901 3.71292 6.91832e-18)
(16.6912 2.72571 -6.03448e-16)
(16.9909 1.81598 -5.74331e-16)
(17.3778 0.989802 -5.95321e-16)
(17.8335 0.257894 -1.13192e-15)
(18.3389 -0.371733 0)
(18.8839 -0.904618 -5.47359e-16)
(19.4589 -1.34714 -1.52306e-17)
(20.0543 -1.70304 0)
(20.6638 -1.97878 -4.24829e-16)
(21.2815 -2.17936 -2.00229e-16)
(21.9016 -2.30958 -1.80323e-16)
(22.5203 -2.37342 5.84857e-16)
(23.1342 -2.37385 4.93994e-16)
(23.7406 -2.31169 -4.50661e-17)
(24.3359 -2.18588 3.2762e-16)
(24.9146 -1.99337 4.35223e-17)
(25.4663 -1.73185 -2.37405e-17)
(25.9739 -1.40415 6.46064e-17)
(26.4202 -1.0225 2.84986e-18)
(26.7969 -0.60382 0)
(27.1044 -0.161535 0)
(27.3434 0.29411 2.32636e-18)
(27.5108 0.7535 -7.83573e-18)
(27.6038 1.20758 3.81579e-16)
(27.6302 1.64762 -2.3445e-17)
(27.5929 2.06653 -7.28146e-16)
(27.4874 2.45495 -6.73542e-16)
(27.3089 2.80984 -1.50395e-17)
(27.0798 3.11853 5.245e-18)
(26.6748 3.40835 -1.5603e-15)
(26.2504 3.51365 -4.71171e-16)
(25.145 3.61554 8.95755e-18)
(18.4102 9.43904 1.13288e-17)
(18.8132 10.0606 0)
(19.3207 10.7172 -1.14802e-16)
(19.9114 11.3572 0)
(20.5626 11.9371 8.89657e-17)
(21.3016 12.4765 -8.55347e-17)
(22.1064 12.9489 -5.2452e-18)
(22.9625 13.3361 5.53195e-17)
(23.8712 13.634 0)
(24.8183 13.8314 -1.22234e-16)
(25.794 13.9202 2.759e-16)
(26.7916 13.894 -5.90438e-16)
(27.7972 13.7459 -3.44705e-16)
(28.7976 13.4707 -3.68144e-16)
(29.7768 13.0649 9.46763e-16)
(30.715 12.5277 1.05967e-15)
(31.5908 11.8618 -1.16848e-15)
(32.3815 11.074 -1.18728e-15)
(33.0654 10.1762 0)
(33.6208 9.18338 3.39215e-16)
(34.0252 8.11645 -6.55352e-16)
(34.2636 7.00245 1.60292e-16)
(34.3345 5.87416 3.04697e-18)
(34.2448 4.76608 2.58635e-15)
(33.9995 3.71006 -1.41187e-16)
(33.6063 2.73055 8.76445e-17)
(33.0949 1.84564 2.56183e-16)
(32.5131 1.04783 2.71592e-16)
(31.8812 0.313362 8.15137e-16)
(31.1658 -0.33945 -1.61954e-15)
(30.3692 -0.878143 -1.29681e-15)
(29.5157 -1.31688 -4.90887e-15)
(28.572 -1.59391 3.98018e-15)
(27.6995 -1.63969 -5.22972e-17)
(26.8812 -1.8934 2.61264e-15)
(26.1908 -2.84523 -1.09109e-16)
(25.515 -3.73568 7.142e-17)
(22.4762 -2.92283 9.73046e-18)
(14.8784 -0.7767 -2.42196e-15)
(18.0745 8.80819 4.98731e-17)
(17.7845 8.16285 -1.42989e-16)
(17.5275 7.40341 2.67795e-16)
(17.3071 6.55832 0)
(17.1725 5.67899 5.99262e-16)
(17.1298 4.75219 0)
(17.1899 3.80442 0)
(17.3503 2.89159 0)
(17.5999 2.04789 1.05567e-15)
(17.9284 1.2776 -5.00493e-16)
(18.32 0.590295 5.62939e-16)
(18.7579 -0.00659518 0)
(19.2342 -0.518854 0)
(19.7416 -0.952378 -4.63062e-16)
(20.2727 -1.30974 0)
(20.8232 -1.59563 3.96145e-16)
(21.3882 -1.81327 5.25182e-18)
(21.9628 -1.96534 0)
(22.5428 -2.05391 -4.20216e-16)
(23.1242 -2.08056 -5.90006e-16)
(23.703 -2.04543 -3.86837e-16)
(24.2749 -1.94738 -2.98572e-16)
(24.8337 -1.78378 4.53033e-16)
(25.3695 -1.55308 0)
(25.8661 -1.25811 9.15834e-17)
(26.3073 -0.908898 3.83451e-17)
(26.6843 -0.520093 -9.55427e-18)
(26.9957 -0.104383 0)
(27.241 0.328162 6.58914e-18)
(27.4162 0.768049 6.84971e-17)
(27.518 1.20566 -3.31423e-16)
(27.5537 1.63274 -2.28682e-17)
(27.526 2.04221 6.6362e-16)
(27.4295 2.42413 -5.4937e-16)
(27.2599 2.77439 -3.55569e-18)
(27.0366 3.07855 -1.32403e-17)
(26.6478 3.36006 1.35979e-15)
(26.223 3.4479 4.4115e-16)
(25.2003 3.52477 3.37662e-15)
(19.0316 9.06417 8.01007e-18)
(19.4085 9.63657 -3.49212e-17)
(19.8829 10.2411 0)
(20.4328 10.8292 -1.45409e-16)
(21.0354 11.361 0)
(21.7174 11.8562 0)
(22.4579 12.2909 2.31026e-17)
(23.2435 12.6488 6.22946e-17)
(24.0768 12.9269 1.74816e-16)
(24.9443 13.1154 5.69406e-16)
(25.8383 13.2075 3.69409e-16)
(26.7537 13.1972 4.68694e-16)
(27.6792 13.078 0)
(28.6043 12.8441 1.03905e-15)
(29.5158 12.4909 -3.73843e-16)
(30.3961 12.0159 0)
(31.2259 11.4194 9.6519e-16)
(31.9838 10.7056 1.13355e-15)
(32.648 9.88367 0)
(33.1977 8.96644 1.1941e-15)
(33.6097 7.97385 -1.17247e-15)
(33.8677 6.93059 0)
(33.9688 5.86697 -1.39583e-16)
(33.9182 4.8146 2.33806e-17)
(33.7186 3.80216 6.62944e-17)
(33.374 2.85248 9.99391e-16)
(32.9094 1.98301 -3.52558e-18)
(32.366 1.19317 -2.66324e-17)
(31.7681 0.46661 -2.23285e-17)
(31.0875 -0.183979 4.87244e-17)
(30.3207 -0.72858 1.29746e-15)
(29.4977 -1.17578 4.41334e-15)
(28.5936 -1.46627 4.17433e-17)
(27.7287 -1.53988 -2.81845e-15)
(26.9286 -1.85112 -2.4001e-15)
(26.238 -2.80803 -4.65506e-15)
(25.3043 -3.44621 -2.82217e-15)
(21.9485 -2.2782 1.14883e-17)
(14.6949 -0.254382 2.15695e-15)
(18.7168 8.48284 -1.00039e-16)
(18.4425 7.88998 -3.35313e-16)
(18.1945 7.19244 6.35797e-16)
(17.9779 6.41414 0)
(17.8395 5.60365 9.31253e-16)
(17.7836 4.74812 0)
(17.8204 3.87094 -4.33159e-16)
(17.9485 3.02455 1.71772e-15)
(18.1578 2.24053 -1.29785e-15)
(18.439 1.52211 0)
(18.7778 0.877633 9.05879e-16)
(19.1595 0.313932 8.54712e-16)
(19.5773 -0.174948 0)
(20.0259 -0.594665 -8.00445e-16)
(20.4994 -0.947309 1.85308e-16)
(20.9952 -1.23683 -1.85639e-16)
(21.5099 -1.46509 1.73354e-16)
(22.0394 -1.63319 2.91832e-16)
(22.5797 -1.74166 -1.65981e-17)
(23.1268 -1.79073 3.20631e-16)
(23.6763 -1.77959 7.84957e-17)
(24.2231 -1.70671 -8.21525e-17)
(24.7609 -1.56962 -2.1829e-16)
(25.2797 -1.36714 1.63565e-16)
(25.7642 -1.10196 -8.08415e-17)
(26.199 -0.782568 -4.13396e-17)
(26.5747 -0.421594 8.99256e-18)
(26.8886 -0.0308952 5.62259e-19)
(27.139 0.379727 -6.77804e-18)
(27.3211 0.801068 -6.45829e-17)
(27.4311 1.22358 1.24061e-17)
(27.4755 1.63856 -2.22244e-17)
(27.457 2.03844 -5.71283e-16)
(27.3696 2.41265 5.5402e-16)
(27.2093 2.756 -1.20728e-17)
(26.9927 3.05218 6.18831e-16)
(26.6192 3.32056 -6.10322e-16)
(26.2065 3.3879 0)
(25.2518 3.41824 -3.1615e-15)
(19.589 8.71897 1.8075e-17)
(19.9427 9.24762 0)
(20.3877 9.80568 0)
(20.9018 10.3474 2.4664e-16)
(21.4616 10.836 -2.13114e-17)
(22.0936 11.2912 0)
(22.7778 11.6912 0)
(23.5018 12.0212 -1.43438e-16)
(24.2685 12.2796 -1.34445e-17)
(25.0659 12.4576 -2.02504e-17)
(25.8871 12.5493 -8.57441e-16)
(26.7287 12.5496 -2.53206e-16)
(27.5811 12.4525 4.97193e-16)
(28.436 12.2522 -4.69201e-17)
(29.2825 11.9436 0)
(30.1056 11.523 0)
(30.888 10.9891 -2.62753e-15)
(31.6097 10.3438 -5.00551e-16)
(32.25 9.59404 5.14208e-16)
(32.7885 8.75031 -1.15474e-15)
(33.2032 7.82977 2.19998e-15)
(33.4765 6.85454 1.04218e-15)
(33.6039 5.85264 -1.00961e-15)
(33.5892 4.85368 -1.14234e-15)
(33.4325 3.88394 1.80133e-16)
(33.1346 2.96468 -9.75956e-16)
(32.7156 2.11315 -1.10085e-16)
(32.2112 1.3337 2.45512e-17)
(31.6475 0.616494 -2.44629e-17)
(31.0035 -0.030417 8.11058e-17)
(30.2697 -0.580214 -3.35369e-17)
(29.4719 -1.03561 -2.1639e-15)
(28.593 -1.33985 -7.10688e-17)
(27.7617 -1.44794 7.82181e-17)
(27.0353 -1.82093 0)
(26.3069 -2.74973 4.26067e-15)
(25.0563 -3.08946 2.44548e-15)
(21.5695 -1.66484 0)
(14.8492 0.127349 0)
(19.2911 8.18235 0)
(19.03 7.63697 2.94199e-16)
(18.7901 6.99482 -9.2758e-16)
(18.5785 6.27485 -4.00598e-16)
(18.4382 5.52521 -8.30052e-16)
(18.3723 4.73283 0)
(18.3907 3.91859 0)
(18.4928 3.1318 -7.69523e-16)
(18.6692 2.40186 7.81242e-16)
(18.9113 1.73111 0)
(19.2063 1.12699 -3.79635e-16)
(19.5407 0.595876 -3.97693e-16)
(19.9088 0.131711 3.67699e-16)
(20.3063 -0.271318 3.6946e-16)
(20.7288 -0.615216 -6.81198e-16)
(21.1748 -0.903415 0)
(21.6422 -1.13713 -1.42227e-16)
(22.1279 -1.31643 1.39692e-17)
(22.6286 -1.44072 5.99672e-16)
(23.1408 -1.50902 -9.61864e-17)
(23.6598 -1.51954 9.15822e-17)
(24.1803 -1.47026 -6.32877e-17)
(24.6959 -1.35858 8.64822e-17)
(25.1968 -1.18335 -3.41589e-16)
(25.6684 -0.946949 -9.89495e-17)
(26.0956 -0.656532 4.89742e-17)
(26.4688 -0.323156 -1.78891e-18)
(26.7841 0.0421328 0)
(27.0387 0.429758 4.22061e-18)
(27.2271 0.830718 -4.49303e-17)
(27.3448 1.23549 1.2651e-16)
(27.3977 1.63549 -2.77289e-16)
(27.3883 2.02339 1.04451e-15)