/*--------------------------------*- C++ -*----------------------------------*\
| =========                 |                                                 |
| \\      /  F ield         | OpenFOAM: The Open Source CFD Toolbox           |
|  \\    /   O peration     | Version:  2312                                  |
|   \\  /    A nd           | Website:  www.openfoam.com                      |
|    \\/     M anipulation  |                                                 |
\*---------------------------------------------------------------------------*/
FoamFile
{
    version     2.0;
    format      ascii;
    arch        "LSB;label=32;scalar=64";
    class       volScalarField;
    location    "14.029972859866092";
    object      p;
}
// * * * * * * * * * * * * * * * * * * * * * * * * * * * * * * * * * * * * * //

dimensions      [0 2 -2 0 0 0 0];

internalField   nonuniform List<scalar> 
21039
(
0.579303
0.44554
0.403483
0.375316
0.3541
0.338143
0.325842
0.316093
0.308214
0.301754
0.296397
0.29191
0.288124
0.284906
0.282153
0.279782
0.277726
0.275927
0.274338
0.272916
0.271628
0.270441
0.269326
0.268314
0.26743
0.266637
0.265898
0.265187
0.264492
0.432139
0.394377
0.380654
0.362365
0.345711
0.332549
0.321935
0.313236
0.306058
0.300091
0.29509
0.29087
0.287289
0.284232
0.281609
0.279344
0.277376
0.275652
0.274127
0.272762
0.271521
0.270374
0.269292
0.268303
0.267428
0.266637
0.2659
0.265189
0.264495
0.342618
0.340318
0.342592
0.335942
0.327618
0.319949
0.312833
0.306452
0.300881
0.296059
0.291898
0.288312
0.285219
0.282548
0.280236
0.278229
0.276477
0.274938
0.273574
0.272349
0.271233
0.270195
0.269211
0.268298
0.267478
0.266728
0.266022
0.265337
0.264664
0.30438
0.30656
0.311154
0.310193
0.307704
0.304616
0.300954
0.297189
0.293586
0.290248
0.28722
0.284513
0.282115
0.280005
0.278153
0.27653
0.275106
0.273851
0.272736
0.271734
0.270818
0.269963
0.269145
0.268373
0.267664
0.267001
0.266363
0.265732
0.2651
0.279168
0.283183
0.289204
0.291055
0.2914
0.290815
0.289432
0.287665
0.285734
0.283767
0.281858
0.280068
0.278427
0.276946
0.275626
0.274459
0.273432
0.272527
0.271727
0.27101
0.270357
0.269744
0.269152
0.268577
0.268025
0.267484
0.266944
0.266389
0.265814
0.25929
0.26458
0.272063
0.276086
0.27825
0.279215
0.27931
0.278917
0.278218
0.277338
0.276381
0.275415
0.274489
0.27363
0.272856
0.272171
0.271576
0.271062
0.27062
0.270236
0.269893
0.269573
0.269259
0.268929
0.268573
0.268187
0.267769
0.267311
0.266812
0.246241
0.251286
0.258509
0.263619
0.267012
0.269126
0.270326
0.270958
0.2712
0.271183
0.271012
0.270759
0.270476
0.2702
0.269955
0.269755
0.269605
0.269507
0.269455
0.26944
0.26945
0.26947
0.269484
0.269444
0.269323
0.269126
0.268857
0.268512
0.268102
0.238621
0.242734
0.248593
0.253712
0.257601
0.260373
0.262314
0.263694
0.264662
0.265339
0.265823
0.266183
0.266474
0.266734
0.266993
0.267267
0.267567
0.267899
0.26826
0.268645
0.269046
0.269447
0.269835
0.270135
0.270295
0.270324
0.270235
0.270029
0.269717
0.233732
0.236936
0.241412
0.246076
0.249966
0.252967
0.255296
0.25715
0.258635
0.259844
0.260858
0.261738
0.262533
0.263282
0.264012
0.264744
0.26549
0.266258
0.267049
0.26786
0.268684
0.269508
0.270319
0.271011
0.271498
0.271795
0.271921
0.271884
0.271699
0.229913
0.232363
0.235787
0.239919
0.243624
0.246648
0.249151
0.251278
0.253106
0.254705
0.256134
0.257443
0.258674
0.25986
0.261028
0.262197
0.263381
0.264587
0.26582
0.267077
0.268354
0.26964
0.270923
0.27206
0.272925
0.273533
0.273912
0.274075
0.27404
0.226462
0.228306
0.230973
0.234593
0.238063
0.24104
0.243621
0.24591
0.247971
0.249855
0.251609
0.253272
0.254878
0.256454
0.258025
0.259609
0.261218
0.262862
0.264544
0.266265
0.26802
0.269803
0.271604
0.27324
0.274535
0.275504
0.27618
0.276579
0.276722
0.223064
0.224459
0.226588
0.229739
0.232962
0.235861
0.23847
0.240861
0.243086
0.245188
0.247203
0.249161
0.251091
0.253018
0.254961
0.256937
0.258959
0.261037
0.263173
0.265369
0.267623
0.269931
0.272288
0.274472
0.27625
0.277631
0.278651
0.279325
0.279678
0.21956
0.22064
0.222394
0.225142
0.228124
0.230928
0.23353
0.23598
0.238323
0.240594
0.24282
0.245028
0.247242
0.249483
0.25177
0.254119
0.256542
0.259048
0.261639
0.264316
0.26708
0.269929
0.272867
0.275633
0.277936
0.279775
0.281184
0.282176
0.282773
0.215883
0.216743
0.218227
0.220637
0.223397
0.226098
0.228672
0.231152
0.233576
0.235976
0.238373
0.240792
0.243253
0.245777
0.248383
0.251087
0.253899
0.256826
0.25987
0.26303
0.266304
0.269692
0.273206
0.276551
0.279386
0.281704
0.283532
0.284875
0.28575
0.212014
0.21272
0.213992
0.216103
0.218649
0.221239
0.223772
0.226261
0.228739
0.231234
0.233767
0.236359
0.239033
0.24181
0.244711
0.24775
0.250938
0.25428
0.257776
0.26142
0.265201
0.269112
0.27316
0.277014
0.280308
0.283051
0.285279
0.286981
0.288161
0.208285
0.208878
0.209981
0.211868
0.214239
0.216725
0.21921
0.221693
0.224203
0.226763
0.229396
0.232122
0.234968
0.237958
0.241114
0.244453
0.247986
0.25172
0.255649
0.259759
0.26402
0.268394
0.272851
0.276988
0.280433
0.283273
0.285617
0.287492
0.288897
0.205088
0.205606
0.206602
0.208344
0.210581
0.212976
0.215418
0.217898
0.220433
0.223043
0.225752
0.228584
0.23157
0.234738
0.238111
0.241711
0.245554
0.249648
0.253986
0.258542
0.263266
0.268069
0.272842
0.277017
0.280161
0.282441
0.284131
0.285496
0.28677
0.202408
0.202876
0.203797
0.20543
0.207564
0.209898
0.212328
0.214824
0.21739
0.220047
0.222823
0.225752
0.228863
0.232189
0.23576
0.239603
0.243741
0.248185
0.252931
0.25795
0.263175
0.268472
0.273629
0.27782
0.280357
0.281273
0.280857
0.279652
0.278784
0.200215
0.20073
0.201666
0.203191
0.205153
0.207381
0.209801
0.212335
0.214949
0.217663
0.220512
0.223537
0.226773
0.230255
0.23402
0.238103
0.242533
0.247332
0.252502
0.258021
0.263823
0.269757
0.27555
0.280128
0.282353
0.281705
0.277853
0.270254
0.258749
0.263809
0.26312
0.262436
0.261757
0.261081
0.260407
0.259733
0.25906
0.258385
0.257709
0.25703
0.256348
0.255661
0.25497
0.254272
0.253568
0.252858
0.252139
0.251413
0.250679
0.249937
0.249186
0.248426
0.247657
0.24688
0.246095
0.245302
0.2445
0.243692
0.242876
0.242054
0.241225
0.240391
0.239553
0.23871
0.237865
0.237017
0.236167
0.235318
0.234469
0.233621
0.232776
0.231934
0.231097
0.230265
0.229439
0.228621
0.22781
0.227008
0.263815
0.263136
0.262463
0.261795
0.261129
0.260465
0.259801
0.259138
0.258473
0.257806
0.257137
0.256463
0.255784
0.2551
0.25441
0.253712
0.253007
0.252294
0.251571
0.25084
0.2501
0.24935
0.24859
0.247821
0.247043
0.246255
0.245458
0.244653
0.243839
0.243018
0.242189
0.241354
0.240512
0.239665
0.238814
0.237959
0.237102
0.236242
0.235382
0.234522
0.233662
0.232805
0.231952
0.231102
0.230258
0.229419
0.228589
0.227766
0.226952
0.264008
0.263355
0.262707
0.262063
0.26142
0.260779
0.260138
0.259495
0.258849
0.258201
0.257547
0.256888
0.256223
0.25555
0.254869
0.254179
0.253479
0.252769
0.252049
0.251317
0.250574
0.24982
0.249055
0.248278
0.247489
0.24669
0.24588
0.245059
0.244229
0.24339
0.242541
0.241685
0.240822
0.239952
0.239076
0.238196
0.237312
0.236426
0.235538
0.234649
0.23376
0.232873
0.231989
0.231108
0.230232
0.229362
0.228499
0.227644
0.226797
0.264482
0.263868
0.263257
0.262648
0.262039
0.261429
0.260817
0.260201
0.25958
0.258953
0.258319
0.257677
0.257026
0.256364
0.255692
0.255008
0.254311
0.253601
0.252877
0.25214
0.251389
0.250623
0.249843
0.24905
0.248242
0.247421
0.246587
0.24574
0.244881
0.244011
0.24313
0.242239
0.241339
0.240431
0.239515
0.238594
0.237668
0.236737
0.235804
0.234868
0.233933
0.232997
0.232063
0.231132
0.230205
0.229283
0.228367
0.227458
0.226558
0.265245
0.264683
0.26412
0.263556
0.262989
0.262418
0.261842
0.261259
0.260667
0.260066
0.259454
0.258831
0.258194
0.257544
0.256879
0.256198
0.255501
0.254786
0.254055
0.253306
0.25254
0.251756
0.250954
0.250135
0.249298
0.248446
0.247576
0.246692
0.245792
0.244879
0.243952
0.243013
0.242063
0.241102
0.240132
0.239154
0.23817
0.237179
0.236184
0.235186
0.234186
0.233185
0.232184
0.231185
0.230189
0.229197
0.228209
0.227228
0.226254
0.266306
0.265806
0.265302
0.264794
0.264279
0.263756
0.263224
0.26268
0.262123
0.261552
0.260966
0.260363
0.259742
0.259103
0.258444
0.257764
0.257064
0.256341
0.255597
0.254831
0.254043
0.253233
0.2524
0.251547
0.250672
0.249776
0.248861
0.247927
0.246974
0.246004
0.245018
0.244017
0.243002
0.241974
0.240934
0.239884
0.238825
0.237759
0.236685
0.235607
0.234526
0.233442
0.232357
0.231272
0.230188
0.229108
0.228031
0.22696
0.225896
0.267699
0.267298
0.266814
0.266385
0.265935
0.265469
0.264988
0.264491
0.263974
0.263438
0.262881
0.262301
0.261697
0.261069
0.260414
0.259734
0.259027
0.258292
0.25753
0.25674
0.255923
0.255078
0.254207
0.253309
0.252385
0.251436
0.250462
0.249466
0.248447
0.247407
0.246347
0.245269
0.244173
0.243062
0.241936
0.240797
0.239646
0.238486
0.237317
0.236142
0.23496
0.233775
0.232587
0.231398
0.230209
0.229022
0.227837
0.226657
0.225485
0.269399
0.269085
0.268755
0.26841
0.267994
0.267598
0.267176
0.266726
0.266254
0.265757
0.265231
0.264675
0.264089
0.263471
0.26282
0.262136
0.261419
0.260667
0.259881
0.259061
0.258208
0.25732
0.2564
0.255448
0.254464
0.253449
0.252405
0.251333
0.250234
0.24911
0.247961
0.246789
0.245597
0.244385
0.243155
0.24191
0.240649
0.239377
0.238093
0.2368
0.2355
0.234194
0.232884
0.231571
0.230257
0.228943
0.227631
0.226323
0.225024
0.271492
0.271277
0.271032
0.27077
0.270488
0.270177
0.269836
0.26939
0.268983
0.268531
0.268038
0.267509
0.266941
0.266334
0.265686
0.264997
0.264266
0.263493
0.262679
0.261823
0.260926
0.259988
0.259011
0.257994
0.25694
0.255848
0.254721
0.25356
0.252366
0.251142
0.249888
0.248607
0.2473
0.245969
0.244616
0.243244
0.241853
0.240448
0.239028
0.237597
0.236156
0.234707
0.233252
0.231793
0.230332
0.22887
0.227408
0.225952
0.224505
0.273967
0.273875
0.273739
0.27357
0.273367
0.273129
0.272861
0.272556
0.272205
0.2718
0.27131
0.270817
0.270273
0.269679
0.269034
0.268339
0.267594
0.266799
0.265953
0.265057
0.264112
0.263118
0.262076
0.260987
0.259852
0.258673
0.257451
0.256189
0.254886
0.253545
0.252169
0.250759
0.249319
0.247848
0.246351
0.24483
0.243286
0.241723
0.240142
0.238547
0.23694
0.235322
0.233697
0.232066
0.230432
0.228796
0.22716
0.225529
0.223912
0.276804
0.276852
0.276843
0.27679
0.276692
0.276547
0.276354
0.27611
0.275816
0.275472
0.275075
0.274618
0.274093
0.273515
0.27288
0.272185
0.271429
0.270614
0.269739
0.268804
0.26781
0.266759
0.265649
0.264483
0.263262
0.261987
0.26066
0.259283
0.257857
0.256385
0.254868
0.25331
0.251713
0.250078
0.248411
0.246714
0.244987
0.243237
0.241465
0.239674
0.237868
0.236049
0.23422
0.232384
0.230545
0.228703
0.22686
0.225026
0.223208
0.27994
0.280145
0.280281
0.280362
0.280387
0.280354
0.28026
0.280105
0.279888
0.279608
0.279264
0.278856
0.278383
0.277842
0.277231
0.276551
0.275801
0.274981
0.27409
0.273127
0.272094
0.270992
0.269818
0.268577
0.267269
0.265893
0.264454
0.262953
0.261389
0.259768
0.25809
0.256359
0.254579
0.252751
0.25088
0.248971
0.247024
0.245046
0.243041
0.241011
0.238963
0.236897
0.234821
0.232735
0.230646
0.228555
0.226464
0.224385
0.222328
0.283244
0.283625
0.283925
0.284162
0.284332
0.284434
0.284468
0.28443
0.284323
0.284141
0.283887
0.283557
0.283153
0.282673
0.282113
0.281477
0.280769
0.279974
0.279098
0.278133
0.277084
0.27595
0.274728
0.273424
0.272035
0.270561
0.269007
0.267373
0.265658
0.263869
0.262006
0.260072
0.258073
0.25601
0.25389
0.25172
0.249498
0.247236
0.244937
0.242607
0.240253
0.237877
0.235489
0.23309
0.230689
0.228289
0.225891
0.223511
0.221163
0.28646
0.287037
0.287528
0.287952
0.288305
0.288587
0.288797
0.288931
0.288991
0.288971
0.288872
0.288687
0.288417
0.288062
0.287616
0.287079
0.286444
0.285719
0.284932
0.284013
0.28299
0.281862
0.280623
0.279281
0.277831
0.276269
0.274603
0.272831
0.270949
0.268968
0.266887
0.264707
0.262439
0.260081
0.257645
0.255137
0.252558
0.249925
0.247239
0.244513
0.241755
0.238969
0.236171
0.233363
0.230557
0.227758
0.22497
0.222211
0.219499
0.289137
0.289925
0.290639
0.291303
0.291911
0.292464
0.292954
0.293375
0.293721
0.293979
0.29415
0.294221
0.294193
0.294065
0.293829
0.293489
0.293031
0.292451
0.291747
0.291046
0.290104
0.289039
0.287839
0.286505
0.28503
0.283405
0.28164
0.279728
0.277665
0.275462
0.273117
0.270632
0.268021
0.265281
0.262428
0.259471
0.256413
0.253275
0.250063
0.246794
0.243481
0.240133
0.236772
0.233405
0.230051
0.226719
0.223415
0.220165
0.216992
0.290106
0.291059
0.292034
0.293069
0.294128
0.295186
0.2962
0.297141
0.297986
0.298711
0.299316
0.299786
0.300128
0.300342
0.300424
0.300382
0.300206
0.299898
0.299437
0.298801
0.298168
0.297251
0.296169
0.29492
0.293483
0.291845
0.290012
0.287975
0.285725
0.283275
0.280622
0.277768
0.274729
0.271505
0.268117
0.264578
0.260894
0.257093
0.253185
0.249193
0.245138
0.241034
0.236915
0.232794
0.228705
0.224668
0.2207
0.21684
0.213121
0.288138
0.289152
0.290562
0.292363
0.294345
0.296353
0.298253
0.299981
0.301508
0.302814
0.303923
0.304833
0.305573
0.306156
0.306584
0.306878
0.307024
0.307037
0.306912
0.306596
0.306114
0.305497
0.304639
0.303566
0.302253
0.300676
0.298838
0.296721
0.294312
0.291624
0.288651
0.285398
0.281888
0.278121
0.274128
0.269928
0.26553
0.260975
0.256272
0.251453
0.246542
0.241556
0.236536
0.231501
0.2265
0.221573
0.216766
0.212157
0.207811
0.278708
0.280134
0.283736
0.288206
0.29256
0.296431
0.2997
0.302409
0.304641
0.306469
0.307989
0.309242
0.310293
0.311178
0.311911
0.312524
0.313005
0.313368
0.313612
0.313686
0.313586
0.313306
0.312783
0.311996
0.31091
0.309486
0.307717
0.305573
0.303028
0.300102
0.296785
0.293088
0.289042
0.284654
0.279971
0.27502
0.269821
0.264428
0.258856
0.253145
0.247318
0.241386
0.235386
0.229318
0.223222
0.217136
0.211141
0.205431
0.200274
0.250252
0.261259
0.274078
0.28463
0.292515
0.298272
0.302484
0.305652
0.308115
0.310082
0.31171
0.313072
0.314256
0.315304
0.316242
0.317112
0.317899
0.318622
0.31927
0.319781
0.320139
0.320284
0.320227
0.319814
0.319065
0.317908
0.31631
0.314219
0.311599
0.30847
0.304827
0.300686
0.296094
0.291069
0.285676
0.279962
0.273959
0.26774
0.261333
0.254787
0.248132
0.241371
0.234525
0.227549
0.220412
0.213037
0.20535
0.197426
0.189848
0.226223
0.225417
0.224554
0.223626
0.222616
0.221516
0.220353
0.219268
0.218367
0.217679
0.217242
0.217088
0.217263
0.217813
0.218791
0.220263
0.222307
0.225024
0.22854
0.233023
0.238699
0.24588
0.255014
0.266779
0.282274
0.303104
0.330961
0.372734
0.506273
0.226153
0.225329
0.224448
0.223495
0.222453
0.221315
0.220106
0.21897
0.218016
0.217274
0.216778
0.216562
0.216666
0.217131
0.218009
0.219357
0.221248
0.223767
0.227024
0.231157
0.236349
0.242835
0.250925
0.261008
0.273711
0.289972
0.307946
0.321381
0.358937
0.225965
0.225104
0.224176
0.223166
0.222054
0.22083
0.219517
0.218264
0.217188
0.216316
0.21568
0.215309
0.215236
0.215496
0.21613
0.217181
0.218702
0.220749
0.22339
0.226701
0.230762
0.235657
0.24144
0.248035
0.255251
0.263181
0.2695
0.266915
0.269016
0.225669
0.224745
0.223742
0.222642
0.221421
0.220065
0.218591
0.217158
0.215892
0.21482
0.213968
0.213359
0.213019
0.212972
0.213244
0.21386
0.214846
0.216224
0.218012
0.220215
0.222817
0.225765
0.228953
0.232108
0.234754
0.236854
0.237475
0.232564
0.230206
0.225288
0.224278
0.223173
0.221953
0.220587
0.219054
0.217368
0.215701
0.214192
0.212866
0.211743
0.210841
0.210175
0.209761
0.20961
0.20973
0.210123
0.210782
0.211689
0.212808
0.214072
0.215379
0.216596
0.217495
0.217657
0.216938
0.214753
0.20844
0.204278
0.224833
0.223715
0.222483
0.221112
0.219565
0.217815
0.215871
0.213922
0.212126
0.210504
0.209072
0.207842
0.206822
0.206018
0.205429
0.205051
0.20487
0.204862
0.204993
0.205207
0.205427
0.205543
0.205424
0.204879
0.203522
0.20101
0.196678
0.188935
0.18353
0.224307
0.223057
0.221672
0.220119
0.218356
0.216348
0.214101
0.211825
0.209703
0.207752
0.205984
0.204405
0.203019
0.201823
0.200809
0.199962
0.199261
0.198672
0.198152
0.197639
0.197053
0.196283
0.195188
0.193585
0.191121
0.187419
0.182037
0.174597
0.169466
0.223707
0.222303
0.220735
0.218967
0.21695
0.214643
0.212046
0.209403
0.20692
0.204614
0.202491
0.200555
0.198803
0.197228
0.195814
0.194542
0.193382
0.192299
0.191242
0.19015
0.188942
0.187513
0.185734
0.18345
0.180384
0.176239
0.170901
0.164872
0.160702
0.223028
0.22144
0.21966
0.217641
0.215329
0.212677
0.209685
0.206634
0.203761
0.201079
0.198593
0.1963
0.194194
0.192261
0.190484
0.188837
0.187288
0.185798
0.184317
0.182786
0.181134
0.179273
0.1771
0.174501
0.171276
0.1672
0.162382
0.15779
0.15455
0.222247
0.220445
0.218416
0.216107
0.213455
0.210409
0.206976
0.203478
0.200189
0.197118
0.194266
0.191626
0.189186
0.18693
0.184834
0.18287
0.181004
0.179197
0.177403
0.175569
0.173635
0.171532
0.169182
0.166499
0.163337
0.159528
0.155316
0.151831
0.149361
0.221322
0.219271
0.216951
0.214303
0.21126
0.207769
0.203844
0.199864
0.196139
0.192674
0.189463
0.186495
0.183752
0.181212
0.178847
0.176628
0.17452
0.172483
0.170476
0.168451
0.166358
0.164143
0.161742
0.159089
0.156074
0.152596
0.148977
0.146301
0.144449
0.22018
0.217833
0.215173
0.212131
0.208638
0.204644
0.200178
0.195685
0.191512
0.187656
0.184105
0.180839
0.177833
0.175058
0.172483
0.170074
0.167795
0.165607
0.163471
0.161344
0.159183
0.156942
0.154571
0.152013
0.14919
0.146066
0.143
0.14091
0.139518
0.218697
0.215998
0.212934
0.209432
0.205423
0.200866
0.195815
0.190788
0.186171
0.181946
0.17809
0.174571
0.171355
0.168405
0.165683
0.163153
0.160775
0.15851
0.15632
0.154166
0.152009
0.14981
0.147529
0.145114
0.142515
0.139746
0.13717
0.135498
0.134428
0.216644
0.21352
0.209978
0.205941
0.201349
0.196179
0.190516
0.184963
0.179931
0.175386
0.171283
0.167577
0.164221
0.161169
0.158377
0.1558
0.153397
0.151129
0.148958
0.146845
0.144756
0.142658
0.140514
0.13828
0.135925
0.133498
0.131345
0.129979
0.129131
0.213651
0.210014
0.20591
0.201266
0.196039
0.190235
0.183978
0.17795
0.172579
0.167798
0.163539
0.159739
0.156336
0.153272
0.150495
0.147957
0.14561
0.143415
0.141333
0.139327
0.137365
0.135416
0.133447
0.131423
0.129327
0.127237
0.125461
0.124333
0.123633
0.209223
0.205028
0.20035
0.195125
0.189338
0.183019
0.176325
0.169993
0.164445
0.159583
0.155313
0.151551
0.148221
0.145255
0.142594
0.140183
0.137975
0.135925
0.133995
0.13215
0.130358
0.12859
0.126818
0.125015
0.123177
0.121385
0.11991
0.118971
0.118371
0.203304
0.198557
0.193419
0.187816
0.181717
0.175151
0.168285
0.161883
0.156356
0.151578
0.147437
0.143831
0.140674
0.13789
0.135415
0.133191
0.131168
0.129303
0.127556
0.125892
0.124281
0.122695
0.121113
0.119521
0.117924
0.116389
0.115142
0.114342
0.113813
0.195216
0.190197
0.185081
0.179563
0.173533
0.167024
0.160233
0.153958
0.148604
0.144032
0.140117
0.136746
0.133823
0.13127
0.129018
0.12701
0.125194
0.123529
0.121974
0.120496
0.119063
0.117647
0.11623
0.114812
0.11342
0.11211
0.111059
0.11038
0.109911
0.183674
0.179733
0.175689
0.170816
0.165197
0.158976
0.152439
0.146429
0.141352
0.137067
0.133437
0.130344
0.127687
0.125385
0.12337
0.121583
0.119977
0.118509
0.11714
0.115837
0.114567
0.113297
0.112016
0.110765
0.109618
0.108596
0.107743
0.107109
0.10662
0.198005
0.198297
0.199053
0.200604
0.202755
0.205181
0.207721
0.210311
0.212966
0.215733
0.21866
0.221788
0.225155
0.2288
0.232764
0.237088
0.24181
0.246959
0.252544
0.258552
0.264926
0.271513
0.278001
0.283155
0.285438
0.283595
0.276028
0.260348
0.228297
0.195788
0.196206
0.197075
0.198606
0.200667
0.203014
0.205514
0.208108
0.210807
0.213648
0.216672
0.219919
0.22343
0.227248
0.231418
0.23599
0.241008
0.246511
0.252526
0.259061
0.266105
0.273574
0.281243
0.28799
0.292337
0.293508
0.290917
0.285914
0.28959
0.193521
0.194024
0.194974
0.196493
0.198478
0.200744
0.203183
0.205756
0.208472
0.21136
0.214455
0.217794
0.22142
0.225381
0.22973
0.234524
0.239822
0.245683
0.252163
0.259321
0.267245
0.276037
0.285791
0.295945
0.305472
0.314412
0.323657
0.330684
0.34656
0.191178
0.191659
0.192581
0.19408
0.196064
0.198329
0.200756
0.203319
0.206041
0.208954
0.212093
0.215497
0.21921
0.223286
0.227784
0.232772
0.238325
0.244526
0.25147
0.259282
0.268169
0.278482
0.290686
0.304879
0.320329
0.336561
0.356304
0.374065
0.396236
0.188762
0.189207
0.190075
0.191539
0.193516
0.195786
0.198213
0.200771
0.203492
0.206416
0.20958
0.213026
0.216802
0.220964
0.225579
0.230725
0.236491
0.242983
0.250338
0.258736
0.268492
0.280195
0.294521
0.312061
0.3323
0.353098
0.379305
0.406792
0.436736
0.186276
0.186702
0.187533
0.188952
0.19089
0.193133
0.195537
0.198077
0.200785
0.203703
0.206871
0.210334
0.21414
0.218351
0.22304
0.22829
0.234206
0.240906
0.248567
0.257397
0.267777
0.280496
0.296087
0.315438
0.338593
0.364423
0.393134
0.423662
0.455242
0.183714
0.184128
0.184933
0.186302
0.18818
0.190368
0.192727
0.195228
0.197902
0.200791
0.203936
0.207382
0.211181
0.215396
0.220102
0.225388
0.231373
0.238163
0.245991
0.255028
0.265683
0.27864
0.295592
0.316435
0.340527
0.367128
0.394979
0.42353
0.452837
0.181073
0.181473
0.182247
0.183561
0.185368
0.187487
0.189782
0.192223
0.194839
0.197672
0.200763
0.204156
0.207903
0.212069
0.216731
0.22197
0.227933
0.234667
0.242501
0.251397
0.262252
0.275545
0.292664
0.313504
0.336716
0.361498
0.386758
0.411998
0.437087
0.178349
0.178735
0.179475
0.180726
0.182452
0.184486
0.186699
0.18906
0.191595
0.194343
0.197346
0.200646
0.204294
0.208353
0.212906
0.218
0.223853
0.23034
0.237999
0.246898
0.257521
0.270477
0.28676
0.306227
0.327315
0.349196
0.371048
0.392562
0.412943
0.175544
0.175915
0.176619
0.177801
0.179432
0.181366
0.183478
0.185737
0.188166
0.1908
0.19368
0.196846
0.200345
0.204235
0.208616
0.213452
0.219039
0.225376
0.232673
0.24118
0.25119
0.263224
0.278017
0.295278
0.313486
0.331831
0.34969
0.36713
0.383101
0.172654
0.173009
0.173674
0.17478
0.176308
0.178128
0.180122
0.182258
0.184555
0.187047
0.189769
0.19276
0.196062
0.199719
0.203822
0.208437
0.21366
0.219616
0.226403
0.234224
0.243323
0.254073
0.266966
0.281561
0.296472
0.31097
0.324609
0.337767
0.349534
0.169682
0.170021
0.170644
0.171671
0.173087
0.174778
0.176637
0.178628
0.180769
0.183089
0.185621
0.188397
0.191457
0.194841
0.198626
0.202889
0.207672
0.213083
0.219209
0.226174
0.234156
0.24339
0.254131
0.265843
0.277353
0.288078
0.297742
0.306865
0.314803
0.166634
0.166961
0.167545
0.168487
0.169778
0.171323
0.173026
0.174851
0.176811
0.178933
0.181243
0.183769
0.186546
0.189611
0.193019
0.196827
0.201081
0.205847
0.211188
0.217169
0.223885
0.231452
0.239927
0.248752
0.257028
0.264349
0.2706
0.27632
0.281106
0.163509
0.16382
0.164357
0.16521
0.166373
0.167765
0.1693
0.170942
0.172701
0.1746
0.176661
0.178904
0.181359
0.184053
0.187027
0.190316
0.193965
0.198006
0.202467
0.207367
0.212727
0.218565
0.2248
0.230921
0.236325
0.240784
0.244317
0.247429
0.249918
0.160316
0.160612
0.161102
0.161863
0.162891
0.16412
0.165472
0.166914
0.168454
0.170112
0.171899
0.173832
0.175929
0.17821
0.180703
0.183428
0.186411
0.189662
0.193177
0.196935
0.200904
0.205033
0.209152
0.212854
0.215827
0.218001
0.219487
0.220747
0.221767
0.157061
0.157344
0.157788
0.158454
0.159341
0.160397
0.161555
0.16278
0.164091
0.165489
0.166982
0.16858
0.170291
0.172126
0.174099
0.176218
0.178489
0.180901
0.183426
0.186011
0.18859
0.191069
0.193236
0.19482
0.195787
0.1962
0.196213
0.196249
0.196471
0.15375
0.154019
0.154412
0.154983
0.155728
0.156609
0.157562
0.15857
0.159636
0.16076
0.161944
0.163188
0.164492
0.165857
0.167283
0.168765
0.170292
0.171834
0.173345
0.174751
0.175965
0.176873
0.177252
0.176998
0.17633
0.175413
0.174395
0.173655
0.173534
0.150394
0.150651
0.150992
0.15147
0.152071
0.152771
0.153516
0.154298
0.155112
0.155955
0.15682
0.157698
0.158582
0.159461
0.160324
0.161151
0.161917
0.162575
0.163065
0.163301
0.163184
0.162598
0.161335
0.159471
0.157451
0.155509
0.15374
0.152479
0.152244
0.147005
0.147253
0.147543
0.147932
0.148381
0.148901
0.149436
0.149985
0.150544
0.151101
0.151641
0.152149
0.152606
0.152992
0.153283
0.153449
0.153448
0.153221
0.152693
0.151771
0.150354
0.148333
0.145529
0.142204
0.139008
0.136221
0.133844
0.132172
0.131902
0.143589
0.143819
0.144071
0.14436
0.144676
0.145009
0.145338
0.145659
0.145965
0.146236
0.146451
0.146588
0.146619
0.146514
0.146238
0.145747
0.144985
0.143882
0.14235
0.140289
0.137597
0.134175
0.129883
0.125168
0.120884
0.117337
0.114411
0.112358
0.112055
0.140158
0.140374
0.140583
0.14078
0.140958
0.141115
0.141244
0.141343
0.1414
0.141391
0.141289
0.141063
0.140678
0.140093
0.139264
0.138133
0.136633
0.134678
0.132169
0.128996
0.125054
0.120247
0.114472
0.108364
0.102992
0.0986853
0.0951934
0.0927359
0.0923791
0.136726
0.13693
0.137095
0.137203
0.137246
0.137235
0.137173
0.137058
0.136875
0.136596
0.136189
0.135615
0.13483
0.133787
0.132428
0.130686
0.128479
0.12571
0.122263
0.118016
0.112848
0.10666
0.0993651
0.0917821
0.0852239
0.080071
0.075929
0.0730062
0.0725822
0.133303
0.133499
0.133625
0.133647
0.133561
0.133389
0.133141
0.132822
0.132413
0.131881
0.131185
0.130282
0.129121
0.127646
0.125789
0.123474
0.120606
0.117073
0.112743
0.107473
0.101118
0.0935506
0.0846736
0.0754583
0.0675044
0.061299
0.0563221
0.0528218
0.0523355
0.1299
0.130086
0.130171
0.13011
0.129903
0.129581
0.129165
0.12866
0.128042
0.127276
0.126314
0.125107
0.123598
0.121724
0.119411
0.116571
0.113098
0.108866
0.103725
0.0975069
0.0900318
0.0811169
0.0706136
0.0595863
0.0499392
0.0423342
0.0361782
0.0318803
0.0313024
0.126527
0.126709
0.12676
0.126623
0.1263
0.125835
0.125261
0.124587
0.123783
0.122806
0.121604
0.120122
0.118301
0.11607
0.11335
0.110043
0.106035
0.101185
0.0953273
0.0882685
0.0797845
0.0696171
0.0575151
0.0445409
0.0328624
0.0233537
0.0154159
0.00990226
0.00918148
0.123195
0.123365
0.123374
0.12316
0.122732
0.122143
0.12144
0.120626
0.119664
0.118504
0.117091
0.115369
0.113273
0.110732
0.10766
0.103953
0.0994884
0.0941162
0.0876566
0.079894
0.0705653
0.0593331
0.0458155
0.0309713
0.0170887
0.00516113
-0.00546672
-0.0129903
-0.0138899
0.119934
0.120147
0.120172
0.119901
0.11934
0.118585
0.117728
0.116779
0.115682
0.11437
0.112782
0.110858
0.108534
0.105737
0.102375
0.0983441
0.0935134
0.0877276
0.0807994
0.0725031
0.062545
0.0505019
0.0358304
0.0193434
0.00335625
-0.0111403
-0.025179
-0.0364088
-0.0391288
0.154088
0.139464
0.118974
0.0930169
0.0644861
0.0370649
0.0131506
-0.00913078
-0.0293217
-0.0521844
-0.075822
-0.104631
-0.134735
-0.163188
-0.186249
-0.201501
-0.208963
-0.210651
-0.20998
0.16138
0.150653
0.130995
0.104083
0.0720471
0.0382344
0.00572342
-0.0278511
-0.0588959
-0.094278
-0.130734
-0.168343
-0.204812
-0.237008
-0.261828
-0.278111
-0.286971
-0.290779
-0.292098
0.157028
0.147532
0.129198
0.10224
0.0679368
0.0293692
-0.00987566
-0.0533662
-0.0971836
-0.142121
-0.18762
-0.23258
-0.274364
-0.309841
-0.336628
-0.354379
-0.364694
-0.369995
-0.372603
0.147353
0.138311
0.121713
0.0954025
0.0590947
0.015642
-0.0318432
-0.0822239
-0.134567
-0.188162
-0.242003
-0.294221
-0.341394
-0.380145
-0.408603
-0.427227
-0.438312
-0.444537
-0.448055
0.135322
0.126983
0.111488
0.0852351
0.047247
0.000441605
-0.052376
-0.109185
-0.169069
-0.230901
-0.292458
-0.350691
-0.4016
-0.442021
-0.47099
-0.489894
-0.501577
-0.508682
-0.51298
0.119004
0.110947
0.0965247
0.0709739
0.0324454
-0.01636
-0.0728146
-0.135258
-0.201878
-0.270564
-0.338069
-0.4004
-0.453423
-0.494634
-0.524051
-0.543722
-0.556721
-0.565446
-0.571259
0.0986475
0.0897077
0.0756076
0.0508215
0.0124951
-0.0373567
-0.0963137
-0.162636
-0.233799
-0.306664
-0.377065
-0.440352
-0.492601
-0.53221
-0.560142
-0.578942
-0.591777
-0.600685
-0.606703
0.0753861
0.064642
0.0497098
0.0248545
-0.0133315
-0.0635421
-0.123618
-0.191595
-0.264518
-0.338503
-0.408681
-0.470166
-0.519667
-0.556608
-0.582696
-0.600646
-0.613411
-0.62254
-0.628849
0.0501215
0.0372178
0.0205928
-0.00530341
-0.0437777
-0.0938974
-0.153778
-0.221392
-0.293502
-0.365675
-0.432642
-0.489759
-0.534658
-0.567719
-0.591117
-0.607518
-0.619574
-0.628416
-0.634573
0.0236389
0.00865693
-0.00999058
-0.0374769
-0.0765769
-0.126352
-0.185123
-0.250919
-0.320332
-0.388604
-0.450452
-0.501878
-0.541549
-0.570619
-0.591481
-0.606602
-0.618275
-0.627305
-0.63391
-0.00317022
-0.0199236
-0.0405303
-0.0697055
-0.109576
-0.158916
-0.216061
-0.278977
-0.34403
-0.406293
-0.460874
-0.504796
-0.537801
-0.561613
-0.578637
-0.591055
-0.600749
-0.608326
-0.613834
-0.0292488
-0.0473154
-0.0695193
-0.100057
-0.140484
-0.189147
-0.2442
-0.303403
-0.362933
-0.418037
-0.464672
-0.501064
-0.527844
-0.546988
-0.560682
-0.570718
-0.578533
-0.584643
-0.589008
-0.0536117
-0.0724607
-0.0957228
-0.127007
-0.167442
-0.214958
-0.267463
-0.322495
-0.376189
-0.424256
-0.463677
-0.493734
-0.515614
-0.531288
-0.542633
-0.551094
-0.557785
-0.56321
-0.567186
-0.0755613
-0.0946995
-0.118472
-0.14984
-0.18965
-0.235461
-0.284896
-0.335239
-0.3827
-0.423686
-0.456274
-0.480623
-0.498213
-0.510849
-0.520069
-0.527004
-0.532489
-0.536996
-0.540272
-0.09468
-0.113688
-0.137469
-0.168313
-0.206874
-0.250403
-0.296267
-0.341585
-0.382866
-0.41739
-0.444247
-0.464185
-0.478725
-0.48939
-0.497365
-0.503498
-0.508403
-0.512497
-0.515488
-0.1109
-0.12946
-0.152843
-0.182684
-0.219516
-0.260354
-0.302415
-0.342804
-0.378501
-0.407651
-0.430106
-0.446913
-0.459479
-0.46903
-0.476462
-0.482404
-0.48733
-0.491577
-0.49478
-0.124479
-0.142395
-0.165109
-0.193662
-0.228468
-0.266327
-0.304352
-0.339769
-0.370189
-0.394606
-0.413433
-0.427805
-0.438905
-0.447655
-0.454696
-0.460477
-0.465362
-0.469587
-0.472779
-0.135798
-0.152965
-0.174855
-0.201985
-0.234643
-0.269436
-0.303461
-0.334224
-0.360045
-0.380632
-0.396729
-0.409405
-0.41958
-0.427904
-0.434802
-0.440573
-0.445496
-0.449725
-0.452913
-0.145323
-0.161714
-0.182733
-0.208457
-0.239053
-0.270983
-0.301405
-0.328176
-0.350263
-0.367887
-0.381947
-0.393381
-0.402878
-0.410872
-0.417633
-0.423351
-0.42825
-0.432435
-0.435586
-0.15355
-0.169195
-0.189408
-0.213852
-0.242523
-0.271728
-0.298747
-0.321892
-0.340753
-0.355925
-0.368325
-0.378709
-0.387548
-0.395104
-0.401531
-0.406952
-0.411554
-0.415416
-0.418284
-0.160853
-0.175839
-0.195406
-0.218785
-0.245746
-0.272474
-0.296457
-0.316508
-0.332737
-0.345952
-0.357007
-0.366478
-0.374663
-0.381703
-0.387677
-0.392666
-0.39683
-0.400249
-0.402749
-0.167536
-0.182028
-0.201206
-0.22376