/*--------------------------------*- C++ -*----------------------------------*\
| =========                 |                                                 |
| \\      /  F ield         | OpenFOAM: The Open Source CFD Toolbox           |
|  \\    /   O peration     | Version:  2312                                  |
|   \\  /    A nd           | Website:  www.openfoam.com                      |
|    \\/     M anipulation  |                                                 |
\*---------------------------------------------------------------------------*/
FoamFile
{
    version     2.0;
    format      ascii;
    arch        "LSB;label=32;scalar=64";
    class       surfaceScalarField;
    location    "28.024233628916193";
    object      phi;
}
// * * * * * * * * * * * * * * * * * * * * * * * * * * * * * * * * * * * * * //

dimensions      [0 3 -1 0 0 0 0];

oriented        oriented;

internalField   nonuniform List<scalar> 
41713
(
0.00736332
0.0568831
0.003627
0.0679828
0.00211499
0.0657584
0.00148205
0.0648794
0.00109575
0.0646327
0.000841013
0.0645012
0.000665267
0.0644222
0.000537594
0.0643741
0.000441382
0.0643426
0.000366978
0.0643208
0.000308256
0.0643052
0.000261162
0.0642935
0.000222932
0.0642847
0.000191625
0.0642777
0.000165851
0.0642722
0.000144589
0.0642677
0.000127078
0.0642639
0.000112738
0.0642608
0.000101115
0.0642581
9.1831e-05
0.0642557
8.45337e-05
0.0642537
7.88685e-05
0.0642521
7.45577e-05
0.0642507
7.14328e-05
0.0548143
6.88154e-05
0.0456786
6.64525e-05
0.0380657
6.43199e-05
0.0317216
6.24212e-05
0.0264348
0.0220291
6.07156e-05
0.00999283
0.0468903
0.00842515
0.0695504
0.00571211
0.0684715
0.00411735
0.0664741
0.00311547
0.0656346
0.00242282
0.0651938
0.00192361
0.0649214
0.00155242
0.0647453
0.00126893
0.0646261
0.00104734
0.0645424
0.000870727
0.0644818
0.000727703
0.0644366
0.000610425
0.0644019
0.000513356
0.0643748
0.000432511
0.0643531
0.000364977
0.0643352
0.000308588
0.0643203
0.000261713
0.0643077
0.000223099
0.0642967
0.000191763
0.0642871
0.000166908
0.0642786
0.000147839
0.0642712
0.000133855
0.0642647
0.000125064
0.0548231
0.00011938
0.0456843
0.000115397
0.0380697
0.000112291
0.0317247
0.000109644
0.0264374
0.0220313
0.000107419
0.00859415
0.0382961
0.00970404
0.0684405
0.00746457
0.0707109
0.00569413
0.0682446
0.00450419
0.0668246
0.00361719
0.0660808
0.00293293
0.0656056
0.00239982
0.0652784
0.00197918
0.0650468
0.00164245
0.0648792
0.00136918
0.064755
0.00114477
0.064661
0.000958655
0.0645881
0.00080315
0.0645303
0.000672589
0.0644836
0.000562765
0.0644451
0.00047052
0.0644126
0.000393461
0.0643847
0.000329756
0.0643604
0.000277984
0.0643388
0.000237019
0.0643196
0.000205928
0.0643023
0.000183776
0.0642869
0.000170715
0.0548361
0.000163087
0.0456919
0.00015835
0.0380744
0.000155002
0.031728
0.000152296
0.0264401
0.0220335
0.000150086
0.00677235
0.0315238
0.00946977
0.0657431
0.00811357
0.0720672
0.00643243
0.0699257
0.00524001
0.068017
0.00433304
0.0669878
0.00360004
0.0663386
0.00300164
0.0658768
0.0025107
0.0655377
0.00210519
0.0652847
0.00176783
0.0650924
0.00148524
0.0649436
0.00124712
0.0648262
0.00104558
0.0647319
0.000874597
0.0646546
0.00072956
0.0645901
0.000606938
0.0645352
0.00050402
0.0644876
0.000418717
0.0644457
0.000349404
0.0644081
0.000294807
0.0643742
0.000253873
0.0643432
0.000225465
0.0643153
0.00020956
0.0548521
0.000201027
0.0457004
0.000196307
0.0380791
0.000193347
0.031731
0.00019118
0.0264423
0.0220351
0.000189585
0.00506212
0.0264617
0.00856361
0.0622416
0.0081737
0.0724571
0.00672885
0.0713706
0.00557251
0.0691733
0.00469542
0.0678649
0.00397613
0.0670579
0.0033708
0.0664821
0.00285849
0.06605
0.00242327
0.0657199
0.00205218
0.0654635
0.00173472
0.065261
0.00146242
0.0650985
0.00122852
0.0649658
0.00102765
0.0648555
0.000855573
0.0647622
0.000708978
0.0646818
0.000585273
0.0646113
0.000482446
0.0645485
0.000398929
0.0644917
0.000333489
0.0644396
0.000285093
0.0643916
0.00025251
0.0643479
0.000235402
0.0548692
0.000227286
0.0457086
0.000223698
0.0380827
0.000222111
0.0317326
0.000221364
0.026443
0.0220353
0.000221155
0.0036151
0.0228466
0.0073046
0.0585521
0.00777489
0.0719868
0.00671551
0.07243
0.00565429
0.0702345
0.00482836
0.0686908
0.00414676
0.0677395
0.00356115
0.0670678
0.00305362
0.0665576
0.00261264
0.0661609
0.00222869
0.0658474
0.00189392
0.0655958
0.0016019
0.0653905
0.00134735
0.0652203
0.001126
0.0650768
0.000934418
0.0649537
0.000769864
0.0648464
0.00063019
0.064751
0.000513726
0.064665
0.000419181
0.0645862
0.000345553
0.0645132
0.000291982
0.0644452
0.000257297
0.0643826
0.0002407
0.0548858
0.000234443
0.0457148
0.000233238
0.0380839
0.000234134
0.0317317
0.000235787
0.0264414
0.0220333
0.00023782
0.00251939
0.0203272
0.00601191
0.0550596
0.00708999
0.0709087
0.0064609
0.073059
0.00554976
0.0711457
0.00479489
0.0694457
0.00416581
0.0683686
0.00361539
0.0676182
0.00312768
0.0670453
0.00269505
0.0665935
0.0023112
0.0662313
0.00197072
0.0659363
0.00166907
0.0656922
0.00140248
0.0654869
0.00116785
0.0653114
0.000962682
0.0651589
0.000784993
0.065024
0.000633247
0.0649028
0.000506293
0.0647919
0.000403285
0.0646892
0.000323609
0.0645929
0.000266725
0.064502
0.000231661
0.0644176
0.00021704
0.0549004
0.000213925
0.0457179
0.000216271
0.0380816
0.000220735
0.0317272
0.000225796
0.0264363
0.0220281
0.000230989
0.00175486
0.0185723
0.00488095
0.0519335
0.00631289
0.0694768
0.00606695
0.073305
0.00532434
0.0718883
0.00464586
0.0701242
0.0040727
0.0689418
0.00356441
0.0681265
0.00310485
0.0675048
0.00268891
0.0670095
0.00231307
0.0666071
0.00197416
0.0662752
0.00166942
0.0659969
0.00139648
0.0657598
0.00115342
0.0655545
0.000938704
0.0653736
0.000751155
0.0652116
0.000589944
0.065064
0.000454538
0.0649273
0.000344657
0.0647991
0.000260194
0.0646774
0.000201058
0.0645612
0.000166612
0.0644521
0.000154896
0.0549121
0.00015584
0.045717
0.000162686
0.0380747
0.000171712
0.0317182
0.00018119
0.0264268
0.0220188
0.0001905
0.00124378
0.0173285
0.0039598
0.0492175
0.00555736
0.0678792
0.00561697
0.0732454
0.00503812
0.0724671
0.0044308
0.0707315
0.00390643
0.0694662
0.00343779
0.0685951
0.00300755
0.0679351
0.00261121
0.0674058
0.00224697
0.0669714
0.00191334
0.0666088
0.00160901
0.0663012
0.00133287
0.066036
0.00108404
0.0658033
0.000861905
0.0655958
0.000666106
0.0654074
0.000496546
0.0652335
0.000353368
0.0650705
0.000236935
0.0649155
0.000147768
0.0647665
8.63398e-05
0.0646226
5.25029e-05
0.0644859
4.38134e-05
0.0549208
4.91376e-05
0.0457117
6.09696e-05
0.0380629
7.51699e-05
0.031704
8.98156e-05
0.0264122
0.0220045
0.000104139
0.000909075
0.0164195
0.00322934
0.0468972
0.00486643
0.0662421
0.00515433
0.0729575
0.00472574
0.0728957
0.00418334
0.0712739
0.00369789
0.0699516
0.00326142
0.0690316
0.00285657
0.0683399
0.00247824
0.0677841
0.00212538
0.0673242
0.00179755
0.0669366
0.00149443
0.0666044
0.00121586
0.0663145
0.000961836
0.0660574
0.000732555
0.0658251
0.000528412
0.0656115
0.000350024
0.0654119
0.000198254
0.0652223
7.41434e-05
0.0650396
-2.11157e-05
0.0648618
-8.63291e-05
0.0646878
-0.000121108
0.0645207
-0.000127886
0.0549276
-0.000118799
0.0457026
-0.000102185
0.0380463
-8.28433e-05
0.0316846
-6.31637e-05
0.0263925
0.0219853
-4.40268e-05
0.000690989
0.0157285
0.00265623
0.044932
0.00425246
0.0646459
0.00469982
0.0725101
0.00440316
0.0731924
0.00392045
0.0717566
0.00346568
0.0704064
0.00305327
0.069444
0.0026679
0.0687253
0.00230363
0.0681484
0.00195948
0.0676684
0.00163558
0.0672605
0.00133227
0.0669077
0.00105003
0.0665968
0.000789534
0.0663178
0.000551632
0.066063
0.000337389
0.0658258
0.000148085
0.0656012
-1.48098e-05
0.0653852
-0.000149576
0.0651744
-0.000254241
0.0649664
-0.000326768
0.0647604
-0.000365834
0.0645598
-0.000373277
0.054935
-0.000362241
0.0456915
-0.000341853
0.0380259
-0.000317404
0.0316602
-0.000291762
0.0263669
0.0219601
-0.000266542
0.000545947
0.0151825
0.0022064
0.0432715
0.003715
0.0631373
0.00426497
0.0719601
0.00407924
0.0733781
0.00365091
0.0721849
0.00322043
0.0708368
0.00282474
0.0698397
0.0024527
0.0690973
0.00209764
0.0685035
0.00175833
0.0680077
0.00143511
0.0675838
0.00112871
0.0672141
0.000840041
0.0668855
0.000570259
0.0665876
0.000320741
0.0663125
9.30446e-05
0.0660535
-0.000111049
0.0658053
-0.000289425
0.0655636
-0.000439568
0.0653245
-0.000558661
0.0650855
-0.000643827
0.0648455
-0.000692862
0.0646088
-0.000705822
0.054948
-0.00069649
0.0456822
-0.000674888
0.0380043
-0.000647127
0.0316324
-0.000616752
0.0263365
0.0219293
-0.000585905
0.000444736
0.0147378
0.00184973
0.0418665
0.00324721
0.0617398
0.00385583
0.0713515
0.00375999
0.0734739
0.0033803
0.0725646
0.00296903
0.0712481
0.00258375
0.070225
0.0022191
0.069462
0.00186821
0.0688544
0.00152935
0.0683465
0.00120282
0.0679103
0.00088952
0.0675274
0.000590618
0.0671844
0.000307608
0.0668706
4.21097e-05
0.066578
-0.000203955
0.0662995
-0.000428254
0.0660296
-0.000627995
0.0657633
-0.000799978
0.0654965
-0.000940661
0.0652262
-0.0010464
0.0649513
-0.00111416
0.0646765
-0.00114075
0.0549746
-0.00114005
0.0456815
-0.00112269
0.0379869
-0.00109551
0.0316052
-0.00106299
0.026304
0.0218945
-0.00102827
0.000369709
0.0143681
0.00156252
0.0406737
0.00283996
0.0604624
0.00347463
0.0707168
0.00344933
0.0734992
0.0031125
0.0729014
0.00271655
0.0716441
0.00233647
0.070605
0.00197387
0.0698246
0.00162224
0.069206
0.00127931
0.0686895
0.000945159
0.0682444
0.000620626
0.0678519
0.000307
0.067498
5.74538e-06
0.0671719
-0.000281285
0.066865
-0.000551843
0.0665701
-0.000803076
0.0662808
-0.00103166
0.0659919
-0.0012338
0.0656987
-0.00140535
0.0653978
-0.00154211
0.065088
-0.00164072
0.0647751
-0.00169311
0.055027
-0.00171242
0.0457008
-0.00170905
0.0379836
-0.00169015
0.0315863
-0.00166113
0.0262749
0.0218599
-0.00162651
0.000310804
0.0140573
0.00132909
0.0396554
0.00248733
0.0593041
0.00312372
0.0700804
0.00315054
0.0734724
0.00285002
0.073202
0.00246616
0.0720279
0.00208727
0.0709839
0.00172216
0.0701897
0.00136534
0.0695628
0.00101407
0.0690407
0.000667998
0.0685905
0.000327818
0.0681921
-5.44441e-06
0.0678312
-0.000330331
0.0674968
-0.000644961
0.0671796
-0.000946708
0.0668718
-0.00123241
0.0665665
-0.00149829
0.0662578
-0.00174
0.0659404
-0.00195289
0.0656107
-0.00213265
0.0652678
-0.00227669
0.0649192
-0.00237146
0.0551217
-0.00242891
0.0457583
-0.00245769
0.0380123
-0.00246303
0.0315917
-0.0024497
0.0262616
0.0218336
-0.0024234
0.000226021
0.0138313
0.000970136
0.0389113
0.00185787
0.0584164
0.00238395
0.0695544
0.00243608
0.0734203
0.00220642
0.0734316
0.00189039
0.072344
0.0015699
0.0713044
0.00125774
0.0705018
0.000950302
0.0698702
0.00064488
0.0693462
0.000340796
0.0688946
3.82413e-05
0.0684947
-0.000262196
0.0681317
-0.000559532
0.0677941
-0.000852113
0.0674722
-0.00113779
0.0671575
-0.00141376
0.0668425
-0.00167656
0.0665205
-0.00192197
0.0661858
-0.00214537
0.0658341
-0.00234262
0.065465
-0.00251213
0.0650887
-0.00263814
0.0552477
-0.00273216
0.0458523
-0.0028011
0.0380813
-0.00284611
0.0316367
-0.00286704
0.0262825
0.021834
-0.00286744
0.000167774
0.0136635
0.000719116
0.03836
0.00140035
0.0577352
0.0018274
0.0691273
0.00188664
0.0733611
0.00170936
0.0736089
0.00145028
0.072603
0.00118172
0.071573
0.000917708
0.0707658
0.000655894
0.0701321
0.000393716
0.0696083
0.000130256
0.069158
-0.000134786
0.0687597
-0.000401185
0.0683981
-0.000668309
0.0680612
-0.000935098
0.067739
-0.00119999
0.0674224
-0.0014608
0.0671033
-0.00171461
0.0667744
-0.00195764
0.0664288
-0.00218532
0.0660617
-0.00239314
0.0656728
-0.0025786
0.0652742
-0.00272306
0.0553922
-0.00284036
0.0459696
-0.00294193
0.0381828
-0.00303236
0.0317271
-0.00310919
0.0263594
0.0218836
-0.00315872
0.000128656
0.0135348
0.000545825
0.0379428
0.00107491
0.0572061
0.00142087
0.0687814
0.0014788
0.0733031
0.00134007
0.0737476
0.00112736
0.0728157
0.000902804
0.0717975
0.000680201
0.0709884
0.000458046
0.0703542
0.000234002
0.0698324
6.95015e-06
0.0693851
-0.000223481
0.0689901
-0.000457525
0.0686321
-0.000694946
0.0682987
-0.000935218
0.0679793
-0.0011774
0.0676646
-0.00142002
0.067346
-0.0016609
0.0670152
-0.001897
0.0666649
-0.00212424
0.066289
-0.00233782
0.0658864
-0.002533
0.0654693
-0.00268426
0.0555435
-0.00280335
0.0460887
-0.0029071
0.0382866
-0.00300993
0.03183
-0.00312987
0.0264793
0.022031
-0.0032773
9.79938e-05
0.0134368
0.000421676
0.0376191
0.00084121
0.0567865
0.00112365
0.0684989
0.00117521
0.0732516
0.001063
0.0738599
0.000886726
0.072992
0.000699113
0.0719852
0.000512152
0.0711754
0.000324475
0.0705419
0.000133954
0.0700229
-6.05045e-05
0.0695796
-0.000259503
0.0691891
-0.000463352
0.068836
-0.000672217
0.0685075
-0.000886038
0.0681931
-0.00110446
0.067883
-0.0013267
0.0675682
-0.00155142
0.06724
-0.00177655
0.06689
-0.00199922
0.0665117
-0.00221579
0.066103
-0.00242128
0.0656748
-0.00258274
0.0557049
-0.00270039
0.0462063
-0.00278097
0.0383672
-0.00283452
0.0318835
-0.00287933
0.0265241
-0.0030529
0.0222046
0.000105202
0.0219829
0.000147176
0.0219854
0.000180211
0.0219943
0.000210908
0.0219967
0.000235789
0.0220025
0.000256144
0.022007
0.000273472
0.02201
0.000284486
0.0220163
0.000293496
0.0220183
0.000297487
0.0220234
0.000298414
0.0220264
0.000296815
0.022029
0.000290773
0.0220334
0.00028313
0.022035
0.000272236
0.0220382
0.000259036
0.0220406
0.000244499
0.0220419
0.000226982
0.0220449
0.000208398
0.0220459
0.000188573
0.0220472
0.000167179
0.0220487
0.000145166
0.0220494
0.000122479
0.02205
9.92785e-05
0.0220506
7.59631e-05
0.0220507
5.27005e-05
0.0220506
2.98755e-05
0.0220502
7.4858e-06
0.0220497
-1.41478e-05
0.022049
-3.43848e-05
0.0220476
-5.37218e-05
0.0220467
-7.13284e-05
0.022045
-8.69005e-05
0.0220429
-0.000101204
0.0220417
-0.000112199
0.0220384
-0.00012121
0.0220364
-0.000127929
0.0220341
-0.000130462
0.0220299
-0.000131201
0.0220281
-0.000127253
0.0220234
-0.000120135
0.0220202
-0.000109879
0.0220171
-9.38093e-05
0.0220113
-7.55648e-05
0.0220091
-5.05869e-05
0.0220024
-2.21505e-05
0.0219989
1.11097e-05
0.0219941
5.07419e-05
0.0219877
0.0219852
9.28912e-05
0.00015151
0.0219388
0.000193315
0.0219436
0.000226414
0.0219612
0.000257417
0.0219657
0.000282858
0.021977
0.00030402
0.0219858
0.000322392
0.0219917
0.000334684
0.0220041
0.000345186
0.0220078
0.000350877
0.0220177
0.000353695
0.0220236
0.000354165
0.0220285
0.000350363
0.0220372
0.000345108
0.0220403
0.000336744
0.0220466
0.000326201
0.0220511
0.00031443
0.0220537
0.000299784
0.0220595
0.000284153
0.0220616
0.000267352
0.022064
0.000249046
0.0220671
0.000230164
0.0220683
0.00021064
0.0220696
0.000190625
0.0220706
0.000170498
0.0220708
0.000150416
0.0220707
0.000130759
0.0220698
0.000111502
0.022069
9.29567e-05
0.0220675
7.57563e-05
0.0220648
5.93784e-05
0.0220631
4.46471e-05
0.0220597
3.18519e-05
0.0220557
2.02041e-05
0.0220533
1.17456e-05
0.0220468
5.12599e-06
0.022043
6.41196e-07
0.0220386
1.84339e-07
0.0220303
1.33365e-06
0.0220269
6.98439e-06
0.0220178
1.55987e-05
0.0220116
2.7129e-05
0.0220056
4.4252e-05
0.0219942
6.32958e-05
0.0219901
8.88265e-05
0.0219768
0.000117536
0.0219702
0.000150774
0.0219609
0.000190068
0.0219484
0.0219437
0.000231536
0.000194192
0.0218947
0.000236232
0.0219015
0.000269825
0.0219276
0.000301578
0.0219339
0.000328026
0.0219506
0.000350443
0.0219634
0.000370305
0.0219718
0.000384316
0.02199
0.000396748
0.0219954
0.000404574
0.0220098
0.000409715
0.0220185
0.000412684
0.0220255
0.000411549
0.0220383
0.000409108
0.0220427
0.0004037
0.022052
0.000396237
0.0220586
0.000387652
0.0220622
0.0003763
0.0220709
0.000364042
0.0220738
0.000350682
0.0220773
0.000335881
0.0220819
0.000320541
0.0220836
0.000304589
0.0220855
0.000288168
0.022087
0.000271632
0.0220873
0.000255129
0.0220872
0.000239031
0.0220859
0.000223289
0.0220847
0.000208205
0.0220826
0.000194405
0.0220786
0.000181341
0.0220761
0.000169833
0.0220712
0.000160157
0.0220654
0.0001515
0.022062
0.000145909
0.0220524
0.000142004
0.0220469
0.00014007
0.0220405
0.000142
0.0220284
0.000145339
0.0220236
0.000152988
0.0220101
0.000163385
0.0220012
0.000176466
0.0219925
0.00019491
0.0219757
0.00021501
0.02197
0.000241342
0.0219505
0.000270563
0.021941
0.000304015
0.0219274
0.000343212
0.0219092
0.0219027
0.000384231
0.000234379
0.0218499
0.000277304
0.0218586
0.000312021
0.0218929
0.00034515
0.0219008
0.000373232
0.0219225
0.000397536
0.0219391
0.000419528
0.0219498
0.000435908
0.0219737
0.000450927
0.0219804
0.000461553
0.0219992
0.00046969
0.0220103
0.000475835
0.0220194
0.000478051
0.0220361
0.000479112
0.0220416
0.000477351
0.0220538
0.000473662
0.0220622
0.000468959
0.022067
0.000461596
0.0220782
0.000453407
0.022082
0.000444183
0.0220866
0.000433578
0.0220925
0.00042247
0.0220947
0.000410774
0.0220972
0.000398623
0.0220991
0.000386349
0.0220996
0.000374088
0.0220995
0.000362204
0.0220978
0.000350622
0.0220963
0.000339634
0.0220936
0.00032986
0.0220884
0.000320723
0.0220853
0.000313039
0.0220789
0.000307071
0.0220714
0.000301978
0.0220671
0.000299816
0.0220546
0.000299175
0.0220475
0.000300326
0.0220393
0.000305166
0.0220236
0.000311203
0.0220176
0.000321349
0.022
0.000334014
0.0219886
0.000349122
0.0219774
0.000369357
0.0219555
0.000390972
0.0219484
0.00041856
0.0219229
0.000448743
0.0219108
0.000482854
0.0218933
0.0005224
0.0218697
0.0218617
0.000563414
0.000267519
0.0218035
0.000312204
0.0218139
0.000348914
0.0218562
0.000384285
0.0218654
0.00041487
0.0218919
0.000441936
0.0219121
0.000466941
0.0219248
0.000486581
0.021954
0.000505088
0.0219619
0.000519426
0.0219849
0.00053148
0.0219983
0.000541731
0.0220091
0.000548239
0.0220296
0.000553749
0.0220361
0.00055659
0.0220509
0.000557636
0.0220612
0.00055778
0.0220668
0.000555375
0.0220806
0.000552225
0.0220852
0.000548108
0.0220907
0.000542672
0.0220979
0.000536764
0.0221006
0.000530289
0.0221037
0.000523371
0.0221061
0.000516314
0.0221067
0.00050924
0.0221065
0.000502509
0.0221046
0.000496014
0.0221028
0.000490037
0.0220996
0.000485192
0.0220932
0.00048087
0.0220896
0.000477885
0.0220819
0.000476483
0.0220728
0.000475795
0.0220677
0.000477888
0.0220525
0.000481318
0.0220441
0.000486345
0.0220343
0.000494868
0.0220151
0.000504359
0.0220081
0.000517743
0.0219866
0.000533401
0.0219729
0.000551246
0.0219595
0.000573972
0.0219328
0.000597788
0.0219245
0.000627314
0.0218934
0.000659132
0.021879
0.000694574
0.0218579
0.000735144
0.0218291
0.02182
0.00077682
0.000286809
0.0217545
0.000334319
0.0217664
0.000374091
0.0218164
0.000412783
0.0218267
0.000446961
0.0218577
0.000477893
0.0218811
0.000507032
0.0218957
0.000531072
0.02193
0.000554226
0.0219387
0.000573451
0.0219657
0.000590617
0.0219811
0.000606186
0.0219936
0.000618211
0.0220176
0.000629413
0.0220249
0.000638109
0.0220422
0.000645156
0.0220542
0.000651422
0.0220605
0.00065526
0.0220768
0.00065844
0.022082
0.000660723
0.0220884
0.000661751
0.0220969
0.000662339
0.0221
0.000662379
0.0221036
0.000661982
0.0221065
0.000661424
0.0221072
0.000660811
0.0221072
0.000660495
0.0221049
0.000660337
0.022103
0.000660605
0.0220993
0.000661907
0.0220919
0.000663599
0.0220879
0.000666489
0.022079
0.00067081
0.0220684
0.00067566
0.0220629
0.000683119
0.022045
0.000691705
0.0220355
0.000701663
0.0220244
0.000714906
0.0220018
0.000728856
0.0219941
0.00074646
0.021969
0.000766069
0.0219533
0.000787581
0.021938
0.000813708
0.0219066
0.00084061
0.0218976
0.000872942
0.0218611
0.000907241
0.0218447
0.000944842
0.0218203
0.000987246
0.0217867
0.0217769
0.00103038
0.000283828
0.0217017
0.000335416
0.0217148
0.000379519
0.0217723
0.00042283
0.0217834
0.000461921
0.0218186
0.00049807
0.021845
0.000532726
0.021861
0.000562574
0.0219001
0.000591818
0.0219095
0.000617404
0.0219401
0.000641182
0.0219573
0.000663601
0.0219711
0.000682698
0.0219985
0.00070117
0.0220064
0.000717323
0.0220261
0.000731992
0.0220395
0.00074602
0.0220465
0.000757752
0.0220651
0.000768925
0.0220708
0.000779283
0.022078
0.000788455
0.0220877
0.000797221
0.0220913
0.000805458
0.0220954
0.000813262
0.0220987
0.000820874
0.0220996
0.000828383
0.0220996
0.000836132
0.0220971
0.000843942
0.0220952
0.000852065
0.0220912
0.000861103
0.0220829
0.000870368
0.0220786
0.000880666
0.0220687
0.000892212
0.0220569
0.000904063
0.022051
0.000918317
0.0220308
0.000933448
0.0220204
0.000949688
0.0220081
0.00096896
0.0219825
0.000988634
0.0219745
0.00101168
0.0219459
0.00103642
0.0219286
0.00106274
0.0219117
0.00109337
0.021876
0.00112441
0.0218666
0.00116056
0.0218249
0.00119832
0.0218069
0.00123902
0.0217796
0.00128417
0.0217416
0.0217315
0.00132961
0.000248553
0.0216436
0.000305612
0.0216578
0.000355485
0.0217225
0.000404912
0.021734
0.000450465
0.0217731
0.000493427
0.021802
0.000535248
0.0218192
0.000572602
0.0218628
0.000609686
0.0218724
0.000643427
0.0219063
0.000675663
0.0219251
0.000706819
0.02194
0.000734918
0.0219704
0.000762632
0.0219787
0.000788248
0.0220005
0.000812578
0.0220152
0.000836437
0.0220227
0.000858157
0.0220433
0.00087944
0.0220495
0.000900006
0.0220575
0.000919467
0.0220682
0.000938567
0.0220722
0.000957158
0.0220768
0.000975319
0.0220805
0.00099325
0.0220817
0.00101102
0.0220819
0.00102895
0.0220792
0.00104683
0.0220773
0.00106487
0.0220731
0.00108369
0.0220641
0.00110252
0.0220598
0.00112219
0.022049
0.00114286
0.0220362
0.00116357
0.0220303
0.00118643
0.0220079
0.00120985
0.021997
0.00123406
0.0219839
0.00126099
0.0219556
0.00128794
0.0219475
0.00131793
0.0219159
0.00134923
0.0218973
0.00138171
0.0218792
0.00141813
0.0218396
0.00145454
0.0218302
0.00149568
0.0217838
0.001538
0.0217646
0.00158284
0.0217347
0.0016317
0.0216927
0.0216828
0.00168038
0.000168896
0.0215789
0.000233014
0.0215937
0.000290327
0.0216651
0.000347587
0.0216767
0.000401363
0.0217193
0.000452987
0.0217504
0.000503916
0.0217683
0.000550791
0.0218159
0.000597813
0.0218254
0.000641879
0.0218623
0.000684813
0.0218822
0.00072702
0.0218978
0.000766492
0.0219309
0.000805886
0.0219393
0.000843456
0.0219629
0.000879992
0.0219786
0.000916277
0.0219864
0.000950617
0.022009
0.000984683
0.0220155
0.00101816
0.022024
0.00105064
0.0220358
0.00108282
0.02204
0.00111452
0.0220451
0.0011458
0.0220492
0.0011768
0.0220507
0.00120757
0.0220511
0.00123841
0.0220483
0.00126903
0.0220467
0.00129966
0.0220425
0.00133085
0.0220329
0.00136181
0.0220288
0.00139333
0.0220175
0.00142556
0.022004
0.00145748
0.0219984
0.0014912
0.0219742
0.00152509
0.0219631
0.00155935
0.0219497
0.00159593
0.021919
0.00163205
0.0219114
0.00167078
0.0218772
0.00171032
0.0218577
0.00175055
0.021839
0.00179426
0.0217959
0.0018374
0.021787
0.00188482
0.0217364
0.00193288
0.0217166
0.00198293
0.0216847
0.00203651
0.0216391
0.02163
0.00208931
2.88085e-05
0.021506
0.000102155
0.0215203
0.000169238
0.0215981
0.000236319
0.0216096
0.000300564
0.0216551
0.000363163
0.0216878
0.000425549
0.0217059
0.000484346
0.0217571
0.000543818
0.0217659
0.000600817
0.0218053
0.000657164
0.0218258
0.00071324
0.0218417
0.000766996
0.0218772
0.00082108
0.0218853
0.000873704
0.0219103
0.000925626
0.0219267
0.0009776
0.0219344
0.00102789
0.0219587
0.00107813
0.0219652
0.00112797
0.0219742
0.00117695
0.0219868
0.00122573
0.0219912
0.00127408
0.0219968
0.00132203
0.0220013
0.00136966
0.022003
0.00141696
0.0220038
0.00146421
0.0220011
0.00151106
0.0219998
0.00155768
0.0219959
0.0016046
0.0219859
0.00165095
0.0219825
0.00169751
0.0219709
0.00174438
0.0219571
0.00179047
0.0219523
0.00183791
0.0219267
0.001885
0.021916
0.00193189
0.0219028
0.00198055
0.0218704
0.00202814
0.0218638
0.00207774
0.0218276
0.00212752
0.0218079
0.00217731
0.0217892
0.00222998
0.0217432
0.00228138
0.0217356
0.00233644
0.0216813
0.00239146
0.0216615
0.00244781
0.0216283
0.00250703
0.0215799
0.0215723
0.00256474
-0.000184617
0.0214241
-0.000102212
0.0214379
-2.53172e-05
0.0215212
5.41275e-05
0.0215302
0.000131377
0.0215778
0.000207639
0.0216115
0.000284053
0.0216295
0.000357632
0.0216835
0.000432583
0.021691
0.000505667
0.0217322
0.000578716
0.0217528
0.0006521
0.0217683
0.000723713
0.0218055
0.000796213
0.0218128
0.000867749
0.0218387
0.000939054
0.0218554
0.00101084
0.0218626
0.0010813
0.0218883
0.00115205
0.0218945
0.00122267
0.0219035
0.00129265
0.0219168
0.00136258
0.0219213
0.00143218
0.0219272
0.0015014
0.0219321
0.00157027
0.0219342
0.00163871
0.0219354
0.00170694
0.0219329
0.00177453
0.0219322
0.00184158
0.0219289
0.00190859
0.0219189
0.00197458
0.0219165
0.00204028
0.0219052
0.00210575
0.0218916
0.0021698
0.0218883
0.00223457
0.021862
0.00229826
0.0218523
0.00236099
0.02184
0.00242474
0.0218066
0.00248655
0.021802
0.00254956
0.0217646
0.00261188
0.0217456
0.00267331
0.0217278
0.00273677
0.0216797
0.00279803
0.0216744
0.00286213
0.0216172
0.00292526
0.0215984
0.00298885
0.0215647
0.00305447
0.0215143
0.0215091
0.00311763
-0.000492449
0.0213307
-0.000397086
0.0213425
-0.000306555
0.0214306
-0.000214392
0.021438
-0.0001236
0.021487
-3.26347e-05
0.0215206
6.07286e-05
0.0215361
0.000152067
0.0215922
0.000245701
0.0215973
0.00033834
0.0216395
0.000431879
0.0216592
0.000526669
0.0216735
0.000620519
0.0217117
0.000716088
0.0217172
0.000811402
0.0217434
0.000907164
0.0217596
0.00100404
0.0217657
0.00110012
0.0217922
0.00119699
0.0217976
0.00129413
0.0218064
0.00139096
0.02182
0.00148799
0.0218242
0.00158485
0.0218303
0.00168143
0.0218355
0.00177762
0.021838
0.00187328
0.0218397
0.00196854
0.0218376
0.00206284
0.0218379
0.00215619
0.0218355
0.00224902
0.0218261
0.00234022
0.0218253
0.00243044
0.021815
0.00251968
0.0218024
0.00260659
0.0218014
0.00269335
0.0217752
0.00277799
0.0217677
0.00286058
0.0217574
0.00294312
0.0217241
0.00302251
0.0217226
0.00310194
0.0216852
0.00317945
0.0216681
0.00325481
0.0216524
0.00333103
0.0216035
0.00340374
0.0216017
0.00347814
0.0215428
0.00355034
0.0215262
0.0036218
0.0214933
0.00369419
0.0214419
0.0214404
0.00376286
-0.00092324
0.0212256
-0.000814778
0.0212341
-0.000709676
0.0213255
-0.000600702
0.0213291
-0.000491682
0.021378
-0.000381306
0.0214102
-0.000268433
0.0214232
-0.000156289
0.02148
-4.03377e-05
0.0214814
7.59793e-05
0.0215232
0.000194423
0.0215408
0.000315347
0.0215526
0.000436958
0.0215901
0.000561422
0.0215927
0.000686714
0.0216181
0.0008135
0.0216328
0.000942291
0.0216369
0.00107108
0.0216634
0.00120137
0.0216673
0.00133255
0.0216752
0.00146394
0.0216886
0.00159593
0.0216922
0.00172805
0.0216982
0.00186005
0.0217035
0.0019917
0.0217063
0.00212271
0.0217087
0.00225309
0.0217072
0.0023821
0.0217089
0.00250963
0.021708
0.00263598
0.0216998
0.00275983
0.0217014
0.00288176
0.0216931
0.00300162
0.0216825
0.00311786
0.0216851
0.00323266
0.0216604
0.00334385
0.0216565
0.00345142
0.0216499
0.00355738
0.0216181
0.00365842
0.0216216
0.00375785
0.0215857
0.00385355
0.0215724
0.00394531
0.0215607
0.00403623
0.0215126
0.0041218
0.0215161
0.00420745
0.0214571
0.00428918
0.0214445
0.00436857
0.0214139
0.00444735
0.0213631
0.021367
0.00452079
-0.00151047
0.0211096
-0.00138877
0.0211124
-0.00126864
0.0212054
-0.00114252
0.0212029
-0.00101424
0.0212497
-0.000882291
0.0212782
-0.000745058
0.021286
-0.000606457
0.0213414
-0.000461891
0.0213368
-0.000315049
0.0213764
-0.000164029
0.0213898
-8.76746e-06
0.0213973
0.000147111
0.0214342
0.000307361
0.0214325
0.000470482
0.021455
0.000636479
0.0214668
0.000805888
0.0214675
0.00097655
0.0214927
0.00114981
0.0214941
0.00132491
0.0215001
0.00150103
0.0215125
0.00167844
0.0215148
0.00185649
0.0215201
0.00203478
0.0215252
0.00221289
0.0215282
0.00239031
0.0215313
0.00256689
0.0215307
0.00274161
0.0215342
0.00291413
0.0215355
0.00308458
0.0215293
0.00325134
0.0215347
0.00341479
0.0215296
0.00357459
0.0215227
0.00372891
0.0215308
0.00387988
0.0215094
0.00402506
0.0215113
0.00416428
0.0215107
0.00429955
0.0214828
0.00442729
0.0214938
0.00455092
0.0214621
0.00466816
0.0214552
0.00477878
0.02145
0.00488605
0.0214053
0.00498528
0.0214169
0.00508223
0.0213602
0.00517281
0.0213539
0.00525878
0.0213279
0.00534209
0.0212798
0.0212912
0.00541789
-0.00229956
0.0209857
-0.00216648
0.0209793
-0.00203224
0.0210712
-0.00188862
0.0210593
-0.00173939
0.0211005
-0.00158274
0.0211216
-0.00141701
0.0211202
-0.00124636
0.0211708
-0.00106627
0.0211567
-0.000880973
0.0211911
-0.000688941
0.0211977
-0.000490275
0.0211987
-0.000287228
0.0212312
-7.7859e-05
0.0212231
0.000133879
0.0212433
0.000349679
0.021251
0.000571698
0.0212455
0.00079625
0.0212682
0.00102494
0.0212654
0.00125696
0.0212681
0.00149134
0.0212781
0.00172818
0.021278
0.00196666
0.0212817
0.00220616
0.0212857
0.00244595
0.0212884
0.00268523
0.021292
0.00292357
0.0212923
0.00315951
0.0212983
0.00339235
0.0213026
0.0036219
0.0212998
0.00384602
0.0213106
0.00406484
0.0213108
0.00427765
0.0213099
0.00448216
0.0213263
0.00468043
0.0213112
0.00486959
0.0213221
0.00504926
0.021331
0.00522144
0.0213107
0.00538214
0.0213331
0.00553492
0.0213093
0.00567732
0.0213128
0.00580902
0.0213183
0.00593357
0.0212808
0.00604602
0.0213044
0.00615269
0.0212535
0.00624943
0.0212572
0.00633836
0.021239
0.00642182
0.0211963
0.0212182
0.00649483
-0.00276845
0.0208867
-0.00265873
0.0208696
-0.00254326
0.0209557
-0.0024125
0.0209286
-0.00226932
0.0209573
-0.00211266
0.0209649
-0.00194215
0.0209497
-0.00176271
0.0209914
-0.00157154
0.0209656
-0.00137327
0.0209928
-0.00116722
0.0209917
-0.00095404
0.0209855
-0.000736511
0.0210136
-0.000512334
0.0209989
-0.000282833
0.0210138
-4.82447e-05
0.0210165
0.000188966
0.0210083
0.000430466
0.0210267
0.000677616
0.0210182
0.000929376
0.0210163
0.00118495
0.0210225
0.00144436
0.0210186
0.00170674
0.0210193
0.00197139
0.021021
0.00223734
0.0210225
0.00250353
0.0210258
0.00276919
0.0210267
0.00303253
0.0210349
0.00329244
0.0210427
0.0035483
0.0210439
0.00379764
0.0210612
0.00404015
0.0210683
0.00427478
0.0210753
0.00449904
0.021102
0.00471458
0.0210956
0.00491847
0.0211182
0.00511018
0.0211393
0.00529144
0.0211294
0.00545847
0.0211661
0.00561448
0.0211533
0.00575714
0.0211701
0.0058861
0.0211894
0.00600454
0.0211623
0.00610792
0.0212011
0.00620193
0.0211595
0.00628296
0.0211761
0.00635327
0.0211687
0.00641561
0.021134
0.0211675
0.00646629
-0.00308285
0.0208109
-0.00300618
0.0207929
-0.00292014
0.0208696
-0.00280798
0.0208164
-0.00267173
0.0208211
-0.00251326
0.0208065
-0.00233584
0.0207723
-0.00214681
0.0208023
-0.00194587
0.0207646
-0.00173836
0.0207853
-0.00152435
0.0207777
-0.00130461
0.0207658
-0.00108154
0.0207906
-0.000853206
0.0207706
-0.000621303
0.0207819
-0.000384746
0.0207799
-0.000141474