/*--------------------------------*- C++ -*----------------------------------*\
| =========                 |                                                 |
| \\      /  F ield         | OpenFOAM: The Open Source CFD Toolbox           |
|  \\    /   O peration     | Version:  2312                                  |
|   \\  /    A nd           | Website:  www.openfoam.com                      |
|    \\/     M anipulation  |                                                 |
\*---------------------------------------------------------------------------*/
FoamFile
{
    version     2.0;
    format      ascii;
    arch        "LSB;label=32;scalar=64";
    class       surfaceScalarField;
    location    "58.571898956047896";
    object      phi;
}
// * * * * * * * * * * * * * * * * * * * * * * * * * * * * * * * * * * * * * //

dimensions      [0 3 -1 0 0 0 0];

oriented        oriented;

internalField   nonuniform List<scalar> 
41713
(
0.00736514
0.0568813
0.00363022
0.0679814
0.00211938
0.0657573
0.00148763
0.0648782
0.00110266
0.0646314
0.000849348
0.0644998
0.000675084
0.0644207
0.000548952
0.0643726
0.000454344
0.064341
0.000381607
0.0643192
0.000324618
0.0643034
0.00027932
0.0642917
0.000242949
0.0642828
0.000213562
0.0642758
0.000189764
0.0642702
0.000170529
0.0642657
0.000155089
0.0642619
0.000142853
0.0642587
0.000133356
0.0642559
0.000126205
0.0642536
0.00012103
0.0642516
0.000117456
0.06425
0.000115188
0.0642487
0.00011375
0.0548126
0.000112484
0.0456772
0.000111205
0.0380646
0.000109945
0.0317207
0.000108747
0.0264341
0.0220285
0.000107603
0.00999681
0.0468845
0.00843336
0.0695448
0.00572359
0.068467
0.0041321
0.0664697
0.00313386
0.0656296
0.00244504
0.0651886
0.00194981
0.0649159
0.00158275
0.0647396
0.00130354
0.0646202
0.00108641
0.0645363
0.000914397
0.0644754
0.000776136
0.06443
0.000663776
0.0643952
0.000571774
0.0643678
0.000496136
0.0643459
0.000433932
0.0643279
0.000382978
0.0643128
0.000341618
0.0643
0.000308567
0.064289
0.000282807
0.0642793
0.000263497
0.0642709
0.000249896
0.0642636
0.000241252
0.0642573
0.000236864
0.054817
0.000234704
0.0456794
0.000233533
0.0380658
0.000232669
0.0317216
0.000231808
0.0264349
0.0220293
0.000231011
0.0085987
0.0382858
0.00971482
0.0684287
0.00748053
0.0707013
0.00571498
0.0682352
0.00453033
0.0668143
0.00364892
0.06607
0.00297046
0.0655944
0.00244334
0.0652668
0.0020289
0.0650347
0.00169858
0.0648666
0.00143193
0.0647421
0.00121435
0.0646476
0.00103528
0.0645742
0.000887027
0.0645161
0.000763908
0.064469
0.000661699
0.0644301
0.000577214
0.0643973
0.000508027
0.0643692
0.000452262
0.0643447
0.000408445
0.0643232
0.000375391
0.064304
0.000352098
0.0642869
0.000337551
0.0642719
0.000330748
0.0548238
0.000328122
0.045682
0.000327372
0.0380665
0.0003272
0.0317217
0.000327028
0.0264351
0.0220295
0.000326846
0.00677678
0.031509
0.00948075
0.0657247
0.00813104
0.072051
0.00645595
0.0699103
0.00526972
0.0680005
0.00436928
0.0669704
0.00364304
0.0663206
0.00305163
0.0658582
0.00256787
0.0655185
0.00216975
0.0652648
0.00184
0.0650718
0.00156526
0.0649223
0.00133521
0.0648043
0.00114198
0.0647093
0.000979526
0.0646314
0.000843215
0.0645664
0.00072949
0.064511
0.000635603
0.0644631
0.000559416
0.0644209
0.000499244
0.0643833
0.00045374
0.0643495
0.000421772
0.0643189
0.000402105
0.0642916
0.000393387
0.0548325
0.000390593
0.0456848
0.000390444
0.0380667
0.000391122
0.031721
0.000391856
0.0264344
0.0220288
0.000392583
0.00506592
0.0264431
0.00857275
0.0622179
0.00818953
0.0724343
0.00675145
0.0713484
0.00560166
0.0691503
0.00473125
0.0678408
0.00401881
0.0670331
0.0034205
0.0664565
0.00291537
0.0660236
0.00248749
0.0656926
0.00212394
0.0654354
0.00181423
0.065232
0.0015499
0.0650686
0.00132419
0.064935
0.00113174
0.0648239
0.000968293
0.0647298
0.000830513
0.0646488
0.000715776
0.0645778
0.000622022
0.0645147
0.000547624
0.0644577
0.000491275
0.0644058
0.000451856
0.0643583
0.000428033
0.0643154
0.000418126
0.0548424
0.000415754
0.0456872
0.000416733
0.0380657
0.000418772
0.031719
0.000420908
0.0264322
0.0220267
0.000423
0.00361811
0.022825
0.00731071
0.0585253
0.00778655
0.0719584
0.00673389
0.0724011
0.0056791
0.0702051
0.00485932
0.0686606
0.00418384
0.0677085
0.00360437
0.0670359
0.00310305
0.0665249
0.00266836
0.0661273
0.00229083
0.0658129
0.00196264
0.0655602
0.00167737
0.0653539
0.00142978
0.0651826
0.0012156
0.0650381
0.00103139
0.0649141
0.000874405
0.0648058
0.000742475
0.0647098
0.000633891
0.0646233
0.00054731
0.0645443
0.000481662
0.0644715
0.000436004
0.064404
0.000409059
0.0643423
0.000398827
0.0548527
0.000397638
0.0456884
0.000400449
0.0380629
0.000404522
0.0317149
0.00040869
0.0264281
0.0220227
0.000412722
0.00252173
0.0203032
0.00601482
0.0550322
0.00709613
0.0708771
0.00647265
0.0730245
0.0055672
0.0711106
0.00481734
0.0694105
0.00419288
0.068333
0.00364691
0.0675819
0.00316356
0.0670083
0.00273525
0.0665556
0.00235575
0.0661924
0.00201969
0.0658963
0.00172258
0.065651
0.00146069
0.0654445
0.00123094
0.0652678
0.00103086
0.0651141
0.00085846
0.0649782
0.00071221
0.064856
0.000590933
0.0647446
0.000493748
0.0646415
0.000419982
0.0645452
0.000369017
0.0644549
0.00033979
0.0643716
0.000329984
0.0548625
0.000330687
0.0456877
0.000336029
0.0380575
0.000342855
0.0317081
0.000349794
0.0264211
0.022016
0.000356479
0.00175674
0.0185465
0.00488131
0.0519076
0.00631353
0.0694449
0.00607095
0.0732671
0.00533247
0.071849
0.00465729
0.0700856
0.00408662
0.0689037
0.00358035
0.0680882
0.00312254
0.0674661
0.00270817
0.06697
0.0023338
0.0665668
0.00199634
0.0662337
0.00169308
0.0659542
0.00142174
0.0657158
0.00118043
0.0655091
0.000967659
0.0653269
0.000782284
0.0651636
0.000623494
0.0650148
0.00049076
0.0648773
0.00038379
0.0647485
0.000302457
0.0646266
0.000246583
0.0645108
0.000215464
0.0644027
0.0002065
0.0548714
0.000209614
0.0456846
0.000218086
0.0380491
0.000228332
0.0316979
0.000238756
0.0264107
0.0220059
0.000248843
0.00124537
0.0173011
0.00395874
0.0491943
0.00555375
0.0678499
0.00561362
0.0732072
0.00503642
0.0724262
0.00443007
0.070692
0.00390551
0.0694282
0.00343589
0.0685578
0.0030042
0.0678978
0.00260608
0.0673681
0.00223982
0.066933
0.00190405
0.0665695
0.00159754
0.0662608
0.00131927
0.0659941
0.00106844
0.06576
0.000844496
0.0655508
0.000647156
0.0653609
0.000476373
0.0651856
0.000332347
0.0650213
0.000215473
0.0648653
0.000126261
0.0647158
6.52011e-05
0.0645718
3.19103e-05
0.064436
2.36691e-05
0.0548797
2.92509e-05
0.045679
4.11847e-05
0.0380371
5.52018e-05
0.0316838
6.94031e-05
0.0263965
0.021992
8.32456e-05
0.000910601
0.0163905
0.00322833
0.0468765
0.00486075
0.0662175
0.00514544
0.0729226
0.00471519
0.0728565
0.00417077
0.0712364
0.00368203
0.069917
0.00324121
0.0689986
0.0028313
0.0683077
0.00244744
0.067752
0.0020887
0.0672918
0.00175475
0.0669035
0.0014454
0.0665701
0.0011606
0.0662789
0.000900462
0.0660201
0.00066528
0.065786
0.000455558
0.0655706
0.000272027
0.0653691
0.000115568
0.0651778
-1.27887e-05
0.0649937
-0.000111825
0.0648148
-0.000180325
0.0646403
-0.000217815
0.0644735
-0.000226599
0.0548885
-0.000219149
0.0456715
-0.000203952
0.0380219
-0.000185688
0.0316656
-0.00016674
0.0263775
0.0219736
-0.000148269
0.000692704
0.0156978
0.00265679
0.0449124
0.0042475
0.0646268
0.00468839
0.0724817
0.00438618
0.0731587
0.00389789
0.0717247
0.0034364
0.0703785
0.00301602
0.069419
0.00262182
0.0687019
0.00224809
0.0681257
0.00189403
0.0676458
0.00155991
0.0672376
0.00124619
0.0668838
0.00095351
0.0665716
0.00068268
0.0662909
0.000434704
0.066034
0.000210768
0.0657946
1.21944e-05
0.0655677
-0.000159468
0.0653494
-0.000302335
0.0651366
-0.000414258
0.0649267
-0.000493127
0.0647192
-0.00053768
0.064518
-0.00054923
0.0549
-0.000541298
0.0456636
-0.000523369
0.038004
-0.000500946
0.0316432
-0.000476938
0.0263535
0.0219495
-0.000452869
0.000548139
0.0151497
0.00220997
0.0432506
0.00371372
0.063123
0.00425475
0.0719406
0.00405946
0.073354
0.00362158
0.0721626
0.00318069
0.0708194
0.00277339
0.0698263
0.00238875
0.0690865
0.00202037
0.0684941
0.0016672
0.067999
0.00132975
0.067575
0.00100887
0.0672047
0.000705666
0.0668748
0.000421474
0.0665751
0.000157788
0.0662977
-8.37463e-05
0.0660361
-0.000301191
0.0657851
-0.000492176
0.0655404
-0.00065396
0.0652984
-0.000783548
0.0650563
-0.000877925
0.0648136
-0.000934878
0.064575
-0.000953703
0.0549188
-0.000948752
0.0456587
-0.0009305
0.0379857
-0.000905304
0.031618
-0.000876889
0.0263251
0.0219202
-0.000847567
0.000447701
0.014702
0.00185753
0.0418408
0.00325242
0.0617281
0.0038509
0.0713421
0.00374187
0.073463
0.00334855
0.0725559
0.00292313
0.0712448
0.00252268
0.0702268
0.00214189
0.0694673
0.00177407
0.0688619
0.00141769
0.0683554
0.00107321
0.0679195
0.000741679
0.0675362
0.000424475
0.067192
0.000123192
0.0668764
-0.000160402
0.0665813
-0.000424171
0.0662999
-0.00066548
0.0660265
-0.000881254
0.0657562
-0.00106802
0.0654851
-0.00122197
0.0652103
-0.00133926
0.0649309
-0.00141681
0.0646525
-0.00145047
0.0549525
-0.00145485
0.045663
-0.00144119
0.0379721
-0.00141669
0.0315935
-0.00138608
0.0262945
0.0218868
-0.0013527
0.000373688
0.0143283
0.00157544
0.040639
0.00285407
0.0604495
0.00347899
0.0707172
0.00343776
0.0735043
0.00308347
0.0729102
0.00266974
0.0716585
0.00227122
0.0706253
0.00188931
0.0698492
0.00151759
0.0692336
0.00115394
0.068719
0.000798576
0.0682749
0.000452525
0.0678823
0.000117177
0.0675274
-0.000205845
0.0671994
-0.000514483
0.0668899
-0.000806099
0.0665915
-0.00107753
0.0662979
-0.00132511
0.0660038
-0.00154468
0.0657047
-0.00173172
0.0653973
-0.00188175
0.0650809
-0.00199127
0.064762
-0.00205116
0.0550124
-0.00207545
0.0456873
-0.00207536
0.037972
-0.00205854
0.0315766
-0.00203079
0.0262667
0.0218529
-0.00199687
0.000316038
0.0140123
0.00134776
0.0396073
0.00251219
0.0592851
0.00314093
0.0700885
0.00315042
0.0734948
0.00282932
0.0732313
0.0024245
0.0720633
0.00202433
0.0710254
0.00163729
0.0702363
0.00125781
0.0696131
0.000883197
0.0690936
0.000513255
0.0686448
0.000148757
0.0682468
-0.000209146
0.0678853
-0.000558818
0.0675491
-0.000897947
0.0672291
-0.0012236
0.0669171
-0.00153222
0.0666065
-0.00181959
0.0662911
-0.00208088
0.065966
-0.00231096
0.0656274
-0.00250512
0.0652751
-0.00266048
0.0649174
-0.00276241
0.0551143
-0.00282397
0.0457489
-0.00285483
0.0380028
-0.0028609
0.0315827
-0.00284744
0.0262533
0.0218259
-0.0028205
0.000231552
0.0137807
0.000990616
0.0388482
0.0018881
0.0583876
0.00241058
0.069566
0.00244825
0.0734571
0.00219963
0.0734799
0.00186395
0.072399
0.00152379
0.0713656
0.0011916
0.0705684
0.000863552
0.0699412
0.000536922
0.0694202
0.000211087
0.0689707
-0.000113734
0.0685716
-0.000436836
0.0682084
-0.000756917
0.0678692
-0.0010721
0.0675442
-0.00137987
0.0672249
-0.00167706
0.0669037
-0.0019597
0.0665738
-0.0022231
0.0662294
-0.00246211
0.0658664
-0.00267214
0.0654851
-0.00285126
0.0650965
-0.00298273
0.0552458
-0.00307918
0.0458453
-0.00314844
0.0380721
-0.0031924
0.0316267
-0.00321154
0.0262724
0.0218243
-0.00320989
0.000173134
0.0136076
0.000739487
0.0382819
0.00143237
0.0576947
0.00185919
0.0691392
0.00190731
0.073409
0.0017137
0.0736735
0.00143727
0.0726754
0.00115143
0.0716515
0.000869994
0.0708499
0.000590304
0.0702209
0.0003097
0.0697008
2.72194e-05
0.0692531
-0.000257328
0.0688562
-0.000543634
0.0684947
-0.000830868
0.0681564
-0.00111773
0.0678311
-0.00140235
0.0675095
-0.00168213
0.0671835
-0.0019537
0.0668453
-0.00221277
0.0664885
-0.00245429
0.066108
-0.00267325
0.0657041
-0.00286679
0.06529
-0.00301547
0.0553945
-0.00313414
0.045964
-0.00323501
0.038173
-0.00332333
0.031715
-0.00339717
0.0263463
0.0218704
-0.00344329
0.000133621
0.013474
0.000565039
0.0378505
0.00110642
0.0571533
0.00145453
0.0687911
0.00150436
0.0733591
0.0013521
0.0738258
0.00112454
0.072903
0.000885211
0.0718908
0.000647797
0.0710873
0.000410479
0.0704582
0.000170769
0.0699406
-7.24923e-05
0.0694964
-0.000319747
0.0691034
-0.000571009
0.0687459
-0.000825933
0.0684114
-0.00108379
0.068089
-0.00134333
0.0677691
-0.00160273
0.0674429
-0.00185936
0.067102
-0.00210969
0.0667388
-0.00234914
0.0663474
-0.00257243
0.0659273
-0.00277448
0.0654921
-0.00292914
0.0555491
-0.00304914
0.046084
-0.00315207
0.0382759
-0.00325255
0.0318155
-0.0033687
0.0264624
0.0220135
-0.0035118
0.000102483
0.0133715
0.000439164
0.0375138
0.000870802
0.0567217
0.0011569
0.068505
0.00120285
0.0733132
0.00107965
0.073949
0.000890904
0.0730917
0.000690863
0.0720908
0.000491496
0.0712867
0.000291118
0.0706586
8.74066e-05
0.0701443
-0.000120798
0.0697046
-0.000334057
0.0693167
-0.000552648
0.0689645
-0.000776621
0.0686353
-0.00100573
0.0683181
-0.00123935
0.0680027
-0.00147636
0.0676799
-0.00171499
0.0673406
-0.00195274
0.0669765
-0.00218621
0.0665809
-0.00241132
0.0661524
-0.00262277
0.0657036
-0.00278723
0.0557136
-0.00290594
0.0462027
-0.00298649
0.0383564
-0.00303921
0.0318682
-0.00308211
0.0265053
-0.00325172
0.0221831
0.000152462
0.0219825
0.000194786
0.021985
0.000228158
0.021994
0.000259172
0.0219963
0.000284356
0.0220022
0.000304997
0.0220067
0.000322593
0.0220098
0.000333862
0.0220161
0.000343108
0.0220181
0.000347322
0.0220231
0.000348453
0.0220262
0.000347041
0.0220288
0.000341173
0.0220332
0.000333684
0.0220348
0.000322929
0.0220381
0.000309851
0.0220404
0.000295417
0.0220418
0.000277989
0.0220448
0.000259475
0.0220459
0.000239701
0.0220471
0.000218345
0.0220487
0.000196349
0.0220494
0.000173663
0.02205
0.000150447
0.0220506
0.000127099
0.0220507
0.000103785
0.0220507
8.08958e-05
0.0220502
5.84236e-05
0.0220498
3.66912e-05
0.0220491
1.63408e-05
0.0220477
-3.13112e-06
0.0220468
-2.08916e-05
0.0220451
-3.6637e-05
0.0220431
-5.11359e-05
0.0220419
-6.23425e-05
0.0220386
-7.15852e-05
0.0220366
-7.85557e-05
0.0220343
-8.13551e-05
0.0220302
-8.23811e-05
0.0220284
-7.87364e-05
0.0220237
-7.19392e-05
0.0220206
-6.20239e-05
0.0220174
-4.63095e-05
0.0220116
-2.8442e-05
0.0220095
-3.85657e-06
0.0220028
2.41677e-05
0.0219993
5.69991e-05
0.0219945
9.61878e-05
0.0219882
0.0219857
0.000137874
0.000276053
0.0219375
0.000318763
0.0219423
0.000352738
0.02196
0.00038457
0.0219645
0.000410802
0.0219759
0.000432716
0.0219848
0.000451793
0.0219907
0.000464755
0.0220031
0.000475876
0.022007
0.00048215
0.0220169
0.000485503
0.0220229
0.000486459
0.0220278
0.000483106
0.0220366
0.000478245
0.0220397
0.000470235
0.0220461
0.000459997
0.0220507
0.000448476
0.0220533
0.000434045
0.0220592
0.000418573
0.0220613
0.00040188
0.0220638
0.000383641
0.022067
0.000364769
0.0220682
0.000345206
0.0220696
0.000325109
0.0220707
0.000304844
0.022071
0.000284574
0.0220709
0.000264685
0.0220701
0.000245139
0.0220694
0.000226253
0.022068
0.000208669
0.0220653
0.000191851
0.0220636
0.000176633
0.0220603
0.000163306
0.0220564
0.00015107
0.0220541
0.000141984
0.0220476
0.000134685
0.0220439
0.000129471
0.0220395
0.000128244
0.0220314
0.00012857
0.0220281
0.000133358
0.0220189
0.000141062
0.0220129
0.000151636
0.0220069
0.000167766
0.0219955
0.000185767
0.0219915
0.000210222
0.0219783
0.000237812
0.0219717
0.000269892
0.0219624
0.000307991
0.0219501
0.0219454
0.000348221
0.000372362
0.0218919
0.000415743
0.0218989
0.000450634
0.0219251
0.000483617
0.0219315
0.000511241
0.0219483
0.000534774
0.0219613
0.000555683
0.0219698
0.000570689
0.0219881
0.00058404
0.0219936
0.000592728
0.0220082
0.000598659
0.0220169
0.000602343
0.0220241
0.000601865
0.0220371
0.000599999
0.0220416
0.0005951
0.022051
0.000588072
0.0220577
0.000579838
0.0220615
0.000568777
0.0220703
0.000556726
0.0220734
0.000543493
0.0220771
0.000528752
0.0220817
0.000513386
0.0220836
0.000497331
0.0220857
0.000480733
0.0220873
0.000463937
0.0220878
0.000447094
0.0220878
0.000430585
0.0220866
0.000414347
0.0220856
0.000398687
0.0220836
0.000384242
0.0220797
0.000370448
0.0220774
0.000358137
0.0220726
0.000347586
0.022067
0.00033797
0.0220637
0.000331357
0.0220543
0.000326354
0.0220489
0.000323246
0.0220426
0.00032394
0.0220307
0.000325965
0.022026
0.000332241
0.0220126
0.000341194
0.0220039
0.000352764
0.0219953
0.000369644
0.0219786
0.000388108
0.021973
0.000412754
0.0219537
0.000440228
0.0219443
0.000471876
0.0219308
0.000509218
0.0219127
0.0219063
0.000548318
0.000439115
0.0218454
0.000483695
0.0218544
0.000520013
0.0218888
0.00055466
0.0218969
0.000584193
0.0219188
0.000609873
0.0219356
0.000633157
0.0219465
0.000650761
0.0219705
0.000666912
0.0219775
0.000678594
0.0219965
0.000687698
0.0220078
0.000694717
0.0220171
0.000697728
0.022034
0.000699482
0.0220398
0.000698327
0.0220522
0.000695149
0.0220609
0.000690852
0.0220658
0.000683811
0.0220773
0.000675838
0.0220814
0.000666726
0.0220862
0.000656143
0.0220923
0.000644948
0.0220948
0.000633063
0.0220975
0.000620627
0.0220997
0.00060796
0.0221004
0.000595201
0.0221005
0.000582725
0.0220991
0.000570443
0.0220979
0.000558651
0.0220954
0.000547981
0.0220904
0.000537841
0.0220876
0.000529058
0.0220814
0.000521898
0.0220741
0.000515509
0.0220701
0.000511967
0.0220578
0.000509849
0.022051
0.00050943
0.0220431
0.000512618
0.0220275
0.000516908
0.0220217
0.000525231
0.0220043
0.000535987
0.0219931
0.000549104
0.0219822
0.000567279
0.0219605
0.00058675
0.0219536
0.000612132
0.0219283
0.000640033
0.0219164
0.000671796
0.021899
0.000708932
0.0218756
0.0218678
0.00074746
0.000471288
0.0217971
0.000517811
0.0218078
0.000556291
0.0218503
0.000593348
0.0218598
0.00062554
0.0218866
0.000654131
0.021907
0.00068057
0.0219201
0.000701562
0.0219495
0.000721321
0.0219577
0.000736821
0.021981
0.000749936
0.0219947
0.000761145
0.0220059
0.000768511
0.0220267
0.000774768
0.0220336
0.00077825
0.0220487
0.000779826
0.0220593
0.000780381
0.0220653
0.000778282
0.0220794
0.000775315
0.0220843
0.000771262
0.0220902
0.000765775
0.0220978
0.000759693
0.0221009
0.000752922
0.0221043
0.00074559
0.022107
0.000737994
0.022108
0.000730259
0.0221083
0.00072275
0.0221066
0.000715352
0.0221053
0.000708351
0.0221024
0.000702368
0.0220964
0.000696787
0.0220932
0.000692428
0.0220858
0.000689541
0.022077
0.000687252
0.0220724
0.000687641
0.0220574
0.000689256
0.0220494
0.000692361
0.02204
0.000698868
0.022021
0.000706237
0.0220144
0.000717408
0.0219932
0.00073076
0.0219798
0.000746208
0.0219667
0.000766456
0.0219402
0.000787708
0.0219323
0.000814597
0.0219014
0.000843702
0.0218873
0.000876357
0.0218664
0.000914073
0.0218379
0.0218291
0.000952821
0.000463685
0.0217462
0.000513088
0.0217584
0.000554674
0.0218087
0.000595101
0.0218194
0.00063093
0.0218508
0.000663427
0.0218745
0.00069404
0.0218894
0.000719459
0.0219241
0.000743894
0.0219333
0.000764299
0.0219606
0.000782538
0.0219765
0.000799071
0.0219894
0.000811947
0.0220138
0.000823882
0.0220216
0.000833193
0.0220394
0.000840731
0.0220518
0.000847364
0.0220587
0.00085144
0.0220753
0.000854728
0.022081
0.000856988
0.022088
0.000857859
0.0220969
0.000858155
0.0221006
0.000857769
0.0221047
0.000856808
0.022108
0.000855549
0.0221093
0.0008541
0.0221097
0.000852811
0.0221079
0.000851544
0.0221066
0.00085057
0.0221034
0.000850498
0.0220965
0.000850684
0.022093
0.000851941
0.0220845
0.000854504
0.0220745
0.000857473
0.0220694
0.000862929
0.022052
0.000869397
0.0220429
0.000877125
0.0220322
0.000888026
0.0220101
0.00089953
0.0220029
0.000914587
0.0219781
0.000931552
0.0219628
0.000950329
0.021948
0.000973632
0.0219169
0.000997629
0.0219083
0.00102698
0.0218721
0.00105822
0.021856
0.00109269
0.0218319
0.0011319
0.0217987
0.0217892
0.00117176
0.000411221
0.0216914
0.000464627
0.021705
0.000510456
0.0217629
0.000555429
0.0217744
0.000596103
0.0218101
0.000633753
0.0218369
0.000669827
0.0218534
0.000700992
0.0218929
0.000731462
0.0219028
0.000758164
0.0219339
0.000782952
0.0219517
0.000806271
0.021966
0.000826142
0.0219939
0.000845275
0.0220025
0.000861958
0.0220227
0.000877026
0.0220367
0.000891328
0.0220444
0.000903185
0.0220635
0.000914351
0.0220699
0.000924563
0.0220777
0.000933436
0.022088
0.000941765
0.0220922
0.000949418
0.022097
0.000956485
0.0221009
0.000963218
0.0221026
0.000969702
0.0221032
0.00097627
0.0221013
0.00098276
0.0221001
0.000989421
0.0220967
0.000996847
0.022089
0.00100437
0.0220855
0.00101278
0.0220761
0.00102231
0.0220649
0.00103202
0.0220597
0.00104399
0.02204
0.00105673
0.0220302
0.00107046
0.0220185
0.0010871
0.0219934
0.00110404
0.0219859
0.00112425
0.0219579
0.00114606
0.021941
0.00116936
0.0219247
0.00119688
0.0218894
0.00122474
0.0218804
0.00125763
0.0218392
0.00129207
0.0218216
0.00132938
0.0217946
0.00137107
0.021757
0.0217473
0.001413
0.00030859
0.0216317
0.000367327
0.0216463
0.000418806
0.0217114
0.000469761
0.0217235
0.000516733
0.0217631
0.000561027
0.0217926
0.000604112
0.0218103
0.000642628
0.0218544
0.000680802
0.0218646
0.000715522
0.0218992
0.000748635
0.0219186
0.000780569
0.0219341
0.000809308
0.0219652
0.000837557
0.0219742
0.000863569
0.0219967
0.000888161
0.0220121
0.00091216
0.0220204
0.000933851
0.0220418
0.000954975
0.0220488
0.000975239
0.0220575
0.000994229
0.022069
0.00101272
0.0220738
0.00103054
0.0220792
0.00104777
0.0220837
0.00106462
0.0220857
0.00108116
0.0220867
0.00109769
0.0220848
0.00111402
0.0220837
0.00113038
0.0220804
0.00114733
0.0220721
0.00116418
0.0220686
0.00118171
0.0220586
0.00120011
0.0220465
0.00121843
0.0220414
0.00123873
0.0220197
0.0012595
0.0220094
0.00128093
0.0219971
0.00130496
0.0219694
0.00132893
0.021962
0.00135582
0.021931
0.00138393
0.0219129
0.00141315
0.0218954
0.00144622
0.0218563
0.00147922
0.0218474
0.00151688
0.0218015
0.00155566
0.0217828
0.00159691
0.0217533
0.00164212
0.0217118
0.0217023
0.00168711
0.000149389
0.0215655
0.000215157
0.0215805
0.000273792
0.0216528
0.000332263
0.021665
0.000387317
0.0217081
0.000440186
0.0217397
0.00049227
0.0217582
0.000540149
0.0218065
0.000588095
0.0218167
0.000632965
0.0218543
0.00067661
0.0218749
0.000719435
0.0218913
0.000759381
0.0219252
0.000799151
0.0219345
0.000836953
0.0219589
0.000873583
0.0219755
0.000909845
0.0219841
0.000943977
0.0220077
0.000977704
0.022015
0.0010107
0.0220245
0.00104251
0.0220372
0.00107387
0.0220424
0.00110461
0.0220485
0.00113473
0.0220536
0.00116443
0.022056
0.00119374
0.0220574
0.00122293
0.0220556
0.00125177
0.0220549
0.00128046
0.0220517
0.00130953
0.022043
0.00133824
0.0220399
0.00136735
0.0220295
0.00139704
0.0220169
0.00142629
0.0220121
0.00145719
0.0219888
0.00148815
0.0219785
0.00151937
0.0219658
0.00155277
0.021936
0.00158565
0.0219291
0.00162101
0.0218956
0.00165712
0.0218768
0.00169385
0.0218587
0.00173397
0.0218162
0.0017735
0.0218079
0.00181722
0.0217578
0.00186156
0.0217385
0.00190786
0.0217071
0.00195763
0.021662
0.0216533
0.00200659
-7.50137e-05
0.0214923
-1.75945e-06
0.0215073
6.59128e-05
0.0215851
0.000134662
0.0215962
0.000200446
0.0216423
0.000264479
0.0216757
0.000327769
0.0216949
0.000387408
0.0217469
0.000447725
0.0217564
0.00050545
0.0217966
0.000562412
0.021818
0.00061899
0.0218347
0.000673083
0.0218712
0.000727403
0.0218802
0.000780102
0.0219062
0.000831955
0.0219236
0.000883738
0.0219323
0.000933632
0.0219578
0.000983345
0.0219653
0.0010325
0.0219753
0.0010806
0.0219891
0.00112835
0.0219946
0.0011755
0.0220013
0.00122205
0.022007
0.00126813
0.0220099
0.00131371
0.0220118
0.00135904
0.0220103
0.00140383
0.0220101
0.00144821
0.0220073
0.00149272
0.0219985
0.00153652
0.0219961
0.00158037
0.0219856
0.00162437
0.0219729
0.00166748
0.021969
0.00171178
0.0219445
0.00175561
0.0219346
0.00179915
0.0219223
0.00184433
0.0218908
0.00188836
0.021885
0.0019343
0.0218497
0.00198035
0.0218307
0.00202638
0.0218127
0.00207519
0.0217674
0.00212273
0.0217604
0.00217386
0.0217066
0.00222495
0.0216874
0.00227734
0.0216547
0.00233258
0.0216068
0.0215996
0.0023863
-0.000369558
0.021409
-0.000285348
0.0214231
-0.000207191
0.021507
-0.000128043
0.0215171
-5.1241e-05
0.0215655
2.46479e-05
0.0215998
0.000102159
0.0216174
0.000176771
0.0216723
0.000252603
0.0216806
0.000326326
0.0217229
0.000399836
0.0217445
0.000473593
0.021761
0.000545423
0.0217993
0.000618038
0.0218075
0.00068952
0.0218347
0.000760608
0.0218525
0.000832046
0.0218609
0.000901941
0.0218879
0.000971976
0.0218953
0.00104171
0.0219056
0.00111058
0.0219202
0.00117925
0.021926
0.0012474
0.0219332
0.00131495
0.0219395
0.00138199
0.0219429
0.00144841
0.0219454
0.00151441
0.0219443
0.0015796
0.0219449
0.00164407
0.0219428
0.00170829
0.0219343
0.00177136
0.021933
0.00183396
0.021923
0.00189617
0.0219106
0.00195683
0.0219084
0.00201805
0.0218833
0.00207807
0.0218746
0.00213703
0.0218633
0.00219688
0.021831
0.00225473
0.0218272
0.00231367
0.0217908
0.00237187
0.0217725
0.00242915
0.0217554
0.00248839
0.0217082
0.00254543
0.0217033
0.00260526
0.0216468
0.00266415
0.0216285
0.00272349
0.0215953
0.00278486
0.0215454
0.0215407
0.00284379
-0.000753499
0.0213149
-0.000657451
0.021327
-0.000566066
0.0214156
-0.000472184
0.0214232
-0.000379504
0.0214728
-0.000286731
0.021507
-0.000192968
0.0215236
-0.000101409
0.0215807
-7.49158e-06
0.0215866
8.55193e-05
0.0216298
0.000179448
0.0216505
0.000274454
0.0216659
0.0003683
0.0217055
0.000463764
0.0217121
0.000558835
0.0217396
0.000654222
0.0217571
0.000750605
0.0217645
0.000845972
0.0217925
0.000941952
0.0217993
0.00103802
0.0218095
0.00113353
0.0218247
0.00122906
0.0218304
0.00132421
0.021838
0.00141882
0.0218449
0.00151286
0.0218488
0.00160614
0.0218521
0.00169878
0.0218517
0.00179026
0.0218534
0.0018806
0.0218525
0.00197017
0.0218447
0.00205795
0.0218452
0.00214456
0.0218364
0.00223
0.0218252
0.00231297
0.0218254
0.0023956
0.0218006
0.00247598
0.0217942
0.00255421
0.0217851
0.00263225
0.021753
0.00270707
0.0217524
0.00278184
0.021716
0.00285464
0.0216997
0.00292526
0.0216848
0.00299668
0.0216367
0.00306463
0.0216354
0.00313423
0.0215772
0.00320167
0.0215611
0.00326841
0.0215286
0.00333608
0.0214777
0.0214766
0.0034001
-0.00124676
0.021209
-0.00113723
0.0212175
-0.00103109
0.0213094
-0.00092106
0.0213132
-0.000810952
0.0213627
-0.000699379
0.0213954
-0.000584787
0.021409
-0.000470948
0.0214669
-0.000353375
0.0214691
-0.000235704
0.0215122
-0.000116072
0.0215309
5.87325e-06
0.021544
0.000127676
0.0215837
0.000252041
0.0215877
0.000377008
0.0216147
0.000503384
0.0216308
0.000631629
0.0216362
0.000759642
0.0216645
0.000888975
0.02167
0.00101897
0.0216795
0.00114889
0.0216948
0.00127918
0.0217001
0.00140933
0.0217079
0.00153906
0.0217151
0.00166819
0.0217197
0.0017964
0.0217239
0.00192369
0.0217244
0.00204936
0.0217278
0.0021733
0.0217286
0.00229577
0.0217222
0.00241553
0.0217255
0.00253313
0.0217188
0.00264842
0.0217099
0.00275992
0.0217139
0.00286976
0.0216908
0.00297585
0.0216881
0.00307817
0.0216828
0.00317873
0.0216524
0.00327429
0.0216568
0.00336813
0.0216221
0.0034582
0.0216097
0.00354429
0.0215987
0.00362951
0.0215515
0.00370943
0.0215555
0.00378941
0.0214972
0.00386554
0.0214849
0.00393938
0.0214547
0.00401267
0.0214044
0.0214086
0.00408071
-0.00187954
0.0210916
-0.00175631
0.0210943
-0.00163446
0.0211876
-0.00150639
0.0211851
-0.00137604
0.0212323
-0.001242
0.0212614
-0.00110272
0.0212698
-0.000962141
0.0213263
-0.000815631
0.0213226
-0.000666971
0.0213635
-0.000514363
0.0213783
-0.000357706
0.0213873
-0.000199577
0.0214255
-3.731e-05
0.0214254
0.000126485
0.0214509
0.000292222
0.021465
0.000461564
0.0214669
0.00063173
0.0214943
0.000804163
0.0214975
0.000978127
0.0215056
0.00115275
0.0215202
0.00132833
0.0215246
0.00150419
0.021532
0.00167992
0.0215394
0.0018551
0.0215445
0.00202924
0.0215498
0.00220214
0.0215515
0.00237284
0.0215571
0.002541
0.0215604
0.00270672
0.0215565
0.00286844
0.0215638
0.00302654
0.0215607
0.00318069
0.0215558
0.0033291
0.0215655
0.00347389
0.021546
0.00361268
0.0215494
0.00374532
0.0215502
0.00387383
0.0215239
0.0039947
0.0215359
0.00411132
0.0215055
0.0042215
0.0214995
0.00432502
0.0214952
0.00442517
0.0214514
0.00451732
0.0214633
0.00460722
0.0214073
0.00469085
0.0214013
0.00476996
0.0213756
0.00484651
0.0213279
0.0213394
0.00491568
-0.00269437
0.0209655
-0.00255869
0.0209586
-0.00242158
0.0210505
-0.00227483
0.0210384
-0.00212229
0.0210798
-0.0019622
0.0211013
-0.00179291
0.0211005
-0.00161869
0.0211521
-0.00143506
0.0211389
-0.00124628
0.0211747
-0.00105086
0.0211829
-0.000848971
0.0211855
-0.000643568
0.0212201
-0.000432127
0.021214
-0.000217011
0.0212358
2.23738e-06
0.0212458
0.000224296
0.0212448
0.000448439
0.0212702
0.000676645
0.0212693
0.000907708
0.0212745
0.00114069
0.0212872
0.0013757
0.0212896
0.00161184
0.0212959
0.0018485
0.0213028
0.00208494
0.0213081
0.00232035
0.0213143
0.00255429
0.0213175
0.00278532
0.021326
0.00301274
0.021333
0.00323638
0.0213329
0.00345413
0.021346
0.00366612
0.0213487
0.00387168
0.0213502
0.00406855
0.0213686
0.00425883
0.0213557
0.00443968
0.0213685
0.00461076
0.0213791
0.00477411
0.0213605
0.00492579
0.0213843
0.0050694
0.0213619
0.00520253
0.0213664
0.0053249
0.0213728
0.00544011
0.0213362
0.00554328
0.0213601
0.00564072
0.0213099
0.00572837
0.0213137
0.00580837
0.0212956
0.00588306
0.0212532
0.021275
0.0059475
-0.00310774
0.0208633
-0.00299446
0.0208453
-0.00287507
0.0209311
-0.00274008
0.0209034
-0.00259245
0.0209322
-0.00243119
0.02094
-0.00225599
0.0209253
-0.00207184
0.0209679
-0.00187599
0.0209431
-0.00167312
0.0209719
-0.00146263
0.0209724
-0.00124516
0.020968
-0.00102355
0.0209985
-0.000795767
0.0209862
-0.000564104
0.0210041
-0.00032812
0.0210098
-8.66281e-05
0.0210033
0.000157336
0.0210262
0.000405107
0.0210216
0.000657005
0.0210226
0.000912063
0.0210322
0.00117031
0.0210313
0.0014309
0.0210353
0.00169311
0.0210405
0.00195597
0.0210452
0.00221841
0.0210519
0.00247969
0.0210563
0.002738
0.0210677
0.00299225
0.0210787
0.00324186
0.0210833
0.00348436
0.0211035
0.00371949
0.0211136
0.00394622
0.0211235
0.0041621
0.0211527
0.00436883
0.021149
0.00456352
0.0211738
0.00474569
0.0211969
0.00491714
0.0211891
0.00507411
0.0212273
0.00521989
0.0212161
0.0053522
0.0212341
0.00547076
0.0212542
0.0055788
0.0212281
0.00567182
0.0212671
0.00575559
0.0212261
0.00582654
0.0212427
0.00588699
0.0212352
0.0059397
0.0212005
0.0212337
0.00598099
-0.00336322
0.0207833
-0.00328187
0.0207639
-0.0031908
0.02084
-0.00307334
0.0207859
-0.00293162
0.0207905
-0.00276757
0.020776
-0.00258449
0.0207422
-0.00238977
0.0207732
-0.00218315
0.0207364
-0.00197001
0.0207587
-0.00175049
0.0207528
-0.00152544
0.0207429
-0.00129728
0.0207704
-0.00106409
0.020753
-0.000827481
0.0207675
-0.00058677
0.0207691
-0.000341228
0.0207578
-9.18727e-05