/*--------------------------------*- C++ -*----------------------------------*\
| =========                 |                                                 |
| \\      /  F ield         | OpenFOAM: The Open Source CFD Toolbox           |
|  \\    /   O peration     | Version:  2312                                  |
|   \\  /    A nd           | Website:  www.openfoam.com                      |
|    \\/     M anipulation  |                                                 |
\*---------------------------------------------------------------------------*/
FoamFile
{
    version     2.0;
    format      ascii;
    arch        "LSB;label=32;scalar=64";
    class       surfaceScalarField;
    location    "27.206098809051564";
    object      phi;
}
// * * * * * * * * * * * * * * * * * * * * * * * * * * * * * * * * * * * * * //

dimensions      [0 3 -1 0 0 0 0];

oriented        oriented;

internalField   nonuniform List<scalar> 
41713
(
0.00736591
0.0568805
0.00362817
0.0679842
0.00211641
0.0657582
0.00148424
0.0648786
0.00109856
0.0646321
0.000844411
0.0645006
0.000669279
0.0644216
0.000542258
0.0643735
0.000446738
0.064342
0.000373067
0.0643201
0.000315121
0.0643044
0.000268847
0.0642927
0.000231477
0.0642838
0.000201073
0.0642768
0.00017624
0.0642713
0.000155956
0.0642667
0.000139457
0.0642629
0.000126157
0.0642597
0.000115597
0.064257
0.000107395
0.0642546
0.00010119
0.0642526
9.66205e-05
0.064251
9.34015e-05
0.0642497
9.12009e-05
0.0548134
8.93469e-05
0.0456778
8.76147e-05
0.038065
8.60033e-05
0.031721
8.45342e-05
0.0264343
0.0220287
8.31828e-05
0.00999512
0.0468854
0.00843033
0.069549
0.00571848
0.0684701
0.00412508
0.066472
0.00312492
0.0656323
0.00243416
0.0651914
0.00193698
0.0649187
0.00156794
0.0647425
0.00128674
0.0646232
0.00106757
0.0645393
0.000893513
0.0644784
0.000753174
0.064433
0.00063871
0.0643983
0.000544579
0.064371
0.00046679
0.0643491
0.000402419
0.0643311
0.000349291
0.0643161
0.000305757
0.0643033
0.00027055
0.0642922
0.000242664
0.0642825
0.000221279
0.064274
0.000205674
0.0642666
0.000195121
0.0642602
0.000189209
0.0548193
0.000185869
0.0456812
0.00018379
0.0380671
0.000182229
0.0317226
0.000180837
0.0264357
0.0220299
0.000179629
0.00859747
0.0382879
0.00971171
0.0684347
0.00747491
0.0707069
0.00570685
0.0682401
0.00451982
0.0668193
0.00363606
0.0660751
0.00295525
0.0655996
0.0024258
0.0652719
0.00200905
0.0650399
0.00167643
0.0648719
0.0014075
0.0647474
0.00118764
0.0646529
0.00100629
0.0645796
0.000855766
0.0645215
0.000730382
0.0644744
0.000625916
0.0644356
0.000539192
0.0644028
0.000467792
0.0643747
0.000409855
0.0643501
0.000363923
0.0643285
0.000328829
0.0643091
0.000303595
0.0642918
0.000287233
0.0642766
0.000279013
0.0548275
0.000275318
0.0456849
0.000273768
0.0380687
0.000273003
0.0317234
0.000272394
0.0264363
0.0220304
0.000271889
0.0067756
0.0315123
0.00947869
0.0657316
0.00812669
0.0720589
0.00644899
0.0699178
0.00526049
0.0680078
0.00435793
0.0669777
0.00362965
0.0663278
0.00303628
0.0658653
0.00255067
0.0655255
0.00215078
0.0652718
0.00181936
0.0650788
0.001543
0.0649293
0.00131142
0.0648112
0.00111671
0.0647162
0.000952834
0.0646383
0.000815165
0.0645732
0.000700144
0.0645178
0.000605027
0.0644698
0.000527685
0.0644275
0.000466444
0.0643897
0.000419971
0.0643556
0.000387148
0.0643247
0.000366763
0.064297
0.00035757
0.0548367
0.000354494
0.0456879
0.000354202
0.038069
0.000354837
0.0317227
0.000355592
0.0264356
0.0220297
0.000356375
0.00506499
0.0264474
0.0085724
0.0622242
0.00818797
0.0724433
0.00674767
0.0713581
0.00559606
0.0691594
0.00472429
0.0678494
0.00401074
0.0670414
0.00341153
0.0664645
0.00290571
0.0660314
0.00247734
0.0657001
0.00211348
0.0654427
0.00180363
0.0652391
0.00153933
0.0650755
0.00131379
0.0649417
0.00112164
0.0648305
0.000958636
0.0647362
0.000821416
0.064655
0.000707358
0.0645838
0.0006144
0.0645204
0.000540914
0.0644632
0.000485596
0.0644109
0.000447328
0.0643629
0.000424789
0.0643195
0.000416101
0.0548454
0.000414843
0.0456892
0.00041683
0.038067
0.000419774
0.0317198
0.000422711
0.0264326
0.0220269
0.0004255
0.00361744
0.0228299
0.00731208
0.0585296
0.00778841
0.071967
0.00673459
0.0724119
0.00567883
0.0702152
0.00485884
0.0686694
0.00418368
0.0677165
0.00360493
0.0670433
0.00310469
0.0665316
0.00267141
0.0661334
0.00229561
0.0658185
0.00196944
0.0655653
0.00168646
0.0653585
0.00144141
0.0651868
0.00123001
0.0650419
0.00104879
0.0649175
0.000894994
0.0648088
0.000766432
0.0647124
0.000661378
0.0646255
0.000578475
0.0645461
0.000516638
0.0644727
0.000474912
0.0644047
0.000452015
0.0643424
0.000445331
0.0548521
0.000447169
0.0456874
0.000452556
0.0380616
0.000458816
0.0317135
0.000464834
0.0264266
0.0220213
0.000470422
0.00252107
0.0203088
0.00601716
0.0550335
0.00710089
0.0708832
0.006478
0.0730348
0.00557291
0.0711203
0.00482434
0.069418
0.00420203
0.0683388
0.00365883
0.0675865
0.00317879
0.0670116
0.00275427
0.0665579
0.00237903
0.0661937
0.00204766
0.0658967
0.00175564
0.0656505
0.00149921
0.0654432
0.00127526
0.0652658
0.00108129
0.0651114
0.00091528
0.0649748
0.000775666
0.064852
0.000661237
0.0647399
0.000571079
0.0646362
0.000504489
0.0645393
0.000460822
0.0644483
0.000438981
0.0643642
0.000435529
0.0548555
0.000441567
0.0456813
0.000451384
0.0380518
0.000461937
0.031703
0.00047196
0.0264166
0.022012
0.000481201
0.00175578
0.0185531
0.00488336
0.0519059
0.00631964
0.0694469
0.00607985
0.0732746
0.00534361
0.0718565
0.00467153
0.0700901
0.00410508
0.0689053
0.00360392
0.0680876
0.00315194
0.0674636
0.00274404
0.0669658
0.00237677
0.066561
0.00204697
0.0662265
0.00175191
0.0659456
0.00148927
0.0657059
0.00125712
0.065498
0.00105391
0.0653146
0.000878474
0.0651503
0.000729937
0.0650006
0.000607721
0.0648621
0.000511476
0.0647325
0.000441008
0.0646098
0.000396115
0.0644932
0.000376023
0.0643843
0.000376513
0.054855
0.000387519
0.0456703
0.000402607
0.0380367
0.000418349
0.0316872
0.000433289
0.0264017
0.0219983
0.000447061
0.00124385
0.0173092
0.00395906
0.0491907
0.00555886
0.0678471
0.00562376
0.0732097
0.00505113
0.0724291
0.00445
0.0706912
0.00393189
0.0694234
0.00346983
0.0685497
0.00304659
0.0678869
0.00265771
0.0673547
0.00230146
0.0669172
0.00197641
0.0665515
0.0016813
0.0662407
0.00141505
0.0659721
0.00117682
0.0657362
0.000966006
0.0655254
0.000782251
0.065334
0.000625438
0.0651574
0.000495674
0.0649919
0.00039326
0.0648349
0.000318629
0.0646844
0.000272144
0.0645397
0.000253499
0.064403
0.000257888
0.0548506
0.000274088
0.0456541
0.000294914
0.0380159
0.000316509
0.0316656
0.000337172
0.026381
0.0219791
0.000356347
0.000908225
0.016401
0.00322543
0.0468735
0.00486212
0.0662104
0.0051536
0.0729182
0.00473046
0.0728523
0.0041936
0.0712281
0.00371358
0.0699034
0.00328269
0.0689806
0.00288375
0.0682858
0.00251179
0.0677267
0.00216585
0.0672632
0.00184554
0.0668718
0.00155064
0.0665356
0.00128104
0.0662417
0.00103681
0.0659804
0.000818167
0.0657441
0.000625534
0.0655267
0.000459532
0.0653234
0.000321001
0.0651304
0.000210959
0.0649449
0.000130537
0.0647649
8.08067e-05
0.0645894
6.20682e-05
0.0644217
6.92077e-05
0.0548435
8.99697e-05
0.0456334
0.000116343
0.0379895
0.000143911
0.0316381
0.000170637
0.0263543
0.0219539
0.00019579
0.000689167
0.0157118
0.0026493
0.0449134
0.00424227
0.0646175
0.00469077
0.0724697
0.00439803
0.073145
0.00391974
0.0717064
0.00346914
0.070354
0.00306085
0.0693889
0.00267986
0.0686668
0.00232037
0.0680861
0.00198156
0.067602
0.00166364
0.0671897
0.00136705
0.0668322
0.00109239
0.0665164
0.000840408
0.0662324
0.000612019
0.0659725
0.000408349
0.0657303
0.000230722
0.065501
8.06359e-05
0.0652805
-4.02032e-05
0.0650658
-0.000129881
0.0648545
-0.00018648
0.064646
-0.000208852
0.0644441
-0.000201592
0.0548362
-0.00017811
0.0456099
-0.000147347
0.0379587
-0.000114401
0.0316051
-8.19161e-05
0.0263218
0.0219232
-5.11457e-05
0.000543132
0.0151687
0.00219676
0.0432597
0.00369925
0.063115
0.00424737
0.0719216
0.00406331
0.0733291
0.00363768
0.072132
0.00320967
0.070782
0.00281624
0.0697823
0.00244658
0.0690365
0.00209428
0.0684384
0.00175827
0.067938
0.00143904
0.067509
0.00113744
0.0671338
0.000854519
0.0667993
0.000591561
0.0664954
0.000350066
0.066214
0.000131675
0.0659487
-6.1754e-05
0.0656944
-0.00022804
0.0654468
-0.000364664
0.0652024
-0.000468821
0.0649587
-0.000537697
0.0647149
-0.000569246
0.0644756
-0.000566546
0.0548335
-0.000543812
0.0455871
-0.000510899
0.0379258
-0.000473645
0.0315679
-0.000435331
0.0262835
0.0218858
-0.000397922
0.000440938
0.0147278
0.00183773
0.041863
0.0032265
0.0617262
0.00383
0.0713181
0.00373292
0.0734262
0.00335361
0.0725113
0.00294265
0.071193
0.00255736
0.0701676
0.00219272
0.0694011
0.00184216
0.068789
0.00150417
0.068276
0.00117924
0.0678339
0.000868417
0.0674446
0.000573072
0.0670946
0.000294831
0.0667736
3.54975e-05
0.0664733
-0.000202866
0.0661871
-0.000417812
0.0659094
-0.000606424
0.0656354
-0.000765416
0.0653614
-0.0008912
0.0650845
-0.000980134
0.0648038
-0.00102932
0.0645248
-0.00103883
0.0548431
-0.0010232
0.0455715
-0.000993031
0.0378956
-0.000955005
0.0315298
-0.00091335
0.0262418
0.0218434
-0.00087095
0.000364963
0.0143628
0.00154851
0.0406794
0.00281505
0.0604597
0.00344129
0.0706918
0.00341135
0.0734561
0.00307201
0.0728507
0.00267375
0.0715912
0.00229104
0.0705503
0.00192572
0.0697664
0.00157165
0.0691431
0.00122682
0.0686208
0.000891528
0.0681692
0.000566841
0.0677693
0.000254219
0.0674073
-4.46405e-05
0.0670725
-0.000327726
0.0667564
-0.000592509
0.0664519
-0.000835936
0.0661528
-0.00105451
0.065854
-0.00124427
0.0655512
-0.00140092
0.0652411
-0.00152021
0.0649231
-0.0015988
0.0646034
-0.00163226
0.0548765
-0.00163462
0.0455739
-0.00161644
0.0378775
-0.00158481
0.0314982
-0.00154494
0.0262019
0.0217996
-0.00150115
0.000305124
0.0140577
0.00131335
0.0396712
0.00245897
0.059314
0.00308384
0.070067
0.00310238
0.0734376
0.00279596
0.0731571
0.00240677
0.0719804
0.00202227
0.0709348
0.00165143
0.0701373
0.00128911
0.0695054
0.00093286
0.0689771
0.000582626
0.0685194
0.000239301
0.0681126
-9.58407e-05
0.0677424
-0.000421126
0.0673978
-0.000734281
0.0670695
-0.00103242
0.06675
-0.0013121
0.0664325
-0.00156926
0.0661112
-0.0017993
0.0657812
-0.00199732
0.0654391
-0.00215882
0.0650846
-0.00228113
0.0647257
-0.00235464
0.05495
-0.00239252
0.0456117
-0.00240377
0.0378887
-0.00239375
0.0314882
-0.00236716
0.0261754
0.0217619
-0.00232954
0.000220527
0.0138371
0.000955727
0.038936
0.00183187
0.0584379
0.0023461
0.0695527
0.0023884
0.0733953
0.00215094
0.0733945
0.0018278
0.0723036
0.0015001
0.0712625
0.0011806
0.0704568
0.000865964
0.06982
0.000553791
0.0692892
0.000243653
0.0688296
-6.40987e-05
0.0684203
-0.000368621
0.0680469
-0.000668555
0.0676977
-0.000962003
0.067363
-0.0012465
0.0670345
-0.00151893
0.0667049
-0.0017755
0.0663677
-0.0020117
0.0660174
-0.00222259
0.06565
-0.00240381
0.0652658
-0.0025536
0.0648755
-0.0026597
0.0550561
-0.00273482
0.0456869
-0.00278631
0.0379402
-0.00281562
0.0315175
-0.00282276
0.0261825
0.0217505
-0.0028113
0.000162751
0.0136744
0.000706464
0.0383923
0.0013776
0.0577668
0.00179349
0.0691368
0.0018426
0.0733462
0.00165673
0.0735804
0.0013898
0.0725705
0.00111338
0.0715389
0.000841407
0.0707287
0.00057173
0.0700897
0.000302033
0.0695589
3.15601e-05
0.0691
-0.000239686
0.0686916
-0.000511291
0.0683185
-0.000782328
0.0679687
-0.00105146
0.0676321
-0.0013168
0.0672998
-0.00157586
0.066964
-0.00182536
0.0666172
-0.0020612
0.0662532
-0.00227853
0.0658674
-0.00247255
0.0654599
-0.00264062
0.0650436
-0.00276719
0.0551827
-0.00286714
0.0457868
-0.00295224
0.0380253
-0.00302731
0.0315926
-0.00309005
0.0262452
0.0217876
-0.00312713
0.000124206
0.0135502
0.000534926
0.0379815
0.00105542
0.0572463
0.00139133
0.0688009
0.00143952
0.073298
0.00129218
0.0737277
0.00107153
0.0727911
0.000839106
0.0717714
0.000608544
0.0709593
0.000378491
0.0703198
0.000146827
0.0697906
-8.74041e-05
0.0693343
-0.00032447
0.0689287
-0.000564232
0.0685583
-0.000806239
0.0682107
-0.0010497
0.0678756
-0.00129338
0.0675435
-0.00153547
0.0672061
-0.00177346
0.0668552
-0.00200397
0.0664838
-0.00222264
0.066086
-0.00242442
0.0656617
-0.00260445
0.0652236
-0.00274006
0.0553183
-0.00284391
0.0458907
-0.00293305
0.0381144
-0.0030218
0.0316813
-0.00312797
0.0263514
0.0219214
-0.00326182
9.41409e-05
0.013456
0.000412406
0.0376633
0.000824704
0.056834
0.00109831
0.0685273
0.00114092
0.0732554
0.00102051
0.0738482
0.000836637
0.072975
0.000641523
0.0719665
0.000446986
0.0711538
0.000251755
0.070515
5.38682e-05
0.0699885
-0.000147622
0.0695357
-0.000353108
0.0691341
-0.000562722
0.0687679
-0.000776393
0.0684244
-0.000993803
0.068093
-0.00121431
0.067764
-0.00143682
0.0674286
-0.00165964
0.067078
-0.00188041
0.0667045
-0.00209595
0.0663016
-0.00230236
0.0658681
-0.00249458
0.0654158
-0.00264239
0.0554661
-0.002747
0.0459953
-0.00281568
0.0381831
-0.00285858
0.0317242
-0.00289405
0.0263869
-0.0030578
0.0220851
0.000127895
0.0219826
0.000170084
0.0219852
0.000203328
0.0219941
0.000234224
0.0219965
0.000259297
0.0220023
0.000279836
0.0220068
0.000297339
0.0220099
0.000308521
0.0220162
0.000317691
0.0220182
0.000321836
0.0220232
0.000322907
0.0220263
0.000321444
0.0220288
0.000315533
0.0220333
0.00030801
0.0220349
0.000297229
0.0220381
0.000284134
0.0220405
0.000269693
0.0220418
0.000252266
0.0220448
0.000233763
0.0220459
0.000214008
0.0220471
0.000192679
0.0220487
0.000170722
0.0220493
0.000148082
0.02205
0.000124922
0.0220505
0.000101637
0.0220506
7.83978e-05
0.0220506
5.55903e-05
0.0220502
3.32092e-05
0.0220497
1.15764e-05
0.022049
-8.66662e-06
0.0220476
-2.80214e-05
0.0220467
-4.56552e-05
0.022045
-6.12641e-05
0.022043
-7.56162e-05
0.0220417
-8.66675e-05
0.0220384
-9.57453e-05
0.0220364
-0.000102542
0.0220342
-0.00010516
0.02203
-0.000105995
0.0220282
-0.000102151
0.0220235
-9.51469e-05
0.0220204
-8.5016e-05
0.0220172
-6.90785e-05
0.0220114
-5.0979e-05
0.0220093
-2.6154e-05
0.0220025
2.11801e-06
0.0219991
3.52041e-05
0.0219943
7.46543e-05
0.0219879
0.0219854
0.000116611
0.000224387
0.0219379
0.000266834
0.0219427
0.000300561
0.0219604
0.000332164
0.0219649
0.000358185
0.0219763
0.000379905
0.0219851
0.000398809
0.0219909
0.000411615
0.0220034
0.000422601
0.0220072
0.000428757
0.0220171
0.000432014
0.022023
0.000432895
0.0220279
0.000429484
0.0220367
0.000424589
0.0220398
0.000416564
0.0220462
0.000406332
0.0220507
0.00039484
0.0220533
0.000380457
0.0220592
0.000365057
0.0220613
0.000348456
0.0220637
0.000330331
0.0220668
0.000311596
0.022068
0.000292192
0.0220694
0.000272273
0.0220704
0.000252212
0.0220707
0.000232166
0.0220706
0.000212522
0.0220698
0.000193245
0.022069
0.000174651
0.0220676
0.000157378
0.0220649
0.000140894
0.0220632
0.000126031
0.0220599
0.000113077
0.0220559
0.000101236
0.0220535
9.25628e-05
0.0220471
8.56967e-05
0.0220433
8.09345e-05
0.0220389
8.01778e-05
0.0220307
8.09928e-05
0.0220274
8.62865e-05
0.0220182
9.45141e-05
0.0220121
0.000105628
0.0220061
0.000122313
0.0219947
0.000140885
0.0219907
0.000165925
0.0219775
0.000194115
0.0219709
0.000226808
0.0219616
0.000265535
0.0219492
0.0219445
0.000306407
0.000317137
0.0218926
0.000360274
0.0218996
0.000394942
0.0219257
0.000427724
0.0219321
0.000455167
0.0219488
0.000478542
0.0219617
0.000499316
0.0219702
0.000514211
0.0219885
0.000527474
0.0219939
0.000536098
0.0220084
0.000541992
0.0220171
0.000545664
0.0220243
0.000545199
0.0220371
0.000543374
0.0220416
0.000538541
0.022051
0.000531608
0.0220576
0.000523497
0.0220614
0.000512585
0.0220701
0.000500713
0.0220731
0.000487686
0.0220767
0.00047318
0.0220813
0.000458079
0.0220831
0.000442316
0.0220852
0.00042604
0.0220867
0.000409594
0.0220871
0.00039313
0.0220871
0.000377029
0.0220859
0.000361227
0.0220848
0.000346032
0.0220828
0.000332078
0.0220788
0.000318803
0.0220765
0.000307037
0.0220716
0.000297057
0.0220659
0.000288036
0.0220626
0.000282043
0.0220531
0.000277683
0.0220477
0.000275241
0.0220414
0.000276624
0.0220293
0.000279359
0.0220246
0.000286365
0.0220112
0.000296068
0.0220024
0.000308407
0.0219938
0.000326073
0.0219771
0.00034534
0.0219714
0.000370805
0.021952
0.000399113
0.0219426
0.00043161
0.0219291
0.000469816
0.021911
0.0219045
0.000509795
0.000402809
0.0218462
0.000447311
0.0218551
0.000483575
0.0218895
0.000518185
0.0218975
0.000547702
0.0219193
0.000573388
0.021936
0.000596697
0.0219469
0.000614352
0.0219708
0.000630573
0.0219777
0.000642353
0.0219967
0.000651578
0.0220079
0.000658741
0.0220171
0.000661926
0.022034
0.000663878
0.0220396
0.00066295
0.0220519
0.000660026
0.0220605
0.000656008
0.0220654
0.00064928
0.0220768
0.000641645
0.0220808
0.000632901
0.0220855
0.000622717
0.0220915
0.000611948
0.0220939
0.000600519
0.0220966
0.000588571
0.0220987
0.000576419
0.0220993
0.000564204
0.0220993
0.000552304
0.0220978
0.000540623
0.0220965
0.000529461
0.0220939
0.00051945
0.0220888
0.000509993
0.0220859
0.000501921
0.0220797
0.000495496
0.0220723
0.000489863
0.0220682
0.000487104
0.0220558
0.000485789
0.022049
0.000486192
0.022041
0.000490226
0.0220253
0.000495376
0.0220195
0.00050458
0.022002
0.000516232
0.0219908
0.000530257
0.0219797
0.000549359
0.021958
0.000569763
0.021951
0.000596094
0.0219257
0.000624953
0.0219137
0.000657681
0.0218963
0.000695796
0.0218729
0.021865
0.000735311
0.000474011
0.0217977
0.000520764
0.0218083
0.000559502
0.0218507
0.000596821
0.0218601
0.000629294
0.0218868
0.00065818
0.0219072
0.000684924
0.0219201
0.000706247
0.0219495
0.000726346
0.0219576
0.000742209
0.0219808
0.000755705
0.0219944
0.000767309
0.0220055
0.000775101
0.0220262
0.000781795
0.022033
0.000785741
0.022048
0.000787804
0.0220585
0.00078886
0.0220644
0.000787298
0.0220784
0.000784886
0.0220832
0.000781407
0.022089
0.000776529
0.0220964
0.000771071
0.0220994
0.000764949
0.0221027
0.000758297
0.0221053
0.000751399
0.0221062
0.000744384
0.0221063
0.000737625
0.0221046
0.000730995
0.0221031
0.000724782
0.0221002
0.000719615
0.022094
0.000714862
0.0220907
0.000711353
0.0220832
0.000709337
0.0220743
0.000707926
0.0220696
0.000709219
0.0220545
0.000711747
0.0220464
0.000715774
0.0220369
0.000723223
0.0220179
0.000731534
0.0220112
0.000743663
0.0219899
0.000757977
0.0219765
0.000774387
0.0219633
0.000795611
0.0219367
0.000817828
0.0219288
0.000845693
0.0218978
0.000875767
0.0218837
0.00090939
0.0218627
0.000948079
0.0218342
0.0218253
0.000987792
0.00052207
0.021746
0.000572151
0.0217582
0.000614445
0.0218084
0.000655566
0.021819
0.000692099
0.0218503
0.000725306
0.0218739
0.000756624
0.0218888
0.000782771
0.0219233
0.000807923
0.0219325
0.000829064
0.0219596
0.000848042
0.0219754
0.000865314
0.0219882
0.000878956
0.0220125
0.00089165
0.0220203
0.000901739
0.0220379
0.000910068
0.0220501
0.000917488
0.0220569
0.000922386
0.0220735
0.000926496
0.0220791
0.000929586
0.0220859
0.000931315
0.0220946
0.00093247
0.0220982
0.000932954
0.0221022
0.000932888
0.0221054
0.000932526
0.0221066
0.000931983
0.0221069
0.000931625
0.0221049
0.000931289
0.0221035
0.000931252
0.0221002
0.000932138
0.0220931
0.000933277
0.0220895
0.000935497
0.022081
0.000939032
0.0220708
0.000942961
0.0220657
0.000949398
0.0220481
0.000956837
0.022039
0.000965528
0.0220282
0.000977406
0.022006
0.000989862
0.0219987
0.00100588
0.0219739
0.00102379
0.0219585
0.0010435
0.0219436
0.00106773
0.0219125
0.00109262
0.0219039
0.00112287
0.0218676
0.00115499
0.0218515
0.00119032
0.0218274
0.00123037
0.0217941
0.0217846
0.00127106
0.000537223
0.02169
0.000591902
0.0217036
0.000639041
0.0217613
0.000685283
0.0217728
0.000727221
0.0218084
0.000766122
0.021835
0.000803418
0.0218515
0.000835822
0.0218909
0.000867493
0.0219008
0.000895406
0.0219317
0.000921389
0.0219495
0.000945881
0.0219637
0.000966946
0.0219915
0.000987239
0.022
0.00100509
0.02202
0.00102132
0.0220339
0.00103676
0.0220415
0.00104978
0.0220604
0.00106209
0.0220668
0.00107344
0.0220745
0.00108346
0.0220846
0.00109291
0.0220888
0.00110169
0.0220935
0.00110989
0.0220972
0.00111773
0.0220987
0.00112532
0.0220993
0.00113301
0.0220972
0.00114059
0.0220959
0.00114833
0.0220925
0.00115684
0.0220846
0.00116542
0.022081
0.00117488
0.0220715
0.00118545
0.0220602
0.00119616
0.022055
0.00120915
0.0220351
0.00122286
0.0220253
0.00123754
0.0220136
0.00125513
0.0219884
0.00127297
0.0219809
0.00129407
0.0219528
0.00131673
0.0219359
0.00134084
0.0219195
0.00136916
0.0218842
0.00139775
0.0218753
0.00143137
0.021834
0.00146648
0.0218164
0.00150443
0.0217895
0.00154673
0.0217518
0.0217421
0.00158923
0.000508841
0.0216282
0.000569563
0.0216428
0.000623032
0.0217078
0.000675929
0.0217199
0.000724854
0.0217594
0.000771078
0.0217888
0.000816034
0.0218066
0.000856418
0.0218506
0.000896389
0.0218608
0.000932897
0.0218952
0.000967758
0.0219146
0.00100139
0.0219301
0.00103183
0.021961
0.00106172
0.0219701
0.00108937
0.0219924
0.00111556
0.0220077
0.00114111
0.022016
0.00116437
0.0220372
0.00118701
0.0220441
0.00120876
0.0220528
0.00122923
0.0220642
0.00124915
0.0220688
0.00126838
0.0220742
0.00128701
0.0220786
0.00130521
0.0220805
0.00132306
0.0220814
0.0013409
0.0220794
0.00135849
0.0220783
0.00137606
0.0220749
0.00139422
0.0220664
0.00141222
0.022063
0.00143086
0.0220529
0.00145034
0.0220408
0.00146967
0.0220356
0.00149099
0.0220138
0.0015127
0.0220036
0.00153502
0.0219912
0.00155991
0.0219635
0.00158466
0.0219561
0.0016123
0.0219251
0.0016411
0.0219071
0.00167094
0.0218897
0.00170459
0.0218505
0.00173808
0.0218418
0.00177621
0.0217958
0.00181537
0.0217773
0.00185694
0.0217479
0.00190244
0.0217063
0.0216969
0.00194764
0.00042541
0.0215592
0.000493758
0.0215745
0.000555187
0.0216464
0.000616469
0.0216586
0.0006742
0.0217017
0.00072965
0.0217334
0.000784254
0.0217519
0.00083468
0.0218001
0.000885094
0.0218104
0.00093241
0.0218479
0.000978433
0.0218686
0.00102356
0.021885
0.00106579
0.0219188
0.00110776
0.0219281
0.00114772
0.0219524
0.00118647
0.021969
0.00122475
0.0219777
0.00126092
0.022001
0.00129659
0.0220084
0.00133146
0.0220179
0.00136513
0.0220305
0.00139828
0.0220357
0.00143074
0.0220418
0.00146255
0.0220467
0.00149386
0.0220492
0.00152472
0.0220506
0.00155543
0.0220487
0.0015857
0.022048
0.00161574
0.0220448
0.00164613
0.022036
0.00167607
0.022033
0.00170636
0.0220226
0.00173715
0.02201
0.00176741
0.0220054
0.00179928
0.0219819
0.00183112
0.0219717
0.00186312
0.0219592
0.00189726
0.0219294
0.00193076
0.0219226
0.00196669
0.0218892
0.00200327
0.0218705
0.00204037
0.0218526
0.0020808
0.0218101
0.00212051
0.0218021
0.00216437
0.021752
0.00220872
0.0217329
0.00225495
0.0217017
0.0023046
0.0216567
0.0216482
0.00235333
0.000273798
0.0214812
0.000351349
0.0214969
0.000422664
0.0215751
0.000494385
0.0215869
0.000563027
0.0216331
0.000629873
0.0216665
0.000696422
0.0216854
0.000759305
0.0217372
0.000822708
0.021747
0.000883486
0.0217871
0.000943438
0.0218086
0.00100293
0.0218255
0.00105993
0.0218618
0.00111704
0.021871
0.00117249
0.021897
0.00122702
0.0219144
0.00128136
0.0219233
0.0013338
0.0219486
0.00138594
0.0219563
0.00143743
0.0219664
0.00148782
0.0219801
0.00153774
0.0219858
0.00158698
0.0219925
0.00163555
0.0219982
0.00168353
0.0220012
0.00173092
0.0220032
0.001778
0.0220016
0.0018244
0.0220016
0.00187031
0.0219989
0.00191626
0.0219901
0.00196138
0.0219879
0.00200645
0.0219775
0.00205159
0.0219648
0.00209568
0.0219613
0.00214091
0.0219367
0.00218553
0.0219271
0.00222974
0.021915
0.0022755
0.0218836
0.00231997
0.0218782
0.00236626
0.0218429
0.00241253
0.0218242
0.00245863
0.0218065
0.00250744
0.0217613
0.00255481
0.0217547
0.00260569
0.0217011
0.00265638
0.0216822
0.00270827
0.0216498
0.00276292
0.021602
0.0215952
0.00281592
3.64648e-05
0.0213936
0.000125749
0.0214077
0.000209387
0.0214914
0.000294242
0.021502
0.000376017
0.0215513
0.000456954
0.0215856
0.000538347
0.021604
0.000616684
0.0216589
0.000696206
0.0216675
0.000773707
0.0217096
0.000850995
0.0217313
0.000928413
0.0217481
0.00100386
0.0217863
0.00107995
0.0217949
0.00115484
0.0218221
0.00122924
0.02184
0.00130385
0.0218487
0.00137687
0.0218756
0.00144989
0.0218833
0.00152247
0.0218938
0.00159412
0.0219084
0.00166541
0.0219145
0.00173606
0.0219219
0.00180601
0.0219282
0.00187529
0.0219319
0.00194382
0.0219347
0.00201183
0.0219336
0.00207886
0.0219346
0.00214504
0.0219328
0.00221086
0.0219243
0.00227535
0.0219234
0.00233924
0.0219136
0.00240262
0.0219014
0.00246426
0.0218997
0.00252636
0.0218746
0.0025871
0.0218664
0.0026466
0.0218555
0.00270689
0.0218233
0.00276497
0.0218201
0.00282404
0.0217838
0.00288219
0.0217661
0.00293925
0.0217494
0.00299816
0.0217024
0.00305467
0.0216982
0.00311386
0.0216419
0.00317192
0.0216241
0.0032303
0.0215914
0.0032906
0.0215417
0.0215375
0.00334829
-0.000298159
0.0212938
-0.000197175
0.0213067
-0.000101111
0.0213954
-2.92177e-06
0.0214038
9.54367e-05
0.0214529
0.000193582
0.0214874
0.000292954
0.0215046
0.000390074
0.0215618
0.000489319
0.0215682
0.000587406
0.0216115
0.000686159
0.0216326
0.00078589
0.0216483
0.00088441
0.0216878
0.000984331
0.021695
0.00108371
0.0217227
0.00118323
0.0217405
0.00128353
0.0217484
0.00138272
0.0217764
0.00148233
0.0217837
0.00158186
0.0217943
0.00168071
0.0218096
0.00177938
0.0218158
0.00187751
0.0218238
0.00197496
0.0218308
0.00207164
0.0218353
0.00216738
0.0218389
0.00226234
0.0218387
0.00235594
0.021841
0.0024482
0.0218405
0.00253956
0.0218329
0.00262891
0.0218341
0.00271692
0.0218256
0.00280358
0.0218148
0.00288756
0.0218157
0.00297105
0.0217911
0.00305209
0.0217853
0.00313077
0.0217768
0.00320912
0.021745
0.00328401
0.0217452
0.0033587
0.0217091
0.0034312
0.0216936
0.00350133
0.0216793
0.00357212
0.0216316
0.00363918
0.0216312
0.00370776
0.0215733
0.00377397
0.0215579
0.00383931
0.021526
0.00390543
0.0214756
0.0214752
0.00396772
-0.000758099
0.0211809
-0.000641755
0.0211903
-0.000528828
0.0212824
-0.000412141
0.0212872
-0.000296339
0.0213371
-0.000179254
0.0213704
-5.92683e-05
0.0213846
5.99707e-05
0.0214426
0.000182794
0.0214454
0.000305696
0.0214886
0.000430571
0.0215077
0.000557832
0.0215211
0.000685038
0.0215606
0.000814839
0.0215652
0.000945158
0.0215924
0.00107655
0.0216091
0.00120956
0.0216154
0.00134217
0.0216438
0.00147586
0.02165
0.00160999
0.0216602
0.00174388
0.0216757
0.0018779
0.0216818
0.00201157
0.0216901
0.00214463
0.0216977
0.00227686
0.021703
0.00240794
0.0217078
0.00253791
0.0217087
0.00266603
0.0217129
0.00279217
0.0217144
0.00291666
0.0217084
0.00303818
0.0217126
0.00315732
0.0217065
0.00327394
0.0216982
0.00338652
0.0217031
0.00349725
0.0216804
0.00360398
0.0216786
0.00370672
0.0216741
0.0038075
0.0216442
0.00390302
0.0216497
0.00399662
0.0216155
0.00408622
0.021604
0.00417161
0.0215939
0.00425594
0.0215473
0.00433469
0.0215524
0.00441334
0.0214947
0.00448789
0.0214834
0.00455995
0.021454
0.0046313
0.0214043
0.0214093
0.00469717
-0.00137582
0.0210556
-0.00124491
0.0210594
-0.00111556
0.0211531
-0.000980213
0.0211518
-0.000842687
0.0211996
-0.000701684
0.0212294
-0.00055569
0.0212387
-0.0004086
0.0212955
-0.000255842
0.0212927
-0.00010109
0.0213339
5.73072e-05
0.0213493
0.000219204
0.0213592
0.000382399
0.0213974
0.00055014
0.0213974
0.000719771
0.0214228
0.000891793
0.0214371
0.0010667
0.0214405
0.00124225
0.0214682
0.00141984
0.0214724
0.00159869
0.0214813
0.00177798
0.0214964
0.00195796
0.0215018
0.00213796
0.0215101
0.00231758
0.0215181
0.00249638
0.0215242
0.00267386
0.0215304
0.00284987
0.0215327
0.00302338
0.0215394
0.00319408
0.0215437
0.0033621
0.0215404
0.00352582
0.0215488
0.00368567
0.0215466
0.00384131
0.0215425
0.00399093
0.0215535
0.0041367
0.0215346
0.00427619
0.0215391
0.00440927
0.021541
0.00453799
0.0215155
0.00465878
0.0215289
0.00477511
0.0214992
0.00488473
0.0214943
0.00498743
0.0214912
0.00508653
0.0214482
0.00517735
0.0214616
0.00526572
0.0214063
0.00534754
0.0214016
0.00542461
0.0213769
0.00549891
0.0213299
0.0213427
0.0055656
-0.00219423
0.0209203
-0.00204964
0.0209148
-0.00190378
0.0210072
-0.00174856
0.0209966
-0.00158781
0.0210389
-0.00141976
0.0210613
-0.00124275
0.0210616
-0.001061
0.0211137
-0.000870129
0.0211018
-0.000674354
0.0211381
-0.00047213
0.0211471
-0.000263482
0.0211505
-5.153e-05
0.0211855
0.00016499
0.0211809
0.000384537
0.0212032
0.000608782
0.0212129
0.000837494
0.0212118
0.00106835
0.0212373
0.0013027
0.0212381
0.0015396
0.0212444
0.00177811
0.0212579
0.00201828
0.0212616
0.00225926
0.0212691
0.00250046
0.0212769
0.0027411
0.0212836
0.00298038
0.0212911
0.00321789
0.0212952
0.00345216
0.0213051
0.0036825
0.0213133
0.00390876
0.0213141
0.00412881
0.0213288
0.0043428
0.0213326
0.00455007
0.0213352
0.00474834
0.0213552
0.00493975
0.0213432
0.00512144
0.0213574
0.00529308
0.0213694
0.00545674
0.0213518
0.00560843
0.0213772
0.00575182
0.0213558
0.00588444
0.0213617
0.00600603
0.0213696
0.00612022
0.021334
0.00622206
0.0213598
0.00631795
0.0213104
0.00640375
0.0213158
0.00648163
0.021299
0.00655398
0.0212576
0.0212808
0.0066158
-0.00270032
0.0208093
-0.00257846
0.020793
-0.00245067
0.0208794
-0.00230759
0.0208535
-0.00215213
0.0208834
-0.00198331
0.0208925
-0.00180082
0.0208792
-0.00160961
0.0209225
-0.00140696
0.0208991
-0.00119751
0.0209287
-0.000980689
0.0209303
-0.000757193
0.020927
-0.000529687
0.020958
-0.000295508
0.0209467
-5.73936e-05
0.0209651
0.000183147
0.0209723
0.000428342
0.0209666
0.000677392
0.0209883
0.000930884
0.0209846
0.00118813
0.0209872
0.00144833
0.0209977
0.00171144
0.0209985
0.00197661
0.0210039
0.00224311
0.0210104
0.00250995
0.0210168
0.00277606
0.021025
0.00304071
0.0210305
0.00330207
0.0210437
0.00355908
0.0210563
0.00381115
0.0210621
0.00405581
0.0210841
0.00429282
0.0210956
0.00452117
0.0211069
0.00473838
0.021138
0.00494622
0.0211354
0.00514176
0.0211619
0.00532455
0.0211866
0.0054964
0.0211799
0.00565353
0.0212201
0.00579928
0.0212101
0.00593133
0.0212297
0.00604941
0.0212516
0.00615675
0.0212266
0.00624883
0.0212677
0.00633143
0.0212278
0.00640096
0.0212462
0.00645972
0.0212403
0.00651053
0.0212068
0.0212417
0.00654966
-0.00303918
0.0207214
-0.00294988
0.0207037
-0.00285098
0.0207806
-0.0027261
0.0207286
-0.00257731
0.0207346
-0.00240655
0.0207217
-0.00221707
0.0206897
-0.00201616
0.0207216
-0.00180356
0.0206865
-0.00158459
0.0207097
-0.00135938
0.0207051
-0.0011288
0.0206964
-0.000895316
0.0207245
-0.000657089
0.0207085
-0.000415565
0.0207236
-0.000169196
0.020726
8.13849e-05
0.020716
0.000334156
0.0207355
0.000592861
0.0207259
0.000856525
0.0207235