/*--------------------------------*- C++ -*----------------------------------*\
| =========                 |                                                 |
| \\      /  F ield         | OpenFOAM: The Open Source CFD Toolbox           |
|  \\    /   O peration     | Version:  2312                                  |
|   \\  /    A nd           | Website:  www.openfoam.com                      |
|    \\/     M anipulation  |                                                 |
\*---------------------------------------------------------------------------*/
FoamFile
{
    version     2.0;
    format      ascii;
    arch        "LSB;label=32;scalar=64";
    class       volVectorField;
    location    "24.350416844402837";
    object      U;
}
// * * * * * * * * * * * * * * * * * * * * * * * * * * * * * * * * * * * * * //

dimensions      [0 1 -1 0 0 0 0];

internalField   nonuniform List<vector> 
21039
(
(0.91379 0.0474609 0)
(1.02605 0.0664904 0)
(1.00449 0.0294606 0)
(1.00177 0.0188831 0)
(1.00121 0.0138707 0)
(1.0008 0.0104865 0)
(1.00055 0.0081572 0)
(1.0004 0.00651169 0)
(1.0003 0.00529883 0)
(1.00024 0.00437475 0)
(1.00019 0.00365399 0)
(1.00015 0.00308156 0)
(1.00012 0.00262045 0)
(1.0001 0.00224509 0)
(1.00008 0.00193738 0)
(1.00006 0.00168421 0)
(1.00005 0.0014759 0)
(1.00004 0.00130514 0)
(1.00003 0.00116629 0)
(1.00002 0.00105481 0)
(1.00002 0.000966835 0)
(1.00001 0.000900343 0)
(1.00001 0.000857015 0)
(1.00001 0.000818363 0)
(1.00001 0.000789109 0)
(1.00001 0.000765954 0)
(1.00001 0.000744591 0)
(1.00001 0.00071498 0)
(1.00002 0.00065515 0)
(0.794644 0.0730698 0)
(1.0745 0.121648 0)
(1.03988 0.0707587 0)
(1.01812 0.0496418 0)
(1.0113 0.0382084 0)
(1.00765 0.0294116 0)
(1.00539 0.0231007 0)
(1.00397 0.0185106 0)
(1.00301 0.0150408 0)
(1.00234 0.01235 0)
(1.00186 0.0102218 0)
(1.0015 0.00850943 0)
(1.00122 0.00711214 0)
(1.001 0.00595955 0)
(1.00083 0.00500143 0)
(1.00068 0.00420127 0)
(1.00057 0.00353212 0)
(1.00046 0.00297383 0)
(1.00038 0.00251109 0)
(1.0003 0.00213197 0)
(1.00023 0.00182662 0)
(1.00018 0.00158867 0)
(1.00013 0.00142218 0)
(1.0001 0.00129729 0)
(1.00009 0.00121943 0)
(1.00009 0.00117033 0)
(1.00009 0.00113571 0)
(1.0001 0.00109617 0)
(1.00011 0.00102145 0)
(0.667466 0.0572659 0)
(1.08307 0.124734 0)
(1.08437 0.090171 0)
(1.04631 0.0675531 0)
(1.0291 0.0540105 0)
(1.02028 0.0430252 0)
(1.01472 0.0346957 0)
(1.01103 0.0282901 0)
(1.00847 0.0232359 0)
(1.00666 0.0192014 0)
(1.00532 0.0159412 0)
(1.00432 0.0132729 0)
(1.00355 0.011065 0)
(1.00294 0.00922239 0)
(1.00245 0.00767504 0)
(1.00205 0.00637103 0)
(1.00171 0.00527157 0)
(1.00142 0.00434738 0)
(1.00117 0.00357619 0)
(1.00095 0.00294091 0)
(1.00075 0.00242763 0)
(1.00057 0.00202615 0)
(1.00042 0.00174228 0)
(1.00031 0.00154193 0)
(1.00025 0.00142509 0)
(1.00022 0.00135664 0)
(1.00022 0.00131246 0)
(1.00023 0.00126732 0)
(1.00024 0.00118758 0)
(0.541239 0.0352461 0)
(1.05089 0.110739 0)
(1.11595 0.096861 0)
(1.07616 0.0761067 0)
(1.0493 0.061915 0)
(1.03533 0.0507736 0)
(1.02649 0.042066 0)
(1.02032 0.0350038 0)
(1.0159 0.0291846 0)
(1.01267 0.024383 0)
(1.01025 0.0203946 0)
(1.0084 0.0170555 0)
(1.00696 0.0142413 0)
(1.00581 0.0118567 0)
(1.00488 0.00982879 0)
(1.0041 0.00810152 0)
(1.00345 0.0066321 0)
(1.00288 0.0053877 0)
(1.00238 0.00434313 0)
(1.00194 0.00347906 0)
(1.00154 0.00278001 0)
(1.00118 0.00223355 0)
(1.00086 0.00184691 0)
(1.00062 0.00158418 0)
(1.00047 0.00143709 0)
(1.00039 0.00135514 0)
(1.00036 0.00130583 0)
(1.00036 0.00125905 0)
(1.00036 0.00117624 0)
(0.444499 0.0186486 0)
(0.997988 0.0917757 0)
(1.12911 0.0954708 0)
(1.1015 0.0792515 0)
(1.06833 0.0651701 0)
(1.04987 0.0544518 0)
(1.03838 0.0460221 0)
(1.03017 0.0389408 0)
(1.02408 0.0329198 0)
(1.01951 0.0278096 0)
(1.016 0.0234517 0)
(1.01327 0.019718 0)
(1.0111 0.0165085 0)
(1.00934 0.0137431 0)
(1.00789 0.0113573 0)
(1.00668 0.0093007 0)
(1.00564 0.00753344 0)
(1.00474 0.00602452 0)
(1.00394 0.00474988 0)
(1.00321 0.00369105 0)
(1.00256 0.00283346 0)
(1.00195 0.00216447 0)
(1.00141 0.00169322 0)
(1.00099 0.00138335 0)
(1.00072 0.00121743 0)
(1.00056 0.00113147 0)
(1.00049 0.00108579 0)
(1.00047 0.00104584 0)
(1.00046 0.0009659 0)
(0.379042 0.00808316 0)
(0.940089 0.071743 0)
(1.12716 0.0880894 0)
(1.12094 0.0783585 0)
(1.08563 0.0655624 0)
(1.06322 0.0555271 0)
(1.04946 0.0476049 0)
(1.03966 0.0407971 0)
(1.03225 0.0348717 0)
(1.02654 0.0297242 0)
(1.02207 0.0252345 0)
(1.01852 0.0213084 0)
(1.01565 0.017871 0)
(1.01329 0.0148604 0)
(1.01132 0.0122257 0)
(1.00964 0.0099263 0)
(1.00819 0.00792967 0)
(1.00691 0.00621025 0)
(1.00576 0.0047482 0)
(1.00472 0.00352847 0)
(1.00375 0.00253959 0)
(1.00286 0.00177075 0)
(1.00204 0.00123387 0)
(1.0014 0.000893271 0)
(1.00097 0.000722092 0)
(1.00072 0.000643702 0)
(1.00059 0.000612009 0)
(1.00054 0.000589154 0)
(1.0005 0.00052175 0)
(0.333921 0.00231208 0)
(0.883963 0.0537307 0)
(1.11434 0.0776145 0)
(1.13405 0.0744873 0)
(1.10108 0.0638785 0)
(1.07555 0.0547447 0)
(1.05972 0.0474598 0)
(1.04861 0.0410987 0)
(1.04014 0.0354407 0)
(1.0335 0.0304145 0)
(1.02821 0.0259395 0)
(1.02394 0.0219532 0)
(1.02044 0.0184039 0)
(1.01751 0.0152472 0)
(1.01503 0.0124468 0)
(1.01289 0.00997323 0)
(1.01101 0.00780295 0)
(1.00933 0.0059178 0)
(1.00781 0.00430406 0)
(1.0064 0.00295196 0)
(1.00509 0.00185489 0)
(1.00386 0.00100581 0)
(1.00272 0.000420627 0)
(1.00183 6.17574e-05 0)
(1.00121 -0.000102401 0)
(1.00084 -0.000161077 0)
(1.00064 -0.00017196 0)
(1.00055 -0.000167338 0)
(1.00047 -0.000200267 0)
(0.301728 -0.000217425 0)
(0.832425 0.0394528 0)
(1.09431 0.0666798 0)
(1.14085 0.0689934 0)
(1.11414 0.0608894 0)
(1.08683 0.0527345 0)
(1.06919 0.0460913 0)
(1.05698 0.040239 0)
(1.04766 0.0349347 0)
(1.04026 0.0301202 0)
(1.0343 0.0257488 0)
(1.02941 0.0217857 0)
(1.02534 0.0181998 0)
(1.0219 0.0149637 0)
(1.01894 0.0120549 0)
(1.01635 0.00945525 0)
(1.01405 0.00715074 0)
(1.01197 0.00513136 0)
(1.01005 0.00339062 0)
(1.00825 0.00192517 0)
(1.00656 0.000734651 0)
(1.00495 -0.000184085 0)
(1.00345 -0.000808463 0)
(1.00225 -0.00117115 0)
(1.00142 -0.00131892 0)
(1.0009 -0.00135051 0)
(1.00061 -0.00132705 0)
(1.00046 -0.00129452 0)
(1.00032 -0.00132167 0)
(0.278871 -0.00101329 0)
(0.786978 0.0289451 0)
(1.07034 0.0566448 0)
(1.14218 0.0629184 0)
(1.12455 0.0572691 0)
(1.09699 0.0500774 0)
(1.07788 0.0439804 0)
(1.06475 0.0385891 0)
(1.05476 0.033639 0)
(1.04677 0.0290627 0)
(1.04026 0.0248334 0)
(1.03485 0.0209358 0)
(1.0303 0.0173549 0)
(1.02639 0.0140777 0)
(1.02299 0.0110939 0)
(1.01998 0.00839598 0)
(1.01726 0.0059792 0)
(1.01477 0.0038419 0)
(1.01244 0.00198523 0)
(1.01025 0.000412836 0)
(1.00814 -0.000869095 0)
(1.00612 -0.00185694 0)
(1.00421 -0.00252037 0)
(1.00266 -0.00288714 0)
(1.00157 -0.003015 0)
(1.00087 -0.00301255 0)
(1.00046 -0.00294465 0)
(1.00022 -0.00286825 0)
(1.00001 -0.00287179 0)
(0.26256 -0.0010585 0)
(0.748007 0.0215003 0)
(1.04497 0.0479252 0)
(1.13935 0.0568244 0)
(1.13245 0.0534043 0)
(1.10605 0.047143 0)
(1.08587 0.041485 0)
(1.07195 0.0364585 0)
(1.06144 0.0318085 0)
(1.053 0.0274479 0)
(1.04605 0.0233569 0)
(1.04022 0.0195311 0)
(1.03526 0.0159667 0)
(1.03095 0.0126609 0)
(1.02715 0.0096132 0)
(1.02375 0.00682508 0)
(1.02063 0.00430024 0)
(1.01774 0.00204494 0)
(1.015 6.76505e-05 0)
(1.01238 -0.00162161 0)
(1.00984 -0.00300817 0)
(1.00737 -0.00407886 0)
(1.005 -0.00479547 0)
(1.00306 -0.00517986 0)
(1.00167 -0.00529562 0)
(1.00075 -0.00526155 0)
(1.00018 -0.00514853 0)
(0.999814 -0.00502211 0)
(0.999486 -0.00499067 0)
(0.250478 -0.000839724 0)
(0.715016 0.0163301 0)
(1.01981 0.0405423 0)
(1.13359 0.0509935 0)
(1.13817 0.0494801 0)
(1.11415 0.0441067 0)
(1.09332 0.0388099 0)
(1.07872 0.0340537 0)
(1.06777 0.0296328 0)
(1.05899 0.0254418 0)
(1.0517 0.0214599 0)
(1.04553 0.0176876 0)
(1.04022 0.0141275 0)
(1.03557 0.0107841 0)
(1.03142 0.00766393 0)
(1.02766 0.00477546 0)
(1.02417 0.00212952 0)
(1.02089 -0.000261414 0)
(1.01774 -0.0023825 0)
(1.01469 -0.00421517 0)
(1.0117 -0.00573602 0)
(1.00874 -0.00692265 0)
(1.00587 -0.00772648 0)
(1.00348 -0.00815953 0)
(1.00174 -0.00828655 0)
(1.00055 -0.00823622 0)
(0.999769 -0.00808668 0)
(0.999226 -0.00791299 0)
(0.998741 -0.00784441 0)
(0.241104 -0.000580353 0)
(0.687169 0.0127493 0)
(0.99577 0.0343729 0)
(1.12589 0.0455698 0)
(1.14205 0.0456012 0)
(1.1214 0.0410539 0)
(1.10037 0.0360662 0)
(1.08518 0.0315014 0)
(1.07386 0.0272397 0)
(1.0648 0.0231656 0)
(1.05724 0.0192523 0)
(1.05081 0.0155013 0)
(1.04522 0.0119187 0)
(1.04029 0.00851324 0)
(1.03583 0.00529624 0)
(1.03174 0.00228147 0)
(1.02791 -0.000515863 0)
(1.02426 -0.00307796 0)
(1.02072 -0.00538247 0)
(1.01723 -0.00740274 0)
(1.01376 -0.00910744 0)
(1.01029 -0.010465 0)
(1.00687 -0.0114152 0)
(1.00398 -0.0119541 0)
(1.00183 -0.0121395 0)
(1.00031 -0.0121083 0)
(0.999254 -0.0119465 0)
(0.998471 -0.0117407 0)
(0.997767 -0.0116421 0)
(0.233565 -0.000370794 0)
(0.663637 0.0102211 0)
(0.973327 0.0292377 0)
(1.11698 0.040611 0)
(1.14439 0.0418358 0)
(1.12786 0.0380369 0)
(1.1071 0.0333221 0)
(1.09144 0.0288859 0)
(1.07979 0.0247196 0)
(1.0705 0.0207095 0)
(1.06275 0.0168207 0)
(1.05611 0.0130524 0)
(1.0503 0.00941157 0)
(1.04513 0.00590923 0)
(1.04042 0.00255947 0)
(1.03604 -0.000621751 0)
(1.0319 -0.00361577 0)
(1.02791 -0.00639893 0)
(1.02398 -0.00894246 0)
(1.02007 -0.011213 0)
(1.01612 -0.0131721 0)
(1.01211 -0.0147802 0)
(1.00812 -0.0159656 0)
(1.00467 -0.0167019 0)
(1.00205 -0.0170277 0)
(1.00013 -0.0170829 0)
(0.998721 -0.0169598 0)
(0.997614 -0.0167581 0)
(0.99661 -0.0166511 0)
(0.22735 -0.000229192 0)
(0.643694 0.00837147 0)
(0.952697 0.0249531 0)
(1.10745 0.0361181 0)
(1.1455 0.0382254 0)
(1.13362 0.0350907 0)
(1.11357 0.0306233 0)
(1.09759 0.0262686 0)
(1.08566 0.0221434 0)
(1.07619 0.0181478 0)
(1.06829 0.0142395 0)
(1.0615 0.0104129 0)
(1.05553 0.00667376 0)
(1.05018 0.00303306 0)
(1.04526 -0.000495243 0)
(1.04066 -0.00389427 0)
(1.03625 -0.00714186 0)
(1.03195 -0.0102098 0)
(1.02767 -0.0130644 0)
(1.02334 -0.0156664 0)
(1.0189 -0.0179719 0)
(1.01435 -0.0199349 0)
(1.00977 -0.0214757 0)
(1.00575 -0.0225422 0)
(1.0026 -0.0231373 0)
(1.0002 -0.0233941 0)
(0.998342 -0.023405 0)
(0.996794 -0.0232815 0)
(0.995377 -0.023216 0)
(0.222133 -0.00014561 0)
(0.626728 0.00696992 0)
(0.93393 0.0213853 0)
(1.09768 0.0320935 0)
(1.1456 0.0348081 0)
(1.13872 0.0322397 0)
(1.11978 0.0279959 0)
(1.10364 0.0236894 0)
(1.09147 0.019562 0)
(1.08186 0.0155383 0)
(1.07386 0.0115701 0)
(1.06698 0.00764557 0)
(1.0609 0.00376743 0)
(1.05542 -5.5921e-05 0)
(1.05036 -0.00381248 0)
(1.04557 -0.0074849 0)
(1.04095 -0.0110489 0)
(1.03638 -0.0144734 0)
(1.03178 -0.0177206 0)
(1.02706 -0.0207463 0)
(1.02217 -0.0235015 0)
(1.0171 -0.025937 0)
(1.01194 -0.0279724 0)
(1.00738 -0.0295401 0)
(1.00374 -0.0305987 0)
(1.00085 -0.0312595 0)
(0.998468 -0.0315944 0)
(0.996362 -0.031707 0)
(0.994392 -0.031786 0)
(0.21806 -8.92761e-05 0)
(0.613289 0.00596078 0)
(0.918248 0.018613 0)
(1.08878 0.0287648 0)
(1.14511 0.0318542 0)
(1.14298 0.0297345 0)
(1.12538 0.0256827 0)
(1.10924 0.0214046 0)
(1.09691 0.0172505 0)
(1.08722 0.0131736 0)
(1.07918 0.00912094 0)
(1.07226 0.00507403 0)
(1.06614 0.00103009 0)
(1.06061 -0.00300692 0)
(1.05548 -0.00702822 0)
(1.05061 -0.0110182 0)
(1.04585 -0.014953 0)
(1.0411 -0.0188016 0)
(1.03625 -0.0225234 0)
(1.03122 -0.0260687 0)
(1.02594 -0.029381 0)
(1.02041 -0.0324034 0)
(1.01475 -0.0350503 0)
(1.00976 -0.0372448 0)
(1.00576 -0.0389253 0)
(1.00249 -0.0402035 0)
(0.999617 -0.0411196 0)
(0.996869 -0.0417193 0)
(0.994144 -0.042123 0)
(0.215075 -5.46773e-05 0)
(0.603452 0.00527272 0)
(0.906286 0.016616 0)
(1.08153 0.0262516 0)
(1.14436 0.0295576 0)
(1.14625 0.0277687 0)
(1.12997 0.0238669 0)
(1.11395 0.0196058 0)
(1.10153 0.0154209 0)
(1.0918 0.0112894 0)
(1.08376 0.0071538 0)
(1.07686 0.00298799 0)
(1.07076 -0.00121653 0)
(1.06525 -0.00546144 0)
(1.06013 -0.00974263 0)
(1.05523 -0.0140485 0)
(1.05043 -0.0183597 0)
(1.0456 -0.0226483 0)
(1.04061 -0.0268753 0)
(1.03538 -0.030988 0)
(1.02983 -0.0349218 0)
(1.02394 -0.0386066 0)
(1.0179 -0.0419295 0)
(1.01261 -0.0447738 0)
(1.00844 -0.0470757 0)
(1.00508 -0.0490301 0)
(1.00208 -0.0507589 0)
(0.999036 -0.0522943 0)
(0.995839 -0.0534746 0)
(0.21277 -5.40637e-06 0)
(0.595932 0.00480395 0)
(0.896863 0.0151615 0)
(1.0755 0.0243412 0)
(1.14347 0.0277717 0)
(1.14878 0.0262357 0)
(1.13374 0.0224624 0)
(1.11789 0.0182245 0)
(1.10543 0.0140205 0)
(1.09568 0.00984689 0)
(1.08767 0.00564233 0)
(1.08082 0.00137429 0)
(1.07478 -0.00297123 0)
(1.06932 -0.0074015 0)
(1.06425 -0.0119183 0)
(1.0594 -0.0165164 0)
(1.05462 -0.0211838 0)
(1.04978 -0.0258994 0)
(1.04475 -0.0306303 0)
(1.03942 -0.0353269 0)
(1.03369 -0.0399213 0)
(1.02755 -0.044333 0)
(1.0212 -0.0484062 0)
(1.01562 -0.0519022 0)
(1.01132 -0.0546705 0)
(1.00805 -0.0569767 0)
(1.00542 -0.0591907 0)
(1.00312 -0.0616983 0)
(1.00055 -0.063938 0)
(0.211316 -1.08611e-05 0)
(0.590788 0.00443955 0)
(0.890185 0.0141216 0)
(1.07113 0.0229831 0)
(1.14285 0.0264849 0)
(1.15076 0.0250932 0)
(1.13673 0.0213848 0)
(1.12108 0.0171593 0)
(1.10862 0.0129484 0)
(1.09889 0.00874854 0)
(1.09093 0.0044909 0)
(1.08415 0.000138374 0)
(1.0782 -0.004327 0)
(1.07284 -0.00891783 0)
(1.06786 -0.0136423 0)
(1.0631 -0.0185034 0)
(1.05841 -0.0234984 0)
(1.05364 -0.0286166 0)
(1.04866 -0.0338354 0)
(1.04335 -0.0391155 0)
(1.03761 -0.0443976 0)
(1.03142 -0.0496124 0)
(1.02497 -0.0545948 0)
(1.01931 -0.0589514 0)
(1.01495 -0.0623054 0)
(1.01172 -0.0647013 0)
(1.00935 -0.0661705 0)
(1.00782 -0.0674405 0)
(1.00806 -0.0723976 0)
(1.00002 0.000662753 0)
(1.00002 0.000663099 0)
(1.00001 0.00065858 0)
(1.00001 0.000655058 1.13441e-21)
(1.00001 0.000653597 5.66084e-21)
(1.00001 0.000654018 -1.01885e-20)
(1.00001 0.00065616 5.65973e-21)
(1.00001 0.000659903 -4.51288e-21)
(1.00001 0.000665102 5.74839e-22)
(1 0.000671767 4.51269e-21)
(1 0.000679733 0)
(1 0.000688988 -5.0521e-21)
(1 0.000699413 5.72049e-22)
(0.999998 0.000710883 4.48758e-21)
(0.999997 0.000723381 0)
(0.999996 0.000736739 0)
(0.999994 0.000750923 -4.45388e-21)
(0.999993 0.000765793 4.45669e-21)
(0.999992 0.000781194 0)
(0.999991 0.000797124 -2.21368e-21)
(0.99999 0.000813402 2.3529e-21)
(0.999989 0.000829915 2.06579e-21)
(0.999988 0.000846609 -3.30364e-21)
(0.999987 0.000863308 1.06515e-21)
(0.999987 0.000879918 3.41749e-23)
(0.999986 0.000896372 -6.83158e-23)
(0.999985 0.000912495 9.51354e-22)
(0.999985 0.000928239 -1.08741e-21)
(0.999985 0.000943473 0)
(0.999985 0.000957986 0)
(0.999984 0.00097183 -2.68862e-22)
(0.999984 0.000984958 -2.6791e-22)
(0.999984 0.000997238 -4.53067e-21)
(0.999985 0.00100866 3.72875e-21)
(0.999985 0.00101909 -4.76156e-21)
(0.999985 0.0010285 4.75583e-21)
(0.999986 0.00103685 -3.6728e-21)
(0.999986 0.00104402 3.67094e-21)
(0.999987 0.00105 5.21405e-22)
(0.999988 0.00105471 5.19245e-22)
(0.999989 0.00105812 -5.17046e-22)
(0.99999 0.00106021 0)
(0.999991 0.0010609 0)
(0.999993 0.00106024 0)
(0.999994 0.00105811 0)
(0.999996 0.00105468 0)
(0.999997 0.00104989 2.01173e-21)
(0.999998 0.00104285 -2.00842e-21)
(1 0.00102945 0)
(1.0001 0.00102498 0)
(1.00009 0.0010225 2.28708e-21)
(1.00007 0.00101722 -2.28084e-21)
(1.00006 0.00101603 -1.1389e-21)
(1.00004 0.00102008 -1.1393e-21)
(1.00003 0.00102876 -3.40909e-21)
(1.00001 0.00104182 5.69076e-21)
(0.999998 0.00105921 0)
(0.999985 0.00108041 -5.66938e-22)
(0.999972 0.00110557 -1.13313e-21)
(0.99996 0.0011342 0)
(0.999949 0.00116621 5.64571e-22)
(0.999938 0.00120143 -5.06844e-21)
(0.999927 0.00123939 4.50874e-21)
(0.999917 0.00128011 0)
(0.999908 0.00132315 1.12278e-21)
(0.9999 0.00136832 0)
(0.999892 0.00141546 0)
(0.999885 0.00146407 0)
(0.999879 0.00151409 -2.22345e-21)
(0.999873 0.00156521 2.08547e-21)
(0.999868 0.00161705 -1.38758e-22)
(0.999864 0.00166949 0)
(0.999861 0.00172218 -5.16127e-22)
(0.999859 0.00177482 5.42045e-22)
(0.999857 0.00182723 1.02861e-22)
(0.999857 0.00187909 1.36674e-22)
(0.999857 0.00193013 0)
(0.999858 0.00198016 -2.17104e-21)
(0.99986 0.00202888 2.17055e-21)
(0.999862 0.00207606 -4.04411e-21)
(0.999865 0.00212148 8.8811e-21)
(0.999869 0.00216487 -4.02945e-21)
(0.999874 0.00220608 5.34362e-22)
(0.99988 0.0022448 5.32442e-22)
(0.999886 0.00228085 5.30955e-22)
(0.999893 0.00231405 -5.28347e-22)
(0.999901 0.00234419 4.7306e-21)
(0.999909 0.00237117 -3.67559e-21)
(0.999919 0.00239469 -1.56641e-21)
(0.999929 0.00241472 5.71257e-21)
(0.999939 0.0024309 -4.14785e-21)
(0.999951 0.00244297 -2.06193e-21)
(0.999963 0.00245112 4.09882e-21)
(0.999975 0.00245486 -8.17468e-21)
(0.999988 0.00245438 4.07475e-21)
(1 0.00244948 2.02187e-21)
(1.00002 0.00243935 -3.60668e-24)
(1.00003 0.00241895 0)
(1.00021 0.00118068 3.44003e-21)
(1.00017 0.00117609 -1.14848e-21)
(1.00013 0.00117431 -4.57907e-21)
(1.00008 0.00117957 2.28432e-21)
(1.00004 0.00119307 -2.28449e-21)
(1 0.00121395 0)
(0.999961 0.00124195 -2.2759e-21)
(0.999923 0.00127715 -6.81842e-21)
(0.999887 0.00131848 6.82094e-21)
(0.999853 0.00136638 1.13315e-21)
(0.99982 0.00141991 0)
(0.999789 0.00147894 -6.78128e-21)
(0.99976 0.00154333 1.05906e-23)
(0.999733 0.0016121 4.51322e-21)
(0.999708 0.00168546 0)
(0.999685 0.00176261 -1.12211e-21)
(0.999664 0.0018432 -1.12237e-21)
(0.999645 0.00192718 0)
(0.999628 0.00201349 -1.11776e-21)
(0.999614 0.00210212 -2.22489e-21)
(0.999601 0.00219268 2.22556e-21)
(0.999591 0.00228441 -2.78093e-22)
(0.999583 0.00237716 -2.76844e-22)
(0.999578 0.00247045 0)
(0.999574 0.00256368 4.29212e-23)
(0.999573 0.00265659 -2.40157e-22)
(0.999574 0.00274875 0)
(0.999578 0.0028396 0)
(0.999583 0.00292886 -2.17137e-21)
(0.999591 0.00301612 2.17095e-21)
(0.999601 0.00310089 -4.31436e-21)
(0.999613 0.00318285 4.31292e-21)
(0.999627 0.00326159 0)
(0.999642 0.00333676 0)
(0.99966 0.00340794 0)
(0.99968 0.00347485 -1.06059e-21)
(0.999702 0.00353709 -2.11481e-21)
(0.999726 0.00359428 0)
(0.999752 0.00364624 -1.04815e-21)
(0.99978 0.00369242 -1.03702e-21)
(0.999809 0.00373275 3.12611e-21)
(0.999841 0.00376678 0)
(0.999874 0.00379409 4.11705e-21)
(0.999909 0.00381476 -6.16383e-21)
(0.999945 0.003828 0)
(0.999983 0.00383403 0)
(1.00002 0.00383229 0)
(1.00007 0.00382192 -2.0165e-21)
(1.00011 0.00379886 -2.00553e-21)
(1.00031 0.00116034 -2.29815e-21)
(1.00023 0.00115865 4.60018e-21)
(1.00015 0.00116633 4.59344e-21)
(1.00007 0.00118377 6.87203e-21)
(0.999985 0.00121254 -2.29542e-21)
(0.999905 0.00125162 -4.56618e-21)
(0.999828 0.00130072 9.13203e-21)
(0.999755 0.00136016 -3.66241e-24)
(0.999685 0.00142812 -2.27421e-21)
(0.999619 0.00150549 2.27707e-21)
(0.999556 0.00159077 0)
(0.999497 0.00168379 2.26377e-21)
(0.999442 0.00178452 -2.25307e-21)
(0.999391 0.00189129 9.03568e-21)
(0.999344 0.00200463 -9.01877e-21)
(0.999301 0.0021233 6.7611e-21)
(0.999263 0.00224675 -1.12885e-21)
(0.999228 0.00237516 1.1228e-21)
(0.999198 0.00250669 1.11691e-21)
(0.999172 0.00264151 -1.11795e-21)
(0.99915 0.00277916 0)
(0.999133 0.00291834 -1.66345e-21)
(0.99912 0.00305897 1.38885e-21)
(0.999111 0.00320044 1.10628e-21)
(0.999107 0.00334174 5.16209e-23)
(0.999107 0.00348261 1.02779e-22)
(0.999112 0.00362249 1.64216e-21)
(0.999121 0.00376045 -1.09353e-21)
(0.999134 0.00389618 2.17349e-21)
(0.999152 0.00402913 -2.17313e-21)
(0.999173 0.00415852 0)
(0.999199 0.00428396 5.38154e-21)
(0.999229 0.0044049 -4.30125e-21)
(0.999263 0.00452072 4.27119e-21)
(0.999301 0.00463097 -4.2696e-21)
(0.999342 0.00473517 0)
(0.999388 0.00483274 4.21906e-21)
(0.999437 0.00492321 -2.1119e-21)
(0.99949 0.00500627 0)
(0.999547 0.00508116 4.1721e-21)
(0.999608 0.00514778 -4.16656e-21)
(0.999672 0.00520548 2.07105e-21)
(0.999739 0.00525375 2.06186e-21)
(0.99981 0.00529259 6.15668e-21)
(0.999884 0.00532092 6.32107e-24)
(0.999962 0.00533905 4.07474e-21)
(1.00004 0.00534599 2.0212e-21)
(1.00013 0.00534086 2.01003e-21)
(1.00022 0.00532091 2.00707e-21)
(1.00038 0.000945863 0)
(1.00025 0.000954367 -4.60658e-21)
(1.00012 0.000979371 -4.59791e-21)
(0.999984 0.001017 0)
(0.999849 0.00106932 -4.58937e-21)
(0.999718 0.00113508 9.24579e-24)
(0.999592 0.00121396 9.18083e-21)
(0.999472 0.0013066 -2.29874e-21)
(0.999357 0.00141027 -9.56086e-24)
(0.999249 0.00152647 -6.84479e-21)
(0.999146 0.00165299 0)
(0.99905 0.00178969 -6.82408e-21)
(0.998961 0.00193667 2.27941e-21)
(0.998878 0.00209141 0)
(0.998801 0.00225494 -2.26774e-21)
(0.998732 0.00242539 9.77339e-24)
(0.998669 0.00260204 -2.25208e-21)
(0.998614 0.00278541 7.8709e-21)
(0.998566 0.00297268 -1.16032e-23)
(0.998525 0.00316426 -1.13004e-21)
(0.998491 0.00335965 -1.11665e-21)
(0.998464 0.00355689 2.22389e-21)
(0.998445 0.00375605 -2.22421e-21)
(0.998432 0.00395633 -2.75432e-22)
(0.998428 0.00415627 5.70177e-22)
(0.99843 0.0043556 -3.0828e-22)
(0.99844 0.00455368 1.09759e-21)
(0.998457 0.00474911 -1.09575e-21)
(0.998481 0.00494156 1.09247e-21)
(0.998512 0.00513038 2.16997e-21)
(0.99855 0.0053144 -6.49356e-21)
(0.998595 0.00549323 -1.06323e-21)
(0.998647 0.00566611 6.46057e-21)
(0.998705 0.00583218 2.14452e-21)
(0.99877 0.00599093 -4.25978e-21)
(0.998842 0.0061417 4.2572e-21)
(0.99892 0.00628369 7.99765e-24)
(0.999005 0.00641639 6.3245e-21)
(0.999095 0.00653931 -4.21469e-21)
(0.999192 0.00665152 -1.04575e-20)
(0.999295 0.0067529 4.1626e-21)
(0.999404 0.00684258 2.07262e-21)
(0.999518 0.00691994 8.24162e-21)
(0.999638 0.006985 -4.11134e-21)
(0.999764 0.00703634 -7.96106e-24)
(0.999896 0.00707444 -8.60078e-24)
(1.00003 0.00709787 0)
(1.00018 0.00710582 -4.03102e-21)
(1.00034 0.00709761 -4.0063e-21)
(1.00038 0.000505375 0)
(1.0002 0.000533047 -6.96069e-21)
(1.00001 0.000584537 6.95196e-21)
(0.999806 0.000652051 0)
(0.999604 0.000738223 0)
(0.999409 0.000841395 -4.60628e-21)
(0.99922 0.000961179 -2.81756e-24)
(0.99904 0.00109855 -4.60748e-21)
(0.998868 0.0012497 -8.65449e-24)
(0.998705 0.00141692 0)
(0.998552 0.0015971 0)
(0.998408 0.00179015 2.27999e-21)
(0.998274 0.00199638 0)
(0.99815 0.00221224 0)
(0.998036 0.00243935 -2.27264e-21)
(0.997933 0.00267516 4.55362e-21)
(0.99784 0.0029187 2.27035e-21)
(0.997758 0.00317092 0)
(0.997686 0.00342787 2.23992e-21)
(0.997626 0.00369025 -5.6276e-21)
(0.997576 0.0039575 -2.24199e-21)
(0.997537 0.00422692 -2.23219e-21)
(0.99751 0.00449875 2.23241e-21)
(0.997494 0.00477197 1.39395e-24)
(0.997488 0.00504462 1.73587e-23)
(0.997494 0.00531644 2.75819e-22)
(0.997511 0.00558665 -5.51332e-22)
(0.997538 0.00585335 0)
(0.997577 0.0061162 -1.09129e-21)
(0.997626 0.00637442 0)
(0.997686 0.00662643 0)
(0.997756 0.0068718 -2.16685e-21)
(0.997837 0.00710958 -8.60998e-21)
(0.997928 0.00733859 2.22938e-23)
(0.998029 0.00755834 2.14154e-21)
(0.998139 0.00776792 0)
(0.99826 0.00796632 -2.11644e-21)
(0.99839 0.00815296 -4.22438e-21)
(0.99853 0.0083272 4.19671e-21)
(0.998678 0.0084879 8.36469e-21)
(0.998836 0.00863496 -8.32544e-21)
(0.999003 0.00876726 3.04383e-24)
(0.999178 0.00888409 -4.12384e-21)
(0.999362 0.00898552 2.82523e-25)
(0.999554 0.00906977 0)
(0.999755 0.00913752 -4.06551e-21)
(0.999966 0.00918682 -2.01819e-21)
(1.00019 0.00921713 2.01667e-21)
(1.00043 0.00923095 4.00841e-21)
(1.00028 -0.000198781 0)
(1.00004 -0.00014807 4.65274e-21)
(0.999774 -6.27847e-05 -1.39769e-20)
(0.999491 4.60863e-05 0)
(0.999208 0.000178683 0)
(0.998932 0.000332622 -9.28898e-21)
(0.998666 0.000507175 9.26032e-21)
(0.99841 0.000703762 -4.64157e-21)
(0.998167 0.000917281 -8.80419e-24)
(0.997936 0.00115094 4.61707e-21)
(0.997718 0.00140056 0)
(0.997515 0.00166613 0)
(0.997325 0.00194818 4.60587e-21)
(0.997149 0.00224197 0)
(0.996988 0.00254983 0)
(0.996842 0.00286839 -4.56331e-21)
(0.996711 0.00319641 1.5445e-23)
(0.996595 0.00353535 0)
(0.996495 0.00387991 2.25807e-21)
(0.99641 0.00423119 5.64942e-21)
(0.996341 0.00458853 -2.26327e-21)
(0.996287 0.00494836 0)
(0.99625 0.00531114 -1.11816e-21)
(0.996228 0.0056756 1.39712e-21)
(0.996223 0.00603919 -6.09528e-22)
(0.996233 0.00640164 -2.78153e-22)
(0.996259 0.00676202 5.49038e-22)
(0.996301 0.00711789 -1.10319e-21)
(0.996358 0.00746885 0)
(0.996431 0.00781396 -4.37423e-21)
(0.996519 0.00815119 6.52804e-21)
(0.996622 0.00848005 2.14793e-21)
(0.99674 0.00879938 -7.46268e-24)
(0.996872 0.00910764 2.14545e-21)
(0.997019 0.00940429 -2.15338e-21)
(0.99718 0.00968824 -4.25484e-21)
(0.997355 0.00995817 8.48756e-21)
(0.997544 0.0102134 -4.23008e-21)
(0.997745 0.0104533 8.4221e-21)
(0.99796 0.0106762 7.17907e-24)
(0.998187 0.0108823 8.33019e-21)
(0.998427 0.0110701 -4.14194e-21)
(0.998679 0.0112389 0)
(0.998943 0.0113887 6.20044e-25)
(0.999218 0.0115173 8.16581e-21)
(0.999506 0.0116258 0)
(0.999807 0.0117115 0)
(1.00012 0.0117744 7.0314e-21)
(1.00046 0.0118218 1.00198e-21)
(1.00006 -0.00129856 1.17383e-21)
(0.999721 -0.00113142 8.24897e-21)
(0.999352 -0.000980729 9.34756e-21)
(0.998972 -0.000863082 -9.40651e-21)
(0.998599 -0.000671943 0)
(0.998228 -0.000449635 -1.15308e-23)
(0.997867 -0.00020326 -4.70347e-21)
(0.99752 7.0338e-05 -4.69157e-21)
(0.997189 0.000364466 1.39882e-20)
(0.996875 0.000683449 -4.65157e-21)
(0.996578 0.00102197 0)
(0.9963 0.00138007 9.28189e-21)
(0.996041 0.00175855 -9.23331e-21)
(0.995802 0.00215123 2.55479e-23)
(0.995582 0.00256132 9.20892e-21)
(0.995383 0.00298446 -2.3111e-21)
(0.995204 0.00341912 -2.25762e-21)
(0.995046 0.00386729 4.57752e-21)
(0.99491 0.00432218 0)
(0.994795 0.0047853 -2.2657e-21)
(0.994702 0.00525585 2.2678e-21)
(0.99463 0.00572934 2.25674e-21)
(0.994581 0.00620636 -2.25668e-21)
(0.994553 0.0066854 2.81814e-22)
(0.994547 0.00716323 3.48528e-23)
(0.994564 0.00763951 8.34309e-22)
(0.994602 0.00811315 -2.69087e-24)
(0.994662 0.0085811 0)
(0.994744 0.00904279 0)
(0.994847 0.00949714 -1.49336e-24)
(0.994971 0.00994157 -2.1726e-21)
(0.995116 0.0103755 4.36192e-21)
(0.995282 0.0107975 -4.33493e-21)
(0.995468 0.0112056 4.30409e-21)
(0.995673 0.0115992 -8.60811e-21)
(0.995898 0.0119771 1.82576e-23)
(0.996142 0.0123374 4.26179e-21)
(0.996404 0.0126795 4.22316e-21)
(0.996685 0.0130024 -8.44004e-21)
(0.996982 0.0133045 -8.38554e-21)
(0.997297 0.0135857 -4.17813e-21)
(0.997628 0.0138444 -4.15479e-21)
(0.997976 0.0140796 0)
(0.998339 0.0142917 -4.10014e-21)
(0.998717 0.0144779 -1.97472e-24)
(0.999112 0.0146396 8.11124e-21)
(0.999525 0.0147734 -1.00768e-20)
(0.999959 0.01488 1.99778e-21)
(1.00042 0.0149733 0)
(0.999658 -0.0028333 0)
(0.999216 -0.00264057 -9.4315e-21)
(0.998718 -0.00240597 0)
(0.998214 -0.00212871 9.41743e-21)
(0.997714 -0.00184101 4.71784e-21)
(0.997221 -0.00156666 -9.43136e-21)
(0.996747 -0.00124014 1.41017e-20)
(0.996299 -0.000871314 4.68343e-21)
(0.995861 -0.000477081 -4.67923e-21)
(0.995444 -5.13714e-05 0)
(0.99505 0.000398915 4.67792e-21)
(0.99468 0.000873511 -9.33404e-21)
(0.994335 0.00137328 4.68754e-21)
(0.994016 0.00189047 -4.63561e-21)
(0.993724 0.00242918 2.92569e-23)
(0.993458 0.0029839 4.63924e-21)
(0.993221 0.0035527 -9.24994e-21)
(0.993011 0.00413814 0)
(0.992829 0.0047318 4.59053e-21)
(0.992677 0.0053356 -4.5905e-21)
(0.992553 0.00594853 -1.13744e-21)
(0.992459 0.00656505 0)
(0.992394 0.00718591 1.14008e-21)
(0.99236 0.00780917 2.82754e-22)
(0.992354 0.00843096 -5.99578e-22)
(0.992379 0.00905071 8.4169e-22)
(0.992434 0.00966707 5.55501e-22)
(0.992517 0.0102764 -1.1151e-21)
(0.992631 0.0108777 0)
(0.992773 0.0114698 -2.20185e-21)
(0.992943 0.0120495 4.40506e-21)
(0.993143 0.012616 0)
(0.993369 0.0131675 2.17001e-21)
(0.993623 0.0137015 0)
(0.993904 0.0142172 4.29897e-21)
(0.99421 0.0147133 -8.57326e-21)
(0.994541 0.0151873 4.25225e-21)
(0.994897 0.0156386 -2.11302e-23)
(0.995277 0.016066 4.18965e-21)
(0.995679 0.0164673 -4.2059e-21)
(0.996104 0.0168429 4.1674e-21)
(0.99655 0.0171904 8.29982e-21)
(0.997016 0.017509 0)
(0.997503 0.0177991 0)
(0.998009 0.0180574 -8.15606e-21)
(0.998537 0.0182858 -1.62073e-20)
(0.999087 0.0184799 1.61105e-20)
(0.999664 0.0186415 -9.01706e-21)
(1.00028 0.0187936 8.94966e-21)
(0.999021 -0.00492073 0)
(0.998452 -0.00466217 9.5835e-21)
(0.997824 -0.0043416 9.57139e-21)
(0.997175 -0.00398312 1.43453e-20)
(0.996516 -0.00359318 -1.43405e-20)
(0.995874 -0.00316748 -4.75958e-21)
(0.995253 -0.00266654 1.43359e-20)
(0.994657 -0.00218167 -4.74869e-21)
(0.994086 -0.00170862 4.75155e-21)
(0.993547 -0.00115361 0)
(0.993034 -0.000562704 9.51698e-21)
(0.992551 5.75738e-05 0)
(0.992099 0.000709138 -4.68884e-21)
(0.991681 0.00138242 -4.73164e-21)
(0.991298 0.00208231 5.10848e-23)
(0.990949 0.00280203 0)
(0.990637 0.00353922 4.67932e-21)
(0.990361 0.00429692 9.34217e-21)
(0.990122 0.00506508 0)
(0.989922 0.00584598 2.30973e-21)
(0.98976 0.00663819 -2.309e-21)
(0.989637 0.00743517 -2.29338e-21)
(0.989554 0.00823762 2.30458e-21)
(0.98951 0.0090431 -4.14692e-24)
(0.989506 0.00984701 -5.68881e-22)
(0.989542 0.0106483 -2.50077e-22)
(0.989617 0.0114454 -5.64042e-22)
(0.989732 0.0122338 1.12596e-21)
(0.989886 0.0130121 0)
(0.990079 0.0137787 2.21501e-21)
(0.99031 0.0145297 -4.41512e-21)
(0.990579 0.0152638 0)
(0.990884 0.015979 0)
(0.991226 0.016672 4.33685e-21)
(0.991602 0.0173417 -8.65135e-21)
(0.992013 0.0179865 4.3132e-21)
(0.992457 0.0186034 4.28694e-21)
(0.992932 0.0191914 0)
(0.993439 0.0197491 1.26795e-20)
(0.993974 0.020274 -8.40286e-21)
(0.994538 0.0207667 -4.17386e-21)
(0.995128 0.0212239 1.41989e-23)
(0.995744 0.0216451 -8.2547e-21)
(0.996386 0.0220306 -8.19347e-21)
(0.997052 0.0223768 -8.14486e-21)
(0.997743 0.022686 7.77899e-24)
(0.998463 0.0229527 -1.32949e-23)
(0.999216 0.0231802 0)
(1.00002 0.0234032 -1.58725e-20)
(0.99812 -0.00772909 0)
(0.997389 -0.0073737 2.49563e-21)
(0.996591 -0.00694303 -1.1977e-20)
(0.995765 -0.00647634 -9.58119e-21)
(0.994932 -0.00596151 9.57472e-21)
(0.994111 -0.00540018 4.86513e-21)
(0.99331 -0.00479113 -4.75941e-21)
(0.992527 -0.00414257 0)
(0.991787 -0.00344974 0)
(0.991085 -0.00271964 9.6509e-21)
(0.990419 -0.0019754 -9.52511e-21)
(0.989793 -0.00118412 4.77744e-21)
(0.989206 -0.000346325 -4.77358e-21)
(0.988662 0.000520039 4.76943e-21)
(0.988161 0.00142004 4.77488e-21)
(0.987706 0.00234548 -4.74113e-21)
(0.987298 0.00329334 -4.69645e-21)
(0.986937 0.00426692 -4.68042e-21)
(0.986624 0.00525456 4.68599e-21)
(0.986362 0.00625875 -4.68488e-21)
(0.986151 0.00727736 0)
(0.98599 0.00830287 2.33626e-21)
(0.985883 0.00933566 -2.30361e-21)
(0.985827 0.0103725 1.72595e-21)
(0.985823 0.0114082 0)
(0.985874 0.0124407 1.14143e-21)
(0.985976 0.013468 0)
(0.986131 0.0144847 -1.12454e-21)
(0.986339 0.0154887 1.77356e-23)
(0.986598 0.0164776 1.12798e-23)