/*--------------------------------*- C++ -*----------------------------------*\
| =========                 |                                                 |
| \\      /  F ield         | OpenFOAM: The Open Source CFD Toolbox           |
|  \\    /   O peration     | Version:  2312                                  |
|   \\  /    A nd           | Website:  www.openfoam.com                      |
|    \\/     M anipulation  |                                                 |
\*---------------------------------------------------------------------------*/
FoamFile
{
    version     2.0;
    format      ascii;
    arch        "LSB;label=32;scalar=64";
    class       surfaceScalarField;
    location    "24.215381905481525";
    object      phi;
}
// * * * * * * * * * * * * * * * * * * * * * * * * * * * * * * * * * * * * * //

dimensions      [0 3 -1 0 0 0 0];

oriented        oriented;

internalField   nonuniform List<scalar> 
41713
(
0.00736052
0.0568859
0.00362621
0.0679807
0.00211443
0.0657582
0.001481
0.0648799
0.0010945
0.0646329
0.000839693
0.0645012
0.000663892
0.0644222
0.000536169
0.0643742
0.000439913
0.0643427
0.000365468
0.0643209
0.000306707
0.0643052
0.000259576
0.0642936
0.000221312
0.0642847
0.000189975
0.0642778
0.000164174
0.0642722
0.00014289
0.0642677
0.000125362
0.064264
0.000111009
0.0642608
9.9378e-05
0.0642581
9.0091e-05
0.0642557
8.27937e-05
0.0642537
7.71292e-05
0.0642521
7.28209e-05
0.0642507
6.96975e-05
0.0548143
6.70759e-05
0.0456786
6.47041e-05
0.0380657
6.25607e-05
0.0317216
6.06501e-05
0.0264348
0.0220291
5.89299e-05
0.00998989
0.046896
0.00842003
0.0695506
0.00570701
0.0684712
0.00411205
0.0664748
0.00310971
0.0656353
0.00241656
0.0651944
0.00191684
0.064922
0.00154512
0.0647459
0.00126109
0.0646267
0.00103894
0.064543
0.000861753
0.0644824
0.000718142
0.0644372
0.000600266
0.0644026
0.000502593
0.0643754
0.000421141
0.0643537
0.000352999
0.0643359
0.000296006
0.064321
0.000248533
0.0643083
0.000209331
0.0642973
0.00017742
0.0642876
0.000152007
0.0642791
0.000132397
0.0642717
0.000117892
0.0642653
0.00010867
0.0548235
0.000102636
0.0456846
9.83663e-05
0.03807
9.50245e-05
0.0317249
9.21822e-05
0.0264376
0.0220315
8.97976e-05
0.00858929
0.0383067
0.0096948
0.0684451
0.00745431
0.0707117
0.00568335
0.0682458
0.00449235
0.0668263
0.0036041
0.0660826
0.00291853
0.0656075
0.00238406
0.0652804
0.00196199
0.0650488
0.00162377
0.0648812
0.00134897
0.0647572
0.00112297
0.0646632
0.000935223
0.0645903
0.000778053
0.0645326
0.0006458
0.0644859
0.000534263
0.0644474
0.000440294
0.0644149
0.000361508
0.064387
0.000296084
0.0643627
0.000242609
0.0643411
0.00019997
0.0643218
0.000167244
0.0643044
0.000143508
0.064289
0.000129142
0.0548379
0.000120465
0.0456933
0.000114883
0.0380755
0.000110851
0.0317289
0.000107588
0.0264409
0.0220342
0.000104923
0.00676677
0.03154
0.00945656
0.0657553
0.00809732
0.072071
0.00641498
0.0699281
0.00522073
0.0680205
0.00431147
0.0669919
0.00357602
0.066343
0.00297506
0.0658813
0.00248143
0.0655424
0.00207311
0.0652896
0.00173284
0.0650975
0.00144723
0.0649488
0.001206
0.0648315
0.00100127
0.0647373
0.000827031
0.0646602
0.000678683
0.0645957
0.00055271
0.0645409
0.00044642
0.0644933
0.000357741
0.0644514
0.00028507
0.0644138
0.000227155
0.0643797
0.00018297
0.0643486
0.0001514
0.0643206
0.00013289
0.0548564
0.000122266
0.0457039
0.000115866
0.0380819
0.00011155
0.0317333
0.000108284
0.0264441
0.0220366
0.000105796
0.00505611
0.0264839
0.00854707
0.0622643
0.0081512
0.0724668
0.00670386
0.0713755
0.00554487
0.0691795
0.00466434
0.0678724
0.00394123
0.0670661
0.00333188
0.0664907
0.00281535
0.066059
0.00237571
0.0657292
0.00200002
0.0654732
0.00167779
0.065271
0.00140056
0.0651088
0.00116159
0.0649763
0.000955537
0.0648662
0.000778174
0.0647731
0.000626212
0.0646929
0.00049709
0.0646225
0.000388824
0.0645596
0.000299882
0.0645027
0.000229064
0.0644505
0.000175379
0.0644023
0.000137635
0.0643583
0.000116259
0.0548778
0.000104706
0.0457155
9.83617e-05
0.0380883
9.45718e-05
0.0317371
9.20597e-05
0.0264467
0.0220383
9.04115e-05
0.00360883
0.022875
0.00728559
0.0585876
0.00774672
0.0720057
0.0066829
0.0724393
0.00561802
0.0702444
0.00478749
0.068703
0.00410062
0.0677529
0.0035094
0.0670819
0.00299597
0.0665724
0.00254881
0.0661764
0.00215841
0.0658636
0.00181695
0.0656125
0.001518
0.0654077
0.00125631
0.065238
0.00102764
0.0650949
0.000828567
0.0649722
0.000656399
0.064865
0.00050902
0.0647698
0.000384802
0.0646839
0.000282504
0.064605
0.000201171
0.0645319
0.000139993
0.0644635
9.78587e-05
0.0644004
7.50702e-05
0.0549006
6.37808e-05
0.0457268
5.85488e-05
0.0380935
5.62361e-05
0.0317394
5.53987e-05
0.0264475
0.0220382
5.5465e-05
0.00251304
0.020362
0.00599144
0.0551092
0.00705737
0.0709398
0.00642139
0.0730753
0.00550528
0.0711605
0.00474465
0.0694636
0.00410889
0.0683887
0.00355126
0.0676395
0.00305595
0.0670677
0.00261535
0.066617
0.00222318
0.0662557
0.00187405
0.0659616
0.00156343
0.0657183
0.00128757
0.0655139
0.00104342
0.0653391
0.000828495
0.0651871
0.000640861
0.0650527
0.00047903
0.0649317
0.000341904
0.064821
0.000228702
0.0647182
0.000138885
0.0646217
7.19689e-05
0.0645304
2.71475e-05
0.0644453
4.40175e-06
0.0549233
-5.31358e-06
0.0457365
-8.49734e-06
0.0380967
-8.71813e-06
0.0317396
-7.68065e-06
0.0264465
0.0220362
-5.70853e-06
0.00174857
0.0186134
0.00485999
0.0519978
0.0062774
0.0695224
0.00602193
0.0733307
0.00527271
0.0719097
0.00458731
0.070149
0.00400616
0.0689699
0.00348916
0.0681565
0.0030204
0.0675364
0.0025948
0.0670426
0.00220886
0.0666417
0.00185943
0.0663111
0.00154375
0.066034
0.00125952
0.0657981
0.00100481
0.0655938
0.000778137
0.0654138
0.000578371
0.0652524
0.000404739
0.0651053
0.000256774
0.0649689
0.000134277
0.0648407
3.72555e-05
0.0647187
-3.431e-05
0.064602
-8.11881e-05
0.0644921
-0.000103402
0.0549455
-0.000111073
0.0457442
-0.000111238
0.0380969
-0.000107917
0.0317363
-0.000103076
0.0264416
0.0220308
-9.76365e-05
0.00123766
0.0173757
0.00393921
0.0492962
0.00552069
0.0679409
0.00556828
0.0732831
0.00498097
0.072497
0.00436555
0.0707644
0.00383204
0.0695034
0.00335339
0.0686352
0.00291254
0.0679773
0.00250505
0.0674501
0.00212914
0.0670176
0.00178334
0.0666569
0.00146635
0.066351
0.00117708
0.0660874
0.000914677
0.0658562
0.000678578
0.0656499
0.000468472
0.0654625
0.000284327
0.0652894
0.000126371
0.0651269
-4.97868e-06
0.0649721
-0.00010922
0.0648229
-0.000185698
0.0646784
-0.000234391
0.0645408
-0.000255532
0.0549667
-0.000260407
0.045749
-0.000256939
0.0380934
-0.000249636
0.031729
-0.000240732
0.0264327
0.0220213
-0.000231196
0.00090323
0.0164725
0.00320983
0.0469896
0.00483017
0.0663205
0.00510404
0.0730093
0.00466513
0.0729359
0.00411344
0.0713161
0.0036179
0.0699989
0.00317041
0.0690827
0.00275383
0.0683939
0.00236317
0.0678407
0.0019974
0.0673833
0.00165606
0.0669982
0.00133885
0.0666682
0.00104563
0.0663806
0.000776431
0.0661254
0.000531476
0.0658948
0.000311222
0.0656828
0.000116342
0.0654843
-5.23015e-05
0.0652955
-0.000193624
0.0651134
-0.000306244
0.0649356
-0.0003888
0.064761
-0.000440661
0.0645927
-0.000461737
0.0549877
-0.000464341
0.0457516
-0.000457241
0.0380863
-0.000445512
0.0317172
-0.000431807
0.026419
0.0220069
-0.000417435
0.00068553
0.015787
0.00263828
0.0450369
0.00421795
0.0647409
0.00464996
0.0725773
0.00434135
0.0732446
0.00384827
0.0718092
0.00338271
0.0704645
0.00295859
0.0695068
0.00256076
0.0687917
0.00218335
0.0682181
0.00182542
0.0677413
0.00148708
0.0673365
0.00116865
0.0669866
0.000870651
0.0666786
0.000593751
0.0664023
0.000338845
0.0661497
0.000107007
0.0659146
-0.000100502
0.0656918
-0.000282152
0.0654772
-0.000436036
0.0652673
-0.000559968
0.0650595
-0.00065177
0.0648528
-0.000709989
0.0646509
-0.000733554
0.0550113
-0.000735692
0.0457538
-0.000726058
0.0380767
-0.000710407
0.0317016
-0.000691942
0.0264005
0.0219874
-0.000672457
0.000540994
0.015246
0.00219031
0.0433876
0.00368324
0.0632479
0.00421733
0.0720432
0.00401848
0.0734434
0.00357894
0.0722488
0.00313724
0.0709061
0.00272956
0.0699145
0.00234473
0.0691765
0.00197618
0.0685867
0.00162268
0.0680948
0.00128454
0.0676747
0.000962455
0.0673087
0.000657351
0.0669837
0.000370381
0.0666892
0.000102884
0.0664172
-0.000143619
0.0661611
-0.000367289
0.0659155
-0.000565859
0.0656758
-0.000736672
0.0654381
-0.000876771
0.0651996
-0.000983124
0.0649592
-0.00105338
0.0647212
-0.00108435
0.0550423
-0.00108988
0.0457593
-0.00108049
0.0380673
-0.00106271
0.0316838
-0.00104048
0.0263783
0.0219632
-0.0010163
0.000440397
0.0148056
0.00183564
0.0419923
0.00321881
0.0618648
0.00381184
0.0714501
0.00370234
0.0735529
0.00331099
0.0726401
0.00288844
0.0713287
0.00249127
0.0703116
0.002114
0.0695538
0.00174974
0.0689509
0.00139677
0.0684477
0.00105533
0.0680161
0.000726267
0.0676378
0.000410736
0.0672992
0.000110126
0.0669898
-0.000173978
0.0667013
-0.000439629
0.0664268
-0.000684396
0.0661603
-0.000905401
0.0658968
-0.00109934
0.065632
-0.00126256
0.0653628
-0.00139125
0.0650879
-0.00148228
0.0648122
-0.00152883
0.0550888
-0.00154476
0.0457752
-0.00154113
0.0380636
-0.00152523
0.0316679
-0.00150193
0.026355
0.021936
-0.00147474
0.000366061
0.0144395
0.00155043
0.040808
0.00281521
0.0606
0.0034353
0.07083
0.00339653
0.0735917
0.0030481
0.0729885
0.0026412
0.0717356
0.00224984
0.070703
0.00187525
0.0699284
0.00151089
0.0693153
0.00115444
0.0688042
0.000805879
0.0683647
0.000465998
0.0679777
0.000135951
0.0676293
-0.000182874
0.0673087
-0.000488684
0.0670071
-0.000779126
0.0667172
-0.00105134
0.0664325
-0.00130194
0.0661474
-0.00152708
0.0658572
-0.0017225
0.0655582
-0.00188389
0.0652492
-0.00200778
0.0649361
-0.00208215
0.0551632
-0.00211993
0.045813
-0.00213193
0.0380756
-0.00212573
0.0316617
-0.00210716
0.0263364
0.02191
-0.00208111
0.000307929
0.0141316
0.00131892
0.039797
0.00246623
0.0594527
0.0030896
0.0702067
0.0031039
0.0735774
0.00279246
0.0733
0.00239853
0.0721295
0.00200941
0.0710921
0.00163348
0.0703043
0.00126509
0.0696837
0.000901385
0.0691679
0.00054193
0.0687241
0.000187259
0.0683323
-0.000161743
0.0679783
-0.000503746
0.0676507
-0.000836788
0.0673402
-0.00115831
0.0670387
-0.00146515
0.0667393
-0.00175351
0.0664357
-0.00201901
0.0661227
-0.00225693
0.0657961
-0.00246291
0.0654552
-0.00263429
0.0651074
-0.00275324
0.0552822
-0.0028313
0.0458911
-0.00287744
0.0381218
-0.00289723
0.0316815
-0.00289584
0.026335
0.0218935
-0.00287936
0.00022424
0.0139074
0.000962977
0.0390582
0.00184277
0.0585729
0.00235933
0.0696901
0.00240214
0.0735346
0.0021643
0.0735378
0.00184085
0.072453
0.00151296
0.07142
0.00119295
0.0706243
0.00087701
0.0699996
0.00056232
0.0694826
0.000248068
0.0690384
-6.5726e-05
0.0686461
-0.000378612
0.0682912
-0.000689614
0.0679617
-0.000997189
0.0676478
-0.00129923
0.0673408
-0.00159298
0.0670331
-0.00187494
0.0667177
-0.00214092
0.0663886
-0.00238626
0.0660415
-0.00260683
0.0656758
-0.00280106
0.0653017
-0.00294932
0.0554304
-0.00306268
0.0460044
-0.00314813
0.0382072
-0.00320705
0.0317404
-0.00323956
0.0263676
0.0219035
-0.00324958
0.000166735
0.0137406
0.000714042
0.0385109
0.00138947
0.0578974
0.00180974
0.0692699
0.00186233
0.073482
0.00167926
0.0737209
0.00141503
0.0727172
0.00114137
0.0716937
0.000871938
0.0708938
0.000604154
0.0702674
0.000335316
0.0697514
6.43373e-05
0.0693094
-0.000209168
0.0689196
-0.000485125
0.0685671
-0.000762982
0.0682395
-0.00104177
0.0679266
-0.00132
0.067619
-0.00159552
0.0673086
-0.00186542
0.0669876
-0.00212593
0.0666492
-0.00237251
0.0662881
-0.00260063
0.0659039
-0.0028079
0.0655089
-0.00297229
0.0555948
-0.00310724
0.0461394
-0.00322418
0.0383242
-0.0033278
0.031844
-0.00341579
0.0264555
0.0219623
-0.00347455
0.000128087
0.0136125
0.000542145
0.0380969
0.00106689
0.0573727
0.00140802
0.0689287
0.00146134
0.0734286
0.00131868
0.0738636
0.00110256
0.0729333
0.000874665
0.0719216
0.00064846
0.07112
0.000422237
0.0704936
0.000193522
0.0699801
-3.8932e-05
0.0695418
-0.000275727
0.0691564
-0.00051709
0.0688085
-0.000762916
0.0684854
-0.00101278
0.0681764
-0.00126582
0.067872
-0.0015206
0.0675634
-0.00177498
0.067242
-0.00202591
0.0669001
-0.00226933
0.0665315
-0.00250046
0.066135
-0.00271463
0.0657231
-0.00288339
0.0557636
-0.00301821
0.0462742
-0.00313606
0.038442
-0.00325127
0.0319592
-0.00338181
0.0265861
0.0221191
-0.00353865
9.7701e-05
0.0135148
0.00041896
0.0377756
0.000835175
0.0569565
0.00111415
0.0686498
0.00116259
0.0733802
0.00104782
0.0739783
0.000869429
0.0731117
0.000679758
0.0721112
0.000490514
0.0713092
0.000300151
0.070684
0.000106396
0.0701739
-9.19754e-05
0.0697402
-0.000295657
0.0693601
-0.000505098
0.0690179
-0.000720565
0.0687008
-0.000942091
0.0683979
-0.00116939
0.0680994
-0.00140174
0.0677957
-0.00163782
0.0674781
-0.00187558
0.0671379
-0.00211215
0.0667681
-0.00234392
0.0663668
-0.00256599
0.0659452
-0.00274289
0.0559405
-0.00287458
0.0464059
-0.00296792
0.0385354
-0.00303294
0.0320243
-0.00308719
0.0266403
-0.00326816
0.0223001
0.00010344
0.0219828
0.000145437
0.0219854
0.000178495
0.0219943
0.000209215
0.0219966
0.00023412
0.0220024
0.000254499
0.022007
0.000271852
0.02201
0.000282889
0.0220163
0.000291925
0.0220183
0.000295942
0.0220233
0.000296894
0.0220264
0.000295323
0.0220289
0.000289307
0.0220334
0.000281692
0.022035
0.000270825
0.0220382
0.000257653
0.0220405
0.000243145
0.0220419
0.000225657
0.0220448
0.000207102
0.0220459
0.000187306
0.0220472
0.000165941
0.0220487
0.000143959
0.0220493
0.000121302
0.02205
9.8131e-05
0.0220505
7.4846e-05
0.0220506
5.16137e-05
0.0220506
2.88183e-05
0.0220502
6.45855e-06
0.0220497
-1.5145e-05
0.022049
-3.53521e-05
0.0220476
-5.46581e-05
0.0220467
-7.22331e-05
0.0220449
-8.77731e-05
0.0220429
-0.000102043
0.0220416
-0.000113004
0.0220383
-0.000121981
0.0220363
-0.000128666
0.022034
-0.000131166
0.0220299
-0.000131871
0.0220281
-0.000127893
0.0220234
-0.000120742
0.0220202
-0.000110455
0.0220171
-9.43534e-05
0.0220113
-7.60757e-05
0.0220091
-5.10645e-05
0.0220023
-2.25941e-05
0.0219989
1.07004e-05
0.0219941
5.03662e-05
0.0219877
0.0219852
9.25485e-05
0.000133865
0.0219388
0.000175652
0.0219436
0.000208733
0.0219612
0.000239726
0.0219656
0.000265158
0.021977
0.000286318
0.0219858
0.000304694
0.0219916
0.000316992
0.022004
0.000327507
0.0220078
0.000333215
0.0220176
0.000336055
0.0220236
0.000336554
0.0220284
0.000332782
0.0220371
0.000327565
0.0220402
0.000319243
0.0220465
0.000308746
0.022051
0.000297028
0.0220536
0.000282437
0.0220594
0.000266868
0.0220615
0.000250133
0.0220639
0.000231897
0.022067
0.000213089
0.0220681
0.000193645
0.0220695
0.000173712
0.0220705
0.000153674
0.0220707
0.000133685
0.0220706
0.000114122
0.0220697
9.49644e-05
0.0220689
7.65234e-05
0.0220674
5.94295e-05
0.0220647
4.31638e-05
0.0220629
2.8548e-05
0.0220595
1.58712e-05
0.0220556
4.34729e-06
0.0220531
-3.9865e-06
0.0220467
-1.04761e-05
0.0220428
-1.48249e-05
0.0220384
-1.51423e-05
0.0220302
-1.38455e-05
0.0220268
-8.04418e-06
0.0220176
7.25221e-07
0.0220114
1.24183e-05
0.0220054
2.97046e-05
0.021994
4.89165e-05
0.0219899
7.46161e-05
0.0219766
0.000103499
0.02197
0.000136913
0.0219606
0.000176384
0.0219482
0.0219435
0.000218033
0.000148878
0.0218948
0.000190779
0.0219017
0.000224235
0.0219278
0.000255868
0.021934
0.000282204
0.0219507
0.000304522
0.0219635
0.0003243
0.0219718
0.000338232
0.0219901
0.000350604
0.0219954
0.000358379
0.0220099
0.000363482
0.0220185
0.000366427
0.0220255
0.000365277
0.0220383
0.000362838
0.0220426
0.000357442
0.0220519
0.000350003
0.0220585
0.000341459
0.0220621
0.000330153
0.0220707
0.000317958
0.0220737
0.000304675
0.0220772
0.000289958
0.0220817
0.000274718
0.0220834
0.000258878
0.0220853
0.000242577
0.0220868
0.000226177
0.0220871
0.000209822
0.0220869
0.000193879
0.0220857
0.000178307
0.0220844
0.000163406
0.0220823
0.000149797
0.0220783
0.00013694
0.0220758
0.000125649
0.0220708
0.0001162
0.022065
0.000107786
0.0220616
0.000102445
0.022052
9.88053e-05
0.0220465
9.71499e-05
0.02204
9.93648e-05
0.022028
0.000103005
0.0220231
0.000110963
0.0220096
0.000121682
0.0220007
0.000135097
0.021992
0.000153883
0.0219752
0.00017434
0.0219694
0.000201034
0.02195
0.000230632
0.0219404
0.000264472
0.0219268
0.000304062
0.0219086
0.0219021
0.000345486
0.000150227
0.0218504
0.000192811
0.0218591
0.00022719
0.0218934
0.00026001
0.0219012
0.000287801
0.0219229
0.000311836
0.0219395
0.000333587
0.0219501
0.000349738
0.0219739
0.000364562
0.0219806
0.00037501
0.0219994
0.000382995
0.0220105
0.000389016
0.0220195
0.000391124
0.0220362
0.00039211
0.0220416
0.000390292
0.0220538
0.000386571
0.0220622
0.000381869
0.0220668
0.000374517
0.0220781
0.00036637
0.0220818
0.000357216
0.0220863
0.000346696
0.0220922
0.000335704
0.0220944
0.000324148
0.0220969
0.000312155
0.0220988
0.000300068
0.0220992
0.000288019
0.022099
0.000276363
0.0220973
0.000265039
0.0220958
0.000254334
0.022093
0.000244859
0.0220877
0.000236053
0.0220846
0.00022872
0.0220782
0.000223123
0.0220706
0.000218434
0.0220663
0.000216689
0.0220537
0.000216493
0.0220467
0.000218116
0.0220384
0.000223441
0.0220226
0.000229996
0.0220166
0.000240675
0.0219989
0.000253897
0.0219875
0.000269589
0.0219763
0.000290422
0.0219543
0.000312665
0.0219472
0.000340893
0.0219217
0.000371741
0.0219096
0.000406537
0.021892
0.000446784
0.0218684
0.0218604
0.000488521
0.000136108
0.0218047
0.000180148
0.021815
0.000216223
0.0218573
0.000251008
0.0218664
0.000281036
0.0218929
0.000307583
0.0219129
0.000332115
0.0219256
0.000351305
0.0219547
0.000369416
0.0219625
0.000383387
0.0219854
0.000395117
0.0219987
0.000405092
0.0220095
0.000411348
0.0220299
0.000416661
0.0220363
0.000419337
0.0220511
0.000420259
0.0220613
0.000420331
0.0220668
0.000417876
0.0220805
0.000414727
0.022085
0.000410655
0.0220904
0.000405291
0.0220976
0.000399507
0.0221002
0.000393197
0.0221032
0.000386475
0.0221055
0.000379662
0.022106
0.000372875
0.0221058
0.00036646
0.0221037
0.00036033
0.0221019
0.000354761
0.0220986
0.000350352
0.0220921
0.000346518
0.0220884
0.000344055
0.0220806
0.000343212
0.0220715
0.000343135
0.0220663
0.000345863
0.022051
0.000349973
0.0220425
0.000355723
0.0220327
0.000364996
0.0220134
0.000375288
0.0220063
0.000389498
0.0219847
0.000406025
0.021971
0.000424779
0.0219575
0.000448438
0.0219307
0.000473237
0.0219224
0.000503765
0.0218912
0.000536627
0.0218767
0.000573145
0.0218555
0.000614814
0.0218267
0.0218175
0.000657628
0.000103309
0.0217569
0.000149774
0.0217686
0.000188521
0.0218186
0.000226258
0.0218287
0.00025953
0.0218596
0.000289614
0.0218828
0.000317976
0.0218972
0.000341274
0.0219314
0.000363766
0.02194
0.000382375
0.0219668
0.000398988
0.0219821
0.000414075
0.0219944
0.000425657
0.0220183
0.000436494
0.0220255
0.000444875
0.0220427
0.000451668
0.0220545
0.000457758
0.0220607
0.000461453
0.0220769
0.000464566
0.0220819
0.00046685
0.0220881
0.000467922
0.0220965
0.00046863
0.0220995
0.000468851
0.0221029
0.000468685
0.0221056
0.00046843
0.0221062
0.000468186
0.022106
0.000468285
0.0221036
0.000468615
0.0221016
0.000469435
0.0220978
0.000471336
0.0220902
0.000473702
0.0220861
0.000477322
0.022077
0.000482427
0.0220664
0.000488138
0.0220606
0.000496495
0.0220427
0.000506048
0.022033
0.00051704
0.0220217
0.000531354
0.021999
0.000546451
0.0219912
0.000565243
0.0219659
0.0005861
0.0219501
0.000608921
0.0219347
0.000636394
0.0219032
0.000664712
0.021894
0.000698491
0.0218574
0.000734297
0.0218409
0.000773451
0.0218163
0.000817442
0.0217827
0.0217728
0.000862213
4.59328e-05
0.0217052
9.63314e-05
0.0217182
0.000139086
0.0217758
0.00018112
0.0217866
0.000218958
0.0218218
0.0002539
0.0218479
0.000287437
0.0218637
0.000316214
0.0219027
0.000344488
0.0219117
0.000369163
0.0219422
0.000392116
0.0219592
0.000413801
0.0219727
0.000432222
0.0219999
0.000450123
0.0220076
0.000465773
0.0220271
0.000480023
0.0220402
0.000493737
0.022047
0.000505206
0.0220654
0.000516221
0.0220708
0.000526514
0.0220778
0.000535684
0.0220873
0.000544554
0.0220906
0.000552982
0.0220945
0.000561048
0.0220976
0.000569025
0.0220983
0.00057699
0.022098
0.000585263
0.0220954
0.0005937
0.0220931
0.000602541
0.0220889
0.000612366
0.0220804
0.000622523
0.0220759
0.000633791
0.0220657
0.000646385
0.0220538
0.000659391
0.0220476
0.000674858
0.0220272
0.000691296
0.0220166
0.000708934
0.022004
0.000729661
0.0219783
0.000750893
0.0219699
0.000775559
0.0219413
0.000801999
0.0219237
0.000830099
0.0219066
0.000862561
0.0218708
0.000895532
0.0218611
0.000933663
0.0218193
0.000973476
0.0218011
0.00101629
0.0217735
0.0010636
0.0217354
0.0217251
0.00111128
-4.22072e-05
0.0216498
1.27636e-05
0.0216632
6.11696e-05
0.0217274
0.000109224
0.0217386
0.000153095
0.0217779
0.000194494
0.0218065
0.000234841
0.0218233
0.000270749
0.0218668
0.00030651
0.021876
0.000339005
0.0219097
0.0003701
0.0219281
0.000400233
0.0219426
0.000427382
0.0219728
0.00045428
0.0219807
0.00047917
0.0220022
0.000502883
0.0220165
0.000526259
0.0220236
0.000547569
0.0220441
0.000568578
0.0220498
0.000588992
0.0220574
0.000608391
0.0220679
0.000627566
0.0220714
0.000646351
0.0220757
0.000664805
0.0220791
0.000683166
0.0220799
0.000701486
0.0220797
0.000720068
0.0220768
0.000738727
0.0220745
0.000757684
0.02207
0.0007775
0.0220606
0.000797481
0.0220559
0.000818396
0.0220448
0.000840435
0.0220317
0.000862643
0.0220254
0.000887079
0.0220027
0.000912209
0.0219914
0.000938241
0.021978
0.000967075
0.0219495
0.000996071
0.021941
0.00102818
0.0219092
0.00106171
0.0218901
0.00109653
0.0218718
0.00113536
0.0218319
0.0011743
0.0218221
0.00121803
0.0217755
0.00126304
0.0217561
0.00131065
0.0217259
0.00136235
0.0216837
0.0216735
0.00141394
-0.000169378
0.021588
-0.000108178
0.021602
-5.3988e-05
0.0216732
5.54339e-07
0.021684
5.26836e-05
0.0217258
0.000102785
0.0217564
0.00015197
0.0217741
0.000197139
0.0218216
0.000242549
0.0218306
0.000285039
0.0218672
0.00032649
0.0218866
0.000367346
0.0219017
0.000405556
0.0219346
0.000443845
0.0219424
0.000480424
0.0219656
0.000516105
0.0219808
0.000551702
0.021988
0.000585453
0.0220103
0.0006191
0.0220162
0.000652317
0.0220242
0.000684654
0.0220356
0.000716867
0.0220392
0.000748759
0.0220438
0.000780358
0.0220475
0.000811861
0.0220484
0.000843287
0.0220483
0.000874915
0.0220451
0.00090651
0.0220429
0.000938261
0.0220382
0.00097071
0.0220282
0.00100311
0.0220235
0.00103621
0.0220117
0.00107016
0.0219978
0.00110398
0.0219916
0.00113971
0.021967
0.00117578
0.0219554
0.00121236
0.0219414
0.00125137
0.0219105
0.0012901
0.0219022
0.00133153
0.0218677
0.00137392
0.0218477
0.00141713
0.0218286
0.00146391
0.0217851
0.00151028
0.0217758
0.001561
0.0217248
0.00161249
0.0217046
0.00166607
0.0216723
0.00172325
0.0216265
0.021617
0.00177975
-0.000348079
0.0215186
-0.000278469
0.0215324
-0.000215038
0.0216098
-0.000151047
0.02162
-9.03589e-05
0.0216651
-3.11195e-05
0.0216972
2.88455e-05
0.0217142
8.55279e-05
0.0217649
0.000143022
0.0217731
0.000197849
0.0218123
0.000252235
0.0218322
0.000306531
0.0218474
0.000358621
0.0218825
0.000411232
0.0218898
0.000462529
0.0219143
0.000513298
0.0219301
0.000564322
0.021937
0.000613797
0.0219608
0.000663435
0.0219665
0.000712867
0.0219748
0.000761606
0.0219868
0.000810361
0.0219904
0.000858891
0.0219953
0.000907186
0.0219992
0.000955386
0.0220002
0.00100347
0.0220002
0.00105167
0.0219969
0.0010997
0.0219948
0.00114769
0.0219902
0.00119617
0.0219797
0.0012443
0.0219754
0.00129282
0.0219632
0.00134184
0.0219487
0.00139029
0.0219431
0.00144025
0.0219171
0.00149005
0.0219056
0.00153985
0.0218916
0.00159156
0.0218588
0.0016424
0.0218514
0.00169539
0.0218147
0.00174873
0.0217944
0.00180225
0.021775
0.00185876
0.0217286
0.00191418
0.0217203
0.00197337
0.0216656
0.00203265
0.0216453
0.00209338
0.0216116
0.00215708
0.0215628
0.0215547
0.00221938
-0.00059415
0.0214403
-0.000514897
0.0214531
-0.000441173
0.0215361
-0.000365918
0.0215448
-0.000292729
0.0215919
-0.000220383
0.0216248
-0.000147715
0.0216415
-7.79416e-05
0.0216951
-6.45003e-06
0.0217016
6.40603e-05
0.0217418
0.000134694
0.0217616
0.000205761
0.0217764
0.000275224
0.021813
0.000345807
0.0218192
0.000415611
0.0218445
0.000485388
0.0218603
0.000555893
0.0218664
0.00062526
0.0218915
0.000695172
0.0218966
0.000765198
0.0219047
0.000834797
0.0219172
0.000904621
0.0219206
0.000974365
0.0219256
0.00104396
0.0219296
0.00111348
0.0219307
0.00118284
0.0219309
0.00125221
0.0219276
0.00132122
0.0219258
0.00138994
0.0219215
0.00145884
0.0219108
0.00152701
0.0219072
0.00159512
0.0218951
0.00166324
0.0218806
0.0017302
0.0218762
0.00179809
0.0218492
0.00186513
0.0218385
0.00193144
0.0218253
0.00199897
0.0217912
0.00206479
0.0217856
0.00213198
0.0217475
0.00219869
0.0217277
0.00226471
0.021709
0.00233291
0.0216604
0.0023991
0.0216542
0.00246826
0.0215965
0.00253662
0.0215769
0.00260557
0.0215427
0.00267667
0.0214917
0.0214859
0.00274544
-0.000927831
0.0213518
-0.000837304
0.0213626
-0.000751396
0.0214501
-0.000662977
0.0214564
-0.000575699
0.0215046
-0.000488136
0.0215372
-0.000398748
0.0215521
-0.000311202
0.0216076
-0.000221155
0.0216115
-0.000132262
0.0216529
-4.22495e-05
0.0216716
4.93749e-05
0.0216847
0.000140209
0.0217222
0.000233086
0.0217263
0.000326013
0.0217516
0.000419703
0.0217666
0.000514854
0.0217713
0.000609466
0.0217969
0.00070518
0.0218009
0.000801482
0.0218084
0.000897752
0.021821
0.000994563
0.0218238
0.00109152
0.0218286
0.00118849
0.0218327
0.00128542
0.0218337
0.00138214
0.0218341
0.00147876
0.021831
0.00157476
0.0218298
0.00167013
0.0218261
0.00176528
0.0218156
0.00185912
0.0218134
0.0019523
0.0218019
0.00204478
0.0217881
0.00213526
0.0217857
0.00222583
0.0217586
0.00231458
0.0217498
0.00240157
0.0217383
0.00248874
0.0217041
0.00257303
0.0217013
0.00265759
0.021663
0.00274046
0.0216448
0.00282142
0.0216281
0.00290341
0.0215784
0.00298212
0.0215754
0.00306268
0.0215159
0.00314121
0.0214984
0.00321917
0.0214647
0.00329817
0.0214127
0.0214105
0.00337362
-0.0013755
0.0212526
-0.00127262
0.0212597
-0.00117305
0.0213506
-0.00106948
0.0213528
-0.000965691
0.0214008
-0.00086029
0.0214318
-0.000751737
0.0214436
-0.000643707
0.0214996
-0.000531615
0.0214994
-0.000418983
0.0215403
-0.000303944
0.0215566
-0.000186236
0.021567
-6.81525e-05
0.0216041
5.28976e-05
0.0216053
0.000174907
0.0216295
0.000298972
0.0216425
0.000425452
0.0216448
0.000552277
0.02167
0.000681037
0.0216722
0.000811085
0.0216784
0.000941692
0.0216904
0.00107332
0.0216922
0.00120547
0.0216964
0.00133788
0.0217003
0.00147037
0.0217013
0.00160261
0.0217019
0.00173461
0.021699
0.00186567
0.0216988
0.00199565
0.0216961
0.00212482
0.0216865
0.00225191
0.0216863
0.00237744
0.0216764
0.00250127
0.0216643
0.00262187
0.0216651
0.00274135
0.0216391
0.00285758
0.0216335
0.00297053
0.0216254
0.00308215
0.0215924
0.00318918
0.0215942
0.00329486
0.0215573
0.00339709
0.0215426
0.00349565
0.0215295
0.00359358
0.0214805
0.00368642
0.0214826
0.0037795
0.0214229
0.00386887
0.021409
0.00395607
0.0213775
0.0040428
0.021326
0.0213289
0.00412434
-0.00197201
0.0211435
-0.00185703
0.0211448
-0.00174346
0.021237
-0.00162361
0.0212329
-0.00150141
0.0212786
-0.00137536
0.0213058
-0.00124385
0.021312
-0.00111076
0.0213665
-0.000971441
0.0213601
-0.000829627
0.0213985
-0.000683436
0.0214104
-0.00053268
0.0214163
-0.000379922
0.0214513
-0.000222307
0.0214477
-6.22421e-05
0.0214695
0.00010016
0.0214801
0.000266209
0.0214788
0.000434405
0.0215018
0.000605643
0.0215009
0.000779212
0.0215048
0.000954242
0.0215153
0.00113107
0.0215153
0.00130904
0.0215185
0.00148774
0.0215216
0.00166678
0.0215222
0.00184565
0.021523
0.00202416
0.0215204
0.00220135
0.0215216
0.00237685
0.0215206
0.00255076
0.0215126
0.00272148
0.0215156
0.00288937
0.0215085
0.00305406
0.0214996
0.00321375
0.0215054
0.00337048
0.0214824
0.00352185
0.0214822
0.00366767
0.0214796
0.0038099
0.0214502
0.00394497
0.0214592
0.00407624
0.021426
0.00420145
0.0214174
0.00432033
0.0214106
0.00443611
0.0213647
0.00454413
0.0213746
0.00465006
0.0213169
0.00474984
0.0213092
0.00484519
0.0212821
0.00493802
0.0212332
0.0212435
0.00502349
-0.00276377
0.0210279
-0.00263875
0.0210197
-0.00251244
0.0211107
-0.00237653
0.021097
-0.00223481
0.0211369
-0.00208544
0.0211564
-0.00192668
0.0211533
-0.00176276
0.0212026
-0.00158906
0.0211864
-0.00140983
0.0212193
-0.00122346
0.021224
-0.00103006
0.0212229
-0.000832554
0.0212538
-0.000628301
0.0212434
-0.000419724
0.0212609
-0.000205951
0.0212664
1.29052e-05
0.0212599
0.000233294
0.0212815
0.000459123
0.0212751
0.000688851
0.0212751
0.000921559
0.0212826
0.00115743
0.0212795
0.0013956
0.0212803
0.00163543
0.0212817
0.00187624
0.0212814
0.00211722
0.0212821
0.00235789
0.0212798
0.00259684
0.0212826
0.00283335
0.0212841
0.00306718
0.0212787
0.00329624
0.0212865
0.00352059
0.0212841
0.00373949
0.0212807
0.00395069
0.0212942
0.00415615
0.0212769
0.00435302
0.0212853
0.00454088
0.0212917
0.00472167
0.0212694
0.00489141
0.0212894
0.00505361
0.0212638
0.00520578
0.0212652
0.00534759
0.0212688
0.00548251
0.0212298
0.00560565
0.0212515
0.0057232
0.0211994
0.00583105
0.0212014
0.00593127
0.0211819
0.00602615
0.0211383
0.0211589
0.00611073
-0.00315891
0.0209372
-0.00305734
0.0209182
-0.00294993
0.0210033
-0.00282703
0.0209741
-0.00269152
0.0210014
-0.00254231
0.0210072
-0.002379
0.02099
-0.00220656
0.0210301
-0.00202208
0.0210019
-0.00183025
0.0210274
-0.00163031
0.0210241
-0.00142284
0.0210154
-0.00121062
0.0210416
-0.000991437
0.0210242
-0.000767524
0.021037
-0.000538333
0.0210372
-0.000303052
0.0210246
-6.31158e-05
0.0210415
0.000180549
0.0210314
0.000429861
0.0210258
0.00068362
0.0210289
0.000941932
0.0210212
0.00120388
0.0210184
0.00146876
0.0210168
0.00173568
0.0210145
0.00200356
0.0210142
0.0022716
0.0210117
0.00253806
0.0210162
0.0028018
0.0210204
0.00306215
0.0210184
0.00331669
0.021032
0.00356503
0.0210358
0.00380609
0.0210397
0.0040374
0.0210629
0.00426048
0.0210538
0.00447245
0.0210733
0.00467272
0.0210914
0.00486295
0.0210792
0.00503937
0.021113
0.00520509
0.0210981
0.0053578
0.0211125
0.00549712
0.0211295
0.00562614
0.0211008
0.00574036
0.0211372
0.00584539
0.0210943
0.00593764
0.0211092
0.00601931
0.0211002
0.00609311
0.0210645
0.0210967
0.00615533
-0.00340659
0.0208693
-0.00333788
0.0208495
-0.00325979
0.0209252
-0.00315534
0.0208697
-0.00302659
0.0208726
-0.00287539
0.020856
-0.00270501
0.0208196
-0.00252286
0.020848
-0.00232856
0.0208076
-0.00212749
0.0208264
-0.00191969
0.0208163