/*--------------------------------*- C++ -*----------------------------------*\
| =========                 |                                                 |
| \\      /  F ield         | OpenFOAM: The Open Source CFD Toolbox           |
|  \\    /   O peration     | Version:  2312                                  |
|   \\  /    A nd           | Website:  www.openfoam.com                      |
|    \\/     M anipulation  |                                                 |
\*---------------------------------------------------------------------------*/
FoamFile
{
    version     2.0;
    format      ascii;
    arch        "LSB;label=32;scalar=64";
    class       volScalarField;
    location    "42.558018913517877";
    object      p;
}
// * * * * * * * * * * * * * * * * * * * * * * * * * * * * * * * * * * * * * //

dimensions      [0 2 -2 0 0 0 0];

internalField   nonuniform List<scalar> 
21039
(
0.591935
0.458037
0.415938
0.387704
0.36641
0.350368
0.337975
0.328131
0.320153
0.313591
0.308131
0.303541
0.299653
0.296335
0.293486
0.291024
0.288881
0.287004
0.285344
0.283862
0.282523
0.281298
0.280158
0.279134
0.278249
0.277461
0.276732
0.276032
0.275349
0.444758
0.406916
0.393126
0.374767
0.358032
0.344782
0.334075
0.325278
0.318
0.311929
0.306823
0.302499
0.298814
0.295655
0.292933
0.290575
0.288519
0.286715
0.285118
0.28369
0.282397
0.281211
0.280102
0.2791
0.278224
0.277438
0.276711
0.276011
0.275329
0.355291
0.352923
0.355109
0.34838
0.339967
0.332205
0.324991
0.318509
0.312832
0.307903
0.303632
0.299936
0.296734
0.293957
0.291542
0.289436
0.287591
0.285967
0.284526
0.283235
0.282063
0.280983
0.279968
0.27904
0.278218
0.277472
0.276774
0.2761
0.275438
0.317133
0.319258
0.32375
0.322691
0.320101
0.316912
0.313145
0.30927
0.305555
0.302101
0.298956
0.296132
0.293618
0.291393
0.28943
0.2877
0.286175
0.284827
0.283629
0.282553
0.281576
0.280672
0.279819
0.279028
0.278314
0.277653
0.277022
0.2764
0.275779
0.292019
0.295994
0.301903
0.303637
0.303867
0.30317
0.301671
0.299783
0.297729
0.295636
0.2936
0.291682
0.289913
0.288307
0.286865
0.28558
0.284441
0.283433
0.282538
0.281739
0.281014
0.280345
0.279712
0.279113
0.278552
0.278012
0.277477
0.276929
0.276364
0.272264
0.277525
0.284889
0.288776
0.29081
0.291648
0.291613
0.291086
0.290251
0.289232
0.288134
0.287026
0.285958
0.28496
0.284048
0.283231
0.28251
0.281879
0.281329
0.280849
0.280424
0.280037
0.279673
0.279313
0.278944
0.278557
0.278143
0.27769
0.277195
0.259362
0.264388
0.271488
0.276444
0.279688
0.281659
0.282713
0.283196
0.283285
0.283113
0.282783
0.282371
0.281929
0.281495
0.281095
0.280744
0.28045
0.280216
0.280039
0.279912
0.279825
0.279763
0.279714
0.279637
0.2795
0.279301
0.279038
0.278703
0.278297
0.251911
0.256015
0.261752
0.266701
0.270422
0.273031
0.274808
0.276021
0.276817
0.277319
0.277624
0.277804
0.277914
0.277994
0.278074
0.278175
0.278309
0.278482
0.278696
0.278948
0.279231
0.279534
0.279844
0.280094
0.280228
0.280255
0.280182
0.279997
0.279703
0.247216
0.250419
0.254777
0.259259
0.262961
0.26578
0.267925
0.26959
0.270882
0.271893
0.272705
0.27338
0.273968
0.274509
0.275034
0.275564
0.276116
0.276698
0.277315
0.277966
0.278648
0.279351
0.280065
0.280693
0.281144
0.281423
0.281544
0.281514
0.281352
0.243622
0.246074
0.249387
0.253328
0.256828
0.259649
0.261947
0.263862
0.265473
0.266847
0.268047
0.269122
0.270115
0.271062
0.271991
0.272925
0.273879
0.274865
0.27589
0.276954
0.278058
0.279194
0.280353
0.281403
0.282217
0.282797
0.283162
0.283321
0.283296
0.240431
0.242281
0.244842
0.248264
0.251514
0.254267
0.25662
0.258674
0.26049
0.262121
0.263615
0.26501
0.266342
0.267642
0.268935
0.270243
0.271581
0.272961
0.274393
0.275879
0.277421
0.279017
0.28066
0.282182
0.283407
0.284337
0.284993
0.285385
0.285533
0.237336
0.238737
0.240767
0.243718
0.246705
0.24936
0.251717
0.253846
0.255798
0.257616
0.259334
0.260987
0.262603
0.264209
0.265828
0.26748
0.26918
0.270942
0.272774
0.274684
0.276675
0.27875
0.280908
0.282944
0.284628
0.285953
0.286942
0.287603
0.287955
0.234187
0.235273
0.236933
0.239478
0.242212
0.244751
0.247077
0.249238
0.251277
0.253228
0.25512
0.256979
0.258833
0.260703
0.262612
0.264578
0.266617
0.268743
0.270966
0.273295
0.275734
0.278292
0.280978
0.283554
0.285733
0.287496
0.28886
0.28983
0.290422
0.230926
0.231792
0.233186
0.23539
0.23789
0.240307
0.242581
0.244743
0.246831
0.248872
0.250893
0.252916
0.254965
0.257061
0.259225
0.261476
0.26383
0.266302
0.268901
0.271634
0.274508
0.277532
0.280728
0.283829
0.286501
0.288716
0.290482
0.291792
0.292656
0.227544
0.228256
0.229439
0.231342
0.233617
0.235905
0.238115
0.240257
0.242364
0.244461
0.246572
0.248717
0.25092
0.253203
0.255586
0.258092
0.260737
0.263535
0.266492
0.269613
0.272898
0.276353
0.279997
0.283538
0.28662
0.289227
0.29137
0.293025
0.294185
0.22434
0.224939
0.225955
0.227632
0.229723
0.231892
0.234032
0.236142
0.238248
0.240374
0.242539
0.244767
0.247082
0.249507
0.252068
0.254789
0.257689
0.260779
0.264065
0.267541
0.271195
0.275002
0.278953
0.282694
0.285871
0.288536
0.290769
0.292581
0.293956
0.221643
0.222168
0.223081
0.224614
0.226567
0.228632
0.230711
0.232796
0.2349
0.237043
0.239246
0.241535
0.243934
0.246472
0.24918
0.252085
0.255207
0.258561
0.26215
0.265962
0.26996
0.27408
0.278235
0.281924
0.284743
0.286814
0.288374
0.289662
0.290893
0.219424
0.219902
0.220742
0.22217
0.224017
0.226011
0.228063
0.230147
0.232262
0.234425
0.236664
0.239006
0.241482
0.244125
0.24697
0.250047
0.253384
0.256998
0.260896
0.265061
0.269443
0.273935
0.278353
0.281963
0.28412
0.284812
0.284272
0.282986
0.282058
0.217648
0.218175
0.219033
0.220361
0.222037
0.223915
0.225943
0.22805
0.230197
0.232395
0.234679
0.237083
0.239642
0.242396
0.245382
0.248637
0.252195
0.256082
0.260312
0.264872
0.269718
0.274723
0.279649
0.283528
0.285305
0.284433
0.280532
0.272979
0.261407
0.274678
0.274003
0.273336
0.272674
0.272018
0.271364
0.270714
0.270065
0.269418
0.26877
0.268121
0.267471
0.266817
0.266161
0.265501
0.264835
0.264165
0.263489
0.262806
0.262117
0.261421
0.260718
0.260007
0.25929
0.258565
0.257834
0.257095
0.25635
0.255599
0.254841
0.254079
0.253311
0.252539
0.251763
0.250984
0.250202
0.24942
0.248637
0.247854
0.247072
0.246293
0.245516
0.244744
0.243976
0.243215
0.24246
0.241712
0.240973
0.240242
0.274661
0.273996
0.273339
0.272689
0.272043
0.2714
0.27076
0.270121
0.269484
0.268845
0.268206
0.267565
0.26692
0.266272
0.265618
0.26496
0.264295
0.263624
0.262946
0.26226
0.261566
0.260865
0.260156
0.259438
0.258712
0.257979
0.257237
0.256489
0.255733
0.254971
0.254202
0.253428
0.252649
0.251866
0.251079
0.250289
0.249497
0.248704
0.247911
0.247119
0.246328
0.24554
0.244756
0.243977
0.243204
0.242437
0.241678
0.240927
0.240185
0.274794
0.274155
0.273524
0.272897
0.272275
0.271655
0.271037
0.27042
0.269802
0.269182
0.26856
0.267934
0.267303
0.266666
0.266023
0.265373
0.264715
0.264048
0.263373
0.262688
0.261993
0.261289
0.260574
0.25985
0.259116
0.258372
0.257619
0.256856
0.256085
0.255306
0.25452
0.253727
0.252927
0.252122
0.251312
0.250499
0.249683
0.248864
0.248045
0.247226
0.246408
0.245592
0.244779
0.24397
0.243167
0.242369
0.241579
0.240797
0.240024
0.275173
0.274574
0.27398
0.273389
0.2728
0.272212
0.271624
0.271034
0.270441
0.269844
0.269242
0.268634
0.268019
0.267395
0.266761
0.266118
0.265464
0.264799
0.264122
0.263433
0.262732
0.262018
0.261291
0.260552
0.259801
0.259037
0.258262
0.257475
0.256678
0.25587
0.255054
0.254228
0.253394
0.252553
0.251707
0.250854
0.249998
0.249138
0.248277
0.247414
0.246551
0.245689
0.244829
0.243973
0.243121
0.242274
0.241434
0.240601
0.239776
0.275809
0.275263
0.274717
0.274171
0.273625
0.273077
0.272525
0.271969
0.271406
0.270836
0.270257
0.269669
0.269069
0.268458
0.267834
0.267196
0.266544
0.265877
0.265194
0.264496
0.263781
0.263051
0.262305
0.261543
0.260766
0.259974
0.259166
0.258345
0.25751
0.256663
0.255803
0.254933
0.254052
0.253162
0.252264
0.251359
0.250448
0.249532
0.248612
0.24769
0.246766
0.245842
0.244919
0.243998
0.24308
0.242166
0.241258
0.240356
0.239462
0.276706
0.276224
0.275738
0.275249
0.274755
0.274256
0.273748
0.273232
0.272705
0.272167
0.271615
0.271049
0.270467
0.269869
0.269253
0.268619
0.267966
0.267293
0.266601
0.265888
0.265155
0.264402
0.263629
0.262836
0.262024
0.261193
0.260343
0.259476
0.258592
0.257692
0.256778
0.255849
0.254908
0.253955
0.252991
0.252018
0.251037
0.250049
0.249056
0.248058
0.247058
0.246055
0.245052
0.24405
0.243049
0.242052
0.241059
0.240071
0.239091
0.277884
0.277479
0.277065
0.276643
0.276213
0.275771
0.275317
0.274847
0.274363
0.27386
0.273339
0.272798
0.272236
0.271651
0.271043
0.270411
0.269755
0.269073
0.268366
0.267634
0.266876
0.266092
0.265284
0.264451
0.263594
0.262714
0.261811
0.260887
0.259942
0.258977
0.257994
0.256993
0.255977
0.254946
0.253901
0.252845
0.251778
0.250702
0.249618
0.248528
0.247434
0.246335
0.245235
0.244134
0.243034
0.241936
0.24084
0.239749
0.238666
0.279362
0.279046
0.278719
0.278379
0.278023
0.277649
0.277256
0.276841
0.276405
0.275943
0.275457
0.274943
0.274401
0.27383
0.27323
0.272598
0.271935
0.271241
0.270515
0.269757
0.268968
0.268147
0.267295
0.266414
0.265502
0.264563
0.263595
0.262601
0.261582
0.260539
0.259473
0.258385
0.257279
0.256153
0.255012
0.253855
0.252685
0.251503
0.250312
0.249111
0.247905
0.246692
0.245476
0.244258
0.243039
0.241821
0.240604
0.239393
0.238189
0.281185
0.280972
0.28074
0.280485
0.28021
0.279911
0.279587
0.279233
0.27885
0.278435
0.277987
0.277504
0.276985
0.276429
0.275835
0.275203
0.274532
0.273822
0.273073
0.272285
0.271458
0.270593
0.26969
0.268751
0.267776
0.266766
0.265723
0.264647
0.263541
0.262405
0.261242
0.260052
0.258838
0.257602
0.256345
0.25507
0.253778
0.252471
0.251151
0.24982
0.248481
0.247133
0.245781
0.244425
0.243067
0.241709
0.24035
0.238997
0.237655
0.283249
0.283201
0.283119
0.282974
0.28278
0.282563
0.282309
0.282024
0.281702
0.28134
0.280936
0.280489
0.279996
0.279458
0.278874
0.278243
0.277564
0.276838
0.276064
0.275244
0.274376
0.273463
0.272504
0.2715
0.270453
0.269364
0.268234
0.267065
0.265858
0.264616
0.263339
0.26203
0.260692
0.259325
0.257933
0.256518
0.255081
0.253627
0.252155
0.25067
0.249174
0.247667
0.246154
0.244635
0.243113
0.24159
0.240067
0.238549
0.237045
0.285629
0.285704
0.285742
0.28575
0.285718
0.285637
0.285353
0.285167
0.284929
0.284636
0.28429
0.28389
0.283434
0.282924
0.282357
0.281733
0.281053
0.280315
0.279522
0.278671
0.277764
0.276802
0.275785
0.274714
0.273591
0.272415
0.27119
0.269918
0.268597
0.267233
0.265827
0.26438
0.262896
0.261376
0.259825
0.258245
0.256636
0.255006
0.253353
0.251684
0.25
0.248302
0.246597
0.244883
0.243167
0.241449
0.23973
0.238019
0.236324
0.288226
0.288452
0.288616
0.288733
0.288804
0.28883
0.2888
0.288706
0.288546
0.288321
0.288043
0.287703
0.287298
0.28683
0.286296
0.285696
0.285029
0.284295
0.283495
0.282626
0.281691
0.280689
0.279619
0.278484
0.277285
0.276021
0.274696
0.27331
0.271865
0.270364
0.268809
0.267202
0.265547
0.263846
0.262104
0.260324
0.258508
0.256662
0.254789
0.252893
0.250979
0.249048
0.247107
0.245157
0.243204
0.241249
0.239294
0.23735
0.23543
0.290899
0.291303
0.291633
0.291905
0.292119
0.292274
0.292368
0.2924
0.29237
0.292269
0.292095
0.291857
0.291543
0.291159
0.290697
0.290158
0.28954
0.288843
0.288068
0.287209
0.28627
0.28525
0.284145
0.282961
0.281696
0.280347
0.278921
0.277418
0.275835
0.274181
0.272454
0.270658
0.2688
0.266878
0.264901
0.262875
0.260798
0.258683
0.25653
0.254348
0.252142
0.249915
0.247677
0.245428
0.243177
0.240927
0.238679
0.236449
0.234251
0.293369
0.293971
0.294495
0.29496
0.295363
0.295703
0.295978
0.296188
0.296331
0.296402
0.2964
0.296317
0.296152
0.29592
0.295604
0.295196
0.294691
0.294092
0.293398
0.292601
0.291706
0.290709
0.289606
0.288401
0.287092
0.285673
0.284152
0.282527
0.280795
0.278965
0.277036
0.275011
0.272899
0.270699
0.268421
0.266073
0.263656
0.261184
0.258662
0.256099
0.253505
0.250885
0.248252
0.245611
0.242971
0.240338
0.237716
0.235123
0.232578
0.295161
0.295976
0.296727
0.297438
0.298104
0.298726
0.299295
0.299804
0.300249
0.300615
0.300903
0.301099
0.301199
0.301195
0.301088
0.300918
0.300636
0.300236
0.299714
0.29906
0.298284
0.29738
0.296339
0.295164
0.29385
0.29239
0.290789
0.289044
0.28715
0.285117
0.282944
0.280632
0.278195
0.27563
0.272953
0.270174
0.267294
0.264335
0.261304
0.258215
0.255084
0.251918
0.24874
0.245557
0.242387
0.239239
0.236119
0.233054
0.230066
0.29516
0.296143
0.297161
0.298252
0.29938
0.30052
0.301627
0.302673
0.303635
0.304488
0.305231
0.305849
0.306349
0.306726
0.306963
0.307058
0.307005
0.307078
0.306792
0.306368
0.305807
0.305089
0.304194
0.303126
0.301873
0.300419
0.298772
0.296922
0.29486
0.292599
0.290135
0.287472
0.284624
0.281592
0.278396
0.275051
0.27156
0.267955
0.264243
0.260448
0.25659
0.252685
0.248765
0.244844
0.240956
0.237121
0.233357
0.229701
0.226188
0.292251
0.293299
0.294759
0.296621
0.298679
0.300776
0.302782
0.304632
0.306296
0.307755
0.30903
0.310119
0.311049
0.311834
0.312473
0.312981
0.313317
0.313503
0.313621
0.313559
0.313317
0.312887
0.312239
0.311374
0.310268
0.308898
0.307267
0.305356
0.303152
0.300669
0.2979
0.294852
0.291547
0.287985
0.284198
0.280204
0.276013
0.271666
0.267173
0.262564
0.257864
0.253089
0.248282
0.24346
0.238673
0.23396
0.229371
0.224982
0.220861
0.281947
0.283421
0.287071
0.29159
0.29601
0.29997
0.303355
0.306203
0.308598
0.310608
0.312327
0.313795
0.315073
0.316196
0.317177
0.318047
0.318782
0.319377
0.319835
0.320189
0.320359
0.320316
0.320023
0.319471
0.318619
0.317423
0.315878
0.313955
0.311628
0.308918
0.305815
0.30233
0.298497
0.294322
0.289852
0.285115
0.280133
0.274958
0.269606
0.264116
0.258511
0.252803
0.247026
0.24118
0.235305
0.229438
0.223663
0.218179
0.213266
0.252598
0.263814
0.276599
0.287127
0.295053
0.300905
0.305255
0.308594
0.311256
0.313443
0.315311
0.316929
0.318382
0.319711
0.320937
0.322103
0.323193
0.324217
0.325134
0.325891
0.326568
0.326995
0.327155
0.327023
0.32654
0.325635
0.324277
0.32242
0.320028
0.317124
0.313701
0.309778
0.305405
0.300598
0.295426
0.289933
0.284155
0.278164
0.271987
0.265676
0.259256
0.252732
0.246123
0.23938
0.23247
0.225309
0.217817
0.210069
0.202679
0.239529
0.238801
0.238033
0.237216
0.236339
0.235399
0.234422
0.233534
0.232826
0.232327
0.232071
0.232092
0.232436
0.233146
0.234275
0.235889
0.238066
0.240905
0.244533
0.249117
0.254884
0.262146
0.271349
0.283173
0.298717
0.319586
0.34747
0.389235
0.522859
0.239458
0.238714
0.237927
0.237087
0.236179
0.235201
0.23418
0.233243
0.232484
0.231933
0.231617
0.23158
0.231852
0.232478
0.233508
0.234999
0.237023
0.239665
0.243034
0.24727
0.252552
0.259119
0.267278
0.277419
0.29017
0.306469
0.324467
0.337913
0.375501
0.239266
0.238486
0.237655
0.236761
0.235786
0.234726
0.233604
0.232554
0.231676
0.230998
0.230546
0.230356
0.230454
0.230878
0.231666
0.232862
0.234517
0.236688
0.239443
0.242855
0.247008
0.251983
0.257835
0.264488
0.271751
0.279719
0.28606
0.283487
0.285605
0.238964
0.238124
0.237221
0.236241
0.235162
0.233974
0.232698
0.231474
0.230412
0.229539
0.228878
0.228454
0.228289
0.228409
0.228838
0.229602
0.230725
0.232229
0.234132
0.236439
0.239133
0.242162
0.245419
0.248631
0.251322
0.25346
0.254101
0.249198
0.246848
0.238576
0.237654
0.236654
0.235557
0.23434
0.232983
0.231503
0.230053
0.228757
0.227637
0.226712
0.226
0.225516
0.225274
0.225285
0.225556
0.226089
0.226877
0.227902
0.229126
0.230484
0.231872
0.233158
0.234115
0.234322
0.233637
0.231471
0.225162
0.221006
0.238113
0.237087
0.235966
0.234726
0.233336
0.231771
0.230043
0.228322
0.226748
0.225342
0.224116
0.223084
0.222253
0.221627
0.221205
0.220983
0.220947
0.221072
0.221323
0.221645
0.221961
0.22216
0.222111
0.221623
0.22031
0.21783
0.213512
0.205772
0.200375
0.237577
0.236427
0.235159
0.233746
0.232149
0.230338
0.228319
0.226285
0.224397
0.222673
0.221121
0.21975
0.218561
0.21755
0.21671
0.216026
0.215474
0.215022
0.214626
0.214224
0.213737
0.21305
0.212026
0.210481
0.20806
0.204386
0.199014
0.191574
0.186455
0.236969
0.235671
0.23423
0.232612
0.230772
0.228675
0.226322
0.223935
0.221702
0.219634
0.217741
0.216023
0.214478
0.213097
0.211865
0.210762
0.209758
0.208816
0.207888
0.206909
0.205802
0.204459
0.202752
0.200525
0.197501
0.19338
0.188047
0.182018
0.177863
0.236281
0.234808
0.233164
0.231307
0.229187
0.22676
0.224031
0.221254
0.218646
0.216219
0.213975
0.211913
0.210025
0.208297
0.20671
0.20524
0.203852
0.202509
0.201161
0.199748
0.198199
0.196425
0.194325
0.191784
0.188599
0.184543
0.179727
0.175136
0.171915
0.235492
0.233816
0.231935
0.229801
0.227356
0.224555
0.221404
0.218201
0.215197
0.212397
0.209804
0.207409
0.205199
0.203158
0.201262
0.199482
0.197785
0.196131
0.194474
0.192762
0.190933
0.188919
0.186643
0.184017
0.180894
0.177105
0.172893
0.169411
0.166964
0.234561
0.232647
0.230489
0.228033
0.225215
0.22199
0.21837
0.214709
0.211289
0.208115
0.20518
0.202472
0.199973
0.19766
0.195505
0.19348
0.191547
0.189669
0.187803
0.185903
0.183919
0.181794
0.179469
0.176872
0.173896
0.170436
0.166818
0.164149
0.162322
0.233416
0.23122
0.228737
0.225904
0.222658
0.218953
0.21482
0.210671
0.206828
0.203285
0.200029
0.19704
0.194292
0.191757
0.189403
0.187195
0.185098
0.183075
0.181085
0.179087
0.177036
0.174888
0.172593
0.170092
0.167308
0.164202
0.161139
0.15906
0.157693
0.231934
0.2294
0.226532
0.22326
0.219522
0.215282
0.210593
0.205941
0.201679
0.197792
0.194252
0.191028
0.188085
0.185387
0.182897
0.180576
0.178388
0.176293
0.174253
0.17223
0.170186
0.168082
0.165876
0.16352
0.160959
0.158208
0.155639
0.153982
0.152937
0.229886
0.226946
0.22362
0.219838
0.215544
0.210721
0.205456
0.20031
0.195665
0.191483
0.187718
0.184326
0.181259
0.178473
0.175921
0.173563
0.171356
0.169263
0.167245
0.165265
0.16329
0.161287
0.159219
0.157043
0.154726
0.152318
0.150174
0.148827
0.148004
0.226907
0.223474
0.21961
0.215248
0.210352
0.204931
0.199111
0.193529
0.188577
0.184186
0.180289
0.176822
0.173724
0.170938
0.168413
0.1661
0.163955
0.161937
0.16001
0.158138
0.15629
0.154435
0.152542
0.150574
0.148517
0.146447
0.144681
0.143573
0.142898
0.222493
0.218523
0.214113
0.209202
0.203782
0.197887
0.191672
0.185825
0.180729
0.176285
0.172399
0.168989
0.165978
0.163301
0.160898
0.158718
0.156714
0.154843
0.153068
0.151356
0.149676
0.148
0.146302
0.144554
0.142751
0.140979
0.139515
0.138598
0.138023
0.216576
0.21208
0.20724
0.201986
0.196292
0.190191
0.183845
0.177965
0.172919
0.168584
0.164846
0.161606
0.158779
0.156292
0.15408
0.152089
0.150271
0.148584
0.146991
0.145458
0.143956
0.142459
0.140947
0.139406
0.137841
0.136324
0.135088
0.134311
0.133808
0.208462
0.203731
0.198956
0.193829
0.188244
0.182239
0.176005
0.170283
0.165436
0.161327
0.15783
0.154836
0.152251
0.149999
0.148012
0.146238
0.144626
0.143137
0.141733
0.140383
0.139055
0.137724
0.136373
0.135002
0.133638
0.132342
0.131303
0.130647
0.130205
0.19682
0.193258
0.189622
0.185187
0.180051
0.174369
0.168419
0.162988
0.158439
0.154632
0.151433
0.148725
0.146411
0.144412
0.142662
0.141109
0.139704
0.138409
0.137187
0.136008
0.134839
0.133651
0.132431
0.13122
0.130094
0.129084
0.128244
0.127635
0.127171
0.215849
0.216157
0.216832
0.218178
0.22004
0.222116
0.224262
0.226418
0.22859
0.230823
0.233159
0.235638
0.238295
0.241173
0.244311
0.247753
0.251537
0.255699
0.260258
0.26521
0.270517
0.276054
0.281548
0.285881
0.287639
0.285568
0.278066
0.262704
0.23084
0.214071
0.2145
0.215288
0.216621
0.218394
0.22039
0.222491
0.224642
0.226847
0.22914
0.231556
0.234134
0.236911
0.23993
0.243237
0.24688
0.250906
0.255358
0.260269
0.26566
0.271532
0.277829
0.284367
0.290135
0.293806
0.294616
0.291933
0.287702
0.292085
0.21227
0.21278
0.21365
0.214975
0.216676
0.218591
0.22063
0.222754
0.224968
0.227297
0.229771
0.232424
0.235295
0.23843
0.24188
0.245702
0.249956
0.254702
0.260002
0.265925
0.27257
0.280054
0.288526
0.297486
0.306066
0.314461
0.322971
0.330329
0.347551
0.21042
0.210908
0.211749
0.213057
0.214759
0.216676
0.218704
0.220815
0.223029
0.225374
0.22788
0.230581
0.233519
0.236742
0.240307
0.24428
0.248735
0.253756
0.259441
0.265924
0.273421
0.28228
0.293071
0.305861
0.319969
0.33562
0.353855
0.370514
0.392928
0.208525
0.208977
0.209766
0.21104
0.212739
0.214666
0.216694
0.2188
0.22101
0.223359
0.225881
0.22861
0.231591
0.234874
0.238523
0.242612
0.247228
0.252476
0.25849
0.265468
0.273731
0.283828
0.296681
0.312698
0.331213
0.351918
0.377045
0.400642
0.427012
0.206587
0.20702
0.207774
0.209008
0.210674
0.212577
0.214588
0.216677
0.218873
0.221213
0.223732
0.226467
0.229462
0.232773
0.236465
0.240619
0.245334
0.250731
0.256971
0.264297
0.273107
0.284061
0.298314
0.316321
0.337297
0.360422
0.388079
0.417974
0.448213
0.204601
0.205023
0.205753
0.206943
0.208556
0.210413
0.212384
0.214438
0.216603
0.218914
0.221406
0.224119
0.227095
0.230391
0.234076
0.238233
0.242966
0.248408
0.25473
0.262201
0.271248
0.282524
0.297331
0.315517
0.338
0.362706
0.389375
0.417417
0.445766
0.202563
0.202972
0.203676
0.204819
0.20637
0.208167
0.210082
0.212085
0.214198
0.216457
0.218896
0.221553
0.224472
0.227706
0.231324
0.23541
0.240068
0.245432
0.251664
0.259042
0.267967
0.278923
0.293508
0.311993
0.333429
0.35649
0.380159
0.404081
0.428058
0.200472
0.200867
0.201542
0.202631
0.204112
0.205836
0.207682
0.209615
0.211656
0.213839
0.216196
0.218763
0.221582
0.224703
0.228192
0.232127
0.236606
0.241761
0.247715
0.254758
0.263066
0.273715
0.287453
0.304467
0.323305
0.343098
0.363063
0.382921
0.402027
0.198327
0.198709
0.199353
0.200384
0.201784
0.203422
0.205181
0.207027
0.208975
0.211057
0.213303
0.215745
0.21842
0.221376
0.224671
0.228374
0.232565
0.237377
0.242858
0.249329
0.257063
0.266691
0.278749
0.293193
0.308762
0.324723
0.340523
0.356159
0.37068
0.196125
0.196493
0.197104
0.198071
0.199383
0.200924
0.202584
0.204325
0.20616
0.208117
0.210222
0.212504
0.214995
0.217735
0.220772
0.224166
0.227971
0.232294
0.237272
0.242998
0.249742
0.257878
0.267766
0.279221
0.291214
0.303088
0.314444
0.325575
0.335651
0.193869
0.194224
0.194799
0.1957
0.196917
0.198349
0.199894
0.201513
0.203215
0.205024
0.206962
0.209052
0.21132
0.213797
0.216521
0.219537
0.222894
0.22666
0.230942
0.235755
0.241248
0.247665
0.25517
0.26348
0.271793
0.279604
0.286676
0.293473
0.299426
0.191563
0.191908
0.192452
0.193282
0.194395
0.195704
0.197117
0.198596
0.200146
0.201785
0.20353
0.205398
0.207407
0.20958
0.211942
0.214529
0.21737
0.220494
0.223938
0.227707
0.231836
0.236436
0.241487
0.246653
0.251423
0.255495
0.258803
0.261862
0.264329
0.189207
0.189537
0.190043
0.1908
0.191805
0.192987
0.19426
0.195587
0.196968
0.198419
0.199949
0.20157
0.203291
0.205127
0.20709
0.209197
0.211459
0.21387
0.216415
0.219071
0.221787
0.22455
0.227192
0.229399
0.230982
0.231848
0.232074
0.232169
0.231977
0.186806
0.187124
0.187593
0.188274
0.189167
0.190214
0.191336
0.192498
0.193698
0.194946
0.196243
0.197599
0.199012
0.200485
0.202019
0.203612
0.205252
0.20691
0.208534
0.210053
0.211356
0.212335
0.212723
0.212285
0.211148
0.209397
0.20722
0.205112
0.203089
0.184366
0.184674
0.185107
0.185711
0.186488
0.187393
0.188356
0.189341
0.190349
0.191381
0.192439
0.193515
0.194602
0.195693
0.196777
0.197833
0.198831
0.199718
0.200412
0.200803
0.200735
0.200036
0.198381
0.195653
0.192265
0.188453
0.184476
0.180823
0.177672
0.181892
0.182188
0.182581
0.183107
0.183769
0.184532
0.185335
0.186136
0.186943
0.187758
0.188566
0.189354
0.190106
0.190806
0.191429
0.191942
0.192293
0.192412
0.19219
0.19149
0.190126
0.187888
0.184423
0.179752
0.174543
0.169152
0.163864
0.159168
0.155401
0.179392
0.179678
0.180032
0.18048
0.181026
0.181646
0.182292
0.182889
0.18351
0.184102
0.184656
0.185153
0.18557
0.185879
0.186044
0.186018
0.185736
0.185106
0.184004
0.182272
0.179709
0.176083
0.171038
0.164738
0.158071
0.151478
0.145226
0.139809
0.135725
0.176875
0.177153
0.177471
0.177843
0.178272
0.178746
0.179211
0.179653
0.180066
0.180434
0.180736
0.180946
0.181033
0.180959
0.180678
0.18013
0.179237
0.177894
0.175962
0.17327
0.169609
0.164739
0.158317
0.150647
0.1428
0.13527
0.128271
0.122314
0.118059
0.174346
0.174616
0.174895
0.175191
0.175508
0.175834
0.176149
0.176416
0.176631
0.176783
0.176842
0.176775
0.176544
0.176103
0.175398
0.174357
0.172891
0.170883
0.168184
0.164612
0.159956
0.153975
0.146348
0.13751
0.12869
0.120411
0.112807
0.106415
0.102057
0.171815
0.172078
0.172321
0.172542
0.172751
0.172946
0.173104
0.173198
0.17323
0.173177
0.173005
0.172677
0.172149
0.171368
0.17027
0.168777
0.166789
0.164179
0.16079
0.156433
0.150892
0.143928
0.135241
0.125393
0.11575
0.106854
0.0987359
0.0919777
0.0875724
0.169289
0.169547
0.169765
0.169899
0.170023
0.170087
0.170087
0.170022
0.169882
0.169638
0.169254
0.168686
0.167887
0.166797
0.165348
0.163452
0.161004
0.157868
0.153879
0.148841
0.142532
0.134708
0.125086
0.114337
0.103964
0.0945318
0.0859603
0.0789016
0.0745423
0.166777
0.167028
0.167215
0.167317
0.167331
0.16726
0.167115
0.166902
0.166604
0.166187
0.16561
0.164829
0.163789
0.162429
0.160674
0.158435
0.155597
0.15202
0.147533
0.141931
0.134982
0.126428
0.115986
0.104403
0.0933227
0.0833716
0.0743628
0.0670671
0.062918
0.164286
0.16453
0.164693
0.16474
0.164656
0.164468
0.164198
0.163855
0.163416
0.162846
0.162103
0.161136
0.15989
0.158303
0.156296
0.153776
0.150628
0.146707
0.141838
0.135808
0.12837
0.119241
0.108115
0.0957651
0.0839567
0.0734246
0.0639134
0.056394
0.052644
0.161825
0.162069
0.162211
0.162202
0.162029
0.161732
0.161347
0.160889
0.160331
0.159633
0.158749
0.157629
0.156217
0.154449
0.152248
0.149519
0.146148
0.14199
0.136869
0.130569
0.122829
0.113332
0.101721
0.0887226
0.0761583
0.0648957
0.0546685
0.0468189
0.0437234
0.159398
0.159636
0.15975
0.159684
0.15943
0.15904
0.158564
0.158017
0.157368
0.15657
0.155576
0.154337
0.1528
0.150901
0.148566
0.145705
0.142204
0.137925
0.132695
0.126301
0.118482
0.108891
0.0971151
0.0837601
0.0705671
0.0584522
0.0470979
0.0384255
0.0361286
0.15703
0.157314
0.15746
0.157364
0.157006
0.156475
0.155876
0.155239
0.154516
0.153646
0.152574
0.151254
0.149634
0.147657
0.145253
0.142335
0.138799
0.134514
0.129321
0.123023
0.115368
0.105993
0.0944172
0.0810881
0.0675653
0.0546962
0.0419334
0.0313073
0.0288824
0.166142
0.149933
0.127285
0.0982564
0.0660097
0.0344615
0.00635249
-0.0195385
-0.0431221
-0.0690004
-0.0952785
-0.126669
-0.159118
-0.189624
-0.214292
-0.230621
-0.23869
-0.240663
-0.240111
0.174454
0.162617
0.140938
0.111097
0.0755333
0.0375168
0.000537598
-0.0367935
-0.0717714
-0.110874
-0.150555
-0.191116
-0.230201
-0.26457
-0.291008
-0.308354
-0.317837
-0.321983
-0.323473
0.170805
0.160206
0.139808
0.110023
0.0724541
0.0296453
-0.0142082
-0.0620646
-0.110028
-0.15878
-0.207814
-0.25597
-0.30051
-0.338204
-0.366605
-0.385416
-0.396374
-0.402046
-0.404859
0.161805
0.15142
0.132782
0.103773
0.0638916
0.0164527
-0.0351846
-0.0899987
-0.146682
-0.204347
-0.262019
-0.317702
-0.367823
-0.408887
-0.438991
-0.458683
-0.470427
-0.477046
-0.480794
0.149852
0.140364
0.123253
0.0946637
0.0533027
0.00269083
-0.0542018
-0.115452
-0.179856
-0.246074
-0.311773
-0.373718
-0.427725
-0.470517
-0.501143
-0.521123
-0.533494
-0.54103
-0.545588
0.13363
0.124676
0.108967
0.0814062
0.0399245
-0.0124611
-0.0729833
-0.139892
-0.21115
-0.284431
-0.356278
-0.422458
-0.478632
-0.522216
-0.55329
-0.574063
-0.587805
-0.597022
-0.60315
0.11349
0.10375
0.0885078
0.0619294
0.0209791
-0.0321928
-0.0950683
-0.16577
-0.241553
-0.319037
-0.393789
-0.460875
-0.516176
-0.558053
-0.587576
-0.607462
-0.621067
-0.630502
-0.636865
0.0904612
0.0788925
0.0628454
0.036326
-0.00426221
-0.0575417
-0.121291
-0.193437
-0.270815
-0.34927
-0.423623
-0.488691
-0.54102
-0.580049
-0.607622
-0.62662
-0.640165
-0.649842
-0.656519
0.0654297
0.0516206
0.0338405
0.00632863
-0.0344061
-0.0873878
-0.150693
-0.22221
-0.298503
-0.374851
-0.445652
-0.505986
-0.553377
-0.588269
-0.612989
-0.630351
-0.643152
-0.652525
-0.659045
0.0392329
0.0232428
0.0033518
-0.0257836
-0.0670915
-0.119595
-0.181585
-0.251016
-0.324287
-0.396344
-0.461576
-0.515759
-0.557516
-0.588108
-0.610081
-0.626031
-0.638368
-0.647889
-0.654843
0.0128003
-0.00507303
-0.027046
-0.0579756
-0.100098
-0.152125
-0.212352
-0.278663
-0.347221
-0.412803
-0.470232
-0.51638
-0.551018
-0.576003
-0.593882
-0.606941
-0.617151
-0.625106
-0.630882
-0.0127881
-0.0320903
-0.0557993
-0.0882386
-0.131032
-0.182418
-0.240481
-0.302876
-0.365564
-0.423514
-0.472467
-0.510589
-0.538597
-0.558605
-0.572918
-0.583409
-0.591578
-0.597937
-0.602472
-0.0365258
-0.0567287
-0.0816393
-0.114986
-0.157937
-0.208262
-0.263757
-0.321825
-0.378371
-0.428868
-0.470158
-0.501543
-0.524331
-0.540624
-0.5524
-0.561168
-0.568083
-0.573661
-0.577739
-0.0576931
-0.0783086
-0.103879
-0.137483
-0.179983
-0.228725
-0.281171
-0.334429
-0.384475
-0.427528
-0.461618
-0.486988
-0.505255
-0.518341
-0.527866
-0.535006
-0.540629
-0.545222
-0.54855
-0.0758471
-0.0964612
-0.122197
-0.155466
-0.196921
-0.243538
-0.292469
-0.340618
-0.384267
-0.420578
-0.448672
-0.469426
-0.484502
-0.495522
-0.503737
-0.510029
-0.515038
-0.519196
-0.522225
-0.0908999
-0.111201
-0.136704
-0.169182
-0.209148
-0.253279
-0.298516
-0.341706
-0.379623
-0.410364
-0.433881
-0.451381
-0.464403
-0.474265
-0.481914
-0.488007
-0.49304
-0.497359
-0.500611
-0.1031
-0.122892
-0.147903
-0.179332
-0.217566
-0.258987
-0.300352
-0.338591
-0.371141
-0.397021
-0.416802
-0.431799
-0.443323
-0.452377
-0.459641
-0.465589
-0.470602
-0.474921
-0.478178
-0.112818
-0.131992
-0.156357
-0.186629
-0.223068
-0.261769
-0.299377
-0.333059
-0.360993
-0.382983
-0.399981
-0.413249
-0.423838
-0.432468
-0.439602
-0.445555
-0.450622
-0.454957
-0.458218
-0.120527
-0.139033
-0.162697
-0.191848
-0.226636
-0.262911
-0.297259
-0.327143
-0.351411
-0.370438
-0.385375
-0.397379
-0.407273
-0.415563
-0.422552
-0.428446
-0.433483
-0.437762
-0.440976
-0.126751
-0.144587
-0.167591
-0.195753
-0.229071
-0.263126
-0.294499
-0.321035
-0.342221
-0.35885
-0.372134
-0.383072
-0.392284
-0.400109
-0.406739
-0.412313
-0.417029
-0.420965
-0.42388
-0.131908
-0.149111
-0.171582
-0.198949
-0.23102
-0.263146
-0.291982
-0.315794
-0.334578
-0.349367
-0.361341
-0.371351
-0.379868
-0.387129
-0.393258
-0.398356
-0.402595
-0.406056
-0.40858
-0.136375
-0.153053
-0.175204