/*--------------------------------*- C++ -*----------------------------------*\
| =========                 |                                                 |
| \\      /  F ield         | OpenFOAM: The Open Source CFD Toolbox           |
|  \\    /   O peration     | Version:  2312                                  |
|   \\  /    A nd           | Website:  www.openfoam.com                      |
|    \\/     M anipulation  |                                                 |
\*---------------------------------------------------------------------------*/
FoamFile
{
    version     2.0;
    format      ascii;
    arch        "LSB;label=32;scalar=64";
    class       volVectorField;
    location    "22.859804621527068";
    object      U;
}
// * * * * * * * * * * * * * * * * * * * * * * * * * * * * * * * * * * * * * //

dimensions      [0 1 -1 0 0 0 0];

internalField   nonuniform List<vector> 
21039
(
(0.913756 0.0474178 0)
(1.02607 0.0664788 0)
(1.00449 0.0294953 0)
(1.00177 0.0188885 0)
(1.00121 0.0138788 0)
(1.0008 0.0104974 0)
(1.00055 0.00816949 0)
(1.0004 0.00652554 0)
(1.00031 0.00531459 0)
(1.00024 0.00439273 0)
(1.00019 0.00367449 0)
(1.00015 0.00310486 0)
(1.00012 0.00264684 0)
(1.0001 0.00227485 0)
(1.00008 0.00197077 0)
(1.00006 0.00172148 0)
(1.00005 0.00151727 0)
(1.00004 0.00135085 0)
(1.00003 0.00121656 0)
(1.00002 0.00110983 0)
(1.00002 0.00102681 0)
(1.00001 0.000965433 0)
(1.00001 0.000927164 0)
(1.00001 0.000893641 0)
(1.00001 0.000868866 0)
(1.00001 0.000849561 0)
(1.00001 0.00083143 0)
(1.00001 0.000804849 0)
(1.00001 0.00074907 0)
(0.794545 0.0730358 0)
(1.07453 0.12167 0)
(1.03989 0.0708455 0)
(1.01811 0.0496879 0)
(1.01129 0.0382703 0)
(1.00764 0.0294871 0)
(1.00539 0.0231876 0)
(1.00396 0.0186107 0)
(1.003 0.0151555 0)
(1.00233 0.0124806 0)
(1.00185 0.0103694 0)
(1.00148 0.00867514 0)
(1.00121 0.00729712 0)
(1.00099 0.00616487 0)
(1.00081 0.00522806 0)
(1.00067 0.00445012 0)
(1.00055 0.00380402 0)
(1.00045 0.0032695 0)
(1.00036 0.00283114 0)
(1.00028 0.00247688 0)
(1.00022 0.00219674 0)
(1.00016 0.00198425 0)
(1.00011 0.00184287 0)
(1.00008 0.00174153 0)
(1.00007 0.00168325 0)
(1.00007 0.00165032 0)
(1.00007 0.00162878 0)
(1.00008 0.00160009 0)
(1.00009 0.00153625 0)
(0.66734 0.0572631 0)
(1.08306 0.124794 0)
(1.08437 0.0902972 0)
(1.04629 0.067656 0)
(1.02907 0.0541425 0)
(1.02025 0.0431838 0)
(1.01469 0.0348805 0)
(1.01099 0.0285048 0)
(1.00843 0.023483 0)
(1.00661 0.0194834 0)
(1.00528 0.0162604 0)
(1.00427 0.0136315 0)
(1.0035 0.0114653 0)
(1.00289 0.00966641 0)
(1.00239 0.00816474 0)
(1.00199 0.00690822 0)
(1.00165 0.00585784 0)
(1.00135 0.00498412 0)
(1.0011 0.00426454 0)
(1.00088 0.00368173 0)
(1.00068 0.00322144 0)
(1.0005 0.00287323 0)
(1.00035 0.00264202 0)
(1.00024 0.00249025 0)
(1.00018 0.00241352 0)
(1.00015 0.00237792 0)
(1.00015 0.0023603 0)
(1.00016 0.0023369 0)
(1.00017 0.00227711 0)
(0.541071 0.0352543 0)
(1.05079 0.110816 0)
(1.11591 0.0970195 0)
(1.07611 0.0762726 0)
(1.04923 0.0621196 0)
(1.03525 0.0510194 0)
(1.0264 0.0423564 0)
(1.02023 0.0353441 0)
(1.0158 0.0295785 0)
(1.01256 0.0248342 0)
(1.01013 0.0209068 0)
(1.00828 0.0176323 0)
(1.00683 0.0148862 0)
(1.00567 0.012573 0)
(1.00473 0.0106196 0)
(1.00395 0.00896973 0)
(1.00329 0.00758029 0)
(1.00272 0.00641812 0)
(1.00222 0.00545761 0)
(1.00177 0.00467897 0)
(1.00137 0.00406617 0)
(1.00101 0.00360632 0)
(1.00069 0.00330548 0)
(1.00045 0.0031215 0)
(1.00031 0.00303935 0)
(1.00023 0.00301051 0)
(1.0002 0.00300418 0)
(1.0002 0.00299241 0)
(1.0002 0.00294038 0)
(0.444263 0.0186556 0)
(0.997755 0.0918565 0)
(1.12898 0.0956526 0)
(1.1014 0.0794743 0)
(1.06819 0.065442 0)
(1.04971 0.0547801 0)
(1.0382 0.046415 0)
(1.02998 0.0394051 0)
(1.02388 0.0334605 0)
(1.01929 0.0284319 0)
(1.01577 0.0241608 0)
(1.01302 0.020519 0)
(1.01084 0.0174064 0)
(1.00907 0.0147423 0)
(1.00761 0.0124625 0)
(1.00639 0.010516 0)
(1.00534 0.00886259 0)
(1.00443 0.0074708 0)
(1.00362 0.00631602 0)
(1.0029 0.00537909 0)
(1.00224 0.00464469 0)
(1.00163 0.00409949 0)
(1.00109 0.00375121 0)
(1.00068 0.00355418 0)
(1.00041 0.0034814 0)
(1.00026 0.00347159 0)
(1.00019 0.00348753 0)
(1.00018 0.00349721 0)
(1.00017 0.00345924 0)
(0.378744 0.00808849 0)
(0.939713 0.071817 0)
(1.12692 0.0882772 0)
(1.12075 0.0786184 0)
(1.08542 0.0658866 0)
(1.06296 0.0559233 0)
(1.04918 0.0480849 0)
(1.03935 0.0413696 0)
(1.03192 0.0355432 0)
(1.02618 0.0305016 0)
(1.02169 0.0261244 0)
(1.01812 0.0223173 0)
(1.01523 0.0190055 0)
(1.01285 0.0161265 0)
(1.01086 0.0136295 0)
(1.00917 0.0114733 0)
(1.0077 0.00962506 0)
(1.00641 0.00805854 0)
(1.00525 0.0067532 0)
(1.00419 0.00569314 0)
(1.00322 0.00486588 0)
(1.00233 0.00425974 0)
(1.00151 0.00388522 0)
(1.00088 0.00369391 0)
(1.00047 0.00364607 0)
(1.00022 0.00366879 0)
(1.00011 0.00371923 0)
(1.00007 0.00376129 0)
(1.00004 0.00374521 0)
(0.333578 0.00231665 0)
(0.883452 0.0537878 0)
(1.11395 0.0777845 0)
(1.13375 0.0747539 0)
(1.10075 0.0642291 0)
(1.07516 0.0551831 0)
(1.0593 0.047999 0)
(1.04815 0.0417492 0)
(1.03964 0.0362107 0)
(1.03297 0.0313122 0)
(1.02765 0.026973 0)
(1.02335 0.0231306 0)
(1.01981 0.0197331 0)
(1.01686 0.0167362 0)
(1.01435 0.014103 0)
(1.01218 0.0118039 0)
(1.01028 0.00981473 0)
(1.00858 0.00811669 0)
(1.00704 0.00669522 0)
(1.00562 0.00553948 0)
(1.00431 0.00464163 0)
(1.00307 0.00399342 0)
(1.00194 0.00360933 0)
(1.00105 0.00343901 0)
(1.00046 0.00342945 0)
(1.00009 0.00349688 0)
(0.999911 0.00359334 0)
(0.999834 0.00367862 0)
(0.999769 0.00369296 0)
(0.301352 -0.000213625 0)
(0.831805 0.0394848 0)
(1.09377 0.0668075 0)
(1.1404 0.0692308 0)
(1.11368 0.0612308 0)
(1.0863 0.0531795 0)
(1.0686 0.0466512 0)
(1.05634 0.0409253 0)
(1.04697 0.0357571 0)
(1.03953 0.031088 0)
(1.03352 0.0268714 0)
(1.02859 0.0230726 0)
(1.02447 0.0196606 0)
(1.02099 0.0166079 0)
(1.01799 0.0138917 0)
(1.01537 0.0114935 0)
(1.01303 0.00939903 0)
(1.01091 0.0075974 0)
(1.00897 0.00608123 0)
(1.00716 0.00484598 0)
(1.00546 0.00388971 0)
(1.00385 0.00320913 0)
(1.00235 0.002824 0)
(1.00116 0.00268316 0)
(1.00035 0.00272047 0)
(0.999844 0.00284166 0)
(0.999573 0.00299408 0)
(0.999436 0.00313309 0)
(0.999319 0.00318724 0)
(0.278478 -0.00101066 0)
(0.786293 0.0289466 0)
(1.06966 0.0567087 0)
(1.14156 0.0630898 0)
(1.12392 0.0575597 0)
(1.09629 0.0504863 0)
(1.0771 0.044515 0)
(1.06391 0.0392604 0)
(1.05386 0.0344575 0)
(1.04581 0.0300387 0)
(1.03923 0.0259773 0)
(1.03377 0.0222583 0)
(1.02915 0.0188672 0)
(1.0252 0.015791 0)
(1.02174 0.0130192 0)
(1.01868 0.0105442 0)
(1.01591 0.00836086 0)
(1.01338 0.00646676 0)
(1.01102 0.00486213 0)
(1.0088 0.00354953 0)
(1.00667 0.00253403 0)
(1.00464 0.00181866 0)
(1.00273 0.00142972 0)
(1.0012 0.00131724 0)
(1.00013 0.00140263 0)
(0.999455 0.00158147 0)
(0.999064 0.0017958 0)
(0.99884 0.0019969 0)
(0.998648 0.00210091 0)
(0.262172 -0.00105812 0)
(0.747313 0.0214672 0)
(1.04418 0.0479087 0)
(1.13856 0.0568959 0)
(1.13164 0.0536006 0)
(1.10517 0.0474688 0)
(1.0849 0.0419434 0)
(1.0709 0.0370582 0)
(1.06031 0.0325599 0)
(1.0518 0.0283618 0)
(1.04477 0.0244446 0)
(1.03887 0.0208047 0)
(1.03382 0.0174385 0)
(1.02944 0.014344 0)
(1.02558 0.0115206 0)
(1.0221 0.00896991 0)
(1.01892 0.00669528 0)
(1.01597 0.00470237 0)
(1.01319 0.0029993 0)
(1.01053 0.0015963 0)
(1.00796 0.000505941 0)
(1.00548 -0.000262258 0)
(1.00311 -0.00067303 0)
(1.00118 -0.000770704 0)
(0.99981 -0.000645156 0)
(0.998915 -0.000417064 0)
(0.99837 -0.000145656 0)
(0.998027 0.000125046 0)
(0.997726 0.000299675 0)
(0.25012 -0.000843247 0)
(0.714377 0.0162594 0)
(1.01898 0.0404343 0)
(1.13266 0.0509376 0)
(1.13718 0.0495409 0)
(1.11308 0.0443013 0)
(1.09215 0.039139 0)
(1.07745 0.0345222 0)
(1.06642 0.0302501 0)
(1.05754 0.0262189 0)
(1.05015 0.0224086 0)
(1.04389 0.018821 0)
(1.03849 0.0154596 0)
(1.03375 0.0123296 0)
(1.02951 0.00943813 0)
(1.02565 0.00679383 0)
(1.02208 0.00440761 0)
(1.01872 0.00229261 0)
(1.01551 0.000463897 0)
(1.0124 -0.00106188 0)
(1.00936 -0.00226355 0)
(1.00638 -0.00312159 0)
(1.00351 -0.00359079 0)
(1.00113 -0.00370781 0)
(0.999407 -0.00356699 0)
(0.998247 -0.00329895 0)
(0.997501 -0.00297044 0)
(0.996994 -0.00264717 0)
(0.996545 -0.00244138 0)
(0.240803 -0.000589409 0)
(0.686654 0.0126391 0)
(0.994972 0.0341677 0)
(1.12485 0.0453664 0)
(1.14087 0.0454908 0)
(1.12013 0.0410715 0)
(1.09901 0.0362135 0)
(1.08371 0.0317794 0)
(1.07229 0.0276557 0)
(1.06311 0.02373 0)
(1.05545 0.0199776 0)
(1.0489 0.0164015 0)
(1.0432 0.0130092 0)
(1.03814 0.00981077 0)
(1.03357 0.00681846 0)
(1.02937 0.00404676 0)
(1.02543 0.00151263 0)
(1.02167 -0.000766134 0)
(1.01804 -0.00276806 0)
(1.01448 -0.00446749 0)
(1.01094 -0.00583453 0)
(1.00743 -0.00683985 0)
(1.004 -0.00742702 0)
(1.00111 -0.00761953 0)
(0.99898 -0.0075083 0)
(0.997492 -0.0072304 0)
(0.996478 -0.00686386 0)
(0.995738 -0.00648778 0)
(0.995082 -0.00624192 0)
(0.233352 -0.000386695 0)
(0.663313 0.0100701 0)
(0.972647 0.0289341 0)
(1.1159 0.040248 0)
(1.14307 0.0415263 0)
(1.12641 0.0378367 0)
(1.10556 0.0332383 0)
(1.08979 0.0289165 0)
(1.07802 0.024869 0)
(1.06861 0.0209873 0)
(1.06072 0.0172397 0)
(1.05394 0.0136276 0)
(1.048 0.01016 0)
(1.04268 0.00684973 0)
(1.03782 0.00371255 0)
(1.03331 0.000766353 0)
(1.02903 -0.00196892 0)
(1.0249 -0.00446963 0)
(1.02085 -0.00670682 0)
(1.01683 -0.00864739 0)
(1.01279 -0.0102539 0)
(1.00872 -0.011488 0)
(1.00469 -0.0122818 0)
(1.00124 -0.0126392 0)
(0.99863 -0.0126367 0)
(0.996737 -0.0124153 0)
(0.995369 -0.0120613 0)
(0.994307 -0.0116653 0)
(0.993355 -0.0113918 0)
(0.227258 -0.000252709 0)
(0.643625 0.00817951 0)
(0.952225 0.0245533 0)
(1.10641 0.0355907 0)
(1.14408 0.0376973 0)
(1.13203 0.034639 0)
(1.11188 0.0302648 0)
(1.09579 0.0259999 0)
(1.08373 0.0219658 0)
(1.07412 0.0180699 0)
(1.06607 0.0142742 0)
(1.05911 0.0105763 0)
(1.05298 0.00698464 0)
(1.04745 0.00351279 0)
(1.04235 0.000177121 0)
(1.03757 -0.00300331 0)
(1.03299 -0.00600477 0)
(1.02851 -0.00879789 0)
(1.02407 -0.0113479 0)
(1.0196 -0.0136152 0)
(1.01504 -0.015556 0)
(1.01039 -0.0171249 0)
(1.00574 -0.0182454 0)
(1.00169 -0.0188978 0)
(0.998541 -0.0191292 0)
(0.996162 -0.0190758 0)
(0.994336 -0.0188253 0)
(0.992834 -0.0184794 0)
(0.99147 -0.0182234 0)
(0.222198 -0.000177744 0)
(0.62698 0.00673621 0)
(0.933759 0.0208927 0)
(1.09678 0.0314025 0)
(1.14416 0.0340506 0)
(1.13702 0.0315112 0)
(1.11797 0.0273255 0)
(1.10173 0.023075 0)
(1.08943 0.0190026 0)
(1.07966 0.0150411 0)
(1.07149 0.011148 0)
(1.06442 0.00731589 0)
(1.05814 0.00355083 0)
(1.05245 -0.000135545 0)
(1.04717 -0.00372804 0)
(1.04217 -0.00720649 0)
(1.03733 -0.010544 0)
(1.03254 -0.0137074 0)
(1.02773 -0.016657 0)
(1.02282 -0.0193474 0)
(1.01776 -0.0217288 0)
(1.01254 -0.0237517 0)
(1.00727 -0.0253376 0)
(1.00263 -0.0264531 0)
(0.998965 -0.0271066 0)
(0.996076 -0.0274159 0)
(0.993712 -0.0274502 0)
(0.991646 -0.027304 0)
(0.989727 -0.0271622 0)
(0.2183 -0.000129323 0)
(0.613885 0.00568919 0)
(0.918431 0.0180392 0)
(1.0881 0.0279278 0)
(1.14373 0.0308829 0)
(1.14125 0.0287374 0)
(1.12353 0.024701 0)
(1.10729 0.0204397 0)
(1.09482 0.0163 0)
(1.08496 0.0122434 0)
(1.07672 0.00822424 0)
(1.06959 0.00422917 0)
(1.06324 0.000259583 0)
(1.05747 -0.00367673 0)
(1.05208 -0.00756687 0)
(1.04694 -0.0113911 0)
(1.04191 -0.0151225 0)
(1.03689 -0.0187264 0)
(1.03178 -0.0221601 0)
(1.0265 -0.0253716 0)
(1.021 -0.0283026 0)
(1.01526 -0.0308953 0)
(1.00943 -0.0330655 0)
(1.00431 -0.0347711 0)
(1.00024 -0.0360047 0)
(0.996936 -0.0368868 0)
(0.994061 -0.0374568 0)
(0.991337 -0.0377542 0)
(0.988656 -0.0379003 0)
(0.215485 -0.000100277 0)
(0.604373 0.0049716 0)
(0.90682 0.0159791 0)
(1.08111 0.0252981 0)
(1.1431 0.0284087 0)
(1.14456 0.02654 0)
(1.12811 0.0226102 0)
(1.112 0.0183268 0)
(1.09944 0.0141169 0)
(1.08953 0.00996526 0)
(1.08127 0.00582291 0)
(1.07413 0.00166948 0)
(1.06779 -0.00249863 0)
(1.06199 -0.00667826 0)
(1.05657 -0.0108603 0)
(1.05137 -0.0150282 0)
(1.04625 -0.0191583 0)
(1.0411 -0.0232187 0)
(1.0358 -0.0271668 0)
(1.03026 -0.0309473 0)
(1.02442 -0.034493 0)
(1.01828 -0.0377326 0)
(1.01201 -0.0405552 0)
(1.00653 -0.0428808 0)
(1.00224 -0.0447027 0)
(0.998796 -0.0462236 0)
(0.995748 -0.0475633 0)
(0.992698 -0.0487464 0)
(0.989518 -0.0496244 0)
(0.213337 -5.46137e-05 0)
(0.597145 0.0044804 0)
(0.897725 0.0144762 0)
(1.07534 0.0232965 0)
(1.14236 0.0264784 0)
(1.14716 0.0248124 0)
(1.13193 0.0209696 0)
(1.11598 0.0166724 0)
(1.10338 0.0124065 0)
(1.09344 0.00817514 0)
(1.0852 0.00392628 0)
(1.07809 -0.000365999 0)
(1.07177 -0.00471064 0)
(1.06601 -0.00910904 0)
(1.0606 -0.0135567 0)
(1.0554 -0.018043 0)
(1.05026 -0.0225506 0)
(1.04505 -0.0270536 0)
(1.03966 -0.0315145 0)
(1.03396 -0.0358799 0)
(1.02789 -0.0400794 0)
(1.02144 -0.0440308 0)
(1.0148 -0.0475816 0)
(1.00899 -0.0505352 0)
(1.00452 -0.0528024 0)
(1.00111 -0.0546549 0)
(0.998372 -0.0564532 0)
(0.99599 -0.058567 0)
(0.99337 -0.0604533 0)
(0.212022 -6.18045e-05 0)
(0.592259 0.0040995 0)
(0.891338 0.0133992 0)
(1.07122 0.0218663 0)
(1.1419 0.0250733 0)
(1.14923 0.0235062 0)
(1.13498 0.0196903 0)
(1.11922 0.0153719 0)
(1.10662 0.0110656 0)
(1.0967 0.00677377 0)
(1.0885 0.00243757 0)
(1.08145 -0.0019724 0)
(1.07519 -0.00646873 0)
(1.06949 -0.0110575 0)
(1.06415 -0.01574 0)
(1.059 -0.0205127 0)
(1.0539 -0.0253668 0)
(1.04872 -0.0302855 0)
(1.04333 -0.0352407 0)
(1.0376 -0.0401885 0)
(1.03146 -0.0450661 0)
(1.02489 -0.0498022 0)
(1.0181 -0.0542346 0)
(1.01216 -0.0580197 0)
(1.00758 -0.0608514 0)
(1.00417 -0.0627879 0)
(1.00165 -0.0638666 0)
(0.999989 -0.0647898 0)
(1.00007 -0.0693762 0)
(1.00002 0.000757747 0)
(1.00001 0.000759269 0)
(1.00001 0.000756123 0)
(1.00001 0.000753961 1.30459e-21)
(1.00001 0.000753825 6.51241e-21)
(1.00001 0.00075554 -1.1723e-20)
(1.00001 0.000758938 6.51318e-21)
(1.00001 0.000763914 -5.19599e-21)
(1 0.000770312 6.60566e-22)
(1 0.000778145 5.19712e-21)
(1 0.000787249 0)
(1 0.000797602 -5.82284e-21)
(0.999998 0.000809096 6.58035e-22)
(0.999997 0.000821601 5.17364e-21)
(0.999996 0.000835096 0)
(0.999995 0.00084942 0)
(0.999993 0.000864524 -5.14033e-21)
(0.999992 0.000880284 5.14357e-21)
(0.999991 0.00089654 0)
(0.99999 0.000913279 -2.557e-21)
(0.999989 0.000930333 2.71784e-21)
(0.999988 0.000947583 2.38757e-21)
(0.999987 0.00096497 -3.81857e-21)
(0.999986 0.00098233 1.2314e-21)
(0.999986 0.000999565 3.95327e-23)
(0.999985 0.0010166 -7.90312e-23)
(0.999985 0.00103327 1.1012e-21)
(0.999984 0.00104949 -1.25866e-21)
(0.999984 0.00106524 0)
(0.999984 0.00108025 0)
(0.999984 0.00109445 -3.11573e-22)
(0.999984 0.00110788 -3.1057e-22)
(0.999984 0.00112042 -5.2547e-21)
(0.999984 0.00113203 4.32459e-21)
(0.999984 0.0011426 -5.52607e-21)
(0.999985 0.00115208 5.51963e-21)
(0.999985 0.00116045 -4.26554e-21)
(0.999986 0.00116758 4.26317e-21)
(0.999987 0.00117348 6.05834e-22)
(0.999988 0.00117805 6.03528e-22)
(0.999989 0.00118128 -6.01176e-22)
(0.99999 0.00118313 0)
(0.999991 0.0011835 0)
(0.999992 0.00118245 0)
(0.999994 0.00117987 0)
(0.999996 0.00117597 0)
(0.999997 0.00117052 2.34402e-21)
(0.999999 0.0011628 -2.34004e-21)
(1 0.00114897 0)
(1.00008 0.00154586 0)
(1.00007 0.00154886 2.62835e-21)
(1.00005 0.00154925 -2.62225e-21)
(1.00004 0.00155359 -1.30983e-21)
(1.00002 0.001563 -1.31034e-21)
(1.00001 0.00157688 -3.92262e-21)
(0.999995 0.00159495 6.54776e-21)
(0.999982 0.00161719 0)
(0.99997 0.00164307 -6.5273e-22)
(0.999957 0.00167271 -1.30488e-21)
(0.999946 0.00170565 0)
(0.999935 0.00174175 6.50511e-22)
(0.999924 0.00178088 -5.84212e-21)
(0.999915 0.00182254 5.19704e-21)
(0.999906 0.00186675 0)
(0.999897 0.00191309 1.29495e-21)
(0.999889 0.00196132 0)
(0.999882 0.00201132 0)
(0.999876 0.00206259 0)
(0.99987 0.00211501 -2.56773e-21)
(0.999866 0.00216834 2.40836e-21)
(0.999862 0.00222217 -1.60285e-22)
(0.999858 0.00227634 0)
(0.999856 0.00233055 -5.96737e-22)
(0.999854 0.0023845 6.26697e-22)
(0.999854 0.00243795 1.18974e-22)
(0.999854 0.00249065 1.58142e-22)
(0.999855 0.0025423 0)
(0.999856 0.00259268 -2.51395e-21)
(0.999859 0.00264153 2.51338e-21)
(0.999862 0.0026886 -4.68589e-21)
(0.999866 0.00273365 1.02921e-20)
(0.999871 0.00277647 -4.67032e-21)
(0.999877 0.00281682 6.19675e-22)
(0.999883 0.00285444 6.17653e-22)
(0.99989 0.00288921 6.16081e-22)
(0.999898 0.00292086 -6.13353e-22)
(0.999907 0.00294918 5.49443e-21)
(0.999916 0.00297409 -4.26907e-21)
(0.999926 0.00299524 -1.82022e-21)
(0.999937 0.00301261 6.64106e-21)
(0.999948 0.00302597 -4.82219e-21)
(0.99996 0.00303508 -2.39838e-21)
(0.999973 0.00303996 4.77005e-21)
(0.999986 0.00304021 -9.515e-21)
(1 0.00303604 4.74365e-21)
(1.00001 0.00302718 2.35534e-21)
(1.00003 0.00301293 -3.73581e-24)
(1.00004 0.00298863 0)
(1.00014 0.00228341 3.95137e-21)
(1.00011 0.00229036 -1.31903e-21)
(1.00006 0.00230027 -5.26183e-21)
(1.00002 0.00231687 2.62589e-21)
(0.999982 0.00234132 -2.62648e-21)
(0.999943 0.00237282 0)
(0.999905 0.00241103 -2.61819e-21)
(0.999869 0.00245609 -7.84597e-21)
(0.999835 0.00250688 7.84947e-21)
(0.999803 0.00256382 1.30456e-21)
(0.999773 0.00262601 0)
(0.999744 0.00269321 -7.81092e-21)
(0.999718 0.00276538 1.08711e-23)
(0.999693 0.00284148 5.2002e-21)
(0.999671 0.0029217 0)
(0.99965 0.0030053 -1.29384e-21)
(0.999632 0.0030918 -1.29422e-21)
(0.999616 0.00318126 0)
(0.999602 0.00327259 -1.28959e-21)
(0.99959 0.0033657 -2.56832e-21)
(0.99958 0.00346031 2.56909e-21)
(0.999573 0.00355558 -3.21049e-22)
(0.999568 0.00365134 -3.19764e-22)
(0.999565 0.00374718 0)
(0.999564 0.00384247 4.96177e-23)
(0.999566 0.00393688 -2.77653e-22)
(0.99957 0.0040301 0)
(0.999576 0.00412149 0)
(0.999584 0.00421074 -2.51332e-21)
(0.999595 0.00429751 2.51283e-21)
(0.999607 0.00438129 -4.99704e-21)
(0.999622 0.00446171 4.99537e-21)
(0.999639 0.00453846 0)
(0.999658 0.00461107 0)
(0.999679 0.0046792 0)
(0.999701 0.00474258 -1.23033e-21)
(0.999726 0.00480073 -2.45389e-21)
(0.999753 0.00485338 0)
(0.999781 0.00490029 -1.21715e-21)
(0.999812 0.00494092 -1.20552e-21)
(0.999844 0.00497522 3.63177e-21)
(0.999878 0.00500273 0)
(0.999914 0.00502311 4.78837e-21)
(0.999951 0.00503634 -7.16934e-21)
(0.99999 0.00504169 0)
(1.00003 0.00503943 0)
(1.00007 0.0050289 0)
(1.00012 0.0050094 -2.34894e-21)
(1.00016 0.0049774 -2.33719e-21)
(1.00016 0.00294615 -2.63886e-21)
(1.00009 0.00296357 5.28267e-21)
(1.00001 0.00299059 5.27598e-21)
(0.999927 0.00302674 7.89638e-21)
(0.999849 0.00307352 -2.63726e-21)
(0.999774 0.00313004 -5.24968e-21)
(0.999702 0.0031959 1.05001e-20)
(0.999634 0.00327149 -3.72443e-24)
(0.999569 0.00335494 -2.6164e-21)
(0.999508 0.00344709 2.61963e-21)
(0.999451 0.0035465 0)
(0.999398 0.00365286 2.60627e-21)
(0.999348 0.00376626 -2.59539e-21)
(0.999303 0.00388494 1.04067e-20)
(0.999262 0.00400942 -1.03898e-20)
(0.999225 0.00413851 7.78974e-21)
(0.999192 0.0042715 -1.30047e-21)
(0.999164 0.00440871 1.29425e-21)
(0.99914 0.00454831 1.2882e-21)
(0.99912 0.00469027 -1.28935e-21)
(0.999105 0.00483432 0)
(0.999094 0.00497908 -1.92021e-21)
(0.999088 0.00512439 1.60293e-21)
(0.999086 0.00526977 1.27741e-21)
(0.999088 0.00541414 5.96356e-23)
(0.999095 0.00555717 1.18792e-22)
(0.999106 0.00569843 1.89831e-21)
(0.999121 0.00583693 -1.26424e-21)
(0.999141 0.00597227 2.51443e-21)
(0.999165 0.00610405 -2.51401e-21)
(0.999194 0.00623141 0)
(0.999226 0.00635394 6.23166e-21)
(0.999262 0.00647118 -4.98102e-21)
(0.999303 0.0065824 4.94967e-21)
(0.999347 0.00668723 -4.94783e-21)
(0.999395 0.00678523 0)
(0.999447 0.00687568 4.89488e-21)
(0.999503 0.00695828 -2.44975e-21)
(0.999562 0.00703265 0)
(0.999625 0.00709804 4.84523e-21)
(0.999692 0.00715441 -4.839e-21)
(0.999762 0.00720103 2.40658e-21)
(0.999835 0.0072375 2.39686e-21)
(0.999912 0.00726378 7.15967e-21)
(0.999991 0.00727881 6.56171e-24)
(1.00007 0.00728298 4.74123e-21)
(1.00016 0.0072752 2.35354e-21)
(1.00025 0.00725473 2.34171e-21)
(1.00035 0.0072196 2.33827e-21)
(1.00009 0.00346979 0)
(0.999979 0.00350655 -5.28842e-21)
(0.999853 0.00356045 -5.27966e-21)
(0.999724 0.00362583 0)
(0.999598 0.00370474 -5.27213e-21)
(0.999476 0.00379616 9.44279e-24)
(0.999359 0.00389966 1.05484e-20)
(0.999248 0.00401602 -2.64087e-21)
(0.999144 0.00414239 -9.79505e-24)
(0.999045 0.00428025 -7.87054e-21)
(0.998953 0.00442745 0)
(0.998867 0.00458365 -7.85047e-21)
(0.998789 0.00474914 2.62177e-21)
(0.998717 0.00492129 0)
(0.998651 0.00510104 -2.61005e-21)
(0.998593 0.00528667 1.01614e-23)
(0.998542 0.00547721 -2.59415e-21)
(0.998499 0.00567337 9.06778e-21)
(0.998462 0.00587233 -1.19559e-23)
(0.998433 0.00607424 -1.30129e-21)
(0.998411 0.00627885 -1.28747e-21)
(0.998396 0.0064841 2.56534e-21)
(0.998389 0.00668994 -2.5657e-21)
(0.998389 0.00689575 -3.18035e-22)
(0.998396 0.00709998 6.58121e-22)
(0.998411 0.00730225 -3.56159e-22)
(0.998433 0.00750211 1.26788e-21)
(0.998462 0.00769806 -1.26596e-21)
(0.998498 0.00788968 1.26257e-21)
(0.998542 0.0080765 2.50962e-21)
(0.998592 0.00825726 -7.51169e-21)
(0.998649 0.00843151 -1.23225e-21)
(0.998713 0.00859866 7.47718e-21)
(0.998784 0.00875766 2.48296e-21)
(0.998861 0.00890816 -4.93552e-21)
(0.998944 0.00904951 4.93253e-21)
(0.999034 0.00918076 8.27104e-24)
(0.99913 0.00930161 7.33465e-21)
(0.999233 0.00941148 -4.88761e-21)
(0.999341 0.00950946 -1.21364e-20)
(0.999455 0.00959553 4.83304e-21)
(0.999574 0.00966868 2.40731e-21)
(0.999699 0.00972849 9.57805e-21)
(0.99983 0.00977489 -4.77854e-21)
(0.999966 0.00980654 -8.22731e-24)
(1.00011 0.00982397 -8.8899e-24)
(1.00026 0.00982565 0)
(1.00041 0.00981097 -4.69343e-21)
(1.00058 0.00978013 -4.66727e-21)
(0.999922 0.00376717 0)
(0.999756 0.00383427 -7.98493e-21)
(0.999571 0.00392688 7.97585e-21)
(0.999382 0.00403334 0)
(0.999195 0.00415643 0)
(0.999014 0.00429502 -5.28909e-21)
(0.998841 0.00444867 -2.95543e-24)
(0.998676 0.00461859 -5.29095e-21)
(0.99852 0.00480086 -9.13012e-24)
(0.998374 0.00499772 0)
(0.998237 0.00520617 0)
(0.998111 0.00542588 2.62145e-21)
(0.997995 0.00565739 0)
(0.997889 0.00589699 0)
(0.997793 0.00614624 -2.61422e-21)
(0.997708 0.00640273 5.2372e-21)
(0.997634 0.00666519 2.61205e-21)
(0.997571 0.00693482 0)
(0.997519 0.00720763 2.58064e-21)
(0.997478 0.00748404 -6.48057e-21)
(0.997448 0.00776377 -2.5829e-21)
(0.997429 0.008044 -2.57283e-21)
(0.997422 0.00832482 2.57306e-21)
(0.997425 0.00860545 1.44685e-24)
(0.99744 0.00888377 2.00178e-23)
(0.997466 0.00915942 3.18299e-22)
(0.997503 0.00943185 -6.36272e-22)
(0.99755 0.00969904 0)
(0.997609 0.00996051 -1.26075e-21)
(0.997678 0.0102157 0)
(0.997758 0.010463 0)
(0.997849 0.0107018 -2.50511e-21)
(0.997949 0.0109315 -9.96077e-21)
(0.99806 0.0111505 2.30599e-23)
(0.99818 0.0113587 2.47868e-21)
(0.998311 0.0115551 0)
(0.998451 0.0117385 -2.45244e-21)
(0.9986 0.0119086 -4.896e-21)
(0.998758 0.0120648 4.86691e-21)
(0.998925 0.0122057 9.70379e-21)
(0.999101 0.0123316 -9.66242e-21)
(0.999285 0.0124411 3.1647e-24)
(0.999478 0.0125337 -4.79035e-21)
(0.999679 0.0126094 3.06161e-25)
(0.999888 0.0126666 0)
(1.0001 0.012706 -4.72859e-21)
(1.00033 0.0127255 -2.34899e-21)
(1.00057 0.0127248 2.34724e-21)
(1.00082 0.0127073 4.66814e-21)
(0.999603 0.00373449 0)
(0.999374 0.00384528 5.3354e-21)
(0.999119 0.00399044 -1.60262e-20)
(0.998855 0.0041519 0)
(0.998594 0.00433358 0)
(0.99834 0.00453412 -1.06559e-20)
(0.998096 0.0047531 1.06265e-20)
(0.997864 0.00499227 -5.32529e-21)
(0.997645 0.00524637 -9.26983e-24)
(0.997439 0.00551866 5.30017e-21)
(0.997247 0.0058051 0)
(0.99707 0.00610538 0)
(0.996907 0.00642034 5.28918e-21)
(0.996758 0.00674501 0)
(0.996625 0.00708168 0)
(0.996506 0.00742712 -5.24547e-21)
(0.996404 0.00777977 1.60662e-23)
(0.996317 0.00814136 0)
(0.996245 0.00850653 2.59844e-21)
(0.99619 0.00887604 6.50071e-21)
(0.99615 0.00924959 -2.60392e-21)
(0.996127 0.00962344 0)
(0.99612 0.00999786 -1.28803e-21)
(0.996128 0.0103719 1.60943e-21)
(0.996153 0.0107427 -7.02356e-22)
(0.996194 0.0111101 -3.20575e-22)
(0.99625 0.0114732 6.3362e-22)
(0.996322 0.0118295 -1.27252e-21)
(0.99641 0.0121785 0)
(0.996513 0.0125195 -5.05014e-21)
(0.996631 0.0128504 7.54049e-21)
(0.996765 0.0131705 2.48442e-21)
(0.996913 0.013479 -7.70446e-24)
(0.997075 0.013774 2.48169e-21)
(0.997251 0.0140553 -2.48985e-21)
(0.997442 0.0143218 -4.92574e-21)
(0.997645 0.014572 9.82808e-21)
(0.997862 0.0148055 -4.89981e-21)
(0.998092 0.0150214 9.75939e-21)
(0.998334 0.0152185 7.43023e-24)
(0.998589 0.0153968 9.66342e-21)
(0.998855 0.0155547 -4.80737e-21)
(0.999133 0.0156917 0)
(0.999422 0.015808 6.26744e-25)
(0.999722 0.0159013 9.491e-21)
(1.00003 0.0159728 0)
(1.00036 0.0160198 0)
(1.0007 0.0160424 8.18492e-21)
(1.00106 0.0160487 1.16658e-21)
(0.999089 0.00325862 1.34569e-21)
(0.998784 0.00342858 9.45005e-21)
(0.998444 0.00364153 1.07141e-20)
(0.998092 0.00387366 -1.07761e-20)
(0.99774 0.0041305 0)
(0.997397 0.00441021 -1.21591e-23)
(0.997067 0.00471239 -5.38906e-21)
(0.996752 0.00503938 -5.37658e-21)
(0.996454 0.00538441 1.60403e-20)
(0.996175 0.00575193 -5.33501e-21)
(0.995914 0.00613663 0)
(0.995673 0.00653831 1.06488e-20)
(0.995451 0.00695807 -1.05979e-20)
(0.99525 0.00738952 2.65792e-23)
(0.995069 0.00783581 1.05731e-20)
(0.994909 0.00829274 -2.65251e-21)
(0.994771 0.00875839 -2.59702e-21)
(0.994654 0.00923508 5.25869e-21)
(0.994558 0.00971589 0)
(0.994485 0.010202 -2.6055e-21)
(0.994434 0.010693 2.60769e-21)
(0.994404 0.0111841 2.59626e-21)
(0.994398 0.0116758 -2.59616e-21)
(0.994413 0.0121669 3.24245e-22)
(0.99445 0.0126539 4.01422e-23)
(0.99451 0.0131363 9.6118e-22)
(0.994591 0.0136133 -2.78834e-24)
(0.994695 0.0140818 0)
(0.99482 0.0145409 0)
(0.994966 0.01499 -1.56968e-24)
(0.995133 0.0154262 -2.50893e-21)
(0.995321 0.015849 5.03501e-21)
(0.995529 0.0162571 -5.00701e-21)
(0.995757 0.0166484 4.97487e-21)
(0.996004 0.0170225 -9.94963e-21)
(0.99627 0.0173782 1.88858e-23)
(0.996555 0.0177134 4.9306e-21)
(0.996857 0.018028 4.89063e-21)
(0.997177 0.0183207 -9.77391e-21)
(0.997514 0.01859 -9.71749e-21)
(0.997866 0.0188361 -4.84327e-21)
(0.998235 0.0190571 -4.8188e-21)
(0.998618 0.0192524 0)
(0.999017 0.0194223 -4.76169e-21)
(0.99943 0.0195641 -2.18083e-24)
(0.999858 0.0196794 9.43021e-21)
(1.0003 0.0197647 -1.17226e-20)
(1.00077 0.0198209 2.3261e-21)
(1.00126 0.0198624 0)
(0.998337 0.0022158 0)
(0.99794 0.00246303 -1.08155e-20)
(0.997496 0.00275978 0)
(0.997035 0.00307922 1.0791e-20)
(0.996572 0.0034294 5.40353e-21)
(0.99612 0.00380776 -1.08018e-20)
(0.995684 0.00421383 1.61563e-20)
(0.995267 0.00465046 5.36733e-21)
(0.994873 0.0051091 -5.36326e-21)
(0.994501 0.00559552 0)
(0.994155 0.00610295 5.36188e-21)
(0.993834 0.00663128 -1.07011e-20)
(0.993539 0.00718188 5.37184e-21)
(0.993271 0.00774672 -5.31783e-21)
(0.993031 0.00832995 3.04835e-23)
(0.992818 0.00892621 5.32149e-21)
(0.992635 0.00953317 -1.06137e-20)
(0.99248 0.0101538 0)
(0.992353 0.0107794 5.27095e-21)
(0.992257 0.0114116 -5.27084e-21)
(0.99219 0.0120498 -1.30711e-21)
(0.992154 0.0126881 0)
(0.992147 0.0133272 1.30987e-21)
(0.99217 0.0139653 3.25116e-22)
(0.992224 0.0145984 -6.89525e-22)
(0.992307 0.0152258 9.685e-22)
(0.99242 0.0158464 6.39833e-22)
(0.992563 0.0164562 -1.28386e-21)
(0.992735 0.0170545 0)
(0.992935 0.01764 -2.53831e-21)
(0.993164 0.0182095 5.07785e-21)
(0.993421 0.0187621 0)
(0.993705 0.0192965 2.50515e-21)
(0.994016 0.0198097 0)
(0.994353 0.0203013 4.96761e-21)
(0.994715 0.0207699 -9.9092e-21)
(0.995101 0.021213 4.9188e-21)
(0.995511 0.0216303 -2.1855e-23)
(0.995944 0.0220205 4.85368e-21)
(0.996398 0.0223815 -4.87048e-21)
(0.996873 0.0227139 4.8304e-21)
(0.997369 0.0230152 9.62378e-21)
(0.997884 0.0232848 0)
(0.998418 0.0235232 0)
(0.99897 0.0237273 -9.47453e-21)
(0.999542 0.0238991 -1.88385e-20)
(1.00013 0.0240341 1.87373e-20)
(1.00075 0.0241344 -1.04932e-20)
(1.0014 0.0242227 1.04225e-20)
(0.997298 0.000478005 0)
(0.996781 0.000812924 1.09937e-20)
(0.99622 0.00120426 1.09729e-20)
(0.995627 0.00162897 1.64392e-20)
(0.995029 0.00209316 -1.64246e-20)
(0.994442 0.00259307 -5.44997e-21)
(0.993874 0.00312724 1.6403e-20)
(0.993329 0.00369889 -5.43563e-21)
(0.992813 0.00429769 5.43874e-21)
(0.992326 0.00493101 0)
(0.991872 0.00559034 1.08911e-20)
(0.99145 0.00627571 0)
(0.991062 0.00698862 -5.37248e-21)
(0.990709 0.00771933 -5.41733e-21)
(0.990393 0.00847302 5.33815e-23)
(0.990112 0.00924301 0)
(0.98987 0.0100265 5.36247e-21)
(0.989665 0.010827 1.07073e-20)
(0.989499 0.011634 0)
(0.989372 0.0124497 2.64994e-21)
(0.989285 0.0132727 -2.64906e-21)
(0.989237 0.0140964 -2.63285e-21)
(0.989229 0.0149212 2.64443e-21)
(0.989262 0.0157449 -4.31453e-24)
(0.989334 0.0165627 -6.53529e-22)
(0.989447 0.0173734 -2.87154e-22)
(0.989599 0.0181756 -6.48481e-22)
(0.989791 0.0189648 1.29475e-21)
(0.990022 0.0197393 0)
(0.990291 0.0204979 2.5511e-21)
(0.990599 0.0212365 -5.08652e-21)
(0.990943 0.0219538 0)
(0.991324 0.0226481 0)
(0.99174 0.0233158 5.00499e-21)
(0.99219 0.0239561 -9.98692e-21)
(0.992673 0.0245676 4.98031e-21)
(0.993188 0.025147 4.95287e-21)
(0.993733 0.0256938 0)
(0.994308 0.0262065 1.46697e-20)
(0.994911 0.0266827 -9.72816e-21)
(0.99554 0.0271232 -4.83508e-21)
(0.996195 0.0275247 1.43167e-23)
(0.996874 0.027887 -9.57376e-21)
(0.997576 0.0282105 -9.50927e-21)
(0.998301 0.0284916 -9.45939e-21)
(0.999049 0.028733 8.55032e-24)
(0.999822 0.0289292 -1.42825e-23)
(1.00063 0.0290834 0)
(1.00147 0.0292296 -1.84844e-20)
(0.995966 -0.00218996 0)
(0.995288 -0.00166043 2.85746e-21)
(0.994552 -0.00112919 -1.37567e-20)
(0.993788 -0.000630786 -1.09997e-20)
(0.993022 -4.23407e-05 1.09853e-20)
(0.992272 0.000602947 5.57151e-21)
(0.991544 0.00129294 -5.45578e-21)
(0.99084 0.00202931 0)
(0.99017 0.00280031 0)
(0.989538 0.00361463 1.10331e-20)
(0.988944 0.00446149 -1.08995e-20)
(0.988394 0.00534109 5.46531e-21)
(0.987886 0.00625493 -5.46074e-21)
(0.987423 0.00719155 5.4566e-21)
(0.987007 0.00815724 5.46193e-21)
(0.986637 0.00914388 -5.42642e-21)
(0.986318 0.0101482 -5.37976e-21)
(0.986047 0.0111739 -5.3627e-21)
(0.985826 0.0122088 5.36855e-21)
(0.985658 0.0132554 -5.36716e-21)
(0.985541 0.0143116 0)
(0.985476 0.0153696 2.67705e-21)
(0.985465 0.0164297 -2.64291e-21)
(0.985506 0.0174888 1.98027e-21)
(0.985601 0.0185413 0)
(0.98575 0.0195854 1.31055e-21)
(0.985951 0.020619 0)
(0.986205 0.0216367 -1.2929e-21)
(0.986511 0.0226361 1.8412e-23)
(0.986867 0.0236154 1.16912e-23)
(0.987275 0.0245695 5.13652e-21)
(0.987731 0.0254966 0)
(0.988235 0.0263944 0)
(0.988786 0.0272583 0)
(0.989381 0.0280872 0)
(0.99002 0.0288792 -9.97015e-21)