/*--------------------------------*- C++ -*----------------------------------*\
| =========                 |                                                 |
| \\      /  F ield         | OpenFOAM: The Open Source CFD Toolbox           |
|  \\    /   O peration     | Version:  2312                                  |
|   \\  /    A nd           | Website:  www.openfoam.com                      |
|    \\/     M anipulation  |                                                 |
\*---------------------------------------------------------------------------*/
FoamFile
{
    version     2.0;
    format      ascii;
    arch        "LSB;label=32;scalar=64";
    class       surfaceScalarField;
    location    "31.824761615644206";
    object      phi;
}
// * * * * * * * * * * * * * * * * * * * * * * * * * * * * * * * * * * * * * //

dimensions      [0 3 -1 0 0 0 0];

oriented        oriented;

internalField   nonuniform List<scalar> 
41713
(
0.00736657
0.0568799
0.00362879
0.0679842
0.00211708
0.0657581
0.00148511
0.0648784
0.0010996
0.0646319
0.000845587
0.0645004
0.0006706
0.0644214
0.000543725
0.0643733
0.000448353
0.0643418
0.000374831
0.06432
0.000317038
0.0643042
0.000270917
0.0642926
0.000233703
0.0642837
0.000203456
0.0642767
0.000178781
0.0642711
0.000158655
0.0642666
0.000142313
0.0642628
0.000129169
0.0642596
0.000118762
0.0642568
0.00011071
0.0642545
0.000104649
0.0642525
0.000100216
0.0642509
9.71262e-05
0.0642495
9.50273e-05
0.0548133
9.3251e-05
0.0456778
9.15784e-05
0.038065
9.00129e-05
0.031721
8.85794e-05
0.0264343
0.0220287
8.72556e-05
0.0099964
0.0468835
0.00843244
0.0695482
0.00572092
0.0684697
0.00412791
0.0664714
0.0031282
0.0656317
0.00243791
0.0651907
0.0019412
0.0649181
0.00157264
0.0647419
0.00129191
0.0646225
0.00107324
0.0645386
0.00089967
0.0644778
0.000759834
0.0644324
0.000645878
0.0643976
0.000552258
0.0643703
0.000474984
0.0643484
0.000411128
0.0643304
0.000358512
0.0643154
0.000315486
0.0643026
0.000280778
0.0642916
0.000253379
0.0642819
0.000232465
0.0642734
0.00021731
0.064266
0.000207182
0.0642597
0.000201607
0.0548188
0.000198529
0.0456808
0.000196652
0.0380669
0.000195247
0.0317224
0.000193974
0.0264356
0.0220298
0.00019286
0.00859926
0.0382842
0.00971516
0.0684323
0.00747909
0.0707057
0.00571158
0.0682389
0.00452525
0.066818
0.00364224
0.0660738
0.00296219
0.0655982
0.00243352
0.0652705
0.00201756
0.0650385
0.00168574
0.0648705
0.00141762
0.0647459
0.00119859
0.0646514
0.00101808
0.0645781
0.000868401
0.06452
0.000743866
0.0644729
0.000640251
0.064434
0.000554374
0.0644013
0.000483816
0.0643732
0.000426707
0.0643487
0.000381585
0.064327
0.000347277
0.0643077
0.000322795
0.0642905
0.000307146
0.0642753
0.000299495
0.0548265
0.000296242
0.0456841
0.000295036
0.0380681
0.000294538
0.0317229
0.000294137
0.026436
0.0220302
0.000293794
0.00677761
0.0315066
0.00948327
0.0657266
0.00813257
0.0720564
0.00645562
0.0699159
0.00526801
0.0680056
0.00436647
0.0669753
0.00363924
0.0663254
0.00304694
0.0658629
0.00256241
0.065523
0.00216363
0.0652692
0.00183332
0.0650762
0.00155811
0.0649266
0.00132768
0.0648085
0.00113413
0.0647135
0.000971434
0.0646356
0.000834942
0.0645705
0.000721096
0.0645151
0.000627146
0.0644671
0.000550955
0.0644249
0.000490842
0.0643871
0.000445464
0.0643531
0.000413692
0.0643223
0.000394304
0.0642947
0.000385908
0.0548349
0.000383452
0.0456865
0.000383643
0.0380679
0.000384654
0.0317219
0.000385703
0.0264349
0.0220291
0.000386716
0.00506711
0.0264395
0.00857782
0.0622159
0.00819545
0.0724388
0.00675622
0.0713551
0.00560568
0.0691561
0.00473515
0.0678458
0.00402291
0.0670376
0.00342505
0.0664607
0.0029206
0.0660275
0.00249362
0.0656962
0.00213119
0.0654387
0.00182278
0.0652351
0.00155993
0.0650714
0.00133587
0.0649376
0.00114521
0.0648263
0.00098369
0.064732
0.000847961
0.0646508
0.000735386
0.0645797
0.000643893
0.0645163
0.000571844
0.0644592
0.000517922
0.064407
0.000480998
0.0643592
0.000459734
0.064316
0.000452067
0.0548426
0.000451606
0.045687
0.000454213
0.0380653
0.000457641
0.0317185
0.000460956
0.0264316
0.0220261
0.000464041
0.00361962
0.0228199
0.00731809
0.0585174
0.00779726
0.0719596
0.00674498
0.0724074
0.00569045
0.0702107
0.00487189
0.0686644
0.00419828
0.0677112
0.00362112
0.0670379
0.0031225
0.0665261
0.00269088
0.0661278
0.00231676
0.0658128
0.0019923
0.0655595
0.00171105
0.0653526
0.00146775
0.0651809
0.00125811
0.0650359
0.00107866
0.0649115
0.00092664
0.0648029
0.000799843
0.0647065
0.000696537
0.0646196
0.000615352
0.0645404
0.000555188
0.0644672
0.000515073
0.0643993
0.000493711
0.0643373
0.000488257
0.054848
0.000491055
0.0456842
0.000497193
0.0380591
0.000504038
0.0317116
0.000510514
0.0264251
0.0220201
0.000516461
0.00252329
0.0202966
0.00602357
0.0550172
0.00711085
0.0708723
0.00649003
0.0730282
0.00558639
0.0711143
0.00483939
0.0694114
0.00421881
0.0683318
0.00367741
0.0675793
0.00319919
0.0670043
0.00277654
0.0665505
0.00240319
0.0661861
0.00207374
0.065889
0.00178367
0.0656427
0.00152921
0.0654354
0.00130725
0.0652579
0.00111528
0.0651035
0.000951279
0.0649669
0.000813666
0.0648441
0.000701222
0.0647321
0.000613019
0.0646286
0.000548338
0.0645319
0.000506515
0.0644411
0.000486434
0.0643574
0.000484399
0.05485
0.000491545
0.0456771
0.000502229
0.0380485
0.000513459
0.0317004
0.000524011
0.0264146
0.0220105
0.000533668
0.00175804
0.0185385
0.00489005
0.0518851
0.00633047
0.0694319
0.0060933
0.0732654
0.00535877
0.0718488
0.00468836
0.0700818
0.00412377
0.0688964
0.00362456
0.0680785
0.00317455
0.0674543
0.00276867
0.0669564
0.00240344
0.0665514
0.00207572
0.0662167
0.00178277
0.0659357
0.00152226
0.0656959
0.00129226
0.0654879
0.00109123
0.0653045
0.000917968
0.0651401
0.000771612
0.0649905
0.000651566
0.0648521
0.000557464
0.0647227
0.000489098
0.0646002
0.000446245
0.064484
0.000428108
0.0643755
0.000430175
0.054848
0.00044242
0.0456648
0.000458479
0.0380324
0.000474982
0.0316839
0.000490514
0.026399
0.0219962
0.00050475
0.00124616
0.0172924
0.00396597
0.0491653
0.00557038
0.0678275
0.00563842
0.0731973
0.00506778
0.0724195
0.00446842
0.0706812
0.00395223
0.0694126
0.00349219
0.0685385
0.00307102
0.0678755
0.00268424
0.0673431
0.00233012
0.0669055
0.00200724
0.0665396
0.00171433
0.0662286
0.00145031
0.0659599
0.00121433
0.0657239
0.00100579
0.065513
0.000824333
0.0653216
0.000669824
0.065145
0.000542361
0.0649796
0.00044223
0.0648228
0.00036985
0.0646726
0.000325564
0.0645283
0.00030904
0.0643921
0.000315145
0.0548419
0.000332703
0.0456473
0.000354602
0.0380105
0.00037705
0.0316614
0.000398381
0.0263777
0.0219766
0.000418046
0.000910599
0.0163818
0.00323255
0.0468434
0.00487422
0.0661858
0.00516931
0.0729023
0.00474843
0.0728403
0.00421342
0.0712162
0.00373532
0.0698907
0.00330646
0.0689674
0.00290961
0.0682723
0.00253978
0.067713
0.00219598
0.0672493
0.00187786
0.0668577
0.00158517
0.0665213
0.00131783
0.0662272
0.00107589
0.0659658
0.000859567
0.0657294
0.000669281
0.0655119
0.000505645
0.0653086
0.000369481
0.0651158
0.0002618
0.0649305
0.000183739
0.0647507
0.000136308
0.0645757
0.000119797
0.0644086
0.00012879
0.0548329
0.000151035
0.045625
0.000178587
0.0379829
0.000207107
0.0316329
0.000234668
0.0263501
0.0219507
0.000260525
0.000691615
0.0156902
0.00265666
0.0448783
0.00425493
0.0645876
0.00470743
0.0724498
0.00441721
0.0731306
0.0039408
0.0716926
0.00349207
0.0703394
0.00308576
0.0693737
0.00270681
0.0686513
0.00234939
0.0680704
0.00201267
0.067586
0.00169689
0.0671735
0.00140247
0.0668157
0.00113003
0.0664997
0.000880301
0.0662155
0.00065421
0.0659554
0.000452875
0.0657132
0.000277632
0.0654838
0.000129981
0.0652634
1.1622e-05
0.0650488
-7.55919e-05
0.0648379
-0.000129733
0.0646298
-0.000149687
0.0644285
-0.000140429
0.0548236
-0.000115326
0.0455999
-8.32557e-05
0.0379509
-4.92996e-05
0.031599
-1.61112e-05
0.026317
0.0219193
1.5265e-05
0.000545663
0.0151445
0.00220443
0.0432196
0.00371253
0.0630795
0.00426499
0.0718973
0.00408364
0.0733119
0.00365989
0.0721163
0.00323365
0.0707657
0.00284208
0.0697653
0.00247434
0.069019
0.00212399
0.0684207
0.00178996
0.06792
0.00147275
0.0674907
0.0011732
0.0671152
0.000892398
0.0667805
0.000631606
0.0664763
0.000392331
0.0661947
0.00017624
0.0659293
-1.48007e-05
0.0656749
-0.00017863
0.0654272
-0.000312753
0.065183
-0.000414368
0.0649395
-0.000480686
0.0646962
-0.000509679
0.0644575
-0.000504828
0.0548188
-0.000480346
0.0455754
-0.000446014
0.0379165
-0.000407587
0.0315605
-0.000368309
0.0262777
0.0218812
-0.000330196
0.000443562
0.0147009
0.0018458
0.0418173
0.00324052
0.0616848
0.00384865
0.0712892
0.00375444
0.0734061
0.00337697
0.0724938
0.00296762
0.071175
0.002584
0.0701489
0.0022211
0.0693819
0.0018723
0.0687695
0.00153612
0.0682562
0.00121303
0.0678138
0.000904101
0.0674241
0.000610707
0.0670739
0.0003345
0.0667525
7.73004e-05
0.0664519
-0.000158834
0.0661654
-0.000371448
0.0658875
-0.000557633
0.0656134
-0.000714105
0.0653394
-0.000837289
0.0650627
-0.000923545
0.0647824
-0.000969989
0.064504
-0.000977149
0.0548259
-0.000959575
0.0455579
-0.000927821
0.0378848
-0.000888522
0.0315212
-0.000845835
0.026235
0.021838
-0.000802578
0.00036769
0.0143333
0.00155708
0.0406279
0.00282997
0.0604119
0.00346114
0.070658
0.00343419
0.0734331
0.00309659
0.0728314
0.00269973
0.0715719
0.00231845
0.0705302
0.00195463
0.0697458
0.00160209
0.0691221
0.00125884
0.0685994
0.000925166
0.0681475
0.000602152
0.0677472
0.000291288
0.0673847
-5.70581e-06
0.0670495
-0.000286798
0.066733
-0.000549466
0.0664281
-0.000790659
0.0661287
-0.00100686
0.0658296
-0.0011941
0.0655267
-0.00134808
0.0652167
-0.00146455
0.0648989
-0.00154017
0.0645796
-0.001571
0.0548568
-0.00157113
0.045558
-0.00155108
0.0378647
-0.00151789
0.031488
-0.00147675
0.0261938
0.0217931
-0.0014319
0.000307971
0.0140253
0.00132251
0.0396134
0.00247497
0.0592594
0.00310511
0.0700279
0.00312673
0.0734115
0.00282194
0.0731362
0.0024339
0.0719599
0.00205054
0.0709135
0.00168091
0.0701154
0.00131985
0.0694831
0.000964896
0.0689544
0.000616012
0.0684963
0.000274118
0.0680891
-5.94856e-05
0.0677183
-0.000383112
0.0673731
-0.000694476
0.0670444
-0.000990671
0.0667243
-0.00126824
0.0664063
-0.0015231
0.0660845
-0.00175064
0.0657542
-0.00194591
0.0654119
-0.00210443
0.0650574
-0.00222349
0.0646987
-0.00229403
0.0549273
-0.0023293
0.0455932
-0.0023383
0.0378737
-0.00232637
0.0314761
-0.00229819
0.0261657
0.0217541
-0.00225922
0.000223033
0.0138023
0.000963978
0.0388724
0.00184634
0.0583771
0.00236532
0.0695089
0.00241031
0.0733665
0.00217411
0.0733724
0.00185172
0.0722823
0.00152473
0.0712405
0.001206
0.0704341
0.000892187
0.0697969
0.000580875
0.0692657
0.000271644
0.0688056
-3.5111e-05
0.0683958
-0.000338537
0.0680218
-0.000637272
0.0676719
-0.000929389
0.0673365
-0.0012124
0.0670073
-0.00148317
0.066677
-0.00173788
0.0663392
-0.00197198
0.0659883
-0.00218053
0.0656205
-0.00235911
0.065236
-0.00250593
0.0648455
-0.00260922
0.0550306
-0.0026818
0.0456658
-0.00273104
0.037923
-0.00275841
0.0315035
-0.00276388
0.0261711
0.0217413
-0.00275099
0.000164906
0.0136373
0.00071373
0.0383236
0.00139041
0.0577004
0.00181053
0.0690888
0.00186197
0.073315
0.00167708
0.0735573
0.00141061
0.0725488
0.00113458
0.0715166
0.000863067
0.0707056
0.000593895
0.0700661
0.000324741
0.0695349
5.48731e-05
0.0690754
-0.000215715
0.0686664
-0.000486576
0.0682926
-0.000756768
0.0679421
-0.00102493
0.0676047
-0.00128916
0.0672715
-0.00154693
0.0669348
-0.00179495
0.0665872
-0.00202908
0.0662224
-0.00224443
0.0658358
-0.00243617
0.0654277
-0.00260162
0.0650109
-0.00272564
0.0551546
-0.00282322
0.0457634
-0.00290618
0.0380059
-0.00297935
0.0315766
-0.00304044
0.0262322
0.0217769
-0.0030761
0.000126043
0.0135113
0.000541261
0.0379084
0.00106666
0.057175
0.00140631
0.0687491
0.00145654
0.0732648
0.00130997
0.0737039
0.00108958
0.0727692
0.000857338
0.0717488
0.000627019
0.0709359
0.000397255
0.0702959
0.000165913
0.0697662
-6.79446e-05
0.0693093
-0.000304575
0.068903
-0.000543835
0.0685319
-0.000785252
0.0681835
-0.00102801
0.0678474
-0.00127086
0.0675144
-0.00151195
0.0671759
-0.00174877
0.066824
-0.00197789
0.0664516
-0.0021949
0.0660529
-0.00239475
0.0656276
-0.00257251
0.0651887
-0.00270587
0.055288
-0.00280761
0.0458651
-0.00289478
0.0380931
-0.00298172
0.0316636
-0.00308627
0.0263368
0.0219094
-0.00321871
9.57057e-05
0.0134156
0.000417874
0.0375862
0.000834488
0.0567584
0.0011114
0.0684722
0.00115577
0.0732204
0.00103597
0.0738236
0.000852226
0.0729529
0.000657165
0.0719439
0.000462731
0.0711304
0.00026765
0.070491
6.99444e-05
0.0699639
-0.000131324
0.0695106
-0.000336539
0.0691082
-0.000545822
0.0687412
-0.000759085
0.0683968
-0.00097599
0.0680643
-0.00119587
0.0677343
-0.00141761
0.0673976
-0.0016395
0.0670459
-0.00185913
0.0666712
-0.00207329
0.066267
-0.00227805
0.0658323
-0.0024683
0.0653789
-0.00261413
0.0554338
-0.00271686
0.0459679
-0.00278382
0.0381601
-0.00282512
0.0317049
-0.00285909
0.0263707
-0.00302126
0.0220715
0.000131975
0.0219826
0.000174169
0.0219852
0.000207418
0.0219941
0.000238316
0.0219965
0.00026339
0.0220023
0.000283929
0.0220068
0.00030143
0.0220099
0.00031261
0.0220162
0.000321775
0.0220182
0.000325914
0.0220232
0.000326978
0.0220263
0.000325507
0.0220288
0.000319586
0.0220333
0.000312051
0.0220349
0.000301258
0.0220381
0.000288149
0.0220405
0.000273692
0.0220418
0.000256249
0.0220448
0.000237727
0.0220459
0.000217953
0.0220471
0.000196603
0.0220487
0.000174623
0.0220493
0.00015196
0.02205
0.000128774
0.0220505
0.000105464
0.0220507
8.21962e-05
0.0220506
5.93597e-05
0.0220502
3.69483e-05
0.0220498
1.52841e-05
0.022049
-4.99154e-06
0.0220476
-2.43806e-05
0.0220467
-4.20501e-05
0.022045
-5.76963e-05
0.022043
-7.20874e-05
0.0220417
-8.31789e-05
0.0220384
-9.22986e-05
0.0220365
-9.91386e-05
0.0220342
-0.000101801
0.02203
-0.000102681
0.0220282
-9.88852e-05
0.0220236
-9.19292e-05
0.0220204
-8.1848e-05
0.0220173
-6.59613e-05
0.0220115
-4.7914e-05
0.0220093
-2.31422e-05
0.0220026
5.07535e-06
0.0219991
3.81061e-05
0.0219943
7.75001e-05
0.021988
0.0219855
0.0001194
0.000237651
0.0219378
0.000280124
0.0219427
0.000313875
0.0219604
0.000345497
0.0219648
0.000371532
0.0219762
0.000393261
0.0219851
0.000412168
0.0219909
0.000424974
0.0220034
0.000435954
0.0220072
0.0004421
0.0220171
0.000445341
0.0220231
0.0004462
0.022028
0.000442765
0.0220367
0.000437839
0.0220398
0.000429777
0.0220462
0.000419505
0.0220507
0.000407967
0.0220534
0.000393533
0.0220592
0.000378076
0.0220613
0.000361414
0.0220638
0.000343223
0.0220669
0.000324417
0.0220681
0.000304936
0.0220695
0.000284937
0.0220705
0.000264788
0.0220708
0.000244652
0.0220708
0.000224912
0.0220699
0.000205534
0.0220691
0.000186833
0.0220677
0.000169451
0.022065
0.000152852
0.0220633
0.000137869
0.02206
0.000124792
0.0220561
0.000112822
0.0220537
0.000104017
0.0220473
9.70138e-05
0.0220435
9.21104e-05
0.0220391
9.12093e-05
0.0220309
9.18751e-05
0.0220276
9.70165e-05
0.0220184
0.000105088
0.0220123
0.000116042
0.0220063
0.000132564
0.0219949
0.000150971
0.0219909
0.000175842
0.0219777
0.00020386
0.0219711
0.000236379
0.0219618
0.000274929
0.0219494
0.0219448
0.000315622
0.000339106
0.0218925
0.000382296
0.0218995
0.000417012
0.0219256
0.000449833
0.021932
0.000477308
0.0219488
0.000500707
0.0219617
0.000521495
0.0219702
0.000536398
0.0219885
0.00054966
0.0219939
0.000558275
0.0220085
0.000564151
0.0220172
0.000567796
0.0220243
0.000567298
0.0220372
0.000565428
0.0220417
0.000560544
0.0220511
0.000553551
0.0220577
0.000545369
0.0220615
0.000534381
0.0220702
0.000522422
0.0220733
0.0005093
0.0220769
0.00049469
0.0220815
0.000479476
0.0220834
0.000463591
0.0220854
0.000447186
0.0220869
0.000430602
0.0220874
0.000413991
0.0220874
0.000397736
0.0220862
0.00038177
0.0220851
0.000366403
0.0220831
0.000352271
0.0220791
0.000338808
0.0220768
0.000326847
0.022072
0.000316664
0.0220663
0.000307432
0.0220629
0.000301222
0.0220535
0.000296637
0.0220481
0.000293963
0.0220418
0.000295109
0.0220298
0.000297598
0.0220251
0.000304353
0.0220117
0.000313799
0.0220029
0.000325874
0.0219942
0.000343272
0.0219775
0.000362264
0.0219719
0.000387451
0.0219525
0.000415474
0.0219431
0.000447683
0.0219296
0.000485596
0.0219115
0.0219051
0.000525278
0.000433244
0.021846
0.000477826
0.0218549
0.000514162
0.0218893
0.000548832
0.0218973
0.000578399
0.0219192
0.000604124
0.021936
0.000627459
0.0219468
0.000645132
0.0219708
0.000661357
0.0219777
0.000673131
0.0219967
0.000682338
0.022008
0.000689469
0.0220172
0.000692614
0.0220341
0.000694511
0.0220398
0.000693517
0.0220521
0.000690515
0.0220607
0.000686405
0.0220656
0.000679575
0.0220771
0.000671825
0.022081
0.000662952
0.0220858
0.000652629
0.0220918
0.000641707
0.0220943
0.000630112
0.022097
0.000617988
0.0220991
0.000605646
0.0220997
0.000593229
0.0220998
0.000581116
0.0220983
0.00056921
0.022097
0.00055781
0.0220945
0.000547551
0.0220894
0.000537833
0.0220865
0.000529489
0.0220803
0.000522783
0.022073
0.000516855
0.0220689
0.000513794
0.0220565
0.000512164
0.0220497
0.000512242
0.0220417
0.000515944
0.0220261
0.00052075
0.0220203
0.000529601
0.0220028
0.000540893
0.0219916
0.000554548
0.0219806
0.000573273
0.0219588
0.000593292
0.0219519
0.000619231
0.0219266
0.00064769
0.0219146
0.000680013
0.0218973
0.000717716
0.0218738
0.021866
0.000756813
0.000512677
0.0217974
0.000559539
0.0218081
0.000598377
0.0218505
0.000635779
0.0218599
0.000668322
0.0218867
0.000697265
0.021907
0.000724048
0.02192
0.000745401
0.0219494
0.00076551
0.0219576
0.000781372
0.0219808
0.00079485
0.0219945
0.000806419
0.0220056
0.000814163
0.0220263
0.000820791
0.0220332
0.000824656
0.0220482
0.000826622
0.0220588
0.000827562
0.0220647
0.000825872
0.0220787
0.000823312
0.0220836
0.000819669
0.0220894
0.000814612
0.0220969
0.000808957
0.0220999
0.000802621
0.0221033
0.00079574
0.022106
0.000788595
0.0221069
0.000781317
0.0221071
0.000774281
0.0221053
0.000767355
0.0221039
0.000760831
0.022101
0.000755339
0.0220949
0.000750243
0.0220916
0.000746377
0.0220842
0.00074399
0.0220754
0.000742192
0.0220707
0.000743086
0.0220556
0.0007452
0.0220476
0.000748799
0.0220381
0.000755809
0.0220191
0.000763666
0.0220124
0.000775331
0.0219911
0.000789169
0.0219778
0.000805091
0.0219647
0.000825818
0.0219381
0.000847526
0.0219302
0.000874875
0.0218992
0.000904423
0.0218851
0.000937512
0.0218642
0.000975659
0.0218356
0.0218268
0.00101482
0.00056827
0.0217456
0.000618493
0.0217578
0.000660917
0.021808
0.000702147
0.0218187
0.000738775
0.02185
0.000772059
0.0218737
0.000803434
0.0218887
0.000829624
0.0219233
0.000854797
0.0219324
0.000875943
0.0219597
0.000894905
0.0219755
0.00091214
0.0219884
0.000925728
0.0220127
0.000938345
0.0220205
0.000948339
0.0220382
0.000956551
0.0220506
0.00096383
0.0220574
0.000968572
0.022074
0.000972501
0.0220797
0.000975388
0.0220865
0.000976895
0.0220954
0.000977805
0.022099
0.000978022
0.0221031
0.00097767
0.0221063
0.000976998
0.0221076
0.000976124
0.0221079
0.000975417
0.022106
0.000974709
0.0221047
0.000974279
0.0221014
0.000974754
0.0220944
0.000975459
0.0220909
0.000977227
0.0220824
0.000980292
0.0220723
0.00098373
0.0220672
0.000989661
0.0220497
0.000996575
0.0220407
0.00100472
0.0220299
0.00101604
0.0220077
0.00102792
0.0220005
0.00104335
0.0219757
0.00106066
0.0219604
0.00107975
0.0219456
0.00110335
0.0219145
0.0011276
0.0219059
0.0011572
0.0218696
0.00118865
0.0218536
0.0012233
0.0218295
0.00126267
0.0217963
0.0217868
0.00130266
0.000589889
0.0216893
0.000644747
0.021703
0.000692049
0.0217607
0.000738431
0.0217723
0.000780492
0.021808
0.000819495
0.0218347
0.000856869
0.0218513
0.000889332
0.0218908
0.000921038
0.0219007
0.000948964
0.0219317
0.000974936
0.0219496
0.000999391
0.0219639
0.0010204
0.0219917
0.0010406
0.0220003
0.00105835
0.0220205
0.00107444
0.0220345
0.00108971
0.0220422
0.00110255
0.0220612
0.00111464
0.0220676
0.00112574
0.0220754
0.0011355
0.0220856
0.00114466
0.0220899
0.00115311
0.0220946
0.00116096
0.0220985
0.00116843
0.0221001
0.00117561
0.0221008
0.00118287
0.0220988
0.00118999
0.0220975
0.00119725
0.0220942
0.00120526
0.0220864
0.0012133
0.0220829
0.00122221
0.0220735
0.0012322
0.0220623
0.0012423
0.0220571
0.00125467
0.0220373
0.00126773
0.0220276
0.00128174
0.0220159
0.00129864
0.0219908
0.00131578
0.0219834
0.00133615
0.0219553
0.00135807
0.0219385
0.00138141
0.0219222
0.00140895
0.021887
0.00143676
0.0218781
0.00146957
0.0218368
0.00150386
0.0218193
0.00154098
0.0217924
0.00158245
0.0217548
0.0217452
0.0016241
0.000566775
0.0216273
0.000627716
0.021642
0.000681386
0.0217071
0.00073446
0.0217193
0.00078354
0.0217589
0.000829895
0.0217884
0.000874954
0.0218062
0.00091542
0.0218503
0.000955442
0.0218607
0.000991975
0.0218952
0.00102683
0.0219147
0.00106043
0.0219303
0.00109081
0.0219613
0.00112061
0.0219705
0.00114813
0.021993
0.00117417
0.0220084
0.00119953
0.0220168
0.00122257
0.0220381
0.00124496
0.0220452
0.00126642
0.022054
0.00128657
0.0220655
0.00130614
0.0220703
0.00132499
0.0220758
0.0013432
0.0220802
0.00136095
0.0220823
0.00137831
0.0220834
0.00139564
0.0220815
0.00141267
0.0220805
0.00142966
0.0220772
0.00144722
0.0220689
0.00146457
0.0220655
0.00148254
0.0220555
0.00150132
0.0220435
0.00151991
0.0220385
0.00154047
0.0220168
0.0015614
0.0220067
0.00158291
0.0219944
0.00160696
0.0219668
0.00163085
0.0219595
0.00165762
0.0219286
0.00168552
0.0219106
0.00171443
0.0218933
0.00174715
0.0218542
0.00177968
0.0218456
0.00181683
0.0217997
0.00185501
0.0217812
0.00189558
0.0217518
0.00194007
0.0217103
0.021701
0.00198424
0.000487384
0.021558
0.000555979
0.0215734
0.000617663
0.0216454
0.000679178
0.0216577
0.000737108
0.021701
0.000792729
0.0217328
0.000847471
0.0217515
0.000898008
0.0217998
0.000948497
0.0218102
0.000995857
0.0218479
0.00104189
0.0218687
0.00108699
0.0218852
0.00112916
0.0219192
0.00117102
0.0219287
0.00121086
0.0219531
0.00124943
0.0219698
0.0012875
0.0219787
0.00132341
0.0220022
0.00135879
0.0220098
0.00139334
0.0220194
0.00142664
0.0220322
0.00145937
0.0220376
0.00149137
0.0220438
0.0015227
0.0220489
0.00155348
0.0220516
0.00158376
0.0220531
0.00161385
0.0220514
0.00164347
0.0220509
0.00167281
0.0220478
0.00170248
0.0220392
0.00173165
0.0220364
0.00176113
0.0220261
0.00179108
0.0220136
0.00182046
0.0220092
0.00185142
0.0219858
0.00188232
0.0219758
0.00191335
0.0219634
0.00194649
0.0219336
0.00197896
0.021927
0.00201384
0.0218937
0.00204934
0.0218751
0.00208533
0.0218573
0.00212463
0.0218149
0.0021632
0.021807
0.0022059
0.021757
0.00224907
0.021738
0.00229411
0.0217068
0.00234255
0.0216619
0.0216535
0.00239007
0.000338613
0.0214799
0.000416598
0.0214955
0.00048821
0.0215738
0.000560178
0.0215858
0.000629044
0.0216321
0.000696118
0.0216657
0.000762857
0.0216848
0.000825893
0.0217367
0.000889403
0.0217467
0.000950251
0.021787
0.00101023
0.0218087
0.00106971
0.0218258
0.00112665
0.0218622
0.00118366
0.0218717
0.00123897
0.0218978
0.00129331
0.0219155
0.00134742
0.0219246
0.00139958
0.02195
0.00145139
0.021958
0.0015025
0.0219683
0.00155246
0.0219822
0.00160191
0.0219881
0.00165062
0.0219951
0.00169862
0.0220009
0.00174597
0.0220042
0.00179269
0.0220064
0.00183904
0.022005
0.00188468
0.0220052
0.00192976
0.0220028
0.00197485
0.0219941
0.00201905
0.0219921
0.00206316
0.0219819
0.0021073
0.0219694
0.00215035
0.0219661
0.00219449
0.0219417
0.00223799
0.0219323
0.00228103
0.0219204
0.00232561
0.0218891
0.00236885
0.0218838
0.00241387
0.0218487
0.00245886
0.0218301
0.00250365
0.0218126
0.00255112
0.0217675
0.00259712
0.021761
0.00264663
0.0217075
0.00269592
0.0216887
0.0027464
0.0216563
0.00279962
0.0216087
0.0216019
0.00285118
0.000103985
0.0213912
0.000193581
0.0214059
0.000277448
0.0214899
0.00036214
0.0215011
0.000444401
0.0215498
0.000525644
0.0215844
0.000607246
0.0216031
0.000685752
0.0216582
0.000765391
0.0216671
0.00084298
0.0217094
0.000920316
0.0217314
0.000997738
0.0217483
0.00107314
0.0217868
0.00114914
0.0217957
0.00122389
0.0218231
0.0012981
0.0218413
0.00137246
0.0218503
0.00144518
0.0218773
0.00151784
0.0218853
0.00159
0.0218962
0.00166117
0.021911
0.00173191
0.0219174
0.00180195
0.021925
0.00187125
0.0219316
0.0019398
0.0219356
0.00200754
0.0219387
0.0020747
0.0219379
0.00214083
0.0219391
0.00220603
0.0219376
0.00227083
0.0219293
0.00233423
0.0219287
0.00239699
0.0219192
0.00245918
0.0219072
0.00251958
0.0219057
0.00258039
0.0218809
0.00263979
0.0218729
0.00269791
0.0218622
0.00275677
0.0218302
0.00281339
0.0218272
0.00287096
0.0217911
0.00292758
0.0217735
0.00298307
0.0217571
0.00304039
0.0217101
0.00309528
0.0217061
0.00315283
0.0216499
0.00320924
0.0216323
0.00326594
0.0215996
0.00332455
0.02155
0.0215459
0.00338055
-0.000230322
0.0212913
-0.000128849
0.0213044
-3.213e-05
0.0213932
6.7504e-05
0.0214014
0.000165993
0.0214513
0.000264312
0.0214861
0.000363948
0.0215035
0.000461154
0.021561
0.000560538
0.0215677
0.000658758
0.0216112
0.000757598
0.0216325
0.000857372
0.0216486
0.000955882
0.0216883
0.00105573
0.0216958
0.00115499
0.0217238
0.00125432
0.021742
0.00135437
0.0217502
0.00145324
0.0217784
0.00155246
0.0217861
0.00165152
0.0217971
0.00174985
0.0218127
0.00184791
0.0218193
0.00194535
0.0218276
0.00204204
0.0218349
0.00213788
0.0218398
0.00223271
0.0218438
0.00232667
0.0218439
0.00241921
0.0218466
0.00251033
0.0218464
0.00260048
0.0218392
0.00268854
0.0218407
0.0027752
0.0218325
0.00286044
0.021822
0.00294293
0.0218232
0.00302488
0.0217989
0.00310433
0.0217934
0.00318136
0.0217852
0.003258
0.0217536
0.00333114
0.021754
0.00340404
0.0217182
0.00347471
0.0217029
0.00354297
0.0216888
0.00361185
0.0216413
0.00367698
0.021641
0.00374362
0.0215833
0.00380786
0.021568
0.00387121
0.0215363
0.00393534
0.0214859
0.0214856
0.00399562
-0.000689032
0.0211777
-0.000572105
0.0211875
-0.000458712
0.0212798
-0.00034207
0.0212848
-0.000225726
0.021335
-0.000108143
0.0213685
1.21767e-05
0.0213832
0.000132028
0.0214412
0.000255276
0.0214444
0.00037849
0.021488
0.000503748
0.0215073
0.000631178
0.0215211
0.000758514
0.021561
0.000888381
0.021566
0.00101871
0.0215935
0.00114999
0.0216107
0.0012828
0.0216174
0.00141513
0.0216461
0.00154843
0.0216528
0.00168208
0.0216635
0.0018154
0.0216794
0.00194875
0.021686
0.00208165
0.0216947
0.00221385
0.0217027
0.00234511
0.0217085
0.00247513
0.0217138
0.00260395
0.0217151
0.00273081
0.0217197
0.0028556
0.0217216
0.00297865
0.0217161
0.00309864
0.0217207
0.00321616
0.021715
0.00333109
0.0217071
0.00344189
0.0217124
0.00355077
0.02169
0.00365557
0.0216886
0.00375632
0.0216845
0.00385505
0.0216548
0.00394845
0.0216606
0.0040399
0.0216268
0.00412729
0.0216155
0.00421043
0.0216057
0.00429247
0.0215592
0.00436891
0.0215646
0.00444522
0.021507
0.00451742
0.0214958
0.00458711
0.0214666
0.00465607
0.021417
0.0214222
0.00471956
-0.00130578
0.0210516
-0.00117406
0.0210557
-0.00104388
0.0211496
-0.000907718
0.0211486
-0.00076948
0.0211968
-0.000627786
0.0212268
-0.000481111
0.0212365
-0.000333564
0.0212936
-0.000180356
0.0212912
-2.51846e-05
0.0213328
0.00013327
0.0213488
0.000295369
0.021359
0.000458667
0.0213977
0.000626719
0.0213979
0.000796421
0.0214238
0.000968425
0.0214387
0.00114326
0.0214426
0.00131861
0.0214708
0.00149586
0.0214756
0.00167424
0.0214851
0.00185294
0.0215007
0.00203219
0.0215067
0.00221135
0.0215156
0.00239
0.0215241
0.00256769
0.0215309
0.00274394
0.0215376
0.00291859
0.0215404
0.00309063
0.0215477
0.00325972
0.0215526
0.00342602
0.0215498
0.0035879
0.0215588
0.0037458
0.0215571
0.00389939
0.0215535
0.00404684
0.021565
0.00419036
0.0215465
0.00432751
0.0215515
0.00445816
0.0215538
0.00458439
0.0215286
0.00470261
0.0215424
0.0048163
0.0215131
0.00492324
0.0215085
0.00502319
0.0215057
0.00511953
0.0214629
0.00520754
0.0214766
0.00529307
0.0214214
0.00537204
0.0214169
0.00544625
0.0213924
0.00551769
0.0213455
0.0213583
0.0055815
-0.00212281
0.0209152
-0.00197713
0.0209101
-0.00183021
0.0210027
-0.00167398
0.0209924
-0.00151221
0.021035
-0.00134318
0.0210578
-0.00116523
0.0210586
-0.000982593
0.021111
-0.000790915
0.0210996
-0.00059442
0.0211363
-0.000391402
0.0211458
-0.000182125
0.0211498
3.03629e-05
0.0211852
0.0002466
0.0211817
0.000465909
0.0212045
0.000690706
0.0212139
0.000919463
0.0212138
0.00115017
0.0212401
0.00138422
0.0212415
0.00162067
0.0212486
0.00185858
0.0212628
0.00209799
0.0212673
0.00233804
0.0212755
0.00257814
0.021284
0.00281752
0.0212915
0.00305536
0.0212997
0.00329128
0.0213045
0.00352378
0.0213152
0.00375219
0.0213241
0.00397637
0.0213256
0.00419417
0.021341
0.00440578
0.0213455
0.00461053
0.0213487
0.00480614
0.0213694
0.00499478
0.0213579
0.00517357
0.0213727
0.0053422
0.0213852
0.00550277
0.021368
0.00565128
0.0213939
0.00579141
0.0213729
0.00592071
0.0213792
0.00603892
0.0213875
0.00614969
0.0213521
0.00624808
0.0213782
0.00634048
0.021329
0.00642279
0.0213346
0.00649717
0.021318
0.00656603
0.0212767
0.0213
0.00662437
-0.0026388
0.020803
-0.00251572
0.020787
-0.00238671
0.0208737
-0.00224242
0.0208481
-0.00208575
0.0208783
-0.00191575
0.0208878
-0.00173211
0.0208749
-0.00153981
0.0209187
-0.00133612
0.0208959
-0.0011257
0.0209259
-0.00090801
0.0209281
-0.000683741
0.0209255
-0.000455492
0.0209569
-0.000220169
0.0209463
1.90629e-05
0.0209653
0.000258891
0.020974
0.000504181
0.0209685
0.000753074
0.0209912
0.00100633
0.0209883
0.0012632
0.0209918
0.00152288
0.0210031
0.00178531
0.0210049
0.00204962
0.0210112
0.00231509
0.0210185
0.00258071
0.0210259
0.00284542
0.021035
0.00310849
0.0210414
0.00336808
0.0210556
0.00362313
0.0210691
0.00387308
0.0210757
0.00411544
0.0210986
0.00434999
0.0211109
0.00457572
0.021123
0.00479017
0.0211549
0.00499512
0.0211529
0.00518764
0.0211802
0.00536729
0.0212055
0.00553592
0.0211994
0.00568974
0.0212401
0.0058321
0.0212306
0.0059607
0.0212506
0.00607527
0.0212729
0.00617908
0.0212483
0.00626757
0.0212897
0.00634659
0.02125
0.00641252
0.0212687
0.00646769
0.0212628
0.00651492
0.0212294
0.0212644
0.0065505
-0.00298687
0.0207138
-0.00289625
0.0206964
-0.00279602
0.0207735
-0.0026698
0.0207219
-0.00251969
0.0207282
-0.00234763
0.0207157
-0.00215687
0.0206842
-0.00195473
0.0207165
-0.00174094
0.0206821
-0.00152084
0.0207058
-0.00129458
0.0207018
-0.00106304
0.020694
-0.000828768
0.0207227
-0.000590039
0.0207076
-0.000348188
0.0207234
-0.000100868
0.0207267
0.000149588
0.0207181
0.00040307
0.0207377
0.000661874
0.0207295
0.000925454
0.0207282
0.00119333
0.0207352