/*--------------------------------*- C++ -*----------------------------------*\
| =========                 |                                                 |
| \\      /  F ield         | OpenFOAM: The Open Source CFD Toolbox           |
|  \\    /   O peration     | Version:  2312                                  |
|   \\  /    A nd           | Website:  www.openfoam.com                      |
|    \\/     M anipulation  |                                                 |
\*---------------------------------------------------------------------------*/
FoamFile
{
    version     2.0;
    format      ascii;
    arch        "LSB;label=32;scalar=64";
    class       volScalarField;
    location    "46.225413129821085";
    object      p;
}
// * * * * * * * * * * * * * * * * * * * * * * * * * * * * * * * * * * * * * //

dimensions      [0 2 -2 0 0 0 0];

internalField   nonuniform List<scalar> 
21039
(
0.599296
0.465547
0.423301
0.395048
0.373719
0.35763
0.345184
0.335277
0.327229
0.320588
0.315038
0.310349
0.30635
0.30291
0.299927
0.297317
0.295015
0.292963
0.291116
0.289432
0.287877
0.28642
0.285034
0.283769
0.282674
0.281706
0.280826
0.280001
0.279215
0.45225
0.414361
0.400503
0.382132
0.365354
0.352055
0.341294
0.332437
0.325089
0.318939
0.313746
0.309323
0.305527
0.302247
0.299392
0.296887
0.294672
0.292695
0.29091
0.289281
0.287772
0.286354
0.285
0.283757
0.28267
0.281705
0.280825
0.28
0.279215
0.362788
0.360374
0.362521
0.355772
0.347315
0.339506
0.332241
0.3257
0.319956
0.31495
0.310594
0.306801
0.303491
0.300595
0.298048
0.295798
0.293795
0.292
0.290373
0.288881
0.287493
0.286182
0.284921
0.283752
0.282718
0.281791
0.280941
0.28014
0.279375
0.324646
0.326756
0.331216
0.330126
0.327494
0.324262
0.320448
0.316517
0.312738
0.309211
0.305983
0.303066
0.300448
0.298107
0.296015
0.294144
0.292464
0.290947
0.289564
0.288289
0.287097
0.285962
0.284862
0.283829
0.282901
0.282057
0.281272
0.280521
0.279795
0.299589
0.303556
0.309435
0.311135
0.311328
0.310592
0.309048
0.307109
0.304995
0.302833
0.300719
0.298712
0.296844
0.295126
0.293559
0.292137
0.290847
0.289672
0.288596
0.287598
0.28666
0.285761
0.28488
0.284036
0.283258
0.282532
0.28184
0.28116
0.280487
0.279903
0.285158
0.292497
0.296356
0.298358
0.299162
0.299087
0.298513
0.297623
0.296541
0.29537
0.294179
0.293017
0.291912
0.290882
0.289932
0.289063
0.28827
0.287542
0.286867
0.286229
0.285613
0.285
0.284392
0.283803
0.283226
0.282651
0.282063
0.281457
0.267077
0.272099
0.279184
0.284122
0.287342
0.289285
0.290306
0.290748
0.290789
0.29056
0.290164
0.289675
0.289145
0.288612
0.288099
0.287621
0.287186
0.286795
0.286444
0.286126
0.285828
0.285538
0.28524
0.284913
0.284552
0.284158
0.283727
0.283252
0.282731
0.259715
0.263816
0.269549
0.274491
0.278198
0.280788
0.28254
0.28372
0.284476
0.28493
0.285177
0.285288
0.285319
0.285307
0.285283
0.285264
0.285263
0.285286
0.285332
0.285398
0.285475
0.285551
0.285613
0.285614
0.285524
0.285348
0.285092
0.284754
0.284336
0.255124
0.258324
0.262686
0.267174
0.270875
0.273686
0.275816
0.277459
0.27872
0.279693
0.280456
0.281073
0.281591
0.282051
0.282481
0.282901
0.283328
0.283767
0.284223
0.284694
0.285175
0.285655
0.286122
0.286498
0.286723
0.286805
0.286758
0.286583
0.28629
0.251649
0.254099
0.257421
0.26138
0.264894
0.26772
0.270015
0.271919
0.273511
0.274859
0.276022
0.277051
0.277987
0.278864
0.279711
0.280546
0.281386
0.282241
0.283114
0.284007
0.284916
0.285833
0.286747
0.287548
0.288134
0.288517
0.288716
0.288738
0.288594
0.248593
0.250439
0.253015
0.256467
0.259744
0.262517
0.26488
0.266936
0.268748
0.270366
0.271837
0.2732
0.27449
0.275735
0.27696
0.278184
0.279422
0.280684
0.281977
0.283302
0.284659
0.286043
0.287446
0.288719
0.289715
0.290442
0.290924
0.291193
0.291227
0.245645
0.247043
0.249091
0.25208
0.255109
0.257799
0.260181
0.262328
0.26429
0.266111
0.267824
0.269461
0.271052
0.272621
0.27419
0.275776
0.277394
0.279054
0.280764
0.282528
0.284347
0.28622
0.288145
0.289934
0.29139
0.29251
0.293317
0.293828
0.294067
0.242654
0.243737
0.245418
0.248008
0.250797
0.253386
0.255754
0.257949
0.260016
0.261988
0.263893
0.265757
0.267606
0.26946
0.27134
0.273262
0.275241
0.277287
0.279409
0.281611
0.283898
0.286271
0.288738
0.291074
0.293026
0.294581
0.295761
0.296573
0.297036
0.239555
0.24042
0.241837
0.244093
0.24666
0.249142
0.251474
0.253689
0.255823
0.257907
0.259962
0.262013
0.264081
0.266185
0.268346
0.270579
0.272899
0.275319
0.277844
0.280478
0.283226
0.286093
0.289092
0.291973
0.29443
0.296446
0.298035
0.299193
0.299931
0.236333
0.237046
0.238255
0.240217
0.242569
0.244938
0.247224
0.249438
0.251612
0.253774
0.255944
0.258144
0.260393
0.262713
0.265124
0.267643
0.270287
0.273066
0.275984
0.279042
0.282237
0.28557
0.289056
0.292412
0.295307
0.297738
0.299719
0.301234
0.302276
0.233267
0.233869
0.234914
0.236655
0.238833
0.241095
0.243328
0.245529
0.247724
0.249937
0.252187
0.254496
0.256886
0.25938
0.262001
0.264771
0.267705
0.270813
0.274098
0.277551
0.281156
0.284887
0.28873
0.292338
0.295379
0.297912
0.300021
0.301722
0.303001
0.23067
0.2312
0.232143
0.233743
0.235789
0.237958
0.240144
0.242336
0.244548
0.246798
0.249109
0.251502
0.254004
0.25664
0.25944
0.262426
0.265616
0.269023
0.272647
0.276472
0.280462
0.28455
0.288649
0.292269
0.29502
0.297032
0.298538
0.299778
0.300958
0.22852
0.229003
0.229874
0.231371
0.233314
0.235421
0.237592
0.239795
0.242033
0.244322
0.246687
0.249157
0.251759
0.254527
0.25749
0.260678
0.264112
0.26781
0.271774
0.275985
0.280393
0.284889
0.289297
0.292898
0.295066
0.295796
0.295318
0.294114
0.293257
0.226788
0.22732
0.228209
0.229605
0.23138
0.233377
0.235534
0.237772
0.240054
0.242392
0.244819
0.247368
0.250076
0.252976
0.256104
0.259493
0.263174
0.267171
0.271491
0.276123
0.281019
0.286055
0.291001
0.294914
0.296764
0.296032
0.29235
0.285124
0.274011
0.278452
0.277684
0.276922
0.276164
0.27541
0.274658
0.273908
0.273158
0.272409
0.271658
0.270905
0.270149
0.26939
0.268626
0.267858
0.267084
0.266305
0.265518
0.264725
0.263925
0.263118
0.262302
0.26148
0.26065
0.259812
0.258968
0.258116
0.257258
0.256394
0.255524
0.254649
0.25377
0.252886
0.251998
0.251109
0.250217
0.249325
0.248433
0.247542
0.246653
0.245766
0.244884
0.244007
0.243135
0.24227
0.241414
0.240565
0.239726
0.238897
0.278455
0.277696
0.276945
0.276198
0.275454
0.274712
0.273972
0.273232
0.272492
0.27175
0.271006
0.270258
0.269507
0.26875
0.267989
0.267221
0.266446
0.265664
0.264874
0.264076
0.26327
0.262456
0.261633
0.260802
0.259963
0.259115
0.25826
0.257397
0.256528
0.255652
0.25477
0.253882
0.25299
0.252095
0.251196
0.250295
0.249393
0.24849
0.247588
0.246687
0.24579
0.244895
0.244006
0.243122
0.242245
0.241375
0.240515
0.239664
0.238823
0.278637
0.277904
0.277176
0.276453
0.275731
0.275011
0.274292
0.273571
0.272849
0.272124
0.271395
0.270661
0.269922
0.269176
0.268422
0.26766
0.26689
0.26611
0.265321
0.264522
0.263713
0.262893
0.262063
0.261223
0.260373
0.259513
0.258643
0.257764
0.256877
0.255982
0.25508
0.254171
0.253256
0.252337
0.251413
0.250486
0.249557
0.248626
0.247696
0.246766
0.245838
0.244914
0.243993
0.243078
0.242169
0.241268
0.240375
0.239491
0.238619
0.279094
0.2784
0.277707
0.277017
0.276327
0.275637
0.274944
0.274249
0.27355
0.272845
0.272134
0.271415
0.270688
0.269951
0.269204
0.268447
0.267677
0.266896
0.266102
0.265295
0.264476
0.263643
0.262798
0.261939
0.261068
0.260185
0.259289
0.258383
0.257466
0.256538
0.255602
0.254657
0.253705
0.252746
0.251781
0.250812
0.249839
0.248863
0.247887
0.24691
0.245934
0.244961
0.24399
0.243024
0.242064
0.24111
0.240164
0.239227
0.2383
0.279836
0.279192
0.278546
0.277898
0.277248
0.276595
0.275936
0.275271
0.274598
0.273917
0.273225
0.272523
0.271808
0.27108
0.270338
0.269581
0.268809
0.268021
0.267217
0.266397
0.26556
0.264706
0.263836
0.26295
0.262048
0.261131
0.260199
0.259253
0.258293
0.257321
0.256337
0.255342
0.254337
0.253324
0.252303
0.251276
0.250244
0.249207
0.248168
0.247127
0.246086
0.245046
0.244008
0.242973
0.241943
0.240919
0.239901
0.238891
0.237891
0.280869
0.280288
0.2797
0.279105
0.278505
0.277896
0.277278
0.276649
0.276007
0.275353
0.274683
0.273998
0.273296
0.272576
0.271837
0.271079
0.2703
0.269501
0.268682
0.267841
0.266979
0.266096
0.265193
0.26427
0.263326
0.262364
0.261383
0.260384
0.259369
0.258338
0.257292
0.256232
0.255161
0.254078
0.252985
0.251884
0.250775
0.249661
0.248542
0.247419
0.246296
0.245171
0.244048
0.242926
0.241808
0.240695
0.239587
0.238487
0.237397
0.28222
0.281716
0.281197
0.280666
0.280124
0.279568
0.278998
0.278411
0.277806
0.277182
0.276537
0.275871
0.275181
0.274468
0.27373
0.272967
0.272178
0.271362
0.270521
0.269652
0.268758
0.267837
0.26689
0.265919
0.264923
0.263903
0.26286
0.261796
0.26071
0.259606
0.258483
0.257343
0.256188
0.255019
0.253837
0.252644
0.251441
0.250231
0.249014
0.247792
0.246567
0.245339
0.244111
0.242885
0.24166
0.240439
0.239223
0.238014
0.236815
0.283918
0.283504
0.283065
0.282609
0.282135
0.281641
0.281126
0.280587
0.280023
0.279433
0.278815
0.278169
0.277492
0.276785
0.276046
0.275274
0.27447
0.273632
0.272762
0.271859
0.270922
0.269954
0.268954
0.267923
0.266862
0.265772
0.264654
0.26351
0.26234
0.261146
0.259929
0.258692
0.257436
0.256162
0.254873
0.25357
0.252254
0.250928
0.249593
0.248251
0.246905
0.245554
0.244202
0.242849
0.241498
0.24015
0.238805
0.237468
0.236141
0.285983
0.285671
0.285326
0.284956
0.284561
0.284138
0.283686
0.283201
0.282684
0.282132
0.281544
0.280919
0.280255
0.279552
0.27881
0.278027
0.277203
0.276338
0.275433
0.274488
0.273502
0.272477
0.271413
0.270312
0.269174
0.268
0.266793
0.265554
0.264283
0.262983
0.261656
0.260303
0.258927
0.257529
0.256112
0.254678
0.253227
0.251764
0.250289
0.248805
0.247315
0.245818
0.244319
0.242818
0.241318
0.23982
0.238325
0.236838
0.235363
0.288416
0.288219
0.287982
0.287711
0.287406
0.287065
0.286684
0.286262
0.285798
0.28529
0.284736
0.284135
0.283487
0.28279
0.282044
0.281249
0.280403
0.279508
0.278564
0.277571
0.276529
0.27544
0.274303
0.273122
0.271896
0.270626
0.269316
0.267966
0.266578
0.265155
0.263699
0.26221
0.260693
0.259149
0.25758
0.255991
0.254381
0.252755
0.251114
0.249462
0.247801
0.246132
0.244459
0.242783
0.241108
0.239434
0.237763
0.236101
0.234454
0.29119
0.291121
0.291007
0.290849
0.290649
0.290403
0.290107
0.289759
0.289359
0.288903
0.288392
0.287823
0.287196
0.286511
0.285766
0.284962
0.284098
0.283174
0.282192
0.281149
0.280049
0.278892
0.277677
0.276408
0.275085
0.273709
0.272283
0.270808
0.269286
0.267721
0.266114
0.264467
0.262785
0.261068
0.259321
0.257547
0.255746
0.253926
0.252088
0.250234
0.248369
0.246493
0.244613
0.242729
0.240845
0.238963
0.237085
0.235217
0.233369
0.294239
0.294348
0.294376
0.294298
0.294232
0.294103
0.293909
0.293652
0.293332
0.292946
0.292494
0.291974
0.291384
0.290726
0.289997
0.289197
0.288326
0.287385
0.286373
0.28529
0.284137
0.282915
0.281623
0.280264
0.27884
0.277349
0.275797
0.274184
0.27251
0.270783
0.269001
0.267169
0.265291
0.263368
0.261406
0.25941
0.257379
0.255323
0.253242
0.251142
0.249027
0.2469
0.244767
0.24263
0.240493
0.238359
0.23623
0.234117
0.23203
0.297392
0.297667
0.297874
0.298019
0.298091
0.29809
0.298007
0.297868
0.297658
0.297371
0.297009
0.296567
0.296047
0.295448
0.294766
0.294002
0.293153
0.292221
0.291205
0.290102
0.288915
0.287643
0.286285
0.284844
0.283321
0.281713
0.280027
0.278263
0.27642
0.274506
0.272522
0.270469
0.268356
0.266183
0.263957
0.261685
0.259367
0.257014
0.254629
0.252219
0.24979
0.247345
0.244894
0.242439
0.239986
0.237541
0.235104
0.232689
0.230311
0.30052
0.300982
0.301362
0.301677
0.301924
0.302105
0.302213
0.302244
0.302195
0.302069
0.301877
0.301581
0.301197
0.300722
0.300148
0.299478
0.298705
0.297833
0.296861
0.295781
0.294598
0.29331
0.291912
0.290409
0.288799
0.287079
0.285256
0.283328
0.281295
0.279164
0.276937
0.274616
0.272211
0.269721
0.267159
0.264531
0.261839
0.259098
0.256313
0.253493
0.250649
0.247786
0.244917
0.242047
0.239186
0.236339
0.233511
0.230718
0.227979
0.303132
0.303807
0.304409
0.304963
0.305462
0.305908
0.306289
0.3066
0.306834
0.306976
0.307024
0.30697
0.306849
0.306622
0.306252
0.305771
0.305164
0.304435
0.303584
0.302598
0.301484
0.300236
0.298847
0.297321
0.295653
0.293836
0.291879
0.289777
0.287528
0.285142
0.282619
0.279962
0.277183
0.274282
0.271276
0.268174
0.264979
0.261714
0.258383
0.255004
0.251591
0.248153
0.244713
0.241277
0.237863
0.234482
0.231139
0.227858
0.224662
0.304098
0.304952
0.305827
0.30676
0.307715
0.308664
0.309565
0.310389
0.311115
0.311717
0.312195
0.312527
0.312716
0.312771
0.312716
0.31259
0.312244
0.311753
0.311119
0.310319
0.309363
0.30824
0.306934
0.30545
0.303777
0.301901
0.299831
0.297559
0.295077
0.2924
0.289524
0.286455
0.283209
0.279787
0.276211
0.272494
0.268644
0.264689
0.260639
0.256518
0.252347
0.248139
0.24393
0.239732
0.235579
0.231491
0.227488
0.223604
0.219871
0.302237
0.30318
0.304508
0.30621
0.308078
0.309962
0.311733
0.313331
0.314725
0.3159
0.316875
0.317647
0.318242
0.318667
0.31891
0.318997
0.319042
0.31886
0.318515
0.317984
0.317274
0.316366
0.315234
0.313879
0.31228
0.310414
0.308286
0.305881
0.303185
0.300217
0.29697
0.293452
0.289689
0.28568
0.28146
0.277046
0.272451
0.267715
0.262848
0.257881
0.252838
0.247736
0.242615
0.237494
0.232422
0.227439
0.222595
0.217968
0.21362
0.29317
0.294572
0.298058
0.302355
0.306522
0.310213
0.313317
0.315875
0.317969
0.319665
0.321055
0.322178
0.323093
0.323833
0.324403
0.324812
0.325054
0.325242
0.325272
0.325087
0.324715
0.324127
0.323279
0.322163
0.32074
0.318969
0.316849
0.314352
0.311458
0.308188
0.304535
0.300515
0.296161
0.291482
0.286527
0.281325
0.275897
0.270298
0.264541
0.258669
0.252701
0.246648
0.240544
0.234385
0.228211
0.222056
0.216005
0.210262
0.205111
0.265622
0.27655
0.288928
0.299051
0.306603
0.31211
0.316132
0.319153
0.321494
0.323352
0.324876
0.32613
0.327196
0.328113
0.328905
0.3296
0.330161
0.33062
0.331047
0.331272
0.331313
0.331134
0.330669
0.329901
0.328773
0.327215
0.325202
0.322692
0.319654
0.316115
0.312072
0.307548
0.302593
0.297228
0.291522
0.285522
0.279263
0.272819
0.266215
0.259503
0.252709
0.245835
0.238897
0.23184
0.224625
0.217156
0.209343
0.201251
0.193525
0.238086
0.237251
0.236352
0.23538
0.234318
0.233162
0.231938
0.230796
0.229849
0.229125
0.228659
0.228486
0.228646
0.229188
0.230163
0.231635
0.233682
0.236403
0.239925
0.244414
0.250096
0.257282
0.266418
0.278184
0.293677
0.314496
0.342331
0.384171
0.517586
0.237998
0.237146
0.236229
0.235232
0.234139
0.232944
0.231675
0.230485
0.229486
0.22871
0.228188
0.22795
0.228042
0.228501
0.229376
0.230727
0.232621
0.235147
0.238411
0.242552
0.24775
0.254242
0.262335
0.272419
0.285121
0.301379
0.31932
0.33276
0.370342
0.237761
0.236872
0.235909
0.234857
0.233696
0.232418
0.231047
0.229743
0.228625
0.227721
0.227061
0.226674
0.226593
0.22685
0.227485
0.228542
0.23007
0.232127
0.234778
0.238099
0.242169
0.247072
0.252861
0.259457
0.266673
0.274601
0.280889
0.278274
0.28039
0.237386
0.236435
0.235398
0.234258
0.23299
0.231582
0.230054
0.228574
0.227272
0.226174
0.225303
0.224685
0.224342
0.224297
0.224576
0.225204
0.226203
0.227596
0.229399
0.231617
0.234232
0.237191
0.240387
0.243546
0.24619
0.248288
0.248884
0.243937
0.241567
0.2369
0.235864
0.234726
0.233466
0.232056
0.230475
0.22874
0.227032
0.225494
0.224149
0.223015
0.222111
0.22145
0.221047
0.220911
0.221049
0.221462
0.222143
0.223072
0.224212
0.225495
0.226818
0.228046
0.228953
0.229116
0.228394
0.22619
0.219849
0.215681
0.236309
0.235166
0.233903
0.232495
0.230906
0.229113
0.227127
0.225145
0.223328
0.221696
0.220263
0.21904
0.218036
0.217252
0.216688
0.216338
0.216186
0.216209
0.216369
0.216612
0.216858
0.216996
0.216895
0.216363
0.215012
0.212498
0.20815
0.200388
0.194986
0.235611
0.234339
0.232924
0.231337
0.229537
0.227492
0.22521
0.222912
0.22078
0.218831
0.217074
0.215515
0.214156
0.212993
0.212016
0.211208
0.210548
0.21
0.209519
0.209044
0.208493
0.207753
0.206683
0.205099
0.202647
0.198946
0.193554
0.186099
0.180977
0.2348
0.233374
0.23178
0.229982
0.227933
0.225595
0.222975
0.220322
0.217843
0.215553
0.213457
0.211556
0.209847
0.208318
0.206956
0.205737
0.204632
0.203602
0.202597
0.201554
0.20039
0.199001
0.197256
0.194999
0.191952
0.187815
0.182473
0.176437
0.172279
0.233861
0.232255
0.230451
0.228407
0.22607
0.223397
0.220395
0.21735
0.214498
0.211851
0.209409
0.20717
0.205125
0.203258
0.20155
0.199973
0.198494
0.197072
0.195658
0.194189
0.192594
0.190783
0.188655
0.186093
0.182895
0.178835
0.174023
0.169433
0.166209
0.232766
0.230949
0.228901
0.226572
0.223903
0.22085
0.217422
0.213951
0.210705
0.207691
0.204907
0.202343
0.199987
0.197818
0.195811
0.193938
0.192161
0.190441
0.188729
0.186972
0.18511
0.183071
0.180777
0.178143
0.175019
0.171239
0.167043
0.163569
0.161118
0.231462
0.229399
0.227066
0.224407
0.221359
0.217876
0.213979
0.21005
0.206395
0.203014
0.1999
0.197036
0.194403
0.191977
0.189727
0.187622
0.185625
0.183695
0.18179
0.17986
0.177855
0.17572
0.173391
0.170799
0.167836
0.164399
0.160808
0.158151
0.156319
0.229863
0.22751
0.224845
0.221803
0.218321
0.214356
0.209945
0.205536
0.201467
0.197731
0.194311
0.191183
0.18832
0.185689
0.183259
0.18099
0.17885
0.176793
0.17478
0.172769
0.170715
0.168571
0.166288
0.163806
0.161051
0.157981
0.154954
0.15289
0.151519
0.22783
0.225134
0.222076
0.218589
0.214612
0.210113
0.205154
0.200254
0.195783
0.191721
0.188038
0.184698
0.181663
0.178894
0.176352
0.173995
0.171783
0.169677
0.167636
0.165621
0.163592
0.16151
0.159334
0.157013
0.154496
0.151795
0.149268
0.147629
0.146581
0.225115
0.222006
0.218487
0.214488
0.209957
0.204882
0.199361
0.193988
0.189158
0.184828
0.18095
0.177471
0.174343
0.171516
0.168942
0.166576
0.164373
0.162295
0.1603
0.158352
0.156414
0.154453
0.152433
0.150311
0.148053
0.145707
0.143612
0.142285
0.141461
0.221323
0.217719
0.213664
0.209088
0.203964
0.198308
0.192258
0.18648
0.181379
0.176878
0.172906
0.169392
0.166271
0.163482
0.160969
0.158683
0.156575
0.154603
0.152729
0.150915
0.149128
0.147338
0.145513
0.143617
0.141634
0.139637
0.137927
0.136843
0.136168
0.215993
0.211857
0.207263
0.202152
0.196524
0.190423
0.184017
0.178019
0.17282
0.168313
0.164398
0.160986
0.157996
0.155358
0.153009
0.150894
0.148962
0.147169
0.145478
0.143851
0.142257
0.140668
0.139058
0.137399
0.135686
0.133997
0.132593
0.131702
0.131129
0.209154
0.204503
0.199499
0.194071
0.188203
0.181936
0.175445
0.169464
0.164365
0.160016
0.156296
0.153101
0.15034
0.147933
0.145813
0.143923
0.142212
0.140634
0.139151
0.137728
0.136335
0.134945
0.133538
0.1321
0.130637
0.12921
0.128038
0.127288
0.126787
0.200135
0.195273
0.190369
0.185109
0.179393
0.173267
0.166939
0.161166
0.156315
0.15224
0.148808
0.145903
0.143425
0.141292
0.139435
0.137794
0.136319
0.134966
0.133697
0.132478
0.131278
0.13007
0.128838
0.127584
0.126331
0.12513
0.124157
0.12353
0.12309
0.187519
0.183941
0.180261
0.175753
0.170536
0.164778
0.158779
0.153345
0.148837
0.145108
0.142016
0.139436
0.137266
0.135422
0.133833
0.132442
0.1312
0.130064
0.128998
0.127968
0.126943
0.125892
0.124803
0.123719
0.122712
0.121801
0.121027
0.120448
0.119987
0.225018
0.225331
0.226037
0.227453
0.229416
0.231616
0.233896
0.236191
0.23851
0.240896
0.243391
0.246033
0.248858
0.251902
0.255204
0.258802
0.262734
0.267029
0.271704
0.276752
0.282133
0.287724
0.293264
0.29767
0.299557
0.29772
0.290602
0.275804
0.244846
0.22326
0.223694
0.224513
0.225915
0.227791
0.229913
0.232154
0.234453
0.236814
0.23927
0.241858
0.244614
0.247573
0.250776
0.254265
0.258085
0.262279
0.266886
0.271935
0.277441
0.283407
0.289774
0.296364
0.302209
0.305994
0.307002
0.304616
0.300787
0.305204
0.22147
0.221985
0.222887
0.224282
0.226086
0.22813
0.230313
0.232592
0.234971
0.237476
0.240134
0.242978
0.246047
0.249384
0.253036
0.257055
0.261498
0.266419
0.271876
0.277933
0.284681
0.292234
0.300721
0.309705
0.318258
0.32666
0.335124
0.342548
0.359536
0.219622
0.220115
0.22099
0.222367
0.224173
0.226222
0.228399
0.230672
0.233061
0.235592
0.238296
0.241205
0.244358
0.247801
0.251589
0.255782
0.260449
0.265667
0.27153
0.278162
0.28577
0.294696
0.305422
0.318188
0.332036
0.347545
0.365383
0.381782
0.403738
0.217718
0.218175
0.218998
0.220343
0.222148
0.224207
0.22639
0.228665
0.23106
0.233607
0.23634
0.239294
0.242508
0.246033
0.249927
0.25426
0.259113
0.264583
0.270798
0.277944
0.286324
0.296516
0.309152
0.32522
0.343113
0.363759
0.388075
0.41131
0.437117
0.215759
0.216198
0.216988
0.218294
0.220065
0.222104
0.224273
0.226538
0.228928
0.231477
0.234222
0.237198
0.240448
0.244022
0.247983
0.252408
0.257387
0.263034
0.269501
0.277021
0.285941
0.297099
0.310846
0.32924
0.34891
0.372402
0.399383
0.428561
0.457938
0.213741
0.21417
0.214936
0.216199
0.217918
0.219911
0.222044
0.224282
0.226649
0.229181
0.231914
0.234885
0.238136
0.241719
0.245699
0.250155
0.255184
0.260907
0.267485
0.275188
0.284307
0.296035
0.309813
0.328759
0.350698
0.374833
0.400813
0.428123
0.455692
0.211659
0.212075
0.212816
0.214031
0.215689
0.217623
0.219704
0.221896
0.22422
0.226712
0.229406
0.23234
0.235554
0.239101
0.243044
0.247459
0.252448
0.258131
0.264651
0.272305
0.281241
0.292535
0.307154
0.325535
0.346645
0.369131
0.392203
0.415526
0.438838
0.20951
0.209913
0.210625
0.211787
0.213374
0.215236
0.21725
0.219377
0.221638
0.224065
0.226692
0.229554
0.232691
0.236152
0.239998
0.244296
0.249147
0.25466
0.260951
0.268239
0.27697
0.287795
0.301738
0.318548
0.337113
0.356563
0.376114
0.39552
0.414101
0.207292
0.207683
0.208366
0.209469
0.210973
0.21275
0.214679
0.216723
0.218899
0.221236
0.223766
0.226522
0.22954
0.232865
0.236554
0.24065
0.245268
0.250465
0.256411
0.263298
0.271448
0.281312
0.293564
0.30802
0.323458
0.339238
0.354779
0.37011
0.384268
0.205004
0.205381
0.20603
0.207069
0.208485
0.210163
0.211993
0.213937
0.216006
0.218228
0.220633
0.223247
0.226105
0.229246
0.232726
0.236526
0.240837
0.24567
0.251132
0.257369
0.26459
0.273098
0.283283
0.294947
0.306976
0.31881
0.330054
0.341031
0.350907
0.202645
0.203009
0.203624
0.204595
0.205914
0.207481
0.209197
0.21102
0.212962
0.215046
0.217297
0.219738
0.222397
0.225303
0.228497
0.232014
0.235923
0.240275
0.245116
0.250519
0.256604
0.263554
0.271526
0.28021
0.288731
0.296662
0.303781
0.310575
0.316476
0.200219
0.200575
0.201158
0.202058
0.203269
0.20471
0.206292
0.207977
0.209771
0.211693
0.213764
0.216002
0.218426
0.221062
0.223938
0.227087
0.230535
0.234311
0.238427
0.242895
0.247747
0.253045
0.258747
0.264474
0.269644
0.274015
0.277535
0.280736
0.28328
0.197726
0.198069
0.198614
0.199439
0.200539
0.201848
0.203286
0.204818
0.206447
0.208187
0.210055
0.212064
0.214226
0.21656
0.219079
0.221801
0.224735
0.227877
0.231209
0.234689
0.238274
0.241911
0.24541
0.248401
0.250605
0.251962
0.252566
0.252942
0.252945
0.19517
0.195502
0.19601
0.196757
0.197739
0.198907
0.20019
0.201555
0.203003
0.204545
0.206193
0.207953
0.20983
0.211832
0.213963
0.216225
0.218608
0.221085
0.223605
0.226085
0.228419
0.230471
0.231952
0.232558
0.232289
0.231244
0.229621
0.227937
0.226222
0.192557
0.19288
0.193352
0.194018
0.194879
0.195896
0.197013
0.1982
0.199452
0.200785
0.202198
0.203692
0.205264
0.206914
0.208634
0.210414
0.212224
0.214021
0.215724
0.217221
0.218361
0.218958
0.218668
0.217282
0.21505
0.212194
0.208977
0.205912
0.203197
0.189891
0.190203
0.190635
0.191219
0.191957
0.192822
0.193768
0.194766
0.195819
0.196932
0.198099
0.199315
0.20057
0.201854
0.203151
0.204438
0.205671
0.206789
0.207694
0.208252
0.20829
0.207593
0.205801
0.202819
0.199109
0.194981
0.190709
0.186814
0.18365
0.187178
0.187481
0.187873
0.188377
0.188991
0.189699
0.190468
0.191273
0.192122
0.193009
0.193924
0.194855
0.195788
0.196703
0.197574
0.198369
0.199032
0.19949
0.199633
0.199318
0.198362
0.196544
0.193515
0.18931
0.184554
0.179608
0.174702
0.170374
0.167132
0.184427
0.184725
0.185079
0.185504
0.185992
0.186539
0.187126
0.187738
0.188378
0.189036
0.189697
0.190343
0.190953
0.1915
0.191952
0.192265
0.192377
0.192204
0.191632
0.190515
0.188675
0.185899
0.181874
0.176764
0.171322
0.165915
0.160691
0.156214
0.153146
0.181644
0.181935
0.182248
0.182596
0.18296
0.183343
0.183762
0.184181
0.184613
0.185044
0.185453
0.185818
0.186111
0.1863
0.186345
0.186197
0.185785
0.185022
0.183791
0.18195
0.17933
0.175742
0.170924
0.165175
0.159341
0.153769
0.148483
0.144087
0.141387
0.178836
0.179124
0.179395
0.179674
0.179891
0.180155
0.180389
0.180618
0.180847
0.181056
0.181221
0.181314
0.181304
0.181152
0.180813
0.180232
0.179336
0.178034
0.176209
0.173725
0.17043
0.166161
0.160718
0.154536
0.148543
0.143043
0.137909
0.133792
0.131655
0.176014
0.176295
0.17653
0.176723
0.176858
0.176961
0.177019
0.177065
0.177099
0.177096
0.177028
0.176864
0.176567
0.176096
0.175402
0.174425
0.173091
0.171307
0.168959
0.165918
0.162047
0.157209
0.151267
0.144791
0.138795
0.133544
0.128735
0.125088
0.12374
0.173185
0.173458
0.173675
0.173803
0.173826
0.17377
0.173664
0.173538
0.173386
0.173183
0.172897
0.172492
0.17193
0.171166
0.17015
0.168819
0.167097
0.164895
0.162101
0.158594
0.154246
0.148939
0.142587
0.135877
0.129929
0.125006
0.120626
0.117613
0.117321
0.170356
0.170623
0.170815
0.170877
0.170786
0.170591
0.170336
0.170051
0.169728
0.169341
0.168854
0.16823
0.167427
0.1664
0.165098
0.163458
0.161407
0.158856
0.1557
0.151824
0.147108
0.14144
0.134761
0.127833
0.121889
0.117243
0.113269
0.110973
0.111986
0.167536
0.167805
0.167972
0.16797
0.167774
0.167447
0.167049
0.166616
0.166139
0.165587
0.16492
0.164099
0.163083
0.161827
0.16028
0.158381
0.156061
0.153237
0.149811
0.145678
0.140724
0.134829
0.127931
0.120792
0.114721
0.110124
0.106295
0.104638
0.107221
0.164732
0.164995
0.16513
0.165062
0.16477
0.164325
0.163805
0.163249
0.162641
0.161945
0.16112
0.160128
0.158927
0.157477
0.155726
0.15362
0.151094
0.148074
0.144475
0.140205
0.135166
0.129234
0.12232
0.115105
0.108853
0.103985
0.0996897
0.0981806
0.102543
0.161968
0.162279
0.162442
0.162335
0.161923
0.161312
0.160635
0.15995
0.159227
0.158411
0.157454
0.156318
0.154967
0.153359
0.151451
0.14919
0.14652
0.14338
0.139703
0.135421
0.130458
0.124682
0.117943
0.110798
0.104389
0.0990625
0.0936543
0.090854
0.0959393
0.154426
0.135419
0.108924
0.0745301
0.0350734
-0.00421018
-0.0403234
-0.0732517
-0.103674
-0.13503
-0.167382
-0.203426
-0.240443
-0.275028
-0.302923
-0.321432
-0.330709
-0.333199
-0.332817
0.163264
0.149111
0.124034
0.0893035
0.0467641
0.00111866
-0.0442857
-0.0889182
-0.131907
-0.178019
-0.224112
-0.270482
-0.314857
-0.353631
-0.383375
-0.402897
-0.413622
-0.418377
-0.420135
0.159673
0.14691
0.123358
0.0890223
0.0446138
-0.00566986
-0.0582437
-0.114608
-0.170931
-0.227359
-0.283423
-0.338009
-0.388197
-0.430458
-0.462221
-0.483236
-0.495486
-0.501835
-0.50498
0.150435
0.138032
0.116564
0.0830638
0.0368087
-0.0182304
-0.0784143
-0.142122
-0.207508
-0.273419
-0.338858
-0.401589
-0.457797
-0.50371
-0.537313
-0.559265
-0.57234
-0.57968
-0.583809
0.137914
0.126669
0.107052
0.0743343
0.0270868
-0.030866
-0.096115
-0.166275
-0.239757
-0.314843
-0.388983
-0.458564
-0.519069
-0.566932
-0.601144
-0.623424
-0.637183
-0.645502
-0.650494
0.120634
0.110207
0.0923847
0.0612434
0.0144304
-0.044823
-0.113445
-0.189248
-0.269851
-0.352458
-0.433224
-0.507449
-0.570376
-0.619148
-0.653866
-0.677009
-0.69225
-0.702372
-0.709046
0.0990477
0.0879999
0.0709751
0.0413137
-0.0044007
-0.0639191
-0.134517
-0.213953
-0.299098
-0.386058
-0.469896
-0.545115
-0.607127
-0.654074
-0.687133
-0.709341
-0.724468
-0.734854
-0.741808
0.0743588
0.0614865
0.0438152
0.0145459
-0.0303267
-0.0894398
-0.160425
-0.240932
-0.327407
-0.415168
-0.498441
-0.571409
-0.630148
-0.673958
-0.704865
-0.726093
-0.741161
-0.75182
-0.75913
0.0475503
0.0323296
0.0129147
-0.0171974
-0.0618797
-0.120237
-0.190251
-0.269612
-0.354524
-0.439732
-0.518972
-0.58666
-0.639904
-0.679104
-0.706825
-0.726225
-0.740462
-0.750782
-0.75792
0.0195012
0.00195184
-0.0196873
-0.051419
-0.0964851
-0.154002
-0.222209
-0.298923
-0.380219
-0.460499
-0.533461
-0.594237
-0.641125
-0.675435
-0.699995
-0.717729
-0.731368
-0.741786
-0.749364
-0.00882683
-0.0283999
-0.0522732
-0.0858809
-0.131695
-0.188495
-0.254542
-0.327613
-0.403556
-0.476586
-0.540827
-0.592588
-0.631446
-0.6594
-0.679303
-0.69374
-0.704954
-0.7136
-0.719852
-0.0363101
-0.0574221
-0.083169
-0.118379
-0.164848
-0.220849
-0.28442
-0.353113
-0.422549
-0.487115
-0.541896
-0.584629
-0.615968
-0.638243
-0.654056
-0.665541
-0.674408
-0.681229
-0.686072
-0.0619162
-0.0839975
-0.111037
-0.147192
-0.193773
-0.248555
-0.309279
-0.373223
-0.435917
-0.49224
-0.538458
-0.573582
-0.598972
-0.616979
-0.629859
-0.639339
-0.646742
-0.652648
-0.656949
-0.0849371
-0.107458
-0.13519
-0.171558
-0.217561
-0.270553
-0.327936
-0.386654
-0.442254
-0.490365
-0.528541
-0.556878
-0.577135
-0.591496
-0.601822
-0.609469
-0.61543
-0.620254
-0.623736
-0.104963
-0.127475
-0.155348
-0.19124
-0.235961
-0.286529
-0.340044
-0.393197
-0.441793
-0.482431
-0.51388
-0.536997
-0.553635
-0.565662
-0.57453
-0.581257
-0.586575
-0.590965
-0.59416
-0.121966
-0.144138
-0.171709
-0.206576
-0.249447
-0.297111
-0.346478
-0.394156
-0.436409
-0.470822
-0.497109
-0.516539
-0.530864
-0.541613
-0.549892
-0.556458
-0.561871
-0.56651
-0.570007
-0.136284
-0.157929
-0.184917
-0.218423
-0.259086
-0.303491
-0.348414
-0.390525
-0.426743
-0.455655
-0.477698
-0.4943
-0.506969
-0.516875
-0.524811
-0.53131
-0.5368
-0.541531
-0.545108
-0.148367
-0.169425
-0.195692
-0.227678
-0.265958
-0.306947
-0.347391
-0.384211
-0.41511
-0.439541
-0.458395
-0.473051
-0.484719
-0.494229
-0.50211
-0.508707
-0.514346
-0.519172
-0.52281
-0.158741
-0.179271
-0.204837
-0.235331
-0.271273
-0.308968
-0.345258
-0.377436
-0.403951
-0.424895
-0.441371
-0.454617
-0.465556
-0.474756
-0.482543
-0.489136
-0.494788
-0.499588
-0.503198
-0.167951
-0.188135
-0.213203
-0.242408
-0.276131
-0.310545
-0.342716
-0.370499
-0.393117
-0.411134
-0.425673
-0.437735
-0.44796
-0.456697
-0.464132
-0.470402
-0.47572
-0.480158
-0.483446
-0.17634
-0.196512
-0.221482
-0.249776
-0.281488
-0.312682
-0.340856
-0.364612
-0.383894
-0.399523
-0.41249
-0.423519
-0.43301
-0.441153
-0.448051
-0.453797
-0.458579
-0.462484
-0.465331
-0.184116
-0.204815
-0.230324
-0.258218
-0.288081
-0.315957
-0.340067
-0.359974
-0.376264