/*--------------------------------*- C++ -*----------------------------------*\
| =========                 |                                                 |
| \\      /  F ield         | OpenFOAM: The Open Source CFD Toolbox           |
|  \\    /   O peration     | Version:  2312                                  |
|   \\  /    A nd           | Website:  www.openfoam.com                      |
|    \\/     M anipulation  |                                                 |
\*---------------------------------------------------------------------------*/
FoamFile
{
    version     2.0;
    format      ascii;
    arch        "LSB;label=32;scalar=64";
    class       volScalarField;
    location    "250";
    object      magR;
}
// * * * * * * * * * * * * * * * * * * * * * * * * * * * * * * * * * * * * * //

dimensions      [0 2 -2 0 0 0 0];

internalField   nonuniform List<scalar> 
10720
(
0.0240515
0.0318873
0.0421196
0.049672
0.0555197
0.0630149
0.0734875
0.0874099
0.106383
0.132944
0.171686
0.232284
0.330854
0.50596
0.840675
1.5719
3.09259
6.57939
12.9479
21.5482
34.0673
56.8958
106.605
205.372
355.94
497.57
999.915
1634.45
1134.01
469.36
143.568
17.8234
3.69409
0.338989
1.16012e-15
1.15814e-15
0.00281132
0.218439
15.1747
0.0336549
0.0388454
0.0314777
0.0260977
0.0136105
0.0231042
0.026386
0.0277411
0.0302486
0.0339842
0.0404644
0.0513178
0.0683483
0.0989758
0.144446
0.247942
0.363213
0.911681
1.2783
1.62027
2.17812
3.22974
4.52053
6.34655
8.57045
10.9563
10.0284
6.12935
2.53744
0.687478
0.0846061
0.00391343
0.000684467
0.000212617
1.23173e-15
0.712565
45.3962
87.9356
247.463
0.0256938
0.0257515
0.0229671
0.0160074
0.0115911
0.00948676
0.00855499
0.00797934
0.00760848
0.00734118
0.00719313
0.00703728
0.00794214
0.0117656
0.0220772
0.0499806
0.124581
0.33365
0.877535
2.08162
4.31138
8.01556
13.8624
24.718
72.0188
113.896
324.765
654.84
545.911
327.703
154.206
55.697
14.5754
1.53022
0.0299652
1.1659e-15
0.0208372
1.47519
12.9045
0.00329242
0.00545374
0.00356466
0.0103371
0.0138115
0.014023
0.00939659
0.00865952
0.00894289
0.0090661
0.00907301
0.00896021
0.00863236
0.00820548
0.0071777
0.0439839
0.063487
0.154658
0.235293
0.0332478
0.397094
0.0364373
0.18069
1.25038
0.161134
0.381559
0.0162376
0.0407097
0.0399825
0.0305235
0.0178268
0.00810592
0.00295231
0.000904487
1.77964e-05
0.0531009
3.25477
5.82451
66.0844
0.00317842
0.00372007
0.000903155
0.000503877
0.00167911
0.00290084
0.00295908
0.00305567
0.00317846
0.00332435
0.00349536
0.00369201
0.00393054
0.00387146
0.00494334
0.0113798
0.0240754
0.0620689
0.163896
0.397529
0.841591
1.59763
2.8298
0.242428
11.7241
25.4998
111.617
251.329
231.565
171.369
101.697
49.6401
17.803
3.3231
0.275887
1.20903e-15
0.0474297
1.50497
7.23799
0.00384409
0.0114384
0.0162322
0.0144915
0.00918876
0.00471099
0.00328764
0.00334036
0.0035422
0.00383708
0.00423291
0.00473769
0.00523564
0.00570475
0.00633677
0.0068855
0.00618001
0.00581834
0.00220919
0.00751867
0.000276088
0.00777956
0.0370099
0.000350711
0.0361606
0.0860714
0.00422963
0.00988756
0.00980327
0.00778479
0.00488635
0.00251154
0.00121875
0.000620683
0.000653866
1.24743e-15
0.783316
1.98717
34.8903
0.0103049
0.0109049
0.0112775
0.0116235
0.0119151
0.0121914
0.0124314
0.0126304
0.0128015
0.012952
0.0130879
0.0132135
0.0138901
0.013927
0.0133297
0.0133455
0.0123118
0.00949821
0.00543767
0.00172934
2.35025e-15
3.28762e-15
4.29629e-14
0.067671
0.389794
0.000908635
0.00029091
0.000915859
0.00153238
0.00377059
0.0234796
0.496754
3.34399
3.0185
0.921485
0.13225
0.133617
11.0941
5.45713
0.0170845
0.0163975
0.00978534
0.00613632
0.00605593
0.00518391
0.00361029
0.00356221
0.00354828
0.00345358
0.00331249
0.0032003
0.00306033
0.00290411
0.00283642
0.0028023
0.00226445
0.00213501
0.00056516
0.00138585
0.00175652
0.00231454
0.00223058
0.00195873
0.00227282
0.0023786
0.00249972
0.00257325
0.00260009
0.0026728
0.00264266
0.00247172
0.00220304
0.00172807
0.00280618
0.000734868
1.18922e-15
0.372902
25.5571
0.0191734
0.0175649
0.0171676
0.0169212
0.0166925
0.0165577
0.0164872
0.0164644
0.0164932
0.0165753
0.0167047
0.01688
0.0170984
0.0173926
0.0177403
0.0181666
0.0186191
0.0192134
0.0188723
0.0110436
0.00379709
0.00143759
2.21052e-15
2.63669e-15
0.0807023
0.000191427
6.2279e-05
0.000199012
0.000337608
0.000841399
0.00530166
0.113405
0.000435748
2.41682e-05
0.597923
0.487326
0.35512
15.0451
4.51466
0.0145094
0.0106936
0.00704639
0.00488584
0.00343075
0.0110167
0.011302
0.0114575
0.0116309
0.0118104
0.0115482
0.0100627
0.00873196
0.00756138
0.00654734
0.0060096
0.00511679
0.00423945
0.00394365
0.0037416
0.00357218
0.00338061
0.00319748
0.00304478
0.00291305
0.00280012
0.00270276
0.0026193
0.00254962
0.00248984
0.0024098
0.00233459
0.00229546
0.00233771
0.00203231
0.00300122
5.70849e-05
0.30269
19.8793
0.0163713
0.0165951
0.0166706
0.0168183
0.0167702
0.0155538
0.0145675
0.0137092
0.0130048
0.0124874
0.0121174
0.0118668
0.0117159
0.0116534
0.0116774
0.0118234
0.011991
0.0123646
0.0131975
0.0138934
0.0131388
0.00576781
0.00132451
0.000503798
1.44079e-15
1.1547e-15
1.1547e-15
1.1547e-15
1.1547e-15
1.1547e-15
1.1547e-15
1.1547e-15
9.99304e-05
5.61689e-06
8.93624e-07
7.94854e-06
3.20653e-05
0.00178385
1.0149
0.00766656
0.00359611
0.00302112
0.0172798
0.0187159
0.0195328
0.0196744
0.019889
0.0201728
0.0204853
0.0208202
0.0211953
0.0216124
0.0203458
0.0184028
0.0167394
0.0154328
0.0143456
0.013449
0.0127399
0.0121632
0.0116659
0.0112173
0.0107889
0.010372
0.00998807
0.00964737
0.00934055
0.00905541
0.00878338
0.00851292
0.00816315
0.00804182
0.00723096
0.00632731
0.00659818
0.000131348
0.23806
15.0084
0.00246419
0.00278995
0.00276961
0.00279068
0.00285831
0.00296716
0.00302703
0.00308795
0.00313042
0.00315315
0.00317778
0.0031942
0.00320594
0.00322263
0.00324438
0.0032954
0.00337586
0.00361416
0.00385797
0.00179871
0.00405779
0.00558932
0.00573976
0.00277247
0.00143999
1.3448e-06
1.1547e-15
1.1547e-15
1.1547e-15
1.1547e-15
1.1547e-15
1.1547e-15
1.1547e-15
1.1547e-15
2.07766e-07
1.86388e-06
1.1547e-15
0.000424653
8.30229e-15
0.00486358
0.0152457
0.0253029
0.0259752
0.0256111
0.0238423
0.0231275
0.0221718
0.0213055
0.0203636
0.0192942
0.0182497
0.0172646
0.0163129
0.0154878
0.014788
0.0140471
0.0133046
0.0126423
0.0120727
0.0115813
0.0111481
0.0107524
0.010375
0.0100101
0.00967211
0.00936861
0.00909253
0.00883513
0.00859019
0.00836328
0.00815598
0.00792799
0.0076305
0.00723828
0.00756715
0.000158438
0.179382
10.3954
0.0049651
0.00497936
0.00565534
0.00686687
0.0076643
0.0086926
0.00960438
0.0102648
0.010695
0.0109203
0.0109628
0.0108464
0.0105982
0.0102468
0.0098046
0.00935848
0.00889387
0.008881
0.00753562
0.0057139
0.00532079
0.00549822
0.00600508
0.00589438
0.00642379
6.82628e-06
3.3062e-07
1.1547e-15
1.1547e-15
1.1547e-15
1.1547e-15
1.1547e-15
1.1547e-15
1.1547e-15
1.1547e-15
1.1547e-15
1.1547e-15
1.72328e-15
3.2609e-14
0.0208102
0.0287253
0.0237308
0.0115467
0.00510227
0.00337387
0.0035349
0.00352538
0.00359062
0.00375774
0.0039486
0.00412377
0.00430698
0.00450798
0.00470128
0.00483434
0.00478197
0.00462969
0.0044476
0.00425878
0.00407049
0.00388659
0.00370912
0.00354167
0.00338842
0.00325146
0.00313341
0.00303288
0.00294746
0.00287338
0.00281081
0.00280149
0.00288284
0.00305451
0.00317222
0.00442763
9.70951e-05
0.112731
6.22067
0.021787
0.0209841
0.0207522
0.0205379
0.0206635
0.0209321
0.0210647
0.0208901
0.0205852
0.020187
0.019702
0.0191384
0.0184904
0.0178201
0.017026
0.0163317
0.015823
0.0150667
0.0139016
0.012429
0.0109172
0.00960737
0.00871224
0.00757369
0.00906593
2.15449e-05
1.08419e-06
1.1547e-15
1.1547e-15
1.1547e-15
1.1547e-15
1.1547e-15
1.1547e-15
1.1547e-15
1.1547e-15
1.1547e-15
1.1547e-15
1.1547e-15
8.63649e-15
0.0236507
0.013889
0.00224834
0.00158175
0.000614205
0.000443976
0.000464202
0.000460002
0.000462722
0.000488089
0.000520061
0.000553063
0.000592692
0.000638339
0.00068746
0.000731978
0.000749989
0.000752356
0.000747486
0.000738692
0.000727206
0.000713884
0.000699483
0.000684506
0.00066975
0.000656046
0.000644423
0.000634918
0.000627315
0.000621025
0.000616231
0.000622416
0.000648505
0.000695098
0.000752548
0.000922646
2.12299e-05
0.0578718
3.02729
0.015716
0.0141915
0.013373
0.0128277
0.0121504
0.0113823
0.0107588
0.0102437
0.00984108
0.00954128
0.00931926
0.00916312
0.00898798
0.00897862
0.00914286
0.00909662
0.00902146
0.00916533
0.00949937
0.00973891
0.00964069
0.00920226
0.00875418
0.00774409
0.00890899
4.71409e-05
2.46309e-06
1.1547e-15
1.1547e-15
1.1547e-15
1.1547e-15
1.1547e-15
1.1547e-15
1.1547e-15
1.1547e-15
1.1547e-15
1.1547e-15
1.1547e-15
1.1547e-15
0.00652058
0.00230585
0.000558642
0.000980734
8.10935e-05
0.000192209
0.000131505
9.15755e-05
2.58391e-05
0.00102875
0.000965621
0.000909142
0.000860449
0.000814063
0.000784207
0.000756258
0.00073138
0.000711672
0.000696803
0.000685794
0.000677729
0.000671766
0.000666953
0.00066193
0.000655549
0.000648874
0.000642602
0.000636544
0.000630298
0.000623481
0.000615893
0.000606831
0.000582681
0.000543833
0.000481791
0.000656313
0.000121654
0.0214273
1.07132
0.00246244
0.0027528
0.00161153
0.000889246
0.000353584
0.00142648
0.00131439
0.00127307
0.00124594
0.00122741
0.00122645
0.0012354
0.00124337
0.0012784
0.00136763
0.000281334
0.000666053
0.00111122
0.00172017
0.0026871
0.00386907
0.0048663
0.00557597
0.00554798
0.00729186
8.92114e-05
4.83726e-06
1.1547e-15
1.1547e-15
1.1547e-15
1.1547e-15
1.1547e-15
1.1547e-15
1.1547e-15
1.1547e-15
1.1547e-15
1.1547e-15
1.1547e-15
1.1547e-15
0.00100681
0.000839472
0.00199483
0.00644712
0.00782576
0.007653
0.0074118
0.00715689
0.00688296
0.00659544
0.00629864
0.00599992
0.00569877
0.00539318
0.00516895
0.00493083
0.00470369
0.00449394
0.00430472
0.00413571
0.00398482
0.00384842
0.00372334
0.00360745
0.00349948
0.00339914
0.00330627
0.00321961
0.00313705
0.00305668
0.00297725
0.00289529
0.00274657
0.00253477
0.00222228
0.00202629
0.000550762
0.00488308
0.23257
0.00053524
0.000631295
0.00060115
0.000570573
0.000599218
0.000645573
0.000704646
0.000758973
0.000801871
0.000829925
0.000853739
0.000869312
0.000878904
0.000884315
0.000882576
0.000917713
0.000967088
0.00102644
0.00111761
0.0012938
0.000186822
0.00105344
0.00205591
0.00254986
0.00469677
0.000144319
8.1151e-06
1.1547e-15
1.1547e-15
1.1547e-15
1.1547e-15
1.1547e-15
1.1547e-15
1.1547e-15
1.1547e-15
1.1547e-15
1.1547e-15
1.1547e-15
1.1547e-15
0.00140608
0.00450827
0.00868593
0.00891952
0.0085714
0.00838426
0.00817582
0.0079676
0.00775785
0.00754546
0.0073156
0.00707712
0.00682253
0.00656093
0.0063021
0.00605613
0.00582375
0.00560609
0.00540357
0.00521603
0.00504211
0.00487995
0.00472789
0.00458508
0.00445118
0.00432607
0.00420974
0.00410121
0.00399855
0.0038993
0.00380245
0.00371438
0.00361946
0.00349197
0.00331627
0.00305489
0.002758
0.000116796
0.00225979
0.00193864
0.00231185
0.00273471
0.00323138
0.00379877
0.00432445
0.00475156
0.00508752
0.00533988
0.00551246
0.00561641
0.00565986
0.00565721
0.0056121
0.00552132
0.00539528
0.00525056
0.0050854
0.00491825
0.00477871
0.00406868
0.00321065
0.00303543
0.0027226
0.00393649
0.000299174
1.74351e-05
1.1547e-15
1.1547e-15
1.1547e-15
1.1547e-15
1.1547e-15
1.1547e-15
1.1547e-15
1.1547e-15
1.1547e-15
1.1547e-15
1.1547e-15
1.1547e-15
0.00625916
0.00823744
0.00627148
0.00363915
0.00285068
0.00280587
0.00277462
0.00274055
0.00271548
0.0026996
0.00266585
0.00262523
0.00258072
0.00253375
0.00248381
0.00243081
0.00237486
0.00231664
0.00225672
0.00219579
0.0021345
0.00207369
0.00201388
0.00195654
0.00190291
0.00185281
0.00180649
0.00176397
0.00172477
0.00168802
0.00165318
0.00162467
0.00163355
0.00168282
0.00175851
0.00181938
0.00216291
0.000197525
0.000527061
0.00683734
0.00658033
0.00661637
0.00679273
0.00706115
0.00725212
0.00740378
0.0075058
0.00757155
0.00760844
0.00762025
0.00760292
0.00759601
0.00757786
0.007517
0.0074286
0.00732268
0.00716533
0.00707635
0.00697464
0.0064749
0.00569666
0.0050234
0.00421352
0.00444995
0.000732273
5.76169e-10
3.25672e-11
1.1547e-15
1.1547e-15
1.1547e-15
1.1547e-15
1.1547e-15
1.1547e-15
1.1547e-15
1.1547e-15
1.1547e-15
1.1547e-15
1.1547e-15
0.00690772
0.00368748
0.000779635
0.000557477
0.00038014
0.000386356
0.000387403
0.000380529
0.000375066
0.000372651
0.000365102
0.000357924
0.000353764
0.000350312
0.000348563
0.000348663
0.000349363
0.000350777
0.000352515
0.000354272
0.00035573
0.000356969
0.000357814
0.000357934
0.000356968
0.000355489
0.000354051
0.000352699
0.000351406
0.000350034
0.000348512
0.000347836
0.000354824
0.000371681
3.52166e-05
0.000227697
0.000621057
0.000647167
1.60344e-05
0.00475948
0.00433195
0.0040606
0.00381994
0.0036148
0.00345076
0.00333868
0.0032503
0.00319016
0.00316235
0.00316312
0.00317142
0.00325307
0.00337878
0.00345961
0.00352441
0.00358538
0.00371327
0.00389275
0.00409944
0.00440943
0.00463782
0.00458163
0.00419664
0.00433738
0.00141098
5.98985e-09
3.50933e-10
1.1547e-15
1.1547e-15
1.1547e-15
1.1547e-15
1.1547e-15
1.1547e-15
1.1547e-15
1.1547e-15
1.1547e-15
1.1547e-15
1.1547e-15
0.00181088
0.000662103
0.000157055
0.000175805
0.000185517
0.000188424
0.000187386
0.000181807
0.000175869
0.000170616
0.000163658
0.000157064
0.000152171
0.000147831
0.000144652
0.000142701
0.000141492
0.000141006
0.000141124
0.000141671
0.000142484
0.000143548
0.000144753
0.000145737
0.000146068
0.000146069
0.000145976
0.000145795
0.000145497
0.000145029
0.000144353
0.000143277
0.000139728
0.000127863
0.000117311
0.000136848
0.000202847
0.000211521
1.23013e-05
0.000654764
0.000656528
0.000229175
0.000515218
0.000470618
0.000457172
0.000438248
0.000428598
0.000423116
0.000420346
0.00042527
0.00043218
0.000450454
0.000477471
0.000499854
0.000521615
0.000551836
8.06499e-05
0.000217663
0.000423186
0.000856818
0.00142328
0.00203088
0.00243934
0.002904
0.00173009
2.4058e-08
1.46015e-09
1.1547e-15
1.1547e-15
1.1547e-15
1.1547e-15
1.1547e-15
1.1547e-15
1.1547e-15
1.1547e-15
1.1547e-15
1.1547e-15
1.15872e-15
0.00029694
0.000206923
0.000360152
0.00116366
0.00120312
0.0011894
0.00117506
0.00115897
0.00114134
0.00112342
0.00110425
0.00108384
0.00106321
0.00104237
0.00102122
0.00100002
0.00097888
0.000957836
0.000937091
0.000916773
0.000896972
0.000877733
0.000859063
0.000841038
0.000823595
0.000806593
0.000790039
0.000773969
0.000758263
0.00074271
0.000727112
0.000710496
0.00068279
0.000616248
0.000521004
0.000403294
0.000261178
0.000290474
3.10253e-05
0.000132954
0.000157061
0.000142595
0.00013298
0.000156778
0.000180246
0.000183657
0.000187249
0.000193294
0.000198048
0.000203531
0.000208154
0.000211901
0.000215408
0.000217965
0.000219852
0.000221134
0.000234169
0.000256102
0.000288754
0.000342479
0.000419932
0.00051206
0.000342279
0.000909751
0.00119396
5.53207e-08
3.47582e-09
1.1547e-15
1.1547e-15
1.1547e-15
1.1547e-15
1.1547e-15
1.1547e-15
1.1547e-15
1.1547e-15
1.1547e-15
1.15669e-15
1.21503e-15
0.000424851
0.00123139
0.00276481
0.00311634
0.0030892
0.00303709
0.00299033
0.0029513
0.00291613
0.00288294
0.00285006
0.00281636
0.00278208
0.00274659
0.00270927
0.00267027
0.00262948
0.00258689
0.00254275
0.0024973
0.00245078
0.00240342
0.00235551
0.00230758
0.00226009
0.00221321
0.00216733
0.00212269
0.00207914
0.0020362
0.00199323
0.00194997
0.00190549
0.00182463
0.00170583
0.00154322
0.00130476
0.00103639
0.000747547
0.000379502
0.000535021
0.000749425
0.000924506
0.00107479
0.00121581
0.00125523
0.0012792
0.00132009
0.0013597
0.00139263
0.00141731
0.00143326
0.00144053
0.00143947
0.00143124
0.00141735
0.00139878
0.00137631
0.00134566
0.00120578
0.00105804
0.00077697
0.000595797
0.000626703
0.000953965
1.52655e-07
9.92249e-09
1.1547e-15
1.1547e-15
1.1547e-15
1.1547e-15
1.1547e-15
1.1547e-15
1.1547e-15
1.1547e-15
1.1547e-15
1.15584e-15
1.15609e-15
0.00204972
0.00315503
0.00277758
0.00224248
0.00218996
0.00215078
0.00211502
0.0020884
0.00206772
0.00204987
0.00203445
0.00202007
0.0020053
0.0019897
0.00197275
0.00195401
0.00193322
0.00191033
0.00188524
0.00185799
0.00182871
0.0017976
0.00176485
0.00173109
0.00169728
0.00166394
0.00163123
0.00159932
0.00156819
0.00153757
0.00150715
0.00147669
0.00145352
0.00144635
0.0014399
0.00142083
0.00136111
0.001218
0.0010023
0.00258305
0.00254676
0.00268749
0.00283429
0.00294943
0.0030682
0.00308574
0.00308642
0.00314259
0.00318355
0.00321215
0.00323101
0.00324152
0.00324355
0.00323698
0.00322276
0.00320156
0.00317209
0.00313429
0.0030837
0.00298333
0.00269551
0.00239443
0.00205293
0.0015607
0.00139051
6.47264e-07
4.34952e-08
1.1547e-15
1.1547e-15
1.1547e-15
1.1547e-15
1.1547e-15
1.1547e-15
1.1547e-15
1.1547e-15
1.1547e-15
1.1547e-15
1.17202e-15
0.00312217
0.00199473
0.000826299
0.000360201
0.000338006
0.000336527
0.000329655
0.000321886
0.000316263
0.00031255
0.000309976
0.000308259
0.00030716
0.000306516
0.00030612
0.00030586
0.00030559
0.000305229
0.000304652
0.0003038
0.000302611
0.000301074
0.000299267
0.000297381
0.000295556
0.000293749
0.000291897
0.000290014
0.000288098
0.000286056
0.000283968
0.000280862
0.000280098
0.000320572
0.000400445
0.000513453
0.000658401
0.000788785
0.000804351
0.00246924
0.0022337
0.00212658
0.0020716
0.00202279
0.00197355
0.00196797
0.00195305
0.00193972
0.00193025
0.00192456
0.00192315
0.00192599
0.00193211
0.00194082
0.00195202
0.00196592
0.00198142
0.00199712
0.00202744
0.00210414
0.00216906
0.00216437
0.00211046
0.00191441
0.00173349
2.28945e-06
1.58939e-07
1.1547e-15
1.1547e-15
1.1547e-15
1.1547e-15
1.1547e-15
1.1547e-15
1.1547e-15
1.1547e-15
1.1547e-15
3.04855e-15
1.19278e-15
0.00113673
5.22241e-05
0.000124208
5.18053e-05
4.96166e-05
5.07652e-05
5.00963e-05
4.81484e-05
4.64799e-05
4.52606e-05
4.37062e-05
4.23443e-05
4.15098e-05
4.08716e-05
4.06076e-05
4.08147e-05
4.12952e-05
4.2088e-05
4.31268e-05
4.436e-05
4.57095e-05
4.71541e-05
4.86656e-05
5.00755e-05
5.12119e-05
5.21949e-05
5.31386e-05
5.40378e-05
5.48877e-05
5.56617e-05
5.63724e-05
5.68236e-05
5.76946e-05
6.71588e-05
8.52409e-05
0.000110995
1.13432e-06
0.000222103
0.000429718
0.000537802
0.000555958
0.000393068
0.000292378
0.000221806
0.000165801
0.000124489
9.71031e-05
7.78224e-05
6.4893e-05
5.80986e-05
5.70826e-05
6.14436e-05
7.08873e-05
8.52705e-05
0.000104464
0.000128859
0.000158733
0.00019263
0.00023163
0.000332603
0.000540776
0.000786913
0.0010582
0.00121061
0.0014795
6.14449e-06
4.40343e-07
1.1547e-15
1.1547e-15
1.1547e-15
1.1547e-15
1.1547e-15
1.1547e-15
1.1547e-15
1.1547e-15
1.1547e-15
1.15524e-15
1.15884e-15
0.000209599
2.09106e-05
0.000109117
0.000134246
0.00013956
0.000143974
0.000145119
0.000142012
0.000138136
0.000134476
0.000129134
0.000123874
0.000120007
0.000116492
0.000113986
0.00011284
0.000112434
0.000112926
0.00011419
0.000115993
0.000118178
0.000120647
0.000123354
0.000125674
0.000127022
0.000127843
0.000128546
0.000129121
0.000129564
0.000129845
0.000129941
0.000129863
0.000129676
0.000126173
0.00011666
9.96133e-05
7.64698e-05
0.000104075
0.000101258
7.12907e-05
7.47324e-05
5.64318e-05
4.03135e-05
3.09167e-05
2.3413e-05
1.73596e-05
1.65734e-05
1.63962e-05
1.64003e-05
1.69886e-05
1.80776e-05
1.96784e-05
2.18412e-05
2.44907e-05
2.77417e-05
3.17594e-05
3.66971e-05
4.2427e-05
4.89766e-05
6.42622e-05
9.22992e-05
0.000129693
1.76508e-05
0.00023011
0.000743768
1.14088e-05
8.43548e-07
1.1547e-15
1.1547e-15
1.1547e-15
1.1547e-15
1.1547e-15
1.1547e-15
1.1547e-15
1.1547e-15
1.1547e-15
1.15474e-15
1.1698e-15
9.42019e-05
0.000102108
0.000718218
0.000882126
0.000900804
0.000906518
0.000909963
0.00090871
0.00090417
0.000898163
0.000891897
0.000885442
0.0008789
0.0008724
0.000865738
0.000858801
0.000851523
0.000843765
0.000835436
0.000826446
0.000816743
0.00080627
0.000795032
0.000783209
0.000771065
0.000758672
0.000746073
0.00073336
0.000720564
0.000707653
0.000694553
0.000681333
0.000668369
0.000639376
0.000581681
0.00048906
0.000368777
0.000246559
0.000206292
0.000197224
0.000129286
0.000146184
0.000145997
0.000151749
0.000157291
5.48084e-07
2.16782e-05
3.92563e-05
5.27446e-05
6.3388e-05
7.18557e-05
7.84609e-05
8.3169e-05
8.58832e-05
8.70875e-05
8.73583e-05
8.71675e-05
8.68325e-05
8.52857e-05
7.59551e-05
3.60243e-05
0.000149693
0.000126705
0.000160626
0.000256937
1.8491e-05
1.45298e-06
1.1547e-15
1.1547e-15
1.1547e-15
1.1547e-15
1.1547e-15
1.1547e-15
1.1547e-15
1.1547e-15
1.1547e-15
1.1547e-15
1.15506e-15
0.000604725
0.00124782
0.001467
0.00142424
0.00141216
0.00139592
0.00138441
0.00137527
0.00136662
0.00135826
0.00135064
0.00134351
0.00133657
0.00132977
0.00132287
0.00131563
0.00130792
0.00129956
0.00129038
0.00128019
0.00126886
0.00125625
0.0012422
0.00122681
0.00121041
0.00119323
0.00117536
0.00115694
0.00113806
0.00111873
0.00109884
0.00107865
0.00106013
0.0010371
0.000995303
0.000927484
0.000821493
0.000648526
0.000474933
0.00092588
0.000923311
0.000975848
0.00101567
0.00104417
0.00106759
0.00108568
0.0010997
0.00111137
0.00112069
0.00112759
0.00113564
0.00114211
0.0011435
0.00114095
0.00113661
0.0011312
0.0011247
0.00111695
0.00110819
0.00109978
0.00103627
0.000916795
0.000768661
0.000618379
0.000569412
9.27642e-05
2.52284e-07
1.88036e-08
1.1547e-15
1.1547e-15
1.1547e-15
1.1547e-15
1.1547e-15
1.1547e-15
1.1547e-15
1.1547e-15
1.1547e-15
1.15471e-15
0.00153723
0.00131618
0.000847809
0.000693673
0.000664808
0.000645825
0.00063263
0.000625711
0.000621721
0.000619104
0.000617185
0.000615631
0.000614108
0.00061252
0.00061081
0.000608873
0.000606667
0.000604111
0.000601121
0.000597603
0.000593533
0.000588853
0.000583477
0.000577442
0.000571
0.000564179
0.000557014
0.000549645
0.000542004
0.000534002
0.00052575
0.000517233
0.000509751
0.000514643
0.000537134
0.000568916
0.000593887
0.000586084
0.000511576
0.00148136
0.00137173
0.00135741
0.00134881
0.001336
0.00132348
0.00131389
0.00130561
0.00129926
0.00129476
0.00128944
0.00129099
0.00129429
0.00128996
0.00128411
0.00128013
0.00127692
0.00127358
0.00126943
0.00126516
0.00126977
0.00126527
0.00121917
0.00115075
0.00102886
0.000891944
0.00035322
4.48932e-06
3.45042e-07
1.1547e-15
1.1547e-15
1.1547e-15
1.1547e-15
1.1547e-15
1.1547e-15
1.1547e-15
1.1547e-15
1.1547e-15
1.1547e-15
0.00100044
0.000402159
0.000171541
0.000104675
0.000102124
0.000101696
0.000100044
9.69712e-05
9.41503e-05
9.17886e-05
8.82584e-05
8.47514e-05
8.21536e-05
7.9691e-05
7.79243e-05
7.71486e-05
7.69606e-05
7.75304e-05
7.87601e-05
8.05263e-05
8.27025e-05
8.52481e-05
8.80858e-05
9.06428e-05
9.23705e-05
9.36392e-05
9.48243e-05
9.59208e-05
9.69071e-05
9.77297e-05
9.84015e-05
9.89281e-05
9.95424e-05
0.000102505
0.000111823
5.61253e-05
0.000155311
0.000272567
0.00033571
0.000624828
0.00061645
0.000551609
0.000509798
0.000476047
0.000447391
0.000425615
0.000408602
0.000395444
0.000385751
0.000376008
0.000373927
0.000377705
0.000372342
0.000368471
0.000372029
0.000376615
0.000382033
0.000388427
0.000400731
0.000414876
0.000458408
0.00053823
0.000624498
0.000674717
0.000703907
0.000521999
2.18406e-05
1.72969e-06
1.1547e-15
1.1547e-15
1.1547e-15
1.1547e-15
1.1547e-15
1.1547e-15
1.1547e-15
1.1547e-15
1.1547e-15
1.155e-15
5.43047e-05
6.14076e-05
1.31207e-06
1.07334e-05
1.14394e-05
1.22015e-05
1.24841e-05
1.16578e-05
1.05759e-05
9.64744e-06
8.77208e-06
8.03855e-06
7.51734e-06
7.0849e-06
6.76044e-06
6.56962e-06
6.45759e-06
6.43699e-06
6.4928e-06
6.6197e-06
6.79651e-06
7.0237e-06
7.3012e-06
7.57817e-06
7.77736e-06
7.9179e-06
8.04288e-06
8.15749e-06
8.2635e-06
8.35855e-06
8.4432e-06
8.51563e-06
8.51704e-06
7.88648e-06
5.08923e-06
1.2226e-05
3.23688e-05
6.22596e-05
0.000106882
8.64572e-05
8.63796e-05
8.25128e-05
7.30324e-05
6.88071e-05
6.53893e-05
6.09287e-05
5.81478e-05
5.59124e-05
5.37875e-05
5.22036e-05
5.17348e-05
5.21715e-05
5.16566e-05
5.14282e-05
5.24201e-05
5.36796e-05
5.51783e-05
5.69009e-05
5.95712e-05
6.25511e-05
6.99797e-05
8.68982e-05
3.96915e-05
0.000161666
0.000275367
0.000385003
5.81658e-05
4.7491e-06
1.1547e-15
1.1547e-15
1.1547e-15
1.1547e-15
1.1547e-15
1.1547e-15
1.1547e-15
1.1547e-15
1.1547e-15
1.1547e-15
1.13379e-05
5.36609e-05
8.55596e-06
6.99652e-05
7.33411e-05
7.63989e-05
7.79574e-05
7.4462e-05
6.93217e-05
6.47849e-05
6.13257e-05
5.86694e-05
5.67665e-05
5.53556e-05
5.42231e-05
5.33684e-05
5.27074e-05
5.21909e-05
5.17798e-05
5.14765e-05
5.12157e-05
5.09896e-05
5.08382e-05
5.07538e-05
5.0623e-05
5.03303e-05
4.99355e-05
4.94818e-05
4.89862e-05
4.84515e-05
4.7891e-05
4.72954e-05
4.63459e-05
4.20766e-05
2.66388e-05
3.78917e-06
6.54349e-05
4.99869e-05
8.36312e-06
3.51043e-05
2.87915e-05
3.16712e-05
3.15205e-05
3.31352e-05
3.49039e-05
3.52552e-05
3.59316e-05
3.64478e-05
3.64991e-05
3.67813e-05
3.69917e-05
3.71586e-05
3.74686e-05
3.77586e-05
3.8099e-05
3.84444e-05
3.87742e-05
3.90696e-05
3.93098e-05
3.93199e-05
3.71507e-05
3.15267e-05
3.03123e-05
4.32714e-05
6.37377e-05
9.9446e-05
6.91959e-05
3.5826e-08
2.86341e-09
1.1547e-15
1.1547e-15
1.1547e-15
1.1547e-15
1.1547e-15
1.1547e-15
1.1547e-15
1.1547e-15
1.1547e-15
2.81664e-05
0.000379236
0.00058805
0.000619907
0.000619446
0.000617145
0.000615406
0.000607932
0.00059821
0.000589905
0.000583792
0.000579161
0.000575463
0.000572296
0.000569365
0.000566569
0.000563783
0.000560864
0.00055775
0.000554372
0.000550671
0.000546558
0.000541996
0.00053699
0.000531545
0.000525655
0.000519377
0.000512765
0.000505831
0.000498561
0.000490915
0.000482899
0.000474506
0.000465119
0.000440179
0.000397728
0.000332431
0.00024823
0.000180241
0.000228808
0.000203524
0.000209546
0.000217912
0.000227048
0.000236528
0.000244149
0.000250532
0.000256033
0.000260409
0.000263959
0.000266819
0.000268991
0.000270564
0.000271573
0.000272032
0.000271972
0.000271394
0.000270336
0.00026882
0.000265997
0.000249177
0.000210086
0.000160727
0.000118775
6.71555e-05
6.63105e-05
0.000102312
8.07111e-06
7.87983e-07
1.1547e-15
1.1547e-15
1.1547e-15
1.1547e-15
1.1547e-15
1.1547e-15
1.1547e-15
1.1547e-15
1.1547e-15
0.00066815
0.00075733
0.000667023
0.000638154
0.000632971
0.00062649
0.000624198
0.000620498
0.000614705
0.000609751
0.000606284
0.000603699
0.000601399
0.000599167
0.000596987
0.000593794
0.000590191
0.000586343
0.000582325
0.00057812
0.000573692
0.000568951
0.000563782
0.000558089
0.000551981
0.000545565
0.000538876
0.000531892
0.000524614
0.000517022
0.000509074
0.000500817
0.000492154
0.000486436
0.000481099
0.000468005
0.000437693
0.000381279
0.000303016
0.000759762
0.000688239
0.000672477
0.000669627
0.000667521
0.000666465
0.000665835
0.000665314
0.00066525
0.00066514
0.000664888
0.000664525
0.000663818
0.00066276
0.000661331
0.000659478
0.000657201
0.000654447
0.00065115
0.000647273
0.000643035
0.00063232
0.000600852
0.000550904
0.000485277
0.00040582
0.000329175
0.000272288
6.24093e-05
7.42905e-07
5.99866e-08
1.1547e-15
1.1547e-15
1.1547e-15
1.1547e-15
1.1547e-15
1.1547e-15
1.1547e-15
1.1547e-15
0.00073298
0.000410855
0.000173242
0.000127358
0.000124338
0.00012151
0.000121373
0.000123617
0.000124451
0.000124748
0.00012497
0.000124987
0.000124655
0.000124141
0.000123685
0.000124574
0.000127273
0.000130351
0.000133316
0.000136055
0.000138509
0.000140697
0.000142595
0.000144059
0.00014498
0.000145464
0.000145577
0.000145313
0.000144719
0.000143804
0.000142595
0.00014105
0.000138917
0.000141558
0.000157155
0.000178288
0.000212687
0.00024518
0.000237625
0.000585722
0.000554837
0.000527248
0.000508898
0.000492916
0.000478491
0.000467857
0.000459582
0.00045322
0.000448486
0.000444643
0.000441417
0.000438655
0.000436167
0.000433902
0.000431833
0.00042993
0.000428178
0.000426561
0.000425016
0.000424738
0.000432104
0.000446656
0.000455589
0.000449578
0.000435451
0.000399508
0.000345177
0.000177132
8.76217e-06
7.28676e-07
1.1547e-15
1.1547e-15
1.1547e-15
1.1547e-15
1.1547e-15
1.1547e-15
1.1547e-15
1.1547e-15
0.000239171
8.43105e-05
2.69886e-05
1.98415e-05
1.96867e-05
1.96912e-05
1.97135e-05
1.96164e-05
1.92209e-05
1.87706e-05
1.80011e-05
1.71529e-05
1.64324e-05
1.56883e-05
1.50881e-05
1.48759e-05
1.5002e-05
1.53652e-05
1.59113e-05
1.66257e-05
1.74769e-05
1.84851e-05
1.9638e-05
2.07322e-05
2.15217e-05
2.21374e-05
2.27232e-05
2.32653e-05
2.37643e-05
2.4211e-05
2.46056e-05
2.49347e-05
2.51458e-05
2.6224e-05
2.97805e-05
3.45464e-05
4.49374e-05
5.23127e-05
0.000106998
0.000101913
0.000120024
9.55625e-05
8.06259e-05
6.98824e-05
6.06698e-05
5.34199e-05
4.8095e-05
4.39966e-05
4.08967e-05
3.84881e-05
3.65741e-05
3.51006e-05
3.40267e-05
3.3322e-05
3.30042e-05
3.30907e-05
3.3596e-05
3.45475e-05
3.57725e-05
3.68322e-05
4.41595e-05
7.61956e-05
0.000120743
0.000167979
0.000216701
0.000251723
0.000261794
0.000225836
3.67055e-05
3.47934e-06
1.1547e-15
1.1547e-15
1.1547e-15
1.1547e-15
1.1547e-15
1.1547e-15
1.1547e-15
1.1547e-15
4.47132e-05
1.22878e-05
2.21803e-05
2.27593e-05
2.25919e-05
2.29775e-05
2.28912e-05
2.21727e-05
2.14121e-05
2.07045e-05
1.96682e-05
1.85916e-05
1.77129e-05
1.68281e-05
1.60939e-05
1.52808e-05
1.47511e-05
1.44866e-05
1.44508e-05
1.46056e-05
1.4909e-05
1.53598e-05
1.59378e-05
1.64739e-05
1.6781e-05
1.69744e-05
1.71743e-05
1.73711e-05
1.75617e-05
1.77388e-05
1.79006e-05
1.80448e-05
1.81742e-05
1.82487e-05
1.71399e-05
1.42063e-05
9.85254e-06
1.61682e-05
2.5438e-05
1.45286e-05
1.7306e-05
1.47002e-05
1.18551e-05
1.03531e-05
9.07583e-06
7.80489e-06
6.96578e-06
6.31037e-06
5.75843e-06
5.37277e-06
5.06356e-06
4.82564e-06
4.67478e-06
4.58204e-06
4.55722e-06
4.59816e-06
4.70633e-06
4.88316e-06
5.10329e-06
5.29793e-06
6.38594e-06
1.10527e-05
1.74967e-05
2.46923e-05
1.81727e-06
5.62982e-05
0.000105668
0.000152382
7.28787e-05
2.06587e-06
1.73726e-07
1.1547e-15
1.1547e-15
1.1547e-15
1.1547e-15
1.1547e-15
1.1547e-15
1.1547e-15
3.72305e-05
8.72161e-05
0.000142777
0.000146608
0.00014328
0.00014245
0.000141695
0.000140649
0.000139755
0.000138944
0.000138248
0.000137621
0.000137041
0.000136463
0.000135912
0.000132536
0.000130262
0.000128532
0.000127095
0.000125798
0.000124552
0.000123283
0.000121938
0.00012054
0.000119158
0.000117784
0.000116376
0.000114924
0.00011342
0.000111857
0.000110233
0.000108549
0.000106825
0.000104837
9.62613e-05
7.80095e-05
5.29205e-05
2.98986e-05
1.93968e-05
6.01969e-05
3.43033e-05
3.5152e-05
3.37142e-05
3.43776e-05
3.51846e-05
3.46989e-05
3.46325e-05
3.44687e-05
3.3922e-05
3.36358e-05
3.32969e-05
3.29539e-05
3.27867e-05
3.26408e-05
3.25781e-05
3.25678e-05
3.25874e-05
3.26104e-05
3.2616e-05
3.25586e-05
3.24172e-05
3.06958e-05
2.75203e-05
2.35176e-05
1.96316e-05
2.50139e-05
5.8592e-06
5.15411e-05
7.12204e-05
1.13584e-05
1.29307e-06