/*--------------------------------*- C++ -*----------------------------------*\
| =========                 |                                                 |
| \\      /  F ield         | OpenFOAM: The Open Source CFD Toolbox           |
|  \\    /   O peration     | Version:  2312                                  |
|   \\  /    A nd           | Website:  www.openfoam.com                      |
|    \\/     M anipulation  |                                                 |
\*---------------------------------------------------------------------------*/
FoamFile
{
    version     2.0;
    format      ascii;
    arch        "LSB;label=32;scalar=64";
    class       volVectorField;
    location    "250";
    object      momentError;
}
// * * * * * * * * * * * * * * * * * * * * * * * * * * * * * * * * * * * * * //

dimensions      [0 1 -2 0 0 0 0];

internalField   nonuniform List<vector> 
10720
(
(0.0609338 0.504989 -1.04988e-15)
(-0.252657 0.353231 -1.60157e-15)
(-0.231507 -0.0879664 -1.91999e-14)
(-0.102544 -0.454578 8.04876e-14)
(-0.113976 -0.763992 6.0573e-14)
(-0.254971 -0.938364 -1.48793e-13)
(-0.430905 -1.00514 -1.20425e-13)
(-0.608404 -1.03587 -9.45801e-14)
(-0.77504 -1.04825 1.84538e-14)
(-0.917947 -1.04097 5.04878e-15)
(-1.01561 -1.0223 -1.58546e-14)
(-1.04663 -0.906519 6.24018e-14)
(-1.1063 -0.900955 -2.04644e-13)
(-1.01387 -0.76247 -3.75754e-13)
(-0.80655 -0.574151 6.96386e-14)
(-0.545224 -0.367126 -1.00059e-13)
(-0.24129 -0.208238 1.08961e-13)
(0.022252 -0.0972649 8.54692e-13)
(0.163271 0.0432808 2.30679e-13)
(0.274888 0.189232 -4.76439e-13)
(0.455252 0.247557 -2.08677e-13)
(0.654261 0.125457 5.68112e-14)
(0.65756 -0.218522 4.27117e-13)
(0.536176 -0.314137 -3.17309e-13)
(-0.784074 -0.19821 5.70411e-14)
(-1.2939 0.0625839 -3.30334e-14)
(-0.986114 0.269269 -4.61385e-14)
(-0.503821 -0.00467164 1.90463e-14)
(-0.594652 -0.0807683 -2.38548e-15)
(-0.865337 0.0481508 1.2582e-13)
(-0.14978 0.00414027 5.67977e-14)
(1.07094 -0.118838 -1.03597e-13)
(0.621707 -0.212841 -8.33734e-14)
(0.873934 -0.34276 -1.60874e-13)
(-8.7427 0.988851 -4.24178e-14)
(-11.1159 1.61629 3.58837e-14)
(-2.12807 0.682356 -4.21316e-13)
(3.04467 -0.458519 -1.46025e-13)
(-1.5738 0.803773 2.07655e-13)
(0.347375 0.451886 1.14696e-14)
(0.510618 0.332864 -2.40828e-14)
(0.667771 0.30368 2.72078e-14)
(0.677142 0.359112 1.15977e-13)
(0.499641 0.444475 4.87969e-14)
(0.258333 0.318089 -3.06975e-13)
(0.0782879 0.139068 -1.15929e-13)
(0.0144221 0.0963919 1.33363e-13)
(0.134636 -0.0069564 -7.226e-14)
(0.249115 -0.151916 6.16357e-14)
(0.433294 -0.333643 -7.50669e-14)
(0.588343 -0.371172 -1.33182e-13)
(0.591198 -0.287453 3.39397e-14)
(0.471385 -0.169438 6.74968e-14)
(0.309195 -0.0701348 -1.10896e-13)
(0.156722 -0.0248704 -9.59686e-14)
(0.0451278 0.0260599 -6.78934e-14)
(-0.0641715 -0.0624881 -8.20491e-14)
(-0.115408 0.0138415 -3.00251e-14)
(-0.134838 0.093541 -2.22456e-15)
(-0.175261 0.0957236 2.75875e-14)
(0.0268183 0.61434 5.50821e-14)
(-0.195005 0.0471906 -2.50063e-14)
(-0.136184 0.186423 -1.81317e-14)
(-0.165918 0.0438392 1.9913e-14)
(-0.194938 -0.0892448 -3.63853e-15)
(-0.0917029 0.00185432 -5.10337e-17)
(-0.0216195 0.00439167 -3.8959e-16)
(0.082486 0.00295385 -2.54379e-16)
(0.0954292 -0.00203509 8.09105e-16)
(0.13743 -0.00339086 2.86837e-15)
(0.241375 0.00448776 -1.51218e-15)
(0.285632 0.0144493 -2.59042e-15)
(0.229323 0.00850877 -3.37197e-14)
(0.301111 0.0357443 -3.09922e-14)
(0.463682 -0.0888662 1.71045e-14)
(1.096 0.610744 2.4114e-15)
(-1.98567 -0.900827 -4.06962e-15)
(0.216855 -0.320691 -2.68366e-14)
(1.00768 -0.318553 -4.89241e-15)
(0.882832 -0.366 3.78172e-15)
(0.587256 -0.504342 -2.20389e-15)
(0.609707 -0.692318 -6.01748e-15)
(0.547867 -0.795984 7.73347e-15)
(0.39107 -0.822298 5.48273e-14)
(0.228318 -0.837463 6.77354e-14)
(0.0813619 -0.822669 2.45156e-14)
(-0.0511067 -0.791474 -7.64147e-14)
(-0.166025 -0.752456 -3.40312e-14)
(-0.246753 -0.675516 -2.35233e-13)
(-0.309547 -0.598792 -4.27682e-13)
(-0.24953 -0.312309 -2.14405e-14)
(-0.154999 -0.0878752 -1.82318e-14)
(0.0226712 0.0883276 -8.00679e-14)
(0.135273 0.288838 8.30504e-14)
(0.222163 0.419116 3.64158e-13)
(0.267481 0.42063 -6.67651e-13)
(0.258503 0.2785 -5.32237e-13)
(0.119543 0.0807659 -3.50822e-13)
(-0.268077 -0.0179184 2.44222e-13)
(-0.883728 0.111799 1.979e-13)
(-0.811167 0.303675 -3.11751e-13)
(-3.42329 5.8836 5.40885e-14)
(-0.0939058 -1.12284 -2.08685e-15)
(-0.177601 -0.671799 -3.26635e-14)
(-0.763144 -0.373776 -9.78656e-16)
(-1.35545 -0.358832 1.04312e-14)
(-1.06083 -0.096817 -1.52362e-14)
(-0.70577 -0.011305 5.46099e-14)
(-0.374216 -0.00408195 2.67882e-14)
(-0.641286 0.0265113 4.92471e-16)
(-1.28597 -0.201089 -9.57496e-14)
(5.53514 -1.49103 -1.70105e-13)
(-21.35 3.71414 1.40177e-13)
(-11.4581 2.24619 7.259e-14)
(7.2598 0.726584 1.74054e-13)
(-1.16041 0.131638 1.59163e-13)
(6.98442 -2.88462 -1.13299e-13)
(1.04036 -0.275092 -1.83122e-14)
(0.954332 -0.182792 1.68561e-13)
(0.843319 -0.0583597 -5.18632e-14)
(0.779853 0.0913691 -1.26718e-13)
(0.648931 0.20459 7.77237e-14)
(0.443941 0.171963 8.3908e-14)
(0.208754 0.0924058 -6.70365e-14)
(0.132579 0.0541365 1.70183e-13)
(0.192875 -0.0502176 8.07286e-14)
(0.277238 -0.194578 -6.64113e-14)
(0.421118 -0.289463 6.92222e-14)
(0.558006 -0.231335 -9.68382e-14)
(0.588803 -0.0756869 2.33985e-14)
(0.511141 0.083461 9.67349e-15)
(0.37167 0.18976 2.23898e-14)
(0.24189 0.245003 2.49863e-14)
(0.102428 0.244881 4.48134e-14)
(0.0537039 0.308106 -1.31461e-14)
(-0.0135802 0.240827 2.79563e-15)
(-0.122803 0.141049 -6.3723e-15)
(-0.135298 0.108219 1.65468e-14)
(-0.514182 -0.441601 4.75749e-14)
(-0.232262 0.0873172 -1.60675e-15)
(-0.291335 -0.0999121 -1.37888e-14)
(-0.17277 0.0595841 -1.22302e-14)
(0.00520662 0.285112 1.4578e-14)
(-0.0710718 0.0327553 3.49148e-15)
(-0.00961373 0.0187797 -9.67093e-16)
(0.0479894 0.0029576 4.68572e-17)
(0.157368 0.0127918 -9.64338e-17)
(0.17789 -0.00153356 -2.14178e-16)
(0.134152 0.0112202 -4.26429e-15)
(0.132459 0.0246987 6.61237e-15)
(0.179911 0.0250148 2.67377e-14)
(0.204739 0.0517913 5.5364e-15)
(0.27002 0.134426 -1.20926e-14)
(-0.399357 0.150728 4.67951e-15)
(2.3398 1.60427 -1.9006e-15)
(1.79343 0.987255 -2.22979e-14)
(0.234891 -0.422587 1.91917e-15)
(0.0239323 -0.487937 3.31319e-15)
(-0.13359 -0.563168 4.05344e-16)
(-0.187363 -0.651676 -5.86589e-15)
(-0.266226 -0.639868 4.42946e-14)
(-0.397298 -0.608808 -5.34233e-14)
(-0.535932 -0.582569 -6.93011e-14)
(-0.648336 -0.540362 1.32373e-13)
(-0.73527 -0.489052 5.63164e-14)
(-0.796787 -0.430451 8.07758e-14)
(-0.818949 -0.347918 1.76317e-14)
(-0.800665 -0.24045 2.83378e-15)
(-0.728737 -0.108687 3.24512e-13)
(-0.58449 0.0522957 9.71435e-15)
(-0.402506 0.236556 2.05852e-13)
(-0.0346308 0.339141 -4.22818e-15)
(0.279113 0.423638 -6.47626e-13)
(0.428981 0.444744 3.96254e-13)
(0.366017 0.402173 8.89462e-13)
(0.161773 0.283822 1.6408e-13)
(0.00675497 0.106071 -5.22926e-14)
(0.0554397 0.0384903 -1.90204e-14)
(-0.591774 -0.449973 1.25708e-13)
(-1.02063 -6.9072 1.08687e-13)
(1.78668 1.7877 -9.0056e-14)
(0.882369 0.422145 -8.046e-15)
(0.151096 -0.178854 -2.92582e-14)
(-0.368499 -0.224086 1.18032e-14)
(-0.596821 -0.161436 -3.06653e-14)
(-0.666229 -0.0483579 -8.34536e-14)
(-0.24602 -0.036149 1.87621e-14)
(0.074174 -0.0852574 1.43571e-13)
(-0.323001 -0.301036 2.12986e-14)
(1.26362 -1.02449 1.25126e-13)
(-1.5233 1.28922 7.60193e-14)
(56.4778 -7.20733 1.15941e-13)
(22.6921 -3.30032 1.4153e-13)
(-6.11823 0.876834 -5.68169e-14)
(1.75194 -2.92846 -1.28819e-15)
(0.364734 -0.319453 2.75955e-14)
(0.455709 -0.226446 -4.28455e-14)
(0.525215 -0.10533 -5.53069e-14)
(0.589663 0.00667815 -9.72931e-15)
(0.589257 0.0932104 7.5078e-15)
(0.469315 0.111191 -1.0726e-13)
(0.300346 0.0841139 3.222e-14)
(0.241012 0.0453614 -1.65331e-13)
(0.267092 -0.0373151 -1.28412e-13)
(0.32937 -0.12006 -1.13953e-13)
(0.429545 -0.142269 1.14599e-13)
(0.515215 -0.0692181 1.09802e-13)
(0.532414 0.0545911 -6.38939e-14)
(0.471757 0.171297 -1.45078e-13)
(0.359956 0.244112 4.03695e-14)
(0.234599 0.27391 6.80048e-14)
(0.120607 0.259806 -1.83587e-14)
(0.0147003 0.258275 -8.71699e-14)
(-0.0611076 0.22523 -2.49815e-14)
(-0.10367 0.191322 2.69385e-15)
(-0.136492 0.193496 -1.82596e-14)
(-0.0791909 0.165158 -3.73929e-14)
(-0.172598 0.0953878 8.1695e-15)
(-0.142527 0.129985 -6.94145e-16)
(-0.184764 -0.0608182 1.50361e-15)
(-0.188879 -0.197296 -5.75532e-15)
(-0.0813566 0.0161104 -1.10654e-14)
(-0.0105758 -0.00372105 2.22805e-15)
(0.0767477 0.0065092 3.28566e-16)
(0.139125 -0.026755 -1.13027e-15)
(0.171902 -0.0110097 1.03824e-16)
(0.177313 -0.00489827 4.3021e-15)
(0.177808 0.00465402 -4.58824e-15)
(0.182342 0.0123325 -7.48807e-15)
(0.187691 -0.0051258 1.16846e-15)
(0.218599 -0.0755199 -4.83765e-16)
(0.234173 -0.589381 4.55496e-15)
(2.27817 -0.265618 2.79665e-14)
(7.39676 1.78716 -2.22698e-14)
(0.396397 -0.472944 1.19259e-14)
(0.242994 -0.53185 4.71265e-15)
(0.125328 -0.560402 -2.95724e-16)
(0.0944669 -0.643904 -5.51408e-15)
(0.0215118 -0.65066 -9.5875e-16)
(-0.100415 -0.662099 -1.17883e-14)
(-0.223835 -0.675972 8.66573e-14)
(-0.323915 -0.658551 2.21705e-14)
(-0.407487 -0.621038 -2.17142e-13)
(-0.469965 -0.56957 7.33957e-14)
(-0.498161 -0.489101 2.42867e-13)
(-0.491449 -0.384284 3.09143e-13)
(-0.43485 -0.253309 7.08596e-14)
(-0.302833 -0.102656 -3.56708e-13)
(-0.10654 0.064534 -8.98499e-14)
(0.0885572 0.24734 -8.75991e-14)
(0.259724 0.403391 -1.67276e-13)
(0.377537 0.438071 -3.54745e-13)
(0.413987 0.324822 -6.14192e-13)
(0.315046 0.161984 1.53905e-13)
(0.123741 0.0680114 -1.16565e-13)
(0.0269683 0.0705955 -1.81027e-13)
(-0.0319414 -0.0977315 -1.23824e-15)
(3.16732 1.4503 -2.33266e-13)
(-0.456334 -0.508978 -3.82161e-14)
(-0.145473 -0.137228 3.24094e-14)
(0.0805581 -0.143494 3.82825e-14)
(-0.148083 -0.167011 -1.72102e-14)
(-0.284204 -0.109819 2.40512e-14)
(-0.380019 -0.0563376 4.45526e-14)
(-0.21243 -0.0215091 -4.35606e-14)
(-0.069463 -0.0719265 2.05527e-14)
(0.682655 -0.311341 1.36988e-13)
(0.315724 -0.501303 9.53709e-14)
(-5.24065 -0.441846 4.9717e-15)
(63.9844 -10.5265 -2.24266e-13)
(53.5543 -6.58328 -1.01639e-13)
(-9.20504 2.62492 -3.0837e-14)
(1.46393 -3.52136 -7.51811e-14)
(0.551419 -0.382867 -3.2249e-15)
(0.618508 -0.283157 -4.13477e-14)
(0.635005 -0.149572 -3.74263e-14)
(0.627757 -0.0416779 -3.53567e-14)
(0.568694 0.0315287 1.31183e-13)
(0.434044 0.0583537 2.03022e-13)
(0.32012 0.0513461 1.41443e-14)
(0.281851 0.0216108 1.51803e-13)
(0.289649 -0.0391882 -6.35017e-15)
(0.327379 -0.0916259 -3.83138e-14)
(0.391587 -0.100326 -8.43715e-14)
(0.443972 -0.0532782 -3.17688e-14)
(0.451567 0.0261109 -2.06105e-14)
(0.405608 0.106247 7.40867e-14)
(0.317368 0.164592 -3.93647e-14)
(0.209726 0.192844 -1.26297e-13)
(0.103834 0.193627 -1.69967e-14)
(0.0107805 0.181288 8.13377e-14)
(-0.0674039 0.161148 -2.70126e-15)
(-0.128234 0.149421 -2.28661e-14)
(-0.163426 0.101491 -6.03096e-14)
(-0.181835 0.095288 2.42958e-14)
(-0.194808 0.0631572 3.15527e-14)
(-0.184902 -0.00672541 -5.65986e-15)
(-0.184902 0.0503607 -2.14902e-15)
(-0.155132 0.0648318 3.85031e-15)
(-0.0833456 -0.0370313 5.42928e-15)
(-0.014303 -0.0553091 -1.06606e-15)
(0.0696266 -0.0666823 -1.00916e-16)
(0.134661 -0.0557415 4.71123e-16)
(0.166991 -0.0593593 -1.09196e-15)
(0.182549 -0.0436043 -2.06542e-15)
(0.19404 -0.0218778 -1.06054e-15)
(0.201926 -0.0094681 2.78095e-15)
(0.211525 0.00934029 5.72159e-15)
(0.233969 0.0523362 6.8699e-16)
(0.0899328 0.248662 -9.98838e-15)
(0.767948 0.256682 -2.00062e-14)
(10.1007 2.67327 -4.1991e-14)
(0.272792 -0.462918 -1.02757e-14)
(0.11832 -0.506396 7.15411e-15)
(0.0398014 -0.522165 -4.6859e-16)
(0.0146178 -0.588907 -8.97523e-15)
(-0.0630047 -0.590312 -2.27702e-15)
(-0.184011 -0.598469 2.23134e-14)
(-0.305313 -0.607574 -1.33729e-14)
(-0.401261 -0.580333 1.57739e-14)
(-0.479792 -0.534966 -8.23839e-14)
(-0.535617 -0.474987 -2.53206e-13)
(-0.555889 -0.391097 -9.51494e-15)
(-0.540781 -0.286632 -1.16554e-13)
(-0.47825 -0.157012 -7.28588e-14)
(-0.359998 -0.00101262 -1.53952e-14)
(-0.172738 0.17382 -3.03924e-13)
(0.0412357 0.340096 2.82641e-13)
(0.290684 0.402796 1.60035e-13)
(0.44467 0.402701 -3.54881e-13)
(0.427373 0.334432 1.19946e-13)
(0.296419 0.208295 -1.9305e-13)
(0.144317 0.0642732 -1.28888e-13)
(0.0270893 -0.0141862 2.44749e-13)
(0.0295597 -0.060559 1.42395e-14)
(-0.0261896 -0.0499375 2.11301e-13)
(-0.212425 0.0362644 9.37731e-14)
(-0.0324991 -0.199165 -2.06151e-14)
(-0.333523 -0.201581 5.47237e-15)
(-0.536546 -0.165156 2.13589e-14)
(-0.472818 -0.133656 -2.69758e-14)
(-0.44072 -0.0844898 -4.72035e-14)
(-0.305073 -0.0275005 1.99248e-14)
(-0.0412362 -0.145957 -4.06532e-14)
(0.318603 -0.275767 -3.99854e-14)
(1.93792 -0.27269 -9.75963e-14)
(-7.79102 -1.91478 -1.69294e-13)
(14.7101 -6.77908 5.7628e-14)
(27.9047 -3.23338 -1.93353e-13)
(-4.31222 4.09772 -8.22314e-14)
(8.22467 -0.859926 2.32927e-14)
(0.463093 -0.40108 2.16665e-14)
(0.541882 -0.31686 4.02807e-14)
(0.531025 -0.194149 -4.78593e-14)
(0.494548 -0.0702731 -2.54176e-14)
(0.460632 0.0205836 6.18775e-14)
(0.387864 0.0466527 -1.51317e-13)
(0.313216 0.0297581 -1.02873e-13)
(0.285865 0.00271872 1.83236e-13)
(0.284581 -0.0406213 1.94974e-13)
(0.305665 -0.0737423 -2.49271e-15)
(0.345691 -0.0767974 -5.36508e-14)
(0.376618 -0.045097 -3.78115e-14)
(0.378119 0.0127186 1.17418e-13)
(0.345175 0.079886 -5.36173e-14)
(0.279817 0.137233 -1.22601e-14)
(0.192486 0.174393 9.35408e-14)
(0.100794 0.191181 -4.23173e-14)
(0.0149771 0.192011 3.79842e-14)
(-0.0591962 0.180905 2.34355e-14)
(-0.115156 0.163832 3.67204e-15)
(-0.150328 0.139973 6.30651e-14)
(-0.167613 0.113231 -2.31867e-14)
(-0.175611 0.0809196 -4.20831e-14)
(-0.176648 0.0498685 -7.04354e-15)
(-0.163875 0.0292112 1.61306e-14)
(-0.128978 0.0129886 1.13883e-16)
(-0.0768372 -0.00328496 6.47274e-15)
(-0.00940029 -0.0152258 -1.21559e-15)
(0.0728164 -0.0196929 -1.07778e-16)
(0.138629 -0.0206546 2.6454e-16)
(0.168198 -0.017321 4.84469e-16)
(0.180893 -0.00919124 1.13715e-15)
(0.190815 0.00495556 -2.00242e-15)
(0.198764 0.0161471 -8.06668e-15)
(0.212909 0.0239222 -3.48216e-15)
(0.262538 0.0302727 2.55558e-16)
(0.279696 0.0445357 -2.91387e-15)
(0.710475 0.114053 -3.32493e-14)
(10.6872 2.59948 -2.72393e-15)
(0.296221 -0.492975 1.865e-15)
(0.171046 -0.508506 -4.13725e-16)
(0.100465 -0.525806 2.24533e-15)
(0.0688726 -0.58499 -1.80019e-15)
(-0.0192152 -0.58331 5.43299e-15)
(-0.140609 -0.58873 -5.29229e-15)
(-0.256252 -0.597056 -3.12911e-14)
(-0.345331 -0.571498 6.44769e-14)
(-0.419393 -0.531581 1.43452e-13)
(-0.472807 -0.478449 -9.11134e-14)
(-0.492982 -0.401994 -9.3675e-14)
(-0.479075 -0.304125 5.91846e-14)
(-0.41778 -0.179006 -1.32924e-13)
(-0.295885 -0.0241807 -2.03686e-14)
(-0.117123 0.145269 -4.16392e-14)
(0.0972965 0.2948 2.04395e-14)
(0.284703 0.407122 4.05297e-14)
(0.403817 0.435174 4.21065e-13)
(0.40529 0.333236 3.40051e-13)
(0.294113 0.16751 -1.46857e-13)
(0.146868 0.0389542 2.08866e-13)
(0.03541 -0.0218504 1.96319e-14)
(0.0200216 -0.0200584 -6.23521e-14)
(0.0818552 -0.0109484 -1.20833e-13)
(0.0941215 -0.0823071 9.64522e-15)
(-0.0210996 -0.167298 2.82234e-14)
(-0.324633 -0.175067 3.49877e-14)
(-0.564057 -0.154081 -3.27391e-14)
(-0.517295 -0.13623 7.45471e-15)
(-0.478433 -0.1026 6.48927e-14)
(-0.397975 -0.0531452 -2.6881e-14)
(-0.0788458 -0.197547 -1.43304e-13)
(-0.268275 -0.293735 -6.68338e-14)
(2.14443 -0.139761 -7.33809e-14)
(-1.814 -2.98142 4.81879e-14)
(-6.20968 -4.77749 1.33546e-14)
(1.41085 -0.0164096 2.36791e-13)
(-3.44167 4.74407 1.23364e-13)
(6.21948 1.88004 4.84297e-14)
(0.389875 -0.417694 -9.49131e-15)
(0.43064 -0.285371 -1.32578e-14)
(0.403388 -0.11383 2.18069e-15)
(0.409569 -0.0192653 3.77336e-14)
(0.421212 0.00229058 4.03382e-14)
(0.391904 0.0166255 -2.00055e-13)
(0.34549 0.0234696 -1.20418e-13)
(0.336137 0.00714905 -1.69454e-13)
(0.331251 -0.0153044 3.30799e-14)
(0.338643 -0.0271222 2.16019e-14)
(0.35335 -0.0180317 -5.6102e-14)
(0.360562 0.010302 4.88126e-15)
(0.350314 0.0521724 -2.43512e-14)
(0.316355 0.101214 -4.38452e-14)
(0.256834 0.145815 -1.39471e-13)
(0.178614 0.17582 -1.2589e-14)
(0.093683 0.190986 8.31525e-14)
(0.0116087 0.19056 -1.2898e-14)
(-0.0599152 0.18118 1.62756e-14)
(-0.115044 0.163403 -2.86817e-14)
(-0.150431 0.139801 -4.34815e-14)
(-0.168176 0.112852 -3.42333e-15)
(-0.176801 0.0820804 1.53384e-14)
(-0.179262 0.053043 1.65725e-14)
(-0.167462 0.030876 -1.01735e-15)
(-0.132322 0.0108845 -7.1412e-15)
(-0.0795841 -0.01008 -1.20654e-14)
(-0.012512 -0.0269942 2.32121e-15)
(0.0692344 -0.0332515 5.40343e-17)
(0.135297 -0.0326988 -2.53054e-16)
(0.164669 -0.0288384 -4.63199e-16)
(0.177118 -0.0123785 -1.05771e-15)
(0.188173 0.0087207 1.95061e-15)
(0.196643 0.0236237 6.95839e-15)
(0.210702 0.0334127 2.36845e-15)
(0.261879 0.057741 -3.81319e-15)
(0.263596 0.0846571 1.12743e-14)
(0.677793 0.188668 3.97883e-14)
(8.90717 1.80713 -1.4473e-14)
(0.25762 -0.414888 7.35845e-16)
(0.161525 -0.468124 -3.29506e-16)
(0.097705 -0.483268 -1.30279e-15)
(0.0520401 -0.53693 3.3154e-15)
(-0.0415045 -0.530783 -1.24705e-15)
(-0.156603 -0.530527 -1.26029e-14)
(-0.258544 -0.534087 3.57406e-14)
(-0.334046 -0.507225 -1.09977e-14)
(-0.39734 -0.468801 4.68242e-14)
(-0.442888 -0.417937 9.01722e-14)
(-0.457601 -0.343907 1.7259e-14)
(-0.439334 -0.248367 2.91185e-14)
(-0.374914 -0.125733 1.93138e-13)
(-0.25272 0.0243272 3.35949e-13)
(-0.0762447 0.186346 3.03948e-13)
(0.129029 0.328575 -5.39218e-15)
(0.312855 0.414483 3.74292e-13)
(0.435039 0.405264 1.44754e-14)
(0.429521 0.311434 -1.11128e-13)
(0.298777 0.165823 1.50342e-13)
(0.138582 0.0470324 -2.5043e-13)
(0.0426968 -0.0163084 1.02859e-13)
(0.0428326 -0.0296967 1.1478e-13)
(0.0808481 -0.0285925 3.87444e-14)
(0.0819989 -0.0714084 1.11564e-13)
(-0.0181445 -0.138655 -4.46354e-14)
(-0.292715 -0.1583 -3.73826e-14)
(-0.531597 -0.143403 5.17101e-15)
(-0.497621 -0.130507 2.39159e-14)
(-0.46946 -0.113393 -6.06273e-14)
(-0.405139 -0.0685789 -5.83486e-14)
(-0.0967778 -0.185868 1.07618e-13)
(-0.37317 -0.31068 2.28231e-14)
(1.24805 -0.0782622 -3.93094e-14)
(1.79139 -3.23931 1.88872e-14)
(-5.38919 -4.49653 -1.10703e-13)
(-4.93465 0.701231 7.8296e-14)
(-3.66301 4.49526 -4.55265e-14)
(1.47885 2.75083 5.46449e-14)
(0.303851 -0.27946 -6.78475e-15)
(0.320241 -0.174168 -1.13218e-14)
(0.346099 -0.107232 7.03508e-15)
(0.424086 -0.0890663 8.11518e-14)
(0.476881 -0.0560055 3.59106e-14)
(0.451928 -0.0089247 7.74408e-15)
(0.422582 0.0111576 1.73632e-13)
(0.416441 0.0111491 -9.03977e-14)
(0.41149 0.0111845 -1.43014e-13)
(0.409656 0.0196986 4.61601e-14)
(0.408066 0.0399319 9.71307e-14)
(0.398387 0.0721397 -2.25016e-14)
(0.372103 0.112562 6.54161e-14)
(0.326203 0.153951 7.28267e-15)
(0.262198 0.189787 3.40205e-14)
(0.18425 0.214334 1.39038e-14)
(0.100632 0.226571 -3.67102e-14)
(0.0191365 0.226815 3.09735e-14)
(-0.0531968 0.217187 -2.33058e-14)
(-0.109693 0.198701 3.40118e-15)
(-0.146749 0.173518 6.00188e-14)
(-0.166295 0.143643 -2.06574e-14)
(-0.176895 0.110176 -2.73922e-14)
(-0.181999 0.0772749 5.85819e-15)
(-0.172369 0.048681 -1.16474e-15)
(-0.137671 0.0224194 2.00918e-15)
(-0.0848831 -0.00292716 6.23911e-15)
(-0.0183337 -0.0228802 -1.05181e-15)
(0.062822 -0.0311677 4.2064e-17)
(0.129008 -0.0316873 9.61276e-17)
(0.158348 -0.0275348 -9.24801e-16)
(0.169749 -0.0162417 2.79701e-16)
(0.182353 0.0021814 2.26493e-15)
(0.191972 0.0170979 -3.73381e-16)
(0.207615 0.0281393 -4.96832e-16)
(0.257507 0.0441716 1.99955e-15)
(0.274345 0.0715129 -3.65881e-15)
(0.584346 0.166391 4.60627e-15)
(5.84969 1.06554 -1.36287e-14)
(0.155097 -0.295212 3.28414e-15)
(0.088713 -0.356897 -3.55483e-15)
(0.0418611 -0.37502 2.04141e-15)
(-0.00629541 -0.428306 -5.53194e-15)
(-0.0875934 -0.42698 3.03684e-15)
(-0.18317 -0.433182 3.5091e-15)
(-0.264572 -0.441104 6.81486e-15)
(-0.323663 -0.420534 -9.21323e-14)
(-0.376044 -0.389085 -8.83452e-15)
(-0.414733 -0.345442 1.43261e-13)
(-0.425277 -0.277308 -5.94739e-14)
(-0.404525 -0.186023 -1.35053e-13)
(-0.337948 -0.0671668 -2.67845e-13)
(-0.215343 0.0769779 -2.26109e-13)
(-0.0423377 0.230059 -1.55776e-13)
(0.154924 0.360505 -5.91545e-14)
(0.328565 0.432869 -2.10755e-13)
(0.425626 0.426974 -2.88737e-13)
(0.41971 0.336065 -1.39846e-13)
(0.301693 0.189396 3.42314e-13)
(0.149064 0.0653177 3.17211e-13)
(0.0535796 0.00394882 -2.78632e-14)
(0.0481775 -0.00892138 -4.66706e-14)
(0.077915 -0.0143165 -1.52214e-13)
(0.0776913 -0.0572171 -8.49919e-14)
(-0.0160641 -0.121245 3.88188e-14)
(-0.279966 -0.144274 2.90828e-14)
(-0.515455 -0.128931 3.27159e-15)
(-0.483279 -0.119181 -1.68125e-14)
(-0.452591 -0.117024 6.22879e-14)
(-0.389635 -0.0821602 1.32706e-13)
(-0.102718 -0.179079 -2.19146e-16)
(-0.212857 -0.314898 1.32689e-14)
(0.642082 -0.0854641 3.00792e-14)
(1.2458 -2.97398 -3.03012e-14)
(-3.09647 -4.27428 1.03306e-13)
(-4.98838 0.834916 -9.55612e-14)
(-2.82013 4.206 -1.82198e-13)
(-0.0752137 2.84411 -4.83752e-14)
(0.24393 -0.225682 1.75763e-14)
(0.310342 -0.228383 2.16721e-14)
(0.381838 -0.210545 6.06766e-15)
(0.437249 -0.146123 1.08598e-13)
(0.453962 -0.0785954 -1.81275e-13)
(0.428282 -0.0231945 8.58693e-14)
(0.413922 -0.0034814 1.52206e-13)
(0.412481 0.00289578 7.5452e-14)
(0.412467 0.0117111 -3.42171e-14)
(0.411452 0.0288815 -3.41065e-14)
(0.406817 0.053691 2.3053e-14)
(0.391617 0.0841933 3.61431e-14)
(0.361635 0.119808 -8.61123e-14)
(0.316617 0.157538 6.47347e-14)
(0.256482 0.191539 1.56788e-14)
(0.183359 0.216619 -1.17618e-14)
(0.104047 0.231577 -5.56881e-14)
(0.0252826 0.235304 -5.5714e-14)
(-0.0458522 0.228686 4.63097e-14)
(-0.10223 0.212317 1.36611e-14)
(-0.139804 0.187892 4.75203e-15)
(-0.160281 0.157435 4.71179e-14)
(-0.172172 0.123418 1.86612e-14)
(-0.179242 0.0894491 -2.21329e-15)
(-0.171463 0.0585292 5.49928e-15)
(-0.137527 0.0296377 -3.66334e-15)
(-0.0853301 0.00211405 -7.20932e-15)
(-0.0200556 -0.0194407 1.12882e-15)
(0.0597545 -0.028791 -7.71093e-16)
(0.125498 -0.0293597 6.7857e-17)
(0.154343 -0.0254554 9.91847e-16)
(0.164507 -0.0114162 -9.43895e-16)
(0.178298 0.00906373 -4.23877e-15)
(0.188621 0.0261166 -3.6709e-15)
(0.205704 0.039188 -2.20809e-15)
(0.25014 0.0611542 -1.71826e-15)
(0.290706 0.0992799 3.24815e-16)
(0.481297 0.205634 1.45496e-14)
(3.56844 0.686696 1.64779e-14)
(0.143393 -0.304982 8.05244e-16)
(0.0918022 -0.335039 1.94644e-15)
(0.0598432 -0.356103 -1.81487e-15)
(0.0167537 -0.404431 -9.64598e-16)
(-0.0614047 -0.408499 -1.28855e-14)
(-0.147155 -0.421877 1.29507e-14)
(-0.221578 -0.435393 -1.27193e-14)
(-0.279642 -0.420093 -1.5633e-14)
(-0.333991 -0.392549 -2.93603e-14)
(-0.377037 -0.351359 -3.88167e-14)
(-0.394261 -0.284429 1.63447e-14)
(-0.38044 -0.192197 1.59083e-13)
(-0.320229 -0.0714644 2.15205e-13)
(-0.203789 0.074005 3.50998e-14)
(-0.0373227 0.227409 7.56317e-15)
(0.150863 0.35595 1.29996e-14)
(0.310746 0.423163 -3.93557e-14)
(0.39456 0.408032 1.21492e-13)
(0.387485 0.318071 1.09652e-13)
(0.283191 0.178114 -2.65438e-13)
(0.14649 0.0553828 -2.87844e-14)
(0.0616551 -0.00782264 5.72501e-14)
(0.0593116 -0.0232872 -6.78947e-14)
(0.0853379 -0.030077 7.90376e-14)
(0.0789113 -0.0664774 2.14061e-16)
(-0.0160489 -0.120368 -1.29303e-14)
(-0.270733 -0.143114 -3.73668e-14)
(-0.503124 -0.122672 1.79076e-15)
(-0.475385 -0.109636 -1.92529e-16)
(-0.444166 -0.11767 3.41791e-14)
(-0.382193 -0.0910705 1.28304e-14)
(-0.115959 -0.176875 -5.94626e-14)
(-0.114277 -0.3024 -1.49143e-14)
(0.57633 -0.132251 1.11397e-13)
(0.0826258 -2.60077 2.47917e-14)
(-3.02075 -3.77396 2.22979e-14)
(-4.56045 1.00925 -6.27381e-14)
(-2.83494 4.14412 1.8053e-13)
(-0.364075 2.53413 6.8319e-14)
(0.242237 -0.312154 3.91244e-15)
(0.317372 -0.294848 -5.12944e-14)
(0.358185 -0.195041 2.09629e-14)
(0.374293 -0.0980552 2.51675e-14)
(0.367757 -0.0513335 4.84089e-14)
(0.345913 -0.0242644 -1.67434e-14)
(0.343188 -0.0135848 -3.1461e-14)
(0.348246 -0.00911385 -4.99722e-15)
(0.355722 -0.000827587 -6.46028e-15)
(0.360076 0.0157721 1.13644e-14)
(0.360993 0.0393368 3.70827e-14)
(0.351035 0.0674139 6.38556e-14)
(0.326508 0.0996725 -2.72676e-15)
(0.288279 0.134523 -1.33607e-13)
(0.235342 0.166851 2.52069e-14)
(0.170053 0.193334 7.3715e-14)
(0.0978105 0.211476 5.6222e-14)
(0.0246537 0.219547 2.56885e-14)
(-0.0425191 0.217227 -2.03052e-14)
(-0.096371 0.204363 -5.00522e-15)
(-0.132648 0.182614 -2.14844e-14)
(-0.15282 0.154115 -3.93758e-14)
(-0.165101 0.122067 1.60173e-14)
(-0.173215 0.0897902 1.51152e-14)
(-0.166645 0.059496 2.52521e-15)
(-0.133518 0.0305826 1.36835e-14)
(-0.0822867 0.00302881 4.42903e-15)
(-0.0188007 -0.0185864 -8.71324e-16)
(0.0590659 -0.0278628 6.04023e-16)
(0.123798 -0.0279447 -1.77316e-16)
(0.151746 -0.0232732 2.22502e-16)
(0.160307 -0.0103424 2.2378e-16)
(0.174423 0.00912393 2.04393e-15)
(0.18539 0.0260978 1.55423e-15)
(0.204068 0.0386116 -2.0561e-15)
(0.242805 0.0575218 1.35805e-16)
(0.30584 0.0953994 6.26924e-15)
(0.397479 0.198003 -7.6754e-15)
(2.20873 0.38071 -5.13005e-15)
(0.179772 -0.339986 3.92075e-15)
(0.138991 -0.344701 -1.12709e-15)
(0.109534 -0.372364 -5.20917e-15)
(0.0623103 -0.421131 -1.84349e-15)
(-0.0177376 -0.426466 1.20088e-14)
(-0.0992414 -0.43749 -1.3553e-14)
(-0.170603 -0.450754 -2.28587e-15)
(-0.231139 -0.435853 2.65625e-14)
(-0.289575 -0.408994 1.5783e-14)
(-0.337552 -0.366757 3.21167e-14)
(-0.360609 -0.298246 6.98435e-14)
(-0.352624 -0.20438 5.84963e-14)
(-0.298041 -0.0819601 -1.3655e-13)
(-0.189016 0.0641025 -2.21036e-13)
(-0.0323912 0.214877 3.75882e-14)
(0.144872 0.33734 2.84392e-13)
(0.292021 0.398792 6.02152e-14)
(0.361507 0.381375 -1.62691e-13)
(0.342669 0.298485 -2.772e-14)
(0.246286 0.17258 3.3529e-14)
(0.124718 0.0584114 -6.72629e-14)
(0.0540514 -0.00268665 -8.233e-14)
(0.0589607 -0.0209439 6.17588e-15)
(0.0840456 -0.0324966 6.09195e-14)
(0.0745053 -0.0686382 5.53573e-14)
(-0.0151491 -0.12203 -3.19259e-15)
(-0.261428 -0.146179 3.15765e-14)
(-0.490752 -0.121881 5.63234e-15)
(-0.468509 -0.10597 5.29193e-14)
(-0.43849 -0.121603 -4.11917e-14)
(-0.379187 -0.101066 -1.34906e-13)
(-0.128517 -0.1783 -4.69047e-14)
(-0.107059 -0.288651 2.83323e-14)
(0.602874 -0.176667 2.58742e-14)
(-0.229754 -2.28981 -3.22374e-14)
(-3.32817 -3.22909 -6.81038e-14)
(-4.47058 1.21918 9.39273e-14)
(-2.97316 4.00164 3.91386e-14)
(0.167158 2.1937 -5.43211e-14)
(0.242279 -0.311567 -8.93881e-15)
(0.282648 -0.228102 -8.38274e-15)
(0.295105 -0.130794 -1.31811e-14)
(0.30941 -0.0715225 -2.2083e-14)
(0.314523 -0.0438486 3.26635e-14)
(0.305328 -0.0226192 -4.25184e-14)
(0.312018 -0.0139058 -1.96024e-14)
(0.318721 -0.00778366 6.54174e-14)
(0.326562 0.00276358 -3.57964e-14)
(0.331558 0.020025 6.91337e-14)
(0.332387 0.0416213 6.81179e-14)
(0.322655 0.066954 4.48156e-14)
(0.299586 0.0955435 3.08318e-14)
(0.264269 0.126788 4.78166e-14)
(0.216279 0.155919 -1.36463e-14)
(0.156661 0.180469 3.66458e-15)
(0.0901023 0.199262 3.43836e-14)
(0.0221539 0.208966 2.59269e-14)
(-0.0408411 0.208953 -2.56304e-15)
(-0.09176 0.1985 -5.21378e-14)
(-0.126397 0.178709 -9.68435e-15)
(-0.146038 0.151845 1.99979e-16)
(-0.158613 0.121545 -3.44207e-14)
(-0.167581 0.0905807 3.72148e-15)
(-0.16197 0.0606214 -5.02102e-15)
(-0.12946 0.0315972 -1.06793e-14)
(-0.0791501 0.00398959 8.20614e-16)
(-0.0175085 -0.0177766 7.78896e-17)
(0.0582871 -0.0271733 2.20099e-17)
(0.121914 -0.0268668 4.77974e-17)
(0.14899 -0.0217519 -1.74408e-16)
(0.156334 -0.00845376 -1.84289e-16)
(0.170093 0.0124546 8.86436e-16)
(0.182089 0.031199 2.09152e-15)
(0.201907 0.0451116 1.23971e-15)
(0.235556 0.0673244 4.05088e-15)
(0.314956 0.109237 -1.64165e-14)
(0.342519 0.214959 -1.12181e-14)
(1.30679 0.163722 1.57871e-14)
(0.170789 -0.299243 -3.03145e-15)
(0.130641 -0.316905 8.83206e-16)
(0.101108 -0.336265 5.34631e-15)
(0.053285 -0.380302 6.23804e-15)
(-0.0227087 -0.385158 2.25192e-15)
(-0.0945204 -0.395469 3.31165e-15)
(-0.155813 -0.406103 -1.19536e-14)
(-0.210213 -0.39147 -3.99128e-14)
(-0.263588 -0.366171 -3.79891e-14)
(-0.307418 -0.326615 -9.92995e-15)
(-0.327833 -0.261466 -5.27156e-14)
(-0.31853 -0.171664 -1.64711e-14)
(-0.264058 -0.0541584 1.27032e-13)
(-0.156863 0.0847159 6.39111e-14)
(-0.00621661 0.224287 -3.9666e-15)
(0.159919 0.336287 -2.19107e-13)
(0.294728 0.388639 -5.92322e-14)
(0.351177 0.363375 2.01353e-13)
(0.318182 0.274179 9.58124e-14)
(0.223156 0.156863 -4.59432e-14)
(0.106584 0.0515445 -3.79836e-15)
(0.0449422 -0.00509584 4.60379e-14)
(0.0557462 -0.0232562 1.15993e-14)
(0.0801294 -0.0361187 -8.34373e-14)
(0.0678394 -0.0698008 -1.40587e-13)
(-0.0167228 -0.121714 4.15177e-14)
(-0.253231 -0.147417 -7.50806e-15)
(-0.478899 -0.120527 -8.38288e-15)
(-0.462887 -0.102312 -2.93075e-14)
(-0.434024 -0.124184 -2.60694e-14)
(-0.376741 -0.109255 4.09498e-14)
(-0.13746 -0.178898 1.34235e-13)
(-0.117108 -0.280804 3.74937e-14)
(0.521966 -0.210304 -9.85905e-14)
(-0.162975 -2.03399 1.93977e-14)
(-3.1691 -2.75648 -2.71006e-14)
(-4.42318 1.39211 -1.81829e-14)
(-2.79249 3.6907 -5.4085e-14)
(0.946479 1.81343 -3.00047e-14)
(0.2093 -0.237392 8.65618e-15)
(0.237836 -0.170449 2.72807e-14)
(0.261311 -0.104046 -6.16714e-14)
(0.293686 -0.0625223 -6.53406e-15)
(0.305469 -0.0417505 -1.24601e-13)
(0.30224 -0.0244323 8.09061e-15)
(0.3097 -0.0138573 3.36832e-14)
(0.316672 -0.00379653 -1.34597e-13)
(0.323368 0.00974437 2.756e-14)
(0.327091 0.0296961 -1.18727e-14)
(0.32525 0.0530956 -6.56299e-14)
(0.313507 0.0778352 -7.77903e-14)
(0.289375 0.104678 -1.09436e-15)
(0.254568 0.133523 5.81532e-14)
(0.208437 0.161031 2.35172e-14)
(0.151155 0.183941 -2.32299e-14)
(0.0880052 0.201813 -3.28789e-14)
(0.0233005 0.211533 -9.02225e-15)
(-0.0368688 0.211882 1.71054e-14)
(-0.0857588 0.201925 4.43302e-14)
(-0.119371 0.182699 4.45854e-14)
(-0.139025 0.156392 4.0398e-14)
(-0.152337 0.12656 -1.82509e-15)
(-0.162449 0.0956593 -3.69906e-14)
(-0.1578 0.0650714 3.37146e-15)
(-0.125998 0.0351442 -1.13382e-14)
(-0.0766532 0.0067978 -6.62839e-15)
(-0.0168941 -0.015621 -9.72706e-16)
(0.0567543 -0.0255407 3.89655e-16)
(0.119236 -0.0252417 4.13722e-16)
(0.145521 -0.019984 1.25398e-16)
(0.151837 -0.00664065 6.05398e-17)
(0.165012 0.0134729 -3.54197e-16)
(0.178482 0.0329435 -9.62478e-16)
(0.198965 0.0473556 7.3439e-16)
(0.229343 0.0709939 -4.54285e-15)
(0.317968 0.11225 1.36793e-14)
(0.316104 0.222899 2.27729e-14)
(0.886164 0.0821006 -5.60391e-14)
(0.140712 -0.245659 -5.00441e-16)
(0.109267 -0.273505 5.78152e-16)
(0.0793076 -0.294292 -9.63849e-17)
(0.0317507 -0.331962 -1.32907e-15)
(-0.0360361 -0.334739 4.13999e-15)
(-0.0972827 -0.344697 -6.25673e-16)
(-0.151396 -0.35383 3.42438e-15)