/*--------------------------------*- C++ -*----------------------------------*\
| =========                 |                                                 |
| \\      /  F ield         | OpenFOAM: The Open Source CFD Toolbox           |
|  \\    /   O peration     | Version:  2312                                  |
|   \\  /    A nd           | Website:  www.openfoam.com                      |
|    \\/     M anipulation  |                                                 |
\*---------------------------------------------------------------------------*/
FoamFile
{
    version     2.0;
    format      ascii;
    arch        "LSB;label=32;scalar=64";
    class       volSymmTensorField;
    location    "250";
    object      turbulenceProperties:devReff;
}
// * * * * * * * * * * * * * * * * * * * * * * * * * * * * * * * * * * * * * //

dimensions      [0 2 -2 0 0 0 0];

internalField   nonuniform List<symmTensor> 
10720
(
(0.00363517 0.00874985 -7.86759e-21 -0.00390543 -1.32412e-19 0.000270265)
(0.00718579 0.0138771 9.14733e-21 -0.00744816 1.89116e-19 0.000262375)
(0.0122629 0.0178018 4.69942e-20 -0.0128888 2.00254e-19 0.000625892)
(0.0161097 0.0184854 2.72883e-19 -0.0168259 1.86285e-18 0.000716134)
(0.01789 0.0161309 -7.43191e-19 -0.018509 -2.84567e-18 0.000619027)
(0.0193316 0.0131836 -6.77662e-19 -0.020036 -1.36501e-18 0.000704339)
(0.0213981 0.0107932 1.75802e-19 -0.0221065 1.36438e-20 0.000708362)
(0.0245082 0.0085547 8.23771e-20 -0.0252354 1.30253e-19 0.000727246)
(0.0291705 0.00599239 1.96492e-19 -0.0300181 -1.58719e-19 0.000847539)
(0.0357778 0.00267254 -3.01521e-20 -0.0367507 -3.02514e-20 0.000972914)
(0.045122 -0.00229999 3.44807e-18 -0.0463028 1.43719e-18 0.00118081)
(0.0591284 -0.0102689 -8.36327e-19 -0.060631 -6.42241e-19 0.00150261)
(0.0809402 -0.0239336 1.85644e-18 -0.0829328 -2.78652e-18 0.00199261)
(0.117887 -0.049717 1.04189e-18 -0.120746 2.2629e-18 0.00285834)
(0.184646 -0.102692 2.09442e-18 -0.189137 -3.71321e-18 0.00449062)
(0.321991 -0.226125 8.93386e-19 -0.329921 1.78241e-17 0.00793006)
(0.583403 -0.506382 1.27104e-16 -0.598511 6.52353e-17 0.0151075)
(1.12736 -1.19447 -4.34019e-17 -1.15812 6.60378e-17 0.0307602)
(1.97702 -2.55789 -2.84061e-17 -2.03591 -4.11235e-16 0.0588889)
(2.86456 -4.55885 2.65608e-17 -2.95763 -7.17232e-19 0.0930634)
(3.80603 -7.62086 -5.9292e-16 -3.94717 -4.16336e-16 0.141139)
(5.07842 -13.3009 1.28335e-15 -5.3059 1.81246e-15 0.227479)
(7.03496 -25.7501 -8.40328e-16 -7.46613 -2.09014e-15 0.431171)
(9.05115 -50.6585 9.71361e-16 -9.86862 2.14292e-16 0.81747)
(9.59513 -88.7525 -3.00099e-16 -10.6175 -1.47856e-17 1.02239)
(7.53689 -124.596 9.46929e-17 -8.94939 -2.04674e-15 1.41249)
(4.92021 -250.84 6.94561e-16 -8.13127 -2.16883e-16 3.21106)
(-11.2844 -410.088 8.15028e-16 9.1601 1.46821e-15 2.12428)
(-22.7775 -277.327 1.65321e-14 24.3324 4.62186e-16 -1.5549)
(-12.2044 -96.2268 9.02598e-15 12.8698 4.67296e-15 -0.665372)
(-4.44995 -27.4903 -2.9191e-15 4.5567 -6.98402e-16 -0.10675)
(-0.535697 -2.81336 -5.0292e-16 0.542449 -2.37662e-16 -0.00675191)
(-0.104956 -0.515145 -2.30707e-17 0.105683 -8.85988e-17 -0.000727387)
(-0.00867209 -0.0438457 -1.23294e-17 0.00854379 -1.62066e-17 0.000128306)
(-7.38419e-05 -0.000522122 1.19933e-19 6.72705e-05 4.51749e-19 6.57143e-06)
(0.000151824 0.000289588 6.44651e-20 -0.000143238 5.70502e-19 -8.58645e-06)
(0.00043688 0.000995721 -2.70739e-19 -0.000425286 4.31528e-20 -1.15931e-05)
(0.025178 0.0652795 -4.40686e-18 -0.0243621 -1.50164e-16 -0.000815966)
(0.144131 3.47723 4.39723e-15 -0.203271 9.25398e-15 0.0591402)
(0.00270731 0.00918383 4.29431e-21 -0.00282339 -1.24542e-20 0.000116073)
(0.00221549 0.0105073 -3.29904e-20 -0.00249128 3.52428e-20 0.000275791)
(0.0010108 0.00873597 -1.57816e-19 -0.00114869 -1.1386e-19 0.000137884)
(0.000367211 0.0132238 3.72841e-19 -0.000549348 -4.6421e-19 0.000182137)
(-0.000128561 0.00410694 -2.0348e-19 9.81593e-05 -4.89595e-20 3.0402e-05)
(-0.00021032 0.00636147 -1.88992e-18 0.000276723 2.40392e-18 -6.64028e-05)
(0.000453983 0.00718491 1.51222e-18 -0.000116147 2.90459e-18 -0.000337836)
(0.0021142 0.00749875 2.42599e-19 -0.00165633 -5.74535e-18 -0.000457869)
(0.00426922 0.00754444 2.28196e-18 -0.00408114 -1.53331e-19 -0.000188086)
(0.00606489 0.00765808 -1.27385e-18 -0.00609713 -3.8035e-19 3.22361e-05)
(0.0077204 0.00860371 8.92226e-19 -0.00782167 2.14262e-18 0.000101269)
(0.00959992 0.010705 1.54985e-18 -0.00972696 -7.44666e-19 0.000127037)
(0.0119416 0.01426 -1.42088e-18 -0.0121188 -2.52946e-19 0.000177224)
(0.0157755 0.0207586 2.92167e-19 -0.016039 3.73741e-19 0.000263503)
(0.0212709 0.0309813 4.30762e-18 -0.0216246 6.10832e-19 0.000353748)
(0.0337128 0.0545481 4.71861e-18 -0.0342924 -1.04851e-18 0.000579581)
(0.0513029 0.0918628 2.2204e-18 -0.0521728 3.14823e-18 0.000869866)
(0.144185 0.2853 2.68203e-18 -0.146644 6.69268e-18 0.00245935)
(0.153428 0.334644 2.53978e-18 -0.155993 -1.42562e-18 0.00256491)
(0.171089 0.412585 3.70386e-18 -0.174054 1.86395e-19 0.0029658)
(0.215444 0.577138 -4.8749e-18 -0.219368 -2.94808e-17 0.00392454)
(0.284832 0.859216 -1.58303e-17 -0.290581 -2.04169e-19 0.00574916)
(0.324852 1.12881 1.11953e-17 -0.332464 1.72977e-17 0.00761229)
(0.374327 1.56654 5.38656e-18 -0.385976 -8.20216e-19 0.0116489)
(0.398545 2.12553 1.6425e-16 -0.415407 -2.69233e-17 0.0168618)
(0.377613 2.73831 -4.51908e-19 -0.398772 -9.04427e-18 0.0211583)
(0.208653 2.31745 1.85271e-20 -0.225734 6.8285e-19 0.0170814)
(0.0570672 1.27845 5.67653e-20 -0.0660045 -1.74395e-21 0.0089373)
(0.000876233 0.490251 8.99149e-20 -0.00416332 1.21768e-21 0.00328709)
(-0.00497912 0.128191 3.12911e-18 0.00414793 -1.22837e-19 0.000831191)
(-0.00131653 0.0170008 -1.69896e-20 0.00120941 -8.50302e-22 0.000107122)
(-0.000247913 0.00217378 -6.75054e-21 0.000234694 1.7261e-20 1.32186e-05)
(-0.000229668 0.001544 -2.33303e-19 0.000220704 -2.62248e-20 8.96422e-06)
(-0.000258058 0.00142087 -3.84587e-19 0.000250217 4.01483e-20 7.84092e-06)
(-0.00028501 0.0013338 3.36411e-19 0.000278276 2.41135e-20 6.73349e-06)
(-0.0467337 0.187996 -2.9159e-19 0.045391 -1.26158e-18 0.00134267)
(-3.14475 10.964 -1.39459e-17 3.05999 -1.12109e-16 0.0847532)
(-6.70929 21.0635 -1.27128e-16 6.46251 2.07077e-16 0.246775)
(-21.5028 58.2883 -2.02202e-14 21.4046 -1.52943e-15 0.0981794)
(0.014442 -0.0109586 -9.88347e-20 -0.013095 -2.95571e-19 -0.00134707)
(0.0122329 -0.0130521 1.54733e-19 -0.0107072 3.9665e-19 -0.00152573)
(0.0083436 -0.0134238 9.88777e-21 -0.00669198 5.05682e-21 -0.00165161)
(0.0037524 -0.00932368 2.01145e-19 -0.00249895 2.71956e-20 -0.00125345)
(0.00128516 -0.00583929 1.23216e-19 -0.000416453 8.09374e-19 -0.000868702)
(0.000180936 -0.00375776 4.2705e-19 0.000461811 7.59122e-19 -0.000642747)
(-0.00028182 -0.00275122 -1.58462e-19 0.000839448 2.57995e-20 -0.000557628)
(-0.000533939 -0.00222061 -1.2682e-19 0.00107422 -3.52918e-20 -0.000540285)
(-0.000701721 -0.00189044 -7.75265e-19 0.00126252 -8.49437e-19 -0.0005608)
(-0.000791805 -0.00164548 -2.60141e-19 0.00138988 -8.9841e-20 -0.000598079)
(-0.000825934 -0.00145878 -2.5412e-18 0.00147301 -2.45924e-18 -0.000647073)
(-0.000801448 -0.00131475 -3.27275e-20 0.00149288 4.21844e-19 -0.00069143)
(-0.000815364 -0.00140373 -1.62803e-18 0.00163955 3.02472e-20 -0.000824183)
(-0.000969596 -0.00203113 1.64662e-18 0.00222095 9.73784e-19 -0.00125135)
(-0.00118939 -0.00393091 -6.35217e-18 0.00356042 -1.85703e-18 -0.00237103)
(-0.000801211 -0.00962209 3.084e-17 0.0060682 7.3976e-18 -0.00526699)
(0.00325898 -0.0261827 -6.58016e-17 0.00871296 -5.54827e-17 -0.0119719)
(0.0204539 -0.0743648 -1.44885e-16 0.00619594 -5.34341e-17 -0.0266498)
(0.0725258 -0.201363 -3.4488e-16 -0.0186323 1.41552e-16 -0.0538935)
(0.188953 -0.484549 7.32995e-17 -0.0945232 2.15541e-20 -0.0944294)
(0.385525 -1.01531 6.02578e-16 -0.242363 6.90577e-16 -0.143161)
(0.663993 -1.90959 -1.00377e-15 -0.457459 -1.76786e-15 -0.206534)
(1.02781 -3.3378 9.09408e-17 -0.701082 1.85276e-15 -0.326732)
(1.67712 -5.98566 3.11625e-17 -1.05419 -5.66874e-16 -0.622932)
(3.46582 -13.2488 -0 -2.08979 -0 -1.37603)
(1.46441 -10.3343 -3.34705e-17 0.0907538 6.08489e-16 -1.55517)
(-0.650836 -12.4464 -1.0501e-15 4.64 2.51278e-16 -3.98917)
(0.307251 -7.29477 -1.09933e-16 1.52792 -9.1637e-16 -1.83517)
(3.07092 -4.65442 -1.2127e-14 -4.65449 -5.71639e-15 1.58357)
(4.61991 -4.62555 -6.01333e-16 -7.41932 -2.23807e-14 2.79941)
(1.82713 -2.96471 9.33237e-16 -2.87418 1.39642e-14 1.04705)
(0.107282 -1.49522 2.29221e-16 -0.285107 6.41688e-15 0.177824)
(-0.112245 -0.908394 -1.28127e-15 0.0929458 1.11721e-15 0.0192993)
(-0.0309656 -0.263999 2.66498e-16 0.0318171 4.32168e-16 -0.000851541)
(-0.000437678 -0.00668584 -3.02043e-19 0.000552233 -4.40523e-18 -0.000114555)
(1.80614e-05 -0.000253498 -6.20933e-20 -1.2759e-05 -2.06729e-19 -5.30242e-06)
(-6.02294e-05 -0.000939026 5.44428e-19 -0.000128416 -4.93517e-20 0.000188646)
(-0.128734 -0.275541 9.13707e-16 0.0991113 5.82944e-15 0.0296229)
(-2.21036 -2.2875 -3.27232e-15 2.35688 -1.07848e-14 -0.146529)
(0.00253152 -0.00127221 1.93018e-20 -0.00235455 5.54086e-20 -0.000176963)
(0.00177886 -0.000528429 -5.34963e-21 -0.00167082 -1.91819e-19 -0.000108034)
(0.00134334 -0.000104549 -9.32065e-20 -0.00128168 -2.27182e-19 -6.16546e-05)
(0.00379481 0.000645408 7.66163e-20 -0.00367103 1.14342e-18 -0.000123772)
(0.00349788 0.00163925 7.13176e-19 -0.00344209 -6.63356e-19 -5.57917e-05)
(0.00286582 0.00257595 -2.57822e-19 -0.00286884 -1.05711e-18 3.01957e-06)
(0.00137382 0.00226144 4.32301e-19 -0.0014057 -1.89412e-18 3.18838e-05)
(0.000678615 0.00232751 -1.47886e-18 -0.000740577 -9.22185e-20 6.19617e-05)
(4.19105e-05 0.0024724 -9.43559e-19 -0.000108337 1.94561e-18 6.64262e-05)
(-0.000646364 0.002393 -3.82563e-19 0.00062151 -4.32761e-20 2.48532e-05)
(-0.00120074 0.00211966 -3.62004e-19 0.00125012 -1.27046e-18 -4.9377e-05)
(-0.00154603 0.00176709 7.2735e-20 0.00167246 -7.1341e-19 -0.000126433)
(-0.00169781 0.00140449 5.83766e-19 0.00188805 1.49904e-18 -0.00019024)
(-0.00171843 0.0010963 -6.40917e-19 0.00195944 -3.63895e-19 -0.000241009)
(-0.0015433 0.000804686 -3.50639e-19 0.00180537 -1.23609e-18 -0.000262075)
(-0.00908855 0.004101 -9.88471e-18 0.0109112 -2.24942e-18 -0.00182264)
(-0.0129314 0.00540113 -2.60027e-18 0.0159377 8.06916e-20 -0.00300628)
(-0.0307525 0.0127356 -4.4878e-19 0.0388957 -4.17815e-18 -0.00814329)
(-0.0456216 0.0196155 -1.005e-17 0.0590372 6.43399e-18 -0.0134156)
(-0.00162906 0.000747696 6.8646e-19 0.00215765 -2.28034e-19 -0.000528595)
(-0.0166326 0.00831042 -5.59964e-17 0.0226198 3.57503e-17 -0.00598713)
(-0.00642894 0.00344728 -4.97757e-18 0.00896809 9.73543e-19 -0.00253915)
(-0.0304606 0.0171949 1.04104e-18 0.0440103 -2.07027e-17 -0.0135497)
(-0.00933847 0.00572 4.08995e-17 0.0142215 5.99464e-19 -0.00488307)
(-0.00142317 0.00106332 -6.07793e-18 0.00231441 5.34952e-19 -0.000891233)
(-0.00332962 0.00331249 -1.45432e-17 0.00573853 2.23705e-18 -0.00240891)
(-0.000176514 0.000237107 -7.52258e-21 0.00031619 -4.14294e-21 -0.000139676)
(-0.000432311 0.000739622 -4.53864e-23 0.000783257 -2.37466e-21 -0.000350946)
(-0.000424516 0.000886827 -7.92645e-22 0.000754043 -1.07707e-23 -0.000329527)
(-0.000388943 0.000967824 2.39252e-20 0.000663027 7.67799e-20 -0.000274084)
(-0.000255703 0.000732893 1.83136e-21 0.000411591 -3.3389e-20 -0.000155889)
(-0.000147554 0.000467452 2.07569e-20 0.000221539 -6.08544e-20 -7.3985e-05)
(-8.43976e-05 0.000283694 1.11821e-18 0.000117399 6.29151e-20 -3.30015e-05)
(-5.87179e-05 0.000202507 5.48143e-19 7.60278e-05 -9.77131e-20 -1.73099e-05)
(-4.7596e-05 0.00016387 -3.18693e-19 5.72428e-05 -2.48786e-21 -9.64683e-06)
(-0.00216456 0.00711365 1.18194e-17 0.0026331 1.55923e-18 -0.000468548)
(-0.126609 0.41364 -1.34691e-15 0.156627 -2.01609e-16 -0.0300182)
(-0.251337 0.654071 -2.37842e-15 0.337794 -4.72364e-16 -0.0864562)
(-0.999521 3.51078 -2.18473e-14 1.08078 -6.10445e-15 -0.0812612)
(0.0016392 -0.00140085 -7.06091e-21 -0.00174929 -2.01762e-20 0.000110089)
(0.00152819 -0.00199294 -1.93999e-19 -0.0016877 -4.28076e-19 0.000159511)
(0.000361857 -0.00081132 5.11364e-20 -0.000430077 1.09569e-19 6.82203e-05)
(0.00010331 -0.000596655 4.90197e-20 -0.000162137 8.79791e-20 5.88272e-05)
(-0.000114711 -0.00141837 2.16696e-19 -4.86365e-05 3.11571e-19 0.000163347)
(-0.000774801 -0.0021634 -1.10291e-18 0.00046695 -1.86016e-18 0.000307851)
(-0.00134586 -0.00192478 8.13109e-19 0.000978948 1.55168e-18 0.000366912)
(-0.00185112 -0.00156646 1.13585e-18 0.00142374 1.02725e-18 0.000427382)
(-0.00226424 -0.001094 -6.78312e-20 0.00177367 1.42003e-19 0.000490565)
(-0.00254798 -0.000546937 8.17281e-19 0.00199299 1.38762e-18 0.000554993)
(-0.00269293 2.95589e-05 -1.80232e-18 0.00208012 -1.16446e-19 0.000612805)
(-0.00270414 0.000599914 2.62767e-18 0.00203983 2.85701e-18 0.000664308)
(-0.00261072 0.00111772 1.29242e-18 0.00191595 5.43224e-19 0.000694767)
(-0.00242948 0.00155449 6.41177e-19 0.00173363 -6.07542e-19 0.000695843)
(-0.00228316 0.00197173 1.99323e-18 0.0015843 1.94204e-18 0.000698859)
(-0.00261228 0.0028516 -6.43426e-18 0.00177484 -6.48621e-18 0.000837431)
(-0.00388696 0.00518074 2.68746e-18 0.00260676 3.96112e-18 0.0012802)
(-0.0084577 0.0135061 5.66199e-17 0.00564345 1.63552e-17 0.00281425)
(-0.0193218 0.0369112 4.57654e-17 0.012893 3.3205e-17 0.00642884)
(-0.0398234 0.0923381 -3.51423e-17 0.0265912 -2.2188e-18 0.0132321)
(-0.0672864 0.201172 8.78008e-17 0.0439485 -1.97063e-16 0.0233378)
(-0.0844622 0.391995 3.26824e-17 0.0466828 2.84717e-16 0.0377794)
(-0.0275988 0.702914 1.20073e-15 -0.0435943 -2.99846e-16 0.0711931)
(0.023018 0.0582658 -1.06088e-16 -0.0325122 -4.27185e-17 0.00949426)
(1.48624 -0.624552 9.68172e-17 -1.66809 6.99513e-17 0.181849)
(3.11445 -4.26881 -4.63423e-15 -3.3434 1.15542e-15 0.228953)
(3.95283 -7.77276 1.09746e-15 -4.21465 1.38949e-16 0.261828)
(2.13572 -5.96926 -3.50897e-16 -2.2261 1.98132e-18 0.0903821)
(0.722694 -3.07636 -5.3134e-15 -0.562467 3.01521e-15 -0.160227)
(0.363426 -1.87762 -6.60454e-15 -0.171436 2.58858e-16 -0.191989)
(0.272452 -1.16126 1.22015e-14 -0.116066 -3.30846e-15 -0.156386)
(0.225866 -0.316779 6.82475e-15 -0.113786 2.5318e-15 -0.11208)
(0.0598491 0.125258 2.10782e-16 -0.0485409 1.30898e-15 -0.0113081)
(0.0153202 -0.027075 3.90928e-16 -0.0158838 -1.56227e-16 0.000563593)
(-0.000502894 -0.0260408 2.23628e-17 0.00105843 -4.96353e-18 -0.000555534)
(-0.000104637 -0.000653544 -7.70702e-20 0.000109488 -5.71418e-19 -4.85026e-06)
(-0.00296118 -0.0100038 1.22621e-18 0.00301135 -9.00057e-18 -5.01735e-05)
(-0.122234 -0.226157 -6.37408e-16 0.103834 -2.6339e-15 0.0184004)
(-1.13452 -1.33956 -1.72954e-15 1.2831 1.19405e-15 -0.148582)
(0.00256716 -0.00138791 -5.07717e-20 -0.00269987 -1.13005e-19 0.000132711)
(0.00311893 -0.000958593 -4.27062e-20 -0.00323451 -1.01592e-20 0.000115581)
(0.00439566 -0.000328941 6.23358e-19 -0.00451312 8.99539e-19 0.000117459)
(0.00418415 0.000667934 -3.79669e-19 -0.00425157 -3.38712e-20 6.74211e-05)
(0.00300499 0.00129479 6.00409e-20 -0.0030319 2.71693e-19 2.69096e-05)
(0.00207351 0.00163147 -6.57112e-20 -0.00207768 9.53677e-19 4.16845e-06)
(0.00145855 0.00196473 -7.95958e-20 -0.00145771 7.45005e-19 -8.32351e-07)
(0.000878976 0.00223603 2.66201e-18 -0.000887411 1.68493e-18 8.4351e-06)
(0.000261167 0.00240327 5.03825e-19 -0.000269055 -5.10816e-19 7.88861e-06)
(-0.000372441 0.0024424 1.56774e-18 0.000364691 1.89737e-19 7.74919e-06)
(-0.000963709 0.00236667 -1.70226e-18 0.00094479 -9.03268e-19 1.89188e-05)
(-0.00149753 0.00221039 -1.42585e-18 0.00145098 2.13042e-18 4.65559e-05)
(-0.00198204 0.00198452 2.28701e-18 0.00188819 -1.10582e-18 9.38504e-05)
(-0.00241989 0.00169729 1.99281e-18 0.00225339 -8.98058e-21 0.000166504)
(-0.00282419 0.00137018 -2.27303e-18 0.00256003 1.92758e-18 0.000264155)
(-0.00317957 0.000993784 -1.91121e-18 0.00278711 4.26427e-18 0.000392466)
(-0.00330691 0.000551327 6.1429e-18 0.00278588 -3.42545e-18 0.000521031)
(-0.00283117 9.79776e-05 5.4069e-18 0.00227507 -1.00718e-18 0.0005561)
(-0.00097063 -8.54982e-05 8.29347e-19 0.000744331 -8.56644e-20 0.000226299)
(-0.00281172 -0.000604895 -9.48752e-19 0.00203932 3.17198e-18 0.000772407)
(-0.000109914 -3.90969e-05 6.16428e-19 7.48144e-05 4.92038e-20 3.50995e-05)
(-0.00213555 -0.00109495 4.62244e-19 0.00137145 -2.14394e-18 0.000764098)
(-0.00767783 -0.00572014 -1.66321e-19 0.00439676 -5.56439e-19 0.00328107)
(-6.84388e-05 -7.84478e-05 -1.22067e-20 2.80166e-05 -6.49867e-20 4.04223e-05)
(-0.00358635 -0.00727285 -5.58364e-19 -0.000254281 3.59399e-18 0.00384063)
(-0.00313009 -0.0165168 2.17505e-16 -0.00651727 -1.22895e-17 0.00964736)
(5.11082e-05 -0.00081129 -5.21439e-20 -0.000581578 3.89666e-21 0.00053047)
(0.000448344 -0.00149705 -2.47187e-18 -0.00156437 5.90886e-20 0.00111603)
(0.000628929 -0.00127504 -2.31079e-20 -0.001619 8.04607e-22 0.000990073)
(0.000646829 -0.00111127 -2.90666e-18 -0.00142372 -1.02037e-19 0.000776889)
(0.000472035 -0.000824982 3.28344e-18 -0.000934865 2.61267e-19 0.00046283)
(0.000230128 -0.000437405 -4.05818e-20 -0.000417466 -9.20721e-22 0.000187338)
(0.000113926 -0.000238428 -2.10205e-18 -0.000190748 1.28001e-19 7.6822e-05)
(6.48411e-05 -0.000146651 -1.84136e-21 -0.000100579 8.90718e-20 3.5738e-05)
(6.81722e-05 -0.00016377 1.0548e-20 -9.70951e-05 -9.9955e-20 2.89229e-05)
(1.66668e-05 -3.51179e-05 -9.37235e-21 -2.2942e-05 1.05495e-20 6.27515e-06)
(0.0694902 -0.0759091 -1.18696e-17 -0.0983522 3.03513e-16 0.028862)
(0.0987257 0.462788 9.339e-15 -0.18326 2.44302e-15 0.0845342)
(-0.32329 6.92861 1.84789e-13 0.153563 3.79208e-14 0.169727)
(0.00404453 -0.00319664 -9.11169e-20 -0.00393696 -1.53446e-19 -0.000107566)
(0.00347811 -0.00386451 -1.86436e-19 -0.00335753 -3.06473e-19 -0.000120573)
(0.00267281 -0.00443866 3.70995e-19 -0.00251625 5.21844e-19 -0.000156562)
(0.0017795 -0.00488497 4.70538e-19 -0.0015874 5.12771e-19 -0.000192106)
(0.000824 -0.00511709 5.81877e-20 -0.000589243 -1.79206e-20 -0.000234757)
(-0.00017351 -0.00515904 -1.68587e-19 0.000461971 4.41499e-19 -0.000288461)
(-0.00113602 -0.00500526 4.08272e-18 0.00148476 4.07936e-18 -0.000348738)
(-0.0020073 -0.00467405 -4.01292e-18 0.00242449 -5.18613e-18 -0.000417186)
(-0.00276688 -0.00419812 1.08216e-18 0.00326725 2.82191e-19 -0.000500372)
(-0.00338509 -0.00362992 5.91059e-18 0.00397669 4.37008e-18 -0.000591606)
(-0.00386187 -0.00300482 5.08115e-18 0.00455969 5.07489e-18 -0.00069782)
(-0.00420327 -0.00235447 5.95927e-18 0.00502111 1.78927e-18 -0.000817842)
(-0.00447523 -0.00173086 -7.36892e-18 0.00543773 -5.54315e-18 -0.000962497)
(-0.00458499 -0.00108918 -5.24224e-18 0.00568539 -5.09879e-18 -0.00110041)
(-0.00453892 -0.000479468 6.01664e-19 0.0057762 -1.88694e-18 -0.00123728)
(-0.00449154 0.000131958 -1.60738e-17 0.00588527 1.04835e-18 -0.00139373)
(-0.00429612 0.000841334 -5.20942e-18 0.00580312 -6.48987e-18 -0.001507)
(-0.00390829 0.00162252 -3.37201e-17 0.00546011 -2.59466e-17 -0.00155183)
(-0.00231266 0.00171125 2.72363e-18 0.00333517 -3.72055e-18 -0.00102252)
(-0.000612532 0.000760462 4.24067e-19 0.000909338 -9.89724e-19 -0.000296806)
(-2.51495e-05 5.25197e-05 -2.53047e-19 3.83994e-05 1.58323e-21 -1.325e-05)
(-1.64069e-05 6.22871e-05 4.11896e-20 2.6606e-05 8.12887e-21 -1.01991e-05)
(-7.2321e-06 6.75659e-05 -2.03325e-19 1.4555e-05 -3.83483e-20 -7.32286e-06)
(0.000480904 0.0169843 -1.73621e-17 0.000567145 1.84518e-17 -0.00104805)
(0.0200704 0.0959335 2.87386e-17 -0.0186058 1.90537e-18 -0.00146461)
(2.02574e-05 2.45814e-05 5.99535e-20 -2.19369e-05 2.17934e-20 1.6795e-06)
(2.81058e-05 -1.17894e-05 -4.50522e-21 -3.20535e-05 3.83643e-21 3.94766e-06)
(2.59188e-05 -3.55179e-05 6.13898e-21 -2.90728e-05 4.49274e-22 3.15399e-06)
(1.92118e-05 -4.86438e-05 8.60772e-20 -2.00617e-05 -1.556e-20 8.4985e-07)
(1.43905e-05 -5.69246e-05 -8.40712e-21 -1.47091e-05 3.90563e-20 3.18588e-07)
(1.07457e-05 -5.79703e-05 -1.32457e-19 -1.13499e-05 -6.94864e-20 6.04236e-07)
(7.5566e-05 -0.000425897 1.96827e-18 -8.0324e-05 -1.61615e-18 4.75798e-06)
(0.00933809 -0.0882828 3.80339e-16 -0.0115673 -3.06086e-17 0.00222918)
(0.0246461 0.0270286 -1.14319e-16 -0.0276554 -5.83132e-16 0.00300932)
(0.00338753 -0.0591412 -1.82099e-16 -0.00213328 -3.3194e-17 -0.00125425)
(-0.00767857 -0.0429267 1.71813e-18 0.00760296 2.22119e-17 7.56123e-05)
(-0.0161633 -0.0615112 -3.01319e-17 0.0159468 6.68071e-19 0.000216537)
(-1.0082 -2.66792 -2.01543e-15 0.885806 -1.37736e-14 0.122396)
(-0.706995 -1.17063 1.49506e-15 0.71578 6.09949e-16 -0.00878539)
(0.00545387 -0.00292479 -5.5356e-20 -0.00536884 -2.60754e-20 -8.50333e-05)
(0.0053052 -0.00175916 1.77056e-19 -0.00523835 8.79796e-19 -6.68465e-05)
(0.00468934 -0.000542552 4.90737e-19 -0.00466447 9.88283e-19 -2.48622e-05)
(0.00439415 0.000474629 5.82979e-19 -0.00438355 -2.93842e-19 -1.05994e-05)
(0.00413322 0.00149575 -1.19042e-18 -0.00413406 -9.10674e-19 8.42347e-07)
(0.00315231 0.00215449 -1.73213e-19 -0.00314957 -1.25347e-18 -2.74117e-06)
(0.00176637 0.00204217 -1.30608e-18 -0.00176436 -1.13349e-18 -2.01179e-06)
(0.00116534 0.00237322 -1.8778e-18 -0.00116831 -2.09684e-20 2.96989e-06)
(0.000520721 0.00255609 -4.77247e-19 -0.000528812 -3.38176e-19 8.09085e-06)
(-0.000122486 0.00250943 7.45463e-19 0.000111035 -5.03774e-19 1.14502e-05)
(-0.000660372 0.00228513 7.00881e-19 0.00065072 1.60788e-18 9.65257e-06)
(-0.00106699 0.00198971 1.65571e-18 0.00106527 -6.53275e-19 1.71576e-06)
(-0.00132934 0.00163863 -1.52227e-18 0.00134083 -1.47904e-18 -1.14959e-05)
(-0.00146007 0.00128276 -2.10681e-19 0.00148776 6.01044e-19 -2.76923e-05)
(-0.00153148 0.000992758 1.70167e-18 0.00157919 -3.99472e-19 -4.77053e-05)
(-0.00154658 0.000747694 3.7992e-18 0.00161556 -3.34683e-19 -6.89803e-05)
(-0.00124213 0.000446492 -2.21243e-18 0.00131642 -4.64964e-19 -7.42914e-05)
(-0.00113004 0.000295974 -5.88133e-19 0.00121572 -8.48878e-19 -8.56772e-05)
(-0.000310478 5.58003e-05 -8.18572e-20 0.000339078 4.66509e-20 -2.86002e-05)
(-0.000663463 6.87971e-05 2.3769e-18 0.000734615 -8.67104e-19 -7.11514e-05)
(-0.000775603 2.03128e-05 4.9856e-19 0.000870397 -6.84676e-19 -9.47939e-05)
(-0.000937803 -5.94871e-05 -3.95814e-18 0.00106602 1.06345e-18 -0.000128221)
(-0.000824333 -0.000144589 -1.38172e-19 0.000949679 4.71368e-19 -0.000125346)
(-0.000638956 -0.000202535 -4.67912e-20 0.000750125 -2.63496e-19 -0.000111168)
(-0.000622378 -0.000288711 3.89575e-20 0.000757496 -3.24332e-21 -0.000135119)
(-0.00053862 -0.000317279 -3.20402e-18 0.000694467 -3.31507e-19 -0.000155846)
(-0.000468877 -0.000326043 -3.37117e-20 0.000647892 5.68864e-21 -0.000179015)
(-0.000401644 -0.000315756 7.32029e-19 0.000598284 -1.0048e-20 -0.00019664)
(-0.000337616 -0.000291376 -3.03467e-20 0.000544275 -5.13703e-22 -0.000206658)
(-0.000290941 -0.000265795 7.33853e-21 0.000508825 -7.23822e-20 -0.000217885)
(-0.000240488 -0.000233611 -2.13195e-18 0.000454933 3.11327e-20 -0.000214445)
(-0.000185655 -0.000200945 -4.6827e-20 0.000380516 -2.87798e-21 -0.00019486)
(-0.000131226 -0.000178702 3.88374e-20 0.00029546 -1.45359e-19 -0.000164234)
(-7.48409e-05 -0.000160215 4.15167e-18 0.00019527 5.7654e-19 -0.00012043)
(-5.55376e-05 -0.000322361 4.63396e-20 0.000223408 4.937e-21 -0.00016787)
(2.15238e-06 -0.000113775 -3.04505e-18 4.29192e-05 -3.5569e-19 -4.50716e-05)
(2.37279e-06 -1.15166e-05 9.9082e-19 7.35828e-07 1.44434e-19 -3.10862e-06)
(0.0508753 -0.0504575 7.12165e-17 -0.0431421 -2.64207e-16 -0.00773322)
(1.45603 6.25699 1.86426e-15 -1.35458 -1.03491e-14 -0.101451)
(0.00630977 -0.00515247 -2.1544e-19 -0.00637816 -2.91912e-19 6.839e-05)
(0.00519052 -0.00604846 -4.05058e-19 -0.00529192 -5.51939e-19 0.000101402)
(0.00390531 -0.00693929 1.38559e-18 -0.00402031 1.76664e-18 0.000114999)
(0.00243208 -0.00760423 -5.94303e-18 -0.00258364 -7.74942e-18 0.000151556)
(0.000827826 -0.00795833 1.50769e-18 -0.00102043 2.10748e-18 0.000192605)
(-0.00088886 -0.00802335 3.3814e-18 0.000652601 3.47665e-18 0.000236258)
(-0.00262238 -0.00772619 -3.0788e-18 0.00232358 -4.73915e-18 0.000298801)
(-0.00428325 -0.00707059 -1.91381e-18 0.00390922 2.89955e-19 0.000374025)
(-0.00580699 -0.00606964 -1.36271e-17 0.00534633 -1.26379e-17 0.000460663)
(-0.00711053 -0.00476447 -2.27177e-18 0.00654028 -5.4078e-18 0.000570248)
(-0.00813043 -0.00320234 4.11277e-19 0.00743378 -1.34033e-18 0.000696649)
(-0.00881403 -0.00144764 -8.70198e-18 0.00797014 -1.06554e-17 0.000843895)
(-0.00912179 0.000415523 4.5119e-18 0.00811067 5.24677e-18 0.00101112)
(-0.0090446 0.00229004 -1.97588e-17 0.00785641 -1.01539e-17 0.00118819)
(-0.00859668 0.00409328 4.4816e-18 0.00722994 2.49518e-18 0.00136673)
(-0.00782947 0.00574438 2.1959e-17 0.00629982 1.79661e-17 0.00152965)
(-0.00686768 0.00714022 -3.20248e-17 0.00524502 -8.98946e-18 0.00162266)
(-0.00580389 0.00831382 -6.33687e-18 0.00414319 2.8507e-17 0.00166071)
(-0.00459346 0.00925265 -2.37197e-18 0.00294785 -3.94266e-18 0.00164561)
(-0.00220691 0.00678796 -2.0991e-17 0.00112247 -3.15423e-18 0.00108444)
(-0.000397707 0.00238664 8.06643e-18 5.50608e-05 4.8812e-18 0.000342646)
(-1.22479e-05 0.00092732 1.06143e-19 -0.000106999 -1.6536e-19 0.000119247)
(7.98124e-06 5.80411e-05 1.73858e-19 -1.46743e-05 4.74939e-20 6.69303e-06)
(1.31151e-05 5.24017e-05 1.24991e-19 -1.79502e-05 3.9521e-20 4.83507e-06)
(0.00565445 0.0192788 -5.05511e-18 -0.00672098 -4.38894e-19 0.00106654)
(1.32017e-05 4.32603e-05 1.14236e-21 -1.44583e-05 -1.46948e-21 1.25654e-06)
(1.32423e-05 3.10547e-05 1.35026e-20 -1.37073e-05 -3.40905e-21 4.64988e-07)
(1.3621e-05 1.34384e-05 -5.98302e-21 -1.35866e-05 -8.75869e-21 -3.43464e-08)
(1.37063e-05 -3.65028e-06 -8.63145e-20 -1.36642e-05 -1.42603e-21 -4.21259e-08)
(1.28669e-05 -2.05266e-05 7.9614e-21 -1.3117e-05 4.5074e-22 2.50056e-07)
(1.08411e-05 -3.62649e-05 -1.43945e-20 -1.14074e-05 4.8784e-21 5.66297e-07)
(9.05049e-06 -4.84874e-05 -2.42988e-19 -9.68831e-06 -1.68408e-19 6.37824e-07)
(5.27e-06 -6.19388e-05 -1.59781e-20 -5.85075e-06 -7.50155e-20 5.8075e-07)
(1.79157e-06 -3.77028e-05 -6.78632e-19 -2.10642e-06 3.5537e-20 3.14859e-07)
(0.00349636 -0.0237566 3.47184e-17 -0.00233504 9.79429e-17 -0.00116132)
(-0.0266381 -0.155201 1.48851e-19 0.0259067 -2.71798e-20 0.000731395)
(-0.0362634 -0.158532 -1.61854e-17 0.0353179 2.59989e-16 0.000945511)
(-1.30902 -3.5859 1.40795e-15 1.30651 7.42299e-15 0.00251404)
(-0.398046 -1.06799 -2.1744e-15 0.351091 7.43546e-16 0.0469553)
(0.00682198 -0.00378068 3.8777e-19 -0.00689148 1.80648e-19 6.94999e-05)
(0.00713976 -0.00247126 -1.07981e-18 -0.00717478 -1.59019e-18 3.50186e-05)
(0.00501935 -0.0006768 -4.80602e-19 -0.00504236 7.54509e-19 2.30079e-05)
(0.00355281 0.000285651 1.44504e-18 -0.0035598 8.07448e-19 6.9856e-06)
(0.00242575 0.000774385 -3.44586e-19 -0.00242787 -1.90669e-18 2.12512e-06)
(0.00650709 0.00398311 -2.15858e-18 -0.00649427 2.09691e-18 -1.28203e-05)
(0.00539268 0.00551824 5.86857e-18 -0.00537878 4.48885e-18 -1.39018e-05)
(0.00391987 0.00675876 -2.2681e-18 -0.00391681 -5.35386e-18 -3.06016e-06)
(0.00218534 0.00762056 -5.50729e-18 -0.00218843 -2.25903e-18 3.09508e-06)
(0.000319251 0.00804807 -4.63756e-18 -0.000326281 1.86618e-18 7.0306e-06)
(-0.001445 0.00772495 5.92333e-18 0.00143754 -3.14862e-20 7.45799e-06)
(-0.00256913 0.00623639 -3.56223e-18 0.00256178 -2.75734e-18 7.35924e-06)
(-0.00313217 0.00479974 -4.00696e-18 0.00312063 3.02781e-18 1.15416e-05)
(-0.00328253 0.00353318 3.7575e-18 0.00326227 1.41907e-18 2.02589e-05)
(-0.00315242 0.00249115 -5.62365e-18 0.00312099 1.04738e-18 3.14307e-05)
(-0.00302185 0.00177227 -1.20389e-18 0.00297468 -3.7074e-18 4.71709e-05)
(-0.00257184 0.00110374 1.37627e-18 0.00251239 1.75793e-18 5.94442e-05)
(-0.00205817 0.000614854 -5.07596e-18 0.00199108 3.30625e-19 6.70974e-05)
(-0.00179726 0.000329147 1.95589e-18 0.00171885 -7.18903e-20 7.84123e-05)
(-0.00157269 0.000113837 -7.47365e-18 0.00148441 6.35015e-19 8.82837e-05)
(-0.00136836 -5.73184e-05 -8.6428e-19 0.00127365 2.38897e-19 9.47124e-05)
(-0.00116457 -0.000198732 5.64903e-18 0.00106674 3.10669e-19 9.78295e-05)
(-0.000968689 -0.000317907 5.09326e-18 0.000871965 -1.07232e-18 9.67243e-05)
(-0.000772264 -0.000413837 -4.16912e-18 0.000675334 3.2446e-19 9.69299e-05)
(-0.000572628 -0.000464586 -5.30015e-20 0.000473063 2.52599e-20 9.95642e-05)
(-0.000393415 -0.000466618 -3.7092e-18 0.000292458 8.06907e-19 0.000100957)
(-0.000244583 -0.000441408 -4.69934e-20 0.000138746 1.01122e-21 0.000105837)
(-0.000124202 -0.000403996 -4.32735e-23 1.04991e-05 -2.26497e-21 0.000113703)
(-2.76676e-05 -0.000360599 3.54527e-21 -9.42852e-05 -3.41346e-22 0.000121953)
(4.93113e-05 -0.000314049 1.21962e-18 -0.000179353 4.97007e-20 0.000130041)
(0.000105331 -0.000265506 1.27784e-21 -0.000239272 -9.89445e-20 0.000133942)
(0.000141431 -0.000220659 -3.66072e-20 -0.000274104 -5.56334e-21 0.000132674)
(0.000164767 -0.000182355 -6.97005e-18 -0.000294204 -7.93744e-19 0.000129437)
(0.000184566 -0.000153902 -6.50951e-18 -0.000311789 -5.04892e-19 0.000127223)
(0.00017242 -0.000113688 1.83714e-20 -0.000276883 5.88451e-21 0.000104463)
(0.000285712 -0.000134487 -1.4078e-17 -0.000432715 -2.11326e-18 0.000147003)
(1.17746e-05 -4.00748e-06 1.76327e-20 -1.67573e-05 -1.35102e-19 4.98273e-06)
(0.0429812 -0.0214852 2.50402e-18 -0.0489899 1.10024e-18 0.0060087)
(2.22061 4.48406 -2.06922e-13 -2.15107 -3.13605e-14 -0.0695478)
(0.00881551 -0.00718453 7.70079e-19 -0.00876688 8.26181e-19 -4.86231e-05)
(0.00754638 -0.0085765 -5.68141e-19 -0.00750353 -5.83191e-19 -4.2841e-05)
(0.00593523 -0.0099676 -1.05191e-20 -0.00586673 -5.83638e-20 -6.84935e-05)
(0.00400501 -0.0110404 -2.29476e-19 -0.00392256 1.71805e-19 -8.24494e-05)
(0.00185799 -0.0115865 7.44225e-18 -0.00175793 7.68914e-18 -0.000100062)
(-0.00038989 -0.010864 -4.4815e-18 0.000514384 -5.43404e-18 -0.000124493)
(-0.00232221 -0.0098909 -2.79453e-19 0.00246752 1.15637e-18 -0.00014531)
(-0.00391023 -0.00868973 1.40413e-17 0.00408154 1.31728e-17 -0.000171306)
(-0.00517778 -0.00735375 -2.95478e-18 0.00538531 2.83361e-19 -0.00020753)
(-0.00615125 -0.0059778 -1.54789e-17 0.00639962 -1.02863e-17 -0.000248373)
(-0.00685674 -0.00458689 4.8719e-18 0.00715639 4.00636e-18 -0.00029965)
(-0.00731843 -0.00320379 -1.3254e-17 0.00768071 -4.3008e-18 -0.000362283)
(-0.00755584 -0.00185901 -5.15517e-18 0.00799213 -1.95455e-18 -0.000436281)
(-0.0075925 -0.000572299 -9.14573e-18 0.0081192 4.91745e-18 -0.000526706)