/*--------------------------------*- C++ -*----------------------------------*\
| =========                 |                                                 |
| \\      /  F ield         | OpenFOAM: The Open Source CFD Toolbox           |
|  \\    /   O peration     | Version:  2312                                  |
|   \\  /    A nd           | Website:  www.openfoam.com                      |
|    \\/     M anipulation  |                                                 |
\*---------------------------------------------------------------------------*/
FoamFile
{
    version     2.0;
    format      ascii;
    arch        "LSB;label=32;scalar=64";
    class       volSymmTensorField;
    location    "250";
    object      turbulenceProperties:R;
}
// * * * * * * * * * * * * * * * * * * * * * * * * * * * * * * * * * * * * * //

dimensions      [0 2 -2 0 0 0 0];

internalField   nonuniform List<symmTensor> 
10720
(
(0.0152846 0.00763653 -6.86653e-21 0.00870348 -1.15564e-19 0.0123479)
(0.0207662 0.0127184 8.38358e-21 0.00735414 1.73326e-19 0.0144209)
(0.0291938 0.0166483 4.39489e-20 0.00567192 1.87278e-19 0.0183109)
(0.0366219 0.017336 2.55916e-19 0.0057341 1.74702e-18 0.0221854)
(0.042843 0.0150355 -6.9272e-19 0.00891583 -2.65242e-18 0.0267449)
(0.0495604 0.0122016 -6.27185e-19 0.0131252 -1.26333e-18 0.0323206)
(0.0580232 0.0099595 1.62222e-19 0.017879 1.25899e-20 0.0389316)
(0.0690584 0.00791241 7.61922e-20 0.0230496 1.20473e-19 0.047063)
(0.0841379 0.00558285 1.83063e-19 0.0289945 -1.47872e-19 0.0577506)
(0.105156 0.00251514 -2.83764e-20 0.0368995 -2.84697e-20 0.0724014)
(0.135465 -0.00218914 3.28189e-18 0.0484464 1.36792e-18 0.0936415)
(0.182243 -0.00988717 -8.05241e-19 0.0669348 -6.18369e-19 0.126759)
(0.257329 -0.023289 1.80643e-18 0.0978699 -2.71147e-18 0.180508)
(0.38887 -0.0488217 1.02313e-18 0.154534 2.22215e-18 0.275913)
(0.636395 -0.101563 2.0714e-18 0.266721 -3.67239e-18 0.45822)
(1.16856 -0.224786 8.88098e-19 0.520505 1.77186e-17 0.856357)
(2.25096 -0.504861 1.26722e-16 1.07259 6.50393e-17 1.68437)
(4.67717 -1.1928 -4.33412e-17 2.39488 6.59454e-17 3.5821)
(8.96458 -2.55611 -2.83862e-17 4.95446 -4.10948e-16 7.0478)
(14.4945 -4.55698 2.65499e-17 8.67466 -7.16939e-19 11.7241)
(22.1936 -7.61896 -5.92771e-16 14.4423 -4.16231e-16 18.5296)
(35.7883 -13.299 1.28317e-15 25.4055 1.8122e-15 30.9381)
(64.5768 -25.7481 -8.40265e-16 50.0768 -2.08998e-15 57.9735)
(119.904 -50.6566 9.71325e-16 100.985 2.14284e-16 111.671)
(201.718 -88.7506 -3.00093e-16 181.506 -1.47853e-17 193.146)
(276.106 -124.595 9.46915e-17 259.62 -2.04671e-15 269.982)
(544.639 -250.838 6.94556e-16 531.588 -2.16882e-16 542.93)
(870.921 -410.086 8.15024e-16 891.365 1.4682e-15 884.33)
(591.235 -277.325 1.6532e-14 638.345 4.62183e-16 612.458)
(246.939 -96.2251 9.02582e-15 272.013 4.67288e-15 258.478)
(75.2582 -27.4886 -2.91892e-15 84.2642 -6.98359e-16 79.6011)
(9.48594 -2.81176 -5.02635e-16 10.5635 -2.37527e-16 10.0146)
(1.98472 -0.513687 -2.30054e-17 2.19476 -8.8348e-17 2.08865)
(0.184022 -0.0426869 -1.20035e-17 0.200783 -1.57782e-17 0.19259)
(6.55572e-16 -7.84458e-17 1.80192e-32 6.76774e-16 6.78726e-32 6.67654e-16)
(6.96113e-16 5.61648e-17 1.25028e-32 6.38886e-16 1.10647e-31 6.65001e-16)
(0.00176363 0.000419311 -1.14011e-19 0.00140056 1.81722e-20 0.00157478)
(0.137704 0.0646768 -4.36617e-18 0.0886217 -1.48777e-16 0.11195)
(8.43116 3.47701 4.39695e-15 8.08379 9.25339e-15 8.34618)
(0.0205487 0.00811874 3.79628e-21 0.0156595 -1.10098e-20 0.018258)
(0.022973 0.00950754 -2.98513e-20 0.0187141 3.18893e-20 0.0212179)
(0.0178977 0.00783883 -1.41609e-19 0.0159599 -1.02167e-19 0.0171144)
(0.0114726 0.0124343 3.5058e-19 0.0106108 -4.36493e-19 0.0112986)
(0.00723056 0.00344069 -1.70471e-19 0.0074205 -4.10171e-20 0.00736374)
(0.0122693 0.00582265 -1.72985e-18 0.0127151 2.20031e-18 0.012401)
(0.0146235 0.0067562 1.42199e-18 0.0140874 2.73128e-18 0.0138789)
(0.0168557 0.00713353 2.30783e-19 0.0132689 -5.46554e-18 0.0144089)
(0.0201928 0.00719549 2.17641e-18 0.0122287 -1.46239e-19 0.0159417)
(0.0238609 0.00728637 -1.21202e-18 0.0122892 -3.61889e-19 0.0181211)
(0.0288985 0.00817867 8.48147e-19 0.0141242 2.03677e-18 0.0216557)
(0.0365711 0.0102051 1.47748e-18 0.0181467 -7.09894e-19 0.0275406)
(0.048108 0.0136728 -1.36238e-18 0.0250383 -2.42531e-19 0.036828)
(0.0685399 0.020081 2.82631e-19 0.0377636 3.61543e-19 0.0535341)
(0.098556 0.0302174 4.20142e-18 0.0567181 5.95772e-19 0.0781546)
(0.166689 0.0537031 4.64551e-18 0.099737 -1.03227e-18 0.134069)
(0.242392 0.0909436 2.19818e-18 0.139952 3.11673e-18 0.192463)
(0.601029 0.284313 2.67275e-18 0.311206 6.66952e-18 0.459794)
(0.827214 0.333594 2.53181e-18 0.518763 -1.42115e-18 0.676824)
(1.03229 0.411475 3.69391e-18 0.688075 1.85894e-19 0.864619)
(1.36776 0.575973 -4.86506e-18 0.933829 -2.94213e-17 1.15667)
(1.99652 0.857997 -1.58078e-17 1.42192 -2.03879e-19 1.71783)
(2.75189 1.12754 1.11826e-17 2.09532 1.72782e-17 2.43501)
(3.79406 1.56521 5.38201e-18 3.0344 -8.19524e-19 3.43169)
(5.0206 2.12417 1.64144e-16 4.20717 -2.6906e-17 4.63916)
(6.28664 2.73691 -4.51677e-19 5.51065 -9.03965e-18 5.93036)
(5.67802 2.31603 1.85157e-20 5.2439 6.82431e-19 5.48657)
(3.43832 1.27701 5.67014e-20 3.31538 -1.74199e-21 3.39024)
(1.41045 0.488801 8.9649e-20 1.40543 1.21408e-21 1.41285)
(0.378248 0.12674 3.0937e-18 0.387271 -1.21448e-19 0.383992)
(0.0459524 0.0155579 -1.55477e-20 0.048264 -7.78137e-22 0.0472552)
(0.00208961 0.000746068 -2.31687e-21 0.00225525 5.92418e-21 0.00217924)
(0.000357383 0.000139269 -2.10438e-20 0.000398007 -2.36547e-21 0.000378908)
(0.000107866 4.69935e-05 -1.27198e-20 0.000124677 1.32786e-21 0.000116661)
(6.03283e-16 2.96623e-16 7.48142e-32 7.28552e-16 5.36259e-33 6.68164e-16)
(0.333869 0.186706 -2.89589e-19 0.425361 -1.25293e-18 0.381615)
(21.3587 10.9628 -1.39443e-17 27.5627 -1.12096e-16 24.5878)
(40.7555 21.0623 -1.27121e-16 53.9265 2.07065e-16 47.7112)
(112.068 58.2871 -2.02198e-14 154.974 -1.5294e-15 133.668)
(0.0189018 -0.0106725 -9.6254e-20 -0.00791618 -2.87853e-19 0.00352495)
(0.0173132 -0.0127053 1.50622e-19 -0.00501729 3.8611e-19 0.00392019)
(0.0131955 -0.0130229 9.59248e-21 -0.00139101 4.9058e-21 0.00349883)
(0.00867788 -0.00889848 1.91972e-19 0.00271162 2.59554e-20 0.00390032)
(0.00614211 -0.00541326 1.14227e-19 0.00456465 7.50323e-19 0.0041454)
(0.00488819 -0.00334995 3.80705e-19 0.00513858 6.7674e-19 0.00415389)
(0.00426718 -0.00237946 -1.3705e-19 0.00523694 2.23134e-20 0.00402864)
(0.00383493 -0.001895 -1.08224e-19 0.00520729 -3.0117e-20 0.00382952)
(0.00352113 -0.00161399 -6.61892e-19 0.00519813 -7.25218e-19 0.00364144)
(0.00330729 -0.00141573 -2.23819e-19 0.00518437 -7.72972e-20 0.00347397)
(0.00319831 -0.00126997 -2.2123e-18 0.0051997 -2.14095e-18 0.00335402)
(0.0031352 -0.00115719 -2.88056e-20 0.00515458 3.71292e-19 0.00323203)
(0.00360688 -0.00126706 -1.46953e-18 0.00582279 2.73024e-20 0.00359892)
(0.00553469 -0.00190649 1.54557e-18 0.00852945 9.14029e-19 0.00527022)
(0.0109556 -0.00381025 -6.1572e-18 0.0155596 -1.80003e-18 0.0098102)
(0.0266208 -0.00949639 3.04371e-17 0.0334005 7.30096e-18 0.0222134)
(0.0713998 -0.0260409 -6.54453e-17 0.0768242 -5.51822e-17 0.0562513)
(0.202204 -0.0741955 -1.44555e-16 0.187979 -5.33125e-17 0.155208)
(0.548773 -0.201154 -3.44522e-16 0.457709 1.41405e-16 0.422485)
(1.31588 -0.48429 7.32605e-17 1.03255 2.15426e-20 1.03265)
(2.71634 -1.015 6.02391e-16 2.08865 6.90364e-16 2.18782)
(4.99462 -1.90923 -1.00358e-15 3.87338 -1.76752e-15 4.12426)
(8.51626 -3.33742 9.09305e-17 6.78756 1.85255e-15 7.16187)
(15.0314 -5.9853 3.11606e-17 12.3003 -5.66841e-16 12.7315)
(43.5381 -13.2486 -0 37.9826 -0 38.6964)
(66.6673 -10.3341 -3.347e-17 65.2936 6.08479e-16 63.6478)
(186.543 -12.4463 -1.05009e-15 191.834 2.51276e-16 183.205)
(378.33 -7.29472 -1.09933e-16 379.551 -9.16364e-16 376.188)
(318.212 -4.65438 -1.21269e-14 310.487 -5.71635e-15 316.725)
(193.707 -4.62553 -6.01329e-16 181.668 -2.23806e-14 191.887)
(90.8013 -2.96468 9.33228e-16 86.1 1.39641e-14 90.0212)
(32.2401 -1.49516 2.29212e-16 31.8477 6.41664e-15 32.3106)
(8.26974 -0.908258 -1.28108e-15 8.4749 1.11704e-15 8.40126)
(0.825551 -0.263613 2.66108e-16 0.888242 4.31536e-16 0.855621)
(0.016156 -0.00612676 -2.76786e-19 0.0170631 -4.03686e-18 0.0164521)
(6.74771e-16 -1.13743e-16 -2.7861e-32 6.60942e-16 -9.27584e-32 6.64287e-16)
(0.011954 -0.000860055 4.98642e-19 0.0118916 -4.52013e-20 0.012182)
(0.687308 -0.275341 9.13041e-16 0.914987 5.82519e-15 0.845549)
(4.75646 -2.28733 -3.27207e-15 9.32335 -1.0784e-14 6.82013)
(0.00237657 -0.00106351 1.61355e-20 -0.00170798 4.63192e-20 0.000112393)
(0.00428948 -0.000399487 -4.04427e-21 0.00168155 -1.45013e-19 0.00286301)
(0.0028352 -7.08815e-05 -6.31917e-20 0.0010555 -1.54024e-19 0.00188265)
(0.00868119 0.0005771 6.85074e-20 0.00200552 1.0224e-18 0.00517735)
(0.0106141 0.00148053 6.44126e-19 0.00434607 -5.99129e-19 0.0074045)
(0.0101858 0.00235214 -2.35421e-19 0.00494942 -9.65262e-19 0.00757175)
(0.00629245 0.00200916 3.84073e-19 0.00382301 -1.68281e-18 0.00510022)
(0.00528005 0.00207772 -1.32015e-18 0.00401317 -8.23214e-20 0.00472958)
(0.00486529 0.00224191 -8.55596e-19 0.00472905 1.76423e-18 0.00488752)
(0.00429945 0.00219941 -3.51614e-19 0.00546475 -3.97751e-20 0.00491637)
(0.00378107 0.00197065 -3.36555e-19 0.00605963 -1.18115e-18 0.00485149)
(0.00338704 0.00165797 6.82433e-20 0.00640678 -6.69355e-19 0.00471897)
(0.00305877 0.00132658 5.51383e-19 0.00644571 1.41589e-18 0.00448271)
(0.00280225 0.00104108 -6.08634e-19 0.00629487 -3.45565e-19 0.00420525)
(0.00241434 0.000764832 -3.33272e-19 0.00559716 -1.17487e-18 0.00363211)
(0.0147784 0.00407114 -9.81273e-18 0.0346325 -2.23304e-18 0.0219914)
(0.0215071 0.00537736 -2.58882e-18 0.0502491 8.03365e-20 0.0313885)
(0.0531196 0.0127153 -4.48064e-19 0.122657 -4.17149e-18 0.0756927)
(0.0820387 0.0195972 -1.00406e-17 0.1866 6.42799e-18 0.114215)
(0.0175319 0.000730435 6.70613e-19 0.0212312 -2.22769e-19 0.018607)
(0.211966 0.00829356 -5.58827e-17 0.251138 3.56777e-17 0.22259)
(0.0134104 0.00343085 -4.95386e-18 0.028734 9.68905e-19 0.0172816)
(0.0679142 0.0171789 1.04008e-18 0.142316 -2.06834e-17 0.0848094)
(0.71251 0.00570394 4.07847e-17 0.736004 5.97781e-19 0.716953)
(0.0916135 0.00104543 -5.97569e-18 0.0952882 5.25953e-19 0.0921365)
(0.216932 0.00329096 -1.44486e-17 0.225941 2.22251e-18 0.217847)
(0.00921411 0.000210863 -6.68995e-21 0.00965228 -3.68438e-21 0.00924687)
(0.0230768 0.000708019 -4.34471e-23 0.0242404 -2.27319e-21 0.0231547)
(0.0226621 0.000847639 -7.57618e-22 0.0237886 -1.02947e-23 0.0227529)
(0.0172323 0.000917899 2.2691e-20 0.01823 7.28192e-20 0.0173412)
(0.010041 0.000668691 1.67093e-21 0.0106499 -3.04641e-20 0.0101321)
(0.00454592 0.000385243 1.71064e-20 0.0048501 -5.01521e-20 0.00460655)
(0.00164399 0.000179369 7.07002e-19 0.00177158 3.97788e-20 0.00167649)
(0.000497841 7.14431e-05 1.93381e-19 0.000545379 -3.44725e-20 0.00051245)
(9.62477e-06 1.82464e-06 -3.54855e-21 1.07921e-05 -2.77016e-23 1.00473e-05)
(0.0279647 0.00692065 1.14987e-17 0.0326322 1.51693e-18 0.0296147)
(1.71827 0.413468 -1.34635e-15 2.00139 -2.01525e-16 1.81482)
(3.05955 0.653937 -2.37793e-15 3.64856 -4.72268e-16 3.2244)
(37.037 3.51071 -2.18469e-14 39.1172 -6.10433e-15 37.9552)
(0.0023848 -0.00122163 -6.15754e-21 -0.000570165 -1.75949e-20 0.00105132)
(0.00242457 -0.00177682 -1.7296e-19 -0.000442567 -3.81652e-19 0.00120432)
(0.000316296 -0.000568538 3.58342e-20 -0.000238658 7.67816e-20 0.000110528)
(9.54379e-05 -0.000343945 2.82577e-20 -5.75804e-05 5.07161e-20 6.97957e-05)
(2.93173e-05 -0.00117142 1.78967e-19 8.38875e-05 2.57323e-19 0.000258963)
(-0.000460022 -0.00193867 -9.88342e-19 0.000652742 -1.66694e-18 0.000510169)
(-0.000867387 -0.00173655 7.33592e-19 0.00123007 1.39993e-18 0.000677885)
(-0.00122298 -0.00142333 1.03206e-18 0.00175264 9.33385e-19 0.000847326)
(-0.00150156 -0.00100084 -6.20545e-20 0.00219247 1.2991e-19 0.00101864)
(-0.00165731 -0.000503393 7.52214e-19 0.00252213 1.27714e-18 0.00119862)
(-0.00167893 2.735e-05 -1.66763e-18 0.00273743 -1.07744e-19 0.00137976)
(-0.00156242 0.000557644 2.44253e-18 0.00284729 2.65571e-18 0.00156869)
(-0.00132053 0.00104267 1.20565e-18 0.00290221 5.0675e-19 0.00176302)
(-0.00134883 0.00145338 5.9947e-19 0.00254348 -5.68023e-19 0.0015732)
(-0.000283394 0.00184991 1.87009e-18 0.00334512 1.82206e-18 0.00251439)
(0.00343206 0.00271441 -6.12471e-18 0.00760811 -6.17416e-18 0.0067158)
(0.00922165 0.00503205 2.61033e-18 0.015529 3.84744e-18 0.0142405)
(0.0252432 0.0133492 5.59622e-17 0.0391805 1.61652e-17 0.0363842)
(0.0694287 0.0367495 4.55649e-17 0.101502 3.30595e-17 0.0950665)
(0.17517 0.0921765 -3.50808e-17 0.241469 -2.21492e-18 0.228133)
(0.387543 0.201017 8.77332e-17 0.498692 -1.96911e-16 0.478097)
(0.778622 0.391857 3.26709e-17 0.909721 2.84616e-16 0.900821)
(1.50126 0.702807 1.20055e-15 1.48526 -2.99801e-16 1.60003)
(0.152508 0.0582105 -1.05988e-16 0.097031 -4.2678e-17 0.138998)
(8.11066 -0.624535 9.68146e-17 4.95642 6.99494e-17 6.80631)
(17.1722 -4.26874 -4.63416e-15 10.7145 1.15541e-15 14.2868)
(67.9947 -7.77268 1.09745e-15 59.8273 1.38948e-16 64.3037)
(147.148 -5.96919 -3.50893e-16 142.786 1.9813e-18 145.102)
(134.392 -3.0763 -5.3133e-15 133.107 3.01515e-15 133.509)
(99.2911 -1.87758 -6.60439e-15 98.7562 2.58852e-16 98.7357)
(58.9791 -1.16123 1.22013e-14 58.5906 -3.30838e-15 58.5503)
(28.884 -0.316768 6.82451e-15 28.5444 2.53172e-15 28.5461)
(10.3378 0.125242 2.10755e-16 10.2294 1.30881e-15 10.2667)
(1.93373 -0.0270498 3.90564e-16 1.90255 -1.56082e-16 1.91898)
(0.157395 -0.0257209 2.2088e-17 0.158937 -4.90256e-18 0.157343)
(6.26631e-16 -2.50054e-16 -2.94879e-32 7.08558e-16 -2.18631e-31 6.64811e-16)
(0.0233073 -0.00957199 1.17329e-18 0.029022 -8.61209e-18 0.0260926)
(0.721817 -0.225981 -6.3691e-16 0.947708 -2.63184e-15 0.862341)
(2.77486 -1.33936 -1.72929e-15 5.19214 1.19388e-15 3.76066)
(0.00261317 -0.00125542 -4.59251e-20 -0.00215107 -1.02218e-19 0.000411114)
(0.00897275 -0.00087635 -3.90423e-20 0.00316441 -9.28757e-21 0.00622708)
(0.0128429 -0.000308002 5.83678e-19 0.00450123 8.42278e-19 0.00883704)
(0.0116161 0.000624179 -3.54797e-19 0.00373294 -3.16523e-20 0.00776901)
(0.00745726 0.00118811 5.50938e-20 0.00191778 2.49307e-19 0.00472456)
(0.00377204 0.00147411 -5.9373e-20 2.12545e-05 8.61689e-19 0.0019023)
(0.00190061 0.00177706 -7.19927e-20 -0.000737083 6.7384e-19 0.000580633)
(0.00151863 0.00203938 2.42789e-18 -9.24106e-05 1.53675e-18 0.000724649)
(0.00117478 0.00221473 4.64299e-19 0.000686159 -4.70742e-19 0.000941376)
(0.000821794 0.00227871 1.46267e-18 0.00150952 1.7702e-19 0.0011765)
(0.000536408 0.00223682 -1.60886e-18 0.00234019 -8.53707e-19 0.00146512)
(0.000349839 0.00211408 -1.36372e-18 0.00316987 2.03759e-18 0.00182665)
(0.000171858 0.00191705 2.20926e-18 0.00391052 -1.06823e-18 0.00217718)
(1.95691e-06 0.0016528 1.94057e-18 0.00455274 -8.74518e-21 0.00252056)
(-2.73759e-05 0.00134276 -2.22754e-18 0.00524909 1.889e-18 0.00299916)
(-7.51159e-05 0.000978547 -1.8819e-18 0.00580008 4.19889e-18 0.00344215)
(-0.00074218 0.000544436 6.06611e-18 0.00527446 -3.38263e-18 0.00303792)
(-0.000171757 9.67702e-05 5.34027e-18 0.00487156 -9.94768e-19 0.00317377)
(0.000125598 -8.28842e-05 8.03991e-19 0.00178813 -8.30454e-20 0.00128593)
(0.0010162 -0.000599434 -9.40188e-19 0.00582345 3.14334e-18 0.00456798)
(5.58774e-05 -3.13144e-05 4.93723e-19 0.000203834 3.94094e-20 0.000172025)
(0.00201722 -0.00108523 4.58139e-19 0.00549307 -2.1249e-18 0.00489112)
(0.0124699 -0.00570833 -1.65978e-19 0.0245196 -5.5529e-19 0.0234062)
(0.000134721 -6.48147e-05 -1.00853e-20 0.000214414 -5.3693e-20 0.000224663)
(0.0162084 -0.00725844 -5.57257e-19 0.0195339 3.58687e-18 0.0236207)
(0.044196 -0.0165028 2.1732e-16 0.0408117 -1.2279e-17 0.0569626)
(0.00236064 -0.000798197 -5.13024e-20 0.00173816 3.83377e-21 0.00283226)
(0.00590739 -0.00148532 -2.45249e-18 0.00391045 5.86254e-20 0.00656984)
(0.00606956 -0.00126375 -2.29033e-20 0.00384154 7.97482e-22 0.00642751)
(0.00492939 -0.00109886 -2.8742e-18 0.00288197 -1.00897e-19 0.005058)
(0.00312807 -0.000809994 3.22379e-18 0.00174673 2.56521e-19 0.00311903)
(0.00160073 -0.000418725 -3.88488e-20 0.000980796 -8.81401e-22 0.00155977)
(0.000773112 -0.000215405 -1.89907e-18 0.000497858 1.15642e-19 0.000739591)
(0.000392542 -0.000118982 -1.49395e-21 0.000258332 7.22664e-20 0.00036893)
(0.000412346 -0.000132913 8.56055e-21 0.000278218 -8.11219e-20 0.000380492)
(8.03388e-16 -2.88079e-16 -7.68832e-32 4.78469e-16 8.654e-32 7.18143e-16)
(0.511721 -0.0758973 -1.18677e-17 0.343904 3.03466e-16 0.471099)
(1.17422 0.462766 9.33855e-15 0.892247 2.4429e-15 1.16003)
(19.0086 6.92858 1.84788e-13 19.4854 3.79206e-14 19.5016)
(0.00827744 -0.00304729 -8.68599e-20 0.000668846 -1.46277e-19 0.00431933)
(0.00816407 -0.00368512 -1.77782e-19 0.00164573 -2.92247e-19 0.00473243)
(0.00768279 -0.0042329 3.53796e-19 0.00273428 4.97653e-19 0.00498458)
(0.00706574 -0.00466149 4.49012e-19 0.00385287 4.89312e-19 0.00518433)
(0.00636124 -0.00488698 5.55712e-20 0.00501155 -1.71147e-20 0.0053501)
(0.00559758 -0.00493339 -1.61213e-19 0.00620526 4.22188e-19 0.00548765)
(0.00483518 -0.00479411 3.91048e-18 0.00734539 3.90726e-18 0.00558925)
(0.00412889 -0.00448565 -3.85117e-18 0.00838206 -4.9771e-18 0.00565492)
(0.00350515 -0.00403799 1.04089e-18 0.00930912 2.71427e-19 0.00568521)
(0.0029959 -0.00350027 5.69948e-18 0.0100947 4.21399e-18 0.0056896)
(0.00260554 -0.00290543 4.91308e-18 0.0107485 4.90702e-18 0.00566493)
(0.00233305 -0.0022831 5.77863e-18 0.0112778 1.73504e-18 0.00561586)
(0.00246376 -0.00168394 -7.16917e-18 0.012108 -5.39289e-18 0.00588128)
(0.0023516 -0.00106277 -5.11512e-18 0.0123729 -4.97514e-18 0.00575168)
(0.00199181 -0.000469071 5.88616e-19 0.0120832 -1.84602e-18 0.00522186)
(0.00200665 0.000129487 -1.57728e-17 0.0121892 1.02872e-18 0.00504645)
(0.00147552 0.000827755 -5.12534e-18 0.0114118 -6.38512e-18 0.00421962)
(-0.000249797 0.00159947 -3.3241e-17 0.00898548 -2.55779e-17 0.00207318)
(-0.000733949 0.00167893 2.67218e-18 0.0048072 -3.65028e-18 0.000531822)
(-6.02705e-05 0.000718499 4.00666e-19 0.00137762 -9.3511e-19 0.000238033)
(8.37195e-17 1.21737e-15 -5.86546e-30 1.55674e-15 3.66982e-32 3.59541e-16)
(1.29536e-16 2.03917e-15 1.34847e-30 1.5377e-15 2.66124e-31 3.32767e-16)
(-2.52876e-15 2.98533e-14 -8.98371e-29 7.09762e-15 -1.69438e-29 -2.56886e-15)
(0.0370179 0.0169182 -1.72945e-17 0.0371038 1.83799e-17 0.0354949)
(0.230458 0.095882 2.87231e-17 0.191803 1.90434e-18 0.208935)
(0.000524601 8.31138e-10 2.02713e-24 0.0005246 7.36872e-25 0.000524601)
(0.000167957 -5.76437e-12 -2.20281e-27 0.000167957 1.87581e-27 0.000167957)
(0.000528772 -8.43371e-11 1.4577e-26 0.000528771 1.0668e-27 0.000528771)
(0.000884723 -4.8936e-10 8.65942e-25 0.000884723 -1.56535e-25 0.000884723)
(0.00217695 -5.28185e-09 -7.80069e-25 0.00217695 3.6239e-24 0.00217695)
(0.013556 -3.66789e-07 -8.38082e-22 0.0135559 -4.39654e-22 0.0135559)
(0.286867 -0.000373699 1.72704e-18 0.286731 -1.41807e-18 0.286805)
(1.93862 -0.0882411 3.8016e-16 1.91773 -3.05942e-17 1.93151)
(1.76709 0.0270163 -1.14267e-16 1.71482 -5.82866e-16 1.74547)
(0.533207 -0.0590426 -1.81795e-16 0.527696 -3.31387e-17 0.528573)
(0.0601658 -0.0424414 1.69871e-18 0.0752746 2.19608e-17 0.0678324)
(0.0415375 -0.0608943 -2.98297e-17 0.0733255 6.61371e-19 0.057753)
(4.96496 -2.66761 -2.0152e-15 6.85875 -1.3772e-14 6.09542)
(2.23865 -1.17044 1.49481e-15 3.66119 6.09848e-16 2.93675)
(0.0138447 -0.00281238 -5.32285e-20 0.0034379 -2.50733e-20 0.00851864)
(0.0134927 -0.00168554 1.69646e-19 0.00339041 8.42978e-19 0.0083455)
(0.00876795 -0.000516435 4.67114e-19 -0.000135588 9.40709e-19 0.00428068)
(0.00508086 0.00045104 5.54005e-19 -0.00326058 -2.79238e-19 0.000895029)
(0.00467333 0.00142425 -1.13351e-18 -0.00319873 -8.6714e-19 0.0007385)
(0.00346399 0.00204272 -1.64227e-19 -0.00251097 -1.18844e-18 0.000472611)
(0.00200215 0.00190286 -1.21699e-18 -0.00128772 -1.05617e-18 0.000354404)
(0.00147282 0.00222105 -1.75739e-18 -0.000711202 -1.96239e-20 0.000384977)
(0.00091025 0.00240549 -4.49127e-19 -7.74445e-05 -3.1825e-19 0.000427824)
(0.000345293 0.00237326 7.05013e-19 0.000566142 -4.76438e-19 0.000471961)
(-0.000120688 0.002171 6.65874e-19 0.00112492 1.52757e-18 0.000515871)
(-0.000454118 0.00189932 1.58049e-18 0.00158128 -6.23598e-19 0.000566035)
(-0.000651628 0.00157017 -1.45867e-18 0.00190698 -1.41724e-18 0.000611155)
(-0.000725162 0.00123286 -2.02486e-19 0.002108 5.77665e-19 0.000651496)
(-0.000722418 0.000957468 1.64118e-18 0.00227767 -3.85271e-19 0.000708613)
(-0.000655732 0.000723394 3.67572e-18 0.00240364 -3.23805e-19 0.000773845)
(-0.000441156 0.00043014 -2.1314e-18 0.00202369 -4.47936e-19 0.000683913)
(-0.000308357 0.00028528 -5.66882e-19 0.00195265 -8.18205e-19 0.000698273)
(-5.05373e-05 4.92089e-05 -7.21879e-20 0.000522291 4.11403e-20 0.000198044)
(-4.64981e-05 6.5369e-05 2.25846e-18 0.00128192 -8.23898e-19 0.0005163)
(3.32521e-05 1.95285e-05 4.79309e-19 0.00161569 -6.58239e-19 0.000687773)
(0.00015926 -5.77645e-05 -3.84352e-18 0.00210506 1.03265e-18 0.000945397)
(0.00026956 -0.000140322 -1.34094e-19 0.00199121 4.57455e-19 0.000947916)
(0.000355148 -0.000195856 -4.52482e-20 0.00169842 -2.54807e-19 0.000865532)
(0.00056188 -0.000280557 3.78573e-20 0.00190278 -3.15172e-21 0.00103538)
(0.000729276 -0.000308723 -3.11762e-18 0.00192911 -3.22567e-19 0.00110173)
(0.000886044 -0.000317623 -3.28411e-20 0.00197397 5.54173e-21 0.00116842)
(0.00101119 -0.000307747 7.13462e-19 0.00198575 -9.79316e-21 0.00121099)
(0.00110497 -0.000283959 -2.95743e-20 0.00196442 -5.00627e-22 0.0012326)
(0.00120387 -0.000259114 7.15406e-21 0.00198353 -7.05627e-20 0.00127509)
(0.00124724 -0.000227615 -2.07723e-18 0.00192481 3.03336e-20 0.00127261)
(0.00121323 -0.000195392 -4.55329e-20 0.00176376 -2.79845e-21 0.00120428)
(0.00112054 -0.000173122 3.76248e-20 0.00153391 -1.40821e-19 0.00108857)
(0.000908835 -0.000153816 3.98587e-18 0.00116816 5.53515e-19 0.000865067)
(0.00153752 -0.000314193 4.51654e-20 0.0018094 4.8119e-21 0.00142804)
(0.000416467 -0.000103369 -2.76653e-18 0.000453505 -3.23156e-19 0.000373563)
(7.06922e-16 -1.95381e-16 1.68095e-29 6.7915e-16 2.45035e-30 6.13928e-16)
(0.2586 -0.0504505 7.12066e-17 0.164596 -2.64171e-16 0.2)
(15.251 6.25698 1.86426e-15 12.4404 -1.03491e-14 13.6935)
(0.0151122 -0.00503916 -2.10702e-19 0.00270331 -2.85493e-19 0.0090081)
(0.0129499 -0.00591289 -3.95979e-19 0.00270239 -5.39568e-19 0.00797483)
(0.0114038 -0.00678469 1.35472e-18 0.00365474 1.72728e-18 0.00769792)
(0.00976408 -0.00743749 -5.81272e-18 0.00485834 -7.5795e-18 0.00753356)
(0.00801318 -0.00778776 1.47537e-18 0.00620453 2.06231e-18 0.00739157)
(0.00618763 -0.00785764 3.31157e-18 0.00769725 3.40485e-18 0.00728951)
(0.0043869 -0.00757374 -3.01805e-18 0.00923526 -4.64564e-18 0.00725044)
(0.00268329 -0.00693852 -1.87806e-18 0.0107227 2.84539e-19 0.00725357)
(0.00113962 -0.00596332 -1.33884e-17 0.0120976 -1.24165e-17 0.00729748)
(-0.000158838 -0.00468675 -2.23471e-18 0.0132693 -5.31959e-18 0.00739665)
(-0.00115306 -0.00315397 4.05064e-19 0.014176 -1.32008e-18 0.00754068)
(-0.00179033 -0.00142747 -8.58068e-18 0.0147599 -1.05069e-17 0.00773298)
(-0.00203235 0.000410185 4.45393e-18 0.0149787 5.17936e-18 0.00797038)
(-0.00184887 0.00226289 -1.95245e-17 0.0148517 -1.00335e-17 0.00826259)
(-0.00127525 0.00404835 4.4324e-18 0.0143776 2.46779e-18 0.00857879)
(-0.000352633 0.00568571 2.17348e-17 0.0136324 1.77826e-17 0.00891091)
(0.000742503 0.00707247 -3.17209e-17 0.0127403 -8.90417e-18 0.00915229)
(0.00200658 0.00824122 -6.28154e-18 0.0118668 2.82581e-17 0.009406)
(0.00264684 0.00917886 -2.35305e-18 0.010128 -3.91122e-18 0.00883616)
(0.000680523 0.00671578 -2.07678e-17 0.00397449 -3.12069e-18 0.00393687)
(0.000679621 0.00231805 7.83458e-18 0.00111937 4.74091e-18 0.00139869)
(0.000417983 0.000863467 9.88338e-20 0.000329757 -1.53973e-19 0.000540423)
(8.45697e-16 1.30195e-15 3.89988e-30 3.37502e-16 1.06536e-30 8.16801e-16)
(1.0677e-15 1.60232e-15 3.82193e-30 1.17792e-16 1.20846e-30 8.14512e-16)
(0.0492114 0.0192313 -5.04264e-18 0.0368665 -4.37811e-19 0.0446348)
(0.000110521 6.30464e-10 1.66485e-26 0.00011052 -2.14159e-26 0.00011052)
(3.59568e-05 3.49938e-16 1.52153e-31 3.59568e-05 -3.84148e-32 3.59568e-05)
(0.0001149 1.12251e-15 -4.99761e-31 0.0001149 -7.31613e-31 0.0001149)
(0.000194918 -1.43859e-15 -3.40168e-29 0.000194918 -5.62004e-31 0.000194918)
(0.000485782 -6.99627e-14 2.71356e-29 0.000485782 1.5363e-30 0.000485782)
(0.00306091 -3.48279e-12 -1.38242e-27 0.00306091 4.6851e-28 0.00306091)
(0.0654745 -1.00981e-09 -5.06053e-24 0.0654745 -3.5073e-24 0.0654745)
(0.00025159 -1.3061e-07 -3.36929e-23 0.000251567 -1.58185e-22 0.00025158)
(1.39535e-05 -7.44165e-12 -1.33946e-25 1.39535e-05 7.01417e-27 1.39535e-05)
(0.348151 -0.0237334 3.46844e-17 0.342325 9.78469e-17 0.343497)
(0.22377 -0.154998 1.48656e-19 0.276246 -2.71442e-20 0.251104)
(0.120412 -0.158123 -1.61438e-17 0.191809 2.5932e-16 0.157525)
(6.79925 -3.58549 1.40779e-15 9.41448 7.42216e-15 8.11064)
(2.0391 -1.06779 -2.17399e-15 2.7881 7.43406e-16 2.48402)
(0.012247 -0.00369414 3.78894e-19 -0.00115252 1.76513e-19 0.00564912)
(0.00826426 -0.00241317 -1.05443e-18 -0.0057138 -1.55281e-18 0.00132652)
(0.00557987 -0.00065341 -4.63993e-19 -0.00413411 7.28434e-19 0.000756198)
(0.00389856 0.000271933 1.37565e-18 -0.0028725 7.68674e-19 0.000523003)
(0.00264364 0.000724093 -3.22207e-19 -0.00189476 -1.78286e-18 0.000377422)
(0.00818636 0.00390092 -2.11404e-18 -0.00454672 2.05364e-18 0.00180099)
(0.00739785 0.00541239 5.756e-18 -0.00316699 4.40275e-18 0.00209498)
(0.00596994 0.00663961 -2.22812e-18 -0.00172858 -5.25947e-18 0.00211617)
(0.00427537 0.00749896 -5.41942e-18 -2.86104e-05 -2.22299e-18 0.00212795)
(0.00242704 0.00793399 -4.57182e-18 0.00179066 1.83973e-18 0.00211924)
(0.000657388 0.00762519 5.84684e-18 0.00350271 -3.10796e-20 0.00209109)
(-0.000477822 0.00615397 -3.51515e-18 0.00458527 -2.7209e-18 0.00206462)
(-0.00105773 0.00473477 -3.95272e-18 0.00511044 2.98683e-18 0.00204343)
(-0.00123119 0.00348412 3.70532e-18 0.00522273 1.39936e-18 0.00202573)
(-0.00113348 0.00245551 -5.54321e-18 0.00505019 1.0324e-18 0.00200483)
(-0.000935971 0.00174739 -1.18699e-18 0.0049764 -3.65536e-18 0.00208998)
(-0.000594653 0.00108715 1.35558e-18 0.00441314 1.7315e-18 0.00199707)
(-0.000261825 0.000604508 -4.99055e-18 0.00371929 3.25062e-19 0.00182769)
(1.16745e-07 0.000323509 1.92239e-18 0.003456 -7.0659e-20 0.00184366)
(0.000229541 0.000111861 -7.34392e-18 0.00323358 6.23992e-19 0.00186169)
(0.000423466 -5.63044e-05 -8.48989e-19 0.00301873 2.34671e-19 0.00186066)
(0.000583033 -0.000195086 5.5454e-18 0.00277341 3.0497e-19 0.00182227)
(0.000721804 -0.000311818 4.9957e-18 0.0025272 -1.05178e-18 0.00176681)
(0.000868086 -0.000405599 -4.08612e-18 0.00228687 3.18001e-19 0.00171998)
(0.00102379 -0.000455015 -5.19095e-20 0.00204794 2.47395e-20 0.00168214)
(0.00116239 -0.000456681 -3.63021e-18 0.00183366 7.89723e-19 0.00164624)
(0.00127141 -0.0004317 -4.59598e-20 0.00164631 9.88976e-22 0.00161412)
(0.00135303 -0.000394842 -4.2293e-23 0.00148468 -2.21365e-21 0.00158555)
(0.00141393 -0.000352223 3.46293e-21 0.00134886 -3.33418e-22 0.00156008)
(0.00145789 -0.000306595 1.19067e-18 0.00123466 4.8521e-20 0.00153671)
(0.00146789 -0.000259015 1.2466e-21 0.00113172 -9.65255e-20 0.00149581)
(0.00146084 -0.000215124 -3.56889e-20 0.00105573 -5.42378e-21 0.0014523)
(0.00146214 -0.000177744 -6.79382e-18 0.00101477 -7.73675e-19 0.0014277)
(0.00150663 -0.000150131 -6.35003e-18 0.00102243 -4.92522e-19 0.00145069)
(0.00132163 -0.000110548 1.7864e-20 0.000884734 5.72198e-21 0.00125555)
(0.00198264 -0.000132001 -1.38177e-17 0.0012775 -2.07419e-18 0.0018465)
(3.83321e-05 -2.04459e-06 8.9961e-21 2.37753e-05 -6.89281e-20 3.4867e-05)
(0.212695 -0.0214814 2.50358e-18 0.12074 1.10005e-18 0.175729)
(12.9508 4.48405 -2.06922e-13 8.57912 -3.13604e-14 10.6606)
(0.0110704 -0.00709161 7.6012e-19 -0.0062846 8.15496e-19 0.00232091)
(0.0101396 -0.00846565 -5.60798e-19 -0.00471582 -5.75653e-19 0.00264844)
(0.00819358 -0.00984069 -1.03852e-20 -0.00345812 -5.76208e-20 0.0022663)
(0.00615318 -0.010902 -2.266e-19 -0.00167504 1.69651e-19 0.00211695)
(0.0039149 -0.0114426 7.34982e-18 0.000343895 7.59364e-18 0.00198117)
(0.00158418 -0.0107208 -4.42241e-18 0.00247653 -5.36239e-18 0.00184608)
(-0.000399519 -0.00975453 -2.756e-19 0.00432418 1.14043e-18 0.00174737)
(-0.00201769 -0.00856585 1.38411e-17 0.00586015 1.2985e-17 0.00166793)
(-0.00329085 -0.0072469 -2.91184e-18 0.00711875 2.79244e-19 0.00160718)
(-0.00424039 -0.00589085 -1.52538e-17 0.00812793 -1.01366e-17 0.00157663)
(-0.00489439 -0.00452122 4.80214e-18 0.0089181 3.949e-18 0.00156882)
(-0.00527749 -0.00315931 -1.30699e-17 0.00951339 -4.24108e-18 0.00158207)
(-0.00540804 -0.00183431 -5.08668e-18 0.00993336 -1.92858e-18 0.00161693)
(-0.00530556 -0.000565113 -9.03089e-18 0.0102088 4.8557e-18 0.0016715)
(-0.00499126 0.000636379 8.18252e-19 0.0103719 4.53263e-19 0.00174986)
(-0.00449129 0.00176219 7.78397e-18 0.010485 1.71949e-18 0.0018645)
(-0.00375159 0.00282176 1.1895e-17 0.0104712 1.70671e-17 0.00203446)
(-0.00278441 0.00390345 4.94764e-17 0.0104476 1.33487e-17 0.00234592)
(-0.00154333 0.00511433 -2.27073e-17 0.0105477 -9.49348e-19 0.0028679)
(0.00012824 0.00618172 2.35007e-17 0.0102175 1.0227e-17 0.00349059)
(0.00197329 0.0063325 3.51002e-18 0.00860236 -1.03712e-17 0.00381217)
(0.00172433 0.00283283 -1.66907e-18 0.00325389 3.028e-18 0.00191223)
(0.000589408 0.000620967 -2.36371e-18 0.000626489 -1.33212e-18 0.000493195)
(0.000285871 0.000212041 3.54647e-20 0.000200663 -4.36483e-20 0.000204698)
(9.29117e-16 5.61992e-16 2.09487e-31 4.73987e-16 -4.43852e-32 5.96896e-16)
(6.66668e-16 1.89322e-21 4.64669e-36 6.66666e-16 -1.33974e-36 6.66666e-16)
(6.66667e-16 8.66787e-27 -7.63977e-42 6.66667e-16 -2.65814e-42 6.66667e-16)
(6.66667e-16 8.28806e-27 -7.47218e-42 6.66667e-16 -3.79824e-43 6.66667e-16)
(6.66667e-16 1.16341e-26 6.67211e-41 6.66667e-16 2.77324e-41 6.66667e-16)
(6.66667e-16 1.85836e-26 -2.31868e-41 6.66667e-16 -9.71983e-41 6.66667e-16)
(6.66667e-16 1.44635e-26 -8.38546e-40 6.66667e-16 3.08592e-40 6.66667e-16)
(6.66667e-16 -1.86498e-25 -4.62405e-39 6.66667e-16 4.25231e-39 6.66667e-16)