/*--------------------------------*- C++ -*----------------------------------*\
| =========                 |                                                 |
| \\      /  F ield         | OpenFOAM: The Open Source CFD Toolbox           |
|  \\    /   O peration     | Version:  2312                                  |
|   \\  /    A nd           | Website:  www.openfoam.com                      |
|    \\/     M anipulation  |                                                 |
\*---------------------------------------------------------------------------*/
FoamFile
{
    version     2.0;
    format      ascii;
    arch        "LSB;label=32;scalar=64";
    class       volScalarField;
    location    "250";
    object      turbulenceProperties:I;
}
// * * * * * * * * * * * * * * * * * * * * * * * * * * * * * * * * * * * * * //

dimensions      [0 0 0 0 0 0 0];

internalField   nonuniform List<scalar> 
10720
(
0.00425028
0.00421027
0.00433118
0.00445689
0.00463502
0.00485038
0.00512629
0.00547473
0.00593053
0.00654284
0.00737605
0.00854599
0.0102192
0.0127424
0.0166817
0.0233441
0.0338164
0.0514479
0.0761511
0.104744
0.141456
0.19527
0.276272
0.37622
0.460833
0.516539
0.704493
0.904839
0.77357
0.516716
0.298488
0.114132
0.0614104
0.0296301
7.25225e-09
6.25668e-09
0.0037272
0.0247582
0.515712
0.00574666
0.00697446
0.0073333
0.00736861
0.00803108
0.0160215
0.0315747
0.0470457
0.0282168
0.0183319
0.014721
0.0135858
0.0136544
0.0148457
0.0165735
0.0203826
0.0231851
0.0342783
0.0400425
0.0437156
0.048962
0.0578956
0.0670273
0.0776176
0.0885539
0.0988708
0.0943987
0.0739418
0.0478417
0.0251797
0.00898661
0.00197931
0.000854125
0.000495463
1.25414e-09
0.031901
0.248995
0.334546
0.535724
0.00295847
0.00285807
0.00255004
0.0023567
0.00216464
0.00198513
0.00183401
0.00170424
0.00160201
0.00152156
0.00146371
0.00141405
0.00147168
0.00175867
0.00236927
0.00351293
0.00547576
0.00887372
0.0143222
0.0221116
0.0321939
0.044921
0.0613957
0.0870319
0.163975
0.223578
0.395144
0.577918
0.543206
0.43363
0.307194
0.189971
0.0993096
0.0340794
0.00845753
3.5298e-09
0.00951414
0.0992511
1
0.000756536
0.00284917
0.00265848
0.00529789
0.00797312
0.0108362
0.0121996
0.0135276
0.0115494
0.00874685
0.00690515
0.00574673
0.00493027
0.00432871
0.00372458
0.00861367
0.00977728
0.0145346
0.0171754
0.00639402
0.0213229
0.00607103
0.0131111
0.0345296
0.0121036
0.0182753
0.00371328
0.00581075
0.0056986
0.00492811
0.00372945
0.00249189
0.00149166
0.000819758
0.000114535
0.00621974
0.0509271
0.0727276
0.263883
0.00138517
0.00134607
0.000302112
0.000211977
0.000368296
0.000475867
0.000548019
0.000601011
0.000642772
0.000682174
0.000720696
0.000761914
0.000810255
0.000727374
0.00102325
0.00181565
0.00268101
0.0043012
0.00697365
0.0108392
0.015749
0.0217304
0.0291504
0.00862384
0.063648
0.0970275
0.219299
0.345894
0.345718
0.309711
0.247909
0.179874
0.112776
0.0480014
0.0165723
4.83815e-09
0.0206051
0.170725
0.53223
0.000834272
0.00422659
0.00571241
0.00625259
0.00584851
0.00454587
0.00301919
0.00366119
0.00393964
0.00378192
0.00356612
0.00342518
0.00328898
0.00317078
0.00315368
0.0031146
0.00267446
0.00259739
0.00158579
0.00287983
0.00054054
0.00280191
0.00599413
0.000568038
0.00564145
0.00855827
0.00186224
0.00282913
0.0027992
0.00246854
0.00193764
0.00139149
0.000968637
0.000689675
0.00070697
9.67998e-10
0.0251353
0.0399649
0.182189
0.00304322
0.00295475
0.002822
0.00268653
0.00256356
0.00245222
0.00235149
0.00226248
0.0021851
0.00211883
0.00206305
0.00201689
0.0020319
0.00199416
0.00190606
0.00188055
0.00175867
0.00139212
0.00090863
0.000530101
6.0567e-10
6.12368e-10
6.21516e-10
0.00468234
0.0114581
0.000584496
0.000341348
0.000630058
0.000849299
0.00139313
0.00365034
0.0176624
0.0487896
0.0474631
0.0266798
0.013905
0.0357933
1
0.207357
0.00459219
0.00495654
0.00394047
0.00204763
0.00212366
0.00196644
0.00192264
0.00212319
0.00218782
0.00210763
0.00197639
0.00186569
0.00177089
0.00169355
0.00165715
0.0016398
0.00147033
0.00142367
0.00072893
0.00113338
0.00126257
0.00143095
0.00138686
0.00128593
0.00137428
0.00139634
0.00142227
0.00143507
0.00143667
0.0014527
0.00144298
0.00139621
0.0013207
0.00117292
0.00149974
0.000770002
9.87405e-10
0.0176533
0.152378
0.00437861
0.00384127
0.00352079
0.00325089
0.00301835
0.00281846
0.00265146
0.00251246
0.00239758
0.002305
0.00223166
0.00217527
0.00213375
0.00210869
0.00209538
0.0020944
0.00209776
0.00211712
0.00203676
0.00128664
0.000789244
0.000505727
6.391e-10
6.51071e-10
0.00537567
0.000276452
0.000160828
0.000293568
0.00039186
0.000637202
0.00165831
0.00801256
0.000527061
0.000132688
0.0211553
0.0196663
0.0211695
0.334671
0.124723
0.00370807
0.00192386
0.0015845
0.00147207
0.00139875
0.00342063
0.00403206
0.00425456
0.00425928
0.00405281
0.0037372
0.00341582
0.00312695
0.00287951
0.0026686
0.00255636
0.00236044
0.00214588
0.00205905
0.00198525
0.00191152
0.00182736
0.00174391
0.00167185
0.00161137
0.00156062
0.00151693
0.00147913
0.00144746
0.00142117
0.00139177
0.00136662
0.00135491
0.00136987
0.00128212
0.00156643
0.000218336
0.0160764
0.13378
0.00225379
0.00226042
0.00197767
0.00180507
0.00165746
0.0015259
0.00141994
0.00133483
0.00126962
0.00122452
0.00119686
0.00118438
0.00118558
0.00119979
0.00122681
0.0012692
0.00132486
0.00140615
0.0015258
0.00164741
0.0016869
0.00117724
0.000593998
0.000384474
6.67772e-10
6.82654e-10
6.97664e-10
7.12887e-10
7.29351e-10
7.481e-10
7.70198e-10
7.96664e-10
0.000244679
6.14654e-05
2.55065e-05
7.74988e-05
0.00017274
0.00177485
0.0447415
0.00150275
0.00111767
0.00111076
0.00334849
0.00466538
0.00547284
0.00587031
0.00614401
0.00622152
0.00608626
0.00580421
0.00547007
0.00513736
0.00482989
0.00455857
0.00432047
0.00412227
0.00394405
0.00378021
0.00362946
0.00348973
0.00335861
0.00323635
0.00312428
0.0030241
0.0029362
0.00285902
0.00279061
0.00272963
0.00267514
0.00262543
0.00256776
0.00255012
0.0024236
0.00227648
0.00233979
0.000333992
0.0144414
0.116897
0.000875675
0.000883204
0.000834121
0.000794384
0.000766674
0.00074737
0.000726302
0.000710806
0.000698399
0.000689028
0.000684974
0.000684785
0.000688503
0.000696863
0.000709453
0.000728634
0.000753603
0.000797921
0.000846228
0.000596099
0.000929125
0.00113783
0.00120949
0.000886994
0.000673549
2.34484e-05
7.0145e-10
7.16687e-10
7.33531e-10
7.52691e-10
7.74772e-10
7.9981e-10
8.29746e-10
8.63003e-10
1.19871e-05
3.64424e-05
9.39267e-10
0.000648631
3.35474e-09
0.00131469
0.00248626
0.0037459
0.00429279
0.00427655
0.00432303
0.0046131
0.00481795
0.0049354
0.00494099
0.00484908
0.00471006
0.00455463
0.0043964
0.00425519
0.00413149
0.00399967
0.00386162
0.00372392
0.00358947
0.00345987
0.00333607
0.00321874
0.00310948
0.00301038
0.00292248
0.00284505
0.00277656
0.00271584
0.00266209
0.00261596
0.00257733
0.00253975
0.00249472
0.0024375
0.00250539
0.000366308
0.0124941
0.0984625
0.00134416
0.00128222
0.0012969
0.00135844
0.00136867
0.00139399
0.00140804
0.00140725
0.00139717
0.00138189
0.00136407
0.00134507
0.00132613
0.00130845
0.00129177
0.00128073
0.00127358
0.0013058
0.00124131
0.00112036
0.00112375
0.00118813
0.00129466
0.00134185
0.00146592
5.31531e-05
1.1929e-05
7.19717e-10
7.3622e-10
7.55237e-10
7.77469e-10
8.02862e-10
8.32887e-10
8.60985e-10
8.78691e-10
8.89263e-10
9.04887e-10
1.17701e-09
6.07065e-09
0.00292614
0.00362248
0.00351338
0.00263632
0.00188654
0.00165219
0.00181034
0.00191284
0.00201126
0.00211012
0.00219001
0.00224575
0.00229036
0.00233189
0.00236689
0.00238339
0.00235148
0.00229164
0.00221799
0.0021381
0.00205565
0.00197351
0.00189409
0.00182053
0.00175504
0.00169766
0.0016484
0.00160658
0.00157162
0.00154268
0.00151975
0.001514
0.00153539
0.00158271
0.00161839
0.00192267
0.000287855
0.00993304
0.0762641
0.00302635
0.00283235
0.00268119
0.00254074
0.0024344
0.00234684
0.00226438
0.00218055
0.00210422
0.0020369
0.00197823
0.00192742
0.00188327
0.00184825
0.00181589
0.00179684
0.00179551
0.00178574
0.00175436
0.00170333
0.00164355
0.00159326
0.00157507
0.0015308
0.00174782
9.51255e-05
2.17365e-05
7.23538e-10
7.39452e-10
7.57822e-10
7.79418e-10
8.0433e-10
8.3399e-10
8.62602e-10
8.75053e-10
8.79048e-10
8.89659e-10
9.28052e-10
2.98469e-09
0.00331249
0.00266102
0.00113567
0.00101333
0.000672694
0.000609574
0.000661141
0.000691606
0.000720023
0.000758008
0.000793553
0.000823331
0.000852724
0.000882287
0.000910901
0.000933608
0.000937257
0.000928967
0.000914023
0.000895131
0.000873672
0.000850834
0.000827811
0.000805626
0.00078518
0.000766991
0.000751484
0.000738564
0.000728115
0.000719861
0.000713884
0.000715582
0.000729844
0.000756333
0.000789312
0.000878454
0.000134646
0.00711293
0.0532273
0.00272582
0.00247673
0.002296
0.00214576
0.00199887
0.00185559
0.00173628
0.00163796
0.00155887
0.00149736
0.00145074
0.00141724
0.00138991
0.00138292
0.00139659
0.00140132
0.00141064
0.00144404
0.00150051
0.00155631
0.00159049
0.0016016
0.00161576
0.00157689
0.00175691
0.000141756
3.29724e-05
7.27598e-10
7.43028e-10
7.60818e-10
7.81687e-10
8.05733e-10
8.34049e-10
8.6259e-10
8.75966e-10
8.76672e-10
8.83679e-10
9.16291e-10
1.06289e-09
0.00183043
0.00113959
0.000589583
0.000824614
0.000250684
0.000407925
0.000355186
0.000309596
0.000170058
0.00109838
0.00107972
0.00105549
0.00102899
0.000999257
0.000976592
0.000952921
0.000929155
0.000906363
0.000884993
0.000864902
0.000845944
0.000828083
0.000811317
0.000795281
0.000779702
0.000765445
0.000752849
0.000741739
0.000731894
0.000723163
0.000715409
0.00070815
0.000693271
0.000670339
0.000632787
0.000742359
0.000322906
0.00433489
0.0316328
0.00113226
0.00114952
0.000841843
0.000598101
0.000361787
0.000698037
0.000645492
0.000614292
0.000589797
0.000570476
0.000558229
0.000550941
0.000546099
0.000549834
0.000567522
0.000258111
0.000400113
0.000522979
0.000660806
0.000840944
0.00103125
0.00118671
0.00130868
0.00134993
0.00160316
0.000196529
4.65174e-05
7.31852e-10
7.4678e-10
7.64021e-10
7.8423e-10
8.07447e-10
8.34363e-10
8.61559e-10
8.76685e-10
8.78333e-10
8.84018e-10
9.14309e-10
1.04466e-09
0.000753356
0.000716924
0.00115249
0.00217463
0.00251664
0.0026122
0.00268906
0.00274629
0.00277566
0.00277676
0.00275256
0.00270809
0.00264727
0.00257356
0.00251056
0.002437
0.00235896
0.00228007
0.00220261
0.00212776
0.00205619
0.00198822
0.00192404
0.00186401
0.00180879
0.00175885
0.00171411
0.0016741
0.00163825
0.00160612
0.00157729
0.00155063
0.0015084
0.0014499
0.00136119
0.00130616
0.000687718
0.00207059
0.0147095
0.000550583
0.000576136
0.000539237
0.000503748
0.000496248
0.000495592
0.000499326
0.000501369
0.000500178
0.000495723
0.000491822
0.000487446
0.000483436
0.000480438
0.000477708
0.000486985
0.000501905
0.000520981
0.000549527
0.00059989
0.000232208
0.000563771
0.000808464
0.000927662
0.0012999
0.000251974
6.06689e-05
7.3627e-10
7.50663e-10
7.6733e-10
7.86882e-10
8.09309e-10
8.35029e-10
8.60704e-10
8.76546e-10
8.80591e-10
8.87693e-10
9.17058e-10
1.0345e-09
0.000926855
0.0017174
0.00247608
0.00262218
0.00268581
0.00277307
0.0028505
0.00291301
0.00295397
0.00297224
0.00296638
0.00294066
0.00289676
0.00283964
0.00277326
0.00270087
0.00262498
0.00254747
0.00246977
0.00239292
0.00231775
0.00224489
0.00217489
0.00210858
0.00204701
0.00199095
0.00194052
0.0018954
0.00185508
0.00181909
0.00178711
0.00176045
0.00173528
0.00170509
0.00166578
0.00160644
0.001541
0.0003206
0.00144733
0.00108875
0.00114881
0.0012016
0.00125577
0.00131172
0.00134902
0.00136552
0.00136837
0.00136161
0.00134824
0.00133109
0.00131158
0.00129179
0.00127241
0.00125307
0.00123445
0.0012175
0.00120204
0.00119037
0.00118582
0.00110987
0.00100401
0.000998361
0.000970801
0.00120161
0.000365804
8.95668e-05
7.40878e-10
7.54701e-10
7.70761e-10
7.8962e-10
8.11237e-10
8.35852e-10
8.60267e-10
8.76268e-10
8.82359e-10
8.92098e-10
9.21652e-10
1.02957e-09
0.00202301
0.00239039
0.00216346
0.00171603
0.00157969
0.00162883
0.00167929
0.0017217
0.00175644
0.00178327
0.00179375
0.00179252
0.0017821
0.00176404
0.00173953
0.00170961
0.00167525
0.00163737
0.00159679
0.00155432
0.00151073
0.00146683
0.00142341
0.00138169
0.00134283
0.00130732
0.00127541
0.00124708
0.00122215
0.00120038
0.00118155
0.00116716
0.00116834
0.00118599
0.00121512
0.00124163
0.00136617
0.000417357
0.000698038
0.00211565
0.00201018
0.00194369
0.0018979
0.00186803
0.00182793
0.001786
0.00174343
0.001702
0.00166324
0.00162769
0.00159454
0.00156789
0.00154523
0.00152341
0.00150382
0.00148749
0.00147133
0.00146754
0.0014676
0.00143
0.001362
0.0013042
0.0012228
0.00129004
0.000577183
5.18714e-07
1.25229e-07
7.589e-10
7.74328e-10
7.92466e-10
8.13248e-10
8.36775e-10
8.60105e-10
8.76235e-10
8.83902e-10
8.95966e-10
9.26285e-10
1.02731e-09
0.00218895
0.00164491
0.000783046
0.000686882
0.000587552
0.000613052
0.000633911
0.000645758
0.000655064
0.000663314
0.000663381
0.000660526
0.0006578
0.000653651
0.000649421
0.000645515
0.000640976
0.00063605
0.000630536
0.000624281
0.000617142
0.000609412
0.000601186
0.000592455
0.00058326
0.000574375
0.000566385
0.000559363
0.000553312
0.000548182
0.00054395
0.000541376
0.00054573
0.000558494
0.000172267
0.000439958
0.000732939
0.000756271
0.000121631
0.00181571
0.00167994
0.0015718
0.00147236
0.00138554
0.00130948
0.00124748
0.00119484
0.00115154
0.00111803
0.00109313
0.00107256
0.00106699
0.00107096
0.00107052
0.00107058
0.00107318
0.00108923
0.0011163
0.00115075
0.00120359
0.0012501
0.00126367
0.00123486
0.00128561
0.000808198
1.68529e-06
4.13827e-07
7.63265e-10
7.7804e-10
7.95436e-10
8.15368e-10
8.37824e-10
8.60139e-10
8.76432e-10
8.8557e-10
8.99168e-10
9.30234e-10
1.02592e-09
0.00114973
0.000714429
0.000359007
0.000392395
0.00041606
0.000432445
0.000443787
0.000447859
0.000448846
0.000448133
0.000442794
0.000435843
0.000429567
0.000422784
0.000416661
0.000411498
0.000406728
0.000402405
0.000398412
0.000394561
0.000390692
0.000386879
0.000383079
0.000378958
0.000374159
0.000369312
0.000364833
0.000360777
0.000357139
0.0003539
0.000351046
0.000348341
0.000343253
0.000328249
0.000314988
0.00034163
0.000419367
0.000432786
0.000106441
0.000688632
0.000669813
0.000383303
0.000556347
0.000515471
0.000492405
0.000467792
0.000449804
0.000435256
0.000423283
0.000416221
0.000410961
0.000411771
0.000417062
0.000420937
0.000425349
0.000434012
0.000165139
0.000270951
0.000378616
0.000541873
0.000705315
0.000854416
0.000953368
0.00106243
0.000902902
3.40407e-06
8.49928e-07
7.67792e-10
7.81897e-10
7.98537e-10
8.17611e-10
8.39026e-10
8.60379e-10
8.76784e-10
8.87418e-10
9.0201e-10
9.33476e-10
1.02427e-09
0.000475389
0.000407151
0.000552392
0.0010226
0.00107028
0.00109463
0.0011167
0.00113344
0.00114376
0.00114841
0.00114737
0.00114131
0.00113151
0.00111873
0.00110346
0.0010862
0.00106732
0.00104706
0.00102573
0.00100359
0.000980922
0.000958017
0.000935164
0.000912722
0.000891083
0.000870597
0.000851516
0.000833958
0.000817902
0.000803308
0.000790111
0.000777743
0.000760591
0.00072217
0.000665078
0.000587454
0.000476437
0.00050764
0.000168906
0.000316288
0.000334797
0.000309745
0.000290221
0.00030612
0.000318785
0.000312809
0.000307527
0.000304569
0.000300932
0.000298265
0.000295384
0.000292388
0.000289845
0.000287371
0.000285184
0.00028335
0.00028973
0.000302037
0.000320716
0.000350462
0.000390866
0.000436432
0.000362182
0.000601336
0.000756764
5.20346e-06
1.32059e-06
7.72479e-10
7.85901e-10
8.01772e-10
8.19986e-10
8.40392e-10
8.60847e-10
8.77281e-10
8.89343e-10
9.04758e-10
9.36217e-10
1.02191e-09
0.00057901
0.00100911
0.00155112
0.00169254
0.00173072
0.00176097
0.00178904
0.00181235
0.00182854
0.00183746
0.00183931
0.00183472
0.00182487
0.00181055
0.00179232
0.0017707
0.00174601
0.00171853
0.00168857
0.00165648
0.00162266
0.00158756
0.00155169
0.0015157
0.00148043
0.00144666
0.00141496
0.00138564
0.00135872
0.00133421
0.00131198
0.00129192
0.00127372
0.00124539
0.00120578
0.00115111
0.0010662
0.000959715
0.00082848
0.000543994
0.000630548
0.00072609
0.000783996
0.000822688
0.000851269
0.00084203
0.000828486
0.000820993
0.000813763
0.000805507
0.000795976
0.000785383
0.000774072
0.000762389
0.00075068
0.000739347
0.000728876
0.00071957
0.000710203
0.00067312
0.00063359
0.000547578
0.000485339
0.000505481
0.000682003
8.71464e-06
2.24739e-06
7.77323e-10
7.90051e-10
8.05146e-10
8.22501e-10
8.41927e-10
8.61544e-10
8.7795e-10
8.91249e-10
9.07508e-10
9.38648e-10
1.01887e-09
0.00129281
0.00163794
0.00157338
0.00145017
0.00146855
0.00148989
0.00150917
0.00152609
0.00153881
0.00154663
0.00154998
0.0015491
0.00154428
0.00153609
0.00152487
0.00151077
0.00149393
0.00147452
0.00145265
0.00142851
0.00140236
0.00137457
0.00134551
0.00131582
0.00128642
0.00125814
0.00123145
0.00120663
0.0011838
0.00116299
0.00114419
0.00112733
0.00111523
0.00111131
0.00111002
0.00110643
0.00109033
0.00104125
0.000958638
0.0014417
0.00139996
0.00140171
0.00140193
0.00139414
0.00138543
0.00135423
0.0013214
0.00130184
0.00128076
0.00125923
0.00123786
0.0012171
0.00119719
0.00117828
0.00116053
0.00114405
0.00112896
0.00111547
0.00110268
0.00108396
0.00103321
0.000979863
0.000916035
0.000808946
0.000826658
1.8094e-05
4.74002e-06
7.82316e-10
7.94345e-10
8.0866e-10
8.25161e-10
8.43637e-10
8.62463e-10
8.78808e-10
8.93096e-10
9.10234e-10
9.40879e-10
1.01533e-09
0.00161769
0.00131775
0.000866823
0.000585889
0.000580365
0.000591555
0.000596834
0.00059912
0.000600982
0.000602483
0.000603162
0.000603049
0.00060222
0.000600772
0.000598684
0.000595945
0.000592483
0.000588264
0.000583204
0.000577291
0.000570534
0.000563007
0.000554886
0.000546483
0.000538154
0.000530117
0.000522504
0.000515439
0.000508998
0.000503179
0.000498119
0.000493002
0.000490806
0.00052439
0.000586565
0.000666278
0.000759275
0.000838569
0.000858188
0.00142771
0.00132989
0.00126692
0.00121991
0.00117695
0.00113428
0.00110544
0.00107569
0.00104787
0.00102287
0.00100071
0.000981316
0.00096463
0.000950426
0.00093858
0.000929
0.000921716
0.000916711
0.000913911
0.000916561
0.00093177
0.000946987
0.000949962
0.000945001
0.000909444
0.000916652
3.43165e-05
9.12896e-06
7.87451e-10
7.9878e-10
8.12316e-10
8.2797e-10
8.45526e-10
8.63597e-10
8.79855e-10
8.94893e-10
9.12861e-10
9.42943e-10
1.01151e-09
0.000986691
0.000215224
0.000338727
0.000223529
0.000223272
0.000230271
0.000232785
0.000231502
0.000229921
0.000228608
0.000225706
0.000222665
0.000220526
0.00021854
0.000217261
0.000216982
0.000217181
0.000217943
0.000219064
0.000220382
0.000221683
0.000222913
0.000224014
0.000224637
0.00022451
0.00022404
0.000223575
0.000223165
0.000222852
0.000222635
0.000222589
0.000222365
0.000223322
0.000240575
0.000271181
0.000310324
3.15546e-05
0.000445284
0.00062685
0.000672907
0.000670971
0.000551751
0.000465004
0.000396027
0.000334558
0.000283321
0.000244753
0.000214462
0.000191873
0.000178076
0.000173314
0.000176752
0.00018685
0.00020197
0.000220633
0.000242211
0.000266196
0.000290989
0.000317309
0.000378972
0.000482992
0.000584094
0.000681041
0.000734526
0.000837895
5.66962e-05
1.53107e-05
7.92719e-10
8.0335e-10
8.16112e-10
8.30931e-10
8.47596e-10
8.64939e-10
8.81079e-10
8.96663e-10
9.15326e-10
9.44826e-10
1.0076e-09
0.000427185
0.000137167
0.000319316
0.000361302
0.000375375
0.000388137
0.000395985
0.000396889
0.000395306
0.000392722
0.000386477
0.000379286
0.000373401
0.000367441
0.000362585
0.000359496
0.000357237
0.00035606
0.000355744
0.000355888
0.000356224
0.000356591
0.000356922
0.000356364
0.000354261
0.000351456
0.000348659
0.000345955
0.000343406
0.000341049
0.000338922
0.000337087
0.000335666
0.000330519
0.0003179
0.000294495
0.000259404
0.000305008
0.000304095
0.000246831
0.000248181
0.000211243
0.000174738
0.000149843
0.000127599
0.000107539
0.000102925
0.000100339
9.84428e-05
9.83835e-05
9.97419e-05
0.00010237
0.000106203
0.000110874
0.000116484
0.00012319
0.000131095
0.000139809
0.000149273
0.000170263
0.000203706
0.000241727
8.95178e-05
0.000325333
0.000594183
7.79153e-05
2.13541e-05
7.98109e-10
8.08051e-10
8.20047e-10
8.34045e-10
8.49848e-10
8.66484e-10
8.82464e-10
8.98425e-10
9.17593e-10
9.46489e-10
1.00369e-09
0.000288174
0.000304712
0.000822456
0.000928437
0.000954689
0.000973674
0.000990107
0.00100144
0.00100801
0.001011
0.00101137
0.00100953
0.00100598
0.00100112
0.00099508
0.00098793
0.000979717
0.000970404
0.000959953
0.000948324
0.000935513
0.000921535
0.000906458
0.000890528
0.000874206
0.000857918
0.000841989
0.000826671
0.000812122
0.000798467
0.00078579
0.000774208
0.000763995
0.000745769
0.000711321
0.000653658
0.00057035
0.000469737
0.000433779
0.000412875
0.000328711
0.000342862
0.000335819
0.000335718
0.000334945
1.93798e-05
0.000119553
0.000157888
0.000179746
0.000193692
0.00020286
0.000208687
0.00021171
0.000212198
0.000210991
0.000208902
0.000206577
0.000204447
0.000201257
0.000188996
0.000129813
0.000264591
0.000244025
0.000276127
0.000352478
0.000100042
2.8243e-05
8.03609e-10
8.12873e-10
8.24119e-10
8.37311e-10
8.5228e-10
8.68226e-10
8.83995e-10
9.0019e-10
9.19653e-10
9.47891e-10
9.99867e-10
0.000733573
0.00106921
0.00117836
0.00118112
0.00119529
0.00120678
0.00121845
0.00122806
0.00123445
0.00123783
0.00123875
0.00123755
0.00123457
0.00123017
0.00122452
0.00121765
0.00120961
0.00120033
0.00118975
0.00117777
0.00116434
0.00114941
0.00113297
0.00111519
0.0010966
0.00107775
0.00105905
0.00104082
0.0010233
0.00100667
0.000991069
0.000976715
0.000964606
0.000952
0.000932367
0.000901699
0.00085227
0.000762242
0.000657792
0.000898415
0.000883277
0.000891885
0.000892965
0.000888986
0.000882098
0.000873079
0.000863004
0.000852448
0.00084165
0.000830677
0.000820764
0.000810962
0.000800109
0.000788728
0.000777641
0.000767131
0.000757328
0.00074831
0.000740168
0.000733377
0.000709485
0.000666637
0.000611219
0.00055025
0.000531437
0.000225986
1.18602e-05
3.26545e-06
8.17809e-10
8.28321e-10
8.40728e-10
8.54888e-10
8.70156e-10
8.8566e-10
9.01957e-10
9.21514e-10
9.49008e-10
9.96144e-10
0.00117363
0.00110084
0.000897021
0.000824451
0.000819383
0.000819215
0.000821231
0.00082523
0.000828978
0.000831688
0.000833142
0.000833395
0.000832528
0.00083071
0.000828072
0.000824634
0.00082042
0.000815396
0.000809498
0.000802649
0.000794823
0.000785981
0.000776073
0.000765201
0.000753755
0.00074205
0.000730353
0.000718932
0.000707878
0.000697268
0.000687306
0.000678078
0.000670515
0.000672144
0.000686311
0.000707383
0.000725485
0.000724978
0.000682317
0.00114001
0.00108118
0.00105762
0.00103592
0.00101353
0.000991156
0.000970462
0.000951209
0.000933364
0.000917042
0.000901303
0.000888696
0.000877418
0.000864322
0.000851566
0.00084031
0.000830208
0.000821077
0.000812828
0.000805701
0.000802573
0.000798023
0.000781963
0.000760023
0.000720529
0.000674176
0.000444719
5.04207e-05
1.40862e-05
8.22845e-10
8.32647e-10
8.4429e-10
8.57666e-10
8.72267e-10
8.87446e-10
9.03725e-10
9.23191e-10
9.49832e-10
9.92528e-10
0.000949047
0.000609403
0.000403681
0.000320077
0.000320634
0.000324243
0.000325443
0.000323504
0.00032106
0.000318595
0.000313371
0.000307536
0.000302856
0.000298054
0.000294269
0.000292133
0.000290919
0.000290945
0.000291991
0.000293775
0.000296007
0.000298559
0.000301243
0.000303078
0.000303267
0.000302589
0.000301771
0.000300883
0.000299959
0.000298989
0.00029807
0.000297273
0.000297
0.000300633
0.000313757
0.000222542
0.000371416
0.000494628
0.000552442
0.000742029
0.000727086
0.000677071
0.000640313
0.000608959
0.000580692
0.000557191
0.000537367
0.000520512
0.000506464
0.000492902
0.000484787
0.000480821
0.000471409
0.000463384
0.000460429
0.000458466
0.000457416
0.000457411
0.000461304
0.00046663
0.00048841
0.000527995
0.000568565
0.000592012
0.000606989
0.000545161
0.000112077
3.17607e-05
8.2797e-10
8.37084e-10
8.47989e-10
8.60605e-10
8.74545e-10
8.89345e-10
9.05487e-10
9.24705e-10
9.50377e-10
9.89015e-10
0.000221432
0.000238282
3.52951e-05
0.000102368
0.000107079
0.000111967
0.000114517
0.000111658
0.000107065
0.000102735
9.82461e-05
9.41816e-05
9.11013e-05
8.83857e-05
8.62198e-05
8.48235e-05
8.38782e-05
8.34772e-05
8.35193e-05
8.39553e-05
8.46295e-05
8.55225e-05
8.66081e-05
8.75707e-05
8.79928e-05
8.80369e-05
8.79811e-05
8.78777e-05
8.77562e-05
8.76248e-05
8.75089e-05
8.74185e-05
8.70713e-05
8.35653e-05
6.70617e-05
0.000104028
0.000169741
0.000236498
0.000311563
0.000276407
0.000272784
0.000262718
0.000243398
0.000232749
0.000223413
0.000212372
0.000204407
0.000197542
0.00019105
0.000185695
0.000182474
0.000180976
0.000177954
0.000175568
0.00017538
0.000175723
0.000176551
0.000177843
0.000180695
0.00018407
0.000193822
0.000215393
0.000145444
0.000293834
0.00038461
0.000471866
0.000184316
5.29984e-05
8.33168e-10
8.41624e-10
8.51815e-10
8.63695e-10
8.76978e-10
8.91345e-10
9.0724e-10
9.2607e-10
9.50669e-10
9.85609e-10
0.000101247
0.000222734
9.00507e-05
0.000260898
0.000270419
0.000279211
0.000284974
0.000280853
0.000272684
0.000264764
0.000258301
0.000252988
0.000248927
0.000245687
0.000242873
0.000240527
0.000238484
0.000236643
0.000234914
0.000233294
0.000231627
0.000229882
0.000228139
0.000226381
0.000224397
0.000222001
0.000219386
0.000216696
0.000214007
0.000211366
0.000208845
0.000206461
0.000203546
0.000193413
0.000153707
5.80001e-05
0.000241584
0.000211992
8.71138e-05
0.000176256
0.000157725
0.00016316
0.000160444
0.000162213
0.000164086
0.000162547
0.000161824
0.000160769
0.000158775
0.000157384
0.000155921
0.000154458
0.00015338
0.000152345
0.0001515
0.000150759
0.000150098
0.000149499
0.000148935
0.000148086
0.000143284
0.000131596
0.000128869
0.000154039
0.000187364
0.000240834
0.000202576
4.63555e-06
1.3203e-06
8.46251e-10
8.55757e-10
8.66923e-10
8.79553e-10
8.93437e-10
9.08982e-10
9.27303e-10
9.50745e-10
9.82318e-10
0.000159589
0.000591769
0.000745534
0.0007749
0.00078357
0.000790627
0.000797188
0.000798571
0.000796816
0.000794525
0.00079244
0.000790333
0.000788078
0.000785585
0.000782776
0.000779655
0.000776171
0.000772235
0.000767791
0.000762765
0.000757085
0.000750651
0.000743398
0.000735331
0.000726584
0.000717347
0.000707831
0.00069821
0.000688609
0.000679139
0.000669907
0.000661029
0.000652602
0.000644288
0.000625895
0.000595067
0.000545044
0.000472576
0.000404256
0.000450077
0.000419733
0.000420424
0.000422974
0.000426101
0.000429009
0.000429996
0.000429906
0.000429058
0.00042739
0.000425219
0.000422659
0.000419755
0.000416594
0.00041322
0.00040967
0.000405991
0.00040223
0.00039846
0.000394721
0.000390408
0.000376129
0.000344268
0.000300633
0.000258431
0.000194635
0.000196238
0.000248191
7.00644e-05
2.20407e-05
8.50953e-10
8.59801e-10
8.70277e-10
8.82255e-10
8.95612e-10
9.10713e-10
9.28424e-10
9.50643e-10
9.79157e-10
0.00077695
0.000835402
0.000792647
0.000784272
0.00078955
0.000793515
0.000799289
0.00080281
0.000803475
0.000803345
0.000803032
0.000802351
0.000801133
0.0007994
0.000797258
0.000794068
0.000790263
0.000785965
0.000781211
0.000775963
0.000770162
0.00076371
0.000756479
0.000748399
0.000739654
0.000730491
0.000721091
0.000711566
0.000702029
0.00069258
0.000683322
0.000674403
0.000665863
0.000660074
0.000655409
0.000646367
0.000625976
0.00058588
0.000523971
0.000819983
0.000772219
0.0007541
0.000742986
0.000732685
0.000722766
0.000713275
0.000704268
0.000695802
0.000687721
0.000679987
0.000672559
0.000665337
0.000658306
0.000651453
0.000644766
0.000638263
0.00063197
0.000625909
0.000620096
0.000614659
0.000606763
0.000589541
0.000563462
0.000528636
0.000483961
0.000438248
0.000407814
0.000196183
2.1536e-05
6.16765e-06
8.63932e-10
8.73741e-10
8.85069e-10
8.97859e-10
9.12435e-10
9.29449e-10
9.50407e-10
9.76146e-10
0.000813152
0.000614496
0.000403156
0.000349426
0.000348774
0.000348092
0.000350883
0.000356578
0.000359648
0.000361405
0.00036258
0.000363063
0.000362737
0.000361911
0.000360986
0.000361867
0.000365207
0.000368892
0.000372205
0.000374978
0.000377124
0.000378656
0.00037952
0.000379526
0.000378588
0.000376938
0.000374743
0.000372063
0.000369022
0.000365691
0.000362177
0.000358489
0.000354366
0.000356675
0.000375164
0.000399447
0.000436727
0.000469961
0.000463858
0.000719619
0.000693448
0.000668295
0.000648742
0.000631074
0.000614305
0.000600204
0.000588029
0.00057738
0.000568141
0.000559835
0.000552228
0.000545227
0.000538692
0.00053258
0.000526877
0.000521571
0.000516683
0.000512242
0.00050823
0.000505381
0.000507505
0.00051429
0.000518374
0.000514608
0.000506816
0.000486723
0.000461487
0.000332778
7.4426e-05
2.16167e-05
8.68134e-10
8.77298e-10
8.8798e-10
9.0017e-10
9.14152e-10
9.30398e-10
9.50074e-10
9.73305e-10
0.000464026
0.000277936
0.000158783
0.000137537
0.000138313
0.000139579
0.000140788
0.000141364
0.000140624
0.000139454
0.000136876
0.000133778
0.000130999
0.000127983
0.000125436
0.000124429
0.00012479
0.000126082
0.000128045
0.000130573
0.000133494
0.000136831
0.00014048
0.000143685
0.00014565
0.000146912
0.000147999
0.000148892
0.000149623
0.000150192
0.000150634
0.000150944
0.000151
0.000153751
0.000163544
0.000176037
0.000200901
0.000217142
0.000311177
0.000299967
0.00032249
0.000284671
0.000258542
0.000238074
0.000219318
0.000203491
0.000190994
0.000180746
0.000172492
0.000165708
0.000160022
0.000155358
0.000151648
0.000148835
0.000146964
0.000146066
0.00014616
0.000147274
0.000149005
0.000150436
0.000164024
0.000214763
0.000269791
0.000317948
0.000361265
0.000390043
0.000402163
0.000378281
0.000153279
4.75004e-05
8.72388e-10
8.80931e-10
8.90973e-10
9.02537e-10
9.15867e-10
9.31291e-10
9.49685e-10
9.70651e-10
0.000200398
0.000105928
0.000143624
0.000146889
0.00014767
0.000150195
0.000151058
0.000149594
0.000147694
0.000145719
0.000142335
0.000138554
0.000135307
0.000131878
0.000128907
0.000125505
0.00012317
0.000121884
0.00012152
0.000121912
0.000122865
0.000124342
0.000126219
0.000127804
0.0001284
0.000128501
0.000128589
0.000128642
0.000128666
0.000128651
0.000128613
0.000128568
0.000128548
0.000128436
0.000124231
0.000113007
9.41379e-05
0.000120749
0.00015169
0.000113165
0.00012242
0.000111686
9.92352e-05
9.17818e-05
8.50186e-05
7.80093e-05
7.2947e-05
6.87413e-05
6.504e-05
6.22509e-05
5.9902e-05
5.79857e-05
5.66123e-05
5.56159e-05
5.50581e-05
5.49207e-05
5.5202e-05
5.58933e-05
5.68307e-05
5.76284e-05
6.30142e-05
8.26415e-05
0.000103762
0.000123144
3.34118e-05
0.000186209
0.000256288
0.000312651
0.000217313
3.68059e-05
1.07532e-05
8.84621e-10
8.94032e-10
9.04951e-10
9.17585e-10
9.32148e-10
9.49273e-10
9.68201e-10
0.000182626
0.000281715
0.00036357
0.000371768
0.000370659