/*--------------------------------*- C++ -*----------------------------------*\
| =========                 |                                                 |
| \\      /  F ield         | OpenFOAM: The Open Source CFD Toolbox           |
|  \\    /   O peration     | Version:  2312                                  |
|   \\  /    A nd           | Website:  www.openfoam.com                      |
|    \\/     M anipulation  |                                                 |
\*---------------------------------------------------------------------------*/
FoamFile
{
    version     2.0;
    format      ascii;
    arch        "LSB;label=32;scalar=64";
    class       volScalarField;
    location    "250";
    object      turbulenceProperties:L;
}
// * * * * * * * * * * * * * * * * * * * * * * * * * * * * * * * * * * * * * //

dimensions      [0 1 0 0 0 0 0];

internalField   nonuniform List<scalar> 
10720
(
0.0067284
0.00521323
0.00485336
0.00501052
0.00570699
0.00663719
0.00763999
0.00868825
0.00967318
0.0106022
0.0115638
0.0127294
0.0142738
0.0165431
0.0195791
0.0230431
0.024903
0.0236656
0.018232
0.0171089
0.0204845
0.0285387
0.0429565
0.0642731
0.0871405
0.107528
0.283689
0.274771
0.0920476
0.0506531
0.0271495
0.0082844
0.00363341
0.00125166
8.53192e-11
1.09613e-10
0.000272845
0.00476374
0.0812742
0.01295
0.026193
0.0313735
0.00492753
0.0121934
0.0126611
0.0108503
0.00957796
0.00909136
0.00895561
0.0090279
0.00934193
0.00994046
0.0109824
0.0113179
0.0110679
0.00818251
0.00651158
0.00576839
0.00595812
0.00686426
0.00850981
0.0101606
0.0115369
0.0123184
0.0123565
0.010365
0.00718403
0.00423336
0.0021045
0.000740194
0.000167044
7.60063e-05
4.72613e-05
1.25301e-10
0.00349849
0.0317893
0.0485576
0.0899631
0.00799432
0.00742806
0.00886607
0.0112074
0.0147099
0.0192708
0.0241704
0.0290443
0.0336348
0.0378798
0.0420595
0.0458315
0.0530706
0.069934
0.102643
0.162992
0.263607
0.463986
0.523175
0.223288
0.120092
0.0978751
0.0924067
0.0917229
0.117025
0.106817
0.151461
0.114345
0.1075
0.190033
0.16906
0.0698838
0.0345527
0.0109967
0.00126958
2.46752e-10
0.00148147
0.0226197
0.0927698
0.00470828
0.102048
0.100035
0.0213522
0.049035
0.0592829
0.0501717
0.0499534
0.0520866
0.0534085
0.0548611
0.056672
0.0588446
0.0619648
0.0650158
0.19342
0.328534
1.06171
143.138
0.00456173
0.0153323
0.27767
0.131699
0.00623431
0.00285694
0.00485528
0.00123728
0.00217901
0.00212295
0.00206586
0.00153179
0.0010225
0.000622108
0.000356839
5.26746e-05
0.00308245
0.0264989
0.0399717
0.122514
0.0184357
0.0177726
0.00440787
0.00338694
0.0063487
0.00873585
0.010556
0.0120014
0.0131775
0.0142428
0.0152168
0.0161767
0.0172177
0.0154114
0.0215239
0.0377636
0.0550126
0.0870665
0.134793
0.229468
1.19166
0.20508
0.204697
0.0436095
0.214546
0.265966
0.192213
0.110934
0.0723708
0.0685632
0.0827891
0.0798026
0.0355166
0.0115686
0.0030163
2.11893e-10
0.00204401
0.0207606
0.118105
0.00851462
0.0497291
0.0548589
0.0458947
0.0363884
0.0236625
0.0132975
0.0148516
0.0168567
0.018598
0.0202998
0.0220498
0.0233344
0.0242669
0.0255862
0.0264135
0.023444
0.0233219
0.0144736
0.0265387
0.00499999
0.0258747
0.0549419
0.00512454
0.0568162
0.0901207
0.0189071
0.0255295
0.0226067
0.0201509
0.0156066
0.008994
0.0053876
0.00347683
0.00339832
2.47774e-09
0.144125
0.640132
0.804203
0.0365955
0.0383759
0.0397644
0.0406931
0.04161
0.0424007
0.043022
0.0435213
0.0438929
0.0441289
0.0442339
0.0442231
0.0452797
0.0449013
0.0431189
0.0425001
0.03947
0.0308555
0.0197633
0.0112098
3.74288e-09
4.07571e-09
5.09242e-09
0.656123
11.1718
2.2007e-08
5.62415e-10
1.53933e-09
5.04191e-09
2.9648e-08
8.15261e-07
0.000199284
0.0227345
0.0247709
0.0122571
0.00500908
0.00613451
0.082156
0.172918
0.0494701
0.0528405
0.0378118
0.0173053
0.0156287
0.0124978
0.0107878
0.0111294
0.011615
0.0120992
0.0125966
0.0131851
0.0137072
0.0141443
0.0147231
0.0153063
0.0142666
0.0142306
0.00744821
0.0117639
0.0132988
0.0152818
0.0149876
0.0140143
0.015017
0.0151937
0.0153456
0.0152948
0.0150724
0.0149899
0.0147016
0.0140498
0.0130946
0.0114437
0.0143723
0.00727298
3.39507e-09
0.237002
7.95688
0.0547099
0.0513244
0.0502323
0.0493868
0.0486411
0.0478798
0.047277
0.0467595
0.0463093
0.045941
0.0456386
0.045393
0.0451888
0.0450769
0.0449653
0.0448573
0.0445915
0.0444393
0.042
0.0259158
0.0154294
0.00972817
3.7083e-09
4.01454e-09
1.01123
2.06657e-08
2.80135e-14
1.16165e-13
4.20802e-13
2.30527e-12
2.58767e-11
1.21332e-09
1.98603e-06
7.87676e-10
0.0258861
0.0227136
0.0145974
0.114901
0.14754
0.0428215
0.0205612
0.0153714
0.0130053
0.011077
0.0242454
0.0259901
0.0258646
0.0256875
0.0253826
0.0249629
0.0245379
0.0241006
0.0236373
0.0231209
0.0231648
0.0221821
0.0207527
0.0203539
0.0200299
0.0196869
0.0191997
0.0186698
0.0182068
0.0178025
0.0174157
0.017055
0.0167457
0.0165156
0.0163296
0.0160991
0.015928
0.0159295
0.0162962
0.0154496
0.019182
0.00273109
0.206272
23.1976
0.0284186
0.0302232
0.02791
0.0269102
0.0259913
0.0251433
0.0245225
0.0240509
0.0237532
0.0236656
0.0237683
0.0240413
0.024468
0.0250409
0.025755
0.0266523
0.0276786
0.029073
0.0310392
0.0327577
0.0325564
0.0219055
0.0106846
0.00685893
3.73887e-09
5.35581e-14
2.65879e-19
2.736e-19
4.61442e-19
1.11315e-18
3.44931e-18
1.38735e-17
2.02674e-11
1.84812e-11
1.77485e-11
4.20474e-10
1.33357e-08
3.39938e-07
5.63001e-05
0.0177914
0.0121065
0.0112352
0.031031
0.0394579
0.0423916
0.0422019
0.0420499
0.0419355
0.041727
0.0413992
0.0410473
0.0406731
0.0402489
0.0397811
0.0392365
0.0387047
0.0380404
0.0372716
0.0366089
0.036009
0.0354266
0.0348496
0.0342848
0.0336946
0.0330819
0.0325293
0.0320288
0.0316103
0.0313217
0.0311085
0.0307978
0.0309239
0.0296955
0.0280929
0.02898
0.00409683
0.169837
2.23058
0.01114
0.0117882
0.0116858
0.0117026
0.0118524
0.0121318
0.0123415
0.0125882
0.0128331
0.0130709
0.0133461
0.0136354
0.0139403
0.0142739
0.0146239
0.0150315
0.0154738
0.0162194
0.0169286
0.011654
0.0176321
0.0208769
0.021453
0.0151917
0.0113008
2.74519e-09
6.02242e-19
3.65585e-19
4.19779e-19
7.38886e-19
1.73485e-18
4.87449e-18
1.36692e-17
3.45338e-17
7.41963e-13
6.94387e-12
8.12447e-16
1.17607e-09
2.54347e-14
0.0155654
0.0275734
0.039299
0.041666
0.038537
0.0363049
0.0364539
0.0364752
0.0366673
0.0368899
0.0370621
0.0372757
0.037521
0.0377253
0.0379455
0.0381337
0.0380252
0.0376176
0.0371322
0.0366618
0.0361951
0.0357183
0.0352217
0.0346946
0.0341096
0.0335189
0.033011
0.0325542
0.0321787
0.0319165
0.0317738
0.0317573
0.0317606
0.0317044
0.0314447
0.0327747
0.00480495
0.159962
1.38418
0.0172865
0.0171835
0.0182399
0.0200299
0.0211608
0.0225901
0.023835
0.0247791
0.0254806
0.0259816
0.0263197
0.026518
0.0265956
0.0265678
0.0264218
0.0262481
0.0260108
0.0264301
0.0247468
0.0218377
0.021269
0.0218379
0.0230492
0.0230639
0.0243452
1.2925e-08
2.36838e-14
5.64122e-19
4.68381e-19
6.23273e-19
1.15207e-18
2.54639e-18
5.52502e-18
1.00853e-17
1.56768e-17
3.25227e-17
8.79687e-17
2.44283e-16
4.07016e-15
0.0352024
0.0417456
0.0381857
0.0268896
0.0181235
0.0149773
0.0155884
0.0158562
0.0163429
0.017117
0.0180026
0.0189018
0.0198554
0.0208682
0.0218548
0.0226551
0.0229318
0.0228457
0.0226489
0.0223814
0.0220577
0.0216902
0.0212905
0.0208567
0.020421
0.0200287
0.0196987
0.0194264
0.0192327
0.019117
0.0190826
0.0192822
0.0198438
0.0207927
0.0216071
0.0261002
0.00394365
0.136182
1.03274
0.0392902
0.0384098
0.0380578
0.0377579
0.0378742
0.038165
0.0383644
0.0383363
0.0382428
0.0381189
0.0379761
0.037814
0.0376104
0.0374041
0.0370558
0.0367799
0.0366659
0.0361747
0.0350297
0.0332818
0.0313751
0.0296302
0.0284127
0.0267027
0.0294759
5.1301e-08
1.02035e-13
9.58266e-19
5.97542e-19
6.17483e-19
9.17229e-19
1.66662e-18
3.05445e-18
4.96878e-18
7.17002e-18
1.21769e-17
2.6272e-17
5.27711e-17
4.03557e-16
0.0410754
0.0317467
0.0128212
0.0108814
0.00687131
0.00592534
0.00614678
0.00621632
0.00634609
0.00664482
0.00700193
0.00737675
0.00780262
0.008269
0.0087503
0.00918364
0.0094224
0.00954724
0.0096225
0.00966148
0.00966822
0.00964626
0.00959421
0.00951285
0.00942331
0.00934313
0.00928196
0.00924111
0.00922958
0.00924573
0.00929331
0.00944692
0.00977338
0.010288
0.0109044
0.0123341
0.00191019
0.102183
0.734782
0.0361665
0.0342717
0.033131
0.0323838
0.0314949
0.0304782
0.0296427
0.0289654
0.0284671
0.0281456
0.0279755
0.0279405
0.0279073
0.0281535
0.0286854
0.0288914
0.0290394
0.0295132
0.0302543
0.0308628
0.0309626
0.0304609
0.0298807
0.0282417
0.0304309
1.75983e-07
3.74378e-13
1.74584e-18
8.42844e-19
6.92039e-19
8.38569e-19
1.27862e-18
2.04544e-18
3.05633e-18
4.19888e-18
6.33069e-18
1.18767e-17
2.15375e-17
4.32841e-17
0.0234903
0.0140181
0.00695075
0.00932357
0.0027136
0.00423045
0.00354489
0.00299977
0.00161749
0.0103678
0.0102091
0.0100701
0.00995761
0.00983871
0.009797
0.00974129
0.00968342
0.00965981
0.00966243
0.0096806
0.00970622
0.00973088
0.00973694
0.00972204
0.00969819
0.00967398
0.00965873
0.00965074
0.00965564
0.00967085
0.00969865
0.00973301
0.00965917
0.00947795
0.00907707
0.0108088
0.00474713
0.0647732
0.451058
0.0155097
0.0163325
0.0124562
0.00923817
0.00581865
0.0116783
0.0112056
0.0110336
0.0109333
0.0108814
0.0109194
0.0110133
0.0111137
0.011342
0.0118091
0.00539154
0.00834803
0.0108407
0.013557
0.0170627
0.0206095
0.0232443
0.0250075
0.025032
0.0287627
5.79396e-07
1.30749e-12
3.36637e-18
1.29129e-18
8.58506e-19
8.60138e-19
1.11418e-18
1.57791e-18
2.18799e-18
2.89756e-18
4.07121e-18
6.93951e-18
1.16012e-17
1.89142e-17
0.00997402
0.00914046
0.014252
0.0259231
0.0288846
0.0288963
0.0287766
0.0286261
0.0284223
0.0281686
0.0278696
0.027534
0.0271542
0.0267147
0.0264252
0.0260589
0.0257252
0.0254226
0.0251461
0.0248865
0.0246335
0.0243615
0.0240613
0.0237605
0.0234834
0.0232325
0.0230148
0.0228206
0.0226618
0.0225273
0.0224283
0.0223427
0.0220114
0.0214414
0.02039
0.0198224
0.0105209
0.0321879
0.217557
0.00779211
0.00842215
0.00820268
0.00797864
0.00816525
0.00846491
0.00883466
0.00916614
0.00942559
0.00959838
0.0097506
0.00986127
0.00994459
0.0100084
0.0100328
0.0102669
0.0105777
0.0109468
0.0114921
0.0124532
0.00476554
0.0113936
0.016003
0.0178732
0.0242703
1.81932e-06
4.32338e-12
6.81764e-18
2.12098e-18
1.16145e-18
9.74989e-19
1.08373e-18
1.36871e-18
1.76671e-18
2.22949e-18
2.98885e-18
4.72913e-18
7.37164e-18
1.05129e-17
0.012671
0.0229025
0.0321412
0.0329037
0.0325896
0.0325655
0.0324851
0.0323892
0.0322661
0.0321153
0.0319059
0.0316539
0.0313378
0.0309789
0.0306138
0.0302976
0.0300155
0.0297547
0.0295032
0.0292483
0.028975
0.0286736
0.028359
0.0280582
0.0277867
0.0275415
0.0273232
0.0271239
0.02696
0.0268176
0.026712
0.0266553
0.0265902
0.0264473
0.0261355
0.0254917
0.0246124
0.00519496
0.0222728
0.0158574
0.0172316
0.0187113
0.0203059
0.0219829
0.0234185
0.0245116
0.0253347
0.0259302
0.0263219
0.0265524
0.0266515
0.0266589
0.02658
0.0264003
0.0261541
0.0259077
0.0256359
0.0253569
0.0251622
0.0233994
0.0209459
0.0204885
0.0194631
0.0234036
6.67478e-06
1.65872e-11
1.44365e-17
3.70339e-18
1.69534e-18
1.20769e-18
1.16312e-18
1.317e-18
1.58281e-18
1.91511e-18
2.44055e-18
3.57833e-18
5.19742e-18
6.79473e-18
0.0286551
0.0332926
0.029242
0.022459
0.0200655
0.0200842
0.0201344
0.0201623
0.0202109
0.0202853
0.0202899
0.020267
0.0202262
0.0201926
0.0201645
0.0201326
0.0200903
0.0200328
0.0199535
0.0198448
0.0197071
0.0195526
0.0193906
0.0192349
0.0190962
0.0189688
0.018854
0.0187499
0.0186693
0.0186109
0.0185744
0.0185828
0.0188162
0.0193181
0.0199997
0.0206421
0.0228361
0.0070651
0.0112158
0.0316252
0.0308876
0.0309257
0.0312952
0.0318643
0.0322439
0.032528
0.0326981
0.03278
0.0327949
0.0327631
0.0326883
0.0326629
0.0326517
0.0325865
0.0325105
0.0324423
0.0322755
0.0322679
0.0322657
0.0313362
0.0296116
0.0279596
0.0256662
0.0263493
2.7475e-05
2.56195e-13
5.35304e-15
6.83558e-18
2.64931e-18
1.6203e-18
1.36489e-18
1.39236e-18
1.55808e-18
1.80805e-18
2.18927e-18
2.96442e-18
4.70093e-18
5.89821e-18
0.032102
0.0237009
0.0109327
0.00931266
0.00775817
0.00788666
0.00795609
0.00793867
0.00793086
0.00795204
0.00792004
0.00789422
0.00790462
0.00792675
0.00797165
0.00804039
0.0081181
0.00820499
0.00829269
0.00837701
0.00845721
0.00853378
0.00860404
0.00866564
0.00871583
0.00875884
0.00880107
0.00884186
0.00888693
0.00893826
0.00899056
0.00906196
0.0092379
0.0095566
0.0029764
0.0076708
0.0128408
0.0133949
0.00204777
0.0279587
0.0266263
0.025764
0.0249726
0.0242626
0.0236702
0.0232434
0.022887
0.0226221
0.0224726
0.0224351
0.0224461
0.0227455
0.023221
0.0235567
0.0238666
0.0241993
0.0247761
0.0255276
0.0263868
0.0275842
0.0284885
0.0284522
0.0272739
0.0276758
0.000103555
2.28175e-12
4.03968e-14
1.32878e-17
4.40728e-18
2.33812e-18
1.73778e-18
1.60489e-18
1.67307e-18
1.85638e-18
2.14507e-18
3.42331e-18
3.99847e-17
6.94111e-16
0.0174393
0.0106155
0.00518926
0.00553884
0.00573863
0.00582926
0.00585425
0.00580447
0.0057448
0.00569324
0.00561049
0.00553128
0.00548074
0.00544002
0.00542084
0.00542455
0.00544262
0.00547512
0.00551939
0.00557116
0.00562724
0.00568761
0.00575009
0.0058087
0.00585595
0.0058966
0.00593502
0.00597031
0.00600525
0.00604174
0.00607524
0.00610635
0.00608558
0.00588198
0.00569765
0.00623307
0.00768861
0.00801126
0.00188114
0.0109953
0.011013
0.00650583
0.00974892
0.00930349
0.00915334
0.00894054
0.00881472
0.00873193
0.00868251
0.00872028
0.00878854
0.00898238
0.0092678
0.00950909
0.00975137
0.0100816
0.00387646
0.00640665
0.0089957
0.0129045
0.0167597
0.0201322
0.0221161
0.0241023
0.000320472
1.30096e-11
1.97171e-13
2.71431e-17
7.77408e-18
3.60877e-18
2.38492e-18
2.00359e-18
1.94775e-18
2.0614e-18
2.31657e-18
2.65276e-16
4.45004e-11
1.59165e-09
0.00747629
0.00627191
0.00831805
0.0150895
0.0154595
0.0154686
0.0154631
0.0154434
0.0154115
0.0153758
0.0153309
0.0152773
0.015223
0.0151687
0.0151124
0.015055
0.0149967
0.0149365
0.0148747
0.0148111
0.014747
0.0146838
0.0146216
0.0145634
0.0145115
0.0144607
0.0144105
0.0143588
0.0143122
0.014276
0.0142377
0.0142003
0.0140492
0.0134844
0.0125364
0.0111687
0.00910639
0.00979031
0.00313028
0.00523038
0.00567933
0.00540833
0.00521903
0.00565737
0.00605115
0.00608949
0.00612899
0.0062111
0.00627722
0.0063603
0.00643586
0.00650415
0.0065729
0.00662917
0.00668112
0.00673255
0.00696577
0.00732626
0.00783105
0.00859747
0.00959858
0.0106716
0.00876036
0.0142938
0.000758052
5.79329e-11
7.57919e-13
5.81894e-17
1.45012e-17
5.93301e-18
3.50914e-18
2.69292e-18
2.44458e-18
2.46496e-18
6.42668e-18
1.18341e-11
1.68814e-09
3.38133e-09
0.00941412
0.0161156
0.0242865
0.0259723
0.0260073
0.0259155
0.0258418
0.025804
0.0257834
0.0257691
0.025755
0.0257373
0.0257185
0.0256964
0.0256673
0.0256306
0.0255865
0.0255342
0.0254735
0.0254034
0.0253257
0.0252424
0.0251532
0.0250628
0.0249774
0.0248917
0.0248065
0.0247201
0.0246422
0.0245838
0.0245258
0.0244794
0.0244233
0.0241423
0.0235971
0.0227202
0.0211655
0.0192156
0.0160467
0.0092303
0.0109348
0.0129413
0.0143719
0.0154762
0.0164244
0.016648
0.0167713
0.0170173
0.0172668
0.0174834
0.0176577
0.0177884
0.0178714
0.0179046
0.0179072
0.0178973
0.01787
0.0178217
0.0177339
0.0169187
0.0159788
0.0137937
0.0121435
0.0124898
0.00190385
2.92344e-10
3.32475e-12
1.30845e-16
2.85557e-17
1.03582e-17
5.51203e-18
3.87659e-18
3.28969e-18
3.15807e-18
5.39047e-18
1.66665e-12
1.45902e-09
1.20098e-09
0.0215702
0.0269734
0.0254458
0.0229917
0.0228307
0.0227321
0.0226535
0.0226264
0.0226295
0.0226431
0.0226667
0.0226945
0.0227203
0.022743
0.0227593
0.022767
0.0227662
0.0227569
0.0227379
0.0227076
0.0226668
0.022617
0.0225568
0.0224904
0.0224267
0.022364
0.0223023
0.022241
0.0221865
0.0221494
0.0221232
0.0221057
0.0221404
0.0223098
0.0224988
0.022617
0.0224224
0.0215869
0.0193373
0.0249456
0.0247217
0.0254258
0.0261329
0.0266454
0.0271476
0.0271997
0.0271923
0.027448
0.0276499
0.0278035
0.0279206
0.0280106
0.0280686
0.0280902
0.0281006
0.0281196
0.0281244
0.0281007
0.0280425
0.0277936
0.0266313
0.0252864
0.0235544
0.0206239
0.00586442
1.89548e-09
1.8851e-11
3.08551e-16
5.92889e-17
1.91581e-17
9.21056e-18
5.95053e-18
4.7224e-18
4.30902e-18
5.82136e-18
3.73934e-13
1.12674e-11
2.78231e-09
0.0276103
0.0222926
0.0144128
0.00956207
0.00930592
0.00933117
0.00928335
0.00922185
0.00918786
0.00917788
0.00918209
0.00919771
0.00922202
0.00925343
0.0092892
0.00932815
0.00936911
0.00941136
0.00945308
0.009493
0.00953037
0.00956527
0.00959801
0.00963154
0.00966935
0.00970879
0.00974825
0.00978773
0.00982891
0.00987537
0.00992952
0.00997144
0.0100564
0.0108699
0.0122805
0.0140716
0.0161395
0.0179652
0.0179799
0.0251598
0.0239126
0.0233859
0.0231228
0.0228614
0.0225904
0.0225739
0.0225107
0.0224627
0.0224374
0.0224301
0.0224471
0.0224938
0.022563
0.0226489
0.0227679
0.0229363
0.0231342
0.023342
0.0236566
0.0242808
0.0248453
0.025
0.0248413
0.0237778
0.0131574
1.1653e-08
1.01855e-10
7.62915e-16
1.29676e-16
3.74661e-17
1.63243e-17
9.70209e-18
7.19829e-18
6.22976e-18
7.07297e-18
1.09752e-13
4.99473e-09
3.38948e-09
0.0172349
0.00373338
0.00577678
0.00374753
0.00368491
0.0037462
0.00374097
0.00368678
0.00364059
0.00360951
0.00356294
0.00352226
0.00350229
0.00349006
0.00349366
0.00351783
0.00355454
0.00360566
0.00366829
0.00374006
0.00381773
0.00390065
0.00398742
0.0040712
0.00414571
0.00421526
0.00428423
0.0043525
0.00442032
0.0044889
0.00455982
0.00462347
0.00470647
0.00513191
0.00584581
0.0067513
0.00069142
0.00983542
0.0136053
0.0120946
0.0123027
0.0103753
0.00897146
0.00782668
0.00677782
0.00588319
0.00520443
0.00466624
0.00426646
0.00404094
0.00400938
0.00416505
0.00448048
0.00492215
0.0054614
0.00608914
0.00678981
0.00751644
0.00828902
0.0100049
0.0128542
0.0156171
0.0182252
0.0195994
0.0178766
6.48587e-08
5.00352e-10
1.97738e-15
2.9847e-16
7.73306e-17
3.06047e-17
1.67442e-17
1.1604e-17
9.4999e-18
9.56466e-18
3.99927e-14
1.30786e-09
2.09593e-09
0.00764303
0.00243729
0.00558084
0.00621684
0.00636822
0.00649922
0.00655693
0.00651825
0.00645941
0.00640238
0.00630166
0.00619867
0.00612712
0.00606233
0.00602224
0.00601757
0.00603326
0.00607415
0.00613726
0.00621636
0.00630764
0.00640916
0.00651964
0.00662268
0.00670385
0.00677381
0.00684263
0.00691025
0.00697674
0.00704419
0.00711405
0.00718405
0.00725485
0.00723454
0.00703574
0.00658133
0.00584322
0.00692859
0.00681854
0.00453164
0.00464406
0.00404894
0.00343354
0.00301426
0.00262909
0.00226847
0.00222006
0.00221108
0.00221375
0.00225517
0.00232882
0.00243344
0.00256845
0.0027253
0.00290856
0.00312465
0.00337469
0.00364616
0.00393905
0.00454366
0.00548542
0.00654772
0.00243087
0.00882663
0.0150069
3.12329e-07
2.13506e-09
5.37077e-15
7.22268e-16
1.68165e-16
6.05402e-17
3.04909e-17
1.97081e-17
1.52157e-17
1.39626e-17
1.70709e-14
4.64629e-10
3.06131e-09
0.00527962
0.00554193
0.0147261
0.0163863
0.0166286
0.01675
0.0168529
0.0169154
0.0169476
0.0169649
0.0169789
0.0169903
0.0170001
0.01701
0.0170177
0.0170223
0.0170242
0.0170224
0.0170162
0.0170047
0.0169889
0.0169705
0.01695
0.0169294
0.016913
0.0168988
0.0168848
0.0168722
0.0168611
0.0168558
0.0168607
0.0168737
0.0168957
0.0167117
0.0161264
0.0149719
0.0131776
0.0109501
0.010022
0.00774239
0.00627311
0.00669484
0.00671714
0.00686866
0.00700993
0.00041458
0.00261087
0.00351741
0.00408153
0.0044794
0.00477617
0.00500095
0.00516122
0.00525821
0.00531172
0.00534274
0.00536267
0.00537804
0.00535856
0.00509124
0.00353126
0.00724704
0.00670895
0.00759684
0.00949419
1.46297e-06
9.02522e-09
1.52799e-14
1.83543e-15
3.84703e-16
1.26075e-16
5.84182e-17
3.51374e-17
2.54994e-17
2.16447e-17
8.25446e-15
4.66405e-11
1.02774e-09
0.01374
0.0198836
0.0215987
0.0213584
0.0213414
0.0212881
0.0212756
0.0212884
0.0213084
0.0213322
0.0213633
0.021399
0.0214364
0.021475
0.0215123
0.0215463
0.0215769
0.021603
0.0216233
0.0216368
0.0216446
0.0216494
0.0216518
0.0216526
0.0216572
0.0216638
0.0216693
0.0216749
0.0216803
0.0216891
0.0217073
0.0217384
0.0217956
0.0218073
0.0216192
0.0211346
0.020164
0.018204
0.0156244
0.0171816
0.0171631
0.0177177
0.0181577
0.0184702
0.0187197
0.0189102
0.0190565
0.0191815
0.0192887
0.0193793
0.0194886
0.0195959
0.0196668
0.0197058
0.0197386
0.0197803
0.0198207
0.019847
0.0198739
0.0199298
0.0194808
0.0184435
0.0169899
0.0153241
0.0147154
1.25528e-05
1.26527e-08
1.83712e-10
4.89392e-15
9.24689e-16
2.75795e-16
1.17469e-16
6.55802e-17
4.45827e-17
3.52132e-17
4.42014e-15
8.21039e-12
2.06521e-10
0.0224247
0.0209035
0.0168072
0.0152479
0.0149671
0.0147904
0.014684
0.014657
0.0146686
0.0146989
0.0147397
0.014786
0.014833
0.0148794
0.0149237
0.0149648
0.0150027
0.0150369
0.0150664
0.0150905
0.0151106
0.0151294
0.0151474
0.0151655
0.0151884
0.0152141
0.0152403
0.0152685
0.0152966
0.0153246
0.0153588
0.0154015
0.0154681
0.0157265
0.0162625
0.0169513
0.0175591
0.0177193
0.0166338
0.0221896
0.0213556
0.0213447
0.0213826
0.0213519
0.0213009
0.0212621
0.0212287
0.021214
0.0212204
0.0212263
0.0212979
0.0213945
0.0214337
0.0214611
0.0215119
0.0215866
0.0216675
0.0217374
0.0218163
0.0220001
0.0221132
0.021846
0.0213481
0.0202949
0.0189711
9.7495e-05
1.87637e-07
2.45465e-09
1.36877e-14
2.33252e-15
6.33018e-16
2.47416e-16
1.27835e-16
8.11216e-17
5.96947e-17
2.59269e-15
1.74193e-12
4.30799e-11
0.0184639
0.0117981
0.0077178
0.00604236
0.00598047
0.00598141
0.00595038
0.00588004
0.00581788
0.00576965
0.00568341
0.00559503
0.00553384
0.00547491
0.00543785
0.00543431
0.00545133
0.00549551
0.00556363
0.00565141
0.00575491
0.00587383
0.00600631
0.00613326
0.00623712
0.00633013
0.00642387
0.00651831
0.00661224
0.0067041
0.00679636
0.00689057
0.00699453
0.00718378
0.00759616
0.00545096
0.00919326
0.0123673
0.0138081
0.0146772
0.0145833
0.0138689
0.0134033
0.0129973
0.0126323
0.0123488
0.0121263
0.0119594
0.0118454
0.0117311
0.0117385
0.0118417
0.0118031
0.0117872
0.011894
0.0120264
0.0121763
0.0123395
0.0126014
0.0129072
0.0136623
0.0148988
0.01614
0.0168636
0.0173022
0.000483959
1.52051e-06
1.79444e-08
4.01182e-14
6.1718e-15
1.52238e-15
5.45197e-16
2.59986e-16
1.53373e-16
1.05054e-16
1.67639e-15
4.26766e-13
1.2251e-09
0.00438158
0.00469751
0.000687479
0.0019695
0.00203671
0.00210822
0.00213932
0.00207563
0.00198588
0.00190579
0.00182625
0.00175686
0.00170714
0.00166507
0.00163385
0.00161772
0.0016109
0.00161545
0.00162977
0.00165332
0.00168358
0.00172089
0.00176541
0.00181098
0.00184863
0.00188069
0.00191199
0.0019432
0.00197445
0.00200542
0.00203673
0.00206855
0.00209386
0.00203974
0.00165914
0.00260492
0.00429711
0.00604964
0.00798091
0.00555203
0.00555407
0.00546029
0.00516567
0.00503317
0.00492178
0.00476495
0.00466898
0.00459362
0.00452181
0.00447157
0.00446894
0.0045061
0.00450238
0.00451101
0.00457475
0.00465354
0.00474408
0.00484304
0.00498327
0.00514097
0.00547657
0.00614243
0.00417488
0.0084682
0.0111006
0.00164893
9.52163e-06
1.016e-07
1.23115e-13
1.7113e-14
3.83503e-15
1.25593e-15
5.51086e-16
3.01185e-16
1.91565e-16
1.23248e-15
1.2292e-13
1.25648e-10
0.00203693
0.00446786
0.00178547
0.00511205
0.00524268
0.00536441
0.00543853
0.00533916
0.00517738
0.00503159
0.00492193
0.00483982
0.00478512
0.00474843
0.00472151
0.00470521
0.0046968
0.00469476
0.00469787
0.00470668
0.00471898
0.00473551
0.00475894
0.00478902
0.00482043
0.00484721
0.00487113
0.0048943
0.00491726
0.00493981
0.00496367
0.00498899
0.0049994
0.00482368
0.0038871
0.00148519
0.00625711
0.00554982
0.00228697
0.00359557
0.0032608
0.00344163
0.00345391
0.00355669
0.00366433
0.00369649
0.00374598
0.00378817
0.00380705
0.00383826
0.00386591
0.00389153
0.00392469
0.00395704
0.00399379
0.00403399
0.00407495
0.00411346
0.00415042
0.00417975
0.00409275
0.00379543
0.00374309
0.00449456
0.00547788
0.00268809
4.15265e-05
3.15316e-08
6.2267e-10
4.96759e-14
1.01057e-14
3.0228e-15
1.21709e-15
6.14097e-16
3.61755e-16
1.08621e-15
4.38593e-14
2.01496e-11
0.00326492
0.0120759
0.0150458
0.0154653
0.0154886
0.0155058
0.0155483
0.0155317
0.0154925
0.0154742
0.0154845
0.0155114
0.0155461
0.015583
0.0156182
0.0156519
0.0156846
0.015716
0.0157469
0.0157775
0.0158091
0.0158436
0.0158827
0.0159259
0.0159723
0.0160202
0.0160676
0.0161157
0.0161647
0.0162127
0.0162624
0.0163147
0.0163733
0.0164195
0.0161808
0.0155844
0.0144456
0.0126655
0.0108788
0.00932908
0.00881505
0.00900488
0.00924271
0.00948209
0.00972252
0.0099222
0.0100959
0.0102536
0.0103901
0.0105104
0.0106167
0.0107092
0.0107895
0.0108595
0.0109239
0.0109868
0.0110435
0.0110884
0.0111259
0.011146
0.0108697
0.0100496
0.00884231
0.0076397
0.00576824
0.00432595
0.000207578
1.76663e-06
3.46699e-08
1.50739e-13
2.78315e-14
7.59105e-15
2.79987e-15
1.3e-15
7.07346e-16
1.18803e-15
2.02341e-14
4.30303e-12
0.0161687
0.0173474
0.0162902
0.0159542
0.0159252
0.0158982
0.0159434
0.0159847
0.0160062
0.0160418
0.0160972
0.0161604
0.0162221
0.016279
0.0163309
0.016365
0.0163919
0.0164157
0.0164395
0.0164645
0.0164922
0.0165246
0.0165623
0.0166028
0.0166461
0.0166922
0.0167392
0.0167876
0.016838
0.0168884
0.0169414
0.0169983
0.0170617
0.0171849
0.0173164
0.0173088
0.0169734
0.0160736
0.0144533
0.017278
0.0164807
0.0164087
0.0164923
0.0165621
0.016637
0.0167138
0.0167898
0.0168737
0.0169589
0.0170424
0.0171238
0.0171995
0.0172695
0.0173362
0.0174061
0.0174846
0.0175641
0.0176329
0.0176951
0.0177653
0.0177537
0.0174295
0.016792
0.0158422
0.0145474
0.0123252
0.00135986
1.91065e-05
1.17891e-07
3.44139e-09
7.99795e-14
1.98687e-14
6.69942e-15
2.85593e-15
1.43155e-15
1.5818e-15
1.21094e-14
1.20229e-12
0.0172182
0.012992
0.00844435
0.00725216
0.00718484
0.00713022
0.00716271
0.00727209
0.00734374
0.00740146
0.0074572
0.00750499
0.00753961
0.00756591
0.00759121
0.00765607
0.00777601
0.00790788
0.00803763
0.00816276
0.00828282
0.00840018
0.00851558
0.00862451
0.0087228
0.00881281
0.0088954
0.00897085
0.0090413
0.00910591
0.00916732
0.00922381
0.00926877
0.00948107
0.0101239
0.0109308
0.0121083
0.0131922
0.0131097
0.015419
0.0150429
0.0147791
0.0146366
0.0144992
0.0143699
0.0142882
0.014236
0.0142124
0.0142147
0.0142311
0.014257
0.0142888
0.0143234
0.0143626
0.014412
0.0144759
0.0145487
0.0146214
0.0146949
0.0147991
0.0150452
0.0154082
0.0156606
0.0156408
0.0154589
0.0146753
0.00505368
0.000129652
1.47646e-06
3.95587e-08
2.39202e-13
5.40857e-14
1.66521e-14
6.50266e-15
2.99605e-15
2.44867e-15
9.27911e-15
4.33512e-13
0.0100003
0.00598704
0.00339219
0.00291456
0.00291194
0.00292445
0.00294203
0.00295341
0.00294328
0.00292875
0.0028878
0.00283734
0.00279408
0.00274571
0.00270709
0.00270168
0.00272666
0.00277334
0.00283678
0.00291545
0.00300638
0.00311138
0.00322938
0.00334351
0.00343437
0.00351306
0.00359094
0.00366738
0.00374309
0.00381715
0.00389057
0.00396232
0.00402907
0.00416995
0.00450431
0.00491899
0.00569101
0.0062323
0.00900449
0.00653708
0.00711259
0.00640083
0.00593156
0.00556182
0.00521521
0.00492253
0.0046966
0.004517
0.00437981
0.00427376
0.0041909
0.00412979
0.00408959
0.00407052
0.00407644
0.00411054
0.00417283
0.00426252
0.00436862
0.00446637
0.00492988
0.00652401
0.00826642
0.00980459
0.0111856
0.012077
0.00903334
0.00059622
1.14471e-05
2.96262e-07
7.43122e-13
1.52768e-13
4.29035e-14
1.53214e-14
6.47714e-15
4.22543e-15
8.97643e-15
2.00093e-13
0.00439746
0.00232637
0.00313134
0.00317945
0.00317788
0.00321882
0.00323092
0.00320079
0.00316743
0.0031369
0.00307896
0.00301352
0.00295986
0.00290193
0.00285356
0.00279518
0.00276048
0.00274976
0.00276087
0.00279084
0.00283604
0.00289673
0.00297129
0.00304384
0.00309697
0.00314128
0.00318765
0.00323551
0.00328518
0.00333576
0.00338793
0.00344148
0.0034972
0.00355197
0.00348988
0.00322219
0.00272255
0.00354078
0.00449028
0.00250913
0.0027463
0.00255466
0.00231621
0.00218104
0.00205575
0.00191815
0.00182256
0.00174474
0.00167669
0.00162971
0.00159233
0.00156447
0.00154952
0.0015437
0.00154979
0.00156826
0.00159907
0.00164144
0.00169068
0.00173593
0.00192146
0.002547
0.00322607
0.00385447
0.00105052
0.00586987
0.00750465
0.001849
6.31463e-05
8.11555e-07
2.93442e-08
4.46812e-13
1.14323e-13
3.72847e-14
1.44397e-14
7.88755e-15
1.0647e-14
1.16331e-13
0.00408307
0.00631168
0.00809193
0.0082199
0.00815223
0.00816431
0.00818976
0.00821481
0.00824765
0.00828407
0.00832319
0.00836136
0.00839744
0.00843043
0.00846128
0.00840105
0.00837304
0.0083614
0.0083592
0.00836243
0.00836916
0.00837844
0.00839
0.00840457
0.00842336
0.00844541
0.00846854
0.00849301
0.0085199
0.0085483
0.00857985
0.00861426
0.00865305
0.00868935
0.00844235
0.00770876
0.00644274
0.00491725
0.00400709
0.00519473
0.0039338
0.00402202
0.00397902
0.00404998
0.00412579
0.00412361
0.00414448
0.00415969
0.00415262
0.00416261
0.00417034
0.00417769
0.00419544
0.00421425
0.00423983
0.00427186
0.00430812
0.00434465
0.00437933
0.00441015
0.0044373
0.00435105
0.00414796
0.00385709
0.0035411
0.0040146
0.00192213
0.00297927
0.000248643
7.00135e-06
2.66652e-07
1.35036e-12
3.14432e-13
9.35405e-14
3.31482e-14
1.56126e-14
1.48539e-14
8.33727e-14
0.00959568
0.0131703
0.0131602
0.0131857
0.0132047
0.0132085
0.0132253
0.013255
0.0132935
0.0133376
0.0133869
0.0134367
0.0134847
0.0135309
0.013575
0.0136181
0.01366
0.0137009
0.0137417
0.0137826
0.013824
0.0138671
0.0139131
0.0139624
0.0140145
0.0140679
0.0141206
0.0141737
0.0142295
0.0142866
0.0143475
0.0144115
0.0144806
0.0145757
0.0143888
0.0141233
0.0137731
0.0127903
0.011352
0.0112585
0.0105794
0.0104766
0.0106091
0.0107614
0.0109136
0.0110449
0.0111564
0.0112603
0.0113557
0.0114433
0.0115253
0.0116001
0.0116674
0.0117291
0.0117895
0.0118537
0.0119204
0.0119835
0.0120403
0.0120931
0.012154
0.011922
0.011399
0.010588
0.00957121
0.00863446
0.0074833
0.00559673
0.00101401
5.01946e-05
1.1146e-06
5.52699e-08
8.91343e-13
2.41574e-13
7.82314e-14
3.23626e-14
2.34193e-14
7.25959e-14
0.0143227
0.0122719
0.010887
0.0106033
0.0105929
0.0105773
0.0105763
0.0105937
0.0106217
0.0106561
0.0106958
0.0107389
0.0107816
0.0108238
0.0108644
0.0109041
0.0109428
0.010981
0.0110186
0.0110558
0.0110928
0.0111308
0.0111706
0.0112119
0.0112542
0.0112978
0.0113418
0.011387
0.0114345
0.0114831
0.0115352
0.0115895
0.0116458
0.0117282
0.011914
0.0122016
0.0125065
0.0125926
0.0120908
0.0136579
0.0130528
0.0129707
0.0130287
0.0130909
0.0131412
0.0131826
0.0132187
0.0132651
0.0133181
0.0133716
0.013427
0.013484
0.0135397
0.0135945
0.013652
0.0137171
0.0137888
0.0138608
0.0139289
0.013996
0.0141137
0.014161
0.014037
0.0137356
0.0132322
0.0124811
0.0114007
0.00982375
0.00383875
0.000294686
1.23553e-05
1.8803e-07
1.04283e-08
6.41844e-13
1.89638e-13
6.97036e-14
4.0446e-14
7.58334e-14
0.0105711
0.0055456
0.00333728