/*--------------------------------*- C++ -*----------------------------------*\
| =========                 |                                                 |
| \\      /  F ield         | OpenFOAM: The Open Source CFD Toolbox           |
|  \\    /   O peration     | Version:  2312                                  |
|   \\  /    A nd           | Website:  www.openfoam.com                      |
|    \\/     M anipulation  |                                                 |
\*---------------------------------------------------------------------------*/
FoamFile
{
    version     2.0;
    format      ascii;
    arch        "LSB;label=32;scalar=64";
    class       volScalarField;
    location    "250";
    object      turbulenceProperties:epsilon;
}
// * * * * * * * * * * * * * * * * * * * * * * * * * * * * * * * * * * * * * //

dimensions      [0 2 -3 0 0 0 0];

internalField   nonuniform List<scalar> 
10720
(
0.059804
0.097779
0.146783
0.190113
0.223906
0.256318
0.295902
0.347158
0.424244
0.544192
0.734604
1.05197
1.59583
2.60434
4.71295
10.2385
26.144
85.3685
305.917
699.884
1162.02
1800.19
3067.41
5481.68
9225.05
12356.2
13342.2
28787.4
49896.8
24861.2
7912.42
1155.97
250.916
20.3639
5.99025e-14
4.64045e-14
0.069462
2.39937
88.6065
0.0570241
0.0349928
0.0213094
0.071908
0.0155627
0.0331679
0.0470601
0.0570026
0.0679644
0.0820155
0.10585
0.146714
0.213141
0.338033
0.578899
1.33035
3.09409
14.3382
28.9742
40.5242
54.429
79.4675
112.36
165.492
243.531
350.929
372.538
261.263
119.335
34.0218
4.17633
0.183268
0.0291997
0.00802141
4.04695e-14
20.2347
1151.78
2032.89
5179.85
0.0127022
0.0161504
0.0124047
0.00980018
0.00714843
0.00509075
0.00378384
0.00292101
0.00237363
0.0020074
0.00175971
0.00156767
0.0016279
0.00223328
0.00391853
0.00840528
0.0203771
0.0504306
0.189681
1.61754
8.94542
27.7966
66.9442
160.612
654.347
1487.92
5104.52
19403.4
15709.7
4130.32
1498.55
786.803
212.01
21.7583
0.506564
2.00582e-14
0.268161
9.83617
59.834
0.000269299
0.000472686
0.000254757
0.00543645
0.00396255
0.0033531
0.00217328
0.00193118
0.00194378
0.00193482
0.00188583
0.00179223
0.00163315
0.00143842
0.00112266
0.00573067
0.0058577
0.00690013
9.61458e-05
0.174999
2.15142
0.00303091
0.0706929
29.6945
2.99731
6.42611
0.221327
0.498773
0.498184
0.341216
0.205234
0.0941427
0.0339321
0.00998944
0.000185447
0.510663
28.5447
45.4961
578.007
0.000483484
0.000587922
3.40186e-05
1.91588e-05
6.56992e-05
0.000123926
0.000184732
0.000247343
0.00031162
0.000382322
0.000459658
0.000547432
0.000652675
0.000548921
0.00112386
0.00363982
0.00813062
0.0213564
0.0591271
0.131076
0.0776898
1.18019
2.78775
0.32263
23.9897
59.8232
804.882
4751.84
6446.18
4332.16
1640.12
580.328
280.058
69.3355
6.27888
2.35225e-14
0.624181
11.2735
19.7555
0.000176057
0.00290727
0.00448615
0.00444939
0.00267291
0.00105532
0.000318233
0.000390198
0.00051126
0.000648972
0.000818722
0.00102996
0.00123297
0.00142474
0.00169241
0.00193046
0.00163217
0.00174033
0.000726466
0.00266717
0.000104231
0.00310076
0.0156943
0.000155819
0.014789
0.0344833
0.00177301
0.00477388
0.00536689
0.00420899
0.00266049
0.00172143
0.000972115
0.000544162
0.000599227
1.09713e-15
0.615983
0.525973
31.9054
0.00242549
0.00265476
0.0027925
0.00291725
0.0030193
0.00311512
0.00319868
0.00326828
0.00333029
0.00338817
0.00344479
0.00350224
0.00375293
0.00379099
0.00361161
0.00364864
0.00329327
0.0021158
0.000918611
0.000317904
3.88277e-16
2.74909e-16
2.03694e-17
0.00321341
0.0026077
164.817
1168.32
2384.45
1575.56
1034.18
584.409
232.657
35.5818
28.0299
9.49799
1.06291
0.67917
53.6381
8.82517
0.00486692
0.00440566
0.00225451
0.00047499
0.000387004
0.000250216
0.000188178
0.000202665
0.000223872
0.000247058
0.000273334
0.000306982
0.00034177
0.000376867
0.000425024
0.000480641
0.000439376
0.000462861
0.000135207
0.000362062
0.000493438
0.000691291
0.000704523
0.000653791
0.000801057
0.000881607
0.000967958
0.0010368
0.00108758
0.00115533
0.00117092
0.00111796
0.00101596
0.000810118
0.00133372
0.000350277
5.30497e-16
0.120593
1.94382
0.00466496
0.00411082
0.00397018
0.00387937
0.00379397
0.00373853
0.00370554
0.00368934
0.00369148
0.00371358
0.00375366
0.00381227
0.00388908
0.00399664
0.00412462
0.00428113
0.00443667
0.0046433
0.0043944
0.00178527
0.000680838
0.000276097
4.01223e-16
2.94333e-16
0.00271496
16.972
2.3234e+06
3.20051e+06
1.95217e+06
1.40203e+06
1.97554e+06
4.16821e+06
0.606519
19.9755
2.35957
1.66501
1.28131
60.6563
7.78415
0.00293934
0.00068207
0.000390514
0.000272345
0.000198244
0.000961569
0.00112462
0.00113858
0.00115108
0.00115457
0.00115023
0.00114801
0.00114734
0.0011472
0.00114494
0.00120377
0.0011615
0.00107559
0.00110123
0.00112697
0.00113953
0.00112765
0.00110538
0.00108606
0.00106961
0.0010551
0.00103919
0.00102058
0.000999767
0.00097849
0.000945761
0.000911955
0.000889818
0.000895021
0.000765939
0.00110521
2.03136e-05
0.102326
0.457389
0.00122472
0.00139406
0.00121951
0.00115625
0.00110175
0.00104892
0.001012
0.00098805
0.000979993
0.000991531
0.00102224
0.00107235
0.00114296
0.00123683
0.00135818
0.0015184
0.00171913
0.00200098
0.00242118
0.00288639
0.0030796
0.00151689
0.000384172
0.000153928
3.89767e-16
9.7018e-11
1.95433e-05
1.89918e-05
1.12607e-05
4.66799e-06
1.50643e-06
3.74539e-07
6527.19
95.3873
6.30302
7.05782
1.80308
29.3504
2404.94
0.000482136
0.000239587
0.000201978
0.00155204
0.00254153
0.00297046
0.00298745
0.00302263
0.00307673
0.00312912
0.00317458
0.00322601
0.00328314
0.00334234
0.00340543
0.00346881
0.00355071
0.00362754
0.00369245
0.00373075
0.00374839
0.00374822
0.00373563
0.00371335
0.00368633
0.00365438
0.00360839
0.00354956
0.00347504
0.00338
0.00326857
0.00311651
0.00304783
0.00271521
0.00235528
0.00243671
4.85012e-05
0.0900136
3.20108
0.000185572
0.000211818
0.000213457
0.000218062
0.000227144
0.000240125
0.000250913
0.000264167
0.000278678
0.000294552
0.00031408
0.000336575
0.00036251
0.000393267
0.000429181
0.00047412
0.000528336
0.000613651
0.000711589
0.000362607
0.000900692
0.00137014
0.00155062
0.000825584
0.000459952
0.07523
8.62801e-06
1.42133e-05
1.23783e-05
7.03241e-06
2.99516e-06
1.06599e-06
3.80136e-07
1.50465e-07
16.9027
48.5291
6.39568e-09
985.359
3.93866e-09
0.000381731
0.00122893
0.00242741
0.00277785
0.00239306
0.00213877
0.00218163
0.00222374
0.00229955
0.00239046
0.00248548
0.00259639
0.00272338
0.0028587
0.00301354
0.00318487
0.00333043
0.00344721
0.00352958
0.00357758
0.0035993
0.00360166
0.00358932
0.00356725
0.00354112
0.00350744
0.0034584
0.00339826
0.00332468
0.0032353
0.00313599
0.00303005
0.00290848
0.00275377
0.00256585
0.00262919
5.42407e-05
0.0618175
3.10092
0.000442524
0.000447528
0.000509558
0.000622955
0.000699233
0.000800092
0.000897435
0.000980669
0.00105292
0.00111634
0.00117245
0.00122206
0.00126619
0.00130679
0.00134341
0.00138608
0.00143166
0.0015643
0.00146264
0.00122837
0.00126831
0.00143766
0.00171381
0.00183174
0.00215197
0.182736
1062.97
9.21104e-06
1.10939e-05
8.33689e-06
4.51029e-06
2.04059e-06
9.40477e-07
5.15221e-07
3.31454e-07
1.5977e-07
5.90682e-08
3.87811e-08
1.9159e-07
0.00193852
0.00267029
0.00224925
0.00112177
0.00050835
0.00034812
0.000381002
0.000401028
0.000435259
0.000489268
0.000556193
0.0006318
0.00072038
0.00082504
0.000941814
0.00105819
0.00113952
0.00119388
0.00122289
0.00123339
0.00122972
0.0012161
0.00119633
0.00117609
0.00115695
0.00113618
0.00111396
0.00109126
0.00106744
0.00104204
0.00101606
0.00100498
0.00102277
0.00106705
0.00108834
0.00148651
3.19669e-05
0.0364561
1.94027
0.00228337
0.00218576
0.00215602
0.00213303
0.00214418
0.00218216
0.00222017
0.00224161
0.00226514
0.00229331
0.00232577
0.00236233
0.00240124
0.00245091
0.00249636
0.00256797
0.00268213
0.00276278
0.00276576
0.00269485
0.00256893
0.00245058
0.00241259
0.00227573
0.00293398
0.258148
1465.17
5.42245e-06
8.69588e-06
8.41505e-06
5.66506e-06
3.11777e-06
1.70117e-06
1.04576e-06
7.24705e-07
4.26722e-07
1.97783e-07
9.84658e-08
2.63378e-07
0.00251492
0.00147779
0.000245257
0.000174807
6.92587e-05
5.16038e-05
5.6061e-05
5.82148e-05
6.1817e-05
6.92653e-05
7.88765e-05
9.00813e-05
0.000104036
0.000121058
0.000141004
0.000162287
0.000179318
0.000192448
0.000202256
0.000209414
0.000214302
0.000217389
0.00021939
0.000220859
0.000221735
0.000221827
0.000221333
0.000220384
0.000218905
0.000216861
0.000214424
0.000214946
0.000221549
0.000233936
0.000248836
0.000298543
6.7273e-06
0.0178019
0.92937
0.00186683
0.00166618
0.00156294
0.00148843
0.00140349
0.0013157
0.00125143
0.00120618
0.00117978
0.00117096
0.00117754
0.0011991
0.00122564
0.00128472
0.00138255
0.0014633
0.00155283
0.00169739
0.0019049
0.00211433
0.00225828
0.00232691
0.00239005
0.00228048
0.00281171
0.243559
1367.37
2.9763e-06
6.16502e-06
7.50847e-06
6.19645e-06
4.06387e-06
2.54036e-06
1.70013e-06
1.23751e-06
8.20788e-07
4.37509e-07
2.4126e-07
1.20048e-07
0.000774249
0.000278251
6.81486e-05
0.000120672
1.0163e-05
2.47185e-05
1.74653e-05
1.26497e-05
3.73519e-06
0.000156514
0.000155475
0.000155584
0.000157019
0.000158807
0.000163756
0.000169028
0.000174396
0.000179416
0.000184251
0.000188875
0.000193257
0.00019746
0.000201748
0.000205713
0.000208549
0.000210446
0.000211409
0.000211438
0.000210375
0.000208262
0.000205076
0.000200717
0.000190897
0.000175794
0.000153259
0.000204679
3.7205e-05
0.00634454
0.318232
0.000321501
0.000356321
0.00020665
0.000112787
4.45368e-05
0.000179161
0.000165413
0.000161306
0.000159712
0.000159996
0.000163529
0.000169528
0.000176723
0.000189545
0.000213079
4.63585e-05
0.000116763
0.000208321
0.000345367
0.000575517
0.000884924
0.0011912
0.0014631
0.00156338
0.00219909
0.192589
1077.55
1.54355e-06
4.024e-06
6.05255e-06
6.04107e-06
4.66366e-06
3.29306e-06
2.37485e-06
1.79329e-06
1.27632e-06
7.48778e-07
4.47897e-07
2.74723e-07
0.000132466
0.000112056
0.000265504
0.000864779
0.00106635
0.0010648
0.00105897
0.00105709
0.00105691
0.00105841
0.00106153
0.0010658
0.00106988
0.00107252
0.0010901
0.00110141
0.00110612
0.00110635
0.00110368
0.00109906
0.00109316
0.00108708
0.00108108
0.00107371
0.00106383
0.00105124
0.0010355
0.00101698
0.000995071
0.000970325
0.000942345
0.000911045
0.000857042
0.000781625
0.00067551
0.000605041
0.000161578
0.0013882
0.0665156
7.57886e-05
8.87701e-05
8.33582e-05
7.8139e-05
8.13229e-05
8.71248e-05
9.49509e-05
0.000102531
0.000109103
0.00011434
0.00011982
0.000125033
0.000130327
0.00013609
0.00014194
0.000155152
0.000172719
0.000193917
0.000223203
0.000273329
4.18391e-05
0.000250338
0.000519819
0.000688056
0.00135103
0.126198
708.102
7.62163e-07
2.44988e-06
4.47385e-06
5.32945e-06
4.79469e-06
3.79639e-06
2.94115e-06
2.33064e-06
1.73851e-06
1.09876e-06
7.04884e-07
4.94265e-07
0.00020193
0.000645883
0.00124105
0.00128626
0.00125315
0.00124808
0.00124608
0.001251
0.00126084
0.00127472
0.00128944
0.00130487
0.00131857
0.00133092
0.00134079
0.00134645
0.0013487
0.00134808
0.00134503
0.00134004
0.0013337
0.00132639
0.00131735
0.00130552
0.00129052
0.00127267
0.00125195
0.00122873
0.0012023
0.00117322
0.00114107
0.00110895
0.00107282
0.00102443
0.000960742
0.000871161
0.000774334
3.18432e-05
0.000622018
0.000296314
0.00035106
0.000409192
0.000477378
0.000555563
0.000627889
0.000687174
0.000735792
0.000776187
0.000809739
0.000838464
0.000863246
0.000885985
0.000907437
0.000926878
0.000943985
0.000957958
0.000968717
0.000980732
0.000998562
0.000891381
0.000739031
0.000737195
0.000700907
0.00107545
0.102666
581.22
3.59932e-07
1.40308e-06
3.06496e-06
4.30255e-06
4.46742e-06
3.94546e-06
3.28287e-06
2.71325e-06
2.12909e-06
1.45211e-06
9.99756e-07
7.64732e-07
0.00096335
0.00125394
0.000961835
0.000564392
0.000447281
0.000447395
0.000452156
0.000458823
0.000468665
0.000481697
0.000492781
0.000503306
0.000513623
0.000522891
0.000530699
0.00053704
0.000541819
0.000544963
0.000546511
0.000546633
0.000545318
0.000542416
0.000537937
0.000532196
0.000525501
0.000518027
0.000509844
0.000501112
0.000491572
0.000481249
0.000470198
0.000459971
0.000459519
0.000469059
0.000484676
0.000494371
0.000579484
5.15128e-05
0.000139405
0.00112037
0.00107053
0.00106111
0.00107477
0.00110485
0.0011247
0.00114126
0.00115463
0.00116801
0.00118275
0.00119929
0.0012163
0.00123974
0.00126565
0.00128873
0.00131004
0.00133091
0.00134659
0.00137943
0.00141229
0.00136493
0.00125446
0.00116124
0.00102778
0.00114806
0.09551
0.00714877
0.00459778
7.60162e-07
1.96133e-06
3.2069e-06
3.80701e-06
3.73191e-06
3.33497e-06
2.8739e-06
2.37346e-06
1.75284e-06
1.10535e-06
8.80972e-07
0.00112759
0.000598584
0.000128296
9.26609e-05
6.37561e-05
6.56141e-05
6.69502e-05
6.71854e-05
6.7814e-05
6.91294e-05
6.95321e-05
6.99751e-05
7.09897e-05
7.21555e-05
7.36898e-05
7.56523e-05
7.77847e-05
8.00934e-05
8.25086e-05
8.49221e-05
8.71722e-05
8.92551e-05
9.11172e-05
9.26251e-05
9.36323e-05
9.42921e-05
9.47265e-05
9.49475e-05
9.49024e-05
9.45566e-05
9.39733e-05
9.33958e-05
9.47173e-05
9.83971e-05
9.22866e-06
5.89028e-05
0.000158581
0.000161248
4.0631e-06
0.000822053
0.000739074
0.000682179
0.000632646
0.000591858
0.000559554
0.000537507
0.000521546
0.000512234
0.000509932
0.000513876
0.000520279
0.000539859
0.000568649
0.000592609
0.000616014
0.000640664
0.000680485
0.000734189
0.000797408
0.000887108
0.000969593
0.00100103
0.0009637
0.00105026
0.0677773
0.0269051
0.021551
3.91046e-07
1.17899e-06
2.22237e-06
2.99011e-06
3.23769e-06
3.10575e-06
2.79908e-06
2.42237e-06
1.51787e-06
1.29954e-07
7.48605e-09
0.000310598
0.000113815
2.72745e-05
3.06542e-05
3.25501e-05
3.33765e-05
3.36417e-05
3.31654e-05
3.26404e-05
3.22482e-05
3.15257e-05
3.08452e-05
3.04705e-05
3.01896e-05
3.01369e-05
3.03441e-05
3.07182e-05
3.12533e-05
3.19241e-05
3.26932e-05
3.35147e-05
3.43764e-05
3.52461e-05
3.60155e-05
3.65508e-05
3.69299e-05
3.72033e-05
3.73715e-05
3.74096e-05
3.72976e-05
3.70611e-05
3.6632e-05
3.55234e-05
3.22519e-05
2.93076e-05
3.37757e-05
4.9439e-05
5.04094e-05
2.98053e-06
0.00011684
0.000115389
3.96747e-05
8.80041e-05
7.95389e-05
7.65558e-05
7.29204e-05
7.11322e-05
7.02206e-05
6.98738e-05
7.09124e-05
7.23706e-05
7.58366e-05
8.10021e-05
8.57373e-05
9.06975e-05
9.7475e-05
1.45199e-05
4.00848e-05
7.98938e-05
0.000166184
0.000284845
0.000421833
0.000529087
0.000660575
0.0297347
0.0379844
0.0374741
1.91435e-07
6.68394e-07
1.43987e-06
2.17876e-06
2.59342e-06
2.66777e-06
2.52068e-06
2.24304e-06
1.95878e-08
1.15766e-13
2.26463e-15
5.27705e-05
3.69486e-05
6.46411e-05
0.000209124
0.000217415
0.000216968
0.000216958
0.000216804
0.000216381
0.00021593
0.000215248
0.000214285
0.000213234
0.000212133
0.000210987
0.000209861
0.00020877
0.000207691
0.000206627
0.000205561
0.000204436
0.000203193
0.000201795
0.000200159
0.000198175
0.000195849
0.000193182
0.000190202
0.000186816
0.000182953
0.000178777
0.000173943
0.000166208
0.000148852
0.000124676
9.53786e-05
6.09971e-05
6.64299e-05
7.19376e-06
2.43473e-05
2.8441e-05
2.54958e-05
2.3494e-05
2.74357e-05
3.13052e-05
3.17322e-05
3.22542e-05
3.32198e-05
3.39668e-05
3.48569e-05
3.56276e-05
3.62911e-05
3.70051e-05
3.76896e-05
3.83624e-05
3.90083e-05
4.18833e-05
4.6601e-05
5.35655e-05
6.4872e-05
8.15049e-05
0.000102343
7.08516e-05
0.000195968
0.00720372
0.029743
0.0358047
8.92972e-08
3.58325e-07
8.75804e-07
1.48075e-06
1.92956e-06
2.12558e-06
2.10801e-06
8.08528e-07
4.38083e-13
2.07804e-15
5.3672e-16
7.78515e-05
0.000226226
0.000509382
0.000575912
0.00057461
0.000569998
0.000566891
0.000565131
0.000563938
0.000563148
0.000562456
0.000561571
0.000560569
0.000559424
0.00055808
0.000556604
0.000554938
0.000552997
0.000550758
0.000548163
0.000545093
0.000541416
0.000537076
0.000531928
0.00052579
0.000518782
0.000510981
0.000502471
0.000493055
0.000482514
0.000471173
0.000458853
0.000445787
0.00042363
0.000392463
0.000351038
0.000293119
0.000228274
0.000166389
7.17062e-05
0.000100348
0.00013888
0.000169335
0.000195054
0.000219001
0.000224705
0.00022774
0.000233686
0.00023932
0.000243906
0.000247295
0.000249524
0.000250864
0.000251569
0.000251571
0.000250888
0.000249955
0.000249019
0.000246974
0.000224765
0.000200949
0.000150973
0.000119009
0.000129238
0.00204266
0.0270179
0.0393686
3.97121e-08
1.81966e-07
5.01648e-07
9.42692e-07
1.34039e-06
1.57953e-06
1.64536e-06
9.63951e-07
3.11673e-12
2.56139e-15
3.32659e-15
0.000388086
0.000595758
0.000525585
0.000426105
0.000418528
0.000413853
0.00040986
0.000407459
0.000406127
0.000405426
0.000405285
0.000405377
0.000405446
0.000405459
0.000405344
0.000405029
0.00040444
0.000403513
0.000402192
0.000400444
0.000398189
0.000395354
0.000391911
0.000387821
0.000383077
0.000377821
0.000372083
0.000365889
0.000359144
0.000351685
0.00034361
0.000334968
0.0003277
0.000323599
0.000319296
0.00031163
0.00029491
0.000259084
0.000214857
0.000503799
0.000493485
0.000514323
0.000536058
0.000552576
0.000569929
0.000568454
0.000563906
0.000569326
0.000572108
0.000573346
0.0005737
0.000573488
0.000573095
0.000572779
0.000572073
0.000570534
0.000568538
0.00056647
0.000562855
0.000550426
0.000504239
0.000455805
0.000399258
0.000311212
0.00114871
0.0363815
0.0637243
1.68405e-08
8.76412e-08
2.71225e-07
5.64151e-07
8.73225e-07
1.10032e-06
1.20588e-06
8.92602e-07
1.38949e-11
4.60168e-13
8.67566e-16
0.000608363
0.000385978
0.00016026
7.01135e-05
6.60631e-05
6.60589e-05
6.49869e-05
6.37118e-05
6.28541e-05
6.23903e-05
6.21682e-05
6.21254e-05
6.22188e-05
6.24243e-05
6.27052e-05
6.30416e-05
6.34031e-05
6.37692e-05
6.41122e-05
6.44173e-05
6.46618e-05
6.48274e-05
6.49208e-05
6.49559e-05
6.49274e-05
6.48257e-05
6.46325e-05
6.4339e-05
6.3931e-05
6.33627e-05
6.26562e-05
6.16274e-05
6.10542e-05
6.93252e-05
8.5819e-05
0.000108851
0.000137899
0.000162367
0.000166461
0.000494182
0.000443856
0.000417319
0.000401772
0.000388433
0.000375248
0.000370442
0.000364
0.000358042
0.000353193
0.000349632
0.000347405
0.000346426
0.000346668
0.000348147
0.000350483
0.000353411
0.000357119
0.000361705
0.000369456
0.000385973
0.000401683
0.000406017
0.0004024
0.00037213
0.000678933
0.0393675
0.0823841
6.81091e-09
4.00703e-08
1.3869e-07
3.18309e-07
5.3557e-07
7.21859e-07
8.34085e-07
7.34649e-07
4.73437e-11
4.0328e-17
5.33024e-16
0.000226098
1.03031e-05
2.45779e-05
1.02777e-05
9.86675e-06
1.01187e-05
1.00082e-05
9.63936e-06
9.32542e-06
9.10291e-06
8.81372e-06
8.56297e-06
8.41936e-06
8.31702e-06
8.2931e-06
8.3686e-06
8.50392e-06
8.70774e-06
8.96753e-06
9.27352e-06
9.60919e-06
9.96878e-06
1.03455e-05
1.06997e-05
1.09878e-05
1.12341e-05
1.14615e-05
1.16655e-05
1.18422e-05
1.19798e-05
1.20789e-05
1.21032e-05
1.22015e-05
1.40859e-05
1.77125e-05
2.28128e-05
2.30292e-07
4.43458e-05
8.60523e-05
0.000109504
0.000112339
7.84833e-05
5.77094e-05
4.33332e-05
3.205e-05
2.38103e-05
1.8387e-05
1.45991e-05
1.20735e-05
1.07357e-05
1.0488e-05
1.12349e-05
1.29156e-05
1.55067e-05
1.89763e-05
2.33822e-05
2.88016e-05
3.50214e-05
4.22409e-05
6.08546e-05
9.95199e-05
0.000146118
0.000198844
0.000230814
0.000371172
0.0310984
0.0773373
2.62779e-09
1.74093e-08
6.7194e-08
1.69783e-07
3.10326e-07
4.4779e-07
5.46969e-07
5.43266e-07
1.29926e-10
2.97302e-15
1.47916e-15
4.22335e-05
4.18377e-06
2.19038e-05
2.69902e-05
2.80916e-05
2.90173e-05
2.92845e-05
2.86861e-05
2.79287e-05
2.72158e-05
2.61628e-05
2.51253e-05
2.4371e-05
2.36912e-05
2.32214e-05
2.30351e-05
2.30076e-05
2.31718e-05
2.35047e-05
2.39602e-05
2.45051e-05
2.51148e-05
2.57771e-05
2.63535e-05
2.67063e-05
2.69264e-05
2.7098e-05
2.72127e-05
2.72651e-05
2.72388e-05
2.71229e-05
2.69324e-05
2.66889e-05
2.57432e-05
2.35733e-05
1.99056e-05
1.50909e-05
2.02067e-05
1.967e-05
1.46573e-05
1.52555e-05
1.13934e-05
8.04862e-06
6.10957e-06
4.57906e-06
3.36157e-06
3.18046e-06
3.12056e-06
3.09834e-06
3.18894e-06
3.37373e-06
3.65253e-06
4.035e-06
4.5088e-06
5.09259e-06
5.81262e-06
6.70195e-06
7.74603e-06
8.9474e-06
1.17477e-05
1.69198e-05
2.39086e-05
3.28081e-06
4.32248e-05
0.000153352
0.0163389
0.0480543
9.67486e-10
7.19421e-09
3.08991e-08
8.58298e-08
1.70416e-07
2.63655e-07
3.415e-07
3.72149e-07
3.04385e-10
1.01834e-14
6.97361e-16
1.91293e-05
2.06196e-05
0.000145467
0.00017881
0.000182726
0.000184071
0.000184931
0.000184753
0.000183852
0.000182631
0.000181337
0.000179992
0.000178634
0.000177307
0.000175986
0.000174659
0.000173319
0.00017194
0.00017051
0.000169011
0.000167411
0.000165661
0.00016373
0.000161612
0.000159293
0.00015679
0.000154124
0.000151287
0.000148278
0.00014506
0.000141587
0.00013792
0.000134187
0.000127199
0.000114565
9.52347e-05
7.09028e-05
4.66526e-05
3.89651e-05
4.07527e-05
2.65579e-05
2.97235e-05
2.93654e-05
3.02238e-05
3.10348e-05
1.07208e-07
4.20764e-06
7.56476e-06
1.00957e-05
1.20571e-05
1.35843e-05
1.47419e-05
1.55371e-05
1.59672e-05
1.61209e-05
1.60989e-05
1.60041e-05
1.59098e-05
1.56062e-05
1.38789e-05
6.58442e-06
2.74402e-05
2.33486e-05
2.98162e-05
4.92205e-05
0.00719753
0.0256987
3.40063e-10
2.83103e-09
1.35069e-08
4.12148e-08
8.89475e-08
1.47881e-07
2.03775e-07
2.40065e-07
6.29495e-10
1.10409e-13
4.05592e-15
0.000123406
0.000253391
0.000298563
0.000290002
0.00028776
0.000284758
0.00028261
0.000280744
0.000278842
0.000276923
0.000275089
0.000273312
0.000271569
0.000269873
0.000268208
0.000266544
0.000264867
0.000263146
0.000261358
0.000259471
0.000257426
0.000255131
0.000252507
0.000249508
0.000246116
0.000242381
0.00023835
0.000234015
0.000229391
0.000224447
0.000219114
0.000213448
0.000207945
0.000201488
0.000191371
0.000176284
0.000154134
0.000119786
8.73995e-05
0.000191843
0.000190449
0.00019933
0.000205305
0.000209156
0.000212097
0.000214087
0.000215386
0.000216243
0.000216638
0.000216573
0.000216684
0.000216441
0.000215287
0.000213563
0.000211604
0.000209435
0.000207218
0.00020509
0.000202915
0.000200744
0.000188824
0.000167174
0.000140568
0.000113621
0.000105896
0.00942559
0.00132626
0.00185867
1.06176e-09
5.61935e-09
1.88406e-08
4.42343e-08
7.92336e-08
1.16551e-07
1.47563e-07
1.17556e-09
6.31875e-13
2.41604e-14
0.000314746
0.000268059
0.000172936
0.000141569
0.000135808
0.000132072
0.000129426
0.000127947
0.000126988
0.000126262
0.00012564
0.000125071
0.000124504
0.000123933
0.000123358
0.000122766
0.000122152
0.000121502
0.000120807
0.000120047
0.000119206
0.000118241
0.000117113
0.000115805
0.000114335
0.00011271
0.000110955
0.000109085
0.000107084
0.00010493
0.000102616
0.000100132
9.7768e-05
9.77266e-05
0.000100913
0.00010564
0.000108851
0.000105782
9.18579e-05
0.000307412
0.000283644
0.000278015
0.000273505
0.000268673
0.000264224
0.000260554
0.000257268
0.000254362
0.000251792
0.000249055
0.000247602
0.00024644
0.000243886
0.000241223
0.000239009
0.000236922
0.000234951
0.000233144
0.000231432
0.000231231
0.000229626
0.000221018
0.000208824
0.000187213
0.00016321
0.00901696
0.00671322
0.0109344
3.79621e-10
2.22769e-09
8.20853e-09
2.10017e-08
4.06472e-08
6.40539e-08
8.70455e-08
2.00416e-09
2.98198e-12
1.19617e-13
0.000205218
8.19874e-05
3.50139e-05
2.13811e-05
2.08817e-05
2.08106e-05
2.04693e-05
1.98168e-05
1.9204e-05
1.86788e-05
1.79129e-05
1.71531e-05
1.65808e-05
1.60404e-05
1.56453e-05
1.54539e-05
1.53838e-05
1.54684e-05
1.56879e-05
1.60173e-05
1.64296e-05
1.69125e-05
1.74469e-05
1.7916e-05
1.82068e-05
1.83929e-05
1.85508e-05
1.8677e-05
1.87666e-05
1.88085e-05
1.87998e-05
1.87385e-05
1.86709e-05
1.90287e-05
2.0532e-05
1.01842e-05
2.78166e-05
4.80911e-05
5.88647e-05
0.000129697
0.000127547
0.00011306
0.0001035
9.59114e-05
8.95278e-05
8.46205e-05
8.07188e-05
7.75951e-05
7.51622e-05
7.27381e-05
7.18048e-05
7.19902e-05
7.04547e-05
6.92531e-05
6.94654e-05
6.98466e-05
7.03996e-05
7.11983e-05
7.30878e-05
7.52432e-05
8.27377e-05
9.68881e-05
0.000112355
0.000121527
0.000127158
0.00326305
0.00888967
0.016788
1.2952e-10
8.41918e-10
3.41317e-09
9.53078e-09
1.99863e-08
3.38791e-08
4.94616e-08
3.09961e-09
1.21746e-11
3.2414e-15
1.11395e-05
1.25103e-05
2.67614e-07
2.19116e-06
2.33728e-06
2.49353e-06
2.54886e-06
2.37528e-06
2.1489e-06
1.95398e-06
1.7705e-06
1.61667e-06
1.5066e-06
1.41525e-06
1.3463e-06
1.30457e-06
1.2789e-06
1.27161e-06
1.27961e-06
1.30172e-06
1.33358e-06
1.3749e-06
1.42531e-06
1.47464e-06
1.50757e-06
1.52792e-06
1.54432e-06
1.55758e-06
1.56797e-06
1.57506e-06
1.57855e-06
1.57783e-06
1.56208e-06
1.431e-06
9.13129e-07
2.16763e-06
5.66449e-06
1.07372e-05
1.83057e-05
1.79182e-05
1.78437e-05
1.68868e-05
1.48106e-05
1.38518e-05
1.30755e-05
1.21032e-05
1.14736e-05
1.09545e-05
1.04607e-05
1.00771e-05
9.91196e-06
9.92111e-06
9.75221e-06
9.64266e-06
9.76184e-06
9.92503e-06
1.01315e-05
1.03847e-05
1.08088e-05
1.12756e-05
1.25391e-05
1.55086e-05
7.07021e-06
2.8792e-05
4.91139e-05
0.000605769
0.00616976
0.0134896
4.22046e-11
3.03637e-10
1.35492e-09
4.13729e-09
9.42893e-09
1.72524e-08
2.71248e-08
4.21603e-09
4.22717e-11
4.03548e-14
2.32059e-06
1.09049e-05
1.74084e-06
1.42479e-05
1.49416e-05
1.5556e-05
1.58439e-05
1.50887e-05
1.39957e-05
1.30265e-05
1.22779e-05
1.16957e-05
1.12699e-05
1.09476e-05
1.06855e-05
1.04823e-05
1.03199e-05
1.01877e-05
1.00775e-05
9.98915e-06
9.90886e-06
9.83301e-06
9.7677e-06
9.71078e-06
9.63965e-06
9.53283e-06
9.40366e-06
9.25952e-06
9.10338e-06
8.93653e-06
8.75961e-06
8.57015e-06
8.3102e-06
7.46124e-06
4.6696e-06
6.56234e-07
1.11852e-05
8.42311e-06
1.39883e-06
7.24774e-06
5.92371e-06
6.45643e-06
6.36839e-06
6.64562e-06
6.95187e-06
6.97337e-06
7.05732e-06
7.10606e-06
7.06223e-06
7.06304e-06
7.05025e-06
7.02991e-06
7.03799e-06
7.04372e-06
7.05757e-06
7.06838e-06
7.0762e-06
7.0824e-06
7.07955e-06
7.03028e-06
6.5963e-06
5.56904e-06
5.33798e-06
7.60986e-06
1.12134e-05
4.82072e-05
0.00183557
2.84793e-05
3.2587e-05
1.046e-10
5.14177e-10
1.71899e-09
4.26934e-09
8.46146e-09
1.43637e-08
4.78374e-09
1.18472e-10
2.56878e-13
5.73874e-06
7.67242e-05
0.000119103
0.000125632
0.000125514
0.000124874
0.000124178
0.000122198
0.000119704
0.000117466
0.000115663
0.00011418
0.000112922
0.000111814
0.000110798
0.000109845
0.000108916
0.000107974
0.000107001
0.000105978
0.000104885
0.000103686
0.00010236
0.00010091
9.93386e-05
9.76492e-05
9.58699e-05
9.40017e-05
9.20407e-05
8.99943e-05
8.78382e-05
8.55719e-05
8.31794e-05
8.06004e-05
7.53804e-05
6.72773e-05
5.54956e-05
4.08558e-05
2.94317e-05
4.69534e-05
4.16128e-05
4.24531e-05
4.37503e-05
4.52389e-05
4.67853e-05
4.79443e-05
4.88418e-05
4.95405e-05
5.00028e-05
5.03003e-05
5.04662e-05
5.05064e-05
5.04428e-05
5.0281e-05
5.0005e-05
4.96056e-05
4.91117e-05
4.85648e-05
4.795e-05
4.7079e-05
4.37631e-05
3.66736e-05
2.79414e-05
2.05994e-05
1.16402e-05
1.58195e-05
0.000660176
0.00171883
0.00267178
3.44701e-11
1.867e-10
6.84509e-10
1.85585e-09
3.99703e-09
7.34598e-09
4.37376e-09
2.568e-10
1.20656e-12
0.000135224
0.00015221
0.000134163
0.000128373
0.000127215
0.000125636
0.00012473
0.000123417
0.000121627
0.000119977
0.000118622
0.000117473
0.000116427
0.000115445
0.000114523
0.000113447
0.000112317
0.000111152
0.000109959
0.000108727
0.000107439
0.000106063
0.000104563
0.000102929
0.000101186
9.9361e-05
9.74756e-05
9.55155e-05
9.3471e-05
9.13492e-05
8.91257e-05
8.68101e-05
8.43683e-05
8.24042e-05
8.0515e-05
7.73439e-05
7.13746e-05
6.12988e-05
4.83014e-05
0.000154657
0.000139584
0.00013513
0.0001333
0.00013182
0.000130612
0.000129519
0.00012847
0.000127496
0.000126507
0.000125502
0.000124498
0.000123458
0.000122386
0.000121265
0.000120033
0.000118655
0.000117183
0.000115686
0.000114127
0.000112459
0.000109677
0.000103509
9.44285e-05
8.29069e-05
6.92302e-05
6.03976e-05
0.000437182
0.0034172
0.000719277
0.000565361
6.49675e-11
2.61523e-10
7.75611e-10
1.81942e-09
3.62974e-09
3.28496e-09
4.29101e-10
4.32087e-12
0.000147091
8.18589e-05
3.45228e-05
2.53664e-05
2.47256e-05
2.40939e-05
2.3965e-05
2.42798e-05
2.43021e-05
2.42122e-05
2.41076e-05
2.39701e-05
2.37762e-05
2.35582e-05
2.33619e-05
2.34266e-05
2.38329e-05
2.43064e-05
2.47532e-05
2.51504e-05
2.54854e-05
2.57579e-05
2.59603e-05
2.60683e-05
2.60653e-05
2.59733e-05
2.58084e-05
2.55677e-05
2.52567e-05
2.48804e-05
2.44394e-05
2.39287e-05
2.33025e-05
2.34581e-05
2.57202e-05
2.8805e-05
3.38989e-05
3.85209e-05
3.69876e-05
0.000118092
0.000111459
0.00010491
0.000100263
9.62996e-05
9.2748e-05
9.00032e-05
8.77657e-05
8.59101e-05
8.43727e-05
8.30152e-05
8.17892e-05
8.06731e-05
7.96338e-05
7.86487e-05
7.76776e-05
7.66908e-05
7.57206e-05
7.48149e-05
7.39503e-05
7.32836e-05
7.39148e-05
7.58413e-05
7.69152e-05
7.5592e-05
7.30489e-05
6.78988e-05
0.00016676
0.0024079
0.00232635
0.00208227
2.17219e-11
9.60715e-11
3.1204e-10
7.9908e-10
1.73433e-09
2.12203e-09
5.59983e-10
1.19852e-11
4.75173e-05
1.66198e-05
5.31733e-06
3.90472e-06
3.86599e-06
3.85387e-06
3.84004e-06
3.79925e-06
3.69948e-06
3.58953e-06
3.42027e-06
3.23918e-06
3.08541e-06
2.93004e-06
2.80403e-06
2.75169e-06
2.76247e-06
2.81661e-06
2.9034e-06
3.01949e-06
3.1584e-06
3.32279e-06
3.50933e-06
3.68131e-06
3.79567e-06
3.87655e-06
3.94987e-06
4.0128e-06
4.06472e-06
4.10445e-06
4.1312e-06
4.14295e-06
4.13057e-06
4.25438e-06
4.77016e-06
5.46094e-06
7.00584e-06
8.03736e-06
1.62734e-05
2.03264e-05
2.38519e-05
1.88019e-05
1.56985e-05
1.3488e-05
1.16162e-05
1.01507e-05
9.07269e-06
8.23886e-06
7.60095e-06
7.09844e-06
6.69306e-06
6.37402e-06
6.13261e-06
5.96071e-06
5.85743e-06
5.82239e-06
5.85858e-06
5.97266e-06
6.13309e-06
6.26084e-06
7.44014e-06
1.27382e-05
2.00589e-05
2.77746e-05
3.57223e-05
4.15119e-05
6.0425e-05
0.000753711
0.00257264
0.00290099
6.99132e-12
3.40123e-11
1.21111e-10
3.39143e-10
8.02228e-10
1.22973e-09
5.78866e-10
2.59677e-11
8.78198e-06
2.39238e-06
4.31352e-06
4.41896e-06
4.37557e-06
4.43393e-06
4.39496e-06
4.23115e-06
4.05924e-06
3.89866e-06
3.67878e-06
3.45534e-06
3.27252e-06
3.09183e-06
2.94163e-06
2.77929e-06
2.67011e-06
2.60974e-06
2.59078e-06
2.60562e-06
2.64608e-06
2.71104e-06
2.79603e-06
2.87112e-06
2.9043e-06
2.91637e-06
2.92847e-06
2.93858e-06
2.94555e-06
2.94833e-06
2.946e-06
2.9383e-06
2.92536e-06
2.90036e-06
2.68893e-06
2.19884e-06
1.50365e-06
2.43105e-06
3.78325e-06
2.8631e-06
3.3978e-06
2.85599e-06
2.27822e-06
1.97178e-06
1.71458e-06
1.46329e-06
1.29656e-06
1.16603e-06
1.05603e-06
9.77611e-07
9.13955e-07
8.64043e-07
8.30481e-07
8.07693e-07
7.96812e-07
7.96906e-07
8.08172e-07
8.31045e-07
8.61026e-07
8.86098e-07
1.05846e-06
1.81729e-06
2.85763e-06
4.01175e-06
2.94174e-07
9.09103e-06
1.8431e-05
0.000134513
0.00130476
0.000484523
0.000326778
1.16284e-11
4.54504e-11
1.39363e-10
3.5985e-10
6.58778e-10
4.88038e-10
4.4666e-11
7.21782e-06
1.6746e-05
2.7375e-05
2.80579e-05
2.7349e-05
2.70863e-05
2.68005e-05
2.64335e-05