/*--------------------------------*- C++ -*----------------------------------*\
| =========                 |                                                 |
| \\      /  F ield         | OpenFOAM: The Open Source CFD Toolbox           |
|  \\    /   O peration     | Version:  2312                                  |
|   \\  /    A nd           | Website:  www.openfoam.com                      |
|    \\/     M anipulation  |                                                 |
\*---------------------------------------------------------------------------*/
FoamFile
{
    version     2.0;
    format      ascii;
    arch        "LSB;label=32;scalar=64";
    class       volVectorField;
    location    "24.485260634245208";
    object      U;
}
// * * * * * * * * * * * * * * * * * * * * * * * * * * * * * * * * * * * * * //

dimensions      [0 1 -1 0 0 0 0];

internalField   nonuniform List<vector> 
21039
(
(0.913792 0.04747 0)
(1.02605 0.0664968 0)
(1.00449 0.0294593 0)
(1.00177 0.0188864 0)
(1.00121 0.0138748 0)
(1.0008 0.0104915 0)
(1.00055 0.0081632 0)
(1.0004 0.00651873 0)
(1.0003 0.00530697 0)
(1.00024 0.00438404 0)
(1.00019 0.00366448 0)
(1.00015 0.00309328 0)
(1.00012 0.00263346 0)
(1.0001 0.00225945 0)
(1.00008 0.00195313 0)
(1.00006 0.00170138 0)
(1.00005 0.00149453 0)
(1.00004 0.00132527 0)
(1.00003 0.00118794 0)
(1.00002 0.00107799 0)
(1.00002 0.000991552 0)
(1.00001 0.00092659 0)
(1.00001 0.000884781 0)
(1.00001 0.000847455 0)
(1.00001 0.000819264 0)
(1.00001 0.00079696 0)
(1.00001 0.000776248 0)
(1.00001 0.000747068 0)
(1.00002 0.000687527 0)
(0.794646 0.0730745 0)
(1.0745 0.121653 0)
(1.03988 0.0707625 0)
(1.01812 0.0496502 0)
(1.0113 0.0382193 0)
(1.00765 0.0294253 0)
(1.00539 0.0231173 0)
(1.00396 0.0185302 0)
(1.00301 0.0150635 0)
(1.00234 0.012376 0)
(1.00185 0.0102511 0)
(1.00149 0.00854214 0)
(1.00121 0.00714839 0)
(1.001 0.00599946 0)
(1.00082 0.00504509 0)
(1.00068 0.00424878 0)
(1.00056 0.00358357 0)
(1.00046 0.00302928 0)
(1.00037 0.00257059 0)
(1.0003 0.00219553 0)
(1.00023 0.00189422 0)
(1.00017 0.00166027 0)
(1.00012 0.00149774 0)
(1.00009 0.00137632 0)
(1.00008 0.00130125 0)
(1.00008 0.00125439 0)
(1.00009 0.00122153 0)
(1.0001 0.00118325 0)
(1.00011 0.00110942 0)
(0.667462 0.0572672 0)
(1.08306 0.124737 0)
(1.08436 0.0901766 0)
(1.04631 0.0675629 0)
(1.02909 0.0540236 0)
(1.02028 0.0430418 0)
(1.01472 0.0347162 0)
(1.01102 0.0283144 0)
(1.00846 0.0232641 0)
(1.00665 0.0192338 0)
(1.00531 0.0159778 0)
(1.00431 0.0133138 0)
(1.00354 0.0111104 0)
(1.00293 0.00927247 0)
(1.00244 0.0077299 0)
(1.00204 0.0064308 0)
(1.0017 0.00533636 0)
(1.00141 0.00441728 0)
(1.00116 0.00365127 0)
(1.00093 0.00302121 0)
(1.00074 0.00251314 0)
(1.00056 0.00211681 0)
(1.00041 0.00183806 0)
(1.0003 0.00164223 0)
(1.00024 0.00152906 0)
(1.00021 0.00146354 0)
(1.00021 0.00142169 0)
(1.00022 0.00137829 0)
(1.00023 0.00129979 0)
(0.541233 0.0352469 0)
(1.05088 0.11074 0)
(1.11594 0.0968645 0)
(1.07615 0.0761148 0)
(1.04928 0.0619265 0)
(1.03532 0.0507886 0)
(1.02648 0.0420848 0)
(1.02031 0.0350264 0)
(1.01589 0.0292111 0)
(1.01265 0.0244136 0)
(1.01024 0.0204293 0)
(1.00839 0.0170944 0)
(1.00694 0.0142846 0)
(1.00579 0.0119045 0)
(1.00486 0.00988128 0)
(1.00408 0.00815883 0)
(1.00343 0.00669437 0)
(1.00286 0.00545504 0)
(1.00236 0.00441563 0)
(1.00192 0.00355678 0)
(1.00152 0.00286298 0)
(1.00116 0.00232173 0)
(1.00084 0.00194028 0)
(1.0006 0.00168215 0)
(1.00046 0.00153878 0)
(1.00037 0.00145981 0)
(1.00034 0.00141284 0)
(1.00034 0.00136784 0)
(1.00035 0.00128623 0)
(0.444492 0.0186491 0)
(0.997975 0.0917756 0)
(1.12909 0.0954706 0)
(1.10149 0.0792554 0)
(1.06831 0.0651774 0)
(1.04985 0.0544623 0)
(1.03836 0.0460357 0)
(1.03015 0.0389575 0)
(1.02406 0.0329396 0)
(1.01949 0.0278326 0)
(1.01598 0.0234779 0)
(1.01324 0.0197475 0)
(1.01107 0.0165416 0)
(1.00932 0.0137796 0)
(1.00787 0.0113976 0)
(1.00666 0.00934483 0)
(1.00562 0.00758156 0)
(1.00471 0.00607677 0)
(1.00391 0.00480637 0)
(1.00319 0.00375186 0)
(1.00253 0.00289866 0)
(1.00193 0.00223407 0)
(1.00138 0.00176721 0)
(1.00097 0.00146125 0)
(1.0007 0.00129851 0)
(1.00054 0.00121503 0)
(1.00047 0.00117128 0)
(1.00045 0.00113275 0)
(1.00044 0.00105363 0)
(0.379035 0.00808369 0)
(0.940079 0.0717413 0)
(1.12714 0.088085 0)
(1.12091 0.0783565 0)
(1.08561 0.0655633 0)
(1.06319 0.0555304 0)
(1.04944 0.0476101 0)
(1.03964 0.040804 0)
(1.03222 0.0348803 0)
(1.02651 0.0297344 0)
(1.02205 0.0252463 0)
(1.01849 0.0213218 0)
(1.01562 0.0178862 0)
(1.01326 0.0148773 0)
(1.01129 0.0122445 0)
(1.00961 0.00994714 0)
(1.00816 0.00795267 0)
(1.00688 0.00623556 0)
(1.00573 0.00477597 0)
(1.00468 0.00355882 0)
(1.00372 0.00257264 0)
(1.00282 0.00180655 0)
(1.002 0.00127248 0)
(1.00137 0.00093459 0)
(1.00095 0.000765509 0)
(1.00069 0.000688508 0)
(1.00057 0.000657836 0)
(1.00052 0.000635651 0)
(1.00048 0.000568675 0)
(0.333915 0.0023127 0)
(0.883959 0.0537278 0)
(1.11433 0.0776062 0)
(1.13403 0.0744785 0)
(1.10105 0.0638714 0)
(1.07552 0.0547388 0)
(1.0597 0.0474541 0)
(1.04859 0.0410927 0)
(1.04011 0.0354343 0)
(1.03347 0.0304075 0)
(1.02819 0.0259318 0)
(1.02392 0.0219447 0)
(1.02041 0.0183946 0)
(1.01748 0.0152372 0)
(1.015 0.0124361 0)
(1.01286 0.009962 0)
(1.01098 0.00779131 0)
(1.0093 0.0059059 0)
(1.00778 0.00429209 0)
(1.00637 0.00294009 0)
(1.00506 0.00184331 0)
(1.00383 0.000994673 0)
(1.00269 0.000409679 0)
(1.00179 5.23556e-05 0)
(1.00118 -0.00011067 0)
(1.00081 -0.000169854 0)
(1.00062 -0.000180112 0)
(1.00053 -0.000176857 0)
(1.00045 -0.000214274 0)
(0.301723 -0.000216799 0)
(0.83243 0.0394495 0)
(1.0943 0.0666687 0)
(1.14083 0.0689785 0)
(1.11412 0.0608739 0)
(1.08681 0.0527184 0)
(1.06917 0.0460734 0)
(1.05696 0.0402185 0)
(1.04764 0.0349112 0)
(1.04024 0.0300934 0)
(1.03428 0.0257184 0)
(1.02939 0.0217516 0)
(1.02532 0.018162 0)
(1.02188 0.0149222 0)
(1.01892 0.0120096 0)
(1.01633 0.00940627 0)
(1.01402 0.00709823 0)
(1.01193 0.00507552 0)
(1.01001 0.00333166 0)
(1.00822 0.00186334 0)
(1.00653 0.000670176 0)
(1.00492 -0.00025073 0)
(1.00341 -0.000877058 0)
(1.00222 -0.00124204 0)
(1.00139 -0.00139093 0)
(1.00087 -0.00142347 0)
(1.00058 -0.00140055 0)
(1.00043 -0.0013689 0)
(1.0003 -0.00139976 0)
(0.278867 -0.00101278 0)
(0.786993 0.0289422 0)
(1.07034 0.0566326 0)
(1.14216 0.0628992 0)
(1.12453 0.0572463 0)
(1.09696 0.0500517 0)
(1.07786 0.0439505 0)
(1.06473 0.038554 0)
(1.05474 0.0335981 0)
(1.04676 0.0290155 0)
(1.04024 0.0247796 0)
(1.03484 0.0208751 0)
(1.03028 0.0172872 0)
(1.02638 0.0140029 0)
(1.02297 0.011012 0)
(1.01996 0.008307 0)
(1.01724 0.00588331 0)
(1.01475 0.00373931 0)
(1.01242 0.00187623 0)
(1.01022 0.000297746 0)
(1.00811 -0.000990159 0)
(1.00609 -0.00198346 0)
(1.00418 -0.00265154 0)
(1.00263 -0.00302306 0)
(1.00155 -0.00315452 0)
(1.00085 -0.00315481 0)
(1.00044 -0.00308915 0)
(1.0002 -0.00301427 0)
(0.999988 -0.00302059 0)
(0.262557 -0.00105821 0)
(0.748031 0.0214984 0)
(1.04498 0.047914 0)
(1.13934 0.0568035 0)
(1.13243 0.0533765 0)
(1.10603 0.0471093 0)
(1.08586 0.0414447 0)
(1.07194 0.0364102 0)
(1.06144 0.0317514 0)
(1.053 0.0273815 0)
(1.04605 0.0232808 0)
(1.04022 0.0194449 0)
(1.03525 0.0158701 0)
(1.03095 0.0125538 0)
(1.02715 0.00949558 0)
(1.02374 0.00669697 0)
(1.02062 0.00416178 0)
(1.01773 0.00189643 0)
(1.01499 -9.0781e-05 0)
(1.01237 -0.00178963 0)
(1.00983 -0.00318532 0)
(1.00735 -0.00426467 0)
(1.00498 -0.00498901 0)
(1.00304 -0.00538032 0)
(1.00165 -0.00550164 0)
(1.00074 -0.00547196 0)
(1.00017 -0.00536243 0)
(0.999803 -0.00523872 0)
(0.999476 -0.0052101 0)
(0.250477 -0.000839651 0)
(0.715047 0.0163296 0)
(1.01984 0.040534 0)
(1.1336 0.0509741 0)
(1.13817 0.0494505 0)
(1.11415 0.044068 0)
(1.09333 0.0387618 0)
(1.07872 0.0339948 0)
(1.06778 0.0295623 0)
(1.059 0.0253591 0)
(1.05171 0.0213643 0)
(1.04554 0.0175788 0)
(1.04024 0.0140052 0)
(1.03559 0.0106481 0)
(1.03144 0.00751408 0)
(1.02767 0.00461182 0)
(1.02418 0.00195229 0)
(1.02089 -0.000452171 0)
(1.01775 -0.00258657 0)
(1.01469 -0.00443203 0)
(1.0117 -0.00596506 0)
(1.00873 -0.00716313 0)
(1.00586 -0.00797746 0)
(1.00347 -0.00841968 0)
(1.00173 -0.00855402 0)
(1.00054 -0.00850949 0)
(0.999767 -0.00836452 0)
(0.999226 -0.00819453 0)
(0.998741 -0.00812946 0)
(0.241103 -0.000580445 0)
(0.687204 0.0127507 0)
(0.995809 0.0343694 0)
(1.12591 0.0455551 0)
(1.14206 0.0455734 0)
(1.12141 0.0410138 0)
(1.10039 0.0360138 0)
(1.0852 0.0314357 0)
(1.07389 0.0271597 0)
(1.06483 0.0230707 0)
(1.05728 0.0191418 0)
(1.05084 0.0153748 0)
(1.04526 0.0117757 0)
(1.04032 0.0083536 0)
(1.03587 0.00511982 0)
(1.03177 0.00208829 0)
(1.02794 -0.000725827 0)
(1.02428 -0.00330464 0)
(1.02074 -0.00562538 0)
(1.01725 -0.00766125 0)
(1.01378 -0.00938082 0)
(1.0103 -0.0107523 0)
(1.00688 -0.0117152 0)
(1.00399 -0.012265 0)
(1.00183 -0.0124591 0)
(1.00032 -0.0124347 0)
(0.999265 -0.0122782 0)
(0.998483 -0.0120765 0)
(0.99778 -0.0119817 0)
(0.233562 -0.000370958 0)
(0.663672 0.0102248 0)
(0.973377 0.0292403 0)
(1.11702 0.0406037 0)
(1.14442 0.0418139 0)
(1.12789 0.0379996 0)
(1.10714 0.0332697 0)
(1.09149 0.0288178 0)
(1.07984 0.024635 0)
(1.07056 0.0206076 0)
(1.06281 0.0167009 0)
(1.05617 0.0129141 0)
(1.05037 0.00925447 0)
(1.04519 0.00573295 0)
(1.04048 0.00236386 0)
(1.0361 -0.000836879 0)
(1.03196 -0.00385047 0)
(1.02796 -0.00665293 0)
(1.02403 -0.00921517 0)
(1.02011 -0.0115036 0)
(1.01615 -0.0134798 0)
(1.01214 -0.0151037 0)
(1.00815 -0.0163035 0)
(1.0047 -0.0170521 0)
(1.00207 -0.0173874 0)
(1.00015 -0.0174498 0)
(0.998747 -0.0173324 0)
(0.997639 -0.0171349 0)
(0.996635 -0.0170315 0)
(0.227344 -0.000229355 0)
(0.643724 0.0083777 0)
(0.952751 0.0249627 0)
(1.10751 0.0361207 0)
(1.14556 0.038213 0)
(1.13368 0.0350606 0)
(1.11364 0.0305757 0)
(1.09766 0.0262032 0)
(1.08574 0.0220596 0)
(1.07627 0.018045 0)
(1.06838 0.0141169 0)
(1.06159 0.01027 0)
(1.05562 0.00651005 0)
(1.05027 0.00284814 0)
(1.04535 -0.000701734 0)
(1.04074 -0.00412258 0)
(1.03634 -0.00739194 0)
(1.03203 -0.0104813 0)
(1.02774 -0.0133567 0)
(1.02341 -0.0159786 0)
(1.01897 -0.0183027 0)
(1.01441 -0.020283 0)
(1.00982 -0.0218393 0)
(1.00579 -0.0229188 0)
(1.00264 -0.0235238 0)
(1.00024 -0.0237879 0)
(0.998382 -0.0238043 0)
(0.996833 -0.0236847 0)
(0.995414 -0.0236221 0)
(0.222123 -0.00014567 0)
(0.626747 0.00697885 0)
(0.933982 0.0214024 0)
(1.09775 0.0321078 0)
(1.14568 0.0348086 0)
(1.1388 0.0322212 0)
(1.11987 0.027958 0)
(1.10373 0.0236321 0)
(1.09157 0.0194851 0)
(1.08197 0.0154411 0)
(1.07398 0.0114519 0)
(1.06709 0.00750572 0)
(1.06102 0.00360533 0)
(1.05554 -0.000240863 0)
(1.05048 -0.00402073 0)
(1.04569 -0.00771671 0)
(1.04107 -0.0113042 0)
(1.0365 -0.0147518 0)
(1.03189 -0.0180215 0)
(1.02716 -0.0210685 0)
(1.02226 -0.0238437 0)
(1.01718 -0.0262975 0)
(1.01201 -0.0283491 0)
(1.00744 -0.0299302 0)
(1.0038 -0.0309986 0)
(1.00091 -0.0316665 0)
(0.998521 -0.0320064 0)
(0.996411 -0.0321222 0)
(0.994438 -0.032203 0)
(0.218045 -8.92314e-05 0)
(0.613293 0.00597226 0)
(0.918293 0.0186373 0)
(1.08886 0.028791 0)
(1.14521 0.0318689 0)
(1.14309 0.0297302 0)
(1.1255 0.0256579 0)
(1.10937 0.0213596 0)
(1.09705 0.0171852 0)
(1.08736 0.0130874 0)
(1.07932 0.00901316 0)
(1.07241 0.00494386 0)
(1.0663 0.000876739 0)
(1.06077 -0.00318421 0)
(1.05564 -0.00723005 0)
(1.05076 -0.0112449 0)
(1.046 -0.0152047 0)
(1.04124 -0.0190778 0)
(1.03639 -0.0228236 0)
(1.03135 -0.0263916 0)
(1.02606 -0.029725 0)
(1.02051 -0.0327665 0)
(1.01484 -0.0354301 0)
(1.00984 -0.0376381 0)
(1.00583 -0.0393284 0)
(1.00256 -0.0406135 0)
(0.99968 -0.0415342 0)
(0.996926 -0.0421364 0)
(0.994195 -0.0425407 0)
(0.215054 -5.46354e-05 0)
(0.60344 0.0052862 0)
(0.90632 0.0166463 0)
(1.08161 0.0262883 0)
(1.14448 0.0295858 0)
(1.14638 0.0277788 0)
(1.13011 0.0238563 0)
(1.1141 0.0195747 0)
(1.10169 0.0153694 0)
(1.09196 0.011217 0)
(1.08393 0.0070596 0)
(1.07703 0.0028711 0)
(1.07094 -0.0013571 0)
(1.06543 -0.00562661 0)
(1.06031 -0.0099332 0)
(1.05541 -0.014265 0)
(1.05061 -0.0186024 0)
(1.04577 -0.022917 0)
(1.04078 -0.0271693 0)
(1.03554 -0.0313061 0)
(1.02997 -0.0352622 0)
(1.02407 -0.0389669 0)
(1.01801 -0.042307 0)
(1.01271 -0.045165 0)
(1.00853 -0.0474769 0)
(1.00516 -0.0494387 0)
(1.00215 -0.0511728 0)
(0.999098 -0.0527113 0)
(0.995892 -0.0538917 0)
(0.212743 -5.43166e-06 0)
(0.595903 0.00481894 0)
(0.896884 0.0151965 0)
(1.07558 0.0243868 0)
(1.1436 0.0278119 0)
(1.14893 0.0262594 0)
(1.1339 0.0224658 0)
(1.11806 0.0182076 0)
(1.1056 0.0139834 0)
(1.09586 0.0097891 0)
(1.08786 0.00556297 0)
(1.08101 0.00127225 0)
(1.07498 -0.00309713 0)
(1.06953 -0.00755243 0)
(1.06446 -0.0120953 0)
(1.0596 -0.0167202 0)
(1.05482 -0.0214149 0)
(1.04998 -0.0261579 0)
(1.04494 -0.0309156 0)
(1.03959 -0.0356377 0)
(1.03385 -0.0402557 0)
(1.0277 -0.0446883 0)
(1.02132 -0.0487791 0)
(1.01574 -0.0522889 0)
(1.01142 -0.0550674 0)
(1.00814 -0.0573818 0)
(1.0055 -0.0596027 0)
(1.00318 -0.0621147 0)
(1.0006 -0.0643544 0)
(0.211284 -1.10124e-05 0)
(0.590746 0.00445569 0)
(0.890192 0.0141605 0)
(1.07121 0.0230362 0)
(1.14298 0.0265358 0)
(1.15093 0.0251293 0)
(1.1369 0.0214013 0)
(1.12126 0.0171559 0)
(1.10881 0.0129252 0)
(1.09909 0.00870519 0)
(1.09114 0.00442632 0)
(1.08437 5.12858e-05 0)
(1.07843 -0.004438 0)
(1.07306 -0.00905414 0)
(1.06809 -0.0138052 0)
(1.06333 -0.018694 0)
(1.05863 -0.0237176 0)
(1.05386 -0.0288645 0)
(1.04887 -0.0341117 0)
(1.04355 -0.0394191 0)
(1.03779 -0.0447263 0)
(1.03157 -0.0499633 0)
(1.02511 -0.054964 0)
(1.01943 -0.0593344 0)
(1.01506 -0.0626991 0)
(1.01183 -0.0651054 0)
(1.00944 -0.066586 0)
(1.00789 -0.0678676 0)
(1.00811 -0.0728267 0)
(1.00002 0.000695493 0)
(1.00002 0.000696178 0)
(1.00001 0.00069195 0)
(1.00001 0.000688697 1.10207e-21)
(1.00001 0.000687496 5.49866e-21)
(1.00001 0.000688167 -9.89599e-21)
(1.00001 0.000690547 5.4969e-21)
(1.00001 0.000694519 -4.38217e-21)
(1 0.000699934 5.58629e-22)
(1 0.000706804 4.38152e-21)
(1 0.000714964 0)
(1 0.000724399 -4.90368e-21)
(0.999999 0.000734993 5.55699e-22)
(0.999998 0.000746621 4.35523e-21)
(0.999997 0.000759262 0)
(0.999995 0.000772752 0)
(0.999994 0.000787052 -4.32054e-21)
(0.999993 0.000802027 4.32326e-21)
(0.999992 0.000817518 0)
(0.999991 0.000833524 -2.14663e-21)
(0.99999 0.000849864 2.28163e-21)
(0.999989 0.000866424 2.00271e-21)
(0.999988 0.000883151 -3.20264e-21)
(0.999987 0.000899869 1.0325e-21)
(0.999986 0.000916484 3.31185e-23)
(0.999986 0.000932926 -6.62023e-23)
(0.999985 0.000949024 9.2169e-22)
(0.999985 0.000964719 -1.05351e-21)
(0.999985 0.000979911 0)
(0.999984 0.000994366 0)
(0.999984 0.00100811 -2.60365e-22)
(0.999984 0.00102113 -2.59406e-22)
(0.999984 0.00103328 -4.3859e-21)
(0.999985 0.00104456 3.60962e-21)
(0.999985 0.00105483 -4.6081e-21)
(0.999985 0.00106406 4.60247e-21)
(0.999986 0.00107221 -3.55331e-21)
(0.999986 0.00107917 3.55158e-21)
(0.999987 0.00108494 5.04335e-22)
(0.999988 0.00108942 5.0217e-22)
(0.999989 0.00109258 -4.99967e-22)
(0.99999 0.00109442 0)
(0.999991 0.00109484 0)
(0.999993 0.00109388 0)
(0.999994 0.00109145 0)
(0.999996 0.00108772 0)
(0.999997 0.00108258 1.94334e-21)
(0.999999 0.00107517 -1.94012e-21)
(1 0.0010614 0)
(1.0001 0.0011139 0)
(1.00009 0.0011123 2.22232e-21)
(1.00007 0.00110781 -2.21588e-21)
(1.00005 0.00110737 -1.10634e-21)
(1.00004 0.00111215 -1.10668e-21)
(1.00002 0.00112152 -3.31094e-21)
(1.00001 0.00113524 5.527e-21)
(0.999996 0.00115324 0)
(0.999983 0.00117502 -5.50476e-22)
(0.999971 0.00120072 -1.10015e-21)
(0.999959 0.00122985 0)
(0.999947 0.00126232 5.48001e-22)
(0.999936 0.00129795 -4.91894e-21)
(0.999926 0.00133628 4.37572e-21)
(0.999916 0.00137733 0)
(0.999907 0.00142065 1.08937e-21)
(0.999899 0.00146606 0)
(0.999891 0.0015134 0)
(0.999884 0.00156215 0)
(0.999878 0.00161227 -2.15608e-21)
(0.999873 0.00166344 2.0223e-21)
(0.999868 0.00171529 -1.34538e-22)
(0.999864 0.00176768 0)
(0.999861 0.00182028 -5.00233e-22)
(0.999859 0.00187279 5.25355e-22)
(0.999858 0.00192501 9.96754e-23)
(0.999857 0.00197663 1.3242e-22)
(0.999857 0.00202739 0)
(0.999859 0.0020771 -2.10277e-21)
(0.999861 0.00212543 2.10229e-21)
(0.999863 0.00217219 -3.91581e-21)
(0.999867 0.00221715 8.59876e-21)
(0.999871 0.00226004 -3.90109e-21)
(0.999876 0.0023007 5.17221e-22)
(0.999881 0.00233882 5.15287e-22)
(0.999888 0.00237427 5.13801e-22)
(0.999895 0.00240682 -5.11203e-22)
(0.999903 0.00243622 4.57619e-21)
(0.999912 0.00246247 -3.55562e-21)
(0.999921 0.00248524 -1.51489e-21)
(0.999931 0.00250433 5.52334e-21)
(0.999942 0.00251955 -4.01032e-21)
(0.999953 0.00253076 -1.9931e-21)
(0.999965 0.00253797 3.96109e-21)
(0.999978 0.00254074 -7.8994e-21)
(0.999991 0.00253926 3.93723e-21)
(1 0.00253334 1.95304e-21)
(1.00002 0.00252216 -3.66353e-24)
(1.00003 0.00250066 0)
(1.0002 0.00129414 3.34302e-21)
(1.00016 0.0012908 -1.11609e-21)
(1.00012 0.00129018 -4.44922e-21)
(1.00008 0.00129653 2.21918e-21)
(1.00004 0.00131108 -2.21927e-21)
(0.999995 0.00133297 0)
(0.999955 0.00136192 -2.21033e-21)
(0.999918 0.00139802 -6.62134e-21)
(0.999882 0.0014402 6.62355e-21)
(0.999848 0.00148889 1.10016e-21)
(0.999815 0.00154315 0)
(0.999785 0.00160285 -6.58249e-21)
(0.999756 0.00166785 1.07606e-23)
(0.99973 0.00173717 4.38028e-21)
(0.999705 0.00181101 0)
(0.999682 0.00188859 -1.08872e-21)
(0.999662 0.00196953 -1.08893e-21)
(0.999643 0.0020538 0)
(0.999627 0.00214033 -1.0842e-21)
(0.999613 0.00222911 -2.15758e-21)
(0.999601 0.00231975 2.15823e-21)
(0.999591 0.00241149 -2.69661e-22)
(0.999584 0.00250418 -2.68396e-22)
(0.999579 0.00259735 0)
(0.999576 0.00269038 4.15962e-23)
(0.999575 0.00278303 -2.32732e-22)
(0.999576 0.00287486 0)
(0.99958 0.0029653 0)
(0.999586 0.00305409 -2.10315e-21)
(0.999594 0.00314081 2.10275e-21)
(0.999604 0.00322498 -4.17762e-21)
(0.999617 0.00330627 4.17622e-21)
(0.999631 0.00338429 0)
(0.999647 0.00345866 0)
(0.999666 0.00352899 0)
(0.999686 0.00359498 -1.02628e-21)
(0.999708 0.00365625 -2.04613e-21)
(0.999732 0.00371241 0)
(0.999759 0.0037633 -1.01377e-21)
(0.999787 0.00380837 -1.00253e-21)
(0.999817 0.00384751 3.02298e-21)
(0.999848 0.00388029 0)
(0.999882 0.00390635 3.97927e-21)
(0.999917 0.0039257 -5.95735e-21)
(0.999954 0.00393758 0)
(0.999992 0.00394221 0)
(1.00003 0.00393903 0)
(1.00007 0.00392719 -1.94766e-21)
(1.00012 0.0039026 -1.93667e-21)
(1.0003 0.00127157 -2.23341e-21)
(1.00022 0.0012713 4.47059e-21)
(1.00014 0.0012803 4.46364e-21)
(1.00006 0.001299 6.67668e-21)
(0.999974 0.00132896 -2.2303e-21)
(0.999895 0.00136918 -4.43537e-21)
(0.999818 0.00141937 8.86996e-21)
(0.999746 0.00147984 -3.73179e-24)
(0.999676 0.00154877 -2.2084e-21)
(0.999611 0.00162706 2.21121e-21)
(0.999549 0.00171317 0)
(0.99949 0.00180698 2.19756e-21)
(0.999436 0.00190841 -2.18664e-21)
(0.999386 0.00201582 8.76992e-21)
(0.999339 0.00212974 -8.75253e-21)
(0.999297 0.0022489 6.56116e-21)
(0.999259 0.00237276 -1.09548e-21)
(0.999225 0.00250152 1.08935e-21)
(0.999195 0.00263332 1.08337e-21)
(0.99917 0.00276832 -1.08437e-21)
(0.999149 0.00290608 0)
(0.999133 0.00304528 -1.61286e-21)
(0.99912 0.00318587 1.34673e-21)
(0.999113 0.00332721 1.0725e-21)
(0.999109 0.00346829 5.00333e-23)
(0.99911 0.00360887 9.95987e-23)
(0.999116 0.00374838 1.59121e-21)
(0.999125 0.00388589 -1.05955e-21)
(0.999139 0.00402108 2.10536e-21)
(0.999157 0.00415343 -2.10501e-21)
(0.99918 0.00428213 0)
(0.999206 0.00440682 5.21063e-21)
(0.999237 0.00452692 -4.16456e-21)
(0.999271 0.00464184 4.13417e-21)
(0.99931 0.00475112 -4.13263e-21)
(0.999352 0.00485428 0)
(0.999398 0.00495074 4.0817e-21)
(0.999448 0.00504005 -2.04331e-21)
(0.999502 0.00512189 0)
(0.999559 0.0051955 4.03442e-21)
(0.99962 0.00526077 -4.02904e-21)
(0.999685 0.00531709 2.00219e-21)
(0.999753 0.00536392 1.993e-21)
(0.999824 0.00540127 5.95002e-21)
(0.999899 0.00542806 6.36744e-24)
(0.999977 0.00544461 3.93701e-21)
(1.00006 0.00544994 1.95223e-21)
(1.00015 0.00544313 1.941e-21)
(1.00024 0.00542143 1.93817e-21)
(1.00036 0.00103458 0)
(1.00024 0.00104455 -4.47686e-21)
(1.0001 0.0010709 -4.46801e-21)
(0.999968 0.00110978 0)
(0.999834 0.0011633 -4.45894e-21)
(0.999703 0.0012302 9.40617e-24)
(0.999578 0.00131017 8.91924e-21)
(0.999459 0.00140384 -2.23334e-21)
(0.999345 0.00150847 -9.73014e-24)
(0.999237 0.00162559 -6.6474e-21)
(0.999136 0.00175295 0)
(0.999041 0.00189042 -6.6258e-21)
(0.998952 0.0020381 2.21334e-21)
(0.99887 0.00219348 0)
(0.998795 0.00235757 -2.20134e-21)
(0.998726 0.0025285 9.84434e-24)
(0.998665 0.00270556 -2.18532e-21)
(0.99861 0.00288925 7.6371e-21)
(0.998563 0.00307676 -1.17961e-23)
(0.998523 0.0032685 -1.09667e-21)
(0.99849 0.00346397 -1.0831e-21)
(0.998464 0.0036612 2.15657e-21)
(0.998446 0.00386027 -2.15688e-21)
(0.998435 0.00406037 -2.66981e-22)
(0.998431 0.00426005 5.52764e-22)
(0.998434 0.00445904 -2.98747e-22)
(0.998445 0.00465669 1.06368e-21)
(0.998463 0.0048516 -1.06183e-21)
(0.998488 0.00504345 1.05849e-21)
(0.99852 0.00523159 2.10185e-21)
(0.998559 0.00541486 -6.28906e-21)
(0.998605 0.00559286 -1.02891e-21)
(0.998658 0.00576483 6.25573e-21)
(0.998717 0.00592991 2.07614e-21)
(0.998783 0.00608761 -4.12276e-21)
(0.998856 0.00623724 4.12025e-21)
(0.998935 0.00637805 8.09753e-24)
(0.99902 0.00650949 6.11853e-21)
(0.999111 0.00663111 -4.07748e-21)
(0.999209 0.00674195 -1.01138e-20)
(0.999313 0.00684189 4.02497e-21)
(0.999422 0.0069301 2.00373e-21)
(0.999537 0.00700593 7.96593e-21)
(0.999658 0.00706942 -3.97376e-21)
(0.999785 0.00711915 -8.10567e-24)
(0.999917 0.0071556 -8.76413e-24)
(1.00006 0.00717735 0)
(1.0002 0.00718356 -3.89308e-21)
(1.00036 0.00717349 -3.86821e-21)
(1.00036 0.000552816 0)
(1.00018 0.000581827 -6.76655e-21)
(0.999988 0.000634626 6.7577e-21)
(0.999786 0.000703215 0)
(0.999586 0.000790434 0)
(0.999391 0.000894608 -4.4758e-21)
(0.999204 0.00101537 -2.84566e-24)
(0.999024 0.00115367 -4.47673e-21)
(0.998853 0.00130568 -8.69783e-24)
(0.998692 0.00147371 0)
(0.998539 0.00165464 0)
(0.998397 0.00184837 2.214e-21)
(0.998264 0.00205521 0)
(0.998141 0.00227162 0)
(0.998028 0.0024992 -2.20628e-21)
(0.997926 0.0027354 4.42098e-21)
(0.997834 0.00297927 2.20385e-21)
(0.997753 0.00323173 0)
(0.997683 0.00348883 2.173e-21)
(0.997624 0.00375129 -5.4605e-21)
(0.997576 0.00401854 -2.175e-21)
(0.997538 0.00428787 -2.16503e-21)
(0.997512 0.00455953 2.16523e-21)
(0.997497 0.0048325 1.40045e-24)
(0.997493 0.00510481 1.68321e-23)
(0.9975 0.00537621 2.67365e-22)
(0.997518 0.0056459 -5.34434e-22)
(0.997547 0.00591201 0)
(0.997586 0.0061742 -1.05736e-21)
(0.997637 0.00643167 0)
(0.997698 0.00668285 0)
(0.997769 0.00692732 -2.09874e-21)
(0.997851 0.00716412 -8.33705e-21)
(0.997943 0.0073921 2.2504e-23)
(0.998045 0.00761073 2.07329e-21)
(0.998157 0.00781913 0)
(0.998279 0.0080163 -2.04794e-21)
(0.99841 0.00820164 -4.08716e-21)
(0.99855 0.00837454 4.05947e-21)
(0.9987 0.00853384 8.08982e-21)
(0.998858 0.00867945 -8.05038e-21)
(0.999026 0.00881027 2.93593e-24)
(0.999202 0.00892557 -3.98613e-21)
(0.999386 0.00902544 1.52618e-25)
(0.99958 0.00910809 0)
(0.999781 0.00917422 -3.92761e-21)
(0.999993 0.00922187 -1.94913e-21)
(1.00022 0.00925048 1.94766e-21)
(1.00045 0.00926246 3.87032e-21)
(1.00026 -0.000210149 0)
(1.00002 -0.000155415 4.52329e-21)
(0.999751 -7.12029e-05 -1.35892e-20)
(0.99947 3.86171e-05 0)
(0.999188 0.000172237 0)
(0.998913 0.00032712 -9.02884e-21)
(0.998648 0.000502489 8.99949e-21)
(0.998393 0.000699775 -4.51118e-21)
(0.998151 0.000913924 -8.84293e-24)
(0.997922 0.00114818 4.48612e-21)
(0.997705 0.00139834 0)
(0.997503 0.00166439 0)
(0.997314 0.00194687 4.47427e-21)
(0.99714 0.00224102 0)
(0.99698 0.00254918 0)
(0.996836 0.00286797 -4.43086e-21)
(0.996706 0.00319617 1.55549e-23)
(0.996591 0.00353521 0)
(0.996492 0.00387978 2.19144e-21)
(0.996409 0.00423101 5.48263e-21)
(0.996341 0.00458822 -2.19655e-21)
(0.996289 0.00494785 0)
(0.996254 0.00531035 -1.08461e-21)
(0.996233 0.00567446 1.35516e-21)
(0.996229 0.0060376 -5.9115e-22)
(0.996241 0.00639954 -2.69735e-22)
(0.996268 0.00675933 5.32134e-22)
(0.996311 0.00711454 -1.06943e-21)
(0.99637 0.00746477 0)
(0.996444 0.00780907 -4.23861e-21)
(0.996533 0.00814542 6.32434e-21)
(0.996638 0.00847334 2.07972e-21)
(0.996757 0.00879166 -7.57753e-24)
(0.996891 0.00909886 2.07718e-21)
(0.997039 0.0093944 -2.08523e-21)
(0.997201 0.00967716 -4.11804e-21)
(0.997377 0.00994588 8.2139e-21)
(0.997567 0.0101999 -4.09302e-21)
(0.99777 0.0104384 8.1479e-21)
(0.997985 0.01066 7.07253e-24)
(0.998214 0.0108647 8.0553e-21)
(0.998454 0.0110511 -4.00445e-21)
(0.998707 0.0112184 0)
(0.998971 0.0113668 4.56312e-25)
(0.999247 0.0114939 7.88969e-21)
(0.999536 0.0116009 0)
(0.999838 0.0116852 0)
(1.00016 0.0117466 6.78927e-21)
(1.0005 0.0117922 9.67428e-22)
(1.00004 -0.00137937 1.14151e-21)
(0.999701 -0.0012186 8.02296e-21)
(0.999333 -0.00106298 9.08886e-21)
(0.998953 -0.000934846 -9.14816e-21)
(0.998577 -0.000745724 0)
(0.99821 -0.00052411 -1.16143e-23)
(0.997851 -0.000277645 -4.57366e-21)
(0.997505 -4.0282e-06 -4.56166e-21)
(0.997175 0.000290243 1.3597e-20)
(0.996862 0.000609448 -4.52103e-21)
(0.996566 0.000948147 0)
(0.99629 0.00130644 9.0197e-21)
(0.996032 0.00168507 -8.97064e-21)
(0.995794 0.00207785 2.58262e-23)
(0.995576 0.00248802 8.94532e-21)
(0.995378 0.00291117 -2.24526e-21)
(0.995201 0.00334578 -2.19115e-21)
(0.995044 0.00379386 4.44515e-21)
(0.994909 0.00424857 0)
(0.994796 0.00471147 -2.19916e-21)
(0.994704 0.00518173 2.20121e-21)
(0.994634 0.00565485 2.18996e-21)
(0.994586 0.00613146 -2.1899e-21)
(0.99456 0.00661 2.73452e-22)
(0.994556 0.00708727 3.38045e-23)
(0.994574 0.00756294 8.091e-22)
(0.994614 0.00803589 -2.71245e-24)
(0.994675 0.00850308 0)
(0.994758 0.00896398 0)
(0.994863 0.00941745 -1.44489e-24)
(0.994988 0.00986097 -2.1047e-21)
(0.995135 0.0102939 4.22639e-21)
(0.995302 0.0107149 -4.19907e-21)
(0.995489 0.011122 4.16792e-21)
(0.995696 0.0115145 -8.33565e-21)
(0.995922 0.0118912 1.83515e-23)
(0.996167 0.0122503 4.12529e-21)
(0.99643 0.0125912 4.08618e-21)
(0.996711 0.0129129 -8.16632e-21)
(0.99701 0.0132138 -8.11133e-21)
(0.997325 0.0134938 -4.04089e-21)
(0.997658 0.0137512 -4.01744e-21)
(0.998005 0.0139852 0)
(0.998369 0.014196 -3.96247e-21)
(0.998749 0.0143809 -2.41491e-24)
(0.999144 0.0145414 7.83485e-21)
(0.999558 0.0146739 -9.73104e-21)
(0.999992 0.0147793 1.92812e-21)
(1.00046 0.0148711 0)
(0.999642 -0.00298617 0)
(0.999201 -0.00279369 -9.17267e-21)
(0.998705 -0.00255966 0)
(0.998201 -0.00229783 9.15783e-21)
(0.9977 -0.00199365 4.58828e-21)
(0.997209 -0.00170072 -9.17249e-21)
(0.996734 -0.00138923 1.37123e-20)
(0.996283 -0.00102319 4.55348e-21)
(0.995848 -0.000627877 -4.549e-21)
(0.995433 -0.000201982 0)
(0.99504 0.000248314 4.5474e-21)
(0.994672 0.000722863 -9.07262e-21)
(0.994329 0.00122248 4.55694e-21)
(0.994011 0.00173942 -4.50433e-21)
(0.99372 0.00227789 2.95814e-23)
(0.993456 0.00283231 4.50781e-21)
(0.99322 0.00340079 -8.98637e-21)
(0.993011 0.00398586 0)
(0.992831 0.00457909 4.45816e-21)
(0.99268 0.00518244 -4.45813e-21)
(0.992558 0.00579485 -1.10423e-21)
(0.992466 0.0064108 0)
(0.992403 0.00703105 1.10681e-21)
(0.992369 0.00765364 2.74404e-22)
(0.992366 0.0082747 -5.81841e-22)
(0.992392 0.00889369 8.16572e-22)
(0.992448 0.00950923 5.38683e-22)
(0.992533 0.0101177 -1.08154e-21)
(0.992648 0.0107181 0)
(0.992791 0.0113093 -2.13435e-21)
(0.992963 0.011888 4.27007e-21)
(0.993163 0.0124534 0)
(0.993391 0.0130039 2.10223e-21)
(0.993646 0.0135368 0)
(0.993928 0.0140515 4.16298e-21)
(0.994235 0.0145464 -8.30085e-21)
(0.994568 0.0150194 4.11571e-21)
(0.994924 0.0154696 -2.13977e-23)
(0.995305 0.0158958 4.05264e-21)
(0.995708 0.016296 -4.06897e-21)
(0.996133 0.0166705 4.03025e-21)
(0.99658 0.017017 8.0248e-21)
(0.997047 0.0173345 0)
(0.997534 0.0176235 0)
(0.998041 0.0178809 -7.88028e-21)
(0.998568 0.0181083 -1.56547e-20)
(0.999119 0.0183015 1.55573e-20)
(0.999696 0.0184621 -8.70574e-21)
(1.00031 0.018613 8.6374e-21)
(0.999012 -0.00514376 0)
(0.998444 -0.00488574 9.32663e-21)
(0.997816 -0.00456543 9.31434e-21)
(0.997167 -0.00421132 1.3958e-20)
(0.996512 -0.00381858 -1.39526e-20)
(0.995867 -0.00339519 -4.62943e-21)
(0.995245 -0.00291025 1.39461e-20)
(0.994649 -0.0024137 -4.61936e-21)
(0.994079 -0.00192416 4.62251e-21)
(0.993538 -0.00137398 0)
(0.993031 -0.000785752 9.25746e-21)
(0.99255 -0.000167195 0)
(0.992099 0.000482904 -4.55834e-21)
(0.991682 0.0011551 -4.6013e-21)
(0.991299 0.00185417 5.15186e-23)
(0.990951 0.00257312 0)
(0.99064 0.0033096 4.54822e-21)
(0.990366 0.00406661 9.07963e-21)
(0.990129 0.00483403 0)
(0.98993 0.00561421 2.24369e-21)
(0.989769 0.00640564 -2.24297e-21)
(0.989648 0.00720181 -2.2271e-21)
(0.989566 0.00800342 2.23838e-21)
(0.989524 0.008808 -4.1838e-24)
(0.989521 0.00961098 -5.52252e-22)
(0.989558 0.0104114 -2.42806e-22)
(0.989635 0.0112074 -5.47349e-22)
(0.98975 0.0119948 1.0925e-21)
(0.989906 0.0127721 0)
(0.9901 0.0135376 2.1477e-21)
(0.990332 0.0142875 -4.28048e-21)
(0.990602 0.0150205 0)
(0.990908 0.0157346 0)
(0.991251 0.0164265 4.20127e-21)
(0.991628 0.0170951 -8.37989e-21)
(0.992039 0.0177388 4.17758e-21)
(0.992484 0.0183546 4.15091e-21)
(0.99296 0.0189415 0)
(0.993467 0.0194983 1.22693e-20)
(0.994003 0.0200222 -8.12899e-21)
(0.994566 0.0205138 -4.03633e-21)
(0.995157 0.0209702 1.36922e-23)
(0.995774 0.0213905 -7.97913e-21)
(0.996415 0.0217752 -7.91765e-21)
(0.997081 0.0221207 -7.86837e-21)
(0.997772 0.0224292 8.49722e-24)
(0.998492 0.0226953 -1.40615e-23)
(0.999245 0.0229221 0)
(1.00004 0.0231442 -1.53171e-20)
(0.998121 -0.00801791 0)
(0.997389 -0.00766381 2.43299e-21)
(0.99659 -0.00723421 -1.16556e-20)
(0.995764 -0.0067683 -9.32305e-21)
(0.994932 -0.00625502 9.3161e-21)
(0.994111 -0.00569815 4.73692e-21)
(0.993311 -0.00508861 -4.62875e-21)
(0.992531 -0.00444003 0)
(0.99179 -0.003758 0)
(0.991087 -0.0030032 9.39275e-21)
(0.990422 -0.00224785 -9.26562e-21)
(0.989796 -0.00148032 4.64759e-21)
(0.989211 -0.000645378 -4.64384e-21)
(0.988668 0.000220914 4.63966e-21)
(0.988169 0.0011204 4.64488e-21)
(0.987714 0.00204518 -4.61083e-21)
(0.987307 0.00299234 -4.56554e-21)
(0.986947 0.00396515 -4.54935e-21)
(0.986636 0.00495189 4.55474e-21)
(0.986375 0.00595514 -4.55366e-21)
(0.986165 0.00697274 0)
(0.986006 0.00799717 2.27045e-21)
(0.985899 0.00902886 -2.23747e-21)
(0.985844 0.0100646 1.67633e-21)
(0.985842 0.011099 0)
(0.985894 0.0121304 1.10821e-21)
(0.985997 0.0131564 0)
(0.986153 0.0141719 -1.09115e-21)
(0.986362 0.0151746 1.78681e-23)
(0.986622 0.0161622 1.1444e-23)