/*--------------------------------*- C++ -*----------------------------------*\
| =========                 |                                                 |
| \\      /  F ield         | OpenFOAM: The Open Source CFD Toolbox           |
|  \\    /   O peration     | Version:  2312                                  |
|   \\  /    A nd           | Website:  www.openfoam.com                      |
|    \\/     M anipulation  |                                                 |
\*---------------------------------------------------------------------------*/
FoamFile
{
    version     2.0;
    format      ascii;
    arch        "LSB;label=32;scalar=64";
    class       volScalarField;
    location    "19.864317933174508";
    object      p;
}
// * * * * * * * * * * * * * * * * * * * * * * * * * * * * * * * * * * * * * //

dimensions      [0 2 -2 0 0 0 0];

internalField   nonuniform List<scalar> 
21039
(
0.708066
0.574241
0.532181
0.503988
0.48274
0.466747
0.454404
0.44461
0.436681
0.430166
0.42475
0.420201
0.416347
0.413059
0.410231
0.407783
0.405645
0.403762
0.402086
0.400575
0.399195
0.397913
0.396702
0.395599
0.394637
0.393778
0.392985
0.392228
0.391497
0.560888
0.523099
0.509359
0.491043
0.474358
0.461159
0.450504
0.441759
0.434531
0.428508
0.423448
0.419166
0.415517
0.412389
0.409691
0.407348
0.405299
0.403491
0.401879
0.400424
0.399091
0.397849
0.396671
0.39559
0.394637
0.393781
0.392989
0.392233
0.391502
0.47139
0.469069
0.471318
0.464642
0.456284
0.448578
0.44142
0.434993
0.429371
0.424493
0.420272
0.416622
0.413461
0.410718
0.408332
0.406245
0.404412
0.402788
0.401335
0.40002
0.398811
0.397678
0.396596
0.395591
0.394693
0.393877
0.393116
0.392386
0.391676
0.433189
0.435353
0.43992
0.438928
0.436403
0.433277
0.429572
0.425759
0.422104
0.418709
0.41562
0.412848
0.410381
0.408198
0.40627
0.404567
0.403059
0.401718
0.400514
0.39942
0.39841
0.397459
0.396542
0.395677
0.394889
0.394159
0.393466
0.392788
0.392118
0.408027
0.412031
0.418022
0.419839
0.420146
0.41952
0.418093
0.416276
0.414291
0.412265
0.410294
0.408436
0.406724
0.405169
0.403771
0.402522
0.40141
0.400417
0.399526
0.398716
0.397967
0.397256
0.396565
0.395895
0.395262
0.394655
0.394058
0.393455
0.392841
0.388213
0.393494
0.400946
0.404931
0.407055
0.407977
0.408024
0.407579
0.406824
0.405883
0.40486
0.403826
0.402826
0.401891
0.401036
0.400267
0.399584
0.398981
0.398446
0.397966
0.397525
0.397106
0.396691
0.396265
0.395826
0.395373
0.394898
0.394392
0.393852
0.37524
0.380278
0.387469
0.392539
0.395888
0.397956
0.399105
0.399683
0.399865
0.399785
0.399546
0.39922
0.398862
0.398506
0.398178
0.397891
0.397651
0.397461
0.397313
0.3972
0.39711
0.397026
0.396937
0.3968
0.396597
0.396331
0.396005
0.395615
0.395169
0.367709
0.371816
0.377645
0.38272
0.386561
0.389283
0.39117
0.392492
0.393398
0.394008
0.39442
0.394705
0.394917
0.395094
0.395266
0.39545
0.395657
0.395893
0.396155
0.39644
0.396737
0.397033
0.397314
0.397515
0.39759
0.397549
0.397401
0.397146
0.396796
0.362921
0.366122
0.370568
0.375185
0.379023
0.38197
0.384242
0.386034
0.387452
0.388591
0.38953
0.390331
0.391042
0.391704
0.392343
0.392981
0.393631
0.394299
0.394987
0.395694
0.396411
0.397127
0.397829
0.398418
0.398818
0.399042
0.399108
0.399021
0.398795
0.359217
0.361665
0.365059
0.369142
0.372792
0.375758
0.3782
0.38026
0.382018
0.383542
0.384891
0.386117
0.38726
0.388354
0.389426
0.390496
0.391578
0.39268
0.393806
0.394955
0.396121
0.397295
0.398466
0.399498
0.400273
0.400807
0.401125
0.401238
0.401162
0.355894
0.357738
0.360376
0.363945
0.367356
0.370271
0.372786
0.375005
0.37699
0.378795
0.380464
0.382038
0.38355
0.385029
0.386499
0.387978
0.389479
0.391013
0.392583
0.39419
0.395831
0.397498
0.399183
0.400711
0.401916
0.402809
0.403423
0.403771
0.403873
0.35264
0.354033
0.356136
0.359236
0.362396
0.365229
0.367766
0.370082
0.372227
0.374244
0.376168
0.378032
0.379862
0.381684
0.383519
0.385384
0.387292
0.389252
0.39127
0.393346
0.395481
0.397669
0.399907
0.401981
0.403668
0.404973
0.40593
0.406554
0.406865
0.349295
0.350374
0.352102
0.354797
0.357715
0.360448
0.362974
0.365344
0.367602
0.369781
0.371911
0.374017
0.376124
0.378253
0.380424
0.382653
0.384953
0.387333
0.389798
0.392349
0.394987
0.397712
0.400528
0.403183
0.405394
0.407158
0.408506
0.409448
0.410006
0.345793
0.346653
0.348113
0.35047
0.353162
0.355788
0.358282
0.360676
0.36301
0.365311
0.367605
0.369914
0.37226
0.374664
0.377144
0.379717
0.382395
0.385187
0.388094
0.391119
0.39426
0.397519
0.400908
0.404143
0.406889
0.409135
0.410905
0.412203
0.413042
0.342119
0.342825
0.344074
0.346132
0.348608
0.35112
0.353568
0.355966
0.358347
0.360737
0.363159
0.365633
0.368183
0.370828
0.373591
0.376487
0.379529
0.382723
0.38607
0.389566
0.393204
0.396978
0.400898
0.404645
0.407856
0.410536
0.412714
0.414378
0.415529
0.33859
0.339183
0.340264
0.342098
0.344397
0.346802
0.349198
0.351585
0.353992
0.356441
0.358954
0.361554
0.364264
0.367111
0.370117
0.3733
0.376673
0.380243
0.384007
0.387953
0.392056
0.396282
0.400608
0.404642
0.408019
0.410813
0.413123
0.414977
0.416366
0.335576
0.336094
0.337069
0.338758
0.340923
0.343233
0.345583
0.347963
0.350389
0.352882
0.355465
0.358162
0.361003
0.364016
0.367228
0.370659
0.374327
0.378241
0.382395
0.38677
0.391317
0.395956
0.400588
0.404666
0.407761
0.410026
0.411718
0.413091
0.414372
0.333058
0.333527
0.334427
0.336009
0.33807
0.340318
0.342651
0.345043
0.347497
0.350032
0.352676
0.35546
0.358418
0.361581
0.36498
0.368642
0.37259
0.376837
0.381382
0.386199
0.391225
0.396335
0.401332
0.405422
0.407932
0.40888
0.408534
0.407406
0.406596
0.331009
0.331525
0.33244
0.333915
0.335805
0.337944
0.340265
0.342691
0.345189
0.347776
0.350487
0.353361
0.356437
0.359748
0.363331
0.36722
0.371448
0.376035
0.380986
0.38628
0.391857
0.397575
0.403179
0.40763
0.409831
0.409264
0.405595
0.398253
0.386996
0.39078
0.390058
0.38934
0.388627
0.387917
0.387208
0.386501
0.385793
0.385084
0.384374
0.38366
0.382944
0.382222
0.381496
0.380764
0.380026
0.379281
0.378528
0.377768
0.376999
0.376223
0.375437
0.374643
0.373841
0.37303
0.372211
0.371384
0.370549
0.369707
0.368858
0.368002
0.367141
0.366274
0.365403
0.364528
0.363651
0.362771
0.36189
0.361009
0.360129
0.35925
0.358374
0.357502
0.356635
0.355773
0.354918
0.35407
0.35323
0.352399
0.390788
0.390075
0.389369
0.388666
0.387966
0.387268
0.386571
0.385873
0.385174
0.384473
0.383768
0.38306
0.382347
0.381628
0.380903
0.380171
0.379431
0.378683
0.377927
0.377161
0.376386
0.375602
0.374808
0.374005
0.373192
0.372371
0.37154
0.370701
0.369854
0.368999
0.368137
0.367268
0.366394
0.365514
0.364631
0.363744
0.362854
0.361963
0.361071
0.360179
0.359289
0.358401
0.357517
0.356637
0.355763
0.354895
0.354035
0.353183
0.35234
0.390986
0.390299
0.389617
0.388938
0.388262
0.387586
0.38691
0.386233
0.385553
0.384869
0.384181
0.383487
0.382787
0.382079
0.381363
0.380638
0.379903
0.379159
0.378403
0.377637
0.376859
0.37607
0.37527
0.374458
0.373636
0.372802
0.371958
0.371103
0.370239
0.369366
0.368484
0.367594
0.366697
0.365794
0.364886
0.363973
0.363057
0.362138
0.361218
0.360298
0.359378
0.35846
0.357544
0.356633
0.355727
0.354827
0.353934
0.353049
0.352174
0.391466
0.390819
0.390174
0.38953
0.388886
0.388241
0.387594
0.386943
0.386287
0.385625
0.384956
0.384279
0.383592
0.382895
0.382187
0.381467
0.380735
0.379989
0.37923
0.378458
0.377671
0.37687
0.376055
0.375226
0.374384
0.373528
0.372658
0.371777
0.370883
0.369979
0.369063
0.368138
0.367205
0.366263
0.365314
0.36436
0.3634
0.362437
0.361471
0.360503
0.359536
0.358568
0.357603
0.356641
0.355683
0.354731
0.353785
0.352846
0.351917
0.392239
0.391643
0.391046
0.390446
0.389844
0.389238
0.388626
0.388007
0.38738
0.386743
0.386095
0.385436
0.384763
0.384077
0.383375
0.382658
0.381925
0.381175
0.380407
0.379622
0.37882
0.377999
0.377161
0.376306
0.375434
0.374545
0.373641
0.37272
0.371785
0.370837
0.369875
0.368901
0.367916
0.366921
0.365917
0.364905
0.363886
0.362862
0.361834
0.360803
0.35977
0.358737
0.357704
0.356673
0.355646
0.354622
0.353604
0.352593
0.351589
0.393312
0.392777
0.392239
0.391695
0.391145
0.390585
0.390017
0.389436
0.388843
0.388235
0.387612
0.386973
0.386315
0.385639
0.384943
0.384226
0.383489
0.382729
0.381948
0.381145
0.38032
0.379472
0.378603
0.377712
0.3768
0.375868
0.374916
0.373945
0.372956
0.37195
0.370928
0.36989
0.368839
0.367776
0.366701
0.365615
0.364522
0.36342
0.362313
0.361201
0.360086
0.358968
0.35785
0.356733
0.355617
0.354505
0.353397
0.352294
0.3512
0.394736
0.394231
0.393778
0.393302
0.392812
0.39231
0.391793
0.391257
0.390704
0.39013
0.389535
0.388918
0.388276
0.38761
0.386918
0.386199
0.385454
0.384681
0.383881
0.383053
0.382197
0.381314
0.380404
0.379468
0.378506
0.377518
0.376507
0.375472
0.374416
0.373338
0.37224
0.371124
0.369991
0.368843
0.36768
0.366505
0.365318
0.364121
0.362917
0.361706
0.36049
0.35927
0.358048
0.356825
0.355603
0.354383
0.353165
0.351954
0.35075
0.39645
0.396109
0.39575
0.39529
0.394885
0.39445
0.393988
0.393504
0.392995
0.39246
0.391895
0.391302
0.390676
0.39002
0.38933
0.388607
0.38785
0.387059
0.386233
0.385374
0.38448
0.383553
0.382593
0.381601
0.380577
0.379522
0.378439
0.377327
0.376188
0.375023
0.373835
0.372624
0.371392
0.370141
0.368873
0.367588
0.36629
0.364979
0.363658
0.362328
0.360991
0.359649
0.358303
0.356954
0.355606
0.354258
0.352912
0.351571
0.350239
0.398551
0.398301
0.398027
0.397737
0.397417
0.397051
0.39662
0.396201
0.395744
0.395249
0.394719
0.394151
0.393543
0.392896
0.392207
0.391477
0.390706
0.389892
0.389036
0.388139
0.3872
0.38622
0.385201
0.384142
0.383045
0.381911
0.380742
0.379539
0.378303
0.377036
0.37574
0.374417
0.373068
0.371695
0.370301
0.368888
0.367457
0.366011
0.364551
0.36308
0.3616
0.360113
0.35862
0.357124
0.355626
0.354128
0.352631
0.35114
0.349659
0.401051
0.400921
0.400748
0.400543
0.400306
0.400039
0.399735
0.399384
0.39897
0.398512
0.398023
0.397483
0.396895
0.39626
0.395573
0.394836
0.394048
0.393209
0.39232
0.39138
0.390391
0.389353
0.388266
0.387132
0.385952
0.384728
0.383461
0.382152
0.380803
0.379418
0.377996
0.376541
0.375055
0.373539
0.371997
0.370432
0.368844
0.367237
0.365613
0.363976
0.362327
0.360667
0.359002
0.357331
0.355657
0.353983
0.35231
0.350643
0.348989
0.403917
0.403927
0.403881
0.403789
0.403654
0.403472
0.403242
0.402963
0.402636
0.402256
0.40182
0.401294
0.400742
0.400125
0.399446
0.398706
0.397905
0.397044
0.396123
0.395142
0.394101
0.393001
0.391843
0.390629
0.389359
0.388034
0.386658
0.385231
0.383754
0.382232
0.380666
0.379057
0.377411
0.375727
0.37401
0.372264
0.370489
0.368691
0.366872
0.365034
0.363183
0.361318
0.359446
0.357567
0.355685
0.353802
0.351919
0.350046
0.34819
0.40709
0.407258
0.407357
0.4074
0.407388
0.407316
0.407185
0.406991
0.406736
0.406417
0.406039
0.405597
0.405083
0.404496
0.403839
0.403114
0.402315
0.401445
0.400504
0.39949
0.398406
0.397251
0.396024
0.394729
0.393367
0.391936
0.390442
0.388885
0.387265
0.385587
0.383854
0.382067
0.380231
0.378347
0.376421
0.374457
0.372456
0.370425
0.368367
0.366285
0.364186
0.362071
0.359946
0.357813
0.355678
0.353542
0.351408
0.349287
0.34719
0.410441
0.410787
0.411052
0.411253
0.411387
0.411454
0.411451
0.411376
0.41123
0.41101
0.410717
0.410348
0.409902
0.409378
0.408772
0.408102
0.407336
0.406487
0.405556
0.404535
0.403429
0.402237
0.400956
0.39959
0.39814
0.396604
0.394987
0.393289
0.39151
0.389656
0.387729
0.38573
0.383668
0.381541
0.379358
0.377125
0.374841
0.372519
0.37016
0.367771
0.36536
0.362927
0.360485
0.358034
0.355582
0.353132
0.350687
0.348262
0.34587
0.413719
0.414265
0.414724
0.415116
0.415437
0.415686
0.415862
0.415961
0.415984
0.415925
0.415786
0.415559
0.415247
0.414848
0.414351
0.41376
0.413082
0.412327
0.411459
0.410476
0.409388
0.408194
0.406887
0.405475
0.403953
0.402319
0.400579
0.398731
0.396775
0.394718
0.39256
0.390305
0.387961
0.385528
0.383018
0.380436
0.377786
0.375082
0.372327
0.369533
0.366709
0.36386
0.361
0.358133
0.35527
0.352417
0.349576
0.346767
0.344009
0.41648
0.417244
0.417933
0.418572
0.419154
0.419679
0.420138
0.420526
0.420837
0.421057
0.421188
0.421216
0.421143
0.420966
0.420677
0.420277
0.419747
0.41909
0.418493
0.417598
0.416585
0.415445
0.414164
0.412745
0.411184
0.409471
0.407616
0.405613
0.403459
0.401164
0.398727
0.396151
0.393449
0.390618
0.387676
0.384631
0.381487
0.378266
0.374972
0.371624
0.368234
0.364812
0.361381
0.357947
0.354528
0.351135
0.347773
0.344468
0.341246
0.41756
0.418504
0.419466
0.420485
0.421525
0.422561
0.423548
0.424459
0.42527
0.425959
0.426524
0.426951
0.427247
0.427413
0.427442
0.427346
0.427108
0.426714
0.426165
0.425563
0.424733
0.423743
0.422574
0.421226
0.419686
0.417941
0.415999
0.413851
0.411488
0.408926
0.406159
0.403192
0.400042
0.396707
0.393211
0.389566
0.385778
0.381877
0.377873
0.373788
0.369644
0.365454
0.361254
0.357057
0.352895
0.34879
0.344759
0.34084
0.337067
0.415746
0.41677
0.418182
0.419973
0.421937
0.42392
0.425791
0.427487
0.428979
0.43025
0.43132
0.432189
0.432884
0.433417
0.433791
0.434025
0.434106
0.434042
0.433805
0.433369
0.432912
0.432144
0.431164
0.429969
0.428529
0.426821
0.424849
0.422596
0.420048
0.417221
0.414109
0.410718
0.407072
0.403171
0.399048
0.394721
0.390201
0.385528
0.380713
0.375788
0.370776
0.365694
0.360584
0.355465
0.350385
0.345384
0.340508
0.335836
0.331435
0.406562
0.408015
0.411608
0.416044
0.420355
0.424181
0.427411
0.430084
0.432285
0.434082
0.435571
0.436791
0.437804
0.438645
0.439327
0.439881
0.440293
0.440582
0.440737
0.440695
0.440488
0.440096
0.439433
0.438505
0.437272
0.435692
0.433763
0.431454
0.428742
0.425648
0.422163
0.4183
0.414091
0.409544
0.404706
0.399607
0.394266
0.388738
0.383039
0.377208
0.371269
0.365234
0.359138
0.35298
0.346801
0.340637
0.334569
0.328791
0.323575
0.378613
0.389604
0.402278
0.412686
0.420465
0.42615
0.430316
0.433457
0.435901
0.437854
0.439468
0.440813
0.441973
0.442989
0.443885
0.444701
0.44542
0.446063
0.446617
0.447011
0.447236
0.447277
0.447015
0.44645
0.44553
0.44419
0.4424
0.440113
0.437292
0.433961
0.430117
0.425777
0.420992
0.415779
0.410206
0.40432
0.398154
0.391783
0.385234
0.378557
0.371781
0.364911
0.357965
0.350899
0.34368
0.336229
0.328469
0.320472
0.312822
0.351586
0.350748
0.349849
0.348876
0.347814
0.346653
0.34542
0.344261
0.34329
0.342535
0.342032
0.341817
0.341931
0.342424
0.343347
0.344765
0.346757
0.349424
0.352892
0.357328
0.362959
0.370097
0.37919
0.390916
0.406375
0.427172
0.455
0.496719
0.630272
0.351512
0.350657
0.349739
0.348741
0.347647
0.346447
0.345168
0.343959
0.342935
0.342127
0.341566
0.341287
0.341331
0.341739
0.342561
0.343856
0.345695
0.348165
0.351373
0.35546
0.360606
0.36705
0.375098
0.385141
0.397806
0.414032
0.431973
0.445366
0.482905
0.351313
0.350421
0.349456
0.348401
0.347237
0.345952
0.344569
0.343243
0.342096
0.341158
0.340457
0.340024
0.339893
0.340096
0.340675
0.341674
0.343143
0.34514
0.347733
0.350997
0.355013
0.359864
0.365605
0.372158
0.379334
0.387226
0.393506
0.390874
0.392952
0.350999
0.350043
0.349003
0.347859
0.346586
0.345168
0.343624
0.342118
0.340783
0.339646
0.33873
0.33806
0.337662
0.337559
0.337777
0.338341
0.339276
0.340605
0.342345
0.344502
0.347057
0.349961
0.353104
0.356216
0.358819
0.360877
0.36145
0.356487
0.354106
0.350594
0.349552
0.348409
0.347144
0.345725
0.344132
0.342376
0.340637
0.33906
0.337669
0.336484
0.335522
0.3348
0.334331
0.334128
0.334196
0.334539
0.33515
0.33601
0.337081
0.338299
0.339559
0.34073
0.341583
0.341699
0.340931
0.338692
0.332323
0.328142
0.350107
0.348957
0.347687
0.34627
0.344671
0.342861
0.340847
0.338827
0.336965
0.335279
0.333786
0.332499
0.331424
0.330567
0.329927
0.329499
0.329269
0.329215
0.329298
0.329464
0.329637
0.329706
0.329538
0.328945
0.327537
0.32497
0.320574
0.312774
0.307355
0.349541
0.348259
0.346835
0.345236
0.343421
0.341352
0.339036
0.336692
0.334505
0.332492
0.330666
0.329032
0.327594
0.326347
0.325284
0.32439
0.323642
0.323007
0.32244
0.32188
0.321247
0.320427
0.319282
0.317626
0.315106
0.311341
0.305887
0.298385
0.293247
0.348891
0.347453
0.345847
0.344033
0.341964
0.339596
0.336932
0.334221
0.331676
0.329312
0.327134
0.325146
0.323346
0.321723
0.320264
0.318946
0.317743
0.316614
0.315512
0.314373
0.313117
0.311638
0.309805
0.307464
0.304336
0.300119
0.2947
0.288609
0.28444
0.348149
0.346528
0.344708
0.342643
0.340279
0.337567
0.33451
0.331395
0.328463
0.325727
0.32319
0.32085
0.318699
0.316724
0.314905
0.313217
0.311627
0.310094
0.308569
0.306993
0.305292
0.303378
0.301149
0.29849
0.295196
0.291038
0.28613
0.281479
0.278247
0.34729
0.345455
0.343385
0.34103
0.338326
0.335222
0.331726
0.328168
0.324825
0.321706
0.318809
0.316128
0.31365
0.311356
0.309224
0.307223
0.30532
0.303474
0.301639
0.29976
0.297777
0.29562
0.293211
0.290463
0.287225
0.283327
0.279017
0.275478
0.273024
0.346268
0.344182
0.341822
0.339128
0.336034
0.332488
0.328504
0.32447
0.320697
0.31719
0.313943
0.310942
0.308168
0.305598
0.303204
0.300955
0.298814
0.296742
0.294696
0.292628
0.290487
0.288217
0.285755
0.283032
0.279935
0.276359
0.272638
0.269913
0.268084
0.345004
0.342621
0.33992
0.336833
0.333291
0.329245
0.324727
0.320187
0.315976
0.31209
0.308513
0.305224
0.302197
0.299402
0.296806
0.294374
0.292069
0.289851
0.28768
0.285512
0.283303
0.281007
0.278573
0.27594
0.273029
0.269799
0.26663
0.264498
0.263134
0.343365
0.340629
0.337525
0.33398
0.329925
0.325323
0.320228
0.315167
0.310524
0.306283
0.302414
0.298886
0.295662
0.292703
0.289972
0.287427
0.28503
0.282741
0.280521
0.278329
0.276126
0.273872
0.271525
0.269032
0.266339
0.263458
0.260779
0.259074
0.258037
0.341111
0.337952
0.334372
0.330295
0.325663
0.320456
0.314763
0.309192
0.304154
0.299609
0.295512
0.291815
0.288467
0.285421
0.282631
0.280051
0.277639
0.275355
0.273158
0.271011
0.268878
0.266725
0.264513
0.262198
0.259742
0.257199
0.254945
0.253554
0.252745
0.33786
0.334189
0.330051
0.325373
0.320116
0.314289
0.308022
0.302
0.296647
0.291891
0.287662
0.283892
0.280517
0.277477
0.274718
0.27219
0.269846
0.267642
0.265541
0.263505
0.261501
0.259497
0.257459
0.25535
0.253149
0.25094
0.249066
0.247922
0.247265
0.333125
0.328899
0.324193
0.318944
0.313141
0.30682
0.300143
0.293847
0.288349
0.283542
0.279329
0.275623
0.272343
0.269421
0.266795
0.264408
0.262213
0.260163
0.258219
0.256348
0.254516
0.252694
0.250852
0.24896
0.247012
0.2451
0.243531
0.242584
0.242034
0.326883
0.322112
0.316955
0.31134
0.305243
0.2987
0.291883
0.285552
0.280108
0.275417
0.271361
0.267836
0.264751
0.262029
0.259603
0.257415
0.255415
0.253558
0.251803
0.250116
0.248467
0.246826
0.245172
0.243487
0.241774
0.240117
0.238782
0.237983
0.237511
0.318472
0.313435
0.308311
0.302797
0.29679
0.290332
0.283626
0.277459
0.272222
0.267768
0.263966
0.260699
0.257868
0.255393
0.253204
0.251242
0.249457
0.247805
0.246247
0.244749
0.243278
0.241807
0.240315
0.2388
0.237288
0.235854
0.234721
0.234052
0.233645
0.306607
0.302663
0.298624
0.293772
0.288201
0.282063
0.275646
0.269781
0.264855
0.260717
0.257226
0.254258
0.251711
0.249501
0.24756
0.245829
0.24426
0.242809
0.241441
0.24012
0.238813
0.237488
0.23613
0.234774
0.233499
0.232354
0.231429
0.230814
0.230389
0.328937
0.32923
0.329965
0.331464
0.333543
0.335879
0.338318
0.340799
0.343334
0.345969
0.348753
0.351725
0.354925
0.358392
0.362165
0.366287
0.370794
0.375717
0.381067
0.386831
0.392956
0.399296
0.405562
0.410549
0.412793
0.411052
0.403783
0.388659
0.357416
0.326866
0.327284
0.32813
0.329611
0.331599
0.333856
0.336253
0.338735
0.341311
0.344016
0.346893
0.349981
0.35332
0.356953
0.360925
0.365286
0.37008
0.375346
0.381111
0.387384
0.394154
0.401342
0.408755
0.415261
0.419509
0.420682
0.418236
0.413721
0.417915
0.324752
0.325254
0.326182
0.32765
0.329563
0.331737
0.334073
0.33653
0.33912
0.341871
0.344815
0.34799
0.351439
0.355209
0.359354
0.363928
0.368993
0.374604
0.380819
0.387698
0.395323
0.403784
0.413252
0.423022
0.432348
0.441076
0.450026
0.457151
0.473445
0.32257
0.32305
0.323948
0.325397
0.327308
0.329481
0.331804
0.33425
0.336842
0.339614
0.342599
0.345834
0.349366
0.353244
0.357531
0.362291
0.3676
0.37354
0.380203
0.387718
0.396285
0.406186
0.418129
0.4317
0.446892
0.462707
0.481539
0.498823
0.520764
0.320323
0.320766
0.321611
0.323024
0.324927
0.327106
0.329427
0.331866
0.334456
0.337235
0.340242
0.343515
0.347103
0.351062
0.355458
0.360367
0.365879
0.372099
0.379156
0.387239
0.396682
0.407825
0.422058
0.438595
0.458786
0.47918
0.50402
0.530205
0.558782
0.318014
0.318438
0.319245
0.320613
0.322478
0.324629
0.326926
0.329346
0.33192
0.334691
0.337698
0.340984
0.344599
0.348601
0.353063
0.358069
0.363719
0.370139
0.377484
0.385978
0.39612
0.408006
0.42395
0.441876
0.464392
0.489481
0.517671
0.54749
0.577995
0.315638
0.31605
0.31683
0.318149
0.319954
0.32205
0.324301
0.32668
0.329219
0.331959
0.33494
0.338206
0.341809
0.345809
0.350282
0.355318
0.361023
0.367535
0.375026
0.383695
0.394306
0.406229
0.422758
0.443023
0.466289
0.492052
0.519315
0.54722
0.575686
0.313191
0.313588
0.314339
0.315602
0.317337
0.319364
0.321551
0.32387
0.32635
0.329032
0.331956
0.335166
0.338714
0.34266
0.347082
0.352071
0.357729
0.364206
0.371672
0.380232
0.390597
0.403358
0.419767
0.440127
0.462605
0.486564
0.511062
0.53556
0.55994
0.310671
0.311053
0.31177
0.312972
0.314626
0.316569
0.318675
0.320913
0.323311
0.325907
0.328741
0.331856
0.335301
0.339138
0.34344
0.348299
0.353798
0.360103
0.367306
0.375752
0.385907
0.398446
0.41407
0.43292
0.453319
0.474462
0.495611
0.516446
0.536218
0.308077
0.308445
0.309127
0.31026
0.311821
0.313664
0.31567
0.317807
0.320098
0.32258
0.32529
0.328269
0.331564
0.335232
0.339341
0.343988
0.3492
0.355213
0.362148
0.370204
0.379778
0.391339
0.405526
0.422139
0.439701
0.457418
0.474711
0.49161
0.507092
0.305409
0.305761
0.306403
0.307463
0.308922
0.310653
0.312542
0.314556
0.316716
0.319055
0.321608
0.324411
0.327508
0.33095
0.334791
0.339127
0.344038
0.349633
0.356072
0.363469
0.372126
0.38237
0.394684
0.408678
0.423013
0.436981
0.450166
0.462904
0.474301
0.302668
0.303004
0.303605
0.304587
0.305935
0.30754
0.309295
0.311166
0.313172
0.31534
0.317703
0.320292
0.323144
0.326307
0.329831
0.333794
0.338276
0.343338
0.349102
0.355647
0.363182
0.371916
0.382107
0.393271
0.404274
0.414548
0.423838
0.432629
0.44029
0.299859
0.300185
0.300747
0.301645
0.302872
0.304333
0.305934
0.307641
0.309469
0.31144
0.313582
0.315921
0.318488
0.321324
0.324473
0.327991
0.331937
0.336358
0.341328
0.34689
0.353163
0.360248
0.368203
0.376522
0.384342
0.391269
0.397198
0.402644
0.407208
0.296985
0.297293
0.29781
0.298621
0.299723
0.301034
0.302469
0.303997
0.305626
0.307377
0.30927
0.311328
0.313573
0.316037
0.318753
0.321759
0.325096
0.328791
0.332881
0.337368
0.342291
0.347662
0.3534
0.359042
0.364022
0.368122
0.371359
0.374222
0.376507
0.29405
0.294344
0.294816
0.295537
0.296506
0.297657
0.298914
0.300246
0.301659
0.30317
0.304794
0.306543
0.308434
0.310487
0.312724
0.315168
0.31784
0.320748
0.323893
0.327245
0.330782
0.334452
0.33809
0.341328
0.343893
0.345721
0.346916
0.347927
0.348733
0.291064
0.291345
0.291772
0.2924
0.293232
0.294215
0.295282
0.296403
0.297586
0.298842
0.300177
0.301595
0.303104
0.304715
0.306436
0.308277
0.31024
0.312313
0.31447
0.316653
0.318804
0.320829
0.32252
0.323646
0.324209
0.324272
0.323987
0.323762
0.323748
0.288031
0.288298
0.288676
0.289211
0.289904
0.290717
0.291587
0.29249
0.293434
0.294423
0.295454
0.296524
0.297632
0.298776
0.299956
0.301165
0.302389
0.303596
0.304741
0.305748
0.306534
0.306988
0.30689
0.306173
0.305091
0.303814
0.302486
0.301475
0.301103
0.284961
0.285217
0.285545
0.285986
0.286542
0.287181
0.287846
0.288528
0.289229
0.289942
0.290659
0.29137
0.292064
0.29273
0.293353
0.293913
0.294381
0.29471
0.294837
0.294674
0.294127
0.293081
0.291331
0.288987
0.286535
0.284218
0.282129
0.280596
0.280109
0.281865
0.282114
0.282395
0.282744
0.28316
0.283617
0.28408
0.284539
0.284991
0.285425
0.285825
0.286173
0.286448
0.286629
0.286689
0.286595
0.286303
0.285751
0.284863
0.283542
0.281688
0.279195
0.275886
0.272051
0.268395
0.265207
0.2625
0.260558
0.260047
0.278755
0.278988
0.279225
0.27948
0.279761
0.280044
0.280307
0.280545
0.280752
0.280908
0.280992
0.280978
0.280838
0.280537
0.280039
0.279297
0.278252
0.276829
0.27494
0.272477
0.26934
0.265427
0.260598
0.25533
0.250539
0.246552
0.243274
0.240947
0.240411
0.275636
0.275854
0.276051
0.276222
0.276366
0.276478
0.276547
0.276571
0.276538
0.276424
0.2762
0.275834
0.275288
0.27452
0.27348
0.272108
0.270333
0.268065
0.2652
0.261622
0.25722
0.251899
0.245545
0.238821
0.23287
0.228058
0.22417
0.221411
0.220803
0.272522
0.272729
0.272885
0.272972
0.272986
0.272934
0.272818
0.272637
0.272373
0.272
0.271483
0.27078
0.269847
0.268633
0.267076
0.265105
0.262634
0.259558
0.255757
0.251099
0.245456
0.238721
0.230793
0.222512
0.215274
0.209514
0.204895
0.201605
0.200866
0.269425
0.269625
0.269744
0.269748
0.269638
0.26943
0.269137
0.26876
0.268281
0.267665
0.266872
0.265854
0.264559
0.262927
0.260887
0.258357
0.255236
0.251405
0.246723
0.241035
0.234186
0.226034
0.216458
0.206441
0.197675
0.19072
0.18514
0.181158
0.180234
0.266354
0.266545
0.266625
0.26655
0.266323
0.265971
0.265517
0.264964
0.264287
0.263449
0.262403
0.261096
0.259469
0.257455
0.254976
0.251937
0.248225
0.243705
0.238215
0.231572
0.22358
0.214037
0.202756
0.190805
0.180184
0.171645
0.164714
0.159769
0.158578
0.263319
0.263506
0.263555
0.263407
0.263068
0.262579
0.261975
0.261262
0.260411
0.259376
0.258104
0.256539
0.254618
0.252266
0.249398
0.245911
0.241681
0.236555
0.230353
0.222862
0.213836
0.202991
0.190026
0.175993
0.163156
0.152499
0.143572
0.137196
0.135652
0.260329
0.260506
0.260516
0.260294
0.259853
0.259246
0.25852
0.257677
0.25668
0.255477
0.254011
0.252223
0.250048
0.247407
0.24421
0.240345
0.235678
0.230046
0.223249
0.215047
0.205149
0.193181
0.178702
0.162648
0.147409
0.134109
0.12227
0.113603
0.111614
0.257413
0.257635
0.257664
0.257388
0.256819
0.256051
0.255178
0.25421
0.25309
0.251749
0.250125
0.248156
0.245775
0.242902
0.239442
0.235278
0.230271
0.224246
0.216993
0.208254
0.1977
0.184869
0.169148
0.151309
0.133759
0.11764
0.102144
0.0894123
0.0853264
0.276467
0.261418
0.240137
0.213051
0.183144
0.154286
0.128578
0.105056
0.0835147
0.0594966
0.0348337
0.00509193
-0.0257782
-0.0548481
-0.0783642
-0.0939234
-0.101586
-0.103412
-0.102834
0.283555
0.272474
0.251936
0.223868
0.190475
0.155194
0.120613
0.0859916
0.0533755
0.016598
-0.0209063
-0.059436
-0.0966672
-0.129448
-0.15468
-0.17124
-0.180294
-0.184248
-0.185669
0.278954
0.268889
0.2495
0.22135
0.185792
0.145758
0.104172
0.0593394
0.0141607
-0.0319543
-0.0785213
-0.124398
-0.166906
-0.202913
-0.230066
-0.248068
-0.258567
-0.264015
-0.266728
0.269058
0.259065
0.241264
0.213616
0.175661
0.130723
0.0818915
0.0300779
-0.0236975
-0.0785124
-0.133459
-0.186594
-0.234457
-0.273692
-0.302478
-0.321331
-0.332591
-0.33896
-0.342583
0.256106
0.246883
0.230453
0.203049
0.163483
0.115201
0.0611237
0.00285301
-0.0585134
-0.12164
-0.18432
-0.243442
-0.294994
-0.335853
-0.365119
-0.384236
-0.396093
-0.403342
-0.407745
0.239048
0.230212
0.21497
0.188369
0.14846
0.0982302
0.0403348
-0.0236051
-0.091677
-0.161643
-0.230227
-0.293381
-0.34698
-0.388579
-0.418266
-0.438144
-0.451319
-0.460191
-0.466112
0.2182
0.208472
0.193497
0.167626
0.127986
0.0767495
0.016332
-0.0514438
-0.123977
-0.198039
-0.26942
-0.333426
-0.386167
-0.426112
-0.454292
-0.473297
-0.486312
-0.49537
-0.501496
0.194481
0.182884
0.166979
0.140971
0.101461
0.049894
-0.0115652
-0.0808999
-0.155087
-0.230154
-0.30118
-0.363261
-0.41316
-0.450383
-0.476696
-0.494842
-0.507785
-0.517059
-0.523473
0.168745
0.15491
0.137223
0.11011
0.0702857
0.0188218
-0.0423803
-0.111261
-0.184519
-0.257637
-0.325301
-0.38288
-0.428085
-0.461373
-0.484965
-0.501543
-0.513764
-0.522736
-0.528987
0.14184
0.12584
0.106034
0.0772487
0.036745
-0.0143949
-0.0744665
-0.141463
-0.211913
-0.280984
-0.343371
-0.395127
-0.435008
-0.464242
-0.485255
-0.500518
-0.512323
-0.521455
-0.528136
0.114713
0.0968397
0.0749537
0.0443566
0.00297838
-0.047794
-0.106254
-0.170326
-0.236309
-0.299226
-0.354203
-0.398345
-0.431487
-0.455411
-0.472541
-0.485057
-0.49484
-0.50248
-0.508032
0.0884579
0.0691439
0.0455092
0.0133827
-0.0287093
-0.0789187
-0.135336
-0.195674
-0.25605
-0.311695
-0.358622
-0.395161
-0.422025
-0.441235
-0.454985
-0.465067
-0.472917
-0.479041
-0.483414
0.064098
0.0438403
0.0189586
-0.0141266
-0.0564372
-0.105661
-0.159622
-0.215803
-0.270295
-0.318831
-0.358481
-0.388636
-0.410559
-0.426253
-0.437605
-0.44606
-0.452733
-0.458127
-0.462077
0.042387
0.0216323
-0.00399907
-0.0374424
-0.0793994
-0.127132
-0.178155
-0.229695
-0.277943
-0.319368
-0.352164
-0.376594
-0.394204
-0.406826
-0.416009
-0.422892
-0.428313
-0.43275
-0.435969
0.0238168
0.00292654
-0.0230178
-0.0562888
-0.0973465
-0.143072
-0.190702
-0.2373
-0.279396
-0.314371
-0.341442
-0.361456
-0.375994
-0.386607
-0.394502
-0.400538
-0.405338
-0.409329
-0.412236
0.00854143
-0.0122363
-0.0381638
-0.0708838
-0.110657
-0.154045
-0.198102
-0.239895
-0.276464
-0.306091
-0.328767
-0.34564
-0.358175
-0.367637
-0.374948
-0.380756
-0.385545
-0.389664
-0.392767
-0.00359964
-0.0241475
-0.0498798
-0.0818801
-0.120191
-0.161043
-0.201352
-0.23833
-0.2697
-0.294628
-0.313682
-0.328102
-0.339137
-0.347757
-0.354638
-0.360251
-0.364973
-0.36905
-0.372128
-0.0128685
-0.0331677
-0.058646
-0.0899293
-0.126797
-0.165141
-0.201808
-0.234323
-0.261177
-0.282298
-0.298609
-0.311299
-0.32137
-0.329526
-0.336232
-0.341811
-0.346554
-0.350624
-0.353689
-0.0196108
-0.0397127
-0.0649867
-0.0957263
-0.131412
-0.167596
-0.201106
-0.229849
-0.253041
-0.271193
-0.285428
-0.296832
-0.306188
-0.31399
-0.320545
-0.326069
-0.330793
-0.334827
-0.337865
-0.0242106
-0.0442139
-0.069432
-0.0999222
-0.134767
-0.169111
-0.199776
-0.225158
-0.245191
-0.260856
-0.273366
-0.28366
-0.292316
-0.299658
-0.305875
-0.311106
-0.315543
-0.319268
-0.322033
-0.0269308
-0.046958
-0.0723339
-0.10296
-0.137422
-0.170402
-0.19874
-0.221355
-0.23882
-0.252466
-0.263537
-0.27284
-0.280798
-0.287609
-0.293378
-0.298195
-0.302217
-0.305521
-0.307938
-0.0280041
-0.0481946
-0.0739901
-0.105156
-0.139685
-0.171772
-0.198288
-0.218669
-0.234028
-0.245953
-0.255698
-0.263979
-0.271116
-0.277231