/*--------------------------------*- C++ -*----------------------------------*\
| =========                 |                                                 |
| \\      /  F ield         | OpenFOAM: The Open Source CFD Toolbox           |
|  \\    /   O peration     | Version:  2312                                  |
|   \\  /    A nd           | Website:  www.openfoam.com                      |
|    \\/     M anipulation  |                                                 |
\*---------------------------------------------------------------------------*/
FoamFile
{
    version     2.0;
    format      ascii;
    arch        "LSB;label=32;scalar=64";
    class       volVectorField;
    location    "30.593086779677012";
    object      U;
}
// * * * * * * * * * * * * * * * * * * * * * * * * * * * * * * * * * * * * * //

dimensions      [0 1 -1 0 0 0 0];

internalField   nonuniform List<vector> 
21039
(
(0.913753 0.0474302 0)
(1.02607 0.0665029 0)
(1.00449 0.0295265 0)
(1.00176 0.0189317 0)
(1.0012 0.0139325 0)
(1.00079 0.010562 0)
(1.00055 0.00824566 0)
(1.0004 0.00661364 0)
(1.0003 0.00541497 0)
(1.00023 0.00450579 0)
(1.00018 0.00380063 0)
(1.00014 0.00324449 0)
(1.00011 0.00280038 0)
(1.00009 0.0024427 0)
(1.00007 0.00215332 0)
(1.00006 0.00191906 0)
(1.00005 0.0017302 0)
(1.00003 0.00157936 0)
(1.00003 0.00146079 0)
(1.00002 0.00136983 0)
(1.00001 0.00130251 0)
(1.00001 0.00125669 0)
(1 0.00123374 0)
(1 0.00121374 0)
(1 0.00119988 0)
(1 0.00118932 0)
(1.00001 0.00117804 0)
(1.00001 0.00115651 0)
(1.00001 0.0011042 0)
(0.794517 0.0730636 0)
(1.07449 0.121726 0)
(1.03986 0.0709204 0)
(1.01808 0.0497972 0)
(1.01126 0.0384047 0)
(1.00761 0.0296483 0)
(1.00535 0.0233778 0)
(1.00393 0.0188304 0)
(1.00297 0.0154054 0)
(1.0023 0.0127615 0)
(1.00181 0.0106822 0)
(1.00144 0.00902083 0)
(1.00117 0.00767653 0)
(1.00095 0.00657887 0)
(1.00077 0.00567751 0)
(1.00063 0.0049358 0)
(1.00051 0.0043266 0)
(1.0004 0.0038295 0)
(1.00031 0.00342888 0)
(1.00024 0.00311246 0)
(1.00017 0.00286997 0)
(1.00012 0.00269469 0)
(1.00007 0.00259001 0)
(1.00004 0.0025211 0)
(1.00003 0.00248906 0)
(1.00003 0.00247712 0)
(1.00004 0.00247219 0)
(1.00005 0.0024562 0)
(1.00006 0.00240178 0)
(0.667252 0.05729 0)
(1.08296 0.124864 0)
(1.08429 0.0904026 0)
(1.04622 0.0678089 0)
(1.02899 0.0543281 0)
(1.02017 0.0434069 0)
(1.01461 0.0351436 0)
(1.0109 0.0288081 0)
(1.00834 0.0238271 0)
(1.00652 0.0198693 0)
(1.00518 0.016689 0)
(1.00417 0.0141037 0)
(1.0034 0.0119823 0)
(1.00278 0.0102291 0)
(1.00229 0.00877425 0)
(1.00188 0.00756544 0)
(1.00154 0.00656359 0)
(1.00124 0.00573902 0)
(1.00099 0.005069 0)
(1.00077 0.00453582 0)
(1.00057 0.00412486 0)
(1.0004 0.0038253 0)
(1.00025 0.00364198 0)
(1.00014 0.00353246 0)
(1.00009 0.00348981 0)
(1.00006 0.00348133 0)
(1.00006 0.00348513 0)
(1.00008 0.00347829 0)
(1.00009 0.00343091 0)
(0.540905 0.0352753 0)
(1.0506 0.110889 0)
(1.11577 0.0971408 0)
(1.07598 0.0764465 0)
(1.04909 0.0623298 0)
(1.03511 0.0512714 0)
(1.02625 0.0426525 0)
(1.02008 0.0356836 0)
(1.01565 0.029962 0)
(1.0124 0.0252621 0)
(1.00997 0.0213798 0)
(1.00811 0.0181511 0)
(1.00666 0.0154516 0)
(1.0055 0.013186 0)
(1.00455 0.011281 0)
(1.00377 0.00968039 0)
(1.0031 0.008341 0)
(1.00253 0.00722946 0)
(1.00203 0.00631994 0)
(1.00158 0.00559233 0)
(1.00119 0.0050302 0)
(1.00083 0.00462018 0)
(1.00051 0.00436829 0)
(1.00029 0.00422729 0)
(1.00015 0.00417965 0)
(1.00007 0.00417808 0)
(1.00005 0.00419316 0)
(1.00006 0.00419787 0)
(1.00007 0.00415794 0)
(0.444033 0.0186744 0)
(0.997487 0.0919258 0)
(1.12877 0.095773 0)
(1.10121 0.0796477 0)
(1.06799 0.0656531 0)
(1.04951 0.0550315 0)
(1.03799 0.0467072 0)
(1.02977 0.0397369 0)
(1.02367 0.0338316 0)
(1.01907 0.0288422 0)
(1.01554 0.0246101 0)
(1.01279 0.0210075 0)
(1.0106 0.0179344 0)
(1.00883 0.0153104 0)
(1.00737 0.0130711 0)
(1.00614 0.0111657 0)
(1.00509 0.00955397 0)
(1.00417 0.0082043 0)
(1.00336 0.00709188 0)
(1.00264 0.00619733 0)
(1.00198 0.00550494 0)
(1.00138 0.00500094 0)
(1.00085 0.00469307 0)
(1.00045 0.00453114 0)
(1.00019 0.0044863 0)
(1.00005 0.00449826 0)
(0.999995 0.00453106 0)
(0.999994 0.00455348 0)
(0.999995 0.0045242 0)
(0.378459 0.00810797 0)
(0.939376 0.0718799 0)
(1.12663 0.0883861 0)
(1.1205 0.0787758 0)
(1.08516 0.0660798 0)
(1.0627 0.0561501 0)
(1.04891 0.0483432 0)
(1.03909 0.041657 0)
(1.03165 0.0358582 0)
(1.02591 0.0308428 0)
(1.02142 0.0264909 0)
(1.01784 0.0227084 0)
(1.01494 0.0194207 0)
(1.01256 0.0165656 0)
(1.01057 0.0140926 0)
(1.00887 0.0119605 0)
(1.00739 0.0101365 0)
(1.0061 0.00859452 0)
(1.00494 0.00731387 0)
(1.00388 0.0062785 0)
(1.00292 0.00547572 0)
(1.00203 0.00489341 0)
(1.00122 0.00454219 0)
(1.00061 0.00437047 0)
(1.00021 0.00433776 0)
(0.999977 0.00437174 0)
(0.999877 0.00443044 0)
(0.999853 0.00447828 0)
(0.999835 0.00446488 0)
(0.333234 0.00233773 0)
(0.883055 0.0538485 0)
(1.11361 0.077882 0)
(1.13344 0.0748903 0)
(1.10045 0.0643938 0)
(1.07486 0.0553704 0)
(1.059 0.0482034 0)
(1.04785 0.0419664 0)
(1.03934 0.0364378 0)
(1.03267 0.0315464 0)
(1.02735 0.0272121 0)
(1.02305 0.0233729 0)
(1.01951 0.0199771 0)
(1.01655 0.0169809 0)
(1.01403 0.0143479 0)
(1.01186 0.0120484 0)
(1.00996 0.0100587 0)
(1.00825 0.0083602 0)
(1.00671 0.00693835 0)
(1.00529 0.00578233 0)
(1.00398 0.0048842 0)
(1.00276 0.00423536 0)
(1.00163 0.00385056 0)
(1.00076 0.00367819 0)
(1.00018 0.00366599 0)
(0.99984 0.00373011 0)
(0.999675 0.00382303 0)
(0.999614 0.00390475 0)
(0.999563 0.00391418 0)
(0.300949 -0.000191404 0)
(0.831355 0.0395507 0)
(1.09338 0.0669037 0)
(1.14005 0.0693533 0)
(1.11335 0.061368 0)
(1.08599 0.0533233 0)
(1.0683 0.0467936 0)
(1.05604 0.0410601 0)
(1.04668 0.0358793 0)
(1.03924 0.0311934 0)
(1.03323 0.0269563 0)
(1.0283 0.0231342 0)
(1.02419 0.0196963 0)
(1.0207 0.0166159 0)
(1.0177 0.0138705 0)
(1.01507 0.0114423 0)
(1.01272 0.00931704 0)
(1.01061 0.00748451 0)
(1.00866 0.00593751 0)
(1.00685 0.00467174 0)
(1.00515 0.00368544 0)
(1.00355 0.00297513 0)
(1.00206 0.00256072 0)
(1.00089 0.00239222 0)
(1.0001 0.00240598 0)
(0.999616 0.00250648 0)
(0.999365 0.00264101 0)
(0.999246 0.00276527 0)
(0.999144 0.00280604 0)
(0.278011 -0.000988781 0)
(0.785782 0.0290256 0)
(1.06923 0.0568203 0)
(1.1412 0.0632164 0)
(1.12359 0.0576827 0)
(1.09598 0.0505953 0)
(1.07682 0.0446007 0)
(1.06364 0.0393147 0)
(1.05361 0.0344736 0)
(1.04557 0.0300109 0)
(1.039 0.0259006 0)
(1.03354 0.0221287 0)
(1.02893 0.0186811 0)
(1.02497 0.0155454 0)
(1.02151 0.0127121 0)
(1.01844 0.0101739 0)
(1.01568 0.0079264 0)
(1.01314 0.00596782 0)
(1.01078 0.004299 0)
(1.00855 0.0029233 0)
(1.00643 0.00184629 0)
(1.00441 0.00106973 0)
(1.00251 0.000620041 0)
(1.00099 0.000451812 0)
(0.999947 0.000492143 0)
(0.999291 0.000631547 0)
(0.998924 0.000810274 0)
(0.998721 0.000985172 0)
(0.998543 0.00107435 0)
(0.261634 -0.00103782 0)
(0.746719 0.021567 0)
(1.04372 0.0480565 0)
(1.1382 0.0570539 0)
(1.13134 0.0537346 0)
(1.1049 0.0475639 0)
(1.08467 0.0419907 0)
(1.0707 0.0370485 0)
(1.06014 0.032485 0)
(1.05164 0.0282147 0)
(1.04463 0.0242192 0)
(1.03874 0.0204955 0)
(1.0337 0.0170411 0)
(1.02933 0.0138544 0)
(1.02546 0.010936 0)
(1.02198 0.00828806 0)
(1.0188 0.00591492 0)
(1.01585 0.00382327 0)
(1.01306 0.00202206 0)
(1.0104 0.000521498 0)
(1.00784 -0.000665469 0)
(1.00535 -0.00152835 0)
(1.00299 -0.00203067 0)
(1.00108 -0.00221253 0)
(0.999734 -0.00215629 0)
(0.998865 -0.00198143 0)
(0.998347 -0.00175641 0)
(0.998027 -0.00153722 0)
(0.997744 -0.00141644 0)
(0.249497 -0.00082477 0)
(0.71366 0.016387 0)
(1.01846 0.0406401 0)
(1.13232 0.0511593 0)
(1.13694 0.0497208 0)
(1.11289 0.0444153 0)
(1.09202 0.0391786 0)
(1.07736 0.0344789 0)
(1.06637 0.0301149 0)
(1.05751 0.0259838 0)
(1.05015 0.0220664 0)
(1.04391 0.0183653 0)
(1.03852 0.0148849 0)
(1.03379 0.0116312 0)
(1.02955 0.00861221 0)
(1.0257 0.00583779 0)
(1.02213 0.00331995 0)
(1.01876 0.00107254 0)
(1.01555 -0.000889448 0)
(1.01244 -0.00254776 0)
(1.0094 -0.00387926 0)
(1.00641 -0.00486303 0)
(1.00354 -0.00545212 0)
(1.00118 -0.00567767 0)
(0.999479 -0.00562608 0)
(0.998345 -0.00542646 0)
(0.997624 -0.00515416 0)
(0.997138 -0.00487847 0)
(0.996706 -0.00472028 0)
(0.24008 -0.000572183 0)
(0.685759 0.0128004 0)
(0.994361 0.0344516 0)
(1.12454 0.0456862 0)
(1.14073 0.0457581 0)
(1.12007 0.0412466 0)
(1.09901 0.0362869 0)
(1.08377 0.0317448 0)
(1.07239 0.0275044 0)
(1.06326 0.0234535 0)
(1.05563 0.019568 0)
(1.04911 0.0158515 0)
(1.04343 0.0123123 0)
(1.03839 0.00896144 0)
(1.03383 0.0058122 0)
(1.02963 0.00288035 0)
(1.02569 0.000182933 0)
(1.02193 -0.00226108 0)
(1.0183 -0.00442836 0)
(1.01473 -0.0062913 0)
(1.01118 -0.00781813 0)
(1.00766 -0.0089776 0)
(1.00423 -0.00971087 0)
(1.00134 -0.010034 0)
(0.999228 -0.0100294 0)
(0.997761 -0.00983657 0)
(0.996767 -0.00953904 0)
(0.996043 -0.00921752 0)
(0.995395 -0.00901763 0)
(0.232506 -0.00036966 0)
(0.662174 0.0102702 0)
(0.971882 0.029313 0)
(1.11561 0.0406984 0)
(1.14305 0.0419252 0)
(1.12651 0.0381216 0)
(1.10573 0.0333958 0)
(1.09002 0.0289429 0)
(1.07832 0.0247575 0)
(1.06896 0.0207293 0)
(1.06112 0.0168268 0)
(1.05438 0.0130518 0)
(1.04847 0.00941392 0)
(1.04317 0.00592685 0)
(1.03833 0.00260741 0)
(1.03382 -0.00052614 0)
(1.02955 -0.00345287 0)
(1.02542 -0.00614692 0)
(1.02137 -0.00857724 0)
(1.01733 -0.0107084 0)
(1.01327 -0.0125008 0)
(1.00918 -0.0139136 0)
(1.00514 -0.0148762 0)
(1.00168 -0.0153831 0)
(0.999081 -0.015501 0)
(0.997203 -0.0153757 0)
(0.99585 -0.0150983 0)
(0.994798 -0.0147622 0)
(0.993848 -0.0145362 0)
(0.226264 -0.000234964 0)
(0.642166 0.00842141 0)
(0.951228 0.0250395 0)
(1.10609 0.0362001 0)
(1.14419 0.038271 0)
(1.13232 0.0350855 0)
(1.11225 0.0305621 0)
(1.09623 0.0261468 0)
(1.08424 0.0219582 0)
(1.0747 0.0179001 0)
(1.0667 0.0139333 0)
(1.0598 0.0100556 0)
(1.05371 0.00627571 0)
(1.04821 0.00260785 0)
(1.04314 -0.000931151 0)
(1.03838 -0.00432126 0)
(1.03381 -0.00753699 0)
(1.02933 -0.0105467 0)
(1.02488 -0.0133131 0)
(1.02039 -0.015794 0)
(1.01581 -0.0179424 0)
(1.01113 -0.0197101 0)
(1.00644 -0.0210171 0)
(1.00237 -0.0218329 0)
(0.999217 -0.0221936 0)
(0.996843 -0.0222415 0)
(0.995021 -0.0220703 0)
(0.99352 -0.0217851 0)
(0.99215 -0.021575 0)
(0.221027 -0.000158158 0)
(0.625117 0.00702265 0)
(0.932431 0.0214946 0)
(1.09637 0.0321934 0)
(1.14439 0.0348385 0)
(1.13752 0.0321714 0)
(1.11857 0.027822 0)
(1.1024 0.0234074 0)
(1.09018 0.01917 0)
(1.08049 0.0150369 0)
(1.07239 0.0109634 0)
(1.06538 0.0069412 0)
(1.05916 0.00297623 0)
(1.05352 -0.000919629 0)
(1.04827 -0.00473063 0)
(1.0433 -0.00843531 0)
(1.03847 -0.0120048 0)
(1.03369 -0.0154034 0)
(1.02886 -0.0185885 0)
(1.02393 -0.0215113 0)
(1.01883 -0.0241182 0)
(1.01356 -0.0263558 0)
(1.00824 -0.0281412 0)
(1.00356 -0.0294293 0)
(0.999875 -0.0302164 0)
(0.996974 -0.0306281 0)
(0.9946 -0.0307406 0)
(0.992521 -0.0306519 0)
(0.990584 -0.0305496 0)
(0.216938 -0.000108417 0)
(0.611576 0.00601704 0)
(0.916703 0.0187519 0)
(1.08753 0.028901 0)
(1.14403 0.0318976 0)
(1.14195 0.0296368 0)
(1.12435 0.0254323 0)
(1.10819 0.0210007 0)
(1.0958 0.0166925 0)
(1.08602 0.0124622 0)
(1.07787 0.00826032 0)
(1.07082 0.00407168 0)
(1.06454 -0.000102938 0)
(1.05883 -0.00425584 0)
(1.05349 -0.0083736 0)
(1.04838 -0.0124352 0)
(1.04338 -0.0164116 0)
(1.03836 -0.0202655 0)
(1.03324 -0.0239505 0)
(1.02793 -0.0274103 0)
(1.02237 -0.0305822 0)
(1.01657 -0.0334033 0)
(1.01067 -0.0357835 0)
(1.00549 -0.0376677 0)
(1.00137 -0.0390362 0)
(0.998032 -0.0400187 0)
(0.995128 -0.0406629 0)
(0.992372 -0.0410113 0)
(0.989656 -0.0411878 0)
(0.213941 -7.9787e-05 0)
(0.601632 0.00533205 0)
(0.90468 0.016785 0)
(1.08034 0.0264319 0)
(1.14343 0.0296329 0)
(1.14541 0.0276702 0)
(1.12913 0.0235762 0)
(1.11308 0.0191228 0)
(1.10061 0.0147464 0)
(1.09079 0.0104245 0)
(1.08263 0.00610232 0)
(1.07559 0.00175708 0)
(1.06932 -0.00261602 0)
(1.0636 -0.00701437 0)
(1.05825 -0.0114286 0)
(1.05309 -0.015841 0)
(1.048 -0.0202259 0)
(1.04286 -0.0245482 0)
(1.03755 -0.0287612 0)
(1.03197 -0.0328045 0)
(1.02607 -0.0366055 0)
(1.01984 -0.0400867 0)
(1.01347 -0.0431294 0)
(1.00791 -0.045639 0)
(1.00355 -0.0475964 0)
(1.00005 -0.0492153 0)
(0.996951 -0.0506256 0)
(0.993851 -0.0518558 0)
(0.990625 -0.0527546 0)
(0.211627 -3.57841e-05 0)
(0.594007 0.00486581 0)
(0.895186 0.0153582 0)
(1.07435 0.0245671 0)
(1.14268 0.0278881 0)
(1.14812 0.0261545 0)
(1.13309 0.0221571 0)
(1.11722 0.0176947 0)
(1.1047 0.013268 0)
(1.09487 0.0088732 0)
(1.08673 0.00445083 0)
(1.07973 -2.83323e-05 0)
(1.0735 -0.00457479 0)
(1.06782 -0.00919111 0)
(1.0625 -0.013873 0)
(1.05736 -0.0186088 0)
(1.05226 -0.0233791 0)
(1.04706 -0.0281545 0)
(1.04165 -0.032893 0)
(1.03592 -0.0375357 0)
(1.02978 -0.0420053 0)
(1.02322 -0.0462124 0)
(1.01646 -0.049995 0)
(1.01054 -0.053139 0)
(1.00597 -0.0555427 0)
(1.00249 -0.0574907 0)
(0.999683 -0.0593561 0)
(0.997235 -0.0615091 0)
(0.994536 -0.0634098 0)
(0.210164 -4.55062e-05 0)
(0.588764 0.00450334 0)
(0.888433 0.0143425 0)
(1.07001 0.0232521 0)
(1.14218 0.0266453 0)
(1.15028 0.0250388 0)
(1.13627 0.0210802 0)
(1.12059 0.0166032 0)
(1.10807 0.0121439 0)
(1.09826 0.00769725 0)
(1.09017 0.00319548 0)
(1.08324 -0.0013951 0)
(1.07709 -0.00608893 0)
(1.07149 -0.0108938 0)
(1.06623 -0.0158116 0)
(1.06116 -0.0208381 0)
(1.05611 -0.0259623 0)
(1.05095 -0.0311641 0)
(1.04555 -0.0364103 0)
(1.03978 -0.0416508 0)
(1.03356 -0.0468152 0)
(1.02687 -0.0518235 0)
(1.01995 -0.0565029 0)
(1.01387 -0.0604897 0)
(1.00917 -0.0634647 0)
(1.00566 -0.0654994 0)
(1.00303 -0.0666413 0)
(1.00127 -0.0676058 0)
(1.0013 -0.0721824 0)
(1.00001 0.00111677 0)
(1.00001 0.00112171 0)
(1.00001 0.00112165 0)
(1.00001 0.00112237 1.05177e-21)
(1.00001 0.00112499 5.24141e-21)
(1.00001 0.00112932 -9.42825e-21)
(1 0.00113518 5.23447e-21)
(1 0.00114248 -4.16616e-21)
(1 0.00115104 5.34508e-22)
(1 0.00116089 4.1619e-21)
(1 0.00117186 0)
(0.999998 0.00118391 -4.64568e-21)
(0.999997 0.00119696 5.29996e-22)
(0.999996 0.00121084 4.12206e-21)
(0.999995 0.00122555 0)
(0.999994 0.00124093 0)
(0.999993 0.00125691 -4.0738e-21)
(0.999992 0.00127338 4.07636e-21)
(0.999991 0.00129018 0)
(0.99999 0.00130728 -2.01807e-21)
(0.999989 0.00132453 2.14493e-21)
(0.999988 0.00134179 1.8789e-21)
(0.999987 0.00135902 -3.00374e-21)
(0.999987 0.00137604 9.67726e-22)
(0.999986 0.00139277 3.09759e-23)
(0.999986 0.00140912 -6.19039e-23)
(0.999985 0.00142494 8.60171e-22)
(0.999985 0.00144014 -9.83275e-22)
(0.999985 0.00145464 0)
(0.999985 0.00146832 0)
(0.999985 0.00148111 -2.42166e-22)
(0.999985 0.00149283 -2.41024e-22)
(0.999985 0.00150343 -4.06849e-21)
(0.999986 0.00151296 3.34855e-21)
(0.999986 0.00152126 -4.2652e-21)
(0.999987 0.00152832 4.25946e-21)
(0.999987 0.00153408 -3.28106e-21)
(0.999988 0.00153844 3.27999e-21)
(0.999989 0.00154142 4.64925e-22)
(0.99999 0.0015429 4.62404e-22)
(0.999992 0.00154289 -4.59852e-22)
(0.999993 0.00154134 0)
(0.999994 0.00153817 0)
(0.999996 0.00153344 0)
(0.999998 0.00152707 0)
(0.999999 0.00151914 0)
(1 0.0015095 1.77396e-21)
(1 0.00149756 -1.77088e-21)
(1 0.00147927 0)
(1.00005 0.00242027 0)
(1.00004 0.00243118 2.12406e-21)
(1.00003 0.00243901 -2.11502e-21)
(1.00001 0.00245042 -1.05498e-21)
(0.999999 0.00246658 -1.05495e-21)
(0.999986 0.00248688 -3.15202e-21)
(0.999974 0.002511 5.26228e-21)
(0.999962 0.00253895 0)
(0.999951 0.00257014 -5.22963e-22)
(0.99994 0.00260472 -1.04446e-21)
(0.99993 0.00264221 0)
(0.99992 0.00268244 5.19221e-22)
(0.999911 0.00272531 -4.65466e-21)
(0.999903 0.00277029 4.14043e-21)
(0.999895 0.00281738 0)
(0.999888 0.00286619 1.02851e-21)
(0.999882 0.00291643 0)
(0.999876 0.00296802 0)
(0.999872 0.00302043 0)
(0.999868 0.00307352 -2.02639e-21)
(0.999864 0.00312708 1.90072e-21)
(0.999862 0.00318068 -1.2628e-22)
(0.99986 0.00323414 0)
(0.999859 0.00328721 -4.68201e-22)
(0.999859 0.00333954 4.91734e-22)
(0.99986 0.0033909 9.31515e-23)
(0.999862 0.00344106 1.23615e-22)
(0.999864 0.0034897 0)
(0.999867 0.00353659 -1.95769e-21)
(0.999871 0.00358151 1.95725e-21)
(0.999876 0.0036242 -3.63752e-21)
(0.999882 0.00366441 7.98355e-21)
(0.999888 0.00370196 -3.62011e-21)
(0.999896 0.00373661 4.79152e-22)
(0.999903 0.0037681 4.76828e-22)
(0.999912 0.00379633 4.74857e-22)
(0.999921 0.00382102 -4.71991e-22)
(0.999931 0.00384198 4.2182e-21)
(0.999942 0.00385913 -3.27761e-21)
(0.999953 0.00387214 -1.39383e-21)
(0.999965 0.00388101 5.07421e-21)
(0.999978 0.00388549 -3.68372e-21)
(0.999991 0.00388537 -1.82741e-21)
(1.00001 0.00388071 3.6261e-21)
(1.00002 0.00387109 -7.22728e-21)
(1.00003 0.00385674 3.6002e-21)
(1.00005 0.0038374 1.78183e-21)
(1.00007 0.00381239 -4.69974e-24)
(1.00008 0.00377697 0)
(1.00007 0.00344848 3.19733e-21)
(1.00004 0.0034661 -1.06746e-21)
(0.999996 0.00348611 -4.24975e-21)
(0.999958 0.00351227 2.11692e-21)
(0.99992 0.00354584 -2.11616e-21)
(0.999884 0.003586 0)
(0.99985 0.00363235 -2.10319e-21)
(0.999818 0.00368506 -6.29465e-21)
(0.999787 0.00374297 6.29488e-21)
(0.999759 0.00380648 1.04409e-21)
(0.999732 0.0038747 0)
(0.999707 0.00394734 -6.23524e-21)
(0.999684 0.00402438 1.4026e-23)
(0.999664 0.00410474 4.14436e-21)
(0.999645 0.0041886 0)
(0.999628 0.00427523 -1.02751e-21)
(0.999614 0.00436412 -1.02704e-21)
(0.999602 0.00445533 0)
(0.999592 0.00454777 -1.02053e-21)
(0.999584 0.00464132 -2.02744e-21)
(0.999579 0.0047357 2.02806e-21)
(0.999575 0.00483009 -2.53103e-22)
(0.999574 0.00492428 -2.51591e-22)
(0.999576 0.00501789 0)
(0.999579 0.00511025 3.88868e-23)
(0.999585 0.00520107 -2.1746e-22)
(0.999593 0.00529002 0)
(0.999603 0.00537647 0)
(0.999616 0.0054601 -1.95741e-21)
(0.99963 0.0055406 1.95703e-21)
(0.999647 0.00561745 -3.87944e-21)
(0.999666 0.00569029 3.87815e-21)
(0.999686 0.00575884 0)
(0.999709 0.00582262 0)
(0.999734 0.00588131 0)
(0.999761 0.00593467 -9.48202e-22)
(0.999789 0.00598221 -1.88803e-21)
(0.999819 0.00602366 0)
(0.999851 0.00605886 -9.33441e-22)
(0.999885 0.00608721 -9.19968e-22)
(0.999921 0.00610874 2.77881e-21)
(0.999958 0.00612297 0)
(0.999997 0.00612958 3.64517e-21)
(1.00004 0.00612862 -5.45479e-21)
(1.00008 0.00611931 0)
(1.00012 0.00610199 0)
(1.00017 0.00607601 0)
(1.00021 0.00604062 -1.77496e-21)
(1.00026 0.00599222 -1.762e-21)
(1.00003 0.00417485 -2.13592e-21)
(0.999966 0.00420408 4.27484e-21)
(0.999892 0.00424211 4.26504e-21)
(0.999818 0.00428862 6.37066e-21)
(0.999745 0.00434527 -2.12891e-21)
(0.999676 0.0044111 -4.22376e-21)
(0.99961 0.00448568 8.4431e-21)
(0.999548 0.00456944 -5.15321e-24)
(0.999489 0.0046604 -2.0979e-21)
(0.999435 0.00475946 2.09994e-21)
(0.999384 0.0048651 0)
(0.999337 0.00497701 2.08193e-21)
(0.999294 0.00509527 -2.06751e-21)
(0.999256 0.0052181 8.29473e-21)
(0.999222 0.00534599 -8.2703e-21)
(0.999192 0.00547775 6.19623e-21)
(0.999166 0.00561264 -1.03386e-21)
(0.999145 0.00575101 1.02655e-21)
(0.999128 0.00589095 1.01942e-21)
(0.999115 0.00603247 -1.01974e-21)
(0.999107 0.00617527 0)
(0.999104 0.00631797 -1.51219e-21)
(0.999105 0.00646043 1.26374e-21)
(0.99911 0.00660212 1.00461e-21)
(0.99912 0.00674199 4.67751e-23)
(0.999134 0.0068797 9.30102e-23)
(0.999152 0.00701483 1.48427e-21)
(0.999175 0.00714638 -9.88122e-22)
(0.999202 0.00727397 1.95898e-21)
(0.999233 0.00739721 -1.95866e-21)
(0.999268 0.00751524 0)
(0.999308 0.00762767 4.83218e-21)
(0.999351 0.00773406 -3.86163e-21)
(0.999398 0.0078337 3.82447e-21)
(0.999449 0.00792622 -3.82306e-21)
(0.999504 0.00801122 0)
(0.999563 0.00808799 3.76289e-21)
(0.999624 0.00815624 -1.88493e-21)
(0.99969 0.00821564 0)
(0.999759 0.00826542 3.70495e-21)
(0.999831 0.00830561 -3.70068e-21)
(0.999907 0.00833549 1.83524e-21)
(0.999986 0.00835467 1.82545e-21)
(1.00007 0.00836318 5.44147e-21)
(1.00015 0.00835993 6.76698e-24)
(1.00024 0.00834539 3.59454e-21)
(1.00033 0.00831847 1.77816e-21)
(1.00043 0.00827835 1.76431e-21)
(1.00053 0.00822274 1.76283e-21)
(0.999925 0.00454334 0)
(0.999818 0.00459139 -4.27984e-21)
(0.9997 0.00465547 -4.26792e-21)
(0.999579 0.00473029 0)
(0.99946 0.00481817 -4.25197e-21)
(0.999346 0.00491799 1.25833e-23)
(0.999238 0.0050293 8.49797e-21)
(0.999135 0.00515288 -2.12812e-21)
(0.999039 0.00528578 -1.3033e-23)
(0.99895 0.00542956 -6.31468e-21)
(0.998867 0.00558194 0)
(0.99879 0.00574263 -6.28012e-21)
(0.998721 0.00591188 2.09888e-21)
(0.998659 0.00608698 0)
(0.998603 0.00626896 -2.08159e-21)
(0.998555 0.00645597 1.06811e-23)
(0.998514 0.0066471 -2.05992e-21)
(0.998481 0.00684302 7.19707e-21)
(0.998454 0.00704084 -1.53998e-23)
(0.998435 0.00724081 -1.03477e-21)
(0.998424 0.00744258 -1.01822e-21)
(0.99842 0.00764409 2.02248e-21)
(0.998423 0.00784536 -2.02277e-21)
(0.998434 0.00804568 -2.49626e-22)
(0.998451 0.00824351 5.17217e-22)
(0.998477 0.00843855 -2.7876e-22)
(0.998509 0.00863025 9.92258e-22)
(0.998549 0.00881717 -9.9019e-22)
(0.998595 0.00899891 9.85438e-22)
(0.998649 0.00917498 1.95312e-21)
(0.998709 0.00934415 -5.83936e-21)
(0.998777 0.00950601 -9.49671e-22)
(0.99885 0.00965993 5.79789e-21)
(0.998931 0.00980497 1.92098e-21)
(0.999017 0.00994072 -3.8078e-21)
(0.99911 0.0100666 3.80551e-21)
(0.999209 0.0101817 9.7568e-24)
(0.999314 0.0102856 5.63337e-21)
(0.999425 0.010378 -3.75354e-21)
(0.999541 0.0104579 -9.29076e-21)
(0.999663 0.0105252 3.69104e-21)
(0.99979 0.0105791 1.83407e-21)
(0.999923 0.0106191 7.2852e-21)
(1.00006 0.0106452 -3.63628e-21)
(1.0002 0.0106561 -1.08767e-23)
(1.00035 0.0106524 -1.19457e-23)
(1.00051 0.0106326 0)
(1.00067 0.0105959 -3.54147e-21)
(1.00084 0.0105417 -3.51096e-21)
(0.999728 0.00449073 0)
(0.999571 0.00456704 -6.4785e-21)
(0.999396 0.00466733 6.46645e-21)
(0.999216 0.00478064 0)
(0.999039 0.00491023 0)
(0.998868 0.00505477 -4.26772e-21)
(0.998704 0.00521384 -3.29114e-24)
(0.99855 0.00538865 -4.26479e-21)
(0.998405 0.0055751 -8.82565e-24)
(0.99827 0.00577562 0)
(0.998145 0.00598699 0)
(0.99803 0.00620899 2.09937e-21)
(0.997926 0.00644206 0)
(0.997832 0.00668243 0)
(0.997749 0.00693175 -2.08537e-21)
(0.997677 0.00718745 4.18092e-21)
(0.997615 0.00744838 2.08099e-21)
(0.997565 0.00771565 0)
(0.997526 0.00798515 2.04344e-21)
(0.997498 0.0082575 -5.1397e-21)
(0.997482 0.00853226 -2.04396e-21)
(0.997476 0.0088066 -2.03106e-21)
(0.997482 0.00908072 2.03125e-21)
(0.997499 0.0093537 1.43954e-24)
(0.997527 0.00962347 1.57487e-23)
(0.997566 0.00988976 2.49541e-22)
(0.997616 0.0101519 -4.99016e-22)
(0.997677 0.0104079 0)
(0.997749 0.0106574 -9.84189e-22)
(0.997831 0.0108997 0)
(0.997924 0.0111333 0)
(0.998027 0.0113576 -1.9464e-21)
(0.99814 0.0115719 -7.71947e-21)
(0.998263 0.011775 2.5567e-23)
(0.998395 0.0119664 1.91808e-21)
(0.998537 0.0121453 0)
(0.998688 0.0123106 -1.88734e-21)
(0.998847 0.012462 -3.76029e-21)
(0.999016 0.0125987 3.73155e-21)
(0.999193 0.0127198 7.42468e-21)
(0.999379 0.0128252 -7.37868e-21)
(0.999572 0.0129138 1.58491e-26)
(0.999774 0.012985 -3.6453e-21)
(0.999983 0.0130391 -3.09774e-24)
(1.0002 0.0130741 0)
(1.00042 0.0130911 -3.57793e-21)
(1.00066 0.013088 -1.77123e-21)
(1.0009 0.0130641 1.76993e-21)
(1.00116 0.0130217 3.51226e-21)
(0.999408 0.00395341 0)
(0.99919 0.00406989 4.33185e-21)
(0.998945 0.00421839 -1.30155e-20)
(0.998693 0.00438235 0)
(0.998442 0.00456649 0)
(0.998199 0.00476906 -8.62385e-21)
(0.997967 0.00498969 8.58608e-21)
(0.997747 0.0052301 -4.30342e-21)
(0.99754 0.00548481 -8.86903e-24)
(0.997347 0.00575733 4.27031e-21)
(0.997168 0.00604329 0)
(0.997004 0.0063426 0)
(0.996854 0.00665595 4.24703e-21)
(0.99672 0.00697825 0)
(0.996601 0.00731198 0)
(0.996497 0.00765366 -4.19008e-21)
(0.996409 0.00800189 1.67979e-23)
(0.996337 0.0083583 0)
(0.996281 0.00871736 2.06451e-21)
(0.996241 0.00908013 5.16065e-21)
(0.996217 0.00944604 -2.06742e-21)
(0.996209 0.00981138 0)
(0.996217 0.0101766 -1.0168e-21)
(0.996241 0.0105405 1.27004e-21)
(0.996281 0.0109003 -5.53489e-22)
(0.996338 0.0112559 -2.52158e-22)
(0.996409 0.0116064 4.95942e-22)
(0.996497 0.0119493 -9.97571e-22)
(0.9966 0.0122842 0)
(0.996718 0.0126102 -3.93988e-21)
(0.99685 0.0129252 5.87116e-21)
(0.996998 0.0132289 1.92327e-21)
(0.99716 0.0135202 -9.67383e-24)
(0.997336 0.0137975 1.91822e-21)
(0.997525 0.0140603 -1.92824e-21)
(0.997728 0.0143076 -3.79528e-21)
(0.997945 0.0145383 7.56489e-21)
(0.998173 0.0147516 -3.76351e-21)
(0.998414 0.0149469 7.48453e-21)
(0.998668 0.0151229 3.84903e-24)
(0.998932 0.0152797 7.37695e-21)
(0.999208 0.0154159 -3.6637e-21)
(0.999495 0.0155307 0)
(0.999793 0.0156247 -3.6133e-24)
(1.0001 0.0156954 7.17994e-21)
(1.00042 0.0157442 0)
(1.00075 0.0157685 0)
(1.0011 0.0157678 6.15116e-21)
(1.00147 0.0157486 8.76658e-22)
(0.998927 0.00286841 1.09683e-21)
(0.998634 0.00303988 7.70976e-21)
(0.998304 0.00325035 8.70951e-21)
(0.997962 0.00347897 -8.7724e-21)
(0.997621 0.00373252 0)
(0.997289 0.00400872 -1.23416e-23)
(0.996971 0.00430732 -4.3759e-21)
(0.996669 0.00463061 -4.35943e-21)
(0.996384 0.0049715 1.2971e-20)
(0.996118 0.00533475 -4.30949e-21)
(0.995871 0.00571461 0)
(0.995643 0.00611114 8.57708e-21)
(0.995436 0.00652527 -8.51977e-21)
(0.99525 0.00695042 3.00011e-23)
(0.995084 0.00739003 8.4777e-21)
(0.99494 0.00783951 -2.12907e-21)
(0.994818 0.00829721 -2.06554e-21)
(0.994717 0.00876529 4.20081e-21)
(0.994638 0.00923662 0)
(0.994581 0.00971278 -2.07115e-21)
(0.994546 0.010193 2.0716e-21)
(0.994534 0.0106726 2.05706e-21)
(0.994544 0.0111522 -2.05699e-21)
(0.994576 0.0116302 2.56466e-22)
(0.99463 0.0121034 3.16408e-23)
(0.994707 0.0125715 7.56134e-22)
(0.994805 0.0130334 -2.98585e-24)
(0.994924 0.0134859 0)
(0.995065 0.0139287 0)
(0.995227 0.0143605 -1.48252e-25)
(0.99541 0.0147789 -1.95024e-21)
(0.995613 0.0151833 3.92188e-21)
(0.995835 0.0155724 -3.88809e-21)
(0.996078 0.0159442 3.85084e-21)
(0.996338 0.0162983 -7.69806e-21)
(0.996618 0.0166333 1.88817e-23)
(0.996915 0.0169478 3.80023e-21)
(0.997229 0.017241 3.7529e-21)
(0.99756 0.0175122 -7.50002e-21)
(0.997907 0.0177597 -7.43722e-21)
(0.99827 0.0179837 -3.69973e-21)
(0.998647 0.0181826 -3.67307e-21)
(0.999039 0.0183555 0)
(0.999446 0.0185031 -3.6112e-21)
(0.999866 0.0186225 -1.29389e-23)
(1.0003 0.0187156 7.10773e-21)
(1.00075 0.0187788 -8.81417e-21)
(1.00122 0.0188124 1.73355e-21)
(1.00172 0.0188285 0)
(0.998237 0.00117647 0)
(0.997849 0.00141506 -8.82512e-21)
(0.997426 0.00169698 0)
(0.996975 0.00200412 8.78694e-21)
(0.996522 0.00234459 4.39885e-21)
(0.99608 0.00271372 -8.7885e-21)
(0.995654 0.00311058 1.31206e-20)
(0.995248 0.00353784 4.35084e-21)
(0.994866 0.00398666 -4.34226e-21)
(0.994507 0.00446344 0)
(0.994173 0.00496086 4.33308e-21)
(0.993866 0.00547914 -8.63918e-21)
(0.993585 0.00601941 4.33896e-21)
(0.993332 0.00657338 -4.27695e-21)
(0.993107 0.00714558 3.42336e-23)
(0.99291 0.00773015 4.27594e-21)
(0.992742 0.00832511 -8.50948e-21)
(0.992603 0.00893317 0)
(0.992494 0.00954544 4.20818e-21)
(0.992415 0.010164 -4.2081e-21)
(0.992365 0.0107879 -1.03974e-21)
(0.992345 0.0114112 0)
(0.992356 0.0120348 1.04047e-21)
(0.992396 0.0126568 2.57215e-22)
(0.992466 0.013273 -5.45541e-22)
(0.992567 0.0138831 7.6375e-22)
(0.992697 0.0144857 5.02187e-22)
(0.992856 0.015077 -1.00974e-21)
(0.993044 0.0156562 0)
(0.99326 0.0162221 -1.98376e-21)
(0.993504 0.0167715 3.96742e-21)
(0.993776 0.0173036 0)
(0.994074 0.0178169 1.94649e-21)
(0.994399 0.0183089 0)
(0.994748 0.0187788 3.84288e-21)
(0.995122 0.0192254 -7.6488e-21)
(0.99552 0.0196465 3.78333e-21)
(0.99594 0.0200413 -2.5842e-23)
(0.996383 0.0204091 3.71165e-21)
(0.996846 0.0207476 -3.72821e-21)
(0.99733 0.0210575 3.68562e-21)
(0.997833 0.0213364 7.31686e-21)
(0.998354 0.0215837 0)
(0.998894 0.0218001 0)
(0.999451 0.0219822 -7.16062e-21)
(1.00003 0.0221324 -1.41883e-20)
(1.00062 0.0222463 1.40764e-20)
(1.00124 0.0223251 -7.87125e-21)
(1.0019 0.0223885 7.78151e-21)
(0.997323 -0.00125362 0)
(0.996804 -0.000856735 9.02702e-21)
(0.996235 -0.000473651 9.00428e-21)
(0.995645 -0.000116992 1.34664e-20)
(0.995056 0.000321752 -1.34452e-20)
(0.994486 0.000804583 -4.44731e-21)
(0.993933 0.00132223 1.33964e-20)
(0.9934 0.00187891 -4.42506e-21)
(0.992894 0.0024627 4.42761e-21)
(0.992419 0.00308164 0)
(0.991976 0.00372623 8.85394e-21)
(0.991567 0.00439683 0)
(0.991192 0.0050948 -4.34073e-21)
(0.990853 0.00581006 -4.38495e-21)
(0.990551 0.00654827 5.70107e-23)
(0.990285 0.00730217 0)
(0.990058 0.00806939 4.31712e-21)
(0.989869 0.00885314 8.60676e-21)
(0.989719 0.00964271 0)
(0.989608 0.0104407 2.11803e-21)
(0.989537 0.0112455 -2.11733e-21)
(0.989506 0.0120503 -2.0964e-21)
(0.989515 0.012856 2.10818e-21)
(0.989564 0.0136599 -4.60657e-24)
(0.989653 0.0144573 -5.18295e-22)
(0.989782 0.0152475 -2.27861e-22)
(0.98995 0.0160285 -5.12137e-22)
(0.990157 0.0167959 1.0201e-21)
(0.990404 0.0175486 0)
(0.990688 0.0182846 1.99669e-21)
(0.991009 0.0190004 -3.97774e-21)
(0.991367 0.0196947 0)
(0.99176 0.0203656 0)
(0.992188 0.0210099 3.87951e-21)
(0.992649 0.0216265 -7.73144e-21)
(0.993142 0.0222141 3.85546e-21)
(0.993667 0.0227699 3.81969e-21)
(0.99422 0.0232927 0)
(0.994803 0.0237819 1.12319e-20)
(0.995412 0.0242345 -7.43375e-21)
(0.996046 0.0246516 -3.67492e-21)
(0.996705 0.0250304 1.44892e-25)
(0.997386 0.0253699 -7.24956e-21)
(0.99809 0.0256714 -7.17986e-21)
(0.998816 0.0259307 -7.12138e-21)
(0.999564 0.0261511 2.48128e-23)
(1.00034 0.026327 -3.09894e-23)
(1.00114 0.0264606 0)
(1.00199 0.0265823 -1.37767e-20)
(0.996139 -0.00453115 0)
(0.995461 -0.00407156 2.38133e-21)
(0.994709 -0.00355673 -1.12757e-20)
(0.993943 -0.00301664 -9.00899e-21)
(0.993178 -0.00239348 8.9943e-21)
(0.992429 -0.00175002 4.58822e-21)
(0.991706 -0.00111596 -4.44816e-21)
(0.991011 -0.000424519 0)
(0.990353 0.000319424 0)
(0.989736 0.00111189 9.01894e-21)
(0.989154 0.00193764 -8.86309e-21)
(0.988615 0.00279657 4.44268e-21)
(0.988119 0.00369023 -4.43899e-21)
(0.987669 0.00460647 4.43038e-21)
(0.987266 0.00555205 4.43021e-21)
(0.98691 0.00651801 -4.39051e-21)
(0.986605 0.00750146 -4.33465e-21)
(0.986348 0.00850601 -4.31344e-21)
(0.986143 0.00951911 4.31298e-21)
(0.985989 0.0105437 -4.31189e-21)
(0.985888 0.0115775 0)
(0.985839 0.0126124 2.14352e-21)
(0.985843 0.0136493 -2.10595e-21)
(0.9859 0.0146846 1.57692e-21)
(0.98601 0.0157129 0)
(0.986174 0.0167325 1.03875e-21)
(0.98639 0.0177411 0)
(0.986657 0.0187334 -1.01894e-21)
(0.986977 0.0197073 1.89583e-23)
(0.987347 0.0206606 1.42747e-23)
(0.987766 0.0215886 4.02563e-21)
(0.988234 0.0224894 0)
(0.988748 0.0233607 0)
(0.989309 0.0241983 0)
(0.989913 0.0250005 0)
(0.990558 0.025766 -7.69623e-21)
(0.991244 0.0264909 3.83237e-21)
(0.991968 0.027174 0)