/*--------------------------------*- C++ -*----------------------------------*\
| =========                 |                                                 |
| \\      /  F ield         | OpenFOAM: The Open Source CFD Toolbox           |
|  \\    /   O peration     | Version:  2312                                  |
|   \\  /    A nd           | Website:  www.openfoam.com                      |
|    \\/     M anipulation  |                                                 |
\*---------------------------------------------------------------------------*/
FoamFile
{
    version     2.0;
    format      ascii;
    arch        "LSB;label=32;scalar=64";
    class       volScalarField;
    location    "9.454355498971521";
    object      p;
}
// * * * * * * * * * * * * * * * * * * * * * * * * * * * * * * * * * * * * * //

dimensions      [0 2 -2 0 0 0 0];

internalField   nonuniform List<scalar> 
21039
(
0.579599
0.445505
0.403613
0.375424
0.35419
0.338219
0.325902
0.316137
0.30824
0.301761
0.296384
0.291878
0.288072
0.284834
0.282063
0.279675
0.277602
0.275791
0.274192
0.272765
0.271475
0.270294
0.26919
0.268195
0.267328
0.26655
0.265824
0.265121
0.26443
0.432242
0.39446
0.38078
0.362463
0.3458
0.332626
0.321997
0.313281
0.306086
0.300099
0.295078
0.290838
0.287236
0.284159
0.281516
0.279233
0.277249
0.275511
0.273975
0.272603
0.27136
0.270216
0.269145
0.26817
0.267311
0.266534
0.265808
0.265105
0.264413
0.342744
0.340455
0.342724
0.336049
0.327717
0.320035
0.312902
0.306505
0.300914
0.296072
0.29189
0.288281
0.285166
0.282474
0.28014
0.278112
0.276342
0.274786
0.273408
0.272174
0.271052
0.270014
0.269036
0.268134
0.267327
0.266587
0.26589
0.265211
0.264538
0.304551
0.306723
0.311302
0.310322
0.307821
0.304717
0.301038
0.297253
0.29363
0.290269
0.287218
0.284487
0.282065
0.279929
0.278053
0.276406
0.274959
0.273683
0.27255
0.271534
0.270607
0.269746
0.268928
0.268163
0.267461
0.266804
0.266171
0.265543
0.264911
0.279357
0.283366
0.289373
0.291209
0.29154
0.290937
0.289534
0.287746
0.285792
0.2838
0.281866
0.280048
0.278379
0.276869
0.275521
0.274325
0.27327
0.272339
0.271515
0.270777
0.270106
0.269481
0.268882
0.268305
0.267757
0.267219
0.266678
0.266121
0.265546
0.259504
0.26479
0.272261
0.276269
0.278417
0.279362
0.279436
0.279019
0.278295
0.277388
0.276401
0.275405
0.274446
0.273554
0.272745
0.272027
0.271397
0.27085
0.270377
0.269963
0.269595
0.269254
0.268926
0.268583
0.26822
0.26783
0.267406
0.266937
0.266423
0.246492
0.251534
0.258744
0.263837
0.267212
0.269305
0.270481
0.271088
0.271301
0.271254
0.271049
0.270761
0.270441
0.270126
0.269841
0.269599
0.269409
0.269269
0.269177
0.269123
0.269098
0.269086
0.269071
0.269009
0.268873
0.268664
0.268382
0.268023
0.267588
0.238919
0.243028
0.248874
0.253973
0.257842
0.260589
0.262504
0.263856
0.264793
0.265436
0.265882
0.266202
0.26645
0.266666
0.266876
0.267101
0.267352
0.267632
0.267942
0.268278
0.26863
0.268986
0.269334
0.269601
0.269734
0.269741
0.269632
0.269406
0.269071
0.234082
0.237284
0.241746
0.246388
0.250254
0.253229
0.25553
0.257352
0.258802
0.259973
0.260945
0.261779
0.262526
0.263222
0.263897
0.264571
0.265257
0.265962
0.26669
0.267438
0.268199
0.268963
0.269719
0.270364
0.270813
0.271076
0.271172
0.271106
0.270889
0.230323
0.232771
0.23618
0.240289
0.243968
0.246963
0.249436
0.251528
0.253317
0.254874
0.256257
0.257515
0.25869
0.259817
0.26092
0.262021
0.263132
0.264263
0.265418
0.266597
0.267795
0.269003
0.270213
0.271286
0.272096
0.272659
0.272998
0.273122
0.273047
0.226938
0.228781
0.231433
0.23503
0.238471
0.241418
0.243965
0.246217
0.248236
0.250075
0.251778
0.253384
0.254927
0.256436
0.257933
0.259436
0.26096
0.262513
0.264101
0.265725
0.267382
0.269067
0.270772
0.272323
0.273547
0.274455
0.275078
0.275426
0.275518
0.223613
0.225006
0.227123
0.230251
0.233444
0.236312
0.238885
0.241237
0.243418
0.245471
0.24743
0.249327
0.251187
0.253037
0.254895
0.256779
0.258702
0.260672
0.262695
0.264772
0.266905
0.269089
0.271325
0.273398
0.275083
0.276385
0.277335
0.277946
0.278235
0.220189
0.221268
0.223011
0.225736
0.22869
0.231462
0.234028
0.236439
0.238736
0.240955
0.243123
0.245264
0.247402
0.249557
0.251749
0.253992
0.2563
0.258679
0.261135
0.263669
0.266282
0.268978
0.271762
0.274387
0.27657
0.278309
0.279629
0.28054
0.281059
0.216599
0.217459
0.218934
0.221324
0.224058
0.226728
0.229268
0.231709
0.234088
0.236435
0.238771
0.241119
0.243499
0.245929
0.248429
0.251014
0.253693
0.256473
0.259357
0.262344
0.265435
0.268632
0.271953
0.275117
0.277799
0.279988
0.281705
0.282946
0.283726
0.212825
0.21353
0.214795
0.216891
0.219415
0.22198
0.224482
0.226935
0.22937
0.231813
0.234285
0.236805
0.239394
0.242071
0.244856
0.247762
0.2508
0.253973
0.257282
0.260719
0.264278
0.267952
0.271755
0.275377
0.278473
0.281049
0.283134
0.284709
0.285773
0.209194
0.209786
0.210884
0.212762
0.215119
0.217586
0.220046
0.2225
0.224972
0.227485
0.230059
0.232714
0.235473
0.23836
0.241394
0.24459
0.247958
0.251502
0.255217
0.259087
0.263083
0.267168
0.271319
0.275156
0.27834
0.280958
0.283112
0.284824
0.286084
0.206092
0.206607
0.207602
0.209343
0.211576
0.213961
0.216388
0.218846
0.221351
0.22392
0.226576
0.229341
0.232243
0.235307
0.238555
0.242007
0.245675
0.249565
0.253667
0.257955
0.262375
0.26684
0.271242
0.275041
0.277845
0.279822
0.281248
0.282384
0.283473
0.203501
0.203967
0.204891
0.206533
0.208674
0.211008
0.213432
0.215915
0.218461
0.221086
0.223817
0.226684
0.229716
0.232943
0.236391
0.240085
0.244043
0.248275
0.252772
0.257502
0.262392
0.267308
0.272034
0.275771
0.277875
0.278382
0.277579
0.276005
0.274822
0.201394
0.201908
0.202851
0.204394
0.206375
0.208614
0.211038
0.213569
0.216173
0.218864
0.221677
0.224649
0.227814
0.231204
0.234852
0.238789
0.243042
0.247626
0.252542
0.257759
0.263207
0.268729
0.274046
0.278101
0.279805
0.278631
0.274232
0.266006
0.253717
0.263748
0.263062
0.262382
0.261709
0.261041
0.260376
0.259713
0.259053
0.258393
0.257733
0.257073
0.256411
0.255746
0.255079
0.254407
0.253732
0.253051
0.252365
0.251673
0.250974
0.25027
0.249559
0.248841
0.248116
0.247386
0.246649
0.245905
0.245156
0.244402
0.243643
0.242878
0.24211
0.241338
0.240564
0.239787
0.23901
0.238232
0.237455
0.236679
0.235905
0.235135
0.23437
0.233609
0.232855
0.232108
0.231368
0.230638
0.229917
0.229206
0.263733
0.263056
0.262387
0.261724
0.261066
0.260411
0.259758
0.259107
0.258457
0.257807
0.257155
0.256502
0.255846
0.255186
0.254521
0.253852
0.253177
0.252495
0.251807
0.251112
0.25041
0.2497
0.248983
0.248258
0.247526
0.246787
0.246041
0.245288
0.244529
0.243764
0.242994
0.242219
0.24144
0.240658
0.239873
0.239087
0.238299
0.237512
0.236726
0.235941
0.23516
0.234383
0.23361
0.232844
0.232085
0.231334
0.230592
0.229859
0.229136
0.26388
0.263228
0.262583
0.261943
0.261307
0.260673
0.260042
0.259411
0.258779
0.258146
0.25751
0.256871
0.256227
0.255577
0.254922
0.254259
0.253589
0.252911
0.252224
0.251528
0.250823
0.250109
0.249386
0.248653
0.247911
0.24716
0.2464
0.245632
0.244857
0.244074
0.243285
0.24249
0.241689
0.240884
0.240076
0.239265
0.238452
0.237639
0.236826
0.236014
0.235204
0.234398
0.233596
0.2328
0.23201
0.231228
0.230455
0.229691
0.228937
0.264287
0.263672
0.263062
0.262455
0.26185
0.261246
0.260642
0.260036
0.259428
0.258815
0.258197
0.257574
0.256943
0.256303
0.255655
0.254997
0.254329
0.25365
0.252959
0.252257
0.251543
0.250816
0.250078
0.249328
0.248566
0.247793
0.247009
0.246215
0.245411
0.244597
0.243775
0.242946
0.242109
0.241267
0.24042
0.239569
0.238714
0.237858
0.237001
0.236144
0.235289
0.234436
0.233587
0.232742
0.231903
0.231071
0.230247
0.229431
0.228626
0.264989
0.264381
0.263824
0.263262
0.262698
0.262132
0.261562
0.260987
0.260406
0.259818
0.25922
0.258613
0.257995
0.257365
0.256723
0.256067
0.255397
0.254712
0.254012
0.253297
0.252567
0.251821
0.251059
0.250283
0.249492
0.248687
0.247867
0.247035
0.24619
0.245334
0.244466
0.243589
0.242703
0.241809
0.240908
0.240001
0.23909
0.238176
0.237259
0.236341
0.235423
0.234507
0.233593
0.232682
0.231777
0.230877
0.229984
0.229099
0.228224
0.26592
0.265428
0.264931
0.264369
0.263862
0.263344
0.262815
0.262275
0.261726
0.261165
0.26059
0.260001
0.259397
0.258775
0.258137
0.25748
0.256804
0.256109
0.255395
0.254661
0.253907
0.253133
0.25234
0.251528
0.250697
0.249849
0.248983
0.248101
0.247203
0.24629
0.245364
0.244425
0.243474
0.242514
0.241544
0.240567
0.239583
0.238594
0.237601
0.236605
0.235608
0.234612
0.233616
0.232623
0.231634
0.23065
0.229671
0.2287
0.227738
0.267157
0.26673
0.266295
0.265854
0.265403
0.264937
0.264418
0.263924
0.263415
0.262885
0.262334
0.261763
0.261171
0.260558
0.259921
0.25926
0.258575
0.257864
0.257129
0.256369
0.255584
0.254774
0.25394
0.253082
0.252201
0.251298
0.250373
0.249428
0.248463
0.24748
0.24648
0.245465
0.244435
0.243392
0.242337
0.241273
0.240199
0.239119
0.238033
0.236942
0.235849
0.234755
0.23366
0.232567
0.231476
0.23039
0.229308
0.228233
0.227168
0.26873
0.268391
0.26803
0.267655
0.267264
0.266858
0.266435
0.26599
0.265519
0.265019
0.264472
0.263922
0.263347
0.26274
0.262102
0.261432
0.260733
0.260002
0.25924
0.258446
0.257622
0.256767
0.255882
0.254968
0.254025
0.253055
0.252058
0.251037
0.249992
0.248924
0.247835
0.246727
0.245602
0.244459
0.243303
0.242133
0.240952
0.239762
0.238564
0.23736
0.236152
0.234941
0.233728
0.232516
0.231305
0.230098
0.228894
0.227698
0.226512
0.270656
0.270418
0.27015
0.269857
0.269541
0.269199
0.268829
0.26843
0.268001
0.26754
0.267049
0.266523
0.265958
0.265353
0.264696
0.264018
0.263302
0.262546
0.261751
0.260917
0.260046
0.259137
0.258191
0.25721
0.256195
0.255146
0.254065
0.252954
0.251813
0.250646
0.249452
0.248235
0.246996
0.245736
0.244458
0.243165
0.241857
0.240537
0.239206
0.237868
0.236523
0.235174
0.233823
0.23247
0.231118
0.22977
0.228424
0.227086
0.225761
0.272939
0.272818
0.272653
0.272456
0.272226
0.27196
0.271657
0.271314
0.270932
0.270509
0.270042
0.269532
0.268977
0.268378
0.267734
0.267044
0.266307
0.265515
0.264684
0.263807
0.262883
0.261914
0.260901
0.259844
0.258747
0.257608
0.25643
0.255216
0.253965
0.252682
0.251367
0.250021
0.248649
0.247252
0.245832
0.244392
0.242933
0.24146
0.239973
0.238475
0.23697
0.235457
0.233942
0.232424
0.230907
0.229392
0.22788
0.226377
0.224891
0.275556
0.275566
0.27552
0.27543
0.275297
0.275118
0.274891
0.274615
0.274288
0.27391
0.273478
0.272993
0.272454
0.27186
0.271212
0.270508
0.26975
0.268936
0.268068
0.267151
0.266174
0.265143
0.264058
0.262921
0.261734
0.260496
0.259212
0.257882
0.256507
0.255091
0.253636
0.252143
0.250616
0.249056
0.247469
0.245856
0.244218
0.242562
0.240888
0.2392
0.237502
0.235795
0.234083
0.232369
0.230654
0.228943
0.227234
0.225537
0.223862
0.278443
0.278599
0.278686
0.278719
0.278698
0.278619
0.278482
0.278285
0.278028
0.277708
0.277326
0.276881
0.276371
0.275798
0.27516
0.274457
0.273689
0.272857
0.271963
0.271002
0.269984
0.268898
0.267745
0.266529
0.265252
0.263911
0.262512
0.261056
0.259542
0.257977
0.25636
0.254695
0.252987
0.251235
0.249446
0.247625
0.24577
0.243891
0.241989
0.240069
0.238135
0.236189
0.234237
0.232282
0.230328
0.228378
0.226433
0.224503
0.222602
0.281463
0.281782
0.282021
0.282197
0.282307
0.282351
0.282327
0.282234
0.282073
0.28184
0.281537
0.281161
0.280712
0.28019
0.279593
0.278922
0.278174
0.277352
0.276455
0.275478
0.274426
0.273316
0.272108
0.270822
0.26946
0.268017
0.266501
0.26491
0.263244
0.261509
0.259707
0.257839
0.255913
0.253928
0.251893
0.249812
0.247687
0.245528
0.243338
0.241123
0.23889
0.236641
0.234387
0.232129
0.229874
0.227626
0.225387
0.22317
0.220993
0.284352
0.284852
0.285266
0.285614
0.285891
0.2861
0.286238
0.286302
0.286295
0.286209
0.286047
0.285803
0.285476
0.285068
0.284572
0.283991
0.283318
0.282558
0.281711
0.280767
0.27973
0.278602
0.277379
0.276052
0.274623
0.273091
0.27146
0.269729
0.267894
0.265966
0.263944
0.26183
0.259635
0.257356
0.255005
0.252589
0.25011
0.247583
0.245011
0.242405
0.239775
0.237125
0.23447
0.231812
0.229164
0.226531
0.223914
0.221334
0.218811
0.286646
0.287337
0.287955
0.288525
0.28904
0.289504
0.289907
0.290243
0.290507
0.290687
0.290782
0.29078
0.290684
0.29049
0.290192
0.289795
0.289287
0.288673
0.287955
0.287117
0.286166
0.285097
0.283909
0.282585
0.281128
0.279529
0.277795
0.275921
0.273902
0.27175
0.269462
0.267041
0.2645
0.261838
0.25907
0.256205
0.253247
0.250217
0.247121
0.243976
0.240796
0.237589
0.234379
0.231172
0.227987
0.224833
0.221717
0.218663
0.215698
0.287167
0.287999
0.288857
0.289781
0.290735
0.291694
0.292613
0.29346
0.294215
0.294851
0.29537
0.295756
0.296018
0.296156
0.296164
0.296053
0.29581
0.295444
0.294954
0.294319
0.293548
0.292629
0.291548
0.290309
0.288885
0.287267
0.285461
0.283458
0.281248
0.278844
0.276243
0.273448
0.270476
0.267324
0.264017
0.260565
0.256977
0.253281
0.249486
0.245617
0.241695
0.237735
0.233771
0.229816
0.225905
0.222058
0.218292
0.214645
0.211154
0.284692
0.285555
0.286836
0.288527
0.290413
0.29233
0.294142
0.295781
0.297216
0.29843
0.299445
0.300262
0.30091
0.301405
0.301749
0.301964
0.302037
0.30198
0.301794
0.301446
0.300945
0.300271
0.299397
0.298334
0.297028
0.295466
0.293652
0.291566
0.289192
0.286545
0.283619
0.280418
0.276966
0.273263
0.269341
0.265219
0.260907
0.256447
0.251849
0.247145
0.242361
0.237513
0.232646
0.227778
0.222959
0.218228
0.213634
0.209254
0.205158
0.274486
0.275751
0.279294
0.283744
0.288076
0.29191
0.295122
0.297755
0.299899
0.301628
0.303043
0.304189
0.305133
0.305916
0.306551
0.307075
0.307474
0.307765
0.307947
0.307972
0.307845
0.307533
0.306988
0.306202
0.305129
0.303724
0.30198
0.299865
0.297354
0.294465
0.291189
0.287535
0.283538
0.279202
0.274575
0.269687
0.264559
0.259245
0.253763
0.248152
0.242438
0.236633
0.230776
0.224867
0.218949
0.21306
0.207281
0.201809
0.196924
0.244459
0.255745
0.268857
0.279611
0.287603
0.293389
0.29757
0.300668
0.303034
0.304885
0.306389
0.307623
0.308678
0.309602
0.310424
0.311189
0.311882
0.312525
0.313108
0.313567
0.313895
0.314039
0.313928
0.313539
0.312813
0.311677
0.310107
0.308049
0.305464
0.302372
0.298765
0.294659
0.290103
0.285115
0.279762
0.274091
0.268137
0.261976
0.255636
0.249168
0.242604
0.23595
0.229228
0.222394
0.21542
0.20823
0.200751
0.193052
0.185737
0.228515
0.227814
0.227085
0.226322
0.225516
0.224669
0.223812
0.223062
0.2225
0.222155
0.222057
0.222246
0.222758
0.22364
0.224943
0.226732
0.229083
0.232096
0.235896
0.24065
0.246582
0.254004
0.263361
0.275332
0.291014
0.312015
0.340025
0.381767
0.515749
0.228431
0.227714
0.226965
0.226179
0.225342
0.224457
0.223556
0.222759
0.222147
0.22175
0.221599
0.221727
0.222169
0.222968
0.224173
0.225841
0.228041
0.230859
0.234402
0.238808
0.244257
0.250986
0.2593
0.26959
0.28248
0.29891
0.317047
0.330583
0.368265
0.2282
0.227448
0.226656
0.225815
0.224912
0.223946
0.222947
0.222039
0.221311
0.220792
0.220507
0.220485
0.220757
0.221358
0.222326
0.223703
0.225539
0.22789
0.230822
0.23441
0.238733
0.243874
0.249887
0.256694
0.264104
0.272212
0.27871
0.276298
0.278492
0.227835
0.227022
0.226159
0.225233
0.224228
0.223137
0.221986
0.220909
0.220004
0.219295
0.218805
0.218556
0.218572
0.218877
0.219492
0.220444
0.221755
0.223446
0.225533
0.228022
0.230894
0.234096
0.237522
0.240899
0.243752
0.246046
0.246865
0.242155
0.239893
0.22736
0.226465
0.225505
0.224465
0.223323
0.222067
0.220717
0.21942
0.218287
0.21734
0.216595
0.216068
0.215775
0.215727
0.215934
0.216402
0.217133
0.218117
0.219336
0.220752
0.222298
0.22387
0.225337
0.226472
0.226855
0.226348
0.22438
0.218269
0.214179
0.226783
0.225785
0.224705
0.223523
0.222211
0.220751
0.21916
0.2176
0.2162
0.214978
0.213944
0.21311
0.212481
0.212062
0.21185
0.211839
0.212012
0.212347
0.212805
0.213331
0.213847
0.214244
0.21439
0.214095
0.212973
0.210693
0.206596
0.199055
0.1937
0.226103
0.224981
0.223757
0.222404
0.220889
0.219189
0.217316
0.215454
0.213753
0.212227
0.210883
0.209726
0.208756
0.20797
0.207356
0.206898
0.206573
0.206346
0.206173
0.205991
0.20572
0.205247
0.204434
0.203097
0.200886
0.197437
0.192309
0.185068
0.17997
0.225317
0.224048
0.222653
0.221099
0.219347
0.217369
0.215173
0.212974
0.210943
0.209092
0.207426
0.205944
0.20464
0.203503
0.202518
0.201663
0.200906
0.200209
0.199523
0.198783
0.197911
0.196799
0.195322
0.193323
0.19053
0.186657
0.181587
0.17575
0.171597
0.224414
0.222973
0.221377
0.219589
0.217564
0.215266
0.212709
0.210139
0.207756
0.205568
0.203576
0.201775
0.200155
0.198698
0.197385
0.196187
0.195072
0.193997
0.192914
0.191762
0.190469
0.188947
0.187096
0.184803
0.18187
0.178084
0.17354
0.169127
0.165892
0.223367
0.221725
0.219896
0.217837
0.215498
0.21284
0.20988
0.206909
0.204156
0.201626
0.199315
0.197213
0.195303
0.193566
0.191975
0.190499
0.189103
0.187746
0.186381
0.184954
0.183406
0.181666
0.179659
0.177302
0.17445
0.170945
0.167009
0.163685
0.161215
0.22213
0.220253
0.218153
0.21578
0.21308
0.210015
0.206613
0.203214
0.200081
0.197212
0.194599
0.192223
0.190063
0.188094
0.186283
0.184597
0.183
0.181451
0.179908
0.178321
0.176642
0.174815
0.17278
0.17047
0.167782
0.164618
0.161272
0.158741
0.156883
0.220624
0.218469
0.216051
0.213313
0.210199
0.206679
0.202794
0.198948
0.195434
0.192244
0.189357
0.186748
0.184387
0.182244
0.180277
0.178453
0.176732
0.175075
0.173441
0.171786
0.170068
0.168241
0.166256
0.164059
0.161578
0.158773
0.155973
0.154011
0.152611
0.218715
0.216229
0.213434
0.21027
0.206685
0.202659
0.198261
0.193961
0.190085
0.186608
0.183496
0.180711
0.178213
0.175961
0.173912
0.172024
0.170258
0.168571
0.166924
0.165278
0.163594
0.161835
0.159959
0.157922
0.155675
0.153225
0.150904
0.149348
0.148267
0.216165
0.213279
0.210038
0.206382
0.202267
0.197696
0.192774
0.188046
0.183855
0.180155
0.176891
0.174011
0.171459
0.169183
0.167135
0.165266
0.163533
0.161894
0.160309
0.158741
0.157155
0.15552
0.153799
0.151956
0.149958
0.147847
0.145936
0.144673
0.143813
0.212591
0.209221
0.205457
0.201243
0.19656
0.19144
0.186031
0.180949
0.176539
0.17272
0.169414
0.166547
0.164046
0.16185
0.159898
0.158139
0.156525
0.155012
0.153561
0.152137
0.150706
0.149241
0.147711
0.146084
0.144346
0.142564
0.141013
0.139977
0.139264
0.207519
0.203623
0.199329
0.194594
0.189427
0.183892
0.178171
0.172923
0.168473
0.164706
0.161514
0.158801
0.15648
0.154476
0.152723
0.151165
0.149749
0.148432
0.147175
0.145943
0.144706
0.143438
0.142113
0.140709
0.139223
0.137724
0.136456
0.135597
0.134983
0.200943
0.196533
0.191828
0.186778
0.181382
0.175705
0.169943
0.164768
0.160478
0.156928
0.153988
0.151543
0.149495
0.147762
0.146271
0.144962
0.143786
0.142696
0.141655
0.140629
0.139589
0.138511
0.13738
0.136184
0.134927
0.133664
0.132602
0.131871
0.131327
0.192197
0.187558
0.182931
0.178035
0.172791
0.167276
0.161721
0.156815
0.152835
0.14962
0.147022
0.144916
0.143195
0.141771
0.140571
0.139534
0.138609
0.137754
0.13693
0.136107
0.135254
0.13435
0.13338
0.132352
0.131286
0.130226
0.129339
0.12872
0.128234
0.180003
0.176523
0.173024
0.168834
0.16408
0.158958
0.153785
0.149282
0.145709
0.142899
0.140694
0.13896
0.137585
0.136482
0.135576
0.134807
0.134127
0.133495
0.132876
0.13224
0.131555
0.130795
0.129957
0.129088
0.128254
0.127459
0.126746
0.126162
0.125656
0.199267
0.19956
0.200328
0.201906
0.204088
0.206538
0.209093
0.211692
0.214346
0.217101
0.220002
0.223088
0.226394
0.229956
0.233811
0.237996
0.242545
0.247481
0.25281
0.258509
0.264513
0.270659
0.276627
0.281178
0.282836
0.280316
0.271995
0.255461
0.222226
0.197139
0.197559
0.198443
0.200011
0.202116
0.2045
0.207029
0.209645
0.212357
0.2152
0.218213
0.221434
0.224899
0.228649
0.232725
0.237173
0.242032
0.247336
0.253105
0.259339
0.266015
0.273039
0.280186
0.286294
0.289999
0.290473
0.287149
0.281338
0.284917
0.194963
0.195467
0.196437
0.198002
0.200044
0.202361
0.204844
0.207453
0.210197
0.213104
0.216205
0.219534
0.223132
0.227043
0.231317
0.236005
0.241164
0.246844
0.253098
0.259978
0.267556
0.275922
0.285223
0.294771
0.303809
0.312219
0.321039
0.327535
0.343291
0.192714
0.193195
0.19414
0.195694
0.197748
0.20008
0.202568
0.205182
0.207948
0.210897
0.214059
0.217471
0.221175
0.225221
0.229663
0.234567
0.240002
0.246045
0.252786
0.26035
0.268928
0.278824
0.290723
0.304308
0.319527
0.335384
0.354886
0.372521
0.394662
0.190395
0.190839
0.191732
0.19326
0.195322
0.197677
0.20018
0.202807
0.20559
0.208567
0.211774
0.215248
0.219035
0.223188
0.22777
0.232853
0.238526
0.244887
0.252063
0.26025
0.269756
0.280991
0.295267
0.312057
0.33244
0.352968
0.378978
0.406513
0.436728
0.188008
0.188432
0.189291
0.190783
0.192822
0.195166
0.197665
0.200292
0.203081
0.206072
0.209304
0.212816
0.216657
0.220883
0.225562
0.230776
0.236623
0.243226
0.250729
0.259391
0.269629
0.281711
0.29768
0.316073
0.339152
0.364953
0.393943
0.424782
0.456771
0.185548
0.185959
0.186793
0.188245
0.190239
0.192547
0.19502
0.197628
0.200403
0.203387
0.206618
0.210139
0.213997
0.218252
0.222976
0.228255
0.234195
0.240937
0.248613
0.25753
0.268246
0.280446
0.297171
0.317922
0.341871
0.368484
0.396606
0.425457
0.455141
0.183011
0.183406
0.184212
0.185619
0.187558
0.189815
0.192245
0.194814
0.197554
0.200505
0.203706
0.207199
0.211034
0.215268
0.219976
0.225243
0.231172
0.237937
0.245598
0.254494
0.26502
0.278006
0.294772
0.31565
0.338755
0.3635
0.388884
0.414311
0.439665
0.180395
0.180773
0.181547
0.182901
0.184774
0.186968
0.189336
0.191848
0.19453
0.197421
0.20056
0.203988
0.207753
0.211913
0.216537
0.221713
0.22751
0.234168
0.241593
0.250357
0.260801
0.273564
0.289564
0.308893
0.329828
0.351613
0.373477
0.395058
0.415549
0.177699
0.178059
0.1788
0.180094
0.18189
0.184003
0.186294
0.188727
0.191326
0.19413
0.197175
0.200499
0.204148
0.208174
0.212645
0.217652
0.223186
0.229549
0.236838
0.245194
0.255091
0.26691
0.281429
0.298422
0.316385
0.334551
0.35232
0.369717
0.385669
0.174921
0.175263
0.175966
0.177193
0.178903
0.180923
0.183119
0.185454
0.187948
0.190637
0.193554
0.196735
0.200221
0.204059
0.208304
0.213037
0.218317
0.224296
0.231135
0.23886
0.247843
0.258353
0.270941
0.285193
0.299762
0.313966
0.327385
0.340376
0.352005
0.172063
0.172386
0.173049
0.174206
0.17582
0.177734
0.179818
0.182033
0.184399
0.186946
0.189705
0.192706
0.195985
0.199583
0.20355
0.207958
0.212865
0.21836
0.224533
0.231444
0.23931
0.2483
0.258702
0.269999
0.281058
0.291351
0.300639
0.309444
0.317108
0.169131
0.169438
0.170063
0.171145
0.172652
0.174442
0.176394
0.178469
0.180683
0.183063
0.185633
0.188419
0.191451
0.194765
0.198401
0.202412
0.206838
0.211739
0.217149
0.223112
0.229729
0.237058
0.245165
0.253493
0.261197
0.267936
0.273639
0.27887
0.283223
0.166124
0.166412
0.166991
0.167993
0.169388
0.171048
0.172858
0.174775
0.176818
0.179008
0.181363
0.183904
0.186655
0.189641
0.192892
0.196443
0.200315
0.20454
0.209119
0.214046
0.219335
0.22495
0.230793
0.236337
0.241049
0.244776
0.247588
0.250033
0.251916
0.163051
0.16332
0.163853
0.164771
0.166048
0.167567
0.169221
0.170962
0.172819
0.174799
0.176919
0.179191
0.181629
0.184253
0.187076
0.19012
0.193388
0.196884
0.200579
0.204423
0.208364
0.212296
0.216015
0.219079
0.221256
0.222561
0.223166
0.223596
0.223847
0.159917
0.160171
0.160654
0.161489
0.162641
0.164009
0.165499
0.167042
0.168703
0.170459
0.172324
0.174304
0.176406
0.178637
0.181002
0.183504
0.18613
0.18886
0.191639
0.194384
0.196996
0.199326
0.201109
0.202024
0.202119
0.201552
0.200553
0.199626
0.198952
0.156729
0.156969
0.157395
0.158146
0.15917
0.160382
0.161685
0.163055
0.164498
0.166016
0.167612
0.169284
0.171031
0.17285
0.174734
0.176672
0.178635
0.180582
0.182436
0.184093
0.185425
0.186258
0.186304
0.185385
0.183804
0.18183
0.179705
0.177916
0.176822
0.153495
0.153711
0.154107
0.154763
0.155653
0.156702
0.157823
0.158998
0.160222
0.161496
0.162814
0.164169
0.165551
0.166948
0.168341
0.169706
0.170999
0.172161
0.173102
0.173701
0.173815
0.173263
0.171757
0.169275
0.166342
0.163306
0.160374
0.158021
0.156783
0.150228
0.150426
0.15078
0.151346
0.152105
0.152986
0.153923
0.154895
0.155898
0.156923
0.15796
0.158994
0.160008
0.16098
0.161881
0.162673
0.163302
0.163693
0.163744
0.163323
0.162282
0.160441
0.15753
0.153686
0.149623
0.145742
0.14218
0.139404
0.13813
0.146935
0.147114
0.147417
0.147893
0.148523
0.149244
0.15
0.150772
0.151553
0.15233
0.153088
0.153804
0.154453
0.155006
0.155424
0.155658
0.155641
0.155286
0.154481
0.153086
0.150949
0.147898
0.143689
0.138611
0.133557
0.128957
0.12485
0.121706
0.120412
0.143627
0.143788
0.144042
0.144427
0.144929
0.145493
0.146072
0.14665
0.147214
0.147749
0.148234
0.148641
0.148938
0.149088
0.149043
0.148743
0.148112
0.147052
0.145439
0.143128
0.139959
0.135764
0.130326
0.124083
0.1181
0.112832
0.108202
0.104694
0.10337
0.140314
0.140459
0.140666
0.140962
0.141338
0.14175
0.142158
0.142547
0.142902
0.143205
0.143429
0.143542
0.143505
0.143274
0.142795
0.141998
0.140797
0.139084
0.136725
0.133563
0.12943
0.124151
0.117522
0.110118
0.103193
0.0972412
0.0920603
0.0881809
0.0868493
0.137008
0.137141
0.137304
0.137514
0.137767
0.138029
0.138271
0.13848
0.138638
0.138723
0.138702
0.13854
0.138192
0.13761
0.136731
0.135481
0.133765
0.131464
0.128433
0.124504
0.119488
0.11319
0.105394
0.0967808
0.088812
0.082071
0.0762451
0.071973
0.0707312
0.133717
0.133836
0.133953
0.134078
0.134213
0.134336
0.134426
0.134469
0.134446
0.13433
0.134084
0.13367
0.13304
0.132141
0.130906
0.129255
0.127087
0.124275
0.120665
0.116071
0.110282
0.10306
0.0941496
0.0842736
0.0751029
0.0673666
0.060685
0.0559331
0.0549122
0.130453
0.130562
0.130639
0.130681
0.130701
0.13069
0.130636
0.130529
0.130343
0.130046
0.129599
0.12896
0.128081
0.126905
0.125364
0.123373
0.120827
0.117596
0.113516
0.108391
0.101981
0.093995
0.0840994
0.0729749
0.0624363
0.0533886
0.045435
0.0399485
0.0393355
0.127223
0.127315
0.127341
0.127299
0.127212
0.127084
0.126912
0.126679
0.126354
0.1259
0.125277
0.124444
0.123351
0.121942
0.120147
0.117882
0.11504
0.11149
0.107065
0.101564
0.0947277
0.0862191
0.0756135
0.0634672
0.0515904
0.0409708
0.0311138
0.0242262
0.0241365
0.124058
0.124189
0.124215
0.124099
0.123875
0.123589
0.123275
0.122918
0.122473
0.121888
0.12112
0.120127
0.118862
0.117269
0.115281
0.112814
0.109766
0.106007
0.101378
0.0956814
0.0886601
0.0799357
0.0689819
0.056193
0.0432563
0.0311159
0.0189173
0.00912652
0.00814718
0.149137
0.132669
0.110278
0.0826817
0.0526276
0.0246124
-0.000451811
-0.0222308
-0.0437597
-0.0655999
-0.0913588
-0.120033
-0.151441
-0.181321
-0.205696
-0.221886
-0.229726
-0.231267
-0.230257
0.156141
0.14298
0.121334
0.0926324
0.0588064
0.0242135
-0.0102734
-0.0430263
-0.0776701
-0.111234
-0.149805
-0.189176
-0.227714
-0.261911
-0.28846
-0.305913
-0.315265
-0.319001
-0.320044
0.150533
0.138314
0.118144
0.0893266
0.0530606
0.0134068
-0.0290317
-0.0708327
-0.117246
-0.164489
-0.212593
-0.260054
-0.304578
-0.342649
-0.371567
-0.390709
-0.40163
-0.406935
-0.409329
0.139069
0.127602
0.109296
0.0809034
0.0430735
-0.000573712
-0.050928
-0.104368
-0.159863
-0.21665
-0.273795
-0.329322
-0.38001
-0.422003
-0.453003
-0.473225
-0.485005
-0.491286
-0.494636
0.125845
0.115265
0.0987774
0.07071
0.0299309
-0.0199842
-0.0762583
-0.137076
-0.200734
-0.266211
-0.331888
-0.394452
-0.449732
-0.493986
-0.525802
-0.546418
-0.558832
-0.566025
-0.570189
0.109508
0.0987939
0.0821838
0.0536804
0.011275
-0.0418781
-0.102469
-0.169037
-0.240079
-0.31342
-0.38614
-0.453899
-0.512131
-0.557697
-0.590214
-0.611704
-0.625499
-0.634396
-0.64017
0.0883463
0.0762637
0.0588972
0.0300566
-0.012832
-0.0674171
-0.131194
-0.202473
-0.279133
-0.357967
-0.434826
-0.504598
-0.562737
-0.606986
-0.638022
-0.658527
-0.672043
-0.68106
-0.68701
0.0636115
0.0492773
0.0304943
0.000946937
-0.0424355
-0.098064
-0.163911
-0.238081
-0.317791
-0.399085
-0.476931
-0.545835
-0.601732
-0.643446
-0.672568
-0.692106
-0.705469
-0.714674
-0.720908
0.0368281
0.0198531
-0.0011184
-0.0322985
-0.0767879
-0.133357
-0.200145
-0.275209
-0.355394
-0.436171
-0.511918
-0.577195
-0.628782
-0.666584
-0.69285
-0.710677
-0.72323
-0.732105
-0.738168
0.00891628
-0.0106625
-0.0342691
-0.0678021
-0.113883
-0.171212
-0.238039
-0.312488
-0.391228
-0.469334
-0.540949
-0.601105
-0.647626
-0.681373
-0.704997
-0.721496
-0.7337
-0.742863
-0.749484
-0.0193086
-0.0412197
-0.0674868
-0.103572
-0.15143
-0.209411
-0.275753
-0.348546
-0.424186
-0.497409
-0.562473
-0.615305
-0.654933
-0.683033
-0.702462
-0.716012
-0.72611
-0.733767
-0.739264
-0.0467371
-0.0705523
-0.0991516
-0.137472
-0.18688
-0.245249
-0.310637
-0.38093
-0.452219
-0.51916
-0.57662
-0.621751
-0.654714
-0.677697
-0.693475
-0.704474
-0.712641
-0.718834
-0.7232
-0.0722307
-0.0974455
-0.127861
-0.167786
-0.218161
-0.276405
-0.340326
-0.407565
-0.474007
-0.534518
-0.584846
-0.623335
-0.650974
-0.670158
-0.683428
-0.692847
-0.699987
-0.705641
-0.709759
-0.0949548
-0.121101
-0.152811
-0.193668
-0.244337
-0.301844
-0.363715
-0.427269
-0.488233
-0.5419
-0.585082
-0.617247
-0.639978
-0.655677
-0.666578
-0.674389
-0.680347
-0.685151
-0.688629
-0.114363
-0.141045
-0.173571
-0.214726
-0.26501
-0.321123
-0.380331
-0.439659
-0.494857
-0.541905
-0.578753
-0.605787
-0.6249
-0.63831
-0.647872
-0.654932
-0.660438
-0.664972
-0.668278
-0.130285
-0.157221
-0.190172
-0.231119
-0.280467
-0.334674
-0.390823
-0.445765
-0.495477
-0.53674
-0.568504
-0.591778
-0.608531
-0.620713
-0.629827
-0.636914
-0.642721
-0.647691
-0.651446
-0.142929
-0.169979
-0.203123
-0.243566
-0.291659
-0.343613
-0.396335
-0.446579
-0.490738
-0.526524
-0.553792
-0.57395
-0.58887
-0.600165
-0.608992
-0.61612
-0.622126
-0.627298
-0.631212
-0.152619
-0.179772
-0.213016
-0.252851
-0.29958
-0.349146
-0.398313
-0.443881
-0.482849
-0.513885
-0.53756
-0.555465
-0.56925
-0.58017
-0.589053
-0.596425
-0.602724
-0.608112
-0.612175
-0.159783
-0.187149
-0.220552
-0.259882
-0.305389
-0.352738
-0.398604
-0.439945
-0.474439
-0.501593
-0.52248
-0.538721
-0.551715
-0.562406
-0.571359
-0.578919
-0.585424
-0.590964
-0.595139
-0.164901
-0.192704
-0.226511
-0.265657
-0.310266
-0.355601
-0.398237
-0.435431
-0.465679
-0.4893
-0.507717
-0.522453
-0.534614
-0.544852
-0.553523
-0.560846
-0.567095
-0.572335
-0.576229
-0.168245
-0.196828
-0.231466
-0.270954
-0.315162
-0.358819
-0.398446
-0.43176
-0.458169
-0.478701
-0.494976
-0.508347
-0.519637
-0.529264
-0.537433
-0.544276
-0.550022
-0.554748
-0.558209
-0.169981
-0.199833
-0.235942