/*--------------------------------*- C++ -*----------------------------------*\
| =========                 |                                                 |
| \\      /  F ield         | OpenFOAM: The Open Source CFD Toolbox           |
|  \\    /   O peration     | Version:  2312                                  |
|   \\  /    A nd           | Website:  www.openfoam.com                      |
|    \\/     M anipulation  |                                                 |
\*---------------------------------------------------------------------------*/
FoamFile
{
    version     2.0;
    format      ascii;
    arch        "LSB;label=32;scalar=64";
    class       volVectorField;
    location    "99.594545253937696";
    object      U;
}
// * * * * * * * * * * * * * * * * * * * * * * * * * * * * * * * * * * * * * //

dimensions      [0 1 -1 0 0 0 0];

internalField   nonuniform List<vector> 
21039
(
(0.913796 0.047488 0)
(1.02605 0.0665158 0)
(1.00449 0.0294692 0)
(1.00177 0.0189062 0)
(1.00121 0.0138973 0)
(1.0008 0.0105165 0)
(1.00055 0.00819094 0)
(1.0004 0.00654907 0)
(1.0003 0.00533973 0)
(1.00023 0.00441907 0)
(1.00018 0.00370162 0)
(1.00015 0.00313238 0)
(1.00012 0.00267434 0)
(1.0001 0.00230192 0)
(1.00008 0.00199703 0)
(1.00006 0.00174652 0)
(1.00005 0.00154072 0)
(1.00004 0.0013723 0)
(1.00003 0.00123561 0)
(1.00002 0.00112608 0)
(1.00002 0.00103983 0)
(1.00001 0.000974845 0)
(1.00001 0.000932832 0)
(1.00001 0.000895023 0)
(1.00001 0.000866252 0)
(1.00001 0.000843368 0)
(1.00001 0.000822072 0)
(1.00001 0.000792219 0)
(1.00002 0.000731816 0)
(0.794635 0.0731025 0)
(1.07448 0.121695 0)
(1.03987 0.0707996 0)
(1.01811 0.0497048 0)
(1.01129 0.0382802 0)
(1.00764 0.0294929 0)
(1.00538 0.0231918 0)
(1.00396 0.0186109 0)
(1.003 0.0151498 0)
(1.00233 0.0124674 0)
(1.00185 0.0103471 0)
(1.00149 0.00864211 0)
(1.00121 0.00725181 0)
(1.00099 0.00610576 0)
(1.00082 0.0051537 0)
(1.00068 0.0043591 0)
(1.00056 0.003695 0)
(1.00046 0.00314119 0)
(1.00037 0.00268235 0)
(1.0003 0.0023065 0)
(1.00023 0.00200374 0)
(1.00017 0.00176771 0)
(1.00013 0.00160256 0)
(1.0001 0.00147794 0)
(1.00009 0.00139972 0)
(1.00009 0.00134996 0)
(1.00009 0.00131448 0)
(1.0001 0.00127371 0)
(1.00011 0.00119736 0)
(0.667396 0.0572895 0)
(1.08301 0.124794 0)
(1.08434 0.0902489 0)
(1.04629 0.067651 0)
(1.02907 0.0541196 0)
(1.02026 0.0431479 0)
(1.0147 0.0348319 0)
(1.011 0.0284385 0)
(1.00845 0.0233956 0)
(1.00663 0.0193716 0)
(1.0053 0.016121 0)
(1.0043 0.0134614 0)
(1.00353 0.0112614 0)
(1.00292 0.00942571 0)
(1.00244 0.00788438 0)
(1.00203 0.00658547 0)
(1.0017 0.00549014 0)
(1.00141 0.00456907 0)
(1.00116 0.00379998 0)
(1.00094 0.00316573 0)
(1.00074 0.00265236 0)
(1.00057 0.00224966 0)
(1.00042 0.00196364 0)
(1.00031 0.00175993 0)
(1.00025 0.00163945 0)
(1.00023 0.00156742 0)
(1.00022 0.00151988 0)
(1.00023 0.00147138 0)
(1.00024 0.0013881 0)
(0.541097 0.0352662 0)
(1.05077 0.110812 0)
(1.1159 0.0969719 0)
(1.07611 0.0762369 0)
(1.04925 0.0620565 0)
(1.03528 0.0509299 0)
(1.02644 0.0422366 0)
(1.02028 0.035187 0)
(1.01586 0.0293791 0)
(1.01263 0.0245874 0)
(1.01022 0.0206074 0)
(1.00837 0.0172753 0)
(1.00693 0.0144667 0)
(1.00579 0.0120864 0)
(1.00485 0.0100612 0)
(1.00408 0.00833522 0)
(1.00343 0.0068656 0)
(1.00287 0.00561951 0)
(1.00237 0.00457172 0)
(1.00193 0.0037029 0)
(1.00154 0.00299756 0)
(1.00118 0.00244325 0)
(1.00087 0.00204752 0)
(1.00063 0.0017747 0)
(1.00049 0.00161813 0)
(1.00041 0.0015276 0)
(1.00038 0.00147071 0)
(1.00038 0.00141713 0)
(1.00038 0.00132777 0)
(0.444288 0.0186684 0)
(0.997785 0.0918596 0)
(1.129 0.0956098 0)
(1.10144 0.0794139 0)
(1.06826 0.0653431 0)
(1.0498 0.0546383 0)
(1.03831 0.0462215 0)
(1.03011 0.0391511 0)
(1.02403 0.0331391 0)
(1.01946 0.0280359 0)
(1.01596 0.0236829 0)
(1.01323 0.0199521 0)
(1.01106 0.0167436 0)
(1.00931 0.0139769 0)
(1.00787 0.011588 0)
(1.00666 0.00952614 0)
(1.00563 0.00775156 0)
(1.00473 0.00623326 0)
(1.00394 0.00494719 0)
(1.00322 0.0038749 0)
(1.00257 0.00300186 0)
(1.00197 0.00231541 0)
(1.00143 0.001825 0)
(1.00103 0.00149568 0)
(1.00076 0.00131234 0)
(1.0006 0.00121085 0)
(1.00054 0.00115172 0)
(1.00052 0.0011003 0)
(1.00051 0.00101 0)
(0.378758 0.0081038 0)
(0.939784 0.0718362 0)
(1.127 0.0882552 0)
(1.12085 0.0785559 0)
(1.08555 0.0657697 0)
(1.06313 0.0557445 0)
(1.04938 0.0478323 0)
(1.03959 0.0410322 0)
(1.03218 0.0351118 0)
(1.02648 0.0299667 0)
(1.02202 0.0254767 0)
(1.01848 0.0215477 0)
(1.01562 0.0181046 0)
(1.01327 0.0150856 0)
(1.01131 0.0124398 0)
(1.00964 0.0101265 0)
(1.0082 0.00811335 0)
(1.00693 0.00637469 0)
(1.00579 0.00489076 0)
(1.00475 0.00364659 0)
(1.0038 0.00263085 0)
(1.00291 0.00183252 0)
(1.0021 0.00126408 0)
(1.00147 0.000892775 0)
(1.00105 0.000694594 0)
(1.00081 0.000591851 0)
(1.00069 0.00053852 0)
(1.00064 0.000498513 0)
(1.0006 0.00041937 0)
(0.333556 0.0023343 0)
(0.883534 0.0538358 0)
(1.1141 0.0778101 0)
(1.13393 0.074726 0)
(1.10098 0.0641271 0)
(1.07545 0.0549988 0)
(1.05963 0.0477196 0)
(1.04853 0.0413619 0)
(1.04007 0.035704 0)
(1.03344 0.0306745 0)
(1.02817 0.0261929 0)
(1.02392 0.0221967 0)
(1.02042 0.018634 0)
(1.01751 0.0154605 0)
(1.01505 0.0126399 0)
(1.01292 0.0101427 0)
(1.01105 0.00794529 0)
(1.00939 0.00602967 0)
(1.00788 0.00438218 0)
(1.00649 0.00299314 0)
(1.00519 0.00185637 0)
(1.00397 0.00096497 0)
(1.00284 0.000330245 0)
(1.00196 -6.97295e-05 0)
(1.00136 -0.000268998 0)
(1.00099 -0.000363704 0)
(1.0008 -0.000402903 0)
(1.00072 -0.000430363 0)
(1.00064 -0.000500956 0)
(0.301272 -0.000193721 0)
(0.831847 0.0395738 0)
(1.09396 0.0669116 0)
(1.14069 0.0692835 0)
(1.11403 0.0611909 0)
(1.08673 0.053036 0)
(1.0691 0.0463934 0)
(1.05691 0.0405396 0)
(1.0476 0.0352302 0)
(1.04022 0.0304066 0)
(1.03428 0.0260221 0)
(1.02941 0.0220418 0)
(1.02536 0.0184347 0)
(1.02194 0.0151732 0)
(1.019 0.0122348 0)
(1.01643 0.00960133 0)
(1.01414 0.00725883 0)
(1.01207 0.00519734 0)
(1.01017 0.00341047 0)
(1.0084 0.00189498 0)
(1.00673 0.00065065 0)
(1.00513 -0.00032386 0)
(1.00365 -0.00101161 0)
(1.00246 -0.00143208 0)
(1.00165 -0.00162793 0)
(1.00114 -0.00170389 0)
(1.00086 -0.00171507 0)
(1.00071 -0.00171468 0)
(1.00058 -0.00177782 0)
(0.278313 -0.000988779 0)
(0.78622 0.0290864 0)
(1.06986 0.0569211 0)
(1.14197 0.0632729 0)
(1.12444 0.0576393 0)
(1.09688 0.0504424 0)
(1.07779 0.0443403 0)
(1.06468 0.0389428 0)
(1.05471 0.0339827 0)
(1.04675 0.0293921 0)
(1.04026 0.0251438 0)
(1.03488 0.0212225 0)
(1.03035 0.0176133 0)
(1.02647 0.0143029 0)
(1.0231 0.0112809 0)
(1.02011 0.00853977 0)
(1.01742 0.00607476 0)
(1.01495 0.00388428 0)
(1.01265 0.00196958 0)
(1.01048 0.000334412 0)
(1.0084 -0.0010153 0)
(1.0064 -0.00207378 0)
(1.0045 -0.00281284 0)
(1.00298 -0.00325287 0)
(1.00191 -0.00344358 0)
(1.00122 -0.00349553 0)
(1.00082 -0.00347225 0)
(1.00059 -0.00343343 0)
(1.00038 -0.0034723 0)
(0.261887 -0.00103355 0)
(0.747032 0.0216657 0)
(1.04431 0.0482551 0)
(1.13906 0.0572581 0)
(1.13233 0.053862 0)
(1.10596 0.0475918 0)
(1.08579 0.0419232 0)
(1.0719 0.0368863 0)
(1.06142 0.0322226 0)
(1.05301 0.0278438 0)
(1.04609 0.0237295 0)
(1.04029 0.0198754 0)
(1.03536 0.0162771 0)
(1.03109 0.012932 0)
(1.02732 0.00983931 0)
(1.02395 0.0070003 0)
(1.02087 0.00441866 0)
(1.01801 0.00210066 0)
(1.01531 5.47917e-05 0)
(1.01272 -0.00170886 0)
(1.01021 -0.00317563 0)
(1.00776 -0.00433131 0)
(1.00542 -0.00513726 0)
(1.0035 -0.00560873 0)
(1.00214 -0.00580011 0)
(1.00123 -0.0058305 0)
(1.00067 -0.00577154 0)
(1.00031 -0.00569043 0)
(0.999992 -0.0056987 0)
(0.249673 -0.000814147 0)
(0.71378 0.0165231 0)
(1.01893 0.0409346 0)
(1.13321 0.0515215 0)
(1.13804 0.050046 0)
(1.11408 0.0446627 0)
(1.09326 0.0393508 0)
(1.07868 0.0345812 0)
(1.06777 0.0301446 0)
(1.05902 0.0259337 0)
(1.05177 0.0219265 0)
(1.04565 0.0181235 0)
(1.04038 0.0145268 0)
(1.03577 0.0111407 0)
(1.03167 0.00797125 0)
(1.02794 0.0050268 0)
(1.0245 0.00231797 0)
(1.02126 -0.000142744 0)
(1.01816 -0.00234064 0)
(1.01515 -0.00425731 0)
(1.01219 -0.00586904 0)
(1.00927 -0.0071529 0)
(1.00643 -0.00805944 0)
(1.00407 -0.00859273 0)
(1.00235 -0.00880715 0)
(1.00118 -0.00883133 0)
(1.00042 -0.00874466 0)
(0.999884 -0.0086241 0)
(0.999405 -0.00860145 0)
(0.240148 -0.000553684 0)
(0.685625 0.0129725 0)
(0.994615 0.0348349 0)
(1.12537 0.0462059 0)
(1.1419 0.0462962 0)
(1.12134 0.0417423 0)
(1.10034 0.0367369 0)
(1.08516 0.0321574 0)
(1.07389 0.0278805 0)
(1.06487 0.0237874 0)
(1.05736 0.01985 0)
(1.05098 0.0160692 0)
(1.04544 0.0124504 0)
(1.04055 0.00900211 0)
(1.03615 0.00573499 0)
(1.03211 0.00266242 0)
(1.02833 -0.000200324 0)
(1.02474 -0.00283598 0)
(1.02125 -0.00522268 0)
(1.01782 -0.00733374 0)
(1.0144 -0.00913767 0)
(1.01097 -0.0106024 0)
(1.0076 -0.0116669 0)
(1.00474 -0.0123181 0)
(1.00262 -0.0126021 0)
(1.00112 -0.0126552 0)
(1.00008 -0.0125647 0)
(0.99931 -0.0124193 0)
(0.998613 -0.0123724 0)
(0.232436 -0.000342447 0)
(0.661733 0.010476 0)
(0.971834 0.029775 0)
(1.11628 0.041367 0)
(1.14419 0.0426794 0)
(1.12782 0.0388832 0)
(1.10709 0.0341511 0)
(1.09145 0.0297012 0)
(1.07984 0.0255231 0)
(1.0706 0.0214983 0)
(1.0629 0.0175901 0)
(1.05632 0.0137966 0)
(1.05058 0.0101241 0)
(1.04546 0.00658272 0)
(1.04082 0.00318593 0)
(1.03651 -5.0416e-05 0)
(1.03243 -0.0031083 0)
(1.0285 -0.00596523 0)
(1.02465 -0.00859277 0)
(1.0208 -0.0109575 0)
(1.0169 -0.0130214 0)
(1.01295 -0.0147442 0)
(1.00902 -0.0160535 0)
(1.00562 -0.0169131 0)
(1.00303 -0.0173478 0)
(1.00114 -0.0174967 0)
(0.999752 -0.0174533 0)
(0.998657 -0.0173192 0)
(0.997661 -0.0172695 0)
(0.226026 -0.000198769 0)
(0.641375 0.00865884 0)
(0.950796 0.0255688 0)
(1.1065 0.0370029 0)
(1.14523 0.0392346 0)
(1.13359 0.0361187 0)
(1.11358 0.0316389 0)
(1.09761 0.0272748 0)
(1.08572 0.0231442 0)
(1.07631 0.0191422 0)
(1.06847 0.0152232 0)
(1.06175 0.0113803 0)
(1.05585 0.00761807 0)
(1.05057 0.00394663 0)
(1.04573 0.000379519 0)
(1.0412 -0.00306738 0)
(1.03688 -0.00637331 0)
(1.03266 -0.00951113 0)
(1.02846 -0.0124475 0)
(1.02421 -0.0151437 0)
(1.01986 -0.0175561 0)
(1.01538 -0.0196388 0)
(1.01086 -0.0213113 0)
(1.0069 -0.0225108 0)
(1.0038 -0.0232248 0)
(1.00144 -0.0235847 0)
(0.999597 -0.0236839 0)
(0.998065 -0.0236357 0)
(0.996658 -0.0236335 0)
(0.22059 -0.00011258 0)
(0.623937 0.00729024 0)
(0.931546 0.0220813 0)
(1.09641 0.0331131 0)
(1.14521 0.0359965 0)
(1.13867 0.0334711 0)
(1.11979 0.0292255 0)
(1.10366 0.0249177 0)
(1.09153 0.0207954 0)
(1.08198 0.0167776 0)
(1.07405 0.0128118 0)
(1.06724 0.00888449 0)
(1.06125 0.00499668 0)
(1.05585 0.00115641 0)
(1.05088 -0.0026258 0)
(1.04619 -0.00633449 0)
(1.04166 -0.00994649 0)
(1.0372 -0.0134322 0)
(1.03269 -0.0167546 0)
(1.02808 -0.0198703 0)
(1.02329 -0.0227313 0)
(1.01831 -0.0252887 0)
(1.01324 -0.0274615 0)
(1.00876 -0.0291709 0)
(1.00518 -0.0303584 0)
(1.00233 -0.0311325 0)
(0.999973 -0.0315657 0)
(0.997888 -0.0317627 0)
(0.995932 -0.0319123 0)
(0.216294 -5.45071e-05 0)
(0.610015 0.00631033 0)
(0.915352 0.0193828 0)
(1.08715 0.029911 0)
(1.14455 0.0332156 0)
(1.1429 0.0311682 0)
(1.12539 0.0271298 0)
(1.10926 0.0228619 0)
(1.09696 0.018726 0)
(1.08733 0.0146699 0)
(1.07936 0.0106358 0)
(1.07252 0.0066025 0)
(1.0665 0.00256552 0)
(1.06106 -0.00147161 0)
(1.05604 -0.00550261 0)
(1.05127 -0.00951411 0)
(1.04663 -0.0134835 0)
(1.04199 -0.0173814 0)
(1.03727 -0.0211688 0)
(1.03236 -0.0247973 0)
(1.02721 -0.0282115 0)
(1.02179 -0.0313556 0)
(1.01625 -0.0341435 0)
(1.01135 -0.036487 0)
(1.00742 -0.0383056 0)
(1.00421 -0.0397075 0)
(1.00138 -0.0407327 0)
(0.99866 -0.0414273 0)
(0.995954 -0.0419102 0)
(0.213106 -1.98849e-05 0)
(0.599736 0.00564401 0)
(0.90291 0.0174453 0)
(1.07955 0.0275035 0)
(1.14363 0.031068 0)
(1.14611 0.0293813 0)
(1.12996 0.02551 0)
(1.11394 0.0212717 0)
(1.10155 0.0171184 0)
(1.09187 0.013023 0)
(1.08391 0.00892237 0)
(1.0771 0.00478714 0)
(1.07111 0.00060659 0)
(1.0657 -0.00362166 0)
(1.06069 -0.00789622 0)
(1.05592 -0.0122083 0)
(1.05125 -0.0165399 0)
(1.04655 -0.0208653 0)
(1.04171 -0.0251471 0)
(1.03663 -0.0293351 0)
(1.03122 -0.0333657 0)
(1.02548 -0.0371706 0)
(1.01957 -0.0406367 0)
(1.01439 -0.0436355 0)
(1.01032 -0.0460833 0)
(1.00703 -0.0481704 0)
(1.00408 -0.0500186 0)
(1.00108 -0.0516602 0)
(0.997909 -0.0529311 0)
(0.210623 2.8046e-05 0)
(0.591823 0.0051907 0)
(0.893051 0.0160375 0)
(1.07318 0.0256791 0)
(1.14255 0.029407 0)
(1.14857 0.0280022 0)
(1.1337 0.0242771 0)
(1.11786 0.0200745 0)
(1.10541 0.0159152 0)
(1.09572 0.0117924 0)
(1.08779 0.00763843 0)
(1.08103 0.00341721 0)
(1.0751 -0.000887807 0)
(1.06975 -0.00528536 0)
(1.06481 -0.00978003 0)
(1.06009 -0.0143694 0)
(1.05546 -0.0190433 0)
(1.05077 -0.0237832 0)
(1.0459 -0.0285585 0)
(1.04074 -0.0333219 0)
(1.03518 -0.0380079 0)
(1.02921 -0.0425374 0)
(1.02301 -0.0467549 0)
(1.01758 -0.0504103 0)
(1.01339 -0.0533321 0)
(1.0102 -0.055779 0)
(1.00764 -0.0581202 0)
(1.00539 -0.0607441 0)
(1.00287 -0.0630841 0)
(0.209013 2.0211e-05 0)
(0.586337 0.00483642 0)
(0.885991 0.0150336 0)
(1.06851 0.0243911 0)
(1.14176 0.0282257 0)
(1.15047 0.0269923 0)
(1.13665 0.0233482 0)
(1.121 0.0191695 0)
(1.10856 0.0150154 0)
(1.09888 0.01088 0)
(1.09101 0.00668776 0)
(1.08433 0.00239677 0)
(1.07849 -0.00201328 0)
(1.07324 -0.00655661 0)
(1.0684 -0.0112447 0)
(1.06378 -0.0160834 0)
(1.05925 -0.0210723 0)
(1.05465 -0.0262033 0)
(1.04986 -0.0314569 0)
(1.04473 -0.0367966 0)
(1.03918 -0.0421655 0)
(1.03317 -0.0474966 0)
(1.02691 -0.0526242 0)
(1.02141 -0.0571442 0)
(1.01718 -0.0606586 0)
(1.01405 -0.0632014 0)
(1.01176 -0.0647962 0)
(1.01029 -0.0661584 0)
(1.01058 -0.0711901 0)
(1.00002 0.000739444 0)
(1.00002 0.000739709 0)
(1.00001 0.000734967 0)
(1.00001 0.000731164 1.02338e-21)
(1.00001 0.000729393 5.10393e-21)
(1.00001 0.000729475 -9.18398e-21)
(1.00001 0.000731247 5.10051e-21)
(1.00001 0.000734591 -4.06388e-21)
(1.00001 0.00073936 5.19184e-22)
(1 0.000745566 4.06208e-21)
(1 0.000753043 0)
(1 0.00076178 -4.54219e-21)
(1 0.000771659 5.15865e-22)
(0.999999 0.000782555 4.03289e-21)
(0.999997 0.00079445 0)
(0.999996 0.000807178 0)
(0.999995 0.000820702 -3.99589e-21)
(0.999994 0.000834887 3.99841e-21)
(0.999992 0.000849574 0)
(0.999991 0.000864764 -1.98347e-21)
(0.99999 0.000880274 2.1082e-21)
(0.999989 0.000895993 1.8493e-21)
(0.999989 0.000911867 -2.95703e-21)
(0.999988 0.000927721 9.53117e-22)
(0.999987 0.000943461 3.05524e-23)
(0.999987 0.00095902 -6.1068e-23)
(0.999986 0.000974224 8.49696e-22)
(0.999986 0.000989014 -9.71247e-22)
(0.999985 0.0010033 0)
(0.999985 0.00101684 0)
(0.999985 0.00102966 -2.39758e-22)
(0.999985 0.00104175 -2.38794e-22)
(0.999985 0.00105297 -4.03538e-21)
(0.999985 0.00106331 3.32118e-21)
(0.999986 0.00107264 -4.23696e-21)
(0.999986 0.00108092 4.23163e-21)
(0.999986 0.00108813 -3.26475e-21)
(0.999987 0.00109414 3.26332e-21)
(0.999988 0.00109895 4.63148e-22)
(0.999989 0.00110246 4.61002e-22)
(0.99999 0.00110466 -4.58822e-22)
(0.999991 0.00110553 0)
(0.999992 0.00110498 0)
(0.999994 0.00110306 0)
(0.999995 0.00109967 0)
(0.999997 0.00109497 0)
(0.999998 0.00108889 1.77957e-21)
(1 0.00108053 -1.77661e-21)
(1 0.00106578 0)
(1.0001 0.00120015 0)
(1.00009 0.00119671 2.06483e-21)
(1.00007 0.00119025 -2.05791e-21)
(1.00006 0.00118777 -1.02706e-21)
(1.00004 0.00119046 -1.02734e-21)
(1.00003 0.00119771 -3.07207e-21)
(1.00002 0.00120925 5.12841e-21)
(1 0.00122505 0)
(0.999989 0.00124458 -5.10412e-22)
(0.999977 0.001268 -1.01982e-21)
(0.999965 0.00129481 0)
(0.999953 0.00132493 5.07666e-22)
(0.999942 0.00135818 -4.55495e-21)
(0.999932 0.0013941 4.05187e-21)
(0.999923 0.0014327 0)
(0.999914 0.00147356 1.00803e-21)
(0.999905 0.00151648 0)
(0.999898 0.0015613 0)
(0.999891 0.00160751 0)
(0.999885 0.00165506 -1.99224e-21)
(0.99988 0.00170365 1.86864e-21)
(0.999875 0.0017529 -1.24265e-22)
(0.999871 0.00180268 0)
(0.999868 0.00185264 -4.61624e-22)
(0.999866 0.00190249 4.84814e-22)
(0.999865 0.00195205 9.19399e-23)
(0.999864 0.00200101 1.221e-22)
(0.999865 0.00204908 0)
(0.999866 0.00209609 -1.9373e-21)
(0.999868 0.00214174 1.93686e-21)
(0.999871 0.00218579 -3.6052e-21)
(0.999874 0.00222805 7.91544e-21)
(0.999878 0.00226824 -3.59051e-21)
(0.999883 0.0023062 4.75794e-22)
(0.999889 0.00234162 4.73853e-22)
(0.999895 0.00237437 4.72318e-22)
(0.999902 0.00240422 -4.69773e-22)
(0.99991 0.00243096 4.20318e-21)
(0.999919 0.00245452 -3.26583e-21)
(0.999928 0.00247465 -1.39066e-21)
(0.999938 0.00249115 5.06809e-21)
(0.999949 0.00250378 -3.67962e-21)
(0.999961 0.0025124 -1.82774e-21)
(0.999973 0.00251702 3.63075e-21)
(0.999985 0.00251724 -7.23942e-21)
(0.999998 0.00251324 3.60768e-21)
(1.00001 0.00250483 1.78838e-21)
(1.00003 0.00249119 -3.7664e-24)
(1.00004 0.0024672 0)
(1.00022 0.00137879 3.10699e-21)
(1.00018 0.00137175 -1.03743e-21)
(1.00014 0.00136725 -4.1332e-21)
(1.0001 0.00136964 2.06073e-21)
(1.00005 0.00138018 -2.06037e-21)
(1.00001 0.001398 0)
(0.999974 0.00142282 -2.05074e-21)
(0.999937 0.00145475 -6.14116e-21)
(0.999901 0.00149271 6.14264e-21)
(0.999867 0.00153713 1.01983e-21)
(0.999835 0.00158708 0)
(0.999805 0.00164244 -6.09804e-21)
(0.999777 0.00170306 1.11732e-23)
(0.99975 0.00176796 4.05642e-21)
(0.999726 0.00183736 0)
(0.999703 0.00191046 -1.00744e-21)
(0.999683 0.00198691 -1.00743e-21)
(0.999664 0.00206666 0)
(0.999648 0.00214864 -1.00243e-21)
(0.999634 0.00223287 -1.99379e-21)
(0.999622 0.00231895 1.9944e-21)
(0.999613 0.0024061 -2.49112e-22)
(0.999605 0.0024942 -2.47839e-22)
(0.9996 0.00258276 0)
(0.999597 0.00267119 3.83777e-23)
(0.999596 0.00275923 -2.14692e-22)
(0.999598 0.00284645 0)
(0.999602 0.0029323 0)
(0.999608 0.00301649 -1.93777e-21)
(0.999616 0.00309863 1.9374e-21)
(0.999626 0.00317823 -3.84647e-21)
(0.999638 0.00325498 3.84519e-21)
(0.999652 0.00332847 0)
(0.999668 0.00339835 0)
(0.999687 0.0034642 0)
(0.999707 0.00352576 -9.43454e-22)
(0.999729 0.00358264 -1.8803e-21)
(0.999753 0.00363445 0)
(0.999779 0.00368103 -9.30985e-22)
(0.999807 0.00372183 -9.19711e-22)
(0.999837 0.00375676 2.77473e-21)
(0.999868 0.00378542 0)
(0.999902 0.00380739 3.64865e-21)
(0.999937 0.0038227 -5.46168e-21)
(0.999973 0.00383061 0)
(1.00001 0.00383135 0)
(1.00005 0.00382435 0)
(1.00009 0.00380875 -1.78312e-21)
(1.00014 0.00378034 -1.77214e-21)
(1.00034 0.00130693 -2.07589e-21)
(1.00026 0.00130057 4.15462e-21)
(1.00018 0.00130328 4.14721e-21)
(1.0001 0.0013156 6.20057e-21)
(1.00002 0.00133914 -2.07147e-21)
(0.999936 0.00137288 -4.11638e-21)
(0.999861 0.00141655 8.23091e-21)
(0.999788 0.00147045 -3.97642e-24)
(0.99972 0.00153277 -2.048e-21)
(0.999654 0.00160441 2.05035e-21)
(0.999592 0.00168385 0)
(0.999535 0.00177095 2.03618e-21)
(0.99948 0.00186566 -2.0248e-21)
(0.99943 0.00196632 8.1217e-21)
(0.999384 0.00207349 -8.10318e-21)
(0.999342 0.00218587 6.07339e-21)
(0.999304 0.00230298 -1.01387e-21)
(0.99927 0.00242494 1.00771e-21)
(0.99924 0.00254996 1.0017e-21)
(0.999215 0.00267821 -1.00248e-21)
(0.999194 0.0028092 0)
(0.999178 0.00294165 -1.48966e-21)
(0.999165 0.00307552 1.24418e-21)
(0.999157 0.00321014 9.9029e-22)
(0.999154 0.00334454 4.61712e-23)
(0.999155 0.00347847 9.18764e-23)
(0.99916 0.00361135 1.46738e-21)
(0.999169 0.00374228 -9.77023e-22)
(0.999183 0.00387094 1.94002e-21)
(0.999201 0.00399679 -1.9397e-21)
(0.999223 0.00411906 0)
(0.999249 0.00423738 4.79654e-21)
(0.999279 0.00435117 -3.83344e-21)
(0.999313 0.00445986 3.80273e-21)
(0.999351 0.00456297 -3.80132e-21)
(0.999393 0.00466004 0)
(0.999439 0.00475052 3.75041e-21)
(0.999488 0.00483392 -1.87784e-21)
(0.999541 0.00490996 0)
(0.999598 0.00497787 3.7027e-21)
(0.999659 0.00503755 -3.69791e-21)
(0.999723 0.00508839 1.83651e-21)
(0.99979 0.00512984 1.82763e-21)
(0.999861 0.00516195 5.45382e-21)
(0.999935 0.00518361 6.13071e-24)
(1.00001 0.00519515 3.60686e-21)
(1.00009 0.00519561 1.78723e-21)
(1.00018 0.00518404 1.77583e-21)
(1.00027 0.0051575 1.77362e-21)
(1.00043 0.000982032 0)
(1.00031 0.000983058 -4.1606e-21)
(1.00018 0.000999911 -4.15124e-21)
(1.00004 0.00102927 0)
(0.999911 0.00107334 -4.14033e-21)
(0.999781 0.00113079 9.8796e-24)
(0.999657 0.00120133 8.27963e-21)
(0.999538 0.00128553 -2.07326e-21)
(0.999424 0.00138069 -1.01915e-23)
(0.999317 0.00148834 -6.16512e-21)
(0.999215 0.00160622 0)
(0.99912 0.00173423 -6.1409e-21)
(0.999032 0.00187245 2.05168e-21)
(0.99895 0.00201839 0)
(0.998874 0.00217306 -2.03883e-21)
(0.998806 0.0023346 9.60104e-24)
(0.998744 0.00250231 -2.02206e-21)
(0.998689 0.00267667 7.06595e-21)
(0.998642 0.0028549 -1.21962e-23)
(0.998601 0.00303743 -1.01507e-21)
(0.998568 0.00322371 -1.00134e-21)
(0.998542 0.00341182 1.99237e-21)
(0.998523 0.00360186 -1.99267e-21)
(0.998511 0.00379298 -2.46419e-22)
(0.998507 0.00398375 5.10329e-22)
(0.99851 0.00417394 -2.7557e-22)
(0.99852 0.00436284 9.8113e-22)
(0.998537 0.00454912 -9.7931e-22)
(0.998561 0.00473245 9.75769e-22)
(0.998593 0.00491216 1.9364e-21)
(0.998631 0.00508711 -5.79259e-21)
(0.998676 0.00525693 -9.4592e-22)
(0.998727 0.00542082 5.75875e-21)
(0.998786 0.00557798 1.91026e-21)
(0.998851 0.00572789 -3.79112e-21)
(0.998922 0.00586987 3.78883e-21)
(0.999 0.00600321 8.1667e-24)
(0.999084 0.00612731 5.62093e-21)
(0.999174 0.00624177 -3.74576e-21)
(0.99927 0.00634563 -9.28474e-21)
(0.999372 0.00643876 3.69312e-21)
(0.99948 0.00652035 1.83752e-21)
(0.999594 0.00658973 7.30292e-21)
(0.999713 0.00664698 -3.64356e-21)
(0.999838 0.00669064 -8.48508e-24)
(0.999969 0.00672123 -9.22776e-24)
(1.00011 0.00673734 0)
(1.00025 0.00673805 -3.56319e-21)
(1.00041 0.0067224 -3.53794e-21)
(1.00048 0.000391221 0)
(1.00031 0.000405927 -6.29084e-21)
(1.00012 0.000445313 6.28166e-21)
(0.999915 0.000500696 0)
(0.999715 0.000575001 0)
(0.999521 0.000666201 -4.1561e-21)
(0.999333 0.000774015 -2.79543e-24)
(0.999154 0.000899417 -4.15584e-21)
(0.998983 0.00103859 -8.20138e-24)
(0.998821 0.00119383 0)
(0.998668 0.001362 0)
(0.998525 0.00154307 2.05247e-21)
(0.998392 0.00173729 0)
(0.998269 0.00194115 0)
(0.998155 0.00215626 -2.04347e-21)
(0.998053 0.00238006 4.09544e-21)
(0.99796 0.00261166 2.04066e-21)
(0.997878 0.00285191 0)
(0.997807 0.0030969 2.00949e-21)
(0.997747 0.0033474 -5.05131e-21)
(0.997698 0.00360276 -2.01105e-21)
(0.997659 0.00386034 -2.00078e-21)
(0.997632 0.00412041 2.00098e-21)
(0.997615 0.00438189 1.3532e-24)
(0.99761 0.00464287 1.55436e-23)
(0.997615 0.00490312 2.46712e-22)
(0.997631 0.00516179 -4.93196e-22)
(0.997659 0.00541706 0)
(0.997697 0.0056686 -9.74802e-22)
(0.997745 0.00591558 0)
(0.997804 0.00615647 0)
(0.997874 0.00639087 -1.93288e-21)
(0.997953 0.00661778 -7.67401e-21)
(0.998043 0.00683611 2.23379e-23)
(0.998143 0.0070453 1.90782e-21)
(0.998253 0.00724447 0)
(0.998372 0.0074327 -1.88225e-21)
(0.998501 0.00760929 -3.75479e-21)
(0.998638 0.00777372 3.72808e-21)
(0.998785 0.0079248 7.42602e-21)
(0.998941 0.00806244 -7.38674e-21)
(0.999106 0.00818559 2.0448e-24)
(0.999279 0.00829345 -3.65486e-21)
(0.999461 0.0083862 -7.34225e-25)
(0.999651 0.00846198 0)
(0.99985 0.00852153 -3.59687e-21)
(1.00006 0.00856291 -1.78364e-21)
(1.00028 0.00858547 1.7823e-21)
(1.00051 0.00859126 3.54019e-21)
(1.00046 -0.000478205 0)
(1.00021 -0.000425582 4.20583e-21)
(0.999936 -0.000389282 -1.26361e-20)
(0.999664 -0.000297799 0)
(0.999384 -0.000179629 0)
(0.999109 -4.13272e-05 -8.38843e-21)
(0.998844 0.000117522 8.35861e-21)
(0.998589 0.000298237 -4.18975e-21)
(0.998347 0.00049579 -8.3372e-24)
(0.998116 0.000713546 4.16398e-21)
(0.997899 0.00094731 0)
(0.997696 0.00119712 0)
(0.997506 0.00146342 4.14982e-21)
(0.99733 0.00174154 0)
(0.997169 0.00203381 0)
(0.997023 0.00233682 -4.10509e-21)
(0.996892 0.00264945 1.51739e-23)
(0.996775 0.00297303 0)
(0.996674 0.00330233 2.02802e-21)
(0.996589 0.0036385 5.07279e-21)
(0.996519 0.00398081 -2.03241e-21)
(0.996465 0.00432575 0)
(0.996426 0.0046738 -1.00233e-21)
(0.996404 0.00502364 1.25226e-21)
(0.996397 0.00537277 -5.46104e-22)
(0.996406 0.00572096 -2.49079e-22)
(0.99643 0.00606721 4.90869e-22)
(0.99647 0.00640915 -9.86831e-22)
(0.996526 0.00674641 0)
(0.996596 0.00707798 -3.90714e-21)
(0.996682 0.00740191 5.82732e-21)
(0.996783 0.00771771 1.9139e-21)
(0.996899 0.00802418 -7.77395e-24)
(0.997029 0.00831989 1.9109e-21)
(0.997173 0.00860422 -1.91912e-21)
(0.997332 0.0088761 -3.78585e-21)
(0.997504 0.00913432 7.54968e-21)
(0.997689 0.0093781 -3.76028e-21)
(0.997888 0.00960679 7.48307e-21)
(0.998099 0.00981891 5.9854e-24)
(0.998323 0.0100145 7.39075e-21)
(0.998559 0.0101922 -3.67282e-21)
(0.998807 0.010351 0)
(0.999067 0.0104914 -6.26152e-25)
(0.999338 0.0106109 7.22454e-21)
(0.999622 0.0107106 0)
(0.99992 0.010788 0)
(1.00023 0.0108428 6.20804e-21)
(1.00057 0.0108818 8.84628e-22)
(1.00033 -0.00177823 1.06171e-21)
(0.999983 -0.00167376 7.46283e-21)
(0.999612 -0.00150173 8.45119e-21)
(0.999232 -0.00134733 -8.50808e-21)
(0.998851 -0.00121645 0)
(0.998481 -0.00102318 -1.10813e-23)
(0.99813 -0.000797867 -4.25129e-21)
(0.997784 -0.000545629 -4.23906e-21)
(0.997453 -0.000272788 1.26293e-20)
(0.997138 2.55566e-05 -4.19835e-21)
(0.996841 0.000343589 0)
(0.996563 0.000681404 8.37072e-21)
(0.996303 0.00103973 -8.32209e-21)
(0.996062 0.00141246 2.56453e-23)
(0.995841 0.00180279 8.29396e-21)
(0.995641 0.00220633 -2.08222e-21)
(0.995461 0.00262164 -2.02823e-21)
(0.995301 0.00305059 4.11826e-21)
(0.995163 0.00348645 0)
(0.995046 0.00393082 -2.03534e-21)
(0.99495 0.00438279 2.03695e-21)
(0.994876 0.00483793 2.0254e-21)
(0.994824 0.00529689 -2.02536e-21)
(0.994794 0.00575806 2.52811e-22)
(0.994785 0.00621831 3.12301e-23)
(0.994799 0.00667734 7.47165e-22)
(0.994834 0.00713394 -2.67042e-24)
(0.99489 0.00758518 0)
(0.994968 0.00803053 0)
(0.995068 0.00846879 -1.08497e-24)
(0.995188 0.00889752 -1.9386e-21)
(0.995329 0.0093161 3.89461e-21)
(0.99549 0.0097231 -3.86686e-21)
(0.995671 0.0101167 3.83554e-21)
(0.995872 0.010496 -7.67013e-21)
(0.996092 0.01086 1.77859e-23)
(0.996331 0.011207 3.7928e-21)
(0.996588 0.011536 3.75327e-21)
(0.996863 0.0118464 -7.50099e-21)
(0.997155 0.0121364 -7.4463e-21)
(0.997464 0.012406 -3.70805e-21)
(0.997789 0.0126535 -3.68479e-21)
(0.99813 0.012878 0)
(0.998487 0.0130799 -3.63047e-21)
(0.99886 0.0132563 -4.99771e-24)
(0.999248 0.0134088 7.16849e-21)
(0.999655 0.0135338 -8.89877e-21)
(1.00008 0.013632 1.75946e-21)
(1.00054 0.0137166 0)
(1.00003 -0.00346611 0)
(0.999593 -0.00331332 -8.53178e-21)
(0.999105 -0.00310003 0)
(0.998592 -0.00287065 8.51352e-21)
(0.998086 -0.00261138 4.26581e-21)
(0.997592 -0.00228567 -8.52883e-21)
(0.997116 -0.00197939 1.2747e-20)
(0.996657 -0.00167837 4.23133e-21)
(0.996222 -0.00131381 -4.22612e-21)
(0.995808 -0.000912987 0)
(0.995414 -0.000488469 4.22286e-21)
(0.995043 -3.9375e-05 -8.42356e-21)
(0.994696 0.000435265 4.23121e-21)
(0.994375 0.000927649 -4.17886e-21)
(0.99408 0.00144188 2.93361e-23)
(0.993811 0.00197241 4.18124e-21)
(0.99357 0.00251741 -8.33151e-21)
(0.993357 0.00307927 0)
(0.993171 0.00364966 4.12966e-21)
(0.993015 0.0042306 -4.12967e-21)
(0.992887 0.00482091 -1.0221e-21)
(0.992789 0.0054152 0)
(0.99272 0.00601422 1.02417e-21)
(0.99268 0.00661596 2.53699e-22)
(0.992669 0.00721665 -5.37952e-22)
(0.992689 0.00781576 7.54447e-22)
(0.992738 0.00841182 4.97197e-22)
(0.992815 0.0090013 -9.98696e-22)
(0.992923 0.00958335 0)
(0.993058 0.0101565 -1.9682e-21)
(0.993223 0.0107178 3.93744e-21)
(0.993415 0.0112663 0)
(0.993635 0.0118004 1.93617e-21)
(0.993881 0.0123176 0)
(0.994154 0.0128169 3.83051e-21)
(0.994453 0.0132971 -7.63426e-21)
(0.994777 0.013756 3.78228e-21)
(0.995124 0.0141925 -2.16406e-23)
(0.995496 0.0146057 3.71967e-21)
(0.995889 0.0149935 -3.73545e-21)
(0.996305 0.0153561 3.69735e-21)
(0.996742 0.0156914 7.35608e-21)
(0.9972 0.0159982 0)
(0.997677 0.0162772 0)
(0.998174 0.016525 -7.21447e-21)
(0.998692 0.0167435 -1.43209e-20)
(0.999233 0.0169284 1.4224e-20)
(0.999801 0.0170813 -7.95721e-21)
(1.00041 0.0172243 7.88627e-21)
(0.99953 -0.00566493 0)
(0.998961 -0.00544045 8.68368e-21)
(0.998335 -0.00515161 8.67036e-21)
(0.997684 -0.00483424 1.2988e-20)
(0.997032 -0.00447635 -1.29808e-20)
(0.996388 -0.00407519 -4.30433e-21)
(0.995754 -0.0036465 1.29684e-20)
(0.995152 -0.00317511 -4.29391e-21)
(0.994579 -0.00266938 4.29819e-21)
(0.994033 -0.00215417 0)
(0.993517 -0.00161394 8.60659e-21)
(0.993036 -0.00102851 0)
(0.992581 -0.000408887 -4.23262e-21)
(0.992159 0.000233036 -4.27397e-21)
(0.99177 0.000902685 5.04538e-23)
(0.991416 0.00159282 0)
(0.991099 0.00230104 4.22015e-21)
(0.990817 0.00303014 8.42203e-21)
(0.990572 0.0037702 0)
(0.990366 0.00452355 2.07878e-21)
(0.990197 0.00528859 -2.07813e-21)
(0.990067 0.00605894 -2.06179e-21)
(0.989977 0.0068353 2.07277e-21)
(0.989925 0.00761513 -4.11561e-24)
(0.989913 0.00839398 -5.1084e-22)
(0.98994 0.00917086 -2.24629e-22)
(0.990007 0.00994391 -5.0586e-22)
(0.990113 0.010709 1.00919e-21)
(0.990258 0.0114646 0)
(0.990441 0.012209 1.98111e-21)
(0.990662 0.0129385 -3.94777e-21)
(0.990921 0.0136518 0)
(0.991216 0.0143468 0)
(0.991548 0.0150203 3.86734e-21)
(0.991913 0.0156711 -7.71179e-21)
(0.992313 0.0162978 3.84453e-21)
(0.992746 0.0168972 3.81683e-21)
(0.993209 0.0174685 0)
(0.993704 0.0180102 1.12641e-20)
(0.994227 0.0185198 -7.45979e-21)
(0.994778 0.0189979 -3.6997e-21)
(0.995357 0.0194414 1.01031e-23)
(0.99596 0.0198494 -7.3077e-21)
(0.996589 0.0202228 -7.24677e-21)
(0.997242 0.0205574 -7.19705e-21)
(0.99792 0.0208559 1.2061e-23)
(0.998627 0.0211127 -1.76076e-23)
(0.999367 0.0213307 0)
(1.00016 0.0215441 -1.39796e-20)
(0.998786 -0.00852769 0)
(0.998053 -0.00821176 2.27097e-21)
(0.997253 -0.00781963 -1.08505e-20)
(0.996425 -0.00739189 -8.67636e-21)
(0.995592 -0.00691585 8.66773e-21)
(0.994769 -0.00639641 4.41132e-21)
(0.993964 -0.00583254 -4.30251e-21)
(0.993188 -0.00521705 0)
(0.99244 -0.00456731 0)
(0.991727 -0.00387539 8.73366e-21)
(0.991054 -0.0031276 -8.61109e-21)
(0.990423 -0.00236707 4.32018e-21)
(0.98983 -0.00159156 -4.31689e-21)
(0.989279 -0.000764795 4.31185e-21)
(0.988772 0.000100242 4.31596e-21)
(0.988309 0.000990851 -4.28228e-21)
(0.987892 0.00190435 -4.23672e-21)
(0.987523 0.00284406 -4.22023e-21)
(0.987201 0.00379842 4.22417e-21)
(0.98693 0.00476996 -4.22323e-21)
(0.986709 0.00575642 0)
(0.986538 0.00675045 2.10428e-21)
(0.98642 0.00775244 -2.07165e-21)
(0.986353 0.00875912 1.5519e-21)
(0.986338 0.00976529 0)
(0.986377 0.0107691 1.02497e-21)
(0.986467 0.0117682 0)
(0.98661 0.0127577 -1.00798e-21)
(0.986805 0.0137352 1.74821e-23)
(0.98705 0.0146982 1.16498e-23)
(0.987347 0.0156424 3.99593e-21)