/*--------------------------------*- C++ -*----------------------------------*\
| =========                 |                                                 |
| \\      /  F ield         | OpenFOAM: The Open Source CFD Toolbox           |
|  \\    /   O peration     | Version:  2312                                  |
|   \\  /    A nd           | Website:  www.openfoam.com                      |
|    \\/     M anipulation  |                                                 |
\*---------------------------------------------------------------------------*/
FoamFile
{
    version     2.0;
    format      ascii;
    arch        "LSB;label=32;scalar=64";
    class       surfaceScalarField;
    location    "65.919546116723993";
    object      phi;
}
// * * * * * * * * * * * * * * * * * * * * * * * * * * * * * * * * * * * * * //

dimensions      [0 3 -1 0 0 0 0];

oriented        oriented;

internalField   nonuniform List<scalar> 
41713
(
0.00736213
0.0568843
0.00362734
0.0679812
0.00211539
0.0657584
0.00148211
0.0648797
0.00109563
0.0646329
0.000840763
0.0645013
0.000664865
0.0644223
0.000537016
0.0643743
0.000440603
0.0643428
0.000365971
0.0643211
0.000306992
0.0643054
0.000259613
0.0642938
0.000221069
0.064285
0.000189422
0.0642781
0.000163279
0.0642726
0.000141622
0.0642681
0.000123691
0.0642644
0.000108907
0.0642612
9.68183e-05
0.0642585
8.70502e-05
0.0642562
7.9252e-05
0.0642542
7.30713e-05
0.0642526
6.82349e-05
0.0642513
6.46556e-05
0.0548148
6.16545e-05
0.045679
5.89684e-05
0.038066
5.6565e-05
0.0317218
5.44402e-05
0.026435
0.0220293
5.25446e-05
0.00999315
0.0468911
0.0084247
0.0695497
0.0057115
0.0684716
0.00411654
0.0664747
0.00311428
0.0656352
0.00242111
0.0651945
0.00192129
0.0649221
0.0015494
0.0647462
0.00126511
0.0646271
0.00104264
0.0645435
0.000865056
0.064483
0.000720966
0.0644379
0.000602533
0.0644034
0.000504219
0.0643764
0.000422045
0.0643548
0.000353098
0.064337
0.000295219
0.0643222
0.000246782
0.0643097
0.000206542
0.0642988
0.000173526
0.0642892
0.000146945
0.0642808
0.000126118
0.0642734
0.000110353
0.064267
0.000100035
0.0548251
9.30794e-05
0.0456859
8.80429e-05
0.038071
8.40666e-05
0.0317258
8.07019e-05
0.0264383
0.0220321
7.78876e-05
0.00859436
0.0382968
0.00970363
0.0684404
0.00746358
0.0707116
0.00569253
0.0682457
0.00450177
0.0668259
0.00361375
0.0660825
0.00292831
0.0656076
0.00239385
0.0652806
0.0019717
0.0650493
0.0016333
0.0648819
0.00135821
0.0647581
0.0011318
0.0646643
0.00094354
0.0645917
0.000785729
0.0645342
0.000652712
0.0644878
0.000540286
0.0644495
0.000445302
0.0644172
0.000365379
0.0643896
0.000298699
0.0643654
0.000243856
0.0643441
0.000199746
0.0643249
0.000165458
0.0643077
0.000140081
0.0642924
0.000124268
0.0548409
0.000114361
0.0456958
0.000107745
0.0380777
0.000102851
0.0317307
9.88713e-05
0.0264423
0.0220354
9.56117e-05
0.006773
0.0315238
0.00946987
0.0657435
0.00811273
0.0720688
0.00643047
0.069928
0.00523669
0.0680197
0.00432812
0.0669911
0.00359328
0.0663424
0.00299283
0.0658811
0.00249961
0.0655425
0.00209157
0.06529
0.00175146
0.0650982
0.00146588
0.0649499
0.00122454
0.064833
0.00101955
0.0647392
0.000844896
0.0646624
0.000695972
0.0645984
0.000569259
0.0645439
0.000462064
0.0644968
0.000372318
0.0644552
0.000298423
0.064418
0.000239132
0.0643842
0.000193431
0.0643534
0.000160221
0.0643256
0.000140225
0.0548609
0.00012831
0.0457078
0.000120801
0.0380852
0.000115545
0.031736
0.000111487
0.0264464
0.0220385
0.000108336
0.00506317
0.0264606
0.00856476
0.0622419
0.00817379
0.0724598
0.00672731
0.0713745
0.00556909
0.069178
0.00468985
0.0678703
0.00396811
0.0670642
0.00336004
0.0664892
0.00284469
0.0660579
0.00240613
0.0657285
0.0020314
0.0654729
0.00170998
0.0652713
0.00143342
0.0651096
0.00119495
0.0649777
0.000989214
0.0648682
0.00081198
0.0647756
0.000659949
0.064696
0.000530552
0.0646262
0.000421804
0.0645639
0.00033217
0.0645076
0.000260458
0.0644559
0.000205682
0.0644082
0.000166665
0.0643646
0.000144071
0.0548835
0.000131416
0.0457204
0.000124085
0.0380925
0.000119417
0.0317406
0.000116133
0.0264497
0.0220408
0.000113835
0.00361661
0.022844
0.00730738
0.0585512
0.00777699
0.0719901
0.00671562
0.0724358
0.00565202
0.0702415
0.00482347
0.0686989
0.00413891
0.0677487
0.00354999
0.0670781
0.0030388
0.066569
0.00259378
0.0661735
0.00220543
0.0658613
0.00186588
0.0656109
0.00156869
0.0654068
0.00130858
0.0652378
0.0010813
0.0650954
0.000883407
0.0649735
0.000712184
0.0648672
0.000565506
0.0647728
0.000441733
0.0646877
0.000339614
0.0646097
0.000258194
0.0645373
0.000196672
0.0644697
0.000153946
0.0644074
0.000130478
0.0549069
0.000118528
0.0457324
0.000112625
0.0380984
0.000109655
0.0317436
0.000108126
0.0264512
0.0220414
0.00010754
0.00252149
0.0203225
0.00601694
0.0550557
0.00709534
0.0709117
0.00646422
0.0730669
0.00555028
0.0711555
0.00479239
0.0694568
0.00416
0.0683811
0.0036059
0.0676322
0.00311409
0.0670608
0.00267695
0.0666107
0.00228815
0.0662501
0.00194227
0.0659567
0.00163476
0.0657143
0.00136185
0.0655107
0.00112042
0.0653369
0.000908002
0.0651859
0.000722608
0.0650526
0.000562733
0.0649327
0.000427254
0.0648232
0.000315371
0.0647216
0.00022652
0.0646262
0.000160224
0.064536
0.000115598
0.064452
9.27821e-05
0.0549298
8.28501e-05
0.0457423
7.95592e-05
0.0381017
7.93958e-05
0.0317438
8.06728e-05
0.0264499
0.0220393
8.2756e-05
0.0017577
0.0185648
0.00488879
0.0519246
0.00632272
0.0694778
0.0060752
0.0733145
0.00532954
0.0719011
0.00464779
0.0701385
0.00407116
0.0689578
0.00355903
0.0681443
0.0030952
0.0675247
0.00267453
0.0670314
0.00229347
0.0666312
0.00194884
0.0663014
0.00163783
0.0660253
0.00135809
0.0657904
0.00110766
0.0655873
0.000885023
0.0654086
0.000689001
0.0652486
0.000518785
0.0651029
0.000373875
0.0649681
0.000254033
0.0648414
0.000159206
0.064721
8.93483e-05
0.0646059
4.39832e-05
0.0644974
2.28671e-05
0.0549509
1.59204e-05
0.0457492
1.6187e-05
0.0381014
1.97241e-05
0.0317402
2.47142e-05
0.0264449
0.0220336
3.0406e-05
0.00124749
0.0173173
0.00397086
0.0492013
0.00557272
0.0678759
0.00563184
0.0732553
0.00505005
0.0724829
0.00443938
0.0707492
0.00391158
0.0694856
0.00343922
0.0686167
0.00300484
0.0679591
0.00260388
0.0674323
0.00223448
0.0670005
0.00189514
0.0666407
0.0015845
0.0663359
0.00130141
0.0660735
0.00104498
0.0658437
0.00081458
0.065639
0.000609855
0.0654533
0.000430717
0.0652821
0.000277338
0.0651215
0.000150136
0.0649686
4.97022e-05
0.0648215
-2.33529e-05
0.0646789
-6.93326e-05
0.0645433
-8.87476e-05
0.0549703
-9.24758e-05
0.045753
-8.82883e-05
0.0380972
-8.05922e-05
0.0317325
-7.16415e-05
0.026436
0.0220242
-6.21951e-05
0.000913792
0.0164035
0.00324392
0.0468711
0.00488815
0.0662317
0.00517736
0.0729661
0.00474642
0.0729139
0.00420084
0.0712948
0.00371226
0.0699741
0.0032725
0.0690564
0.00286398
0.0683676
0.00248149
0.0678148
0.00212392
0.0673581
0.00179076
0.0669739
0.00148164
0.0666451
0.00119637
0.0663588
0.000934885
0.0661052
0.000697363
0.0658765
0.000484184
0.0656665
0.000295964
0.0654703
0.000133569
0.0652839
-1.94574e-06
0.0651042
-0.000109366
0.0649289
-0.000187461
0.064757
-0.000235566
0.0645914
-0.000253974
0.0549887
-0.000254743
0.0457537
-0.00024637
0.0380889
-0.000233755
0.0317199
-0.000219441
0.0264217
0.0220095
-0.000204766
0.000696816
0.0157067
0.00267447
0.0448935
0.00428108
0.0646251
0.00473223
0.072515
0.00443444
0.0732117
0.00394911
0.0717801
0.0034918
0.0704314
0.00307684
0.0694714
0.00268864
0.0687558
0.00232104
0.0681824
0.00197302
0.0677061
0.00164458
0.0673023
0.00133599
0.0669536
0.00104768
0.0666471
0.000780248
0.0663726
0.000534498
0.0661222
0.000311454
0.0658896
0.00011237
0.0656694
-6.12998e-05
0.0654575
-0.000207826
0.0652507
-0.000325167
0.0650462
-0.000411209
0.0648431
-0.000464514
0.0646448
-0.000484551
0.0550087
-0.000484201
0.0457534
-0.000472801
0.0380775
-0.000455899
0.031703
-0.000436563
0.0264023
0.0219894
-0.000416472
0.000552963
0.0151537
0.00222834
0.0432181
0.00375078
0.0631027
0.00430763
0.0719581
0.00412266
0.0733966
0.00369275
0.07221
0.00326065
0.0708636
0.00286351
0.0698685
0.00248982
0.0691295
0.00213268
0.0685395
0.00179072
0.0680481
0.00146416
0.0676289
0.00115361
0.0672642
0.000859904
0.0669408
0.0005841
0.0666484
0.000327491
0.0663789
9.15822e-05
0.0661255
-0.000121895
0.0658829
-0.000310878
0.0656465
-0.000472866
0.0654127
-0.000605015
0.0651784
-0.000704386
0.0649424
-0.000768666
0.064709
-0.00079531
0.0550354
-0.000797769
0.0457558
-0.000786182
0.0380659
-0.000766858
0.0316837
-0.000743567
0.026379
0.0219645
-0.00071869
0.000452989
0.0147008
0.00187532
0.0417958
0.00329015
0.0616878
0.00390924
0.071339
0.00381672
0.0734892
0.00343706
0.0725896
0.00302548
0.0712751
0.00264017
0.0702538
0.00227546
0.0694942
0.00192411
0.0688909
0.00158422
0.068388
0.00125594
0.0679571
0.000940019
0.0675801
0.000637507
0.0672433
0.000349751
0.0669362
7.83172e-05
0.0666503
-0.000174986
0.0663788
-0.000407949
0.0661158
-0.000617871
0.0658564
-0.000801598
0.0655964
-0.000955607
0.0653324
-0.00107622
0.0650631
-0.00116033
0.0647931
-0.00120189
0.0550769
-0.00121427
0.0457682
-0.00120814
0.0380597
-0.00119052
0.0316661
-0.00116605
0.0263546
0.0219366
-0.00113809
0.000379206
0.0143216
0.00159165
0.0405833
0.00288989
0.0603896
0.00353893
0.07069
0.00352014
0.073508
0.00318553
0.0729243
0.00279101
0.0716697
0.0024127
0.0706321
0.00205195
0.0698549
0.00170186
0.069241
0.00135991
0.0687299
0.00102598
0.0682911
0.000700746
0.0679053
0.00038531
0.0675588
8.10529e-05
0.0672404
-0.00021038
0.0669417
-0.000486879
0.0666553
-0.000745772
0.0663747
-0.000983868
0.0660945
-0.00119748
0.06581
-0.00138253
0.0655174
-0.00153485
0.0652154
-0.00165102
0.0649093
-0.00171986
0.0551458
-0.00175378
0.0458022
-0.00176315
0.0380691
-0.00175519
0.0316581
-0.00173549
0.0263349
0.0219098
-0.00170877
0.000321577
0.014
0.00136166
0.0395433
0.00254398
0.0592073
0.00319877
0.0700352
0.00323577
0.073471
0.00294024
0.0732198
0.00256004
0.0720499
0.00218507
0.0710071
0.00182409
0.0702159
0.00147118
0.0695939
0.00112326
0.0690779
0.000779768
0.0686346
0.000441171
0.0682439
0.000108373
0.0678916
-0.000217423
0.0675662
-0.000534526
0.0672588
-0.000840574
0.0669613
-0.00113261
0.0666668
-0.00140707
0.066369
-0.00165977
0.0660627
-0.00188622
0.0657439
-0.00208221
0.0654114
-0.00224515
0.0650722
-0.00235812
0.0552587
-0.00243211
0.0458761
-0.00247557
0.0381126
-0.00249372
0.0316762
-0.00249142
0.0263326
0.0218929
-0.00247451
0.000236107
0.0137639
0.00100016
0.0387792
0.00191054
0.0582969
0.00245523
0.0694905
0.00251906
0.0734071
0.00229615
0.0734427
0.00198524
0.0723608
0.00166999
0.0713224
0.00136331
0.0705226
0.00106122
0.069896
0.000760712
0.0693784
0.00046087
0.0689344
0.000161749
0.0685431
-0.000136298
0.0681896
-0.000432477
0.0678624
-0.000725426
0.0675518
-0.00101322
0.0672491
-0.0012933
0.0669468
-0.0015624
0.0666381
-0.00181657
0.0663169
-0.00205135
0.0659787
-0.00226277
0.0656228
-0.00244932
0.0652588
-0.00259216
0.0554016
-0.00270187
0.0459859
-0.00278505
0.0381958
-0.00284275
0.0317339
-0.00287476
0.0263646
0.0219029
-0.00288469
0.00017681
0.0135871
0.000745778
0.0382102
0.00144739
0.0575953
0.00189212
0.0690458
0.00196342
0.0733358
0.00179373
0.0736124
0.00154054
0.072614
0.00127782
0.0715851
0.0010199
0.0707805
0.000764133
0.0701518
0.000507658
0.0696348
0.000249315
0.0691928
-1.12502e-05
0.0688036
-0.000274043
0.0684524
-0.000538726
0.0681271
-0.000804452
0.0678175
-0.00106989
0.0675146
-0.00133311
0.0672101
-0.00159142
0.0668964
-0.00184128
0.0665667
-0.00207837
0.0662158
-0.00229831
0.0658427
-0.00249872
0.0654592
-0.00265826
0.0555611
-0.00278987
0.0461175
-0.00290469
0.0383106
-0.00300723
0.0318365
-0.00309498
0.0264523
0.021962
-0.00315416
0.000136565
0.0134505
0.000569079
0.0377777
0.00111613
0.0570482
0.00147827
0.0686836
0.00154791
0.0732662
0.00141698
0.0737433
0.00121039
0.0728205
0.000991832
0.0718036
0.000775437
0.0709969
0.000559495
0.0703677
0.000341417
0.0698529
0.000119934
0.0694142
-0.000105592
0.0690292
-0.000335487
0.0686823
-0.000569744
0.0683614
-0.000808069
0.0680558
-0.00104976
0.0677562
-0.00129357
0.0674539
-0.00153757
0.0671404
-0.00177897
0.0668081
-0.00201393
0.0664507
-0.00223782
0.0660666
-0.00244597
0.0656674
-0.00261053
0.0557257
-0.00274236
0.0462493
-0.00285806
0.0384263
-0.00297196
0.0319504
-0.00310224
0.0265826
0.0221193
-0.00325949
0.000104812
0.0133457
0.000441682
0.0374409
0.000876836
0.0566131
0.00117379
0.0683867
0.00123632
0.0732037
0.00113167
0.073848
0.000961381
0.0729908
0.000779573
0.0719855
0.000598618
0.0711779
0.000416986
0.0705493
0.000232315
0.0700376
4.3356e-05
0.0696032
-0.000150621
0.0692231
-0.000350127
0.0688818
-0.000555505
0.0685667
-0.000766907
0.0682672
-0.000984195
0.0679735
-0.00120682
0.0676765
-0.00143366
0.0673673
-0.00166293
0.0670374
-0.00189198
0.0666798
-0.00211733
0.066292
-0.00233403
0.0658841
-0.00250713
0.0558988
-0.00263587
0.046378
-0.00272659
0.038517
-0.00278901
0.0320128
-0.00284093
0.0266345
-0.00302004
0.0222984
9.68972e-05
0.021983
0.000138741
0.0219855
0.000171647
0.0219944
0.000202219
0.0219968
0.000226978
0.0220026
0.000247212
0.0220071
0.000264424
0.0220101
0.000275322
0.0220165
0.000284222
0.0220185
0.000288105
0.0220235
0.000288925
0.0220265
0.000287225
0.0220291
0.000281082
0.0220335
0.000273343
0.0220351
0.000262356
0.0220383
0.000249066
0.0220406
0.000234443
0.022042
0.000216842
0.022045
0.000198179
0.022046
0.000178276
0.0220473
0.000156808
0.0220488
0.000134726
0.0220494
0.000111972
0.0220501
8.87077e-05
0.0220506
6.53322e-05
0.0220507
4.20127e-05
0.0220507
1.91329e-05
0.0220502
-3.30777e-06
0.0220498
-2.49886e-05
0.022049
-4.52693e-05
0.0220476
-6.46442e-05
0.0220467
-8.22839e-05
0.022045
-9.78842e-05
0.022043
-0.00011221
0.0220417
-0.000123224
0.0220384
-0.00013225
0.0220364
-0.000138981
0.0220341
-0.000141524
0.0220299
-0.00014227
0.0220281
-0.000138327
0.0220234
-0.00013121
0.0220202
-0.000120952
0.0220171
-0.000104875
0.0220113
-8.6618e-05
0.0220091
-6.1623e-05
0.0220024
-3.31637e-05
0.0219989
1.23945e-07
0.0219941
3.97878e-05
0.0219877
0.0219852
8.19731e-05
0.00012155
0.0219393
0.000162936
0.0219441
0.00019562
0.0219618
0.000226218
0.0219662
0.000251261
0.0219776
0.000272034
0.0219863
0.000290029
0.0219921
0.000301948
0.0220045
0.000312091
0.0220083
0.000317431
0.0220181
0.000319907
0.0220241
0.000320049
0.0220289
0.000315924
0.0220376
0.000310362
0.0220407
0.000301699
0.022047
0.000290868
0.0220515
0.000278822
0.022054
0.00026391
0.0220599
0.000248026
0.0220619
0.000230984
0.0220643
0.000212447
0.0220674
0.000193347
0.0220685
0.000173617
0.0220698
0.000153406
0.0220708
0.000133097
0.022071
0.000112846
0.0220709
9.30293e-05
0.0220701
7.36266e-05
0.0220692
5.49483e-05
0.0220677
3.76244e-05
0.022065
2.11373e-05
0.0220632
6.30732e-06
0.0220598
-6.57638e-06
0.0220558
-1.8298e-05
0.0220534
-2.68209e-05
0.0220469
-3.34886e-05
0.022043
-3.8005e-05
0.0220386
-3.84804e-05
0.0220304
-3.73304e-05
0.022027
-3.16659e-05
0.0220177
-2.30219e-05
0.0220116
-1.14469e-05
0.0220055
5.73015e-06
0.0219941
2.4843e-05
0.02199
5.04508e-05
0.0219768
7.92509e-05
0.0219701
0.000112592
0.0219607
0.000151998
0.0219483
0.0219436
0.000193593
0.000138953
0.021896
0.000180244
0.0219028
0.000213095
0.0219289
0.000244125
0.0219352
0.000269863
0.0219518
0.000291585
0.0219646
0.000310772
0.021973
0.000324119
0.0219912
0.000335909
0.0219965
0.000343108
0.0220109
0.000347641
0.0220195
0.000350023
0.0220265
0.000348315
0.0220393
0.000345326
0.0220436
0.000339386
0.0220529
0.000331412
0.0220595
0.000322341
0.0220631
0.000310515
0.0220717
0.00029781
0.0220746
0.000284026
0.0220781
0.000268818
0.0220826
0.000253097
0.0220843
0.000236786
0.0220861
0.000220023
0.0220876
0.000203173
0.0220879
0.000186379
0.0220877
0.000170008
0.0220864
0.00015402
0.0220852
0.000138713
0.022083
0.00012471
0.022079
0.000111471
0.0220765
9.98094e-05
0.0220715
9.00023e-05
0.0220656
8.12434e-05
0.0220622
7.55675e-05
0.0220526
7.1605e-05
0.022047
6.96389e-05
0.0220406
7.15544e-05
0.0220285
7.49081e-05
0.0220236
8.25905e-05
0.0220101
9.30453e-05
0.0220011
0.000106211
0.0219924
0.000124758
0.0219756
0.00014499
0.0219698
0.00017147
0.0219503
0.000200867
0.0219407
0.000234518
0.0219271
0.000273932
0.0219089
0.0219023
0.000315194
0.000151982
0.0218524
0.000193785
0.021861
0.00022739
0.0218953
0.000259435
0.0219031
0.000286453
0.0219248
0.000309716
0.0219414
0.000330696
0.021952
0.00034608
0.0219758
0.000360138
0.0219825
0.000369825
0.0220012
0.000377052
0.0220123
0.000382319
0.0220213
0.00038368
0.022038
0.000383922
0.0220434
0.000381369
0.0220555
0.000376919
0.0220639
0.000371494
0.0220685
0.00036343
0.0220798
0.000354579
0.0220835
0.000344728
0.0220879
0.000333524
0.0220938
0.000321855
0.0220959
0.000309634
0.0220984
0.000296987
0.0221002
0.000284257
0.0221006
0.000271575
0.0221004
0.000259301
0.0220987
0.000247369
0.0220971
0.000236068
0.0220943
0.000226011
0.022089
0.000216634
0.0220858
0.000208743
0.0220794
0.000202602
0.0220718
0.00019738
0.0220674
0.000195115
0.0220548
0.000194412
0.0220477
0.00019554
0.0220394
0.000200385
0.0220236
0.00020647
0.0220175
0.000216693
0.0219998
0.000229472
0.0219884
0.000244734
0.0219771
0.000265149
0.0219551
0.000286988
0.0219479
0.000314826
0.0219224
0.000345296
0.0219102
0.000379728
0.0218926
0.000419625
0.021869
0.0218609
0.000461026
0.000158628
0.0218076
0.000201773
0.0218179
0.000236957
0.0218601
0.000270839
0.0218692
0.000299961
0.0218957
0.000325596
0.0219157
0.00034921
0.0219284
0.000367482
0.0219575
0.000384669
0.0219653
0.000397716
0.0219882
0.000408521
0.0220015
0.000417568
0.0220122
0.000422903
0.0220326
0.000427292
0.022039
0.000429048
0.0220537
0.000429054
0.0220639
0.000428211
0.0220694
0.000424851
0.0220831
0.000420801
0.0220875
0.000415832
0.0220929
0.000409583
0.0221
0.000402918
0.0221026
0.000395735
0.0221056
0.000388151
0.0221078
0.000380483
0.0221083
0.00037285
0.022108
0.000365601
0.0221059
0.000358647
0.0221041
0.000352261
0.0221007
0.000347051
0.0220942
0.000342423
0.0220905
0.000339177
0.0220826
0.000337563
0.0220734
0.000336725
0.0220682
0.000338705
0.0220529
0.000342077
0.0220443
0.0003471
0.0220344
0.000355659
0.0220151
0.000365245
0.0220079
0.000378764
0.0219863
0.00039461
0.0219725
0.000412694
0.021959
0.000435697
0.0219321
0.000459848
0.0219238
0.000489744
0.0218925
0.000521984
0.021878
0.000557892
0.0218567
0.000598966
0.0218279
0.0218187
0.000641198
0.000154492
0.0217606
0.000200001
0.0217724
0.000237785
0.0218223
0.000274538
0.0218325
0.000306808
0.0218634
0.000335876
0.0218867
0.000363202
0.021901
0.00038546
0.0219353
0.000406893
0.0219438
0.000424438
0.0219707
0.000439977
0.021986
0.000453979
0.0219982
0.000464478
0.0220221
0.000474221
0.0220293
0.000481508
0.0220465
0.000487204
0.0220582
0.000492189
0.0220644
0.000494789
0.0220805
0.000496802
0.0220855
0.000497985
0.0220917
0.000497964
0.0221
0.000497576
0.022103
0.000496705
0.0221064
0.000495454
0.0221091
0.000494115
0.0221096
0.00049279
0.0221094
0.000491819
0.0221069
0.000491081
0.0221048
0.000490837
0.022101
0.000491686
0.0220934
0.000493
0.0220891
0.000495577
0.02208
0.000499648
0.0220693
0.000504325
0.0220635
0.000511664
0.0220455
0.000520202
0.0220358
0.000530183
0.0220244
0.000543501
0.0220017
0.000557602
0.0219938
0.000575411
0.0219685
0.000595292
0.0219526
0.000617142
0.0219372
0.000643657
0.0219056
0.00067102
0.0218964
0.000703858
0.0218597
0.000738729
0.0218431
0.000776957
0.0218185
0.000820037
0.0217848
0.0217748
0.000863904
0.000133045
0.0217103
0.000182106
0.0217233
0.000223703
0.0217807
0.000264571
0.0217916
0.000301266
0.0218267
0.000335073
0.0218529
0.00036745
0.0218687
0.000395064
0.0219077
0.000422148
0.0219168
0.000445625
0.0219472
0.000467363
0.0219642
0.000487813
0.0219778
0.000504997
0.022005
0.000521639
0.0220126
0.000536025
0.0220321
0.000549001
0.0220452
0.000561422
0.022052
0.000571605
0.0220703
0.000581318
0.0220758
0.000590299
0.0220827
0.000598162
0.0220922
0.000605711
0.0220954
0.000612815
0.0220993
0.00061956
0.0221023
0.000626205
0.022103
0.000632835
0.0221027
0.000639778
0.0221
0.000646877
0.0220977
0.000654378
0.0220935
0.000662869
0.0220849
0.000671683
0.0220803
0.000681612
0.0220701
0.000692868
0.0220581
0.000704528
0.0220519
0.000718659
0.0220314
0.000733758
0.0220207
0.000750053
0.0220081
0.000769448
0.0219823
0.000789339
0.0219739
0.000812674
0.0219452
0.000837782
0.0219275
0.000864547
0.0219104
0.000895687
0.0218745
0.000927328
0.0218648
0.000964141
0.0218229
0.00100264
0.0218046
0.00104414
0.021777
0.00109015
0.0217388
0.0217284
0.00113653
8.55456e-05
0.0216552
0.000139491
0.0216694
0.00018632
0.0217339
0.00023276
0.0217452
0.000275378
0.0217841
0.000315481
0.0218128
0.000354522
0.0218296
0.000389152
0.021873
0.000423601
0.0218823
0.000454771
0.021916
0.000484516
0.0219345
0.00051327
0.021949
0.000539033
0.0219792
0.00056451
0.0219872
0.000587967
0.0220086
0.000610229
0.022023
0.000632122
0.0220301
0.000651952
0.0220505
0.000671452
0.0220563
0.000690338
0.0220639
0.000708206
0.0220743
0.000725824
0.0220778
0.000743038
0.0220821
0.000759916
0.0220855
0.000776678
0.0220862
0.000793385
0.022086
0.000810352
0.022083
0.000827376
0.0220807
0.000844684
0.0220761
0.00086285
0.0220667
0.00088116
0.022062
0.000900397
0.0220509
0.000920752
0.0220377
0.000941255
0.0220314
0.000963992
0.0220086
0.000987406
0.0219973
0.00101171
0.0219838
0.00103882
0.0219552
0.00106607
0.0219467
0.00109644
0.0219148
0.00112821
0.0218957
0.00116127
0.0218773
0.00119834
0.0218374
0.0012355
0.0218276
0.00127748
0.0217809
0.00132071
0.0217614
0.00136654
0.0217312
0.00141647
0.0216889
0.0216786
0.0014663
-1.40827e-06
0.0215944
5.97832e-05
0.0216082
0.000114058
0.0216796
0.000167966
0.0216913
0.000218458
0.0217336
0.000266808
0.0217644
0.000314487
0.0217819
0.000358157
0.0218294
0.00040206
0.0218384
0.000443072
0.021875
0.000483037
0.0218945
0.000522371
0.0219097
0.000559049
0.0219425
0.000595759
0.0219504
0.00063074
0.0219736
0.000664792
0.0219889
0.000698715
0.0219961
0.000730788
0.0220184
0.000762714
0.0220244
0.000794176
0.0220324
0.000824747
0.0220437
0.000855153
0.0220474
0.000885209
0.0220521
0.000914957
0.0220557
0.000944572
0.0220566
0.000974082
0.0220565
0.00100378
0.0220533
0.00103341
0.0220511
0.00106317
0.0220464
0.00109361
0.0220363
0.00112397
0.0220317
0.00115501
0.0220198
0.00118689
0.0220058
0.00121859
0.0219997
0.0012522
0.021975
0.00128612
0.0219634
0.00132053
0.0219494
0.00135736
0.0219184
0.00139387
0.0219102
0.00143309
0.0218756
0.00147324
0.0218556
0.00151418
0.0218364
0.0015587
0.0217929
0.00160277
0.0217835
0.0016512
0.0217325
0.00170037
0.0217122
0.00175163
0.0216799
0.0018065
0.021634
0.0216244
0.00186067
-0.000136683
0.0215263
-6.89466e-05
0.0215404
-6.98554e-06
0.0216177
5.65702e-05
0.0216277
0.000117253
0.0216729
0.000175996
0.0217057
0.000234629
0.0217233
0.000289728
0.0217743
0.000345548
0.0217826
0.000398945
0.0218216
0.000451778
0.0218417
0.000504444
0.021857
0.000554883
0.0218921
0.000605773
0.0218996
0.000655315
0.0219241
0.000704283
0.0219399
0.000753443
0.021947
0.000801039
0.0219708
0.000848736
0.0219767
0.000896178
0.0219849
0.000942902
0.021997
0.000989583
0.0220007
0.001036
0.0220056
0.00108214
0.0220096
0.00112814
0.0220106
0.00117397
0.0220107
0.0012199
0.0220074
0.00126559
0.0220054
0.00131121
0.0220008
0.00135729
0.0219902
0.00140297
0.021986
0.00144899
0.0219738
0.00149549
0.0219593
0.00154136
0.0219538
0.00158873
0.0219277
0.00163589
0.0219162
0.001683
0.0219023
0.00173201
0.0218694
0.0017801
0.0218621
0.00183032
0.0218254
0.00188085
0.0218051
0.00193153
0.0217857
0.00198519
0.0217392
0.00203771
0.021731
0.002094
0.0216762
0.00215035
0.0216559
0.00220813
0.0216221
0.00226888
0.0215733
0.0215651
0.00232821
-0.000339025
0.0214489
-0.000260746
0.0214622
-0.000188353
0.0215453
-0.000115107
0.0215545
-4.38879e-05
0.0216017
2.73556e-05
0.0216344
9.93898e-05
0.0216513
0.000168542
0.0217051
0.000238943
0.0217122
0.000307654
0.0217529
0.000376478
0.0217728
0.000445773
0.0217877
0.000513421
0.0218244
0.000582106
0.0218309
0.000649971
0.0218562
0.00071776
0.0218722
0.000786201
0.0218785
0.000853478
0.0219036
0.000921219
0.0219089
0.000989007
0.0219172
0.00105633
0.0219297
0.00112379
0.0219333
0.00119111
0.0219383
0.00125824
0.0219424
0.00132522
0.0219436
0.00139196
0.0219439
0.00145867
0.0219407
0.00152494
0.0219391
0.00159087
0.0219348
0.00165693
0.0219241
0.00172217
0.0219207
0.00178731
0.0219087
0.00185241
0.0218942
0.00191626
0.02189
0.00198101
0.0218629
0.00204485
0.0218524
0.0021079
0.0218393
0.00217213
0.0218052
0.00223458
0.0217996
0.00229838
0.0217616
0.00236163
0.0217418
0.00242415
0.0217232
0.00248882
0.0216746
0.00255143
0.0216684
0.00261699
0.0216106
0.00268171
0.0215911
0.00274699
0.0215568
0.00281441
0.0215058
0.0215
0.00287947
-0.000631224
0.0213614
-0.000541803
0.0213727
-0.000457001
0.0214605
-0.000369807
0.0214673
-0.000283969
0.0215159
-0.000198462
0.0215489
-0.000111394
0.0215642
-2.60514e-05
0.0216198
6.2329e-05
0.0216238
0.000149827
0.0216654
0.000238316
0.0216844
0.000328188
0.0216978
0.000417277
0.0217353
0.000508279
0.0217399
0.000599238
0.0217653
0.000690829
0.0217806
0.000783737
0.0217856
0.000876055
0.0218112
0.000969369
0.0218156
0.00106318
0.0218234
0.00115689
0.021836
0.00125104
0.0218391
0.00134526
0.0218441
0.00143941
0.0218483
0.00153342
0.0218496
0.00162713
0.0218502
0.00172067
0.0218471
0.00181349
0.0218463
0.0019056
0.0218427
0.00199741
0.0218323
0.00208781
0.0218303
0.00217747
0.021819
0.00226636
0.0218054
0.00235315
0.0218032
0.00243997
0.0217761
0.00252488
0.0217675
0.00260795
0.0217562
0.00269114
0.021722
0.00277137
0.0217194
0.00285182
0.0216811
0.0029305
0.0216631
0.0030072
0.0216465
0.0030849
0.0215969
0.00315924
0.0215941
0.0032354
0.0215345
0.00330949
0.0215171
0.00338296
0.0214834
0.00345746
0.0214314
0.0214291
0.00352836
-0.00103989
0.0212632
-0.000938243
0.0212711
-0.000840038
0.0213623
-0.00073798
0.0213652
-0.000635749
0.0214136
-0.000531959
0.0214451
-0.000425136
0.0214574
-0.000319017
0.0215136
-0.000209279
0.0215141
-9.90727e-05
0.0215552
1.34745e-05
0.0215718
0.000128612
0.0215827
0.000244112
0.0216198
0.000363174
0.0216208
0.000483241
0.0216452
0.000605018
0.0216588
0.000729119
0.0216615
0.000853455
0.0216869
0.00097956
0.0216895
0.00110683
0.0216961
0.00123457
0.0217082
0.00136321
0.0217105
0.00149226
0.0217151
0.00162147
0.0217191
0.00175063
0.0217205
0.00187944
0.0217214
0.0020079
0.0217187
0.0021353
0.0217189
0.00226149
0.0217165
0.00238677
0.021707
0.00250985
0.0217073
0.00263126
0.0216976
0.00275086
0.0216858
0.0028671
0.0216869
0.00298214
0.0216611
0.00309382
0.0216558
0.0032021
0.0216479
0.00330898
0.0216151
0.00341115
0.0216172
0.00351189
0.0215804
0.0036091
0.0215659
0.00370254
0.0215531
0.00379531
0.0215041
0.00388288
0.0215065
0.00397067
0.0214467
0.00405467
0.0214331
0.00413645
0.0214016
0.00421773
0.0213501
0.0213531
0.00429379
-0.00160086
0.0211553
-0.00148729
0.0211575
-0.00137527
0.0212503
-0.00125718
0.0212471
-0.00113689
0.0212933
-0.00101291
0.0213211
-0.00088357
0.021328
-0.000752696
0.0213828
-0.000615669
0.021377
-0.000476201
0.0214157
-0.000332402
0.021428
-0.000184043
0.0214343
-3.3818e-05
0.0214696
0.00011997
0.021467
0.000276191
0.021489
0.000436412
0.0214986
0.000600211
0.0214977
0.000765503
0.0215216
0.000933769
0.0215212
0.00110424
0.0215256
0.00127608
0.0215364
0.00144957
0.021537
0.00162408
0.0215406
0.00179919
0.021544
0.00197448
0.0215452
0.00214946
0.0215464
0.00232394
0.0215442
0.00249694
0.0215459
0.0026681
0.0215454
0.00283752
0.0215376
0.00300359
0.0215412
0.00316669
0.0215345
0.00332644
0.021526
0.00348102
0.0215324
0.00363254
0.0215095
0.00377854
0.0215098
0.00391885
0.0215076
0.00405545
0.0214785
0.00418476
0.0214879
0.00431016
0.021455
0.00442939
0.0214467
0.00454217
0.0214403
0.00465179
0.0213945
0.00475352
0.0214047
0.00485311
0.0213471
0.00494647
0.0213397
0.00503534
0.0213127
0.00512165
0.0212638
0.0212742
0.00520055
-0.00236047
0.0210412
-0.00223722
0.0210343
-0.00211283
0.0211259
-0.00197905
0.0211133
-0.00183962
0.0211539
-0.00169269
0.0211742
-0.0015365
0.0211719
-0.00137526
0.0212215
-0.00120437
0.0212062
-0.00102803
0.0212394
-0.000844655
0.0212446
-0.000654359
0.0212441
-0.000459898
0.0212751
-0.000258132
0.0212653
-5.22496e-05
0.0212831
0.000156354
0.02129
0.000370456
0.0212836
0.00058852
0.0213036
0.000811223
0.0212985
0.00103772
0.0212991
0.00126704
0.0213071
0.0014993
0.0213047
0.00173367
0.0213062
0.00196953
0.0213081
0.00220617
0.0213085
0.00244279
0.0213098
0.00267892
0.021308
0.00291312
0.0213117
0.00314468
0.0213138
0.00337338
0.0213089
0.00359709
0.0213175
0.00381589
0.0213157
0.00402906
0.0213128
0.00423432
0.0213271
0.00443367
0.0213102
0.00462423
0.0213192
0.00480561
0.0213262
0.00497977
0.0213043
0.0051427
0.021325
0.00529796
0.0212997
0.00544304
0.0213016
0.00557762
0.0213057
0.00570522
0.0212669
0.00582089
0.0212891
0.0059309
0.0212371
0.00603111
0.0212395
0.00612362
0.0212202
0.00621075
0.0211766
0.0211974
0.00628751
-0.00279569
0.0209522
-0.00269606
0.0209346
-0.00259077
0.0210206
-0.00247019
0.0209927
-0.00233714
0.0210209
-0.00219051
0.0210276
-0.0020299
0.0210112
-0.00186022
0.0210518
-0.00167859
0.0210245
-0.00148963
0.0210504
-0.00129263
0.0210476
-0.00108818
0.0210396
-0.000879078
0.021066
-0.000663157
0.0210493
-0.000442346
0.0210623
-0.000215208
0.0210628
1.71551e-05
0.0210513
0.00025162
0.0210691
0.000493052
0.0210571
0.000739413
0.0210528
0.000990064
0.0210564
0.00124507
0.0210497
0.00150356
0.0210477
0.00176482
0.0210468
0.00202791
0.0210454
0.00229177
0.021046
0.0025556
0.0210442
0.00281762
0.0210497
0.0030767
0.0210547
0.00333218
0.0210534
0.00358161
0.0210681
0.00382462
0.0210727
0.00406015
0.0210773
0.00428569
0.0211016
0.00450283
0.021093
0.00470865
0.0211134
0.00490258
0.0211323
0.0050863
0.0211206
0.00525603
0.0211553
0.00541493
0.0211408
0.00556066
0.0211559
0.00569285
0.0211735
0.00581464
0.0211451
0.00592149
0.0211822
0.00601906
0.0211395
0.00610374
0.0211548
0.00617777
0.0211462
0.00624388
0.0211105
0.0211429
0.00629837
-0.0030881
0.0208862
-0.00302156
0.0208681
-0.00294581
0.0209448
-0.00284391
0.0208908
-0.00271783
0.0208948
-0.00256938
0.0208791
-0.00240179
0.0208437
-0.00222243
0.0208725
-0.00203094
0.020833
-0.00183266
0.0208521
-0.00162764
0.0208426
-0.0014166
0.0208286
-0.00120191