/*--------------------------------*- C++ -*----------------------------------*\
| =========                 |                                                 |
| \\      /  F ield         | OpenFOAM: The Open Source CFD Toolbox           |
|  \\    /   O peration     | Version:  2312                                  |
|   \\  /    A nd           | Website:  www.openfoam.com                      |
|    \\/     M anipulation  |                                                 |
\*---------------------------------------------------------------------------*/
FoamFile
{
    version     2.0;
    format      ascii;
    arch        "LSB;label=32;scalar=64";
    class       surfaceScalarField;
    location    "62.647785768497535";
    object      phi;
}
// * * * * * * * * * * * * * * * * * * * * * * * * * * * * * * * * * * * * * //

dimensions      [0 3 -1 0 0 0 0];

oriented        oriented;

internalField   nonuniform List<scalar> 
41713
(
0.00736241
0.056884
0.00362919
0.0679797
0.00211823
0.0657574
0.00148574
0.0648789
0.00110024
0.0646319
0.000846456
0.0645002
0.000671703
0.0644212
0.000545052
0.0643731
0.000449893
0.0643416
0.000376572
0.0643198
0.000318963
0.064304
0.000273009
0.0642924
0.000235947
0.0642835
0.000205835
0.0642765
0.000181279
0.064271
0.000161256
0.0642665
0.000145
0.0642627
0.000131923
0.0642595
0.000121566
0.0642568
0.00011354
0.0642545
0.000107479
0.0642525
0.000103013
0.0642509
9.98562e-05
0.0642496
9.76648e-05
0.0548134
9.57762e-05
0.0456779
9.39818e-05
0.0380651
9.22958e-05
0.0317211
9.07474e-05
0.0264344
0.0220288
8.93129e-05
0.00999439
0.0468896
0.00842817
0.0695459
0.0057175
0.0684681
0.00412495
0.0664715
0.0031253
0.0656316
0.0024349
0.0651906
0.00193799
0.0649181
0.00156913
0.0647419
0.00128801
0.0646227
0.00106885
0.0645389
0.000894702
0.0644782
0.000754191
0.0644329
0.000639472
0.0643982
0.000545006
0.064371
0.000466806
0.0643492
0.000401948
0.0643313
0.00034826
0.0643164
0.000304096
0.0643037
0.000268187
0.0642927
0.000239532
0.0642831
0.000217309
0.0642747
0.000200796
0.0642674
0.000189264
0.0642611
0.00018245
0.0548202
0.00017831
0.045682
0.000175527
0.0380679
0.000173353
0.0317233
0.000171427
0.0264363
0.0220305
0.000169766
0.00859499
0.0382947
0.00970669
0.0684342
0.00747013
0.0707046
0.00570264
0.068239
0.0045155
0.0668187
0.00363129
0.0660748
0.00294983
0.0655996
0.00241952
0.0652723
0.00200169
0.0650405
0.00166777
0.0648728
0.00139735
0.0647486
0.00117579
0.0646545
0.000992564
0.0645814
0.000839968
0.0645236
0.00071234
0.0644768
0.000605467
0.0644382
0.000516179
0.0644057
0.000442073
0.0643778
0.000381298
0.0643535
0.000332411
0.064332
0.000294259
0.0643129
0.000265881
0.0642958
0.000246305
0.0642807
0.000235295
0.0548312
0.000229248
0.0456881
0.000225724
0.0380714
0.000223303
0.0317257
0.000221302
0.0264383
0.0220321
0.000219633
0.00677297
0.0315217
0.00947067
0.0657365
0.00811697
0.0720583
0.00643892
0.069917
0.00524918
0.0680085
0.00434471
0.0669793
0.00361415
0.0663301
0.00301813
0.0658683
0.00252949
0.0655292
0.00212622
0.0652761
0.00179104
0.0650838
0.00151059
0.0649349
0.00127458
0.0648175
0.00107513
0.0647231
0.000906204
0.0646457
0.000763203
0.0645812
0.000642588
0.0645263
0.000541642
0.0644787
0.000458261
0.0644369
0.000390807
0.0643995
0.000337983
0.0643657
0.000298715
0.0643351
0.000271832
0.0643076
0.00025708
0.0548459
0.000249383
0.0456957
0.000245257
0.0380755
0.000242708
0.0317283
0.000240819
0.0264402
0.0220336
0.000239412
0.00506231
0.0264594
0.00856198
0.0622368
0.00817301
0.0724473
0.00673071
0.0713593
0.0055765
0.0691627
0.00470099
0.0678548
0.00398301
0.0670481
0.0033788
0.0664725
0.00286741
0.0660406
0.00243294
0.0657106
0.00206243
0.0654543
0.00174542
0.0652519
0.00147344
0.0650894
0.00123975
0.0649568
0.001039
0.0648465
0.000866958
0.0647532
0.000720312
0.0646729
0.000596479
0.0646026
0.000493445
0.0645399
0.000409639
0.0644833
0.000343819
0.0644315
0.000294942
0.0643839
0.000261757
0.0643408
0.000244013
0.0548637
0.000235262
0.0457045
0.000231062
0.0380797
0.000228907
0.0317304
0.000227642
0.0264415
0.0220342
0.000226966
0.00361489
0.0228445
0.00730046
0.0585512
0.00776929
0.0719785
0.00671106
0.0724175
0.00565095
0.0702228
0.00482521
0.0686805
0.00414318
0.0677301
0.00355674
0.0670589
0.00304803
0.0665493
0.00260553
0.0661531
0.00221978
0.0658401
0.00188294
0.0655888
0.0015886
0.0653838
0.00133152
0.0652138
0.00110746
0.0650706
0.000912988
0.0649477
0.0007454
0.0648405
0.000602562
0.0647454
0.000482821
0.0646596
0.0003849
0.0645812
0.000307803
0.0645086
0.000250676
0.0644411
0.000212363
0.0643791
0.000192594
0.0548835
0.000183617
0.0457135
0.000180086
0.0380833
0.000179004
0.0317315
0.000179014
0.0264415
0.0220335
0.000179694
0.00251907
0.0203254
0.00600616
0.0550641
0.00708004
0.0709046
0.00644983
0.0730478
0.00553816
0.0711345
0.00478169
0.069437
0.00414999
0.0683618
0.00359627
0.0676127
0.00310472
0.0670408
0.00266775
0.06659
0.0022791
0.0662287
0.00193341
0.0659344
0.00162618
0.065691
0.00135366
0.0654863
0.00111281
0.0653114
0.000901155
0.0651594
0.000716753
0.0650249
0.000558108
0.064904
0.000424103
0.0647936
0.000313931
0.0646914
0.000227017
0.0645955
0.000162806
0.0645053
0.000120531
0.0644214
9.96538e-05
0.0549043
9.1262e-05
0.0457219
8.91507e-05
0.0380854
8.98411e-05
0.0317308
9.17273e-05
0.0264396
0.0220309
9.43599e-05
0.00175475
0.0185707
0.00487501
0.0519439
0.00630039
0.0694792
0.00605042
0.0732977
0.00530498
0.0718799
0.00462273
0.0701193
0.00404446
0.0689401
0.00353008
0.068127
0.00306367
0.0675072
0.0026402
0.0670135
0.00225622
0.0666127
0.00190859
0.0662821
0.0015946
0.066005
0.00131195
0.065769
0.00105875
0.0655646
0.000833534
0.0653846
0.000635173
0.0652233
0.0004629
0.0650763
0.000316251
0.0649403
0.000195018
0.0648126
9.92221e-05
0.0646913
2.88191e-05
0.0645757
-1.7273e-05
0.0644674
-3.89451e-05
0.054926
-4.63436e-05
0.0457293
-4.65359e-05
0.0380856
-4.34785e-05
0.0317277
-3.90832e-05
0.0264352
0.0220259
-3.41169e-05
0.00124417
0.0173265
0.00395535
0.0492327
0.00554497
0.0678896
0.00559756
0.0732451
0.005013
0.0724645
0.00439938
0.0707329
0.00386724
0.0694722
0.00338958
0.0686047
0.00294937
0.0679474
0.0025422
0.0674207
0.00216635
0.0669885
0.00182038
0.066628
0.00150304
0.0663223
0.00121328
0.0660588
0.000950278
0.0658276
0.000713497
0.0656214
0.000502653
0.0654341
0.00031774
0.0652612
0.000158994
0.065099
2.68261e-05
0.0649448
-7.83275e-05
0.0647965
-0.000155801
0.0646532
-0.000205503
0.0645172
-0.000227683
0.0549482
-0.000233606
0.0457352
-0.000231171
0.0380831
-0.000224835
0.0317214
-0.000216789
0.0264271
0.0220171
-0.000207982
0.000910277
0.0164162
0.00322806
0.0469149
0.0048573
0.0662603
0.00513569
0.0729667
0.00469821
0.072902
0.00414668
0.0712844
0.00365077
0.0699682
0.00320243
0.069053
0.00278457
0.0683653
0.00239224
0.067813
0.00202446
0.0673563
0.00168082
0.0669717
0.00136108
0.0666421
0.00106514
0.0663547
0.000793077
0.0660997
0.000545161
0.0658693
0.000321893
0.0656574
0.000123967
0.0654592
-4.77597e-05
0.0652708
-0.000192172
0.0650892
-0.000307854
0.0649122
-0.00039345
0.0647387
-0.000448341
0.064572
-0.000472069
0.0549719
-0.000476979
0.0457401
-0.000471907
0.0380781
-0.000461958
0.0317115
-0.000449797
0.026415
0.0220041
-0.000436743
0.000693329
0.0157229
0.00265964
0.0449486
0.00424983
0.0646702
0.00468624
0.0725303
0.00437765
0.0732105
0.00388287
0.0717792
0.00341502
0.070436
0.00298814
0.0694799
0.00258706
0.0687664
0.00220596
0.0681941
0.00184394
0.0677183
0.00150117
0.0673145
0.00117804
0.0669652
0.000875102
0.0666576
0.0005931
0.0663817
0.000332986
0.0661294
9.58716e-05
0.0658945
-0.000116973
0.065672
-0.000303957
0.0654577
-0.000463111
0.0652483
-0.000592208
0.0650413
-0.000689033
0.0648356
-0.000752127
0.0646351
-0.000779813
0.0549996
-0.000785407
0.0457457
-0.000778696
0.0380714
-0.000765507
0.0316983
-0.000749094
0.0263986
0.0219863
-0.000731302
0.00054976
0.0151731
0.00221577
0.0432826
0.00372184
0.0631641
0.00426091
0.0719913
0.00406087
0.0734106
0.00361768
0.0722224
0.00317171
0.070882
0.00275936
0.0698923
0.00236941
0.0691563
0.00199526
0.0685683
0.00163573
0.0680779
0.00129119
0.067659
0.000962383
0.067294
0.000650305
0.0669697
0.000356178
0.0666758
8.13886e-05
0.0664042
-0.000172513
0.0661484
-0.000403612
0.0659031
-0.000609544
0.0656637
-0.00078758
0.0654264
-0.000934678
0.0651884
-0.00104774
0.0649486
-0.00112442
0.0647118
-0.00116069
0.0550359
-0.00117057
0.0457556
-0.00116477
0.0380656
-0.00114996
0.0316835
-0.00113016
0.0263788
0.0219641
-0.00110797
0.000450332
0.0147228
0.001866
0.0418669
0.00326597
0.0617641
0.00386551
0.0713917
0.00375411
0.073522
0.00335729
0.0726192
0.00292853
0.0713107
0.00252493
0.0702959
0.00214085
0.0695404
0.00176934
0.0689398
0.00140867
0.0684385
0.00105914
0.0680085
0.00072164
0.0676315
0.0003974
0.067294
8.78652e-05
0.0669853
-0.000205337
0.0666974
-0.00048018
0.0664233
-0.000734117
0.066157
-0.000964162
0.0658937
-0.00116691
0.0656291
-0.00133857
0.06536
-0.00147527
0.0650853
-0.00157381
0.0648103
-0.00162644
0.0550885
-0.00164722
0.0457764
-0.00164751
0.0380658
-0.00163477
0.0316707
-0.00161402
0.026358
0.021939
-0.00158888
0.000377309
0.0143455
0.00158626
0.040658
0.00287247
0.0604779
0.0035017
0.0707625
0.00346109
0.0735626
0.00310574
0.0729746
0.00269092
0.0717256
0.00229158
0.0706952
0.00190881
0.0699232
0.00153589
0.0693127
0.00117045
0.068804
0.000812497
0.0683665
0.000462863
0.0679811
0.000122759
0.0676341
-0.000206376
0.0673145
-0.000522678
0.0670137
-0.000823681
0.0667243
-0.00110639
0.0664397
-0.0013673
0.0661546
-0.0016024
0.0658642
-0.00180727
0.0655649
-0.00197748
0.0652555
-0.00210947
0.0649423
-0.00219019
0.0551692
-0.00223287
0.045819
-0.0022487
0.0380817
-0.00224547
0.0316675
-0.00222921
0.0263418
0.0219147
-0.00220498
0.000320649
0.0140248
0.00136065
0.039618
0.00253475
0.0593038
0.00317103
0.0701262
0.00318458
0.073549
0.00286544
0.0732937
0.00246225
0.0721288
0.00206398
0.0710935
0.00167891
0.0703083
0.0013011
0.0696905
0.000927575
0.0691775
0.000557891
0.0687362
0.000192621
0.0683464
-0.000167324
0.067994
-0.00052055
0.0676677
-0.000865008
0.0673581
-0.00119801
0.0670573
-0.00151625
0.066758
-0.00181575
0.0664541
-0.00209193
0.0661404
-0.00233988
0.0658128
-0.00255502
0.0654707
-0.00273456
0.0651219
-0.00285963
0.0552943
-0.00294217
0.0459016
-0.00299157
0.0381311
-0.00301375
0.0316897
-0.00301409
0.0263421
0.0218995
-0.00299886
0.000236193
0.0137886
0.00100287
0.0388513
0.00190979
0.0583969
0.00244096
0.069595
0.00248487
0.0735051
0.00224058
0.073538
0.00190869
0.0724606
0.0015725
0.0714296
0.00124439
0.0706364
0.000920212
0.0700147
0.000596974
0.0695007
0.00027381
0.0690593
-4.92356e-05
0.0686695
-0.000371674
0.0683164
-0.000692518
0.0679885
-0.00101014
0.0676758
-0.00132231
0.0673694
-0.00162611
0.0670618
-0.00191789
0.0667459
-0.00219322
0.0664157
-0.00244724
0.0660669
-0.00267559
0.065699
-0.00287649
0.0653228
-0.00302946
0.0554473
-0.00314597
0.0460181
-0.00323346
0.0382186
-0.00329362
0.0317498
-0.00332686
0.0263753
0.0219099
-0.00333728
0.000177477
0.0136112
0.000750493
0.0382783
0.00145191
0.0576955
0.00188747
0.0691595
0.0019428
0.0734498
0.00175482
0.073726
0.00148342
0.072732
0.00120269
0.0717104
0.000926456
0.0709126
0.000651841
0.0702893
0.00037593
0.0697766
9.75744e-05
0.0693377
-0.000183639
0.0689507
-0.000467616
0.0686004
-0.000753777
0.0682747
-0.00104109
0.0679631
-0.00132795
0.0676563
-0.00161208
0.0673459
-0.00189038
0.0670242
-0.00215889
0.0666842
-0.00241282
0.0663208
-0.00264743
0.0659336
-0.00286006
0.0655354
-0.00302802
0.0556152
-0.00316509
0.0461552
-0.00328314
0.0383366
-0.00338718
0.0318539
-0.0034752
0.0264634
0.0219684
-0.00353371
0.000137524
0.0134736
0.000574655
0.0378412
0.00112349
0.0571466
0.0014798
0.0688032
0.00153702
0.0733926
0.00139092
0.0738721
0.00116894
0.072954
0.000935185
0.0719441
0.000703438
0.0711444
0.0004717
0.070521
0.000237269
0.0700111
-1.18267e-06
0.0695761
-0.000244264
0.0691938
-0.000492239
0.0688484
-0.000744971
0.0685274
-0.00100199
0.0682201
-0.00126232
0.0679166
-0.00152442
0.067608
-0.00178596
0.0672858
-0.00204371
0.066942
-0.00229339
0.0665705
-0.00252997
0.0661702
-0.00274852
0.065754
-0.00292005
0.0557868
-0.00305636
0.0462915
-0.00317476
0.038455
-0.00328982
0.0319689
-0.00341974
0.0265933
0.0221247
-0.00357599
0.000105891
0.0133678
0.000447418
0.0374996
0.000885437
0.0567086
0.00117896
0.0685096
0.00123201
0.0733395
0.001115
0.0739891
0.000931902
0.0731371
0.000737459
0.0721386
0.000543774
0.071338
0.000349032
0.0707158
0.000150729
0.0702094
-5.2453e-05
0.0697793
-0.000261251
0.0694026
-0.000476114
0.0690633
-0.000697304
0.0687486
-0.000924812
0.0684476
-0.00115828
0.0681501
-0.00139686
0.0678466
-0.00163907
0.067528
-0.00188269
0.0671856
-0.00212465
0.0668124
-0.00236109
0.0664066
-0.00258682
0.0659797
-0.00276598
0.0559659
-0.00289885
0.0464243
-0.00299252
0.0385487
-0.0030571
0.0320335
-0.00311015
0.0266463
-0.00328918
0.0223037
0.000133991
0.0219827
0.000176142
0.0219852
0.000209345
0.0219942
0.000240199
0.0219965
0.000265228
0.0220023
0.00028572
0.0220069
0.000303175
0.0220099
0.000314307
0.0220162
0.000323425
0.0220182
0.000327515
0.0220233
0.000328529
0.0220263
0.000327009
0.0220289
0.000321036
0.0220333
0.000313451
0.0220349
0.000302605
0.0220382
0.000289444
0.0220405
0.000274934
0.0220419
0.000257436
0.0220449
0.000238859
0.0220459
0.00021903
0.0220472
0.000197623
0.0220488
0.000175586
0.0220494
0.000152865
0.0220501
0.00012962
0.0220506
0.00010625
0.0220507
8.29226e-05
0.0220507
6.00238e-05
0.0220503
3.75497e-05
0.0220498
1.58218e-05
0.0220491
-4.51941e-06
0.0220477
-2.39733e-05
0.0220468
-4.17081e-05
0.0220451
-5.74197e-05
0.0220431
-7.18744e-05
0.0220418
-8.30306e-05
0.0220385
-9.22138e-05
0.0220365
-9.91162e-05
0.0220343
-0.000101841
0.0220301
-0.000102783
0.0220283
-9.90479e-05
0.0220236
-9.21518e-05
0.0220205
-8.21288e-05
0.0220173
-6.63003e-05
0.0220115
-4.83085e-05
0.0220094
-2.35923e-05
0.0220026
4.57159e-06
0.0219992
3.75496e-05
0.0219944
7.68908e-05
0.021988
0.0219855
0.000118738
0.000214253
0.0219382
0.00025643
0.021943
0.000289883
0.0219607
0.000321215
0.0219652
0.000346965
0.0219766
0.000368414
0.0219854
0.00038705
0.0219913
0.000399585
0.0220037
0.000410305
0.0220075
0.000416193
0.0220174
0.000419184
0.0220234
0.000419802
0.0220283
0.000416126
0.022037
0.00041097
0.0220401
0.000402683
0.0220465
0.000392191
0.022051
0.000380444
0.0220536
0.000365801
0.0220595
0.000350146
0.0220616
0.000333293
0.022064
0.000314913
0.0220671
0.000295928
0.0220684
0.000276276
0.0220697
0.000256108
0.0220708
0.000235801
0.022071
0.000215512
0.022071
0.000195623
0.0220701
0.000176106
0.0220693
0.000157274
0.0220679
0.000139764
0.0220652
0.000123049
0.0220635
0.000107957
0.0220602
9.47774e-05
0.0220562
8.27187e-05
0.0220539
7.38279e-05
0.0220474
6.6751e-05
0.0220436
6.17845e-05
0.0220392
6.08251e-05
0.022031
6.14467e-05
0.0220277
6.65496e-05
0.0220185
7.45938e-05
0.0220124
8.55321e-05
0.0220064
0.000102045
0.021995
0.000120457
0.021991
0.000145339
0.0219778
0.000173381
0.0219711
0.000205934
0.0219618
0.000244524
0.0219494
0.0219448
0.00028527
0.000264183
0.0218936
0.000306637
0.0219006
0.000340618
0.0219267
0.000372732
0.0219331
0.000399514
0.0219498
0.000422237
0.0219627
0.000442377
0.0219711
0.000456638
0.0219894
0.000469288
0.0219949
0.000477305
0.0220094
0.000482605
0.0220181
0.0004857
0.0220252
0.000484661
0.022038
0.000482283
0.0220425
0.000476906
0.0220519
0.00046944
0.0220585
0.000460817
0.0220622
0.000449394
0.0220709
0.000437031
0.022074
0.00042353
0.0220775
0.000408554
0.0220821
0.000393003
0.0220839
0.000376805
0.0220859
0.000360102
0.0220875
0.000343248
0.0220879
0.000326392
0.0220878
0.000309906
0.0220866
0.00029374
0.0220855
0.000278197
0.0220835
0.000263905
0.0220795
0.000250315
0.0220771
0.000238249
0.0220722
0.000227983
0.0220665
0.000218703
0.0220631
0.000212459
0.0220536
0.000207872
0.0220482
0.000205225
0.0220419
0.000206413
0.0220299
0.000208982
0.0220251
0.000215835
0.0220117
0.000225409
0.0220028
0.000237642
0.0219942
0.000255216
0.0219774
0.000274422
0.0219717
0.000299838
0.0219523
0.000328123
0.0219429
0.00036062
0.0219293
0.000398841
0.0219112
0.0219047
0.000438862
0.000284534
0.0218485
0.000327758
0.0218573
0.000362744
0.0218917
0.000396116
0.0218997
0.000424414
0.0219215
0.000448907
0.0219382
0.000471061
0.021949
0.000487571
0.0219729
0.000502694
0.0219797
0.000513392
0.0219987
0.00052157
0.0220099
0.000527725
0.022019
0.000529916
0.0220359
0.000530921
0.0220415
0.000529068
0.0220537
0.000525252
0.0220623
0.000520389
0.0220671
0.000512825
0.0220785
0.000504402
0.0220824
0.000494906
0.022087
0.000483991
0.022093
0.000472536
0.0220954
0.000460456
0.022098
0.00044788
0.0221
0.000435146
0.0221006
0.000422387
0.0221006
0.000409965
0.0220991
0.00039781
0.0220977
0.000386212
0.0220951
0.000375791
0.0220899
0.000365975
0.0220869
0.000357577
0.0220806
0.000350861
0.0220732
0.000344992
0.022069
0.000342018
0.0220566
0.000340538
0.0220497
0.000340823
0.0220416
0.000344765
0.0220259
0.000349881
0.02202
0.000359079
0.0220025
0.000370773
0.0219911
0.000384891
0.02198
0.000404111
0.0219582
0.000424696
0.0219512
0.000451233
0.0219258
0.00048035
0.0219137
0.000513379
0.0218963
0.000551826
0.0218728
0.0218648
0.000591724
0.000273367
0.0218021
0.000318066
0.0218127
0.000354754
0.021855
0.000390093
0.0218643
0.000420622
0.021891
0.000447612
0.0219112
0.000472525
0.0219241
0.000492042
0.0219534
0.000510413
0.0219614
0.000524585
0.0219845
0.000536451
0.021998
0.000546494
0.022009
0.000552756
0.0220296
0.000558003
0.0220362
0.000560546
0.0220512
0.000561265
0.0220616
0.000561061
0.0220673
0.000558263
0.0220813
0.000554696
0.0220859
0.000550133
0.0220916
0.000544208
0.022099
0.000537786
0.0221018
0.000530765
0.022105
0.00052326
0.0221076
0.000515589
0.0221083
0.00050787
0.0221083
0.000500453
0.0221065
0.000493247
0.0221049
0.00048653
0.0221018
0.000480906
0.0220955
0.000475785
0.0220921
0.000471969
0.0220845
0.000469707
0.0220755
0.000468144
0.0220706
0.000469326
0.0220554
0.000471828
0.0220472
0.000475909
0.0220375
0.000483459
0.0220184
0.000491969
0.0220115
0.000504347
0.0219901
0.000518989
0.0219765
0.00053581
0.0219632
0.000557492
0.0219365
0.000580267
0.0219284
0.000608734
0.0218973
0.000639493
0.021883
0.000673871
0.0218619
0.000713365
0.0218333
0.0218242
0.000753965
0.000228275
0.0217535
0.000275358
0.0217656
0.000314643
0.0218158
0.000352851
0.0218261
0.000386535
0.0218573
0.000416973
0.0218808
0.000445626
0.0218954
0.000469152
0.0219299
0.000491804
0.0219387
0.000510505
0.0219658
0.000527139
0.0219814
0.000542176
0.0219939
0.000553635
0.0220181
0.000564274
0.0220256
0.000572381
0.0220431
0.000578822
0.0220551
0.000584481
0.0220616
0.000587665
0.0220781
0.000590186
0.0220834
0.000591797
0.02209
0.000592113
0.0220986
0.000591982
0.0221019
0.000591283
0.0221057
0.000590112
0.0221087
0.00058877
0.0221096
0.000587356
0.0221097
0.000586203
0.0221076
0.000585201
0.0221059
0.000584609
0.0221024
0.000585019
0.0220951
0.000585817
0.0220913
0.000587794
0.0220825
0.000591182
0.0220721
0.000595105
0.0220667
0.000601606
0.0220489
0.000609235
0.0220396
0.000618239
0.0220285
0.000630505
0.0220061
0.000643495
0.0219985
0.000660124
0.0219735
0.000678765
0.0219579
0.000699322
0.0219427
0.000724482
0.0219114
0.000750445
0.0219024
0.000781828
0.021866
0.000815201
0.0218496
0.000851885
0.0218252
0.000893373
0.0217918
0.021782
0.000935606
0.000146305
0.0217016
0.000196729
0.0217151
0.000239724
0.0217728
0.000282018
0.0217838
0.000320084
0.0218192
0.000355189
0.0218457
0.000388819
0.0218618
0.000417626
0.0219011
0.000445878
0.0219105
0.000470461
0.0219412
0.000493255
0.0219586
0.000514711
0.0219725
0.000532823
0.022
0.000550342
0.0220081
0.000565528
0.0220279
0.000579232
0.0220414
0.000592319
0.0220486
0.00060307
0.0220673
0.000613283
0.0220732
0.000622687
0.0220806
0.000630875
0.0220905
0.000638676
0.0220941
0.000645946
0.0220985
0.00065276
0.0221019
0.000659398
0.022103
0.000665935
0.0221032
0.000672687
0.0221009
0.000679519
0.022099
0.00068667
0.0220952
0.000694715
0.0220871
0.000703014
0.022083
0.000712343
0.0220732
0.000722916
0.0220615
0.000733832
0.0220557
0.000747129
0.0220356
0.00076133
0.0220254
0.000776667
0.0220132
0.000795026
0.0219877
0.000813836
0.0219797
0.000836019
0.0219513
0.000859926
0.021934
0.000885447
0.0219171
0.000915281
0.0218815
0.000945591
0.0218721
0.000981016
0.0218305
0.00101809
0.0218125
0.00105815
0.0217852
0.00110266
0.0217473
0.0217372
0.00114752
2.14829e-05
0.021646
7.70985e-05
0.0216595
0.000125649
0.0217242
0.000173785
0.0217357
0.000217678
0.0217753
0.000259056
0.0218043
0.000299376
0.0218215
0.00033518
0.0218653
0.000370738
0.0218749
0.000402926
0.021909
0.000433642
0.0219279
0.000463328
0.0219428
0.000489941
0.0219734
0.000516233
0.0219818
0.000540428
0.0220037
0.00056336
0.0220185
0.000585876
0.022026
0.000606221
0.022047
0.000626181
0.0220532
0.000645456
0.0220613
0.000663612
0.0220723
0.000681455
0.0220763
0.000698813
0.0220811
0.000715736
0.022085
0.000732476
0.0220863
0.000749083
0.0220866
0.000765847
0.0220841
0.000782604
0.0220823
0.000799568
0.0220783
0.000817293
0.0220694
0.000835105
0.0220651
0.000853763
0.0220545
0.00087346
0.0220418
0.000893258
0.0220359
0.000915198
0.0220137
0.000937766
0.0220028
0.000961174
0.0219898
0.00098731
0.0219616
0.00101356
0.0219534
0.00104286
0.021922
0.00107354
0.0219033
0.00110547
0.0218852
0.00114136
0.0218457
0.00117733
0.0218361
0.00121806
0.0217898
0.00126005
0.0217706
0.00130461
0.0217406
0.00135323
0.0216986
0.0216886
0.00140174
-0.000146209
0.0215842
-8.52849e-05
0.0215986
-3.12081e-05
0.0216701
2.30736e-05
0.0216814
7.48419e-05
0.0217236
0.000124617
0.0217545
0.000173706
0.0217724
0.000218334
0.0218206
0.000263172
0.0218301
0.00030511
0.0218671
0.000345963
0.021887
0.000386135
0.0219026
0.000423552
0.021936
0.000460979
0.0219443
0.000496601
0.0219681
0.000531234
0.0219839
0.000565702
0.0219916
0.000598208
0.0220145
0.000630524
0.0220209
0.000662314
0.0220295
0.000693111
0.0220415
0.000723692
0.0220457
0.00075385
0.0220509
0.000783603
0.0220552
0.000813167
0.0220567
0.000842556
0.0220572
0.000872033
0.0220546
0.00090139
0.0220529
0.000930809
0.0220488
0.00096082
0.0220394
0.000990701
0.0220353
0.00102119
0.022024
0.00105245
0.0220106
0.0010835
0.0220049
0.00111638
0.0219808
0.00114952
0.0219696
0.00118313
0.0219562
0.00121908
0.0219256
0.00125471
0.0219178
0.00129298
0.0218837
0.00133218
0.0218641
0.00137216
0.0218452
0.00141567
0.0218021
0.00145875
0.0217931
0.00150615
0.0217424
0.00155431
0.0217224
0.00160455
0.0216904
0.00165836
0.0216448
0.0216355
0.00171151
-0.000367851
0.0215153
-0.000298717
0.0215295
-0.000235801
0.0216072
-0.000172223
0.0216178
-0.000111981
0.0216633
-5.34045e-05
0.0216959
5.15795e-06
0.0217138
6.10418e-05
0.0217648
0.000117908
0.0217732
0.000172244
0.0218127
0.000225803
0.0218335
0.000279139
0.0218493
0.000330189
0.0218849
0.000381687
0.0218928
0.000431755
0.021918
0.000481188
0.0219344
0.000530788
0.021942
0.000578707
0.0219666
0.000626697
0.0219729
0.000674378
0.0219818
0.00072124
0.0219946
0.000768023
0.0219989
0.00081447
0.0220045
0.000860561
0.0220091
0.000906458
0.0220108
0.00095213
0.0220115
0.0009978
0.022009
0.0010432
0.0220075
0.00108847
0.0220036
0.00113411
0.0219937
0.00117932
0.02199
0.00122482
0.0219785
0.00127074
0.0219647
0.00131601
0.0219596
0.00136269
0.0219341
0.00140915
0.0219232
0.00145555
0.0219098
0.0015038
0.0218774
0.00155113
0.0218705
0.00160055
0.0218343
0.00165028
0.0218143
0.00170018
0.0217953
0.00175303
0.0217493
0.00180479
0.0217413
0.00186029
0.0216869
0.00191588
0.0216668
0.00197293
0.0216333
0.00203294
0.0215848
0.0215769
0.00209156
-0.000653733
0.0214378
-0.000575213
0.0214509
-0.000502276
0.0215343
-0.000427836
0.0215434
-0.000355447
0.0215909
-0.000283791
0.0216243
-0.000211416
0.0216414
-0.000142331
0.0216957
-7.18586e-05
0.0217027
-3.12395e-06
0.021744
6.60793e-05
0.0217642
0.000135867
0.0217795
0.000203899
0.0218169
0.000272947
0.0218238
0.000341124
0.0218498
0.000409199
0.0218664
0.000477933
0.0218732
0.000545391
0.0218991
0.000613295
0.021905
0.000681204
0.0219139
0.00074855
0.0219273
0.000816015
0.0219315
0.000883281
0.0219372
0.000950268
0.0219422
0.00101707
0.021944
0.00108358
0.021945
0.00114998
0.0219426
0.00121591
0.0219416
0.00128144
0.021938
0.00134704
0.0219281
0.0014118
0.0219253
0.0014764
0.0219139
0.00154091
0.0219002
0.00160418
0.0218963
0.00166828
0.02187
0.00173147
0.02186
0.00179387
0.0218474
0.0018574
0.0218139
0.0019192
0.0218087
0.00198232
0.0217712
0.00204491
0.0217517
0.00210681
0.0217334
0.00217085
0.0216853
0.00223291
0.0216792
0.0022979
0.0216219
0.00236213
0.0216026
0.00242695
0.0215685
0.00249393
0.0215178
0.0215122
0.00255861
-0.00102056
0.0213504
-0.000931053
0.0213614
-0.000846165
0.0214494
-0.000758731
0.021456
-0.000672478
0.0215047
-0.000586033
0.0215378
-0.000497855
0.0215532
-0.000411549
0.0216094
-0.000322655
0.0216138
-0.00023463
0.021656
-0.000145777
0.0216754
-5.56443e-05
0.0216894
3.35793e-05
0.0217277
0.00012468
0.0217327
0.000215621
0.0217589
0.000307316
0.0217747
0.000400329
0.0217802
0.000492665
0.0218068
0.000586002
0.0218117
0.000679807
0.0218201
0.000773429
0.0218337
0.000867468
0.0218374
0.000961519
0.0218432
0.00105542
0.0218483
0.00114916
0.0218503
0.00124254
0.0218516
0.00133567
0.0218494
0.00142806
0.0218492
0.00151969
0.0218464
0.00161095
0.0218369
0.0017008
0.0218354
0.00178986
0.0218249
0.0018781
0.0218119
0.00196426
0.0218102
0.00205039
0.0217839
0.00213463
0.0217757
0.00221704
0.0217649
0.00229954
0.0217314
0.00237913
0.0217291
0.00245894
0.0216914
0.00253702
0.0216737
0.00261319
0.0216573
0.00269036
0.0216081
0.00276428
0.0216053
0.00284003
0.0215462
0.0029138
0.0215288
0.00298703
0.0214953
0.00306132
0.0214436
0.0214414
0.0031321
-0.00149092
0.0212524
-0.00138925
0.0212598
-0.00129088
0.021351
-0.00118846
0.0213536
-0.00108581
0.021402
-0.000981545
0.0214336
-0.000874114
0.0214458
-0.000767293
0.0215025
-0.000656504
0.0215031
-0.00054527
0.0215448
-0.000431669
0.0215618
-0.000315407
0.0215731
-0.000198897
0.0216112
-7.9367e-05
0.0216132
4.10139e-05
0.0216385
0.000162637
0.021653
0.000286646
0.0216562
0.000410903
0.0216825
0.00053694
0.0216857
0.00066412
0.0216929
0.000791681
0.0217061
0.000920111
0.021709
0.00104889
0.0217144
0.00117773
0.0217194
0.00130649
0.0217215
0.00143484
0.0217233
0.00156275
0.0217215
0.00168956
0.0217224
0.00181512
0.0217208
0.0019397
0.0217123
0.00206205
0.0217131
0.0021827
0.0217042
0.00230148
0.0216931
0.00241694
0.0216947
0.00253112
0.0216697
0.00264197
0.0216649
0.00274944
0.0216575
0.00285549
0.0216253
0.0029569
0.0216277
0.00305689
0.0215914
0.00315341
0.0215771
0.00324624
0.0215644
0.00333843
0.0215159
0.00342555
0.0215182
0.00351293
0.0214588
0.00359665
0.0214451
0.00367825
0.0214137
0.00375942
0.0213624
0.0213654
0.00383548
-0.00209719
0.0211446
-0.00198344
0.021146
-0.00187106
0.0212386
-0.00175233
0.0212348
-0.00163122
0.0212809
-0.00150624
0.0213086
-0.0013758
0.0213154
-0.00124382
0.0213706
-0.00110564
0.0213649
-0.000965033
0.0214041
-0.000820151
0.0214169
-0.000670826
0.0214238
-0.000519655
0.02146
-0.0003639
0.0214574
-0.00020586
0.0214805
-4.48286e-05
0.021492
0.000119255
0.0214921
0.000284413
0.0215174
0.00045269
0.0215174
0.000623072
0.0215226
0.000794713
0.0215345
0.00096795
0.0215358
0.0011421
0.0215403
0.00131674
0.0215448
0.00149149
0.0215468
0.00166583
0.0215489
0.00183956
0.0215478
0.00201175
0.0215502
0.00218201
0.0215506
0.00235045
0.0215439
0.00251549
0.021548
0.0026775
0.0215422
0.00283611
0.0215345
0.00298954
0.0215413
0.00313985
0.0215194
0.00328465
0.0215201
0.00342377
0.0215184
0.00355917
0.0214899
0.00368735
0.0214995
0.00381164
0.0214671
0.00392983
0.021459
0.00404167
0.0214526
0.0041504
0.0214072
0.00425139
0.0214172
0.00435032
0.0213598
0.00444318
0.0213522
0.00453167
0.0213252
0.00461773
0.0212763
0.0212866
0.00469652
-0.00288436
0.0210301
-0.00276031
0.021022
-0.00263488
0.0211132
-0.00249977
0.0210997
-0.00235879
0.0211399
-0.00221013
0.0211599
-0.00205205
0.0211573
-0.00188883
0.0212073
-0.00171587
0.0211919
-0.00153744
0.0212257
-0.00135197
0.0212314
-0.0011596
0.0212314
-0.000963257
0.0212637
-0.000760332
0.0212545
-0.000553382
0.0212735
-0.000341917
0.0212805
-0.000125306
0.0212755
9.37665e-05
0.0212983
0.000316492
0.0212947
0.000543105
0.0212959
0.000772326
0.0213052
0.00100435
0.0213037
0.00123833
0.0213063
0.00147364
0.0213095
0.00170957
0.0213108
0.00194532
0.0213132
0.00218042
0.0213127
0.00241346
0.0213172
0.00264371
0.0213203
0.00287096
0.0213166
0.00309312
0.0213259
0.00331027
0.021325
0.00352169
0.0213231
0.00372514
0.0213379
0.00392261
0.0213219
0.00411127
0.0213314
0.00429072
0.0213389
0.00446294
0.0213177
0.00462399
0.0213384
0.00477738
0.0213137
0.00492066
0.0213157
0.00505354
0.0213197
0.00517953
0.0212812
0.00529375
0.021303
0.00540243
0.0212512
0.00550149
0.0212532
0.00559305
0.0212336
0.00567938
0.02119
0.0212104
0.00575555
-0.00324716
0.02094
-0.00314601
0.0209208
-0.00303887
0.0210061
-0.00291611
0.0209769
-0.00278063
0.0210045
-0.00263139
0.0210107
-0.002468
0.0209939
-0.00229546
0.0210348
-0.00211091
0.0210074
-0.00191903
0.0210338
-0.00171915
0.0210316
-0.00151185
0.0210241
-0.00129993
0.0210517
-0.00108126
0.0210358
-0.000858021
0.0210503
-0.000629721
0.0210522
-0.000395865
0.0210417
-0.000158194
0.0210606
8.46003e-05
0.0210519
0.000331218
0.0210493
0.000582009
0.0210545
0.000836922
0.0210488
0.0010951
0.0210481
0.00135582
0.0210487
0.00161815
0.0210485
0.00188102
0.0210503
0.00214365
0.0210501
0.00240427
0.0210566
0.00266175
0.0210628
0.00291545
0.0210629
0.00316293
0.0210784
0.00340385
0.0210841
0.00363714
0.0210898
0.00386034
0.0211147
0.00407503
0.0211073
0.00427833
0.0211282
0.00446969
0.0211475
0.00465081
0.0211366
0.00481793
0.0211713
0.00497425
0.0211574
0.00511745
0.0211725
0.00524721
0.02119
0.00536665
0.0211617
0.00547131
0.0211983
0.00556684
0.0211556
0.00564968
0.0211703
0.00572208
0.0211612
0.00578677
0.0211253
0.0211571
0.00584006
-0.00346563
0.0208719
-0.0033967
0.0208519
-0.00331824
0.0209276
-0.00321328
0.020872
-0.00308387
0.0208751
-0.00293191
0.0208587
-0.00276069
0.0208227
-0.00257765
0.0208518
-0.00238246
0.0208122
-0.00218052
0.0208319
-0.0019719
0.0208229