/*--------------------------------*- C++ -*----------------------------------*\
| =========                 |                                                 |
| \\      /  F ield         | OpenFOAM: The Open Source CFD Toolbox           |
|  \\    /   O peration     | Version:  2312                                  |
|   \\  /    A nd           | Website:  www.openfoam.com                      |
|    \\/     M anipulation  |                                                 |
\*---------------------------------------------------------------------------*/
FoamFile
{
    version     2.0;
    format      ascii;
    arch        "LSB;label=32;scalar=64";
    class       volScalarField;
    location    "50";
    object      nut;
}
// * * * * * * * * * * * * * * * * * * * * * * * * * * * * * * * * * * * * * //

dimensions      [0 2 -1 0 0 0 0];

internalField   nonuniform List<scalar> 
10720
(
7.43699e-05
0.000131696
0.000176924
0.000186144
0.000172286
0.000164511
0.00017598
0.000207769
0.000259176
0.000333524
0.000444
0.000618853
0.000902929
0.00144052
0.00246333
0.0045323
0.00847496
0.0179736
0.0341274
0.050328
0.0641309
0.0799577
0.105289
0.122178
0.189728
0.243903
0.770855
1.56172
0.794773
0.206299
0.0270983
0.00449587
0.000832758
1.44693e-05
1.50244e-18
1.93947e-18
3.07008e-18
0.0120324
0.772149
7.74908e-05
0.000210651
0.000665624
0.0012085
0.00150092
0.00144189
0.00145668
0.00133309
0.00120165
0.0011082
0.00105943
0.00105358
0.00109025
0.00118389
0.00136994
0.00169498
0.00231955
0.00357197
0.00561078
0.00724516
0.00890281
0.0114611
0.0155651
0.0220619
0.0314429
0.0410895
0.043198
0.0281091
0.0131594
0.00457423
0.0011555
0.000137663
2.30744e-05
9.18655e-06
1.43939e-06
1.81864e-05
3.21407e-07
0.00418162
0.274226
0.000501079
0.000628873
0.000488959
0.000441977
0.00046993
0.000524587
0.000586124
0.000655487
0.000730576
0.000810974
0.000888026
0.000941364
0.000900261
0.00174361
0.00220116
0.00248969
0.00445883
0.00957627
0.0260989
0.055885
0.0926469
0.12752
0.172931
0.193426
0.228535
0.126968
0.417492
0.719945
0.551608
0.682699
0.381415
0.0838579
0.0177286
0.000268166
4.30463e-06
4.48695e-18
6.04577e-18
0.0160288
1.67127
0.00112166
0.00180233
0.00180266
0.00121219
0.000660481
0.000530279
0.000578589
0.000680029
0.00080695
0.000971878
0.0011886
0.00146123
0.00179021
0.00218659
0.00274053
0.00328387
0.00416184
0.00471733
0.00225252
0.000269522
0.000925397
0.00613686
0.00751608
0.000270172
0.000537581
0.00122499
0.00262677
0.0034739
0.00297237
0.00242598
0.00144583
0.000745838
0.000342228
0.000146025
5.82929e-05
1.05726e-05
6.91314e-05
0.00318635
0.211277
0.00253273
0.00236483
0.00246102
0.00260177
0.00276271
0.00296146
0.00319868
0.00345612
0.00372723
0.00398754
0.00421912
0.00441526
0.00456812
0.00469301
0.00479758
0.00490923
0.00433943
0.00250561
0.00619868
0.00116006
0.00411414
0.00740365
0.0406429
0.144347
0.199201
0.172728
0.072142
0.22506
0.150958
0.119099
0.112874
0.0805965
0.0214923
0.00266167
0.000238951
5.67526e-05
5.65379e-18
0.0110406
2.06302
0.00272324
0.00158148
0.000339842
0.000235461
0.000132258
0.00012279
0.000131011
0.000148833
0.000177091
0.000220434
0.00028499
0.000377635
0.000506656
0.000683544
0.000934811
0.00122458
0.00164048
0.00198805
0.000328637
0.000130221
0.00221402
9.33014e-05
0.000457758
0.000754015
0.00143133
0.00154301
0.00150892
0.00244475
0.00297558
0.00347265
0.00402377
0.00377251
0.00369998
0.00368553
0.00365071
0.00405896
0.00335679
0.00994181
0.343716
0.00251262
0.00227954
0.00217051
0.00212228
0.00209063
0.00209336
0.00212785
0.0021936
0.00229588
0.00244082
0.00263477
0.00288489
0.00319923
0.00358887
0.00406282
0.00464235
0.00540194
0.00655241
0.00763699
0.00805339
0.0039494
0.00411475
0.0137743
0.031226
0.00959932
3.14768e-11
2.81271e-08
1.57716e-12
9.14921e-12
1.03709e-10
9.09107e-09
1.44644e-05
0.00613801
0.00596398
0.00187578
0.000564502
1.33962e-05
0.012796
2.58041
0.000838613
0.000363652
0.000225581
0.000258677
0.000225331
0.000132791
0.000346893
0.000379929
0.000423773
0.000483043
0.000557739
0.000651365
0.000764326
0.000900002
0.00105932
0.00124503
0.00145431
0.00168567
0.00194744
0.00219959
0.00245125
0.00272234
0.00306229
5.37076e-05
0.000174254
0.00034073
0.000495233
0.00060344
0.000698799
0.000761313
0.000875007
0.0010385
0.00127629
0.00175624
0.00237567
0.00280653
0.00660928
0.00207216
0.369773
0.000502901
0.000680903
0.000586637
0.00054859
0.000529961
0.000532965
0.000549958
0.000577044
0.000616524
0.000668832
0.000733794
0.00081234
0.000905492
0.00101462
0.00114196
0.00128852
0.0014483
0.00165126
0.00201092
0.00240158
0.00294528
0.00320323
0.00227124
0.000364616
0.00250751
1.35671e-11
2.08926e-27
5.54811e-17
3.58417e-16
3.80925e-15
1.37116e-13
4.20853e-11
1.19753e-08
5.1082e-13
0.00233677
0.00252962
3.85385e-05
0.0107623
1.61433
0.000475818
0.000506432
0.000725376
0.00179451
0.0023804
0.00246042
0.00256963
0.00274207
0.00295379
0.00326719
0.00368336
0.00422345
0.00487142
0.00566948
0.00664403
0.00781672
0.00917194
0.0106756
0.0122445
0.0137756
0.015174
0.0164103
0.0174732
0.018643
0.0190627
0.0185277
0.018001
0.0174972
0.0170151
0.0165446
0.0159766
0.0152098
0.0142792
0.0139269
0.0127924
0.00999968
0.0114082
0.00256745
0.143523
0.0008719
0.000879433
0.000894137
0.000909666
0.000932637
0.000961111
0.000995075
0.00103784
0.00109136
0.00115707
0.00123774
0.00133579
0.00145424
0.00159797
0.00177275
0.00198592
0.00224569
0.00257975
0.00303359
0.00362113
0.00439058
0.000438353
0.00197237
0.00180156
0.00257978
6.52501e-12
4.60516e-27
4.73889e-27
7.99241e-27
1.92802e-26
5.97438e-26
2.40295e-25
5.85234e-14
5.76664e-15
1.03573e-15
4.5416e-14
1.41107e-14
2.07411e-08
8.78247e-06
5.56293e-05
0.00197371
0.00359954
0.00392814
0.0040527
0.00423839
0.00444733
0.00475523
0.00511588
0.00560496
0.00625166
0.00698966
0.00785655
0.0088922
0.0100966
0.0114617
0.0129555
0.014553
0.0161943
0.0178158
0.0194433
0.0211016
0.0228721
0.0250436
0.0279145
0.0294347
0.0287441
0.0280641
0.0273189
0.0268029
0.0264934
0.025742
0.0246003
0.0233962
0.022045
0.0195638
0.0180984
0.00952408
0.0151491
0.00175608
0.00179043
0.00185539
0.00192659
0.00202609
0.0021455
0.00228054
0.00243099
0.00259887
0.00278616
0.00299764
0.00323803
0.00351182
0.00382528
0.00418466
0.00459542
0.00506212
0.00556318
0.00603211
0.00651484
0.00716515
0.00785191
0.00883774
0.00854701
0.0111899
4.9308e-11
1.7199e-17
6.33211e-27
7.27078e-27
1.27979e-26
3.00484e-26
8.44287e-26
2.36758e-25
5.98144e-25
2.08774e-17
3.63192e-16
3.56845e-22
4.90601e-23
1.05119e-08
0.00351956
0.00480889
0.00398873
0.00281673
0.0026424
0.0027904
0.00296422
0.00319388
0.00346889
0.00380671
0.00426289
0.00478245
0.00540362
0.00618682
0.00712859
0.0082564
0.00957888
0.0111467
0.0128669
0.01463
0.016596
0.0187114
0.0197437
0.0196895
0.019531
0.0193021
0.0190634
0.0188049
0.01855
0.0183534
0.0183312
0.0184216
0.018547
0.0187012
0.018862
0.0186055
0.0192361
0.0155832
0.000312653
0.00514872
0.00491546
0.00488279
0.0049245
0.00505029
0.00519069
0.00534629
0.00552067
0.0057255
0.00596553
0.00624888
0.00658306
0.00697576
0.00743866
0.0079845
0.00862829
0.00938612
0.0102615
0.01136
0.0126112
0.0137754
0.0148695
0.0162847
0.0178445
0.0208276
3.64297e-10
1.46909e-16
9.77089e-27
8.1126e-27
1.07954e-26
1.99544e-26
4.41048e-26
9.56961e-26
1.74682e-25
2.71531e-25
5.6331e-25
1.52366e-24
3.46346e-24
1.32659e-23
0.00576274
0.00388075
0.00290994
0.00292724
0.00240491
0.00255606
0.00264837
0.00270418
0.00274706
0.00279602
0.00290086
0.000240061
0.000647123
0.00102847
0.00138362
0.00171941
0.00204584
0.00234627
0.0026597
0.00296906
0.00324161
0.00351116
0.0037612
0.00397092
0.00415477
0.00432074
0.00448261
0.00464768
0.00482498
0.00501462
0.00533458
0.00593081
0.00676651
0.00781343
0.00908632
0.0103298
0.0122546
0.015373
0.000290782
0.00629837
0.00593053
0.00577017
0.00566493
0.00557632
0.00554286
0.00556825
0.00564678
0.00578352
0.00597768
0.00623043
0.00654871
0.00694147
0.00742518
0.00801848
0.00874084
0.00961607
0.0106709
0.0119805
0.013609
0.0154166
0.0174907
0.0200055
0.0226009
0.0251967
2.01104e-09
8.97274e-16
1.65977e-26
1.03497e-26
1.06951e-26
1.58869e-26
2.88668e-26
5.29047e-26
8.60618e-26
1.24188e-25
2.1091e-25
4.55045e-25
9.14023e-25
2.55583e-24
0.0047226
0.00435388
0.00080709
0.000379537
0.000408329
0.000405173
0.000398128
0.000384252
0.000370547
0.000360057
0.00034728
0.000376813
0.000438228
0.000497941
0.000556189
0.000614673
0.000673949
0.000733772
0.000799889
0.000869103
0.000934863
0.00100252
0.00106766
0.0011253
0.00117823
0.00122798
0.00127758
0.00132875
0.00138344
0.00144068
0.00152332
0.00164512
0.00189366
0.00206606
2.257e-05
0.00144333
0.00310603
0.00900771
0.000173745
0.00523831
0.00669501
0.00535484
0.00414922
0.0032437
0.00258136
0.002152
0.00192832
0.00188325
0.00194739
0.00208993
0.00232413
0.00264255
0.00304916
0.00355859
0.00415879
0.00484052
0.0055618
0.00635992
0.00813889
0.0107046
0.0134731
0.0164183
0.0177486
0.0226999
9.18196e-09
4.46494e-15
3.02388e-26
1.45985e-26
1.19865e-26
1.45244e-26
2.21464e-26
3.5428e-26
5.29372e-26
7.27267e-26
1.09651e-25
2.0571e-25
3.73041e-25
7.49703e-25
0.00216855
0.000725279
0.00231623
0.00291742
0.00305338
0.00293306
0.00284041
0.00275329
0.00266407
0.00258528
0.00250284
0.00245777
0.00243411
0.00240346
0.00235974
0.00230506
0.00224272
0.00218234
0.00212286
0.00206456
0.00200808
0.0019516
0.00189216
0.00183416
0.00178277
0.0017356
0.00169275
0.00165404
0.00162036
0.00158748
0.0015352
0.00136094
0.00152856
0.00106942
0.000145536
0.000114269
0.00228794
0.00412373
0.00062252
0.000647647
0.000929417
0.000869886
0.000797682
0.000780483
0.000781529
0.000777583
0.000799309
0.000839159
0.000884084
0.000940399
0.00100702
0.0010842
0.00117675
0.00128628
0.00141334
0.00155768
0.00171028
0.00194858
0.00221083
0.00266031
0.00200604
0.00518241
0.00759231
0.0149425
3.44556e-08
1.81056e-14
5.83072e-26
2.23658e-26
1.48698e-26
1.4898e-26
1.92981e-26
2.73302e-26
3.78971e-26
5.01871e-26
7.05154e-26
1.20196e-25
2.00939e-25
3.27603e-25
0.00223912
0.00612099
0.010371
0.010709
0.0109096
0.0111714
0.0115387
0.0120204
0.0126151
0.0133394
0.01422
0.0152753
0.0165292
0.017306
0.0170161
0.016709
0.0164342
0.0161808
0.0159396
0.0157023
0.0154617
0.0152018
0.0149178
0.0146284
0.0143495
0.0140828
0.0138323
0.0135921
0.0133696
0.0131577
0.0129701
0.0125821
0.0119432
0.0110375
0.00988142
0.00857939
0.00682054
0.00662875
0.00249195
0.00360728
0.000217997
0.00110776
0.00195277
0.00264299
0.00321509
0.00364754
0.0039859
0.00426182
0.00447305
0.00462864
0.00473855
0.00480562
0.0048392
0.00484673
0.00483239
0.00480455
0.00475582
0.00511314
0.00443048
0.00305867
0.0026762
0.00325746
0.00362456
0.00942192
1.35359e-07
7.62758e-14
1.18085e-25
3.67365e-26
2.01169e-26
1.68873e-26
1.87708e-26
2.37067e-26
3.06003e-26
3.86159e-26
5.17683e-26
8.19109e-26
1.27681e-25
1.82089e-25
0.0123668
0.0148839
0.0148696
0.0149647
0.0152303
0.0155813
0.0160697
0.0167072
0.0174865
0.0184215
0.0195361
0.019797
0.01966
0.0194631
0.0192468
0.0190484
0.0188596
0.0186735
0.0184834
0.0182815
0.018059
0.0178105
0.0175449
0.0172791
0.0170226
0.016774
0.0165326
0.0162929
0.0160651
0.0158426
0.0156724
0.015501
0.0152084
0.0147963
0.0141495
0.0134201
0.0117738
0.00989057
0.00747536
0.016512
0.0160523
0.0167963
0.0176001
0.0181304
0.0185125
0.0188045
0.0189954
0.0191576
0.0192924
0.0193383
0.0193395
0.019288
0.0191988
0.0190713
0.0189051
0.0187342
0.0185425
0.0182708
0.0177449
0.016482
0.0152661
0.0129777
0.00946426
0.0110568
8.85115e-07
5.30989e-13
2.50047e-25
6.41446e-26
2.93642e-26
2.09178e-26
2.01458e-26
2.2811e-26
2.74151e-26
3.31706e-26
4.22716e-26
6.19786e-26
9.0022e-26
1.17688e-25
0.0206238
0.0171586
0.00826999
0.00542109
0.00550121
0.00565645
0.00573433
0.00578396
0.00584464
0.00591509
0.00599181
0.00604795
0.00610342
0.00616463
0.00622858
0.00628967
0.00634297
0.00638564
0.00641459
0.00642672
0.00642203
0.00640593
0.0063832
0.00636124
0.00634485
0.00633018
0.00631699
0.00630447
0.00629696
0.00629352
0.00631762
0.0065454
0.0069619
0.00756442
0.00822029
0.00877069
0.00919227
0.00922617
0.00794438
0.0208696
0.0189687
0.0185052
0.0183513
0.0180896
0.0178366
0.0177016
0.0176105
0.0175499
0.0175174
0.0175076
0.0175227
0.0175335
0.0175847
0.0176819
0.017794
0.0179264
0.0180571
0.0182031
0.0185367
0.0186307
0.0183891
0.0176419
0.0150852
0.0146037
6.08708e-06
5.49845e-17
2.73131e-19
1.18396e-25
4.58873e-26
2.80645e-26
2.36406e-26
2.41163e-26
2.69868e-26
3.13164e-26
3.79193e-26
5.13453e-26
8.14225e-26
1.0216e-25
0.0121182
0.00215917
0.00143985
0.000779073
0.000809443
0.000857757
0.000879669
0.000879789
0.0008815
0.000888494
0.000889882
0.000891259
0.000901663
0.000915654
0.000935813
0.000962507
0.000992195
0.00102501
0.00105934
0.00109401
0.0011282
0.00116216
0.0011953
0.00122662
0.00125465
0.00128036
0.00130526
0.0013291
0.00135267
0.00137609
0.00140376
0.00147667
0.00159279
0.0017843
0.000940333
0.00222229
0.00386447
0.00560304
0.00623174
0.00655337
0.00657462
0.00582988
0.00543805
0.00514796
0.00491782
0.00476136
0.00466161
0.00461103
0.00460961
0.0046531
0.00474287
0.00488105
0.00505992
0.00528256
0.00555265
0.00587805
0.00625676
0.00666942
0.00724227
0.0085237
0.0101268
0.0118134
0.0123032
0.0134647
2.94355e-05
1.0921e-15
4.67997e-18
2.30152e-25
7.63363e-26
4.04973e-26
3.00993e-26
2.77976e-26
2.89785e-26
3.21535e-26
3.71538e-26
5.92935e-26
6.92555e-25
1.20224e-23
0.00237918
0.0002829
0.000403203
0.000488255
0.000503146
0.000517465
0.000521376
0.00051195
0.000500928
0.00049143
0.000476917
0.00046336
0.000454672
0.000447628
0.000444129
0.000444376
0.000446955
0.000451855
0.000458656
0.000466727
0.000475512
0.000484959
0.000494659
0.000503473
0.000510061
0.00051531
0.000519868
0.000523727
0.000527177
0.000530394
0.000532098
0.000522599
0.000476797
0.000403252
0.000526191
0.000740125
0.00103742
0.00143087
0.00347811
0.000871759
0.000892689
0.000847289
0.000764387
0.000734572
0.000713928
0.000684392
0.000672388
0.000668193
0.000668735
0.000682076
0.000703912
0.000735148
0.000776527
0.000827327
0.000888933
0.000962899
0.00104929
0.00114534
0.00127312
0.00157793
0.000550407
0.00259449
0.00471958
0.00739603
8.68156e-05
1.1351e-14
4.23822e-17
4.70132e-25
1.34651e-25
6.25056e-26
4.1308e-26
3.47032e-26
3.3736e-26
3.57046e-26
4.01242e-26
4.59471e-24
7.77427e-19
3.97416e-17
0.000188914
0.00113982
0.00292355
0.00352339
0.00355186
0.00354798
0.00354337
0.00352908
0.0035077
0.00348365
0.00345638
0.00342622
0.00339551
0.00336483
0.00333363
0.00330213
0.00327044
0.00323828
0.00320568
0.00317258
0.00313916
0.00310552
0.00307138
0.00303751
0.00300487
0.00297189
0.00293785
0.00290286
0.00286858
0.00283625
0.00279871
0.00270627
0.0024332
0.00202949
0.00152902
0.00106967
0.000391787
0.000450291
0.0020323
0.00067097
0.00047362
0.000523722
0.000547617
0.000594313
0.000636394
0.000652917
0.000672572
0.000688746
0.000698349
0.000711714
0.000724456
0.000736908
0.000751163
0.000764407
0.00077773
0.000791256
0.00080383
0.000814056
0.000822117
0.000789294
0.000790579
0.0010794
0.00141458
0.00122003
0.000140685
7.09448e-14
2.3265e-16
1.00787e-24
2.51168e-25
1.02763e-25
6.07801e-26
4.66428e-26
4.23413e-26
4.26943e-26
1.11313e-25
2.0544e-19
4.331e-17
1.67685e-16
0.00151633
0.00655743
0.00927887
0.0095175
0.00952373
0.00947114
0.00942389
0.00938644
0.00935312
0.00932254
0.00929253
0.0092611
0.00923028
0.00919896
0.00916491
0.00912818
0.00908855
0.00904516
0.00899783
0.00894584
0.00888944
0.00882881
0.00876326
0.00869411
0.00862291
0.00854763
0.00846848
0.00838505
0.00830104
0.00822019
0.00813535
0.00804565
0.00779835
0.00738874
0.0067884
0.00591062
0.00486298
0.00329115
0.00267937
0.00383066
0.00364239
0.00376208
0.00408294
0.00437213
0.00460825
0.00479297
0.00493847
0.00505942
0.00515988
0.0052418
0.00530792
0.00535936
0.00539503
0.00541349
0.00541982
0.00541878
0.00540713
0.00537737
0.0053342
0.00503392
0.00434087
0.00372203
0.00266749
0.00160923
0.000338822
6.65601e-13
1.92989e-15
2.26631e-24
4.94599e-25
1.79409e-25
9.54712e-26
6.71444e-26
5.6979e-26
5.46994e-26
9.33658e-26
2.88765e-20
3.51371e-17
2.70547e-17
0.00904232
0.0101865
0.00777039
0.00743431
0.00737869
0.00730677
0.00725565
0.00723119
0.00722047
0.00721527
0.00721632
0.00722116
0.00722639
0.00723126
0.00723423
0.00723411
0.00723045
0.00722294
0.00721084
0.00719339
0.0071704
0.00714207
0.00710752
0.00706763
0.00702514
0.00697983
0.00693147
0.00687972
0.00682663
0.00677581
0.0067238
0.00670207
0.00673502
0.00677293
0.00675311
0.00655006
0.00610821
0.00494094
0.00371048
0.00997311
0.00931282
0.00941737
0.00956921
0.00956249
0.00951007
0.0094628
0.00942132
0.00939586
0.00938315
0.00937392
0.00936738
0.00936274
0.00935561
0.00934184
0.00932846
0.00932178
0.00931335
0.00929803
0.00930674
0.009296
0.00894292
0.00822497
0.00717223
0.00548465
0.00144066
9.49764e-12
2.44857e-14
5.34426e-24
1.02691e-24
3.31828e-25
1.59532e-25
1.03066e-25
8.17944e-26
7.46345e-26
1.00829e-25
6.47719e-21
1.95581e-19
1.03739e-16
0.00931516
0.00458922
0.0017446
0.00134509
0.00131286
0.00130449
0.00129295
0.00128331
0.00127923
0.00128002
0.00128383
0.00129048
0.00129962
0.00131092
0.0013238
0.00133801
0.00135314
0.00136896
0.00138502
0.00140104
0.00141681
0.00143234
0.00144794
0.00146408
0.00148101
0.00149797
0.00151481
0.00153138
0.00154775
0.00156505
0.00157902
0.00160197
0.00180604
0.00218837
0.00269818
0.00332124
0.00399667
0.00421399
0.0036018
0.00716685
0.00665125
0.00610596
0.00578546
0.00552625
0.00531832
0.00516811
0.00505368
0.00496821
0.00490736
0.00486372
0.00483557
0.00482295
0.00482334
0.00483557
0.00486271
0.00490882
0.00497019
0.00504323
0.00514351
0.00539757
0.0058473
0.00623501
0.00640764
0.00597696
0.0034263
1.05098e-10
2.42039e-13
1.32141e-23
2.24605e-24
6.48931e-25
2.82744e-25
1.68045e-25
1.24678e-25
1.07903e-25
1.22507e-25
1.90099e-21
2.2317e-15
1.68848e-16
0.00274741
0.000952874
0.000262851
0.00020341
0.000202541
0.000206717
0.000206284
0.000201394
0.000197092
0.000194168
0.000189465
0.000185378
0.0001835
0.000182454
0.000183104
0.000185968
0.000190235
0.000196154
0.000203495
0.000212079
0.000221608
0.000232057
0.000243344
0.000254597
0.000264843
0.000274565
0.000284369
0.000294195
0.000303998
0.000313942
0.000323174
0.000334177
0.000383677
0.000472958
0.000595588
7.31602e-05
0.00104311
0.00211729
0.0026041
0.00102073
0.000926634
0.000285695
0.000858661
0.00080172
0.000783345
0.000750159
0.00073305
0.000719885
0.000705811
0.000700839
0.000699026
0.000701023
0.000708884
0.00071993
0.000735444
0.000755535
0.000779503
0.000806381
0.000841311
2.87189e-05
0.000577858
0.0014375
0.002447
0.0031873
0.00374716
8.59156e-10
1.77432e-12
3.42493e-23
5.16965e-24
1.33941e-24
5.30088e-25
2.90017e-25
2.00987e-25
1.64543e-25
1.65665e-25
6.927e-22
3.02722e-17
6.08453e-17
0.000493206
0.000111468
0.000338529
0.000365804
0.000374605
0.000383646
0.000385236
0.000377918
0.000369716
0.000362475
0.000350728
0.00033902
0.000330883
0.000323542
0.00031887
0.000317932
0.0003191
0.000322892
0.00032903
0.000336901
0.000346118
0.000356462
0.00036781
0.000378292
0.000386145
0.000392584
0.000398759
0.000404615
0.000410154
0.000415462
0.00042065
0.00042584
0.000419217
0.0003851
0.000322509
0.000255494
0.000389316
6.71498e-05
0.00116772
0.00014104
0.000129938
5.99605e-05
2.75983e-05
3.56629e-05
4.48893e-05
5.20404e-05
5.93545e-05
6.62519e-05
7.1624e-05
7.6851e-05
8.14606e-05
8.54926e-05
8.94007e-05
9.28527e-05
9.60648e-05
9.90313e-05
0.000101685
0.000104022
0.000105873
0.000110419
0.000180143
0.000308222
0.000449905
0.00010885
0.00183887
4.95094e-09
9.20282e-12
9.30246e-23
1.25101e-23
2.9127e-24
1.04859e-24
5.28119e-25
3.41355e-25
2.63543e-25
2.41839e-25
2.95678e-22
8.83788e-18
1.29058e-16
0.000340018
0.000844064
0.00232021
0.00250145
0.00251439
0.00250945
0.00250697
0.00250749
0.00250743
0.00250693
0.00250713
0.00250693
0.00250591
0.00250454
0.00250227
0.0024988
0.00249424
0.00248835
0.00248094
0.00247184
0.00246111
0.00244888
0.0024351
0.00242018
0.00240514
0.00238971
0.00237348
0.00235661
0.00233927
0.00232206
0.00230584
0.00229166
0.00221699
0.00200289
0.0016509
0.00120671
0.000762129
0.000455303
0.000792704
0.000630779
0.000458229
0.00011907
0.000199852
0.000255537
0.000317444
0.000374482
0.000428292
0.000479485
0.000523599
0.000562225
0.000595949
0.000624385
0.00064821
0.000667442
0.000682501
0.000694102
0.000702157
0.000707127
0.000708464
0.000696631
0.000544294
0.000413723
0.000124937
0.000459708
0.000733493
3.31622e-08
5.76523e-11
2.64656e-22
3.17905e-23
6.66326e-24
2.18368e-24
1.01183e-24
6.08598e-25
4.41663e-25
3.74898e-25
1.42972e-22
8.15154e-19
2.21898e-17
0.00185805
0.00426887
0.00439147
0.00450687
0.00448392
0.0044425
0.0044102
0.00438927
0.00437459
0.00436356
0.00435645
0.00435184
0.00434852
0.00434627
0.00434422
0.00434163
0.00433838
0.00433406
0.00432817
0.00432035
0.00431061
0.00429918
0.00428576
0.00427023
0.00425369
0.00423577
0.00421568
0.00419351
0.00416937
0.00414388
0.00411899
0.00410243
0.00407082
0.00396528
0.00362446
0.00325722
0.00282337
0.00208595
0.00158384
0.00314711
0.00329139
0.00349319
0.00357416
0.00360456
0.00362562
0.00364311
0.00365875
0.00367592
0.00369282
0.00370861
0.00372419
0.00373899
0.00375182
0.0037613
0.00376842
0.00377493
0.00377845
0.00377632
0.00377093
0.00377039
0.00364461
0.00333595
0.00285884
0.00233597
0.00205872
6.85775e-07
3.94422e-11
1.56347e-13
8.47653e-23
1.60161e-23
4.77691e-24
2.03462e-24
1.13588e-24
7.72194e-25
6.0991e-25
7.65591e-23
1.42433e-19
3.72511e-18
0.00484541
0.00374525
0.00242119
0.00234036
0.00231734
0.00228399
0.0022564
0.00223671
0.00222312
0.00221326
0.00220717
0.00220431
0.00220334
0.00220374
0.00220493
0.0022063
0.00220765
0.00220865
0.00220898
0.0022083
0.0022068
0.0022047
0.00220186
0.00219825
0.00219475
0.00219095
0.00218646
0.00218166
0.00217601
0.00216972
0.00216382
0.00216199
0.00220294
0.0023099
0.00243735
0.00255919
0.00257539
0.00232816
0.00189804
0.00444974
0.00402942
0.00393555
0.00379732
0.00366876
0.00357748
0.00351994
0.00348091
0.00345366
0.00343525
0.00342127
0.00341147
0.00340548
0.00340156
0.00339877
0.00339795
0.00340071
0.00340511
0.00340872
0.00341327
0.00345296
0.00353344
0.00354549
0.00345019
0.00316312
0.00285643
9.39052e-06
1.80477e-09
6.54543e-12
2.37079e-22
4.04005e-23
1.09642e-23
4.28537e-24
2.21417e-24
1.40507e-24
1.03394e-24
4.49067e-23
3.01813e-20
7.52404e-19
0.00282832
0.000822959
0.000464889
0.000362773
0.00036537
0.000368936
0.000365913
0.000355407
0.00034515
0.000336418
0.0003236
0.000311126
0.000302194
0.000293919
0.000288317
0.000286472
0.000286921
0.000290323
0.000296357
0.00030461
0.000314689
0.000326561
0.000340034
0.000352935
0.000363105
0.00037189
0.000380672
0.000389422
0.000398004
0.00040628
0.000414404
0.000423151
0.000440307
0.00048393
0.000245896
0.000615535
0.00106484
0.00143022
0.00148117
0.00146116
0.00130099
0.00097856
0.000964775
0.000949988
0.000918532
0.000888334
0.000865248
0.000844709
0.000826841
0.000811596
0.000799274
0.000790382
0.00078469
0.000782279
0.000783548
0.000789243
0.000799012
0.000812892
0.0008279
0.000856591
0.00100505
0.00130896
0.00160889
0.00185168
0.00209823
5.29996e-05
3.12747e-08
1.03869e-10
6.94873e-22
1.06899e-22
2.63685e-23
9.44309e-24
4.50309e-24
2.65651e-24
1.81959e-24
2.9036e-23
7.39241e-21
2.77658e-17
0.000559846
0.000115998
5.056e-05
6.27201e-05
6.80617e-05
7.23815e-05
7.44001e-05
7.38043e-05
7.25111e-05
7.12208e-05
6.86383e-05
6.57607e-05
6.35421e-05
6.13661e-05
5.96874e-05
5.88536e-05
5.85101e-05
5.88516e-05
5.97993e-05
6.13231e-05
6.3287e-05
6.57171e-05
6.85922e-05
7.14372e-05
7.36181e-05
7.54059e-05
7.71473e-05
7.88585e-05
8.05387e-05
8.21678e-05
8.37846e-05
8.503e-05
8.49662e-05
7.53155e-05
0.00010728
0.000166892
0.000248064
0.000310041
0.000723936
0.000206648
0.000186446
0.000149818
0.000141533
0.000140686
0.000137651
0.000130506
0.000126485
0.000122807
0.000118657
0.000116062
0.000113978
0.000112576
0.000112295
0.000112658
0.000113948
0.000116128
0.000119153
0.000122961
0.000127081
0.000133337
0.000158376
0.000208508
0.000279069
0.000219957
0.00061605
0.000136372
2.98185e-07
9.08015e-10
2.13247e-21
2.96407e-22
6.64247e-23
2.17534e-23
9.54509e-24
5.21668e-24
3.318e-24
2.13471e-23
2.12909e-21
2.23022e-18
5.61617e-05
0.000245454
0.000336935
0.00041759
0.000445619
0.000462875
0.000474628
0.000481754
0.000485891
0.000489121
0.000490917
0.000491162
0.000491133
0.000490808
0.000490072
0.000489407
0.000488828
0.000488382
0.000488074
0.000488021
0.000488055
0.00048824
0.000488787
0.000489654
0.00049041
0.000490544
0.000490191
0.000489542
0.000488649
0.000487528
0.000486483
0.000483442
0.000473342
0.000411477
0.000303976
0.000199272
3.74369e-05
3.70935e-05
0.000373819
0.000188538
0.000134106
0.00015694
0.000155167
0.000162978
0.000169392
0.000169212
0.000170924
0.000172322
0.000172104
0.000173278
0.000174354
0.000175432
0.000177314
0.000179224
0.000181545
0.000184115
0.000186758
0.000189255
0.000191603
0.000193821
0.000192104
0.000174343
0.000146219
0.000152593
0.000212647
9.11472e-05
1.37943e-06
5.15805e-09
6.84876e-21
8.6042e-22
1.75037e-22
5.23564e-23
2.10806e-23
1.06365e-23
6.26578e-24
1.88137e-23
7.59671e-22
3.5036e-19
0.000415252
0.00155735
0.00193978
0.00203002
0.00203983
0.00203413
0.0020281
0.00202493
0.0020233
0.0020231
0.00202414
0.00202524
0.00202648
0.0020276
0.00202815
0.00202843
0.00202856
0.00202841
0.00202808
0.0020275
0.00202664
0.00202552
0.00202426
0.00202274
0.00202064
0.00201756
0.00201343
0.00200854
0.0020029
0.00199628
0.00198902
0.00198101
0.00197465
0.00191839
0.0017977
0.00159325
0.00129375
0.000985707
0.000810647
0.00104307
0.000967226
0.00106004
0.00109589
0.00114182
0.00117474
0.00120029
0.00122169
0.00124178
0.00126043
0.00127717
0.00129226
0.00130544
0.0013166
0.00132592
0.00133381
0.00134072
0.00134603
0.00134889
0.00134995
0.00135097
0.00132762
0.00119704
0.00100031
0.000794226
0.000598067
0.000375884
1.27586e-05
2.93212e-08
1.72461e-10
2.61096e-21
4.82058e-22
1.31481e-22
4.84952e-23
2.25167e-23
1.22516e-23
2.05773e-23
3.50467e-22
7.45924e-20
0.00206326
0.00212503
0.00176751
0.00176701
0.00174493
0.00171662
0.0016941
0.00168066
0.00167299
0.00166846
0.00166707
0.00166757
0.00166875
0.00167022
0.00167182
0.00167317
0.00167438
0.00167536
0.00167618
0.00167664
0.00167677
0.00167655
0.00167589
0.00167446
0.00167251
0.00167017
0.00166735
0.001664
0.00166018
0.00165568
0.00165071
0.00164501
0.00165014
0.00167639
0.00169491
0.00166983
0.00158761
0.00137095
0.00108791
0.00220175
0.00201093
0.00195375
0.0019605
0.00194645
0.00192514
0.00191147
0.00190287
0.00189905
0.00189861
0.00189934
0.0019009
0.00190259
0.00190386
0.00190491
0.00190635
0.00190865
0.00191093
0.00191188
0.00191232
0.00191719
0.00193247
0.00189373
0.00181043
0.00167491
0.00142557
0.00104839
0.000107982
7.29943e-07
4.39318e-10
3.64411e-12
1.38531e-21
3.44138e-22
1.16037e-22
4.94662e-23
2.47952e-23
2.73976e-23
2.09741e-22
2.08291e-20
0.00182771
0.000746114
0.000447832
0.000389071
0.000374851
0.000360891
0.000348046
0.000337382
0.000329458
0.000323314
0.000318059
0.000313742
0.00031011
0.000306972
0.000304352
0.000302147
0.000300216
0.000298764
0.000297621
0.00029685
0.000296536
0.000296832
0.000297769
0.000299265
0.000301155
0.000303396
0.000305824
0.000308216
0.000310596
0.000312904
0.000315156
0.000315787
0.000319041
0.000374098
0.000496348
0.00064979
0.000804203
0.000926661
0.000908516
0.00122945
0.00116456
0.00103891
0.000959707
0.00090693
0.000862399
0.000830704
0.000807214
0.000788767
0.000774504
0.000762795
0.00075296
0.000744758
0.000737798
0.000732204
0.000728293
0.000726235
0.000725854
0.000726798
0.000729144
0.000733882
0.000762277
0.000852881
0.000962076
0.00105489
0.00109006
0.00103177
0.000367234
6.81878e-06
1.47596e-08
1.1404e-10
4.14328e-21
9.36802e-22
2.88424e-22
1.1263e-22
5.18932e-23
4.24122e-23
1.60719e-22
7.50927e-21
0.000387284
0.000150358
7.11536e-05
6.18415e-05
6.05688e-05
5.96982e-05
5.77186e-05
5.46797e-05
5.19817e-05
4.97103e-05
4.68235e-05
4.40126e-05
4.17919e-05
3.96643e-05
3.79655e-05
3.68993e-05
3.61943e-05
3.60236e-05
3.63373e-05
3.711e-05
3.82788e-05
3.98958e-05
4.19493e-05
4.40531e-05
4.57215e-05
4.72149e-05
4.88055e-05
5.04434e-05
5.21291e-05
5.38392e-05
5.55752e-05
5.70485e-05
5.90145e-05
7.0827e-05
9.61415e-05
0.000128727
0.000176609
0.000258963
0.000469881
0.000177781
0.000170397
0.000162319
0.000143493
0.000136753
0.000131405
0.000123721
0.000119268
0.000115504
0.000111456
0.000108946
0.000106795
0.000105042
0.000104117
0.000103557
0.00010357
0.000104071
0.000104979
0.000106195
0.000107662
0.00010937
0.000114359
0.000128543
0.000157849
0.000122748
0.000314404
0.000486268
0.000449174
3.07109e-05
2.24782e-07
1.70852e-09
1.28731e-20
2.6461e-21
7.43117e-22
2.65375e-22
1.12188e-22
7.31867e-23
1.55477e-22
3.46584e-21
5.5545e-05
7.05221e-05
0.00010373
0.000106375
0.000109547
0.000113909
0.000116053
0.000114907
0.000112911
0.000110774
0.000106525
0.000101724
9.7761e-05
9.36195e-05
9.01673e-05
8.8008e-05
8.66235e-05
8.6369e-05
8.72633e-05
8.92189e-05
9.20759e-05
9.59067e-05
0.000100664
0.000105291
0.000108512
0.000111017
0.000113599
0.00011622
0.000118884
0.000121538
0.000124197
0.000126848
0.000129565
0.000129705
0.00012291
0.0001075
8.52e-05
0.000119957
6.83117e-05
2.0496e-05
2.29794e-05
3.34136e-05
3.86878e-05
4.41946e-05
4.88406e-05
5.05154e-05
5.21457e-05
5.32531e-05
5.34917e-05
5.40277e-05
5.44154e-05
5.47157e-05
5.52348e-05
5.57345e-05
5.63497e-05
5.7028e-05
5.77416e-05
5.8403e-05
5.89825e-05
5.93867e-05
5.91863e-05
5.32243e-05
4.33569e-05
5.39404e-05
6.99332e-05
9.71026e-05
0.00010179
5.7662e-05
1.49737e-06
1.98272e-09
2.07896e-11
7.73968e-21
1.98018e-21
6.45794e-22
2.50104e-22
1.36617e-22
1.84412e-22
2.01496e-21
0.000165494
0.000510473
0.000681041
0.000698934
0.00070863
0.000720291
0.000732792
0.000743646
0.000752012
0.000758696
0.000764324
0.000768761
0.000772319
0.000775328
0.000777773
0.000779805
0.000781568
0.000783049
0.000784291
0.000785284
0.000786033
0.00078653
0.000786813
0.000786958
0.000786956
0.000786661
0.00078598
0.000784998
0.000783807
0.000782322
0.000780684
0.000778875
0.000777326
0.000760607
0.000704684
0.000602698
0.000467292
0.000339868
0.000277169
0.000147574
0.000163647
0.000223104
0.000270538
0.000306847
0.000335933
0.000356033
0.000370964
0.000382854
0.000392127
0.000399892
0.000406631
0.00041231