/*--------------------------------*- C++ -*----------------------------------*\
| =========                 |                                                 |
| \\      /  F ield         | OpenFOAM: The Open Source CFD Toolbox           |
|  \\    /   O peration     | Version:  2312                                  |
|   \\  /    A nd           | Website:  www.openfoam.com                      |
|    \\/     M anipulation  |                                                 |
\*---------------------------------------------------------------------------*/
FoamFile
{
    version     2.0;
    format      ascii;
    arch        "LSB;label=32;scalar=64";
    class       volScalarField;
    location    "50";
    object      p;
}
// * * * * * * * * * * * * * * * * * * * * * * * * * * * * * * * * * * * * * //

dimensions      [0 2 -2 0 0 0 0];

internalField   nonuniform List<scalar> 
10720
(
160.556
109.322
46.9814
-19.1143
-85.6057
-155.74
-222.264
-282.74
-338.375
-386.113
-426.637
-460.454
-487.768
-508.941
-524.489
-534.575
-540.193
-540.253
-535.196
-523.502
-505.641
-481.039
-451.247
-417.477
-379.432
-345.849
-322.117
-285.215
-245.034
-219.739
-192.188
-161.135
-131.178
-104.116
-93.4685
-92.4497
-63.7093
-10.8576
22.2924
207.379
248.33
287.229
318.247
336.155
341.702
337.625
321.706
296.307
266.171
235.232
206.201
179.929
156.792
136.818
118.79
102.397
86.9269
71.9711
56.8448
41.4697
25.5345
9.34467
-6.39948
-19.5183
-28.7998
-35.6859
-41.0453
-45.2453
-48.0634
-49.1371
-48.1854
-45.3252
-40.5557
-33.8595
-25.5224
-15.8557
-0.677893
29.6305
193.073
154.34
108.781
57.9371
3.3034
-54.7464
-113.465
-170.815
-225.737
-276.492
-322.356
-362.883
-397.772
-427.049
-450.794
-468.893
-481.44
-487.877
-488.698
-483.368
-471.999
-453.851
-430.048
-400.185
-365.92
-331.391
-300.177
-275.569
-252.691
-225.728
-194.025
-161.31
-131.05
-104.02
-93.4405
-92.4529
-63.7759
-9.13105
21.6511
226.363
256.505
284.523
308.061
323.301
329.482
326.424
313.972
294.224
269.912
243.609
217.404
192.466
169.455
148.621
129.514
111.872
95.2585
79.2752
63.4054
47.5252
31.4272
15.2946
-0.214801
-13.3242
-23.1319
-30.8193
-37.0495
-41.8686
-45.0843
-46.4858
-45.8611
-43.3393
-38.9208
-32.5519
-24.484
-15.0847
1.12695
29.8696
191.082
156.621
115.964
69.5526
19.2583
-34.5481
-90.2873
-145.788
-199.551
-250.309
-296.769
-338.316
-374.554
-405.269
-430.171
-449.226
-462.514
-470.122
-471.99
-467.674
-457.044
-439.889
-417.123
-389.345
-357.923
-325.678
-295.217
-272.421
-250.873
-223.442
-192.181
-160.27
-130.677
-104.111
-93.5288
-91.9413
-62.8372
-8.31425
27.3753
220.682
247.503
272.122
292.586
306.158
312.558
311.265
302.054
286.238
265.587
242.15
217.844
193.988
171.401
150.509
131.232
113.342
96.5106
80.3911
64.5529
48.8025
33.0038
17.3118
2.1852
-10.9463
-21.155
-29.1646
-35.5805
-40.4894
-43.7942
-45.3125
-44.818
-42.4266
-38.1487
-31.9008
-23.9385
-14.3647
1.86939
29.3466
188.106
158.886
124.221
84.7266
41.7303
-4.87658
-53.6872
-103.17
-152.169
-199.489
-244.018
-285.009
-321.868
-354.174
-381.519
-403.719
-420.695
-432.365
-438.464
-438.52
-432.132
-419.147
-400.304
-376.31
-348.332
-318.721
-291.249
-269.469
-247.412
-220.562
-190.325
-159.31
-130.371
-104.359
-93.4413
-90.6744
-61.353
-7.39582
31.4733
213.249
236.03
257.221
275.163
287.563
294.178
294.341
287.775
275.416
258.53
238.69
217.449
195.938
174.953
154.988
136.155
118.358
101.418
85.0928
69.0911
53.2428
37.4499
21.8083
6.77272
-6.48765
-17.0934
-25.4908
-32.2477
-37.475
-41.0925
-42.8999
-42.6818
-40.5694
-36.5879
-30.6304
-22.9127
-13.4456
2.65411
28.7146
180.198
154.296
123.465
88.2566
49.9214
8.02617
-36.269
-81.6873
-127.39
-172.288
-215.348
-255.779
-292.858
-325.999
-354.714
-378.641
-397.492
-410.912
-418.682
-420.418
-415.801
-404.788
-388.009
-366.24
-340.459
-312.842
-286.803
-265.018
-243.056
-217.376
-188.328
-158.236
-129.932
-104.519
-93.2054
-89.023
-59.6049
-6.42818
30.254
202.549
222.691
241.554
257.688
269.229
276.001
277.301
272.84
263.261
249.463
232.644
214.057
194.654
175.181
156.178
137.886
120.344
103.495
87.1968
71.2558
55.5204
39.9118
24.5214
9.74388
-3.48663
-14.3478
-23.0473
-30.0654
-35.5149
-39.3097
-41.2713
-41.2122
-39.2816
-35.5152
-29.7745
-22.2419
-12.8456
3.089
27.8451
171.235
148.159
120.649
89.2914
55.2576
17.9113
-21.7141
-62.6025
-104.178
-145.518
-185.765
-224.199
-260.078
-292.76
-321.7
-346.424
-366.497
-381.59
-391.439
-395.675
-393.865
-385.866
-372.147
-353.406
-330.481
-305.302
-281.007
-259.876
-238.562
-214.035
-186.055
-156.877
-129.264
-104.492
-92.8304
-87.1314
-57.6945
-5.01583
27.8645
191.196
209.146
226.136
240.861
251.73
258.593
260.744
257.909
250.553
239.344
225.216
209.185
192.019
174.365
156.738
139.424
122.543
106.121
90.0983
74.3591
58.7981
43.3729
28.1776
13.5716
0.338568
-10.7639
-19.7703
-27.0643
-32.7615
-36.7839
-38.9775
-39.1688
-37.5095
-34.0379
-28.5858
-21.3087
-12.0598
3.63967
27.0677
161.604
140.751
115.871
87.5334
56.8964
23.1916
-12.6626
-49.8
-87.8649
-126.08
-163.745
-200.245
-234.857
-266.93
-295.88
-321.148
-342.221
-358.671
-370.056
-375.971
-375.961
-369.929
-358.327
-341.847
-321.221
-298.113
-275.398
-254.996
-234.263
-210.712
-183.728
-155.461
-128.547
-104.358
-92.2913
-85.0215
-55.5905
-3.21606
27.1812
179.664
195.894
211.406
225.008
235.316
242.206
244.995
243.415
237.828
228.742
216.898
203.119
188.014
172.119
155.897
139.639
123.512
107.612
91.9512
76.4851
61.1647
45.9861
31.0505
16.6847
3.54479
-7.68849
-16.9301
-24.4673
-30.4052
-34.6664
-37.091
-37.5107
-36.0785
-32.8421
-27.6159
-20.5283
-11.392
4.09121
26.3679
151.944
132.958
110.305
84.5318
56.7858
26.2343
-6.28179
-40.0095
-74.7364
-109.827
-144.705
-178.881
-211.71
-242.574
-270.877
-296.031
-317.456
-334.639
-347.136
-354.545
-356.367
-352.457
-343.188
-329.167
-310.989
-290.095
-269.13
-249.691
-229.68
-207.169
-181.265
-153.979
-127.83
-104.176
-91.6092
-82.7356
-53.2929
-1.68269
26.5721
168.426
183.256
197.555
210.229
220.052
226.917
230.169
229.557
225.372
218.02
208.102
196.298
183.089
168.905
154.143
139.067
123.864
108.669
93.5431
78.5014
63.5441
48.7015
34.0843
19.9897
6.98162
-4.33082
-13.7808
-21.5606
-27.7516
-32.2662
-34.9382
-35.604
-34.4187
-31.4354
-26.4525
-19.5755
-10.5873
4.63467
25.7653
142.502
125.076
104.298
80.6813
55.3668
27.4935
-2.17308
-32.9545
-64.7463
-97.0053
-129.273
-161.173
-192.148
-221.64
-249.084
-273.879
-295.412
-313.134
-326.518
-335.121
-338.384
-336.152
-328.783
-316.856
-300.863
-282.031
-262.747
-244.322
-225.074
-203.57
-178.726
-152.412
-127.06
-103.914
-90.7837
-80.3147
-50.9569
-0.624316
25.4852
157.675
171.35
184.632
196.523
205.911
212.708
216.298
216.432
213.357
207.417
199.11
189.007
177.489
164.897
151.557
137.689
123.479
109.077
94.5774
80.0402
65.5104
51.0509
36.7828
22.9826
10.1428
-1.19098
-10.8007
-18.7938
-25.2212
-29.9826
-32.9007
-33.8111
-32.8626
-30.112
-25.3476
-18.6561
-9.8064
5.14085
25.1946
133.454
117.358
98.1782
76.4193
53.1972
27.6386
0.454611
-27.7368
-56.9002
-86.5609
-116.352
-145.989
-175.001
-202.918
-229.219
-253.316
-274.603
-292.498
-306.434
-315.948
-320.476
-319.813
-314.272
-304.374
-290.51
-273.708
-256.118
-238.803
-220.387
-199.87
-176.078
-150.716
-126.154
-103.489
-89.7549
-77.821
-48.6896
-0.164746
23.9869
147.521
160.21
172.612
183.826
192.818
199.512
203.345
204.055
201.863
197.072
190.107
181.458
171.432
160.298
148.315
135.661
122.496
108.969
95.1904
81.2499
67.2261
53.2092
39.3333
25.86
13.2311
1.93851
-7.77106
-15.934
-22.5672
-27.5571
-30.7135
-31.8686
-31.1663
-28.6631
-24.1357
-17.6542
-8.97645
5.62492
24.6188
124.884
109.938
92.1371
71.9861
50.5787
27.0349
2.01737
-23.9069
-50.7404
-78.0653
-105.582
-133.08
-160.166
-186.448
-211.47
-234.689
-255.515
-273.366
-287.649
-297.861
-303.431
-304.101
-300.152
-292.055
-280.12
-265.211
-249.245
-233.068
-215.521
-195.984
-173.256
-148.851
-125.047
-102.826
-88.4822
-75.3153
-46.525
-0.23701
22.2643
137.992
149.817
161.445
172.058
180.681
187.248
191.245
192.402
190.915
187.059
181.209
173.795
165.072
155.249
144.535
133.06
120.95
108.343
95.3468
82.0681
68.6078
55.0791
41.6265
28.5032
16.117
4.91604
-4.83957
-13.129
-19.9356
-25.1318
-28.5161
-29.9128
-29.4585
-27.2069
-22.9236
-16.6632
-8.17868
6.02027
23.9427
116.815
102.882
86.2911
67.5518
47.7316
25.9582
2.85361
-21.059
-45.8165
-71.0397
-96.4761
-121.971
-147.194
-171.828
-195.481
-217.664
-237.83
-255.41
-269.809
-280.493
-286.915
-288.755
-286.247
-279.8
-269.649
-256.517
-242.107
-227.079
-210.44
-191.892
-170.245
-146.804
-123.723
-101.901
-86.9951
-72.8479
-44.4997
-0.744305
20.3293
129.075
140.135
151.072
161.142
169.415
175.839
179.939
181.439
180.515
177.423
172.497
166.126
158.529
149.872
140.322
129.967
118.901
107.235
95.0687
82.5099
69.6721
56.6818
43.69
30.9458
18.834
7.77059
-1.97949
-10.3504
-17.2926
-22.6653
-26.2559
-27.8814
-27.672
-25.6775
-21.6522
-15.6367
-7.38231
6.34301
23.1462
109.24
96.2047
80.6845
63.1933
44.7735
24.5686
3.16381
-18.9549
-41.8518
-65.1847
-88.7301
-112.375
-135.839
-158.865
-181.124
-202.187
-221.556
-238.694
-253.023
-263.991
-271.073
-273.901
-272.658
-267.691
-259.165
-247.683
-234.748
-220.865
-205.164
-187.605
-167.05
-144.58
-122.203
-100.761
-85.3715
-70.4917
-42.7274
-1.67784
18.1957
120.741
131.124
141.437
151.009
158.951
165.222
169.377
171.139
170.666
168.199
164.041
158.548
151.917
144.285
135.785
126.473
116.412
105.686
94.3763
82.5802
70.4124
58.0035
45.5081
33.171
21.3611
10.4715
0.768797
-7.64576
-14.6913
-20.2122
-23.9871
-25.8255
-25.8504
-24.1081
-20.3442
-14.5877
-6.59425
6.59427
22.2731
102.136
89.8965
75.3328
58.9547
41.7805
22.9728
3.08548
-17.4245
-38.6461
-60.2662
-82.0893
-104.032
-125.852
-147.338
-168.22
-188.122
-206.598
-223.156
-237.246
-248.316
-255.866
-259.509
-259.368
-255.728
-248.692
-238.752
-227.22
-214.467
-199.72
-183.14
-163.676
-142.189
-120.521
-99.4857
-83.7158
-68.3101
-41.3037
-3.0153
15.8697
112.959
122.731
132.486
141.598
149.228
155.337
159.511
161.471
161.361
159.408
155.892
151.141
145.337
138.599
131.036
122.68
113.569
103.759
93.3114
82.3038
70.843
59.0559
47.094
35.1952
23.7168
13.0356
3.41797
-5.00645
-12.1266
-17.7706
-21.7079
-23.7411
-23.9863
-22.4868
-18.9835
-13.4982
-5.79712
6.79512
21.3837
95.4781
83.9539
70.2531
54.8775
38.8185
21.2608
2.73555
-16.3283
-36.033
-56.0934
-76.3425
-96.7203
-117.015
-137.054
-156.603
-175.341
-192.872
-208.752
-222.471
-233.494
-241.338
-245.621
-246.416
-243.945
-238.262
-229.756
-219.556
-207.914
-194.129
-178.51
-160.13
-139.64
-118.707
-98.1454
-82.1262
-66.3488
-40.2306
-4.6835
13.334
105.689
114.91
124.154
132.846
140.177
146.119
150.285
152.393
152.576
151.049
148.072
143.951
138.858
132.897
126.165
118.676
110.447
101.513
91.9099
81.6983
70.9688
59.837
48.4445
37.0171
25.9016
15.4633
5.96607
-2.43775
-9.60869
-15.3563
-19.4396
-21.6538
-22.1063
-20.8385
-17.5894
-12.3806
-4.99591
6.95544
20.5027
89.2434
78.373
65.4602
50.9954
35.9411
19.5096
2.21106
-15.5474
-33.8756
-52.5133
-71.3204
-90.257
-109.137
-127.815
-146.094
-163.691
-180.26
-195.404
-208.654
-219.505
-227.493
-232.26
-233.826
-232.366
-227.895
-220.716
-211.778
-201.225
-188.403
-173.733
-156.424
-136.939
-116.784
-96.7766
-80.6505
-64.6404
-39.4528
-6.5772
10.669
98.895
107.615
116.391
124.688
131.733
137.505
141.639
143.855
144.274
143.103
140.581
136.999
132.517
127.235
121.235
114.525
107.105
98.9928
90.2043
80.78
70.7913
60.3376
49.5451
38.624
27.9082
17.7507
8.41204
0.0613548
-7.13615
-12.9696
-17.1856
-19.5703
-20.2201
-19.1744
-16.1724
-11.2417
-4.19117
7.08881
19.6318
83.4098
73.1381
60.9485
47.317
33.1745
17.7637
1.57374
-15.0026
-32.0797
-49.4194
-66.9015
-84.5042
-102.069
-119.474
-136.549
-153.046
-168.66
-183.037
-195.752
-206.335
-214.344
-219.453
-221.635
-221.029
-217.626
-211.656
-203.906
-194.414
-182.559
-168.83
-152.567
-134.087
-114.758
-95.3794
-79.2673
-63.1689
-38.9049
-8.52436
8.11219
92.5458
100.806
109.148
117.075
123.847
129.445
133.529
135.819
136.426
135.551
133.416
130.294
126.342
121.652
116.299
110.285
103.601
96.2505
88.2338
79.5726
70.3194
60.5543
50.3844
40.0003
29.7203
19.8845
10.7461
2.48518
-4.7114
-10.6123
-14.9496
-17.4982
-18.3399
-17.5111
-14.7508
-10.0978
-3.39162
7.20156
18.7708
77.9504
68.2285
56.7061
43.8377
30.5297
16.0473
0.866141
-14.6377
-30.5764
-46.7297
-62.9933
-79.3645
-95.7055
-111.918
-127.854
-143.296
-157.975
-171.576
-183.713
-193.957
-201.889
-207.216
-209.874
-209.974
-207.493
-202.61
-195.961
-187.496
-176.608
-163.813
-148.575
-131.092
-112.627
-93.9352
-77.9145
-61.8453
-38.5098
-10.3509
5.90692
86.61
94.4454
102.387
109.967
116.475
121.899
125.916
128.253
129.01
128.38
126.573
123.848
120.356
116.183
111.401
106.008
99.9896
93.339
86.0442
78.1112
69.5744
60.4951
50.9594
41.1357
31.324
21.8495
12.955
4.82499
-2.33794
-8.28392
-12.7295
-15.4367
-16.4686
-15.8569
-13.3382
-8.96422
-2.60878
7.29473
17.9254
72.8414
63.6273
52.7195
40.5566
28.0133
14.3835
0.123525
-14.4014
-29.3039
-44.3735
-59.5199
-74.7528
-89.956
-105.049
-119.909
-134.343
-148.116
-160.945
-172.483
-182.339
-190.118
-195.56
-198.573
-199.24
-197.54
-193.612
-187.967
-180.482
-170.556
-158.69
-144.459
-127.969
-110.388
-92.4181
-76.5294
-60.5518
-38.1734
-11.9635
4.13994
81.0611
88.504
96.0728
103.326
109.58
114.832
118.771
121.131
122.004
121.578
120.049
117.666
114.574
110.855
106.579
101.74
96.3218
90.3104
83.6849
76.4382
68.5886
60.1793
51.2765
42.0267
32.7092
23.6311
15.0227
7.06699
-0.0244684
-5.9875
-10.5243
-13.3829
-14.6051
-14.2151
-11.944
-7.85556
-1.8566
7.36293
17.0993
68.0643
59.3212
48.9831
37.473
25.6368
12.792
-0.619844
-14.2491
-28.204
-42.2833
-56.4045
-70.5881
-84.7335
-98.7795
-112.625
-126.101
-139.001
-151.073
-162.003
-171.436
-179.007
-184.482
-187.747
-188.861
-187.808
-184.704
-179.955
-173.388
-164.403
-153.462
-140.232
-124.731
-108.032
-90.7997
-75.0704
-59.2015
-37.8113
-13.3398
2.69629
75.8745
82.9526
90.1732
97.1168
103.128
108.208
112.062
114.427
115.39
115.131
113.84
111.751
109.007
105.688
101.859
97.5162
92.6395
87.211
81.2029
74.5974
67.3996
59.6365
51.3555
42.6818
33.873
25.2185
16.9336
9.19476
2.21572
-3.73064
-8.3356
-11.3343
-12.7447
-12.5823
-10.5704
-6.78057
-1.1474
7.3977
16.2906
63.6
55.297
45.4904
34.588
23.4069
11.2902
-1.33807
-14.1417
-27.2261
-40.3975
-53.5799
-66.7973
-79.9646
-93.0344
-105.925
-118.492
-130.554
-141.887
-152.209
-161.202
-168.524
-173.966
-177.399
-178.859
-178.335
-175.927
-171.962
-166.234
-158.157
-148.131
-135.895
-121.38
-105.55
-89.0549
-73.5172
-57.7668
-37.3798
-14.5052
1.39758
71.027
77.7627
84.6561
91.3066
97.0845
101.996
105.758
108.114
109.144
109.024
107.935
106.1
103.66
100.692
97.2605
93.3606
88.9729
84.0759
78.6361
72.6274
66.0433
58.8973
51.2196
43.1143
34.8191
26.606
18.6743
11.1907
4.3652
-1.52712
-6.17115
-9.29196
-10.8838
-10.9529
-9.21394
-5.74131
-0.488602
7.39072
15.4929
59.4293
51.5404
42.2309
31.8964
21.3256
9.88599
-2.01388
-14.0532
-26.3326
-38.6687
-50.9875
-63.3171
-75.5802
-87.7427
-99.74
-111.448
-122.709
-133.327
-143.049
-151.588
-158.631
-163.988
-167.522
-169.243
-169.147
-167.321
-164.026
-159.051
-151.831
-142.7
-131.445
-117.909
-102.939
-87.1706
-71.8687
-56.2729
-36.8817
-15.4939
0.190799
66.4952
72.9088
79.4923
85.8635
91.4169
96.1623
99.828
102.164
103.244
103.239
102.322
100.707
98.5308
95.8724
92.793
89.2898
85.3432
80.9298
76.0124
70.558
64.5503
57.9897
50.8914
43.3407
35.5565
27.7935
20.2359
13.039
6.4047
0.604713
-4.04497
-7.26365
-9.02334
-9.32228
-7.86802
-4.73316
0.11924
7.33739
14.6976
55.5333
48.0345
39.1923
29.3903
19.3879
8.58113
-2.64005
-13.9678
-25.5013
-37.0634
-48.5859
-60.0959
-71.5245
-82.8459
-94.0097
-104.909
-115.411
-125.342
-134.475
-142.554
-149.297
-154.524
-158.102
-160.016
-160.261
-158.915
-156.188
-151.875
-145.449
-137.177
-126.876
-114.31
-100.198
-85.1493
-70.1432
-54.7742
-36.3522
-16.305
-0.862677
62.2577
68.3683
74.6573
80.7611
86.0981
90.6799
94.2461
96.5523
97.6679
97.7585
96.9878
95.5631
93.619
91.2329
88.4651
85.3158
81.7664
77.7924
73.3542
68.4138
62.946
56.9392
50.395
43.3816
36.0994
28.7873
21.6162
14.7287
8.31738
2.64566
-1.97498
-5.26266
-7.17015
-7.68963
-6.52614
-3.74756
0.682415
7.23956
13.8973
51.8942
44.7637
36.3618
27.06
17.5903
7.37485
-3.21204
-13.8763
-24.714
-35.5581
-46.3424
-57.0951
-67.7518
-78.294
-88.682
-98.8257
-108.61
-117.883
-126.444
-134.064
-140.489
-145.552
-149.125
-151.172
-151.686
-150.733
-148.482
-144.744
-139.042
-131.579
-122.192
-110.581
-97.3304
-83.007
-68.3724
-53.3223
-35.8171
-16.9177
-1.71463
58.296
64.1196
70.1289
75.9769
81.1039
85.524
88.9883
91.2578
92.3978
92.5674
91.9229
90.6636
88.9221
86.7753
84.2837
81.4499
78.2571
74.6813
70.6816
66.2162
61.2524
55.7684
49.7528
43.2572
36.4647
29.599
22.8188
16.2564
10.0921
4.57896
0.0204012
-3.30566
-5.33667
-6.05974
-5.18495
-2.77504
1.21179
7.10556
13.0894
48.4958
41.714
33.7277
24.8969
15.9273
6.26606
-3.7269
-13.7705
-23.9589
-34.1329
-44.2304
-54.2798
-64.2222
-74.0434
-83.7108
-93.149
-102.259
-110.907
-118.917
-126.083
-132.181
-137.051
-140.576
-142.703
-143.424
-142.791
-140.937
-137.694
-132.641
-125.927
-117.404
-106.726
-94.3437
-80.7637
-66.5849
-51.9374
-35.2635
-17.3207
-2.38421
54.5927
60.1443
65.8865
71.4883
76.4117
80.6725
84.0335
86.2611
87.4156
87.6504
87.115
86.0008
84.4378
82.5024
80.2553
77.7019
74.8281
71.6114
68.011
63.9827
59.4879
54.4955
48.9827
42.9857
36.6688
30.2424
23.8532
17.6238
11.7236
6.39328
1.92489
-1.41036
-3.53849
-4.44258
-3.8461
-1.80831
1.7203
6.94919
12.2774
45.3237
38.8725
31.2793
22.8931
14.3938
5.25298
-4.18316
-13.6458
-23.2263
-32.7735
-42.2303
-51.6248
-60.9031
-70.0553
-79.0542
-87.8354
-96.3139
-104.373
-111.856
-118.58
-124.344
-129.001
-132.441
-134.604
-135.476
-135.1
-133.575
-130.755
-126.278
-120.25
-112.533
-102.756
-91.2465
-78.4353
-64.7878
-50.5985
-34.6567
-17.5305
-2.97197
51.1316
56.4241
61.9107
67.2751
72.0009
76.1052
79.3614
81.5428
82.7039
82.993
82.5525
81.5661
80.1612
78.413
76.3828
74.0788
71.4898
68.5958
65.3573
61.7291
57.6684
53.1365
48.1003
42.581
36.7261
30.7302
24.7291
18.8366
13.2114
8.08133
3.72601
0.407358
-1.79222
-2.85201
-2.51664
-0.844297
2.21987
6.7873
11.4712
42.3642
36.2263
29.0061
21.0402
12.9843
4.33334
-4.57994
-13.4978
-22.5087
-31.4687
-40.3262
-49.1092
-57.7694
-66.2988
-74.6769
-82.8468
-90.7358
-98.2413
-105.223
-111.52
-116.951
-121.38
-124.707
-126.865
-127.84
-127.665
-126.41
-123.952
-119.983
-114.574
-107.602
-98.6883
-88.0479
-76.0253
-62.9684
-49.2629
-33.9748
-17.6042
-3.60606
47.8965
52.9421
58.1836
63.3193
67.8527
71.8032
74.954
77.0848
78.246
78.5801
78.2227
77.35
76.0859
74.5048
72.6678
70.5858
68.2511
65.646
62.7337
59.4693
55.8077
51.7048
47.1181
42.056
36.6479
31.0727
25.4553
19.9011
14.5579
9.64051
5.41544
2.13463
-0.113401
-1.30384
-1.20769
0.114917
2.71931
6.63682
10.6859
39.603
33.7633
26.8963
19.3292
11.6919
3.50282
-4.91826
-13.3252
-21.8016
-30.2115
-38.5073
-46.7187
-54.8007
-62.7504
-70.5498
-78.1505
-85.4895
-92.4757
-98.9844
-104.87
-109.974
-114.166
-117.36
-119.479
-120.515
-120.492
-119.457
-117.305
-113.781
-108.93
-102.639
-94.5408
-84.7564
-73.5306
-61.1024
-47.9007
-33.2349
-17.6434
-4.34594
44.8726
49.6824
54.6889
59.6032
63.9498
67.7492
70.7941
72.8712
74.0268
74.398
74.1138
73.3428
72.2054
70.7742
69.1101
67.2262
65.1179
62.771
60.1514
57.2159
53.9187
50.2125
46.0475
41.4199
36.4421
31.2774
26.0388
20.8225
15.7659
11.0705
6.98897
3.7623
1.48525
0.186803
0.0672998
1.06283
3.22256
6.51266
9.93951
37.0268
31.4706
24.9395
17.7507
10.5095
2.75632
-5.20092
-13.1272
-21.1019
-28.996
-36.7649
-44.4405
-51.9823
-59.3895
-66.6496
-73.7202
-80.5458
-87.0456
-93.1083
-98.6026
-103.387
-107.34
-110.382
-112.439
-113.5
-113.587
-112.727
-110.832
-107.697
-103.341
-97.668
-90.3343
-81.3789
-70.9465
-59.1741
-46.5078
-32.4834
-17.7398
-5.15627
42.0459
46.63
51.4104
56.1109
60.2762
63.9274
66.8667
68.8873
70.0324
70.4338
70.2142
69.5346
68.5117
67.2162
65.7074
64.0012
62.0953
59.9788
57.6211
54.9814
52.0151
48.6726
44.8996
40.6821
36.1164
31.3499
26.484
21.6048
16.8382
12.3718
8.444
5.285
2.99453
1.607
1.29466
1.9897
3.72899
6.42475
9.24973
34.6233
29.3368
23.1253
16.2959
9.42995
2.08942
-5.43034
-12.904
-20.4071
-27.8166
-35.0919
-42.2651
-49.3007
-56.201
-62.9571
-69.5325
-75.8787
-81.923
-87.566
-92.6889
-97.1639
-100.878
-103.759
-105.733
-106.792
-106.952
-106.229
-104.549
-101.749
-97.8325
-92.7149
-86.0884
-77.9257
-68.272
-57.1807
-45.0972
-31.7663
-17.9051
-5.93989
39.403
43.7707
48.3341
52.8285
56.8177
60.3237
63.158
65.1201
66.2506
66.6761
66.5135
65.9167
64.9975
63.8253
62.4574
60.9112
59.187
57.2762
55.1523
52.7777
50.1095
47.0982
43.6867
39.853
35.6788
31.2963
26.795
22.2501
17.7758
13.5447
9.77965
6.69921
4.40824
2.94702
2.46249
2.88457
4.23355
6.37784
8.6314
32.3803
27.3513
21.4441
14.9569
8.44695
1.49694
-5.60945
-12.6566
-19.7161
-26.6707
-33.4826
-40.1848
-46.7462
-53.1716
-59.4562
-65.5686
-71.4665
-77.0843
-82.3322
-87.1028
-91.2806
-94.7595
-97.4737
-99.3509
-100.385
-100.59
-99.9717
-98.4706
-95.9576
-92.4255
-87.8034
-81.8238
-74.4098
-65.516
-55.1282
-43.6792
-31.0885
-18.0789
-6.59876
36.9312
41.0921
45.4467
49.7424
53.5608
56.925
59.6551
61.5577
62.6701
63.1144
63.0021
62.4798
61.6556
60.5958
59.3562
57.9549
56.3943
54.6681
52.7531
50.6155
48.2149
45.5032
42.4223
38.9443
35.1387
31.1231
26.9753
22.7602
18.579
14.5883
10.9941
8.00267
5.72261
4.20061
3.56176
3.73727
4.72909
6.37128
8.09427
30.2872
25.5039
19.8874
13.7262
7.55428
0.974387
-5.74119
-12.3862
-19.0282
-25.5551
-31.9324
-38.1927
-44.3096
-50.29
-56.1333
-61.8124
-67.2902
-72.5081
-77.3844
-81.8215
-85.714
-88.963
-91.5074
-93.2786
-94.2718
-94.4995
-93.9604
-92.607
-90.339
-87.1417
-82.9575
-77.5638
-70.8492
-62.6921
-53.0255
-42.249
-30.4121
-18.1724
-7.08072
34.6191
38.5819
42.7361
46.8397
50.493
53.719
56.3464
58.1884
59.2797
59.7383
59.6703
59.2159
58.4782
57.5211
56.3989
55.1299
53.7173
52.1573
50.4295
48.5036
46.3425
43.9004
41.1198
37.969
34.5068
30.8382
27.0301
23.1371
19.2474
15.5008
12.0854
9.19306
6.93479
5.36376
4.58646
4.53952
5.2078
6.40049
7.64203
28.3336
23.7854
18.4466
12.5965
6.74605
0.517262
-5.82852
-12.0937
-18.3422
-24.4671
-30.4367
-36.283
-41.9832
-47.5471
-52.9765
-58.2496
-63.3335
-68.1761
-72.7027
-76.8239
-80.4435
-83.4686
-85.8431
-87.5029
-88.4435
-88.677
-88.1977
-86.9669
-84.9082
-82.0011
-78.2013
-73.3322
-67.2655
-59.8174
-50.8778
-40.7891
-29.6821
-18.1151
-7.36987
32.456
36.2291
40.1906
44.1092
47.6026
50.6942
53.2206
55.0014
56.0696
56.5385
56.5094
56.1159
55.4572
54.5947
53.58
52.4319
51.1541
49.7442
48.1848
46.4485
44.5017
42.3013
39.7919
36.9397
33.7948
30.4509
26.9658
23.3841
19.7814
16.2805
13.0503
10.2671
8.04199
6.43361
5.53298
5.28564
5.66273
6.45845
7.2727
26.5101
22.1869
17.1139
11.561
6.01659
0.120968
-5.87448
-11.7811
-17.6586
-23.4057
-28.9925
-34.4507
-39.7606
-44.9341
-49.976
-54.8682
-59.5827
-64.0727
-68.2696
-72.0919
-75.4504
-78.2586
-80.4642
-82.0089
-82.889
-83.1163
-82.6824
-81.5556
-79.6766
-77.0218
-73.5579
-69.1549
-63.6816
-56.9095
-48.6878
-39.2827
-28.858
-17.8816
-7.48034
30.4319
34.0234
37.7997
41.5399
44.8787
47.8398
50.267
51.9868
53.0299
53.5055
53.5104
53.172
52.5853
51.8093
50.8936
49.8561
48.7014
47.4282
46.0207
44.4547
42.6997
40.7158
38.4503
35.869
33.0151
29.9726
26.791
23.5066
20.1829
16.9263
13.8858
11.2215
9.04108
7.40756
6.39929
5.97232
6.08866
6.53743
6.97987
24.8084
20.7004
15.882
10.6131
5.36031
-0.218565
-5.88224
-11.45
-16.9782
-22.3699
-27.5977
-32.6924
-37.6369
-42.4447
-47.123
-51.6579
-56.0254
-60.1835
-64.0699
-67.6091
-70.7186
-73.3174
-75.3567
-76.7844
-77.5976
-77.8097
-77.4109
-76.3742
-74.6521
-72.2179
-69.0484
-65.0564
-60.121
-53.9853
-46.4595
-37.7209
-27.9342
-17.494
-7.46415
28.5378
31.9549
35.5532
39.1216
42.311
45.1456
47.476
49.1351
50.1517
50.6308
50.6655
50.3764
49.8553
49.1586
48.3334
47.3975
46.3556
45.2068
43.9371
42.5246
40.9417
39.1519
37.1056
34.7689
32.1801
29.4148
26.5158
23.5121
20.4564
17.4391
14.5905
12.0528
9.92872
8.28289
7.18373
6.59768
6.48209
6.63003
6.75422
23.2202
19.3185
14.744
9.74689
4.77218
-0.505352
-5.85415
-11.1016
-16.3008
-21.3587
-26.2499
-31.0042
-35.6067
-40.0723
-44.41
-48.6095
-52.6507
-56.4965
-60.0899
-63.3612
-66.2335
-68.6307
-70.5073
-71.8171
-72.5595
-72.7497
-72.3779
-71.4205
-69.838
-67.6001
-64.6903
-61.0591
-56.6059
-51.0613
-44.2004
-36.108
-26.9328
-17.0041
-7.3974
26.7651
30.0149
33.4419
36.8447
39.89
42.6021
44.8379
46.437
47.426
47.9063
47.9667
47.7219
47.2601
46.6355
45.8933
45.0504
44.1118
43.0767
41.9324
40.6589
39.2311
37.6155
35.766
33.6502
31.3017
28.7898
26.1518
23.4102
20.6083
17.8225
15.1644
12.759
10.7019
9.05689
7.88447
7.16016
6.8405
6.7296
6.58514
21.7378
18.0339
13.6932
8.95632
4.24718
-0.743402
-5.79335
-10.738
-15.6268
-20.3711
-24.9467
-29.3826
-33.6654
-37.8108
-41.8296
-45.7146
-49.4492
-53.0008
-56.3176
-59.3355
-61.9821
-64.186
-65.9044
-67.097
-67.766
-67.9288
-67.5773
-66.6906
-65.2343
-63.1742
-60.4963
-57.1819
-53.156
-48.1536
-41.9209
-34.4562
-25.8856
-16.4697
-7.34285
25.1055
28.1947
31.4569
34.6999
37.6064
40.1999
42.3439
43.8837
44.8445
45.3236
45.4061
45.201
44.793
44.2341
43.5674
42.8095
41.9652
41.034
40.0042
38.857
37.5694
36.111
34.4385
32.5216
30.3906
28.1093
25.7104
23.2115
20.6475
18.0821
15.6101
13.34
11.3587
9.72731
8.49941
7.65801
7.16161
6.8301
6.46166
20.3539
16.8397
12.7233
8.23575
3.78031
-0.936604
-5.70254
-10.3603
-14.9563
-19.4059
-23.6862
-27.8245
-31.8087
-35.655
-39.3755
-42.9654
-46.4121
-49.6867
-52.7425
-55.5202
-57.9525
-59.9719
-61.5378
-62.6151
-63.2091
-63.3406
-63.0033
-62.1795
-60.8385
-58.9418
-56.4742
-53.4393
-49.7893
-45.2775
-39.6334
-32.7795
-24.8169
-15.9322
-7.31539
23.5512
26.4862
29.5893
32.6786
35.4512
37.9304
39.9851
41.4669
42.3988
42.8749
42.976
42.8064
42.4469
41.9476
41.3496
40.6692
39.9109
39.0746
38.149
37.1169
35.9569
34.6404
33.1278
31.3903
29.4559
27.3838
25.203
22.927
20.5838
18.2259
15.933
13.7982
11.8991
10.293
9.02669
8.08936
7.44311
6.92597
6.37318
19.0613
15.7289
11.828
7.57936
3.36645
-1.08912
-5.5848
-9.97066
-14.2903
-18.4629
-22.4663
-26.3264
-30.032
-33.5995
-37.0414
-40.3553
-43.5316
-46.5454
-49.3549
-51.9055
-54.1344
-55.9782
-57.3979
-58.3631
-58.8824
-58.9794
-58.6505
-57.8822
-56.6465
-54.9017
-52.6276
-49.8414
-46.5202
-42.4475
-37.3489
-31.0868
-23.735
-15.4063
-7.29147
22.0948
24.8812
27.8315
30.7725
33.4164
35.7852
37.7534
39.178
40.081
40.5523
40.6692
40.5311
40.2152
39.7698
39.2341
38.624
37.9439
37.1939
36.3636
35.4364
34.3924
33.2051
31.8373
30.2621
28.5056
26.6228
24.6401
22.5678
20.4278
18.2632
16.1403
14.1382
12.3255
10.7543
9.46535
8.45257
7.68244
7.01174
6.30955
17.8528
14.6951
11.001
6.98145
3.00065
-1.20545
-5.44356
-9.57142
-13.6298
-17.5416
-21.2853
-24.8854
-28.3313
-31.6388
-34.821
-37.8771
-40.8001
-43.5689
-46.1461
-48.4821
-50.5183
-52.1954
-53.4761
-54.3337
-54.7796
-54.8399
-54.5145
-53.7939
-52.6539
-51.0505
-48.957
-46.3941
-43.3607
-39.6763
-35.077
-29.382
-22.635
-14.8817
-7.24432
20.7288
23.3726
26.1759
28.9744
31.4944
33.7567
35.6409
37.0096
37.8834
38.3484
38.4785
38.3682
38.0914
37.6947
37.2154
36.6688
36.0596
35.388
34.6442
33.8128
32.8747
31.805
30.569
29.1411
27.5457
25.8343
24.0313
22.1442
20.1902
18.2041
16.2409
14.3671
12.6423
11.1136
9.81599
8.74664
7.87709
7.08198
6.26123
16.722
13.7321
10.2365
6.43653
2.67769
-1.29004
-5.28262
-9.16537
-12.9763
-16.6422
-20.1422
-23.4991
-26.7028
-29.7683
-32.7086
-35.5243
-38.2106
-40.7495
-43.1082
-45.2416
-47.0957
-48.6151
-49.7642
-50.5196
-50.8949
-50.9177
-50.5912
-49.9104
-48.8563
-47.384
-45.4597
-43.1008
-40.3201
-36.9761
-32.8271
-27.6664
-21.5059
-14.3341
-7.1616
19.4467
21.9535
24.6158
27.2775
29.6783
31.8376
33.6403
34.9543
35.7988
36.2561
36.397
36.3111
36.0695
35.7166
35.2881
34.7988
34.2536
33.653
32.9879
32.2436
31.4022
30.4399
29.324
28.0304
26.5814
25.0254
23.3848
21.6656
19.881
18.0589
16.2445
14.4931
12.8564
11.3758
10.0811
8.97191
8.02508
7.13167
6.21923
15.6626
12.8338
9.52888
5.93937
2.39285
-1.34725
-5.10572
-8.75533
-12.3319
-15.7655
-19.0364
-22.1655
-25.1432
-27.9833
-30.6988
-33.2908
-35.7561
-38.08
-40.2336
-42.1763
-43.8588
-45.2293
-46.2548
-46.9141
-47.2224
-47.2081
-46.8769
-46.2285
-45.2497
-43.8978
-42.1323
-39.9617
-37.4057
-34.3589
-30.6098
-25.9428
-20.3387
-13.739
-7.03757
18.2421
20.6179
23.1451
25.6757
27.9619
30.0218
31.7451
33.0053
33.8204
34.2689
34.4182
34.3537
34.1434
33.8299
33.4472
33.0096
32.5223
31.9858
31.3918
30.7267
29.9734
29.1093
28.1033
26.9323
25.6167
24.2017
22.7081
21.1407
19.5097
17.8375
16.1608
14.5256
12.9756
11.5469
10.2648
9.13036
8.12562
7.15662
6.17555
14.6693
11.9952
8.87321
5.48513
2.14161
-1.38124
-4.91668
-8.34451
-11.6985
-14.9124
-17.9675
-20.8831
-23.6496
-26.2801
-28.7865
-31.1705
-33.4304
-35.5536
-37.5152
-39.279
-40.7999
-42.0308
-42.9405
-43.5105
-43.7563
-43.7062
-43.368
-42.7453
-41.8313
-40.588
-38.9705
-36.9757
-34.6225
-31.836
-28.4386
-24.2192
-19.1322
-13.0819
-6.8612
17.1097
19.3604
21.7587
24.164
26.3399
28.3035
29.9495
31.1567
31.9422
32.3806
32.5362
32.4901
32.3077
32.0295
31.6881
31.2972
30.862
30.3835
29.8539
29.2607
28.5875
27.813
26.9076
25.8488
24.6551
23.3682
22.0076
20.5773
19.0852
17.5493
15.9997
14.4739
13.0086
11.6346
10.373
9.22559
8.17948
7.15412
6.12376
13.7376
11.2117
8.26493
5.06957
1.91973
-1.39584
-4.71874
-7.93559
-11.0784
-14.0845
-16.9362
-19.6512
-22.2204
-24.6554
-26.9675
-29.1584
-31.2272
-33.1637
-34.9461
-36.5425
-37.9123
-39.0126
-39.8146
-40.3021
-40.4906
-40.4075
-40.061
-39.4583
-38.599
-37.4517
-35.9703
-34.1399
-31.9731
-29.4176
-26.3284
-22.5097
-17.8963
-12.3637
-6.62117
16.0453
18.177
20.4526
22.7381
24.8078
26.6781
28.2485
29.4035
30.1589
30.586
30.7456
30.7153
30.5574
30.311
30.0067
29.6579
29.2699
28.8437
28.3723
27.8442
27.2438
26.5511
25.7377
24.7817
23.6994
22.5291
21.2889
19.9822
18.6155
17.2033
15.7704
14.3472
12.9641
11.6467
10.4122
9.26245
8.18902
7.1233
6.05934
12.8642
10.4798
7.70042
4.68904
1.72384
-1.3942
-4.51493
-7.5313
-10.4737
-13.2832
-15.9428
-18.4693
-20.8537
-23.1066
-25.238
-27.2497
-29.1414
-30.9043
-32.52
-33.9604
-35.1893
-36.1679
-36.8702
-37.2821
-37.4191
-37.3067
-36.9524
-36.3653
-35.5512
-34.4869
-33.1286