/*--------------------------------*- C++ -*----------------------------------*\
| =========                 |                                                 |
| \\      /  F ield         | OpenFOAM: The Open Source CFD Toolbox           |
|  \\    /   O peration     | Version:  2312                                  |
|   \\  /    A nd           | Website:  www.openfoam.com                      |
|    \\/     M anipulation  |                                                 |
\*---------------------------------------------------------------------------*/
FoamFile
{
    version     2.0;
    format      ascii;
    arch        "LSB;label=32;scalar=64";
    class       surfaceScalarField;
    location    "50";
    object      phi;
}
// * * * * * * * * * * * * * * * * * * * * * * * * * * * * * * * * * * * * * //

dimensions      [0 3 -1 0 0 0 0];

oriented        oriented;

internalField   nonuniform List<scalar> 
21254
(
-0.15328
0.174052
-0.0207663
0.196887
-0.0228213
0.217959
-0.0210535
0.237465
-0.0195148
0.25626
-0.0188064
0.272473
-0.016219
0.286292
-0.013826
0.298263
-0.0119794
0.307549
-0.00929481
0.31492
-0.00737957
0.320532
-0.00561758
0.324244
-0.00370988
0.326484
-0.00223043
0.327134
-0.000630683
0.325619
0.00154633
0.321744
0.00392021
0.315118
0.00668363
0.305803
0.00938135
0.29393
0.0119483
0.280104
0.0139204
0.264447
0.0157718
0.248388
0.0161602
0.233374
0.0150582
0.22435
0.00899049
0.224026
0.000272004
0.233166
-0.00903182
0.24402
-0.0105719
0.246251
-0.00206646
0.241079
0.0048387
0.228675
0.0118616
0.206196
0.0233953
0.167182
0.0400081
0.106821
0.0586238
0.037692
0.0675271
0.000444185
0.039213
0.00406259
-0.000650472
0.0339871
-0.0300988
0.0926204
-0.0644665
0.129529
-0.0345279
-0.130209
-0.0230456
-0.105924
-0.0242524
-0.077475
-0.0284452
-0.04727
-0.0301992
-0.0162139
-0.0310438
0.0149616
-0.0311353
0.0456577
-0.0306491
0.0738964
-0.0282184
0.0990223
-0.0251138
0.120411
-0.0213747
0.137981
-0.0175486
0.152326
-0.0143182
0.163996
-0.0116412
0.17343
-0.00940894
0.1814
-0.00794433
0.188147
-0.00671713
0.194135
-0.00595421
0.199541
-0.00536817
0.204644
-0.00506299
0.209518
-0.0048393
0.214308
-0.00476508
0.21897
-0.00465225
0.223424
-0.0044559
0.226924
-0.00350378
0.22922
-0.00229754
0.230642
-0.00141975
0.231083
-0.00043393
0.230264
0.000838216
0.22777
0.00253239
0.223473
0.00434644
0.217342
0.0061378
0.209526
0.00767815
0.199651
0.00962647
0.187325
0.0124543
0.17271
0.0149313
0.153963
0.0182664
0.132571
0.0213994
0.137361
-0.0047014
0.164319
-0.0264524
-0.140171
0.161205
-0.0418061
0.182962
-0.0445229
0.20597
-0.0440418
0.227725
-0.0412265
0.249164
-0.0402052
0.269449
-0.0364762
0.288071
-0.0324386
0.305242
-0.0291647
0.320611
-0.0246976
0.334203
-0.0210188
0.34606
-0.0175319
0.356237
-0.0139446
0.364836
-0.0108821
0.37216
-0.00799597
0.37868
-0.00500645
0.384486
-0.00191577
0.389414
0.00170946
0.393166
0.00555016
0.394589
0.0104045
0.393235
0.0151083
0.388228
0.020573
0.379121
0.0250628
0.365999
0.0280863
0.34905
0.0261042
0.330743
0.0189792
0.309151
0.0127781
0.286814
0.0114866
0.272889
0.0114692
0.26435
0.0137756
0.256514
0.020049
0.249066
0.0304508
0.239247
0.0497971
0.214039
0.0841836
0.153191
0.130131
0.0416071
0.14882
0.00790054
0.0318649
0.0776251
-0.100479
0.120969
-0.109365
0.132766
-0.0471975
-0.118828
-0.044353
-0.0959686
-0.0470984
-0.0692346
-0.0551437
-0.0410537
-0.0583199
-0.0112134
-0.060825
0.0197793
-0.0621013
0.0495274
-0.0603767
0.0767642
-0.055433
0.101215
-0.0495321
0.122779
-0.0428905
0.141297
-0.036008
0.157126
-0.0300854
0.170659
-0.0251101
0.182125
-0.0208066
0.192043
-0.0177855
0.200708
-0.0152961
0.208407
-0.0135628
0.21545
-0.0123276
0.222064
-0.0116125
0.228329
-0.0110631
0.234413
-0.0108263
0.240365
-0.0105917
0.246047
-0.0101385
0.250931
-0.00839992
0.254767
-0.00614353
0.257796
-0.00444789
0.260116
-0.00274269
0.26216
-0.00119603
0.264195
0.000463137
0.266146
0.00222534
0.267857
0.00412941
0.269447
0.00603366
0.270607
0.00851171
0.270744
0.0119792
0.269938
0.0159898
0.26606
0.0220819
0.261616
0.0258586
0.238659
0.0179341
0.209251
0.00316655
-0.136316
0.158012
-0.0634738
0.180118
-0.0666134
0.204112
-0.0680529
0.226313
-0.0634305
0.24778
-0.0616759
0.268562
-0.0572665
0.287404
-0.051296
0.304645
-0.0464269
0.319872
-0.0399468
0.333233
-0.0343993
0.344742
-0.029054
0.354514
-0.0237204
0.362386
-0.0187447
0.368671
-0.0142566
0.373048
-0.00934601
0.375998
-0.00482097
0.377436
0.000318219
0.378087
0.00494533
0.378153
0.0103814
0.377944
0.0153373
0.377512
0.0209898
0.376606
0.0259281
0.374533
0.0300992
0.369807
0.0308057
0.36259
0.0263123
0.352072
0.0234238
0.334991
0.0284952
0.314144
0.0321024
0.295417
0.0325763
0.278992
0.0364198
0.265311
0.0440994
0.256131
0.059168
0.247689
0.0923064
0.219554
0.158526
0.170082
0.197785
0.142405
0.0594918
0.148517
-0.107071
0.148455
-0.109437
0.131678
-0.0310244
-0.114602
-0.0660153
-0.0912545
-0.070448
-0.063507
-0.0828579
-0.034893
-0.0868869
-0.00516133
-0.090513
0.0254424
-0.0926728
0.0550454
-0.0899634
0.0822786
-0.0826478
0.106875
-0.0740993
0.128729
-0.0647052
0.147657
-0.0548928
0.163888
-0.0462734
0.177817
-0.038998
0.189767
-0.0327117
0.200081
-0.02805
0.209143
-0.0243027
0.217221
-0.0215838
0.224584
-0.0196399
0.231439
-0.0184286
0.237933
-0.0175352
0.244242
-0.0171285
0.250353
-0.0167049
0.256156
-0.0159404
0.261325
-0.0135699
0.265538
-0.0103653
0.268917
-0.00783789
0.271539
-0.00536411
0.273446
-0.0030897
0.274728
-0.000829972
0.275371
0.0014599
0.275494
0.00377088
0.275443
0.00603733
0.2753
0.00865421
0.274887
0.0121573
0.275103
0.016014
0.274811
0.0221543
0.275196
0.0254365
0.261239
0.0315956
0.237566
0.0269972
-0.132165
0.154559
-0.0858237
0.177248
-0.089254
0.202331
-0.0930824
0.225352
-0.0864076
0.247896
-0.0841851
0.269732
-0.0790798
0.289928
-0.071484
0.308421
-0.0649229
0.325334
-0.0568715
0.340439
-0.0495209
0.353857
-0.0424885
0.365575
-0.0354513
0.375609
-0.0287835
0.383972
-0.0226124
0.39092
-0.0162755
0.396232
-0.0101081
0.400059
-0.00348892
0.40204
0.00297682
0.402322
0.0101072
0.400712
0.016946
0.397381
0.0242977
0.392775
0.0304917
0.387273
0.035562
0.381185
0.0369335
0.374221
0.0334764
0.366808
0.0310365
0.35881
0.036283
0.348373
0.0422093
0.335766
0.0454083
0.320484
0.0516631
0.3027
0.0620758
0.284989
0.0772595
0.270678
0.106191
0.255979
0.173315
0.232859
0.220562
0.206355
0.0858467
0.190228
-0.0917426
0.167391
-0.0865941
0.131363
0.00414076
-0.110015
-0.0881296
-0.0864495
-0.0939782
-0.0579367
-0.111335
-0.0288581
-0.115939
0.00122133
-0.120579
0.0321359
-0.123576
0.0620339
-0.119849
0.0893376
-0.10993
0.113885
-0.0986138
0.135769
-0.0865486
0.154787
-0.0738677
0.171252
-0.0626945
0.185583
-0.0532834
0.198056
-0.0451345
0.209038
-0.0389739
0.218746
-0.0339472
0.227524
-0.0302966
0.235536
-0.0275908
0.243022
-0.0258634
0.250107
-0.0245825
0.256897
-0.0238942
0.26345
-0.0232521
0.269686
-0.0221816
0.275244
-0.0191343
0.279878
-0.0149998
0.283671
-0.01162
0.286674
-0.00833262
0.288935
-0.00528924
0.290474
-0.00231819
0.291265
0.000612097
0.29132
0.00353976
0.290941
0.00644231
0.290049
0.00962532
0.288412
0.0136061
0.286775
0.0179759
0.284185
0.0246039
0.28142
0.0282431
0.27081
0.0421136
0.254789
0.0433208
-0.130102
0.153361
-0.109075
0.176973
-0.112814
0.203409
-0.119486
0.227186
-0.110163
0.250643
-0.107628
0.273436
-0.101869
0.294381
-0.0924331
0.313665
-0.0842184
0.331487
-0.074711
0.347275
-0.0653287
0.361373
-0.0566055
0.373711
-0.0478036
0.384507
-0.0395832
0.393469
-0.0315648
0.400717
-0.0235012
0.406264
-0.0156249
0.41015
-0.00734605
0.412441
0.000709277
0.412968
0.00959757
0.411984
0.017931
0.409356
0.0268964
0.405192
0.0345923
0.399639
0.0410361
0.392952
0.0436184
0.385313
0.0413
0.377012
0.039562
0.368869
0.0441221
0.360724
0.0498907
0.352689
0.0538871
0.34339
0.0610684
0.331993
0.0735631
0.317623
0.091996
0.300396
0.122934
0.28478
0.188977
0.268041
0.23693
0.244187
0.109537
0.220213
-0.0685758
0.184323
-0.0501621
0.13137
0.0558236
-0.106934
-0.111251
-0.0826427
-0.118221
-0.0529235
-0.141021
-0.0229705
-0.145872
0.00784801
-0.151385
0.0394762
-0.155189
0.0700263
-0.150379
0.0977
-0.137577
0.122458
-0.123339
0.14453
-0.108585
0.163669
-0.0929701
0.180306
-0.0792956
0.194911
-0.0678499
0.207711
-0.0578911
0.219066
-0.0502806
0.229257
-0.0440873
0.238471
-0.0394608
0.246904
-0.0359812
0.25477
-0.0336976
0.26221
-0.0320058
0.269311
-0.030995
0.276111
-0.0300679
0.282561
-0.0286623
0.288365
-0.0249783
0.293258
-0.0199329
0.297292
-0.0156834
0.30051
-0.011553
0.302963
-0.00771661
0.304654
-0.00399699
0.305532
-0.000372857
0.305644
0.00318749
0.305348
0.00669737
0.304532
0.0104451
0.30287
0.0149743
0.301084
0.0199963
0.298093
0.0273489
0.293975
0.0323166
0.283521
0.052405
0.269598
0.0575444
-0.128646
0.152917
-0.133328
0.177715
-0.137557
0.205447
-0.147198
0.230278
-0.134977
0.254628
-0.131969
0.278557
-0.125796
0.30028
-0.114161
0.320557
-0.104511
0.339128
-0.093305
0.355844
-0.0820726
0.370945
-0.071738
0.384269
-0.0611574
0.395992
-0.0513297
0.406098
-0.0416821
0.414453
-0.0318562
0.42131
-0.0224787
0.426354
-0.012393
0.429661
-0.00261091
0.431307
0.00793414
0.431065
0.018141
0.428944
0.0289591
0.425108
0.0383431
0.419617
0.0464405
0.412754
0.0504951
0.404839
0.0494496
0.396064
0.0486102
0.38673
0.0531143
0.377061
0.0590135
0.367838
0.0636148
0.3582
0.0708279
0.348604
0.083237
0.338927
0.10204
0.326156
0.135145
0.311866
0.203272
0.29671
0.251699
0.275778
0.130456
0.248592
-0.0420196
0.204947
-0.00525351
0.133163
0.12586
-0.104484
-0.135345
-0.079343
-0.143326
-0.0482842
-0.172058
-0.0171717
-0.176972
0.0147105
-0.183255
0.0473852
-0.187848
0.078844
-0.181817
0.107112
-0.165819
0.132236
-0.148434
0.154534
-0.130852
0.173822
-0.112225
0.190546
-0.0959841
0.20529
-0.0825516
0.218332
-0.0708843
0.229986
-0.0618785
0.240524
-0.0545649
0.250121
-0.0489968
0.259002
-0.0448074
0.267295
-0.0419473
0.275148
-0.0398283
0.282657
-0.0384885
0.289837
-0.0372477
0.296626
-0.0354652
0.302836
-0.0312104
0.308125
-0.0252435
0.312501
-0.0200684
0.316069
-0.0151003
0.318819
-0.0104135
0.320776
-0.00591
0.32188
-0.00155311
0.32216
0.00269086
0.321956
0.00689733
0.321161
0.011293
0.319485
0.016377
0.317593
0.0221724
0.314431
0.0303245
0.309985
0.0368115
0.299616
0.0626446
0.284369
0.0730306
-0.127958
0.153526
-0.158858
0.179381
-0.16337
0.208621
-0.176416
0.234641
-0.160974
0.260139
-0.157448
0.285067
-0.150709
0.3078
-0.136888
0.32881
-0.125525
0.348242
-0.112748
0.365711
-0.0995609
0.381469
-0.0875175
0.395623
-0.0753334
0.408067
-0.0637875
0.418861
-0.0524781
0.428034
-0.0410203
0.435422
-0.0298526
0.441149
-0.0181128
0.445075
-0.00654001
0.447239
0.00576247
0.447566
0.0177969
0.446085
0.0304039
0.442836
0.0415366
0.438047
0.0511782
0.431783
0.0568082
0.424382
0.0571222
0.415995
0.0573114
0.406712
0.0620688
0.396717
0.0684468
0.386771
0.074078
0.375799
0.0819286
0.364556
0.0945819
0.354763
0.112256
0.345201
0.144129
0.335632
0.21286
0.324787
0.262205
0.307209
0.148129
0.277554
-0.0129606
0.237678
0.037467
0.162034
0.201113
-0.102621
-0.160622
-0.0764121
-0.169521
-0.0438888
-0.204574
-0.011442
-0.209414
0.0217195
-0.216406
0.055716
-0.221828
0.0882895
-0.21437
0.11738
-0.194887
0.143054
-0.174081
0.165721
-0.153492
0.18522
-0.131693
0.202071
-0.1128
0.216941
-0.0973801
0.230141
-0.0840347
0.242
-0.0736827
0.252796
-0.0653021
0.262737
-0.0588815
0.271965
-0.0539865
0.280633
-0.0505763
0.288844
-0.0480137
0.296684
-0.0463171
0.304167
-0.0447308
0.311269
-0.0425804
0.317737
-0.0376976
0.323357
-0.0308819
0.32806
-0.024776
0.331885
-0.0189015
0.334889
-0.0133599
0.337041
-0.0080151
0.338312
-0.00290193
0.338691
0.00208466
0.338579
0.00699786
0.337865
0.0120523
0.336164
0.0177664
0.33429
0.0242949
0.331017
0.033383
0.326471
0.041389
0.316362
0.0725016
0.299037
0.0904383
-0.127762
0.15465
-0.185707
0.181863
-0.190558
0.212731
-0.207257
0.239918
-0.188132
0.266623
-0.184124
0.292701
-0.176763
0.31635
-0.160519
0.338392
-0.14756
0.358521
-0.132878
0.376751
-0.117799
0.393347
-0.104128
0.408182
-0.0901821
0.421321
-0.0769341
0.432877
-0.0640304
0.442785
-0.0509111
0.450994
-0.0380385
0.4575
-0.0246039
0.462238
-0.0112743
0.465112
0.00288709
0.466108
0.0167937
0.465249
0.0312411
0.462508
0.0442415
0.45805
0.0556055
0.452142
0.062787
0.445021
0.0645352
0.436845
0.0658146
0.427618
0.0709544
0.417606
0.0778633
0.407556
0.0846233
0.396232
0.0933711
0.383917
0.106989
0.372229
0.124385
0.36209
0.153689
0.355478
0.219537
0.349193
0.26822
0.335304
0.162161
0.303409
0.0183717
0.255244
0.0895093
0.176745
0.281278
-0.101217
-0.187143
-0.0738495
-0.196893
-0.0396302
-0.238795
-0.00564491
-0.243395
0.029001
-0.251039
0.0644669
-0.257276
0.098364
-0.248246
0.128434
-0.224933
0.15481
-0.200432
0.177982
-0.176636
0.19776
-0.15144
0.214764
-0.129771
0.229745
-0.112322
0.243054
-0.0972988
0.255036
-0.085616
0.266063
-0.0762773
0.276239
-0.0690091
0.285767
-0.0634727
0.294752
-0.0595294
0.303306
-0.0565474
0.311471
-0.0544712
0.319305
-0.0525636
0.32674
-0.0500223
0.333577
-0.0445468
0.339557
-0.0368741
0.344614
-0.0298333
0.34878
-0.0230407
0.352091
-0.0166127
0.354507
-0.0103832
0.355974
-0.00444715
0.356526
0.00130212
0.356524
0.00698859
0.355872
0.0127533
0.354166
0.0191551
0.352202
0.0265042
0.348753
0.0366087
0.343931
0.0462709
0.334082
0.0820694
0.314088
0.110284
-0.128135
0.156384
-0.213938
0.18501
-0.219179
0.217549
-0.239778
0.246073
-0.216634
0.274156
-0.212185
0.301507
-0.204095
0.32627
-0.185271
0.349132
-0.170419
0.370225
-0.153977
0.389168
-0.136755
0.406355
-0.121332
0.421854
-0.105699
0.435686
-0.0907749
0.447885
-0.0762258
0.458447
-0.0614532
0.467377
-0.0469402
0.474536
-0.0317416
0.479875
-0.0166047
0.483342
-0.000578076
0.484899
0.0152339
0.484574
0.0315541
0.482375
0.0464162
0.478408
0.0595544
0.472921
0.0683534
0.466196
0.0715608
0.458305
0.074038
0.449113
0.0797938
0.43906
0.0872966
0.429014
0.0951509
0.417667
0.104832
0.405339
0.119414
0.392695
0.137477
0.380535
0.165265
0.373204
0.22698
0.368783
0.272423
0.357568
0.173554
0.323962
0.0515302
0.266688
0.149612
0.18509
0.364088
-0.100171
-0.215114
-0.0714583
-0.225616
-0.0354394
-0.274816
0.000172643
-0.278998
0.0364926
-0.287341
0.0736045
-0.294366
0.10902
-0.283638
0.140251
-0.256138
0.167465
-0.227617
0.191246
-0.200386
0.211405
-0.171568
0.228622
-0.146953
0.243728
-0.127391
0.25713
-0.110658
0.269228
-0.0976695
0.280368
-0.0873715
0.290765
-0.0793628
0.300521
-0.0731924
0.309774
-0.0687551
0.31863
-0.0653847
0.327139
-0.0629706
0.335266
-0.0606887
0.343016
-0.0577765
0.350195
-0.0517358
0.356549
-0.0432398
0.361933
-0.0352226
0.366428
-0.027518
0.370007
-0.0201491
0.372688
-0.0130368
0.374364
-0.00622742
0.375047
0.000354432
0.375168
0.00683073
0.374579
0.0133742
0.372874
0.0205131
0.370897
0.0287105
0.367345
0.039909
0.362187
0.051503
0.352657
0.0912933
0.331266
0.131343
-0.128815
0.15862
-0.243747
0.188763
-0.249328
0.223145
-0.274154
0.253095
-0.246578
0.282445
-0.241531
0.311186
-0.232835
0.337045
-0.211135
0.360947
-0.194334
0.382929
-0.175978
0.40264
-0.156492
0.420556
-0.139277
0.43678
-0.121949
0.451187
-0.105199
0.463966
-0.0890055
0.475227
-0.0726951
0.484728
-0.0564115
0.492523
-0.0395129
0.498478
-0.022551
0.502609
-0.00471085
0.504831
0.013003
0.50502
0.0313457
0.503357
0.0480452
0.499856
0.0630254
0.49478
0.0734927
0.488386
0.0782389
0.480697
0.0820421
0.471563
0.0885503
0.461456
0.0967519
0.45127
0.105799
0.439805
0.116404
0.427616
0.131709
0.414907
0.150651
0.401175
0.178426
0.391482
0.236832
0.386594
0.277131
0.376356
0.184001
0.340216
0.0873234
0.274383
0.217344
0.192995
0.446226
-0.0994507
-0.244497
-0.0692606
-0.255809
-0.0312639
-0.312805
0.00620206
-0.316446
0.0442645
-0.325379
0.0832371
-0.333312
0.120269
-0.320642
0.152802
-0.288643
0.181014
-0.255798
0.205537
-0.224876
0.22616
-0.192155
0.243646
-0.164402
0.258918
-0.142625
0.2724
-0.124098
0.284576
-0.109802
0.295832
-0.0985841
0.306342
-0.0898314
0.31628
-0.0830959
0.325781
-0.0782308
0.334895
-0.0744816
0.343646
-0.0717119
0.352098
-0.0691377
0.360173
-0.0658543
0.367686
-0.0592573
0.374385
-0.0499502
0.380146
-0.0409909
0.384957
-0.0323172
0.388864
-0.0240231
0.391807
-0.0159654
0.393707
-0.00825031
0.39458
-0.00080528
0.394819
0.00655169
0.394337
0.0139043
0.392648
0.02185
0.390627
0.0309796
0.386959
0.043341
0.381498
0.0570903
0.372062
0.100435
0.351661
0.151452
-0.129894
0.161273
-0.275138
0.192994
-0.281051
0.229277
-0.310439
0.26084
-0.278146
0.291743
-0.272444
0.321903
-0.263011
0.348874
-0.238129
0.373914
-0.219403
0.396845
-0.198944
0.417399
-0.177084
0.436012
-0.157928
0.452782
-0.138754
0.467854
-0.120294
0.481326
-0.102482
0.493064
-0.0844151
0.503199
-0.0665147
0.511584
-0.04787
0.518182
-0.0291399
0.522855
-0.00938845
0.525617
0.0102253
0.526388
0.0305459
0.525186
0.0492047
0.522151
0.0660213
0.517496
0.078198
0.511471
0.084535
0.5041
0.0897175
0.495052
0.097208
0.484864
0.106272
0.47462
0.116496
0.462928
0.128205
0.45063
0.144118
0.43797
0.163798
0.423525
0.192345
0.412093
0.248492
0.406115
0.282973
0.394966
0.195353
0.354232
0.127817
0.280571
0.292168
0.202105
0.525065
-0.0988646
-0.275534
-0.0671254
-0.287538
-0.027047
-0.352861
0.0123633
-0.355827
0.0523885
-0.365374
0.093287
-0.374181
0.132127
-0.359453
0.166117
-0.322602
0.195457
-0.285105
0.220816
-0.2502
0.242011
-0.213311
0.25983
-0.182182
0.275311
-0.158065
0.288909
-0.137654
0.301158
-0.122007
0.312467
-0.10985
0.32308
-0.100404
0.33316
-0.0931422
0.342815
-0.0878616
0.352143
-0.083795
0.361182
-0.0807444
0.369907
-0.0778633
0.37826
-0.0742119
0.386117
-0.0671233
0.393167
-0.057012
0.399275
-0.0471061
0.404441
-0.0374755
0.408653
-0.0282064
0.41189
-0.0191978
0.41402
-0.0105198
0.41505
-0.00214441
0.415456
0.006103
0.415066
0.0143607
0.413408
0.0231481
0.411349
0.033292
0.407611
0.0468585
0.401888
0.0629744
0.392305
0.109708
0.373524
0.170181
-0.13114
0.1643
-0.308305
0.197774
-0.314515
0.236074
-0.34874
0.269235
-0.311315
0.301712
-0.304938
0.333403
-0.294726
0.361793
-0.26655
0.387921
-0.245568
0.41186
-0.222924
0.433244
-0.198513
0.452652
-0.177381
0.470171
-0.156312
0.485767
-0.135917
0.499756
-0.116476
0.512128
-0.0967687
0.522822
-0.0771729
0.531739
-0.0567548
0.538843
-0.0362314
0.544068
-0.0146211
0.547384
0.00688564
0.548705
0.0291874
0.548044
0.0498156
0.545482
0.068538
0.541241
0.0824849
0.535568
0.0904768
0.528477
0.0971149
0.519551
0.10575
0.509385
0.115777
0.499065
0.12727
0.487242
0.140154
0.474693
0.156789
0.461803
0.177189
0.447132
0.206556
0.435259
0.260675
0.428503
0.289645
0.414685
0.209334
0.368253
0.174174
0.289108
0.371967
0.216308
0.597972
-0.0984398
-0.308218
-0.0649874
-0.320964
-0.0227654
-0.395049
0.0187276
-0.397282
0.0608191
-0.40743
0.103806
-0.417136
0.14462
-0.400236
0.180171
-0.358123
0.21076
-0.31566
0.237092
-0.276494
0.258945
-0.235125
0.277187
-0.200382
0.292914
-0.17375
0.306643
-0.151339
0.318962
-0.134282
0.330342
-0.121185
0.341004
-0.111025
0.351181
-0.103285
0.36099
-0.0976473
0.370488
-0.0932814
0.379731
-0.0899849
0.388696
-0.0868323
0.397367
-0.0828919
0.405543
-0.075311
0.412944
-0.0644246
0.419408
-0.0535755
0.42491
-0.0429649
0.429461
-0.0327273
0.432965
-0.0226978
0.435355
-0.0130568
0.436589
-0.00370027
0.437137
0.00551162
0.436881
0.0147012
0.435244
0.0244237
0.433173
0.0356209
0.429333
0.0504945
0.423422
0.0690685
0.413751
0.119034
0.395769
0.188351
-0.132708
0.167615
-0.343204
0.202944
-0.349814
0.243381
-0.389168
0.278353
-0.34629
0.312545
-0.339142
0.345844
-0.328045
0.375608
-0.296342
0.403006
-0.273002
0.427962
-0.24792
0.450261
-0.220855
0.470435
-0.197597
0.48861
-0.174526
0.504907
-0.15224
0.519487
-0.131061
0.532366
-0.109626
0.54354
-0.0883057
0.552996
-0.0661722
0.560649
-0.0438678
0.566397
-0.0203763
0.570155
0.00309923
0.571976
0.0273225
0.571779
0.049958
0.569678
0.0705952
0.565903
0.0863099
0.560681
0.0959772
0.55389
0.104225
0.545149
0.114131
0.535
0.125286
0.524658
0.138076
0.51275
0.15221
0.499966
0.169702
0.486725
0.190936
0.471871
0.221017
0.460223
0.272706
0.452835
0.296998
0.435133
0.227122
0.383155
0.226243
0.301868
0.453551
0.237141
0.662676
-0.0981307
-0.342755
-0.062994
-0.35606
-0.0184349
-0.439563
0.0252681
-0.440942
0.0696007
-0.451725
0.114866
-0.462368
0.157707
-0.443047
0.194995
-0.39538
0.226941
-0.347572
0.254343
-0.303859
0.276957
-0.257699
0.295694
-0.219077
0.311733
-0.189746
0.325653
-0.165214
0.338052
-0.146635
0.34948
-0.132566
0.360198
-0.1217
0.370447
-0.113498
0.38035
-0.107525
0.389998
-0.102918
0.399418
-0.0994049
0.408624
-0.096047
0.417557
-0.0918394
0.426062
-0.0838309
0.433799
-0.0721731
0.440616
-0.0603943
0.446468
-0.0487978
0.451324
-0.0375463
0.455145
-0.0265098
0.457793
-0.0158529
0.459243
-0.0054796
0.459971
0.0047378
0.45983
0.0149387
0.458253
0.02564
0.456152
0.0379763
0.452245
0.0542069
0.446184
0.0753109
0.436501
0.128345
0.419062
0.206115
-0.13447
0.171307
-0.380015
0.208586
-0.387045
0.251294
-0.431858
0.28813
-0.383117
0.324084
-0.375097
0.359107
-0.363079
0.390373
-0.327626
0.419053
-0.301707
0.44518
-0.274078
0.468421
-0.24413
0.489481
-0.218691
0.508367
-0.193444
0.525291
-0.169183
0.540448
-0.146218
0.553777
-0.122928
0.565507
-0.0999881
0.575462
-0.0760803
0.583581
-0.0519626
0.589834
-0.0266336
0.59411
-0.00120547
0.596383
0.0250019
0.59667
0.0496151
0.595033
0.0721897
0.591684
0.0897151
0.586845
0.101106
0.58038
0.111026
0.571862
0.122321
0.561804
0.134735
0.551465
0.148887
0.539498
0.164349
0.526492
0.182835
0.512939
0.204977
0.497854
0.235758
0.486283
0.28469
0.477953
0.305317
0.455944
0.249124
0.39935
0.283039
0.319357
0.533579
0.265239
0.716731
-0.0980885
-0.379076
-0.060968
-0.393129
-0.0140001
-0.486481
0.0320762
-0.486972
0.0787616
-0.498373
0.126392
-0.509967
0.171504
-0.48813
0.210631
-0.434477
0.244078
-0.380989
0.272651
-0.332397
0.296105
-0.281115
0.315391
-0.238324
0.331808
-0.206122
0.345929
-0.179292
0.358444
-0.159104
0.369946
-0.144022
0.380712
-0.13242
0.390984
-0.123731
0.400962
-0.117474
0.410734
-0.112676
0.420313
-0.108983
0.429715
-0.10546
0.438913
-0.101056
0.447715
-0.0926514
0.455782
-0.0802527
0.462944
-0.0675552
0.469145
-0.0549716
0.474352
-0.0427059
0.478484
-0.0306245
0.481403
-0.0189159
0.48307
-0.00747897
0.483965
0.00379532
0.483972
0.0150404
0.482456
0.0268004
0.480352
0.040335
0.47637
0.0580029
0.470183
0.0816649
0.460632
0.137534
0.443869
0.223261
-0.136478
0.175388
-0.418885
0.214682
-0.426279
0.259773
-0.47692
0.298555
-0.421878
0.336417
-0.412947
0.373342
-0.4
0.40612
-0.360408
0.436199
-0.331798
0.463623
-0.301518
0.487915
-0.268442
0.509816
-0.240614
0.529481
-0.21313
0.546982
-0.186695
0.562728
-0.161958
0.576698
-0.136866
0.588899
-0.112136
0.599345
-0.0864709
0.607917
-0.0605034
0.614541
-0.0332567
0.619248
-0.00593981
0.621987
0.022215
0.622664
0.0488817
0.621461
0.0733539
0.618541
0.0926977
0.614113
0.105831
0.608031
0.117458
0.599721
0.130337
0.589779
0.144103
0.579501
0.159639
0.567508
0.17653
0.554322
0.196133
0.540522
0.219228
0.525278
0.250688
0.513198
0.297163
0.503322
0.315158
0.477864
0.27449
0.419281
0.341879
0.344002
0.608722
0.302166
0.75858
-0.0980909
-0.417389
-0.059042
-0.432122
-0.00942654
-0.536045
0.0391528
-0.535506
0.0883386
-0.547522
0.138549
-0.560147
0.185999
-0.535551
0.227122
-0.475573
0.262156
-0.415994
0.292029
-0.362238
0.316404
-0.305456
0.33635
-0.258233
0.353185
-0.222918
0.367575
-0.193641
0.380226
-0.171711
0.391789
-0.155538
0.40258
-0.143163
0.412901
-0.134008
0.422924
-0.127464
0.432768
-0.122499
0.442477
-0.118688
0.452074
-0.115067
0.461507
-0.110508
0.470583
-0.101748
0.478987
-0.0886701
0.486481
-0.0750457
0.493024
-0.0614806
0.498555
-0.0481785
0.503006
-0.0350466
0.506192
-0.0222415
0.508102
-0.00972469
0.509207
0.00264223
0.509353
0.0150176
0.507929
0.0278692
0.505845
0.0426733
0.501814
0.0618559
0.495526
0.0880926
0.486091
0.146649
0.470157
0.23958
-0.138733
0.179802
-0.459904
0.221218
-0.46763
0.268811
-0.524475
0.309647
-0.462683
0.349586
-0.452861
0.388444
-0.438841
0.422893
-0.394846
0.454493
-0.363394
0.483182
-0.330208
0.508534
-0.293799
0.53138
-0.263468
0.551865
-0.233623
0.570149
-0.204982
0.586461
-0.178258
0.600937
-0.151306
0.613628
-0.12477
0.624524
-0.0973069
0.633545
-0.0694858
0.640682
-0.0403881
0.645786
-0.0110696
0.648887
0.0190655
0.650008
0.0477036
0.649183
0.0741436
0.646658
0.0952898
0.642597
0.110192
0.636849
0.123565
0.628833
0.138092
0.619045
0.153352
0.608807
0.170348
0.596826
0.188711
0.583484
0.209559
0.569507
0.233597
0.554173
0.265724
0.54117
0.310501
0.529159
0.327062
0.502308
0.301186
0.446781
0.397689
0.380782
0.674486
0.35022
0.789314
-0.098187
-0.457857
-0.056997
-0.473258
-0.00466536
-0.588327
0.0465474
-0.586676
0.0983966
-0.599337
0.151319
-0.613042
0.201297
-0.585505
0.244535
-0.518788
0.2813
-0.452734
0.312538
-0.393448
0.337951
-0.330839
0.358594
-0.278845
0.375924
-0.240215
0.390605
-0.208285
0.40344
-0.184506
0.41508
-0.167133
0.425912
-0.153948
0.436245
-0.144295
0.446302
-0.137482
0.45621
-0.132381
0.46601
-0.128477
0.475748
-0.124811
0.485398
-0.120175
0.494773
-0.111145
0.503463
-0.0973735
0.511273
-0.0828494
0.518147
-0.0683145
0.524011
-0.0539743
0.528781
-0.0397785
0.532271
-0.0258649
0.534427
-0.0122187
0.535714
0.00130723
0.536057
0.0148133
0.534722
0.0288503
0.532677
0.0449676
0.528629
0.0657346
0.522256
0.0945648
0.513015
0.155627
0.497994
0.254939
-0.141136
0.18444
-0.503153
0.228167
-0.511291
0.278414
-0.574678
0.321468
-0.505698
0.36354
-0.494901
0.404417
-0.47969
0.440682
-0.431089
0.473856
-0.39655
0.503902
-0.360239
0.530443
-0.320329
0.554361
-0.287379
0.575657
-0.254915
0.594652
-0.223969
0.611619
-0.195206
0.626619
-0.166266
0.639819
-0.137909
0.651161
-0.108585
0.660638
-0.0789188
0.668134
-0.0478736
0.67367
-0.0166296
0.677149
0.0155373
0.678617
0.0461781
0.678204
0.0745216
0.676056
0.0975068
0.672392
0.114154
0.66696
0.129357
0.65922
0.145605
0.649619
0.162451
0.639443
0.180986
0.627526
0.200841
0.614051
0.223079
0.599866
0.248107
0.584564
0.280735
0.570629
0.324697
0.556041
0.341454
0.529476
0.327546
0.482751
0.444701
0.431235
0.725725
0.408698
0.812127
-0.0983694
-0.500547
-0.0549672
-0.516612
0.000230078
-0.643481
0.0542724
-0.640681
0.108922
-0.653958
0.164687
-0.668784
0.217388
-0.638186
0.262865
-0.564247
0.301492
-0.491341
0.334221
-0.426156
0.360727
-0.357321
0.382161
-0.300254
0.40004
-0.258068
0.415085
-0.2233
0.428108
-0.197496
0.439881
-0.178867
0.450753
-0.164777
0.461112
-0.154611
0.471181
-0.147512
0.481119
-0.14229
0.491013
-0.138356
0.500874
-0.134674
0.510716
-0.130032
0.520318
-0.120768
0.529293
-0.106364
0.537426
-0.0909759
0.544618
-0.0754633
0.550821
-0.0601031
0.555896
-0.0448088
0.559682
-0.0297805
0.562095
-0.0149714
0.56362
-0.000266139
0.564135
0.014453
0.56291
0.0297243
0.560927
0.0471916
0.556878
0.0696233
0.550491
0.101
0.541451
0.16447
0.527359
0.269281
-0.143799
0.189496
-0.548796
0.235641
-0.557373
0.288587
-0.62758
0.334057
-0.551127
0.378305
-0.539113
0.421406
-0.522757
0.459502
-0.469156
0.494359
-0.431381
0.525902
-0.391759
0.553706
-0.348112
0.578591
-0.312247
0.600863
-0.277171
0.620578
-0.243667
0.638197
-0.212799
0.653843
-0.181869
0.667507
-0.151511
0.679328
-0.120341
0.68921
-0.0887535
0.697143
-0.0557923
0.70302
-0.0225278
0.70685
0.0116577
0.708716
0.0442523
0.708616
0.0745865
0.706836
0.0993535
0.703505
0.117773
0.698397
0.13482
0.69096
0.152844
0.681577
0.171372
0.671531
0.191485
0.659673
0.212926
0.646122
0.236637
0.63169
0.262795
0.616374
0.295772
0.601802
0.339461
0.584582
0.358409
0.558463
0.353417
0.523003
0.480401
0.489133
0.75931
0.471639
0.829819
-0.0987027
-0.545577
-0.0529328
-0.56234
0.00533614
-0.701712
0.0623032
-0.697618
0.119954
-0.711586
0.178764
-0.727576
0.234261
-0.693668
0.282181
-0.612153
0.322768
-0.531914
0.357125
-0.460498
0.384833
-0.385012
0.407129
-0.322531
0.425623
-0.276543
0.44106
-0.238716
0.454343
-0.210754
0.46623
-0.190724
0.477182
-0.175695
0.487549
-0.164941
0.497631
-0.157559
0.507589
-0.152219
0.517535
-0.148286
0.527508
-0.144647
0.53753
-0.140068
0.54737
-0.130629
0.556618
-0.115628
0.565029
-0.0993824
0.572523
-0.0829148
0.579028
-0.066532
0.584431
-0.0501644
0.588502
-0.0339804
0.591196
-0.0180075
0.592931
-0.00205395
0.593659
0.0138919
0.592594
0.0304461
0.590654
0.0493668
0.586678
0.073448
0.580273
0.107393
0.571532
0.173082
0.558409
0.282539
-0.146682
0.19489
-0.596954
0.243504
-0.605931
0.299465
-0.683499
0.347262
-0.598885
0.393977
-0.585793
0.439328
-0.568076
0.479479
-0.509279
0.516052
-0.467926
0.549142
-0.424822
0.578248
-0.377193
0.604352
-0.338327
0.627524
-0.30032
0.648112
-0.264234
0.666428
-0.231086
0.68264
-0.198036
0.696841
-0.16565
0.709099
-0.132531
0.719374
-0.0989798
0.727645
-0.0640466
0.733891
-0.0287926
0.738094
0.0074051
0.740226
0.0420607
0.740465
0.0743103
0.73904
0.100839
0.736043
0.121044
0.731286
0.139917
0.724147
0.159812
0.714987
0.180108
0.705034
0.201883
0.693288
0.224919
0.679716
0.250179
0.665055
0.27765
0.649593
0.310976
0.63462
0.354574
0.615384
0.377353
0.588621
0.379901
0.562243
0.506916
0.544854
0.776435
0.530825
0.843821
-0.0991327
-0.593069
-0.0508716
-0.610565
0.0106133
-0.763166
0.070676
-0.757655
0.131487
-0.772378
0.193518
-0.789592
0.252053
-0.752191
0.302502
-0.662592
0.345202
-0.574604
0.381259
-0.496543
0.410272
-0.414012
0.433521
-0.345767
0.452691
-0.295699
0.468595
-0.254605
0.48216
-0.224301
0.494223
-0.202765
0.505244
-0.186689
0.515643
-0.175311
0.525728
-0.167614
0.535726
-0.162193
0.545694
-0.158238
0.555767
-0.154719
0.565933
-0.150248
0.576
-0.140717
0.585501
-0.125147
0.594172
-0.108051
0.601978
-0.0906813
0.608787
-0.0732666
0.614472
-0.0558035
0.618868
-0.0385078
0.621821
-0.021309
0.623803
-0.00410032
0.624714
0.0131539
0.623804
0.0310228
0.621989
0.0514147
0.618063
0.077232
0.611731
0.113654
0.603278
0.181473
0.591155
0.294671
-0.149836
0.200651
-0.647726
0.251915
-0.657147
0.310912
-0.74246
0.361383
-0.649322
0.410532
-0.634912
0.458362
-0.615878
0.500521
-0.551412
0.538997
-0.506378
0.573749
-0.459549
0.604292
-0.40771
0.631542
-0.365552
0.655809
-0.324562
0.677238
-0.285638
0.696292
-0.25011
0.713091
-0.21479
0.727856
-0.180354
0.74055
-0.145159
0.751225
-0.109605
0.759903
-0.0727045
0.766459
-0.0353647
0.770943
0.00287417
0.773391
0.0395527
0.773928
0.0737357
0.772806
0.102014
0.770135
0.123969