/*--------------------------------*- C++ -*----------------------------------*\
| =========                 |                                                 |
| \\      /  F ield         | OpenFOAM: The Open Source CFD Toolbox           |
|  \\    /   O peration     | Version:  2312                                  |
|   \\  /    A nd           | Website:  www.openfoam.com                      |
|    \\/     M anipulation  |                                                 |
\*---------------------------------------------------------------------------*/
FoamFile
{
    version     2.0;
    format      ascii;
    arch        "LSB;label=32;scalar=64";
    class       volScalarField;
    location    "50";
    object      turbulenceProperties:nuEff;
}
// * * * * * * * * * * * * * * * * * * * * * * * * * * * * * * * * * * * * * //

dimensions      [0 2 -1 0 0 0 0];

internalField   nonuniform List<scalar> 
10720
(
8.43699e-05
0.000141696
0.000186924
0.000196144
0.000182286
0.000174511
0.00018598
0.000217769
0.000269176
0.000343524
0.000454
0.000628853
0.000912929
0.00145052
0.00247333
0.0045423
0.00848496
0.0179836
0.0341374
0.050338
0.0641409
0.0799677
0.105299
0.122188
0.189738
0.243913
0.770865
1.56173
0.794783
0.206309
0.0271083
0.00450587
0.000842758
2.44693e-05
1e-05
1e-05
1e-05
0.0120424
0.772159
8.74908e-05
0.000220651
0.000675624
0.0012185
0.00151092
0.00145189
0.00146668
0.00134309
0.00121165
0.0011182
0.00106943
0.00106358
0.00110025
0.00119389
0.00137994
0.00170498
0.00232955
0.00358197
0.00562078
0.00725516
0.00891281
0.0114711
0.0155751
0.0220719
0.0314529
0.0410995
0.043208
0.0281191
0.0131694
0.00458423
0.0011655
0.000147663
3.30744e-05
1.91866e-05
1.14394e-05
2.81864e-05
1.03214e-05
0.00419162
0.274236
0.000511079
0.000638873
0.000498959
0.000451977
0.00047993
0.000534587
0.000596124
0.000665487
0.000740576
0.000820974
0.000898026
0.000951364
0.000910261
0.00175361
0.00221116
0.00249969
0.00446883
0.00958627
0.0261089
0.055895
0.0926569
0.12753
0.172941
0.193436
0.228545
0.126978
0.417502
0.719955
0.551618
0.682709
0.381425
0.0838679
0.0177386
0.000278166
1.43046e-05
1e-05
1e-05
0.0160388
1.67128
0.00113166
0.00181233
0.00181266
0.00122219
0.000670481
0.000540279
0.000588589
0.000690029
0.00081695
0.000981878
0.0011986
0.00147123
0.00180021
0.00219659
0.00275053
0.00329387
0.00417184
0.00472733
0.00226252
0.000279522
0.000935397
0.00614686
0.00752608
0.000280172
0.000547581
0.00123499
0.00263677
0.0034839
0.00298237
0.00243598
0.00145583
0.000755838
0.000352228
0.000156025
6.82929e-05
2.05726e-05
7.91314e-05
0.00319635
0.211287
0.00254273
0.00237483
0.00247102
0.00261177
0.00277271
0.00297146
0.00320868
0.00346612
0.00373723
0.00399754
0.00422912
0.00442526
0.00457812
0.00470301
0.00480758
0.00491923
0.00434943
0.00251561
0.00620868
0.00117006
0.00412414
0.00741365
0.0406529
0.144357
0.199211
0.172738
0.072152
0.22507
0.150968
0.119109
0.112884
0.0806065
0.0215023
0.00267167
0.000248951
6.67526e-05
1e-05
0.0110506
2.06303
0.00273324
0.00159148
0.000349842
0.000245461
0.000142258
0.00013279
0.000141011
0.000158833
0.000187091
0.000230434
0.00029499
0.000387635
0.000516656
0.000693544
0.000944811
0.00123458
0.00165048
0.00199805
0.000338637
0.000140221
0.00222402
0.000103301
0.000467758
0.000764015
0.00144133
0.00155301
0.00151892
0.00245475
0.00298558
0.00348265
0.00403377
0.00378251
0.00370998
0.00369553
0.00366071
0.00406896
0.00336679
0.00995181
0.343726
0.00252262
0.00228954
0.00218051
0.00213228
0.00210063
0.00210336
0.00213785
0.0022036
0.00230588
0.00245082
0.00264477
0.00289489
0.00320923
0.00359887
0.00407282
0.00465235
0.00541194
0.00656241
0.00764699
0.00806339
0.0039594
0.00412475
0.0137843
0.031236
0.00960932
1e-05
1.00281e-05
1e-05
1e-05
1.00001e-05
1.00091e-05
2.44644e-05
0.00614801
0.00597398
0.00188578
0.000574502
2.33962e-05
0.012806
2.58042
0.000848613
0.000373652
0.000235581
0.000268677
0.000235331
0.000142791
0.000356893
0.000389929
0.000433773
0.000493043
0.000567739
0.000661365
0.000774326
0.000910002
0.00106932
0.00125503
0.00146431
0.00169567
0.00195744
0.00220959
0.00246125
0.00273234
0.00307229
6.37076e-05
0.000184254
0.00035073
0.000505233
0.00061344
0.000708799
0.000771313
0.000885007
0.0010485
0.00128629
0.00176624
0.00238567
0.00281653
0.00661928
0.00208216
0.369783
0.000512901
0.000690903
0.000596637
0.00055859
0.000539961
0.000542965
0.000559958
0.000587044
0.000626524
0.000678832
0.000743794
0.00082234
0.000915492
0.00102462
0.00115196
0.00129852
0.0014583
0.00166126
0.00202092
0.00241158
0.00295528
0.00321323
0.00228124
0.000374616
0.00251751
1e-05
1e-05
1e-05
1e-05
1e-05
1e-05
1e-05
1.0012e-05
1e-05
0.00234677
0.00253962
4.85385e-05
0.0107723
1.61434
0.000485818
0.000516432
0.000735376
0.00180451
0.0023904
0.00247042
0.00257963
0.00275207
0.00296379
0.00327719
0.00369336
0.00423345
0.00488142
0.00567948
0.00665403
0.00782672
0.00918194
0.0106856
0.0122545
0.0137856
0.015184
0.0164203
0.0174832
0.018653
0.0190727
0.0185377
0.018011
0.0175072
0.0170251
0.0165546
0.0159866
0.0152198
0.0142892
0.0139369
0.0128024
0.0100097
0.0114182
0.00257745
0.143533
0.0008819
0.000889433
0.000904137
0.000919666
0.000942637
0.000971111
0.00100507
0.00104784
0.00110136
0.00116707
0.00124774
0.00134579
0.00146424
0.00160797
0.00178275
0.00199592
0.00225569
0.00258975
0.00304359
0.00363113
0.00440058
0.000448353
0.00198237
0.00181156
0.00258978
1e-05
1e-05
1e-05
1e-05
1e-05
1e-05
1e-05
1e-05
1e-05
1e-05
1e-05
1e-05
1.00207e-05
1.87825e-05
6.56293e-05
0.00198371
0.00360954
0.00393814
0.0040627
0.00424839
0.00445733
0.00476523
0.00512588
0.00561496
0.00626166
0.00699966
0.00786655
0.0089022
0.0101066
0.0114717
0.0129655
0.014563
0.0162043
0.0178258
0.0194533
0.0211116
0.0228821
0.0250536
0.0279245
0.0294447
0.0287541
0.0280741
0.0273289
0.0268129
0.0265034
0.025752
0.0246103
0.0234062
0.022055
0.0195738
0.0181084
0.00953408
0.0151591
0.00176608
0.00180043
0.00186539
0.00193659
0.00203609
0.0021555
0.00229054
0.00244099
0.00260887
0.00279616
0.00300764
0.00324803
0.00352182
0.00383528
0.00419466
0.00460542
0.00507212
0.00557318
0.00604211
0.00652484
0.00717515
0.00786191
0.00884774
0.00855701
0.0111999
1e-05
1e-05
1e-05
1e-05
1e-05
1e-05
1e-05
1e-05
1e-05
1e-05
1e-05
1e-05
1e-05
1.00105e-05
0.00352956
0.00481889
0.00399873
0.00282673
0.0026524
0.0028004
0.00297422
0.00320388
0.00347889
0.00381671
0.00427289
0.00479245
0.00541362
0.00619682
0.00713859
0.0082664
0.00958888
0.0111567
0.0128769
0.01464
0.016606
0.0187214
0.0197537
0.0196995
0.019541
0.0193121
0.0190734
0.0188149
0.01856
0.0183634
0.0183412
0.0184316
0.018557
0.0187112
0.018872
0.0186155
0.0192461
0.0155932
0.000322653
0.00515872
0.00492546
0.00489279
0.0049345
0.00506029
0.00520069
0.00535629
0.00553067
0.0057355
0.00597553
0.00625888
0.00659306
0.00698576
0.00744866
0.0079945
0.00863829
0.00939612
0.0102715
0.01137
0.0126212
0.0137854
0.0148795
0.0162947
0.0178545
0.0208376
1.00004e-05
1e-05
1e-05
1e-05
1e-05
1e-05
1e-05
1e-05
1e-05
1e-05
1e-05
1e-05
1e-05
1e-05
0.00577274
0.00389075
0.00291994
0.00293724
0.00241491
0.00256606
0.00265837
0.00271418
0.00275706
0.00280602
0.00291086
0.000250061
0.000657123
0.00103847
0.00139362
0.00172941
0.00205584
0.00235627
0.0026697
0.00297906
0.00325161
0.00352116
0.0037712
0.00398092
0.00416477
0.00433074
0.00449261
0.00465768
0.00483498
0.00502462
0.00534458
0.00594081
0.00677651
0.00782343
0.00909632
0.0103398
0.0122646
0.015383
0.000300782
0.00630837
0.00594053
0.00578017
0.00567493
0.00558632
0.00555286
0.00557825
0.00565678
0.00579352
0.00598768
0.00624043
0.00655871
0.00695147
0.00743518
0.00802848
0.00875084
0.00962607
0.0106809
0.0119905
0.013619
0.0154266
0.0175007
0.0200155
0.0226109
0.0252067
1.0002e-05
1e-05
1e-05
1e-05
1e-05
1e-05
1e-05
1e-05
1e-05
1e-05
1e-05
1e-05
1e-05
1e-05
0.0047326
0.00436388
0.00081709
0.000389537
0.000418329
0.000415173
0.000408128
0.000394252
0.000380547
0.000370057
0.00035728
0.000386813
0.000448228
0.000507941
0.000566189
0.000624673
0.000683949
0.000743772
0.000809889
0.000879103
0.000944863
0.00101252
0.00107766
0.0011353
0.00118823
0.00123798
0.00128758
0.00133875
0.00139344
0.00145068
0.00153332
0.00165512
0.00190366
0.00207606
3.257e-05
0.00145333
0.00311603
0.00901771
0.000183745
0.00524831
0.00670501
0.00536484
0.00415922
0.0032537
0.00259136
0.002162
0.00193832
0.00189325
0.00195739
0.00209993
0.00233413
0.00265255
0.00305916
0.00356859
0.00416879
0.00485052
0.0055718
0.00636992
0.00814889
0.0107146
0.0134831
0.0164283
0.0177586
0.0227099
1.00092e-05
1e-05
1e-05
1e-05
1e-05
1e-05
1e-05
1e-05
1e-05
1e-05
1e-05
1e-05
1e-05
1e-05
0.00217855
0.000735279
0.00232623
0.00292742
0.00306338
0.00294306
0.00285041
0.00276329
0.00267407
0.00259528
0.00251284
0.00246777
0.00244411
0.00241346
0.00236974
0.00231506
0.00225272
0.00219234
0.00213286
0.00207456
0.00201808
0.0019616
0.00190216
0.00184416
0.00179277
0.0017456
0.00170275
0.00166404
0.00163036
0.00159748
0.0015452
0.00137094
0.00153856
0.00107942
0.000155536
0.000124269
0.00229794
0.00413373
0.00063252
0.000657647
0.000939417
0.000879886
0.000807682
0.000790483
0.000791529
0.000787583
0.000809309
0.000849159
0.000894084
0.000950399
0.00101702
0.0010942
0.00118675
0.00129628
0.00142334
0.00156768
0.00172028
0.00195858
0.00222083
0.00267031
0.00201604
0.00519241
0.00760231
0.0149525
1.00345e-05
1e-05
1e-05
1e-05
1e-05
1e-05
1e-05
1e-05
1e-05
1e-05
1e-05
1e-05
1e-05
1e-05
0.00224912
0.00613099
0.010381
0.010719
0.0109196
0.0111814
0.0115487
0.0120304
0.0126251
0.0133494
0.01423
0.0152853
0.0165392
0.017316
0.0170261
0.016719
0.0164442
0.0161908
0.0159496
0.0157123
0.0154717
0.0152118
0.0149278
0.0146384
0.0143595
0.0140928
0.0138423
0.0136021
0.0133796
0.0131677
0.0129801
0.0125921
0.0119532
0.0110475
0.00989142
0.00858939
0.00683054
0.00663875
0.00250195
0.00361728
0.000227997
0.00111776
0.00196277
0.00265299
0.00322509
0.00365754
0.0039959
0.00427182
0.00448305
0.00463864
0.00474855
0.00481562
0.0048492
0.00485673
0.00484239
0.00481455
0.00476582
0.00512314
0.00444048
0.00306867
0.0026862
0.00326746
0.00363456
0.00943192
1.01354e-05
1e-05
1e-05
1e-05
1e-05
1e-05
1e-05
1e-05
1e-05
1e-05
1e-05
1e-05
1e-05
1e-05
0.0123768
0.0148939
0.0148796
0.0149747
0.0152403
0.0155913
0.0160797
0.0167172
0.0174965
0.0184315
0.0195461
0.019807
0.01967
0.0194731
0.0192568
0.0190584
0.0188696
0.0186835
0.0184934
0.0182915
0.018069
0.0178205
0.0175549
0.0172891
0.0170326
0.016784
0.0165426
0.0163029
0.0160751
0.0158526
0.0156824
0.015511
0.0152184
0.0148063
0.0141595
0.0134301
0.0117838
0.00990057
0.00748536
0.016522
0.0160623
0.0168063
0.0176101
0.0181404
0.0185225
0.0188145
0.0190054
0.0191676
0.0193024
0.0193483
0.0193495
0.019298
0.0192088
0.0190813
0.0189151
0.0187442
0.0185525
0.0182808
0.0177549
0.016492
0.0152761
0.0129877
0.00947426
0.0110668
1.08851e-05
1e-05
1e-05
1e-05
1e-05
1e-05
1e-05
1e-05
1e-05
1e-05
1e-05
1e-05
1e-05
1e-05
0.0206338
0.0171686
0.00827999
0.00543109
0.00551121
0.00566645
0.00574433
0.00579396
0.00585464
0.00592509
0.00600181
0.00605795
0.00611342
0.00617463
0.00623858
0.00629967
0.00635297
0.00639564
0.00642459
0.00643672
0.00643203
0.00641593
0.0063932
0.00637124
0.00635485
0.00634018
0.00632699
0.00631447
0.00630696
0.00630352
0.00632762
0.0065554
0.0069719
0.00757442
0.00823029
0.00878069
0.00920227
0.00923617
0.00795438
0.0208796
0.0189787
0.0185152
0.0183613
0.0180996
0.0178466
0.0177116
0.0176205
0.0175599
0.0175274
0.0175176
0.0175327
0.0175435
0.0175947
0.0176919
0.017804
0.0179364
0.0180671
0.0182131
0.0185467
0.0186407
0.0183991
0.0176519
0.0150952
0.0146137
1.60871e-05
1e-05
1e-05
1e-05
1e-05
1e-05
1e-05
1e-05
1e-05
1e-05
1e-05
1e-05
1e-05
1e-05
0.0121282
0.00216917
0.00144985
0.000789073
0.000819443
0.000867757
0.000889669
0.000889789
0.0008915
0.000898494
0.000899882
0.000901259
0.000911663
0.000925654
0.000945813
0.000972507
0.0010022
0.00103501
0.00106934
0.00110401
0.0011382
0.00117216
0.0012053
0.00123662
0.00126465
0.00129036
0.00131526
0.0013391
0.00136267
0.00138609
0.00141376
0.00148667
0.00160279
0.0017943
0.000950333
0.00223229
0.00387447
0.00561304
0.00624174
0.00656337
0.00658462
0.00583988
0.00544805
0.00515796
0.00492782
0.00477136
0.00467161
0.00462103
0.00461961
0.0046631
0.00475287
0.00489105
0.00506992
0.00529256
0.00556265
0.00588805
0.00626676
0.00667942
0.00725227
0.0085337
0.0101368
0.0118234
0.0123132
0.0134747
3.94355e-05
1e-05
1e-05
1e-05
1e-05
1e-05
1e-05
1e-05
1e-05
1e-05
1e-05
1e-05
1e-05
1e-05
0.00238918
0.0002929
0.000413203
0.000498255
0.000513146
0.000527465
0.000531376
0.00052195
0.000510928
0.00050143
0.000486917
0.00047336
0.000464672
0.000457628
0.000454129
0.000454376
0.000456955
0.000461855
0.000468656
0.000476727
0.000485512
0.000494959
0.000504659
0.000513473
0.000520061
0.00052531
0.000529868
0.000533727
0.000537177
0.000540394
0.000542098
0.000532599
0.000486797
0.000413252
0.000536191
0.000750125
0.00104742
0.00144087
0.00348811
0.000881759
0.000902689
0.000857289
0.000774387
0.000744572
0.000723928
0.000694392
0.000682388
0.000678193
0.000678735
0.000692076
0.000713912
0.000745148
0.000786527
0.000837327
0.000898933
0.000972899
0.00105929
0.00115534
0.00128312
0.00158793
0.000560407
0.00260449
0.00472958
0.00740603
9.68156e-05
1e-05
1e-05
1e-05
1e-05
1e-05
1e-05
1e-05
1e-05
1e-05
1e-05
1e-05
1e-05
1e-05
0.000198914
0.00114982
0.00293355
0.00353339
0.00356186
0.00355798
0.00355337
0.00353908
0.0035177
0.00349365
0.00346638
0.00343622
0.00340551
0.00337483
0.00334363
0.00331213
0.00328044
0.00324828
0.00321568
0.00318258
0.00314916
0.00311552
0.00308138
0.00304751
0.00301487
0.00298189
0.00294785
0.00291286
0.00287858
0.00284625
0.00280871
0.00271627
0.0024432
0.00203949
0.00153902
0.00107967
0.000401787
0.000460291
0.0020423
0.00068097
0.00048362
0.000533722
0.000557617
0.000604313
0.000646394
0.000662917
0.000682572
0.000698746
0.000708349
0.000721714
0.000734456
0.000746908
0.000761163
0.000774407
0.00078773
0.000801256
0.00081383
0.000824056
0.000832117
0.000799294
0.000800579
0.0010894
0.00142458
0.00123003
0.000150685
1e-05
1e-05
1e-05
1e-05
1e-05
1e-05
1e-05
1e-05
1e-05
1e-05
1e-05
1e-05
1e-05
0.00152633
0.00656743
0.00928887
0.0095275
0.00953373
0.00948114
0.00943389
0.00939644
0.00936312
0.00933254
0.00930253
0.0092711
0.00924028
0.00920896
0.00917491
0.00913818
0.00909855
0.00905516
0.00900783
0.00895584
0.00889944
0.00883881
0.00877326
0.00870411
0.00863291
0.00855763
0.00847848
0.00839505
0.00831104
0.00823019
0.00814535
0.00805565
0.00780835
0.00739874
0.0067984
0.00592062
0.00487298
0.00330115
0.00268937
0.00384066
0.00365239
0.00377208
0.00409294
0.00438213
0.00461825
0.00480297
0.00494847
0.00506942
0.00516988
0.0052518
0.00531792
0.00536936
0.00540503
0.00542349
0.00542982
0.00542878
0.00541713
0.00538737
0.0053442
0.00504392
0.00435087
0.00373203
0.00267749
0.00161923
0.000348822
1e-05
1e-05
1e-05
1e-05
1e-05
1e-05
1e-05
1e-05
1e-05
1e-05
1e-05
1e-05
1e-05
0.00905232
0.0101965
0.00778039
0.00744431
0.00738869
0.00731677
0.00726565
0.00724119
0.00723047
0.00722527
0.00722632
0.00723116
0.00723639
0.00724126
0.00724423
0.00724411
0.00724045
0.00723294
0.00722084
0.00720339
0.0071804
0.00715207
0.00711752
0.00707763
0.00703514
0.00698983
0.00694147
0.00688972
0.00683663
0.00678581
0.0067338
0.00671207
0.00674502
0.00678293
0.00676311
0.00656006
0.00611821
0.00495094
0.00372048
0.00998311
0.00932282
0.00942737
0.00957921
0.00957249
0.00952007
0.0094728
0.00943132
0.00940586
0.00939315
0.00938392
0.00937738
0.00937274
0.00936561
0.00935184
0.00933846
0.00933178
0.00932335
0.00930803
0.00931674
0.009306
0.00895292
0.00823497
0.00718223
0.00549465
0.00145066
1e-05
1e-05
1e-05
1e-05
1e-05
1e-05
1e-05
1e-05
1e-05
1e-05
1e-05
1e-05
1e-05
0.00932516
0.00459922
0.0017546
0.00135509
0.00132286
0.00131449
0.00130295
0.00129331
0.00128923
0.00129002
0.00129383
0.00130048
0.00130962
0.00132092
0.0013338
0.00134801
0.00136314
0.00137896
0.00139502
0.00141104
0.00142681
0.00144234
0.00145794
0.00147408
0.00149101
0.00150797
0.00152481
0.00154138
0.00155775
0.00157505
0.00158902
0.00161197
0.00181604
0.00219837
0.00270818
0.00333124
0.00400667
0.00422399
0.0036118
0.00717685
0.00666125
0.00611596
0.00579546
0.00553625
0.00532832
0.00517811
0.00506368
0.00497821
0.00491736
0.00487372
0.00484557
0.00483295
0.00483334
0.00484557
0.00487271
0.00491882
0.00498019
0.00505323
0.00515351
0.00540757
0.0058573
0.00624501
0.00641764
0.00598696
0.0034363
1.00001e-05
1e-05
1e-05
1e-05
1e-05
1e-05
1e-05
1e-05
1e-05
1e-05
1e-05
1e-05
1e-05
0.00275741
0.000962874
0.000272851
0.00021341
0.000212541
0.000216717
0.000216284
0.000211394
0.000207092
0.000204168
0.000199465
0.000195378
0.0001935
0.000192454
0.000193104
0.000195968
0.000200235
0.000206154
0.000213495
0.000222079
0.000231608
0.000242057
0.000253344
0.000264597
0.000274843
0.000284565
0.000294369
0.000304195
0.000313998
0.000323942
0.000333174
0.000344177
0.000393677
0.000482958
0.000605588
8.31602e-05
0.00105311
0.00212729
0.0026141
0.00103073
0.000936634
0.000295695
0.000868661
0.00081172
0.000793345
0.000760159
0.00074305
0.000729885
0.000715811
0.000710839
0.000709026
0.000711023
0.000718884
0.00072993
0.000745444
0.000765535
0.000789503
0.000816381
0.000851311
3.87189e-05
0.000587858
0.0014475
0.002457
0.0031973
0.00375716
1.00009e-05
1e-05
1e-05
1e-05
1e-05
1e-05
1e-05
1e-05
1e-05
1e-05
1e-05
1e-05
1e-05
0.000503206
0.000121468
0.000348529
0.000375804
0.000384605
0.000393646
0.000395236
0.000387918
0.000379716
0.000372475
0.000360728
0.00034902
0.000340883
0.000333542
0.00032887
0.000327932
0.0003291
0.000332892
0.00033903
0.000346901
0.000356118
0.000366462
0.00037781
0.000388292
0.000396145
0.000402584
0.000408759
0.000414615
0.000420154
0.000425462
0.00043065
0.00043584
0.000429217
0.0003951
0.000332509
0.000265494
0.000399316
7.71498e-05
0.00117772
0.00015104
0.000139938
6.99605e-05
3.75983e-05
4.56629e-05
5.48893e-05
6.20404e-05
6.93545e-05
7.62519e-05
8.1624e-05
8.6851e-05
9.14606e-05
9.54926e-05
9.94007e-05
0.000102853
0.000106065
0.000109031
0.000111685
0.000114022
0.000115873
0.000120419
0.000190143
0.000318222
0.000459905
0.00011885
0.00184887
1.0005e-05
1e-05
1e-05
1e-05
1e-05
1e-05
1e-05
1e-05
1e-05
1e-05
1e-05
1e-05
1e-05
0.000350018
0.000854064
0.00233021
0.00251145
0.00252439
0.00251945
0.00251697
0.00251749
0.00251743
0.00251693
0.00251713
0.00251693
0.00251591
0.00251454
0.00251227
0.0025088
0.00250424
0.00249835
0.00249094
0.00248184
0.00247111
0.00245888
0.0024451
0.00243018
0.00241514
0.00239971
0.00238348
0.00236661
0.00234927
0.00233206
0.00231584
0.00230166
0.00222699
0.00201289
0.0016609
0.00121671
0.000772129
0.000465303
0.000802704
0.000640779
0.000468229
0.00012907
0.000209852
0.000265537
0.000327444
0.000384482
0.000438292
0.000489485
0.000533599
0.000572225
0.000605949
0.000634385
0.00065821
0.000677442
0.000692501
0.000704102
0.000712157
0.000717127
0.000718464
0.000706631
0.000554294
0.000423723
0.000134937
0.000469708
0.000743493
1.00332e-05
1.00001e-05
1e-05
1e-05
1e-05
1e-05
1e-05
1e-05
1e-05
1e-05
1e-05
1e-05
1e-05
0.00186805
0.00427887
0.00440147
0.00451687
0.00449392
0.0044525
0.0044202
0.00439927
0.00438459
0.00437356
0.00436645
0.00436184
0.00435852
0.00435627
0.00435422
0.00435163
0.00434838
0.00434406
0.00433817
0.00433035
0.00432061
0.00430918
0.00429576
0.00428023
0.00426369
0.00424577
0.00422568
0.00420351
0.00417937
0.00415388
0.00412899
0.00411243
0.00408082
0.00397528
0.00363446
0.00326722
0.00283337
0.00209595
0.00159384
0.00315711
0.00330139
0.00350319
0.00358416
0.00361456
0.00363562
0.00365311
0.00366875
0.00368592
0.00370282
0.00371861
0.00373419
0.00374899
0.00376182
0.0037713
0.00377842
0.00378493
0.00378845
0.00378632
0.00378093
0.00378039
0.00365461
0.00334595
0.00286884
0.00234597
0.00206872
1.06858e-05
1e-05
1e-05
1e-05
1e-05
1e-05
1e-05
1e-05
1e-05
1e-05
1e-05
1e-05
1e-05
0.00485541
0.00375525
0.00243119
0.00235036
0.00232734
0.00229399
0.0022664
0.00224671
0.00223312
0.00222326
0.00221717
0.00221431
0.00221334
0.00221374
0.00221493
0.0022163
0.00221765
0.00221865
0.00221898
0.0022183
0.0022168
0.0022147
0.00221186
0.00220825
0.00220475
0.00220095
0.00219646
0.00219166
0.00218601
0.00217972
0.00217382
0.00217199
0.00221294
0.0023199
0.00244735
0.00256919
0.00258539
0.00233816
0.00190804
0.00445974
0.00403942
0.00394555
0.00380732
0.00367876
0.00358748
0.00352994
0.00349091
0.00346366
0.00344525
0.00343127
0.00342147
0.00341548
0.00341156
0.00340877
0.00340795
0.00341071
0.00341511
0.00341872
0.00342327
0.00346296
0.00354344
0.00355549
0.00346019
0.00317312
0.00286643
1.93905e-05
1.00018e-05
1e-05
1e-05
1e-05
1e-05
1e-05
1e-05
1e-05
1e-05
1e-05
1e-05
1e-05
0.00283832
0.000832959
0.000474889
0.000372773
0.00037537
0.000378936
0.000375913
0.000365407
0.00035515
0.000346418
0.0003336
0.000321126
0.000312194
0.000303919
0.000298317
0.000296472
0.000296921
0.000300323
0.000306357
0.00031461
0.000324689
0.000336561
0.000350034
0.000362935
0.000373105
0.00038189
0.000390672
0.000399422
0.000408004
0.00041628
0.000424404
0.000433151
0.000450307
0.00049393
0.000255896
0.000625535
0.00107484
0.00144022
0.00149117
0.00147116
0.00131099
0.00098856
0.000974775
0.000959988
0.000928532
0.000898334
0.000875248
0.000854709
0.000836841
0.000821596
0.000809274
0.000800382
0.00079469
0.000792279
0.000793548
0.000799243
0.000809012
0.000822892
0.0008379
0.000866591
0.00101505
0.00131896
0.00161889
0.00186168
0.00210823
6.29996e-05
1.00313e-05
1.00001e-05
1e-05
1e-05
1e-05
1e-05
1e-05
1e-05
1e-05
1e-05
1e-05
1e-05
0.000569846
0.000125998
6.056e-05
7.27201e-05
7.80617e-05
8.23815e-05
8.44001e-05
8.38043e-05
8.25111e-05
8.12208e-05
7.86383e-05
7.57607e-05
7.35421e-05
7.13661e-05
6.96874e-05
6.88536e-05
6.85101e-05
6.88516e-05
6.97993e-05
7.13231e-05
7.3287e-05
7.57171e-05
7.85922e-05
8.14372e-05
8.36181e-05
8.54059e-05
8.71473e-05
8.88585e-05
9.05387e-05
9.21678e-05
9.37846e-05
9.503e-05
9.49662e-05
8.53155e-05
0.00011728
0.000176892
0.000258064
0.000320041
0.000733936
0.000216648
0.000196446
0.000159818
0.000151533
0.000150686
0.000147651
0.000140506
0.000136485
0.000132807
0.000128657
0.000126062
0.000123978
0.000122576
0.000122295
0.000122658
0.000123948
0.000126128
0.000129153
0.000132961
0.000137081
0.000143337
0.000168376
0.000218508
0.000289069
0.000229957
0.00062605
0.000146372
1.02982e-05
1.00009e-05
1e-05
1e-05
1e-05
1e-05
1e-05
1e-05
1e-05
1e-05
1e-05
1e-05
6.61617e-05
0.000255454
0.000346935
0.00042759
0.000455619
0.000472875
0.000484628
0.000491754
0.000495891
0.000499121
0.000500917
0.000501162
0.000501133
0.000500808
0.000500072
0.000499407
0.000498828
0.000498382
0.000498074
0.000498021
0.000498055
0.00049824
0.000498787
0.000499654
0.00050041
0.000500544
0.000500191
0.000499542
0.000498649
0.000497528
0.000496483
0.000493442
0.000483342
0.000421477
0.000313976
0.000209272
4.74369e-05
4.70935e-05
0.000383819
0.000198538
0.000144106
0.00016694
0.000165167
0.000172978
0.000179392
0.000179212
0.000180924
0.000182322
0.000182104
0.000183278
0.000184354
0.000185432
0.000187314
0.000189224
0.000191545
0.000194115
0.000196758
0.000199255
0.000201603
0.000203821
0.000202104
0.000184343
0.000156219
0.000162593
0.000222647
0.000101147
1.13794e-05
1.00052e-05
1e-05
1e-05
1e-05
1e-05
1e-05
1e-05
1e-05
1e-05
1e-05
1e-05
0.000425252
0.00156735
0.00194978
0.00204002
0.00204983
0.00204413
0.0020381
0.00203493
0.0020333
0.0020331
0.00203414
0.00203524
0.00203648
0.0020376
0.00203815
0.00203843
0.00203856
0.00203841
0.00203808
0.0020375
0.00203664
0.00203552
0.00203426
0.00203274
0.00203064
0.00202756
0.00202343
0.00201854
0.0020129
0.00200628
0.00199902
0.00199101
0.00198465
0.00192839
0.0018077
0.00160325
0.00130375
0.000995707
0.000820647
0.00105307
0.000977226
0.00107004
0.00110589
0.00115182
0.00118474
0.00121029
0.00123169
0.00125178
0.00127043
0.00128717
0.00130226
0.00131544
0.0013266
0.00133592
0.00134381
0.00135072
0.00135603
0.00135889
0.00135995
0.00136097
0.00133762
0.00120704
0.00101031
0.000804226
0.000608067
0.000385884
2.27586e-05
1.00293e-05
1.00002e-05
1e-05
1e-05
1e-05
1e-05
1e-05
1e-05
1e-05
1e-05
1e-05
0.00207326
0.00213503
0.00177751
0.00177701
0.00175493
0.00172662
0.0017041
0.00169066
0.00168299
0.00167846
0.00167707
0.00167757
0.00167875
0.00168022
0.00168182
0.00168317
0.00168438
0.00168536
0.00168618
0.00168664
0.00168677
0.00168655
0.00168589
0.00168446
0.00168251
0.00168017
0.00167735
0.001674
0.00167018
0.00166568
0.00166071
0.00165501
0.00166014
0.00168639
0.00170491
0.00167983
0.00159761
0.00138095
0.00109791
0.00221175
0.00202093
0.00196375
0.0019705
0.00195645
0.00193514
0.00192147
0.00191287
0.00190905
0.00190861
0.00190934
0.0019109
0.00191259
0.00191386
0.00191491
0.00191635
0.00191865
0.00192093
0.00192188
0.00192232
0.00192719
0.00194247
0.00190373
0.00182043
0.00168491
0.00143557
0.00105839
0.000117982
1.07299e-05
1.00004e-05
1e-05
1e-05
1e-05
1e-05
1e-05
1e-05
1e-05
1e-05
1e-05
0.00183771
0.000756114
0.000457832
0.000399071
0.000384851
0.000370891
0.000358046
0.000347382
0.000339458
0.000333314
0.000328059
0.000323742
0.00032011
0.000316972
0.000314352
0.000312147
0.000310216
0.000308764
0.000307621
0.00030685
0.000306536
0.000306832
0.000307769
0.000309265
0.000311155
0.000313396
0.000315824
0.000318216
0.000320596
0.000322904
0.000325156
0.000325787
0.000329041
0.000384098
0.000506348
0.00065979
0.000814203
0.000936661
0.000918516
0.00123945
0.00117456
0.00104891
0.000969707
0.00091693
0.000872399
0.000840704
0.000817214
0.000798767
0.000784504
0.000772795
0.00076296
0.000754758
0.000747798
0.000742204
0.000738293
0.000736235
0.000735854
0.000736798
0.000739144
0.000743882
0.000772277
0.000862881
0.000972076
0.00106489
0.00110006
0.00104177
0.000377234
1.68188e-05
1.00148e-05
1.00001e-05
1e-05
1e-05
1e-05
1e-05
1e-05
1e-05
1e-05
1e-05
0.000397284
0.000160358
8.11536e-05
7.18415e-05
7.05688e-05
6.96982e-05
6.77186e-05
6.46797e-05
6.19817e-05
5.97103e-05
5.68235e-05
5.40126e-05
5.17919e-05
4.96643e-05
4.79655e-05
4.68993e-05
4.61943e-05
4.60236e-05
4.63373e-05
4.711e-05
4.82788e-05
4.98958e-05
5.19493e-05
5.40531e-05
5.57215e-05
5.72149e-05
5.88055e-05
6.04434e-05
6.21291e-05
6.38392e-05
6.55752e-05
6.70485e-05
6.90145e-05
8.0827e-05
0.000106142
0.000138727
0.000186609
0.000268963
0.000479881
0.000187781
0.000180397
0.000172319
0.000153493
0.000146753
0.000141405
0.000133721
0.000129268
0.000125504
0.000121456
0.000118946
0.000116795
0.000115042
0.000114117
0.000113557
0.00011357
0.000114071
0.000114979
0.000116195
0.000117662
0.00011937
0.000124359
0.000138543
0.000167849
0.000132748
0.000324404
0.000496268
0.000459174
4.07109e-05
1.02248e-05
1.00017e-05
1e-05
1e-05
1e-05
1e-05
1e-05
1e-05
1e-05
1e-05
6.5545e-05
8.05221e-05
0.00011373
0.000116375
0.000119547
0.000123909
0.000126053
0.000124907
0.000122911
0.000120774
0.000116525
0.000111724
0.000107761
0.000103619
0.000100167
9.8008e-05
9.66235e-05
9.6369e-05
9.72633e-05
9.92189e-05
0.000102076
0.000105907
0.000110664
0.000115291
0.000118512
0.000121017
0.000123599
0.00012622
0.000128884
0.000131538
0.000134197
0.000136848
0.000139565
0.000139705
0.00013291
0.0001175
9.52e-05
0.000129957
7.83117e-05
3.0496e-05
3.29794e-05
4.34136e-05
4.86878e-05
5.41946e-05
5.88406e-05
6.05154e-05
6.21457e-05
6.32531e-05
6.34917e-05
6.40277e-05
6.44154e-05
6.47157e-05
6.52348e-05
6.57345e-05
6.63497e-05
6.7028e-05
6.77416e-05
6.8403e-05
6.89825e-05
6.93867e-05
6.91863e-05
6.32243e-05
5.33569e-05
6.39404e-05
7.99332e-05
0.000107103
0.00011179
6.7662e-05
1.14974e-05
1.0002e-05
1e-05
1e-05
1e-05
1e-05
1e-05
1e-05
1e-05
1e-05
0.000175494
0.000520473
0.000691041
0.000708934
0.00071863
0.000730291
0.000742792
0.000753646
0.000762012
0.000768696
0.000774324
0.000778761
0.000782319
0.000785328
0.000787773
0.000789805
0.000791568
0.000793049
0.000794291
0.000795284
0.000796033
0.00079653
0.000796813
0.000796958
0.000796956
0.000796661
0.00079598
0.000794998
0.000793807
0.000792322
0.000790684
0.000788875
0.000787326
0.000770607
0.000714684
0.000612698
0.000477292
0.000349868
0.000287169
0.000157574
0.000173647
0.000233104
0.000280538
0.000316847
0.000345933
0.000366033
0.000380964
0.000392854
0.000402127
0.000409892
0.000416631
0.00042231
0.000427113
0.000431126
0.000434529
0.000437514
0.000439994
0.000441723
0.000442745
0.000442894
0.000439963
0.000396363
0.000326012
0.000268016
0.000165588
8.0434e-05
9.72536e-05
0.000101213
1.8123e-05
1.00911e-05
1.00013e-05
1e-05
1e-05
1e-05
1e-05
1e-05
1e-05
1e-05
0.000816071
0.00123083
0.00116379
0.00118363
0.00117999
0.00117615
0.00117549
0.00117674
0.00117819
0.00117965
0.00118156
0.00118351
0.00118532
0.00118717
0.00118891
0.0011905
0.00119208
0.00119358
0.00119497
0.00119621
0.0011973
0.00119821
0.00119889
0.00119932
0.00119951
0.00119936
0.00119863
0.00119739
0.00119585
0.00119386
0.00119162
0.00118923
0.00118885
0.00118874
0.0011687
0.00111728
0.00102201
0.00085667
0.000669231
0.00101537
0.000967184
0.00100122
0.00103537
0.00105323
0.00106301
0.00106788
0.00106958
0.00107063
0.00107157
0.00107278
0.0010745
0.00107618
0.00107759
0.0010787
0.00107975
0.00108111
0.0010826
0.00108362
0.00108389
0.00108352
0.00108398
0.00105701
0.000997774
0.00091301
0.000793243
0.000676269
0.000534147
0.00034289
6.25246e-05
1.16404e-05
1.00086e-05
1.00001e-05
1e-05
1e-05
1e-05
1e-05
1e-05
1e-05
0.00123005
0.000748007
0.000577075
0.000575259
0.000568135
0.000556436
0.0005465
0.000539192
0.000533678
0.000529278
0.000526091
0.000523955
0.000522355
0.000521307
0.000520547
0.000520035
0.000519621
0.000519343
0.000519066
0.000518761
0.000518371
0.000517917
0.000517354
0.000516675
0.00051599
0.00051531
0.00051454
0.000513801
0.000513119
0.000512448
0.000511953
0.000511423
0.000511664
0.000524647
0.000563592
0.000618704
0.000675182
0.000695902
0.000643101
0.00103717
0.000936496
0.000874535
0.000840199
0.000806862
0.000777484
0.000755545
0.000737621
0.000723324
0.000712654
0.00070439
0.000698077
0.000693263
0.000689302
0.000686029
0.000683484
0.000681824
0.000680988
0.000680636
0.000680506
0.000680374
0.00068792
0.000713905
0.000741497
0.000757454
0.00075203
0.000723024
0.000661825
0.000542341
0.000206077
2.26789e-05
1.02209e-05
1.00003e-05
1e-05
1e-05
1e-05
1e-05
1e-05
1e-05