/*--------------------------------*- C++ -*----------------------------------*\
| =========                 |                                                 |
| \\      /  F ield         | OpenFOAM: The Open Source CFD Toolbox           |
|  \\    /   O peration     | Version:  2312                                  |
|   \\  /    A nd           | Website:  www.openfoam.com                      |
|    \\/     M anipulation  |                                                 |
\*---------------------------------------------------------------------------*/
FoamFile
{
    version     2.0;
    format      ascii;
    arch        "LSB;label=32;scalar=64";
    class       volSymmTensorField;
    location    "50";
    object      turbulenceProperties:devReff;
}
// * * * * * * * * * * * * * * * * * * * * * * * * * * * * * * * * * * * * * //

dimensions      [0 2 -2 0 0 0 0];

internalField   nonuniform List<symmTensor> 
10720
(
(0.00393294 0.00674813 -2.67617e-20 -0.00411867 -1.24357e-19 0.000185734)
(0.00799828 0.0119768 3.82407e-20 -0.00819323 1.34993e-19 0.000194947)
(0.0132448 0.015941 1.51309e-20 -0.0137908 7.42606e-20 0.000545998)
(0.0170492 0.0169142 4.84853e-19 -0.0177054 1.89304e-18 0.000656141)
(0.0189661 0.015197 -8.20511e-19 -0.0195628 -2.56066e-18 0.000596715)
(0.0214113 0.0131849 -7.8001e-19 -0.0221468 -1.50585e-18 0.000735462)
(0.0262198 0.0120217 1.34267e-19 -0.0270541 -1.13059e-20 0.000834334)
(0.0343259 0.0108436 7.79558e-20 -0.035319 1.23262e-19 0.000993146)
(0.0462404 0.00834924 2.32179e-19 -0.0475634 -1.87545e-19 0.00132297)
(0.0627906 0.00346884 -4.99479e-20 -0.0644838 -5.01122e-20 0.00169321)
(0.086226 -0.00575018 6.35985e-18 -0.0884731 2.99678e-18 0.0022471)
(0.121478 -0.0227724 -1.53122e-18 -0.124581 -1.17547e-18 0.00310225)
(0.175961 -0.0545087 3.61425e-18 -0.180402 -5.42126e-18 0.00444093)
(0.273706 -0.11961 2.08955e-18 -0.280606 4.71424e-18 0.00690028)
(0.448706 -0.256727 4.7923e-18 -0.460128 -8.49628e-18 0.011422)
(0.778462 -0.559697 7.52319e-19 -0.798545 4.07617e-17 0.0200834)
(1.34622 -1.19261 2.91376e-16 -1.38286 1.3904e-16 0.0366352)
(2.5859 -2.78982 -6.06341e-17 -2.66159 1.31443e-16 0.0756874)
(4.3322 -5.69542 -6.69393e-17 -4.47481 -8.15565e-16 0.14261)
(5.47452 -8.81867 4.93201e-17 -5.67585 -2.16231e-18 0.201333)
(5.75907 -11.5501 -1.01003e-15 -5.99836 -5.25525e-16 0.239291)
(5.67749 -14.4948 1.43606e-15 -5.94456 1.62644e-15 0.267068)
(5.57895 -18.8683 -5.11692e-16 -5.87184 -1.32738e-15 0.292894)
(4.42422 -21.3469 3.70261e-16 -4.70708 8.9716e-17 0.282862)
(4.21971 -32.454 -1.59527e-16 -4.52317 -7.72419e-18 0.303457)
(2.71336 -40.9343 3.44832e-17 -3.23037 -1.02696e-15 0.517009)
(1.8906 -127.278 5.71637e-16 -4.21871 -1.96069e-16 2.32811)
(-8.33442 -253.322 7.98647e-16 6.50705 1.24466e-15 1.82737)
(-10.6472 -125.774 8.14859e-15 11.6215 3.02502e-16 -0.974225)
(-3.95757 -31.6436 2.95295e-15 4.24605 2.89385e-15 -0.28848)
(-0.608075 -3.95096 -4.66329e-16 0.628782 -1.95185e-16 -0.0207071)
(-0.104905 -0.602762 -1.12693e-16 0.106234 -8.18414e-17 -0.00132869)
(-0.0180087 -0.0953096 -9.89941e-18 0.0179986 -2.70198e-17 1.0091e-05)
(-0.000394782 -0.00204262 -6.6854e-19 0.000401511 -2.20824e-18 -6.72945e-06)
(-3.39042e-05 -0.000299303 2.25732e-19 4.38526e-05 8.38024e-19 -9.94833e-06)
(0.000102352 0.000355956 2.6592e-20 -0.000105386 5.1486e-19 3.03422e-06)
(-0.00018882 -0.000372601 -1.21081e-20 0.000177926 8.56504e-22 1.08943e-05)
(-0.303539 -0.59863 -2.72573e-16 0.329868 -1.11114e-16 -0.0263288)
(-23.1512 -48 4.05376e-17 21.0427 -4.02262e-15 2.10849)
(0.00319892 0.00662197 9.1116e-21 -0.00326005 -1.79551e-20 6.11281e-05)
(0.00667504 0.015432 -1.69132e-19 -0.00702697 2.05132e-19 0.000351939)
(0.0163584 0.041852 -1.91437e-18 -0.0168726 -1.80853e-18 0.000514204)
(0.0249819 0.065062 7.81949e-18 -0.0248926 -9.41883e-18 -8.93648e-05)
(0.030441 0.0666519 -1.74648e-17 -0.0278449 1.00856e-17 -0.00259608)
(0.0343099 0.0532668 -2.20515e-17 -0.0305847 3.45332e-17 -0.00372519)
(0.0439572 0.0478474 2.51891e-17 -0.0415906 5.54945e-18 -0.00236666)
(0.0512759 0.043122 7.71517e-18 -0.0508193 -3.03417e-17 -0.000456635)
(0.057097 0.0422072 6.06833e-18 -0.057449 1.10604e-18 0.000351997)
(0.0616472 0.0459744 -4.06003e-18 -0.0624684 -1.38665e-18 0.000821153)
(0.0655302 0.0535024 2.91987e-18 -0.0666816 6.8356e-18 0.00115145)
(0.0693615 0.063983 6.04774e-18 -0.0706731 -3.21046e-18 0.00131161)
(0.0736328 0.0777084 -7.05614e-18 -0.0750997 1.07325e-18 0.00146698)
(0.0797407 0.0963059 4.04463e-18 -0.081377 -8.11092e-19 0.00163627)
(0.0904772 0.123833 1.63751e-17 -0.0922446 -1.32401e-18 0.0017674)
(0.108148 0.16699 1.4186e-17 -0.110253 -3.59711e-18 0.00210503)
(0.141892 0.245061 4.47934e-18 -0.144541 3.56046e-18 0.00264849)
(0.20806 0.400069 -2.39158e-19 -0.211881 5.16134e-18 0.00382116)
(0.310096 0.660736 2.4174e-18 -0.315654 -1.33916e-18 0.00555854)
(0.377416 0.892613 3.04096e-18 -0.384393 3.45887e-19 0.00697633)
(0.433677 1.14258 -3.877e-18 -0.442059 -2.29903e-17 0.00838112)
(0.513997 1.52798 -1.55447e-17 -0.524961 1.34225e-18 0.0109641)
(0.626899 2.15047 1.25662e-17 -0.642191 3.1441e-18 0.0152925)
(0.761533 3.14885 1.6669e-18 -0.785807 4.6575e-18 0.0242738)
(0.874861 4.60926 3.6984e-16 -0.912456 -2.12097e-17 0.0375958)
(0.857585 6.13928 5.76883e-18 -0.906311 2.20083e-17 0.048726)
(0.597481 6.53772 -6.13149e-19 -0.645881 -2.25987e-17 0.0484004)
(0.196111 4.2873 -2.24227e-18 -0.225177 6.88874e-20 0.0290661)
(0.00576705 2.01326 1.17739e-18 -0.0189201 1.5945e-20 0.0131531)
(-0.026255 0.698894 1.71398e-17 0.0216538 -2.9226e-18 0.00460126)
(-0.0133868 0.176204 -4.73967e-19 0.0122149 -2.34271e-20 0.00117189)
(-0.00247571 0.0220143 -1.39567e-19 0.00233255 4.54407e-19 0.000143158)
(-0.000710178 0.00483131 -7.7165e-19 0.000680626 -1.35118e-19 2.9552e-05)
(-0.000489473 0.00272456 -7.48171e-19 0.000474129 3.31316e-19 1.53439e-05)
(-0.000329646 0.00156409 4.14263e-19 0.000321756 -3.79949e-22 7.89031e-06)
(-0.000880649 0.00366565 -6.481e-21 0.000864474 -1.26202e-19 1.61751e-05)
(-0.000336807 0.00123968 -7.54663e-21 0.000332547 5.55488e-20 4.26e-06)
(-0.147 0.464099 -1.6039e-18 0.14104 -5.1479e-18 0.00596068)
(-11.3659 29.6222 -1.03975e-14 11.184 -7.59901e-16 0.181915)
(0.0177264 -0.0102643 -9.12278e-20 -0.016722 -2.45181e-19 -0.00100445)
(0.0197035 -0.0167457 7.42012e-21 -0.0181568 4.43967e-19 -0.00154669)
(0.0123815 -0.0159256 1.20478e-19 -0.0108247 3.43056e-20 -0.00155678)
(0.00818168 -0.0159271 1.45721e-19 -0.00646573 -2.39443e-21 -0.00171595)
(0.00533485 -0.0175161 7.28207e-19 -0.00322871 1.96414e-18 -0.00210614)
(0.00221822 -0.0191819 1.94203e-18 0.000461667 3.75443e-18 -0.00267989)
(-0.000966548 -0.0199374 -5.7956e-19 0.00429798 1.12543e-19 -0.00333144)
(-0.00396259 -0.0198596 -7.14237e-19 0.00798387 -2.76648e-19 -0.00402128)
(-0.00658687 -0.0190305 -7.26984e-18 0.0113363 -7.72625e-18 -0.00474947)
(-0.00848436 -0.0176737 -2.19315e-18 0.0139664 -9.39691e-19 -0.00548202)
(-0.00957177 -0.0159037 -2.60446e-17 0.0157072 -2.44125e-17 -0.00613539)
(-0.00971234 -0.0137888 -3.48063e-19 0.0162904 3.51511e-18 -0.0065781)
(-0.00836651 -0.0108687 -1.22216e-17 0.014675 -3.53306e-19 -0.00630853)
(-0.0139142 -0.0177761 1.53861e-17 0.0259652 9.14142e-18 -0.012051)
(-0.0144124 -0.0202499 -3.78819e-17 0.0292341 -1.15765e-17 -0.0148217)
(-0.012402 -0.0222518 8.87509e-17 0.0285473 2.19684e-17 -0.0161453)
(-0.0142392 -0.0418822 -1.46691e-16 0.041921 -1.16159e-16 -0.0276818)
(-0.0113352 -0.102522 -2.85867e-16 0.0687597 -9.21544e-17 -0.0574245)
(0.0267615 -0.336142 -8.20369e-16 0.123469 3.02391e-16 -0.150231)
(0.181661 -0.885095 1.90672e-16 0.118642 1.02871e-18 -0.300304)
(0.486884 -1.814 1.68784e-15 -0.0436439 1.63007e-15 -0.44324)
(0.87315 -3.05873 -2.36823e-15 -0.34362 -3.41248e-15 -0.52953)
(1.31206 -4.88801 1.74956e-16 -0.730565 3.03889e-15 -0.581499)
(1.43397 -6.18375 3.49582e-17 -0.888662 -6.02085e-16 -0.545312)
(1.37569 -7.11195 -0 -0.882442 -0 -0.493251)
(0.463435 -3.6832 -1.10875e-17 -0.0864203 1.9311e-16 -0.377014)
(0.346293 -8.68342 -2.96107e-16 1.24249 1.22147e-16 -1.58878)
(0.503141 -8.90041 -1.51992e-16 0.411698 -5.24413e-16 -0.914839)
(1.31883 -4.7346 -4.63421e-15 -2.28127 -3.51928e-15 0.962442)
(1.58082 -4.47725 -2.09764e-16 -2.95094 -1.35032e-14 1.37012)
(0.368847 -2.76971 3.87717e-16 -0.819656 7.36445e-15 0.450808)
(-0.0787728 -1.08405 1.1762e-17 0.037094 2.54009e-15 0.0416788)
(-0.0673415 -0.470636 -2.67993e-16 0.0643506 3.85231e-16 0.00299092)
(-0.00172153 -0.0121039 1.08035e-17 0.00180917 3.31718e-17 -8.764e-05)
(-9.66626e-05 -0.000764636 -1.19082e-19 0.000120862 -9.58516e-19 -2.41989e-05)
(-0.000147081 -0.000497128 1.98046e-20 0.000140351 -3.34069e-19 6.73092e-06)
(-0.000127348 -0.000195466 -3.08074e-20 0.000108007 6.91624e-21 1.93412e-05)
(-0.204562 -0.389381 3.60628e-16 0.214 2.50583e-16 -0.00943817)
(-3.59818 -3.62828 7.21029e-14 3.52138 -4.42547e-15 0.0767929)
(0.0420085 -0.0144066 3.674e-19 -0.0403941 4.18896e-19 -0.00161439)
(0.06833 -0.00939808 5.28025e-19 -0.0665101 -1.24682e-17 -0.00181987)
(0.0655408 0.00650772 -8.15736e-18 -0.0649441 2.38968e-19 -0.000596693)
(0.0386677 0.0150097 2.79605e-18 -0.0388564 1.35577e-17 0.000188731)
(0.0166322 0.0127254 9.59785e-18 -0.0169593 -7.10046e-18 0.000327154)
(0.00938277 0.0123561 -4.85595e-18 -0.00977898 -4.86816e-18 0.000396211)
(0.00572202 0.0145328 -2.86234e-18 -0.00613349 -4.75431e-18 0.000411474)
(0.00131229 0.016602 -1.07639e-17 -0.00152733 4.49261e-18 0.000215041)
(-0.00364697 0.0172398 -1.31822e-18 0.00385176 7.1556e-18 -0.000204796)
(-0.00837077 0.0166253 -4.76377e-18 0.0091488 1.29199e-18 -0.000778028)
(-0.0123956 0.0152115 2.91783e-18 0.0138787 -9.17598e-18 -0.0014831)
(-0.0155029 0.0133952 -1.38684e-18 0.0178067 -3.16551e-18 -0.0023038)
(-0.0176385 0.0115081 3.6963e-18 0.0208436 9.62871e-18 -0.00320514)
(-0.0189183 0.0099875 -7.37213e-18 0.0230748 -1.37707e-18 -0.00415646)
(-0.0202039 0.00939192 -2.98039e-18 0.0254812 -9.58425e-18 -0.0052773)
(-0.0204239 0.00909246 -2.58126e-17 0.0266429 7.44592e-19 -0.00621902)
(-0.0218222 0.0101205 -2.57789e-18 0.0294392 7.37196e-19 -0.00761696)
(-0.0210516 0.0108639 -9.72104e-20 0.029346 -1.33833e-18 -0.0082944)
(-0.00869363 0.00514267 -2.42059e-18 0.0124791 9.44295e-19 -0.00378542)
(-0.000944946 0.000640454 3.62423e-19 0.00139149 -1.02132e-19 -0.000446545)
(-0.00285613 0.00217139 -1.25393e-17 0.00430663 4.26883e-18 -0.0014505)
(-0.0173914 0.0143821 -1.29683e-17 0.0268976 1.93043e-18 -0.00950624)
(-0.0199859 0.0175838 5.50496e-18 0.0320196 -2.95179e-18 -0.0120337)
(-0.000699544 0.000664331 3.36542e-18 0.00118102 -3.78706e-19 -0.000481474)
(-0.00126919 0.0014103 -6.28352e-18 0.00227841 5.96741e-19 -0.00100921)
(-0.00261129 0.00365315 -1.24076e-17 0.00493411 -4.62746e-19 -0.00232282)
(-0.00500826 0.00900766 3.08389e-19 0.00966144 1.33914e-18 -0.00465318)
(-0.00613513 0.0140178 1.27754e-20 0.0116016 6.68421e-19 -0.00546642)
(-0.0053008 0.0147074 -1.04469e-20 0.00953762 -1.41955e-22 -0.00423682)
(-0.00475552 0.0151515 3.23683e-19 0.00804634 2.98983e-18 -0.00329082)
(-0.00331753 0.0115199 6.7201e-20 0.005241 -1.42355e-18 -0.00192347)
(-0.00208697 0.00757379 7.62917e-19 0.00306277 -2.19205e-18 -0.000975799)
(-0.00120807 0.00445999 1.53571e-17 0.0016458 3.60858e-19 -0.000437725)
(-0.000674828 0.00248846 5.85771e-18 0.000857661 -3.71472e-18 -0.000182834)
(-0.000375827 0.0013576 -2.26645e-18 0.000448196 4.34992e-19 -7.23685e-05)
(-0.000145282 0.000512056 6.8719e-19 0.000165002 8.26528e-20 -1.97191e-05)
(-0.000730249 0.00244219 -4.70442e-18 0.000777656 -6.46185e-19 -4.74074e-05)
(-0.0399711 0.120489 -1.71045e-16 0.0455095 -2.38422e-17 -0.00553833)
(-1.16402 4.03307 -1.01478e-14 1.22424 -1.97327e-15 -0.0602275)
(0.056577 -0.0316551 -1.5079e-19 -0.058357 2.6622e-19 0.00178003)
(0.0449775 -0.0386715 -5.23219e-18 -0.0472137 -8.77661e-18 0.00223622)
(0.0353972 -0.0481843 3.78693e-18 -0.0383626 4.56412e-18 0.00296536)
(0.0231719 -0.0558227 5.14795e-18 -0.0271888 7.28964e-18 0.00401686)
(0.00890052 -0.0605753 1.01276e-17 -0.0140013 1.44576e-17 0.00510074)
(-0.007166 -0.0617765 -3.19195e-17 0.00077592 -4.60128e-17 0.00639008)
(-0.0237058 -0.058741 2.32066e-17 0.0157343 3.52585e-17 0.00797149)
(-0.03912 -0.0514751 3.05807e-17 0.0295252 2.93393e-17 0.00959477)
(-0.0523516 -0.0402291 -1.68303e-18 0.0410456 3.3549e-18 0.011306)
(-0.0619557 -0.0260544 2.56195e-17 0.0489237 3.61939e-17 0.013032)
(-0.0671992 -0.0104132 -4.84978e-17 0.0526423 -6.43703e-18 0.0145569)
(-0.0681252 0.00523684 7.38582e-17 0.0522297 7.43078e-17 0.0158955)
(-0.0652734 0.019603 3.59706e-17 0.0482922 1.64287e-17 0.0169812)
(-0.0595273 0.0319543 1.57265e-17 0.0417113 -1.4616e-17 0.017816)
(-0.0523636 0.0420666 5.42091e-17 0.034128 5.01935e-17 0.0182356)
(-0.0452462 0.0504607 -1.35967e-16 0.0269595 -1.3184e-16 0.0182867)
(-0.0336397 0.0497161 2.79524e-17 0.0180994 4.33279e-17 0.0155403)
(-0.0164344 0.0309462 1.47985e-16 0.00797716 4.28048e-17 0.0084572)
(-0.0338683 0.0797728 1.12547e-16 0.0148403 7.95368e-17 0.0190281)
(-0.00513514 0.0150548 -6.37956e-18 0.00206348 -4.27748e-19 0.00307167)
(-0.0134985 0.0507077 2.46793e-17 0.00492821 -5.45739e-17 0.00857027)
(-0.0155673 0.0818413 7.86606e-18 0.00440461 6.38873e-17 0.0111627)
(-0.0320129 0.353979 6.71323e-16 -0.00604306 -1.56167e-16 0.038056)
(0.106651 0.8231 -1.31455e-15 -0.193972 -5.2918e-16 0.0873209)
(0.397783 0.286877 1.99809e-17 -0.497579 3.3385e-17 0.0997959)
(0.547236 -0.321045 -1.10935e-15 -0.704899 3.11212e-16 0.157662)
(0.303641 -0.554323 8.09559e-17 -0.372619 1.56139e-17 0.0689782)
(0.724886 -2.3834 -1.22758e-16 -0.770339 -1.78261e-19 0.0454533)
(0.228979 -1.58722 -1.3776e-15 -0.167077 9.43145e-16 -0.0619024)
(0.0617193 -1.08524 -1.46054e-15 0.00878012 3.47276e-17 -0.0704995)
(0.0037936 -0.820809 3.00142e-15 0.0500642 -8.4069e-16 -0.0538578)
(-0.0106965 -0.363314 1.67404e-15 0.0353547 7.49274e-16 -0.0246582)
(-0.00961881 -0.0933724 4.64263e-17 0.0112355 3.98705e-16 -0.00161664)
(-0.00168533 -0.0315965 8.58464e-17 0.00214992 -5.82968e-17 -0.000464588)
(-0.00119468 -0.00775961 5.132e-18 0.00126138 -2.95064e-18 -6.67073e-05)
(-0.00130485 -0.00419812 -1.11291e-18 0.00124656 -3.23116e-18 5.82895e-05)
(-0.000119471 -0.000287256 -6.17568e-21 0.000111053 -1.78451e-19 8.41813e-06)
(-0.0547998 -0.189303 3.47533e-16 0.0421534 -1.54793e-16 0.0126464)
(-0.450913 -3.06572 -1.66306e-13 1.34195 3.36959e-14 -0.891041)
(0.0673533 -0.0214829 -1.66132e-18 -0.0689473 -2.81383e-18 0.00159399)
(0.0412147 -0.00493907 -4.23738e-19 -0.0418436 2.23808e-18 0.000628902)
(0.00906275 0.000912194 2.31501e-18 -0.00916369 1.70051e-18 0.000100938)
(0.00589452 0.00204919 -1.2235e-18 -0.00591112 -1.76848e-19 1.66021e-05)
(0.00287116 0.00190721 4.51842e-20 -0.00286709 1.19151e-19 -4.07419e-06)
(0.00199304 0.00225749 4.69739e-19 -0.00199774 1.13136e-18 4.6999e-06)
(0.00129207 0.00267718 3.81353e-19 -0.00130176 3.17875e-19 9.69308e-06)
(0.000528999 0.00299747 2.57781e-18 -0.000538655 8.84185e-19 9.65593e-06)
(-0.000284272 0.00315133 9.52708e-19 0.000262365 -6.27232e-19 2.1907e-05)
(-0.00112616 0.00315211 1.63583e-18 0.00106946 1.53647e-19 5.67009e-05)
(-0.00197403 0.00300044 -3.16437e-18 0.00185426 -3.44819e-19 0.000119771)
(-0.00279998 0.0026897 -2.05133e-18 0.00258248 2.69242e-18 0.000217508)
(-0.00357047 0.00221203 5.54502e-18 0.0032081 -2.4298e-18 0.000362368)
(-0.00424781 0.00158419 2.38735e-18 0.00367548 -2.27447e-20 0.000572331)
(-0.00489995 0.000859723 -5.89546e-18 0.00403954 3.30228e-18 0.000860409)
(-0.00528354 4.22365e-06 -3.54206e-18 0.00408292 5.42042e-18 0.00120062)
(-0.00576166 -0.000918907 1.62418e-17 0.00410288 -6.60784e-18 0.00165878)
(-0.00568548 -0.00178635 1.39675e-17 0.00364515 -2.78406e-18 0.00204033)
(-0.000797947 -0.000368814 8.23999e-19 0.000456243 -1.29742e-19 0.000341704)
(-0.000278244 -0.000170835 -1.19486e-19 0.000140419 2.3331e-19 0.000137826)
(-0.00376813 -0.00295094 2.96506e-17 0.00166376 -1.84083e-18 0.00210437)
(-0.000149011 -0.000151093 1.97653e-20 5.41378e-05 -8.58429e-20 9.48735e-05)
(-0.000549323 -0.000758583 -1.15895e-20 0.000126709 -1.58259e-20 0.000422614)
(-0.00061792 -0.00132536 -6.87841e-20 -7.52715e-05 6.74456e-21 0.000693192)
(-0.000506059 -0.00246671 2.51827e-19 -0.000845517 -6.15373e-19 0.00135158)
(0.000114013 -0.0024388 3.07946e-17 -0.00163184 -2.1168e-18 0.00151783)
(0.000575416 -0.00205728 -7.41623e-19 -0.00207614 4.59112e-20 0.00150073)
(0.00138362 -0.00289867 -5.0625e-18 -0.00372651 -2.96393e-19 0.0023429)
(0.00204012 -0.00353785 -1.19117e-19 -0.00473407 2.32939e-20 0.00269395)
(0.00273838 -0.00479092 -1.16807e-17 -0.00569631 -3.30184e-19 0.00295794)
(0.00362187 -0.00691863 2.54996e-17 -0.00686081 4.2055e-18 0.00323894)
(0.00383047 -0.00811255 -1.91701e-18 -0.00666998 -2.85339e-20 0.00283951)
(0.00416764 -0.00974599 -8.07976e-17 -0.0066811 2.34279e-17 0.00251346)
(0.00452236 -0.0113883 -2.09197e-19 -0.00666767 1.59365e-17 0.00214531)
(0.00460911 -0.0123143 2.36443e-18 -0.006341 -2.14364e-17 0.0017319)
(0.00526943 -0.0135014 -6.85011e-18 -0.00676678 3.04605e-17 0.00149735)
(0.00288093 -0.00806023 1.00749e-17 -0.00339408 -4.32562e-17 0.000513145)
(0.0198707 -0.0174503 5.00778e-16 -0.0243096 8.5355e-17 0.0044389)
(-0.205076 1.99515 2.68589e-14 0.172263 6.31873e-15 0.0328129)
(0.0458798 -0.0257013 -1.15638e-18 -0.0454769 -1.22218e-18 -0.000402967)
(0.0369768 -0.0303016 -1.55122e-18 -0.0365299 -3.01016e-18 -0.000446927)
(0.0287713 -0.0350636 3.57058e-18 -0.0281194 3.43947e-18 -0.000651855)
(0.0205315 -0.038854 2.21524e-18 -0.0196404 4.80125e-18 -0.000891143)
(0.0120394 -0.040786 4.24381e-19 -0.0108874 1.52136e-19 -0.00115201)
(0.00347508 -0.0412269 2.1815e-20 -0.00198395 1.20778e-18 -0.00149113)
(-0.00467953 -0.0401812 3.20779e-17 0.00657288 3.18733e-17 -0.00189335)
(-0.0120613 -0.0377698 -3.1513e-17 0.0144223 -3.63247e-17 -0.00236099)
(-0.0185978 -0.0342801 5.31104e-18 0.0215402 1.43631e-18 -0.00294243)
(-0.0241086 -0.0300633 4.423e-17 0.0277088 3.25485e-17 -0.00360014)
(-0.0286089 -0.0253394 4.01952e-17 0.0329898 3.77142e-17 -0.00438087)
(-0.0321563 -0.0203036 4.63438e-17 0.0374418 1.62428e-17 -0.00528547)
(-0.0347969 -0.0151234 -5.59981e-17 0.0411363 -4.09689e-17 -0.00633935)
(-0.0365703 -0.00988658 -4.28687e-17 0.0441196 -3.78618e-17 -0.00754931)
(-0.037413 -0.00471137 4.0211e-18 0.0463414 -1.35484e-17 -0.00892839)
(-0.0373737 0.000262118 -1.2341e-16 0.047806 4.28219e-18 -0.0104323)
(-0.0366109 0.00502517 -4.1714e-17 0.0487588 -4.85146e-17 -0.0121479)
(-0.0356603 0.0105834 -2.86106e-16 0.0497435 -2.12512e-16 -0.0140832)
(-0.0318955 0.0169609 3.31996e-17 0.0468911 -4.70125e-17 -0.0149956)
(-0.0246431 0.0230222 1.7042e-17 0.0383825 -3.82805e-17 -0.0137395)
(-0.00836301 0.0141024 -9.08045e-17 0.013965 -2.21409e-20 -0.005602)
(-0.00557494 0.0178687 1.54076e-17 0.010164 3.00937e-18 -0.00458902)
(-0.00947121 0.0703628 -2.53439e-16 0.0200822 -4.85838e-17 -0.010611)
(-0.000784155 0.174815 -1.94666e-16 0.0151672 1.98059e-16 -0.014383)
(0.00608691 0.0509452 1.39603e-17 -0.00356445 9.09241e-19 -0.00252246)
(9.51365e-06 4.83983e-05 5.54856e-20 -7.57076e-06 2.70994e-20 -1.94289e-06)
(1.46016e-05 3.22424e-05 -4.66672e-21 -1.56659e-05 2.31634e-21 1.06429e-06)
(1.77206e-05 -6.24131e-06 6.27928e-21 -2.03858e-05 3.90407e-22 2.66517e-06)
(1.52228e-05 -3.79109e-05 8.10562e-20 -1.60221e-05 -3.10162e-21 7.99295e-07)
(1.18899e-05 -6.4733e-05 -7.65208e-21 -1.21448e-05 5.76342e-20 2.54907e-07)
(8.27482e-06 -8.02589e-05 -1.23926e-19 -8.55189e-06 -1.04382e-19 2.77064e-07)
(7.84359e-06 -0.000202112 5.48357e-19 -8.61812e-06 -5.00148e-19 7.74524e-07)
(-0.000826705 -0.0373951 1.00948e-16 0.000306924 -7.18745e-18 0.000519781)
(0.000966543 -0.0281318 -2.9784e-17 -0.00102249 -1.9957e-16 5.59487e-05)
(-0.00334335 -0.0255134 -5.0261e-17 0.00367579 -2.15468e-17 -0.000332443)
(-0.00344237 -0.0127423 3.01154e-18 0.00332372 1.90413e-17 0.000118652)
(-0.000113182 -0.000319252 -9.09158e-19 0.000103385 1.62128e-19 9.79735e-06)
(-0.0268181 -0.119567 -3.90486e-16 0.0322495 5.82565e-17 -0.00543138)
(2.16446 -3.34526 9.96328e-14 -0.206327 -2.1623e-14 -1.95813)
(0.0165968 -0.00562655 -1.26973e-19 -0.0165599 3.86394e-19 -3.68987e-05)
(0.00755438 -0.00111732 1.6272e-19 -0.00755203 1.44391e-18 -2.35065e-06)
(0.00471043 0.000311822 4.96763e-19 -0.00473069 6.19084e-19 2.02608e-05)
(0.00499664 0.00152037 1.20752e-18 -0.00500124 -6.68132e-19 4.59401e-06)
(0.0037654 0.00224882 -1.98433e-18 -0.00376049 -1.0566e-18 -4.90897e-06)
(0.00177796 0.00179138 -2.97656e-19 -0.00177797 -7.49338e-19 1.5282e-08)
(0.00292986 0.00512212 -3.56923e-18 -0.00294645 -1.44787e-18 1.65885e-05)
(0.00149109 0.00572979 -3.60882e-18 -0.00151243 2.42199e-19 2.13467e-05)
(-2.06647e-05 0.00594582 -1.26712e-19 2.15508e-06 -1.0246e-18 1.85096e-05)
(-0.00149784 0.00582704 2.38903e-18 0.0014911 -1.47002e-18 6.73482e-06)
(-0.00283092 0.00539499 1.41694e-18 0.00285401 3.19208e-18 -2.30846e-05)
(-0.0039515 0.00475607 5.89098e-18 0.00402701 -2.46131e-18 -7.55132e-05)
(-0.00482447 0.00399204 -5.64444e-18 0.004974 -2.38943e-18 -0.000149528)
(-0.00546426 0.00320358 3.96691e-19 0.00570931 1.18397e-18 -0.000245049)
(-0.00590528 0.00247466 8.3996e-18 0.00627004 -2.34909e-18 -0.000364762)
(-0.00621223 0.00183814 1.60006e-17 0.00671048 -2.41765e-18 -0.000498253)
(-0.00642222 0.00130617 -1.41983e-17 0.00706474 2.80093e-19 -0.000642518)
(-0.00657866 0.000874028 -2.23908e-18 0.00737295 -3.0035e-18 -0.000794286)
(-0.00676561 0.000504131 -9.92888e-19 0.00772325 6.60846e-19 -0.00095764)
(-0.00687112 0.000119855 2.99829e-17 0.0079764 -8.05126e-18 -0.00110528)
(-0.00694966 -0.000318735 3.53175e-18 0.00819734 -3.15919e-18 -0.00124769)
(-0.00702008 -0.000861974 -3.50582e-17 0.00840979 6.65023e-18 -0.00138971)
(-0.00707419 -0.0016166 -6.14416e-19 0.00860119 1.55492e-18 -0.001527)
(-0.000125944 -4.7225e-05 -3.75858e-21 0.000155971 -5.29178e-21 -3.00269e-05)
(-0.000298415 -0.000158906 -1.19323e-20 0.000383246 8.62391e-22 -8.48313e-05)
(-0.000461518 -0.000303611 -3.1928e-18 0.000629986 6.12848e-19 -0.000168468)
(-0.000546326 -0.000413106 5.35158e-20 0.000799348 -1.10282e-20 -0.000253022)
(-0.000547069 -0.000462416 1.21006e-18 0.000858418 -1.42506e-19 -0.000311349)
(-0.00051521 -0.000482983 -7.86754e-20 0.000870414 -4.18367e-22 -0.000355204)
(-0.000441385 -0.000475519 -3.24434e-20 0.000811248 -6.36038e-19 -0.000369863)
(-0.000388512 -0.000508917 -5.14377e-18 0.000790928 6.70599e-19 -0.000402417)
(-0.000341152 -0.000601283 -6.87868e-20 0.000792219 -3.31478e-21 -0.000451067)
(-0.000274619 -0.000817675 4.42639e-19 0.000795246 -9.99892e-19 -0.000520626)
(-0.000144348 -0.00140941 3.04336e-17 0.000805702 7.11485e-18 -0.000661354)
(0.00017422 -0.0025532 -6.96247e-19 0.000607368 -8.60596e-20 -0.000781589)
(0.000964577 -0.00450471 -8.08889e-17 -0.000151535 -9.94262e-19 -0.000813042)
(0.00410874 -0.0138342 6.87209e-16 -0.00279048 9.3986e-17 -0.00131826)
(0.00332264 -0.00681652 -6.00558e-19 -0.00302525 -1.13754e-18 -0.000297396)
(0.229519 0.333139 7.38757e-16 -0.240521 -4.10875e-15 0.011002)
(0.00716474 -0.00399119 -1.88184e-19 -0.00719747 -1.30095e-19 3.27296e-05)
(0.00852496 -0.00695214 -6.15999e-19 -0.00860415 -8.86015e-19 7.9187e-05)
(0.00599909 -0.00727044 1.81031e-18 -0.00608112 2.29354e-18 8.20332e-05)
(0.00405964 -0.00769312 -6.88178e-18 -0.00415604 -7.28759e-18 9.64058e-05)
(0.00226168 -0.0079131 1.64058e-18 -0.00238228 1.19664e-18 0.000120596)
(0.000504824 -0.00801403 3.45468e-18 -0.000651326 3.41009e-18 0.000146502)
(-0.00123764 -0.00787278 -3.32698e-18 0.0010516 -3.93565e-18 0.000186038)
(-0.00292819 -0.00742043 -1.00781e-18 0.00269029 -3.65066e-20 0.000237899)
(-0.0045402 -0.00667118 -1.33791e-17 0.0042386 -1.14801e-17 0.000301604)
(-0.0060176 -0.00563022 -3.07905e-18 0.00562843 -4.92615e-18 0.000389174)
(-0.00729946 -0.0042974 3.20618e-19 0.00680114 -1.12362e-18 0.000498314)
(-0.00833072 -0.00269985 -9.40877e-18 0.00769532 -1.01175e-17 0.000635399)
(-0.00906155 -0.00087973 4.96477e-18 0.00825525 5.17918e-18 0.000806298)
(-0.00944938 0.00111865 -2.15174e-17 0.00843261 -1.07093e-17 0.00101678)
(-0.00946012 0.00324095 4.47232e-18 0.0081877 2.48531e-18 0.00127241)
(-0.00906411 0.0054145 2.67996e-17 0.00749403 2.05505e-17 0.00157008)
(-0.00821904 0.00756225 -3.95543e-17 0.0063149 -1.11522e-17 0.00190414)
(-0.0071533 0.00967131 -8.1392e-18 0.004933 3.55233e-17 0.0022203)
(-0.00613334 0.0123084 -3.34126e-18 0.00352654 -5.52162e-18 0.0026068)
(-0.00445093 0.0145432 -4.91389e-17 0.00160166 -7.4389e-18 0.00284927)
(-0.00225949 0.0168579 6.21368e-17 -0.000815489 3.67385e-17 0.00307498)
(0.000439482 0.0167019 2.16671e-18 -0.0032827 -3.1889e-18 0.00284322)
(0.00183835 0.0106153 3.60964e-17 -0.00349437 9.80925e-18 0.00165602)
(0.000464134 0.00157506 4.29484e-18 -0.000677852 1.34684e-18 0.000213717)
(0.00379758 0.00960734 -2.72571e-18 -0.00486046 -2.51478e-19 0.00106288)
(1.64151e-05 3.4447e-05 1.12852e-21 -1.98577e-05 -4.32311e-21 3.44257e-06)
(1.44497e-05 3.37008e-05 1.23394e-20 -1.6292e-05 -3.00619e-21 1.84231e-06)
(1.23702e-05 3.09373e-05 -5.43319e-21 -1.27508e-05 -7.95098e-21 3.80633e-07)
(1.219e-05 2.28576e-05 -7.9132e-20 -1.21252e-05 -5.33349e-21 -6.48184e-08)
(1.23895e-05 8.28035e-06 7.28162e-21 -1.25237e-05 3.27385e-22 1.34233e-07)
(1.14548e-05 -1.15451e-05 -1.23907e-20 -1.18414e-05 1.08934e-20 3.86546e-07)
(8.29547e-06 -3.64088e-05 -2.27223e-19 -8.63528e-06 -1.62648e-19 3.39801e-07)
(2.59269e-06 -5.33499e-05 -2.01555e-20 -3.27986e-06 -7.28313e-20 6.87165e-07)
(1.84396e-06 -4.6391e-05 -6.43812e-19 -2.01525e-06 3.97276e-20 1.7129e-07)
(-0.000388905 -0.0144071 1.15429e-17 0.000824831 4.1136e-17 -0.000435926)
(-0.00469369 -0.0236817 8.06661e-20 0.00454506 -1.47285e-20 0.000148631)
(-0.000114429 -0.000385385 2.49809e-19 0.000101552 2.21785e-18 1.28771e-05)
(-0.00734276 -0.0755304 5.81945e-18 0.0145486 2.44694e-17 -0.00720587)
(1.68505 -3.54682 -6.18304e-14 0.0765163 6.83529e-15 -1.76156)
(0.00733841 -0.00250773 4.46548e-19 -0.00737516 -1.03427e-19 3.67571e-05)
(0.00811436 -0.00126812 -1.42785e-18 -0.00813672 -1.44052e-18 2.23571e-05)
(0.0115178 0.00054917 -2.21249e-18 -0.0115591 2.90924e-18 4.12904e-05)
(0.0265847 0.00724248 1.48416e-17 -0.0265522 -2.18865e-21 -3.2452e-05)
(0.030878 0.0167962 -3.9186e-18 -0.030799 -2.45119e-17 -7.90002e-05)
(0.0255965 0.0233762 -1.45658e-17 -0.0255605 1.88967e-17 -3.59654e-05)
(0.0186561 0.0286106 2.82804e-17 -0.0186765 1.61935e-17 2.04026e-05)
(0.0107711 0.0321095 -1.59775e-17 -0.0108044 -1.65868e-17 3.33425e-05)
(0.00255762 0.0333028 -2.48378e-17 -0.0026044 -5.98558e-18 4.67837e-05)
(-0.00535538 0.0329056 -2.11322e-17 0.00526561 9.29795e-18 8.97702e-05)
(-0.0125681 0.0309682 3.27439e-17 0.0124133 -4.77652e-18 0.000154825)
(-0.0187846 0.0278866 -2.83226e-17 0.0185314 -5.32399e-18 0.000253238)
(-0.0237119 0.0238456 -2.76791e-17 0.0233053 1.69789e-17 0.000406593)
(-0.0274294 0.0193996 3.0205e-17 0.0267959 5.3082e-18 0.000633506)
(-0.030076 0.0149269 -6.48689e-17 0.0291326 1.58525e-17 0.000943434)
(-0.031884 0.0105979 -2.74387e-18 0.0305226 -2.86445e-17 0.00136134)
(-0.0329708 0.00647971 1.20523e-17 0.031088 1.52028e-17 0.00188279)
(-0.0334644 0.00258712 -1.01049e-16 0.0309927 1.29898e-17 0.00247176)
(-0.0334476 -0.00111239 4.35913e-17 0.0303918 -4.67137e-18 0.00305587)
(-0.0329267 -0.004748 -2.00674e-16 0.0293242 2.78668e-17 0.00360257)
(-0.0318656 -0.00842199 -1.17799e-17 0.0277928 3.55183e-18 0.00407283)
(-0.0301522 -0.0122862 1.88685e-16 0.0256519 -1.22636e-17 0.00450038)
(-0.0275466 -0.016347 1.78311e-16 0.0227483 -2.65166e-17 0.00479831)
(-0.0237471 -0.0204608 -1.72886e-16 0.0185955 1.52514e-17 0.00515165)
(-0.0177002 -0.0224558 -1.59934e-18 0.0123285 4.66255e-20 0.00537166)
(-0.011191 -0.0215525 -1.59966e-16 0.00593017 -4.16528e-18 0.00526084)
(-0.00602406 -0.0197573 8.50015e-19 0.000813977 6.02307e-20 0.00521008)
(-0.00208192 -0.0176941 5.33615e-20 -0.00310013 2.79257e-18 0.00518205)
(0.000972653 -0.0156059 9.21874e-19 -0.00608297 -1.32038e-19 0.00511032)
(0.00325053 -0.0136197 5.06579e-17 -0.0081349 6.06322e-18 0.00488437)
(0.00476672 -0.0116649 -2.19096e-19 -0.00928419 -1.29672e-17 0.00451746)
(0.0056471 -0.0096596 -4.82421e-18 -0.00975139 -7.2704e-19 0.00410429)
(0.00605968 -0.00765611 -2.65545e-16 -0.009707 -5.23336e-17 0.00364732)
(0.00645606 -0.00616576 -2.30684e-16 -0.00977292 -1.31806e-17 0.00331686)
(0.00620943 -0.00462648 -2.8253e-19 -0.00908395 4.15742e-19 0.00287451)
(0.005416 -0.00359086 -2.65291e-16 -0.00735813 -9.09078e-17 0.00194213)
(0.00668916 -0.00409457 -2.06521e-17 -0.00865695 1.51316e-16 0.00196779)
(0.00276523 -0.0017202 7.87125e-19 -0.00324144 1.27443e-19 0.000476214)
(0.10305 0.0586373 -5.48399e-15 -0.120506 -8.0978e-17 0.0174557)
(0.0099164 -0.00557166 9.22397e-19 -0.00991727 6.62351e-19 8.7514e-07)
(0.00892442 -0.00724135 -6.23834e-19 -0.0089346 -3.99718e-19 1.01835e-05)
(0.00752557 -0.00893343 -7.41159e-20 -0.00752231 -1.11978e-19 -3.26221e-06)
(0.00572481 -0.010349 2.12024e-19 -0.00570288 -4.21984e-19 -2.19267e-05)
(0.00366323 -0.0114258 7.86322e-18 -0.00362757 7.44045e-18 -3.56586e-05)
(0.0013205 -0.0120751 -5.39255e-18 -0.00125577 -5.06026e-18 -6.47286e-05)
(-0.00114234 -0.0122134 -1.38515e-19 0.00123864 2.30015e-19 -9.62979e-05)
(-0.00358799 -0.0118565 1.90667e-17 0.00372186 1.61263e-17 -0.00013387)
(-0.00593029 -0.0110238 -2.68412e-18 0.00611499 6.45467e-19 -0.000184701)
(-0.00805415 -0.00976982 -2.32994e-17 0.00829743 -1.51725e-17 -0.000243281)
(-0.00988998 -0.00816188 7.66129e-18 0.0102083 5.84844e-18 -0.000318283)
(-0.0113915 -0.00626612 -2.11201e-17 0.0118046 -7.56522e-18 -0.000413086)
(-0.0125277 -0.00416357 -9.03112e-18 0.0130562 -3.63468e-18 -0.000528541)
(-0.0132917 -0.00191943 -1.55347e-17 0.0139655 6.95409e-18 -0.000673769)
(-0.0136856 0.000407401 1.34632e-18 0.0145416 7.42929e-19 -0.000855949)
(-0.0137216 0.00276484 1.50226e-17 0.0148067 3.39182e-18 -0.00108515)
(-0.013403 0.00511145 2.47052e-17 0.0147812 3.23495e-17 -0.00137814)
(-0.0127416 0.00745678 1.03406e-16 0.0144597 2.78591e-17 -0.00171809)
(-0.0116653 0.00998913 -4.73036e-17 0.0136947 -2.15343e-18 -0.00202943)
(-0.00996461 0.0126614 5.19122e-17 0.0122441 2.20838e-17 -0.0022795)
(-0.00750481 0.0154279 9.27173e-18 0.00995947 -2.62712e-17 -0.00245465)