/*--------------------------------*- C++ -*----------------------------------*\
| =========                 |                                                 |
| \\      /  F ield         | OpenFOAM: The Open Source CFD Toolbox           |
|  \\    /   O peration     | Version:  2312                                  |
|   \\  /    A nd           | Website:  www.openfoam.com                      |
|    \\/     M anipulation  |                                                 |
\*---------------------------------------------------------------------------*/
FoamFile
{
    version     2.0;
    format      ascii;
    arch        "LSB;label=32;scalar=64";
    class       volScalarField;
    location    "50";
    object      turbulenceProperties:epsilon;
}
// * * * * * * * * * * * * * * * * * * * * * * * * * * * * * * * * * * * * * //

dimensions      [0 2 -3 0 0 0 0];

internalField   nonuniform List<scalar> 
10720
(
0.0142454
0.0335055
0.101404
0.17649
0.247946
0.322047
0.41897
0.547166
0.731759
1.01298
1.4628
2.22442
3.54415
6.15143
11.6165
25.0498
60.9946
197.956
677.778
1350.41
1761.66
1968.98
2260.77
2321.69
3381.64
4061.28
6770.85
17785.3
25918.4
9376.44
1318.66
295.413
59.3088
0.799907
5.99025e-14
4.64045e-14
2.93152e-14
31.0171
1217.2
0.043223
0.0578785
0.119672
0.960371
0.330048
0.355961
0.455094
0.547748
0.639725
0.746358
0.889716
1.08138
1.33296
1.6991
2.44471
4.25143
9.8096
27.8094
57.1092
88.0875
119.29
159.685
222.873
337.266
531.835
791.976
989.656
828.719
465.763
178.083
44.7548
4.828
0.679593
0.215433
0.0261934
0.254275
0.00350693
37.88
2643.33
0.0616463
0.0819915
0.0762328
0.0673776
0.0555354
0.0445874
0.0367535
0.0311457
0.0271429
0.0240499
0.0213048
0.0185586
0.0147095
0.0238994
0.0257422
0.0254446
0.041903
0.0832908
0.3489
3.06629
16.0929
44.4176
97.4482
164.095
300.923
326.508
1533.03
9366.82
6769.1
1608.6
534.306
248.286
56.0104
0.854681
0.0198981
2.00582e-14
1.48864e-14
11.5028
608.794
0.0963904
0.0233881
0.0185646
0.09115
0.0237344
0.0146307
0.0142284
0.0145929
0.015093
0.0158462
0.0166061
0.0171326
0.0171768
0.0167171
0.0160747
0.0138856
0.0109038
0.0053225
2.10782e-05
0.111458
0.404889
0.00985853
0.0559003
2.25791
2.75675
5.15008
7.23579
7.73408
6.84611
4.50235
2.84895
1.49837
0.675411
0.267603
0.0960052
0.0150572
0.0817312
2.97125
240.931
0.0711853
0.071435
0.0706776
0.0703826
0.0704952
0.0710139
0.0720535
0.0734004
0.0749787
0.0766708
0.078408
0.0801941
0.0819653
0.0836994
0.0859565
0.0895361
0.0814711
0.0484684
0.12622
0.0210005
0.0194667
0.247075
1.40659
4.53674
12.9007
15.4469
56.2728
1193.41
1733.69
1127.86
435.058
163.208
78.8027
17.1693
1.86609
0.348909
1.59185e-14
9.72839
260.179
0.0926597
0.0424577
0.00983469
0.00732176
0.00306967
0.00228859
0.00232671
0.00253889
0.00279479
0.00312957
0.00354038
0.00400163
0.00448012
0.00496896
0.00565281
0.00618744
0.00724188
0.00776709
0.000752935
0.000316378
0.0060826
0.000259239
0.00137381
0.00247127
0.00394823
0.00404582
0.0043884
0.00922061
0.0142694
0.016509
0.019809
0.0289703
0.0384431
0.0466381
0.0507871
0.0542863
0.0321601
0.0303934
7.11483
0.0615857
0.0558625
0.0525853
0.0509055
0.0491556
0.0478666
0.0470133
0.0464267
0.0462175
0.0464291
0.0470551
0.0480886
0.0495172
0.0512839
0.0532618
0.0553885
0.0578732
0.0615383
0.0622456
0.0581249
0.0247804
0.0183147
0.0048351
0.0333369
0.00136627
15.343
6.72084e+06
158.377
143.289
115.581
83.4381
47.0055
10.3102
7.62128
2.97683
0.685994
0.00921708
5.09569
114.389
0.02102
0.00778472
0.00242386
0.00376002
0.000579586
0.000181803
0.00515349
0.00519044
0.00523219
0.00535797
0.00549966
0.00568467
0.00586673
0.00605787
0.00626819
0.00650522
0.00674852
0.00700433
0.00739635
0.00760522
0.00780385
0.00807891
0.00849205
0.000119738
0.000405678
0.000832481
0.00127077
0.0016282
0.00198495
0.00226796
0.00269904
0.00329962
0.00417904
0.00591828
0.00823751
0.00989681
0.0211174
0.0079255
0.123641
0.00485065
0.0105074
0.00771839
0.00604406
0.00466133
0.00369215
0.00305396
0.0025531
0.00235826
0.00251446
0.00288017
0.00340781
0.00409183
0.00493614
0.00597942
0.00723639
0.00868129
0.0107691
0.0146174
0.0177124
0.0214397
0.0211675
0.00893482
0.000350971
0.00142247
1.57995
4.30775e-05
212580
177540
156693
282055
842288
0.343717
5.16974
0.540858
0.55244
0.0127437
2.97435
81.3303
0.0027435
0.00446719
0.011291
0.0310257
0.0397037
0.0393438
0.0390214
0.0389847
0.0387672
0.0390431
0.0395136
0.0401471
0.0405534
0.0409133
0.0412853
0.0417104
0.0421325
0.042572
0.0430541
0.0433654
0.0434809
0.0434795
0.0433884
0.0431949
0.0428904
0.0425365
0.0420684
0.0413997
0.040449
0.0393603
0.0378677
0.0356908
0.0329586
0.031306
0.0278308
0.0208172
0.0222481
0.00460864
0.0118165
0.00176524
0.00251894
0.00253679
0.00248745
0.00261728
0.0028175
0.00299587
0.00320018
0.00343186
0.00368869
0.00398196
0.00429735
0.00463699
0.00501307
0.00543038
0.0058977
0.00641421
0.00704735
0.00788474
0.00847264
0.00927893
0.000944184
0.00442923
0.00397055
0.00435462
0.682407
1.95433e-05
1.89918e-05
1.12607e-05
4.66799e-06
1.50643e-06
3.74539e-07
3698.99
24.6382
0.76336
0.530482
0.000661005
83.1846
730.591
7.3644e-05
0.0277127
0.0509677
0.0542436
0.0543331
0.054777
0.0548772
0.0553744
0.0556241
0.0563062
0.0574302
0.058192
0.0588571
0.0596391
0.0604971
0.0614439
0.0624344
0.063529
0.0646158
0.0652837
0.0657748
0.0661259
0.0662991
0.0662668
0.0660868
0.065758
0.0651216
0.0642019
0.0627091
0.0611409
0.0596399
0.0568933
0.0532773
0.0495177
0.0456959
0.0397977
0.0367178
0.0203384
0.0112899
0.0111919
0.0119267
0.0132739
0.0146082
0.0163788
0.018222
0.0199091
0.0214206
0.0227591
0.0239345
0.0249757
0.0259041
0.0267398
0.027505
0.0282228
0.0289191
0.0296033
0.0302085
0.0300343
0.0290903
0.0282838
0.0252408
0.0225356
0.0199916
0.0262919
2.28603
14226
1.42133e-05
1.23783e-05
7.03241e-06
2.99516e-06
1.06599e-06
3.80136e-07
1.50465e-07
2.04709
3.64756
1.62185e-07
3.91332e-09
35049.3
0.0399475
0.0558486
0.0446922
0.0283064
0.0244236
0.0251434
0.0257252
0.0264554
0.0271137
0.0277913
0.0289456
0.0297667
0.0305141
0.0315349
0.0325708
0.0336662
0.0347418
0.0360066
0.0370288
0.0374914
0.0383721
0.0394258
0.0400887
0.0406233
0.0410188
0.0412299
0.0411691
0.0408915
0.0403726
0.0396557
0.0390254
0.0383563
0.0375721
0.0366152
0.0356189
0.0337912
0.0339951
0.0280571
0.000430988
0.0465192
0.04438
0.0443099
0.0448867
0.0461943
0.0473148
0.0482988
0.0491768
0.0500362
0.0509034
0.0517822
0.052683
0.0536174
0.0546081
0.0556833
0.0568683
0.0581818
0.0594974
0.0611216
0.062116
0.0605983
0.0566628
0.0528047
0.0464652
0.0492014
3.86752
22497.2
9.21104e-06
1.10939e-05
8.33689e-06
4.51029e-06
2.04059e-06
9.40477e-07
5.15221e-07
3.31454e-07
1.5977e-07
5.90682e-08
2.59856e-08
6.7843e-09
0.0532435
0.0298182
0.00820118
0.00463012
0.00321774
0.00342619
0.00357434
0.00369165
0.00380417
0.00393552
0.00415811
0.000351052
0.000967214
0.00157469
0.00217569
0.00278527
0.00342584
0.00407331
0.00474636
0.00541381
0.00601477
0.00661318
0.00718307
0.00770651
0.00820327
0.00864941
0.00905439
0.00943333
0.00977999
0.0100833
0.0105729
0.0115083
0.0127855
0.0142697
0.0159748
0.0173785
0.0198107
0.0241238
0.000433334
0.0416755
0.037777
0.036115
0.0347828
0.0335272
0.0325722
0.031973
0.031668
0.0316607
0.0318906
0.0322941
0.032867
0.0336021
0.0345159
0.0356322
0.0369555
0.0384915
0.0402968
0.0428754
0.0463328
0.0493437
0.0518877
0.0542321
0.0521119
0.0567143
4.27726
24276.5
5.42245e-06
8.69588e-06
8.41505e-06
5.66506e-06
3.11777e-06
1.70117e-06
1.04576e-06
7.24705e-07
4.26722e-07
1.97783e-07
9.84658e-08
3.52136e-08
0.0160854
0.00561935
0.00105382
0.000492091
0.000527158
0.000523774
0.000517924
0.000504963
0.000493068
0.000486113
0.000476821
0.000527305
0.000626376
0.000728735
0.000835626
0.000950927
0.00107686
0.00120763
0.00134662
0.00148942
0.00162544
0.00176511
0.00190501
0.00203984
0.00216862
0.0022867
0.00239645
0.00249994
0.00259551
0.00267978
0.00279306
0.00295594
0.00331811
0.00350562
3.69265e-05
0.00226236
0.00467015
0.0128554
0.000249552
0.00664027
0.00902423
0.00677741
0.0052402
0.00408814
0.00325561
0.0027241
0.0024563
0.00241908
0.00252697
0.00274418
0.00309398
0.00357526
0.00420735
0.0050294
0.00604641
0.00727206
0.00867726
0.0103669
0.0138495
0.0189513
0.0248693
0.0316527
0.0357543
0.0475975
3.63114
20385.7
2.9763e-06
6.16502e-06
7.50847e-06
6.19645e-06
4.06387e-06
2.54036e-06
1.70013e-06
1.23751e-06
8.20788e-07
4.37509e-07
2.4126e-07
1.20048e-07
0.00271792
0.000914559
0.00291325
0.00363044
0.00378503
0.00363764
0.00353749
0.00345505
0.00337777
0.00332121
0.00326757
0.00326944
0.003307
0.00334323
0.00336929
0.00338713
0.00339179
0.00337447
0.00334
0.00329414
0.00324194
0.00318548
0.00313041
0.00308037
0.00303141
0.002979
0.00292044
0.00285707
0.00278761
0.00270704
0.00258123
0.00224507
0.00246355
0.00167314
0.00022012
0.000166064
0.00319598
0.00543287
0.000838826
0.000785817
0.00112728
0.00105302
0.000960623
0.000937014
0.000937423
0.000934433
0.00096426
0.00101796
0.00108057
0.00116086
0.00125886
0.00137665
0.00152372
0.00170637
0.00192922
0.00219737
0.00250502
0.00296724
0.00348228
0.00433957
0.00339813
0.00913318
0.0139666
0.0286734
2.37893
13310.2
1.54355e-06
4.024e-06
6.05255e-06
6.04107e-06
4.66366e-06
3.29306e-06
2.37485e-06
1.79329e-06
1.27632e-06
7.48778e-07
4.47897e-07
2.74723e-07
0.00271011
0.00744425
0.018241
0.0223203
0.0222719
0.0220046
0.0218687
0.0218504
0.0219021
0.0220099
0.0221177
0.0222936
0.0225026
0.0227055
0.0228988
0.023066
0.0231458
0.0231544
0.0231071
0.0230158
0.0228917
0.0227579
0.0226214
0.0224551
0.0222368
0.0219631
0.0216265
0.0212352
0.0207792
0.0202697
0.01971
0.0187902
0.0174686
0.0157229
0.0136568
0.0114403
0.00877676
0.00805645
0.0031265
0.00418192
0.000253162
0.00127782
0.00223868
0.00301725
0.00366261
0.00415667
0.00455178
0.00488736
0.00516582
0.00540046
0.00560298
0.00577639
0.00593613
0.00609473
0.00625289
0.00641736
0.00655524
0.00725471
0.00646448
0.00459661
0.00414622
0.00522211
0.00604509
0.0163863
1.53336
8603.73
7.62163e-07
2.44988e-06
4.47385e-06
5.32945e-06
4.79469e-06
3.79639e-06
2.94115e-06
2.33064e-06
1.73851e-06
1.09876e-06
7.04884e-07
4.94265e-07
0.0144093
0.0248187
0.0246431
0.0226882
0.0227357
0.0226253
0.022608
0.0227029
0.0228813
0.0231206
0.0233339
0.0236089
0.0239273
0.0242043
0.0244368
0.0245908
0.0246802
0.0247151
0.0247046
0.0246579
0.0245867
0.0244988
0.0243799
0.0242083
0.0239748
0.0236844
0.0233358
0.0229351
0.0224699
0.0219543
0.0214323
0.0208572
0.020082
0.0190824
0.0177626
0.0163163
0.0138675
0.0110439
0.00869227
0.0184215
0.0179483
0.0186363
0.0194056
0.0198968
0.0202601
0.0205657
0.0208404
0.0211189
0.0214055
0.0217072
0.0220245
0.0223417
0.0226854
0.023063
0.0234335
0.023748
0.024016
0.0242101
0.0240432
0.0228092
0.0216125
0.0188903
0.0142641
0.0173372
1.5442
8742.11
3.59932e-07
1.40308e-06
3.06496e-06
4.30255e-06
4.46742e-06
3.94546e-06
3.28287e-06
2.71325e-06
2.12909e-06
1.45211e-06
9.99756e-07
7.64732e-07
0.0257503
0.0186296
0.00894465
0.00584279
0.00590084
0.00606083
0.00616724
0.00627001
0.00640547
0.00657006
0.00675494
0.00692537
0.00710312
0.00727655
0.00743882
0.00758752
0.00771876
0.00783057
0.00792274
0.00799696
0.00805268
0.00808846
0.00810471
0.00810596
0.00809485
0.00807108
0.00803396
0.00798496
0.00791928
0.00783638
0.00776584
0.00792396
0.00828363
0.00880996
0.00934308
0.00968423
0.00986177
0.00942193
0.00850754
0.02251
0.0204829
0.0198323
0.0195241
0.0191378
0.0187963
0.0186177
0.0185369
0.0185536
0.0186634
0.0188508
0.0191031
0.0193799
0.0197152
0.0201181
0.0205321
0.0209625
0.0214276
0.0219577
0.0227158
0.0232046
0.023348
0.0229677
0.0202926
0.0204211
1.53411
0.125401
0.0806496
7.60162e-07
1.96133e-06
3.2069e-06
3.80701e-06
3.73191e-06
3.33497e-06
2.8739e-06
2.37346e-06
1.75284e-06
1.10535e-06
8.80972e-07
0.0128675
0.0022526
0.00150948
0.000814224
0.000841114
0.00088887
0.000913175
0.000918118
0.000926848
0.000942885
0.000953131
0.00096284
0.000981749
0.00100412
0.00103291
0.00106885
0.00110812
0.00115086
0.00119612
0.00124237
0.00128727
0.00133096
0.0013728
0.00141079
0.00144232
0.00146911
0.00149267
0.00151294
0.00152889
0.00153971
0.00155207
0.00160894
0.00170744
0.00187521
0.000966315
0.00222384
0.0037653
0.00521797
0.00610202
0.00677708
0.0067595
0.0059371
0.00549034
0.00516651
0.00491358
0.0047452
0.00464814
0.0046139
0.00463946
0.00471784
0.00484557
0.00502157
0.00524243
0.00551912
0.00585024
0.00624094
0.0067017
0.00722128
0.00792767
0.00944204
0.0114017
0.0136099
0.0146212
0.0166186
1.00623
0.326432
0.261472
3.91046e-07
1.17899e-06
2.22237e-06
2.99011e-06
3.23769e-06
3.10575e-06
2.79908e-06
2.42237e-06
1.51787e-06
1.29954e-07
7.48605e-09
0.0024128
0.000284781
0.000406651
0.000487995
0.000499249
0.000511317
0.000514962
0.000506604
0.000497254
0.000489763
0.000477403
0.000465882
0.000459021
0.000453616
0.000451668
0.000453574
0.000457914
0.000464591
0.000473201
0.000483177
0.000493844
0.000505017
0.000516195
0.000525852
0.000532218
0.000536437
0.00053916
0.00054051
0.000540219
0.000538068
0.000533564
0.000516456
0.000463739
0.000384812
0.000491514
0.000674174
0.000920881
0.00121807
0.00310202
0.000852148
0.000863514
0.000811529
0.000726173
0.000694319
0.000672254
0.000643753
0.000633946
0.000632506
0.000635726
0.00065104
0.000674017
0.000705405
0.000746767
0.000798494
0.000861348
0.000936423
0.00102555
0.0011274
0.00126231
0.00157576
0.000555564
0.00266455
0.00497328
0.00805755
0.379944
0.4192
0.413568
1.91435e-07
6.68394e-07
1.43987e-06
2.17876e-06
2.59342e-06
2.66777e-06
2.52068e-06
2.24304e-06
1.95878e-08
1.15766e-13
2.26463e-15
0.000181807
0.00109321
0.00279396
0.00332912
0.00333467
0.00332387
0.00332103
0.00331169
0.00329641
0.00327939
0.00325956
0.00323654
0.00321225
0.00318742
0.00316212
0.00313694
0.00311213
0.0030874
0.00306277
0.00303802
0.0030124
0.00298507
0.00295537
0.00292247
0.00288563
0.00284487
0.00279965
0.00275092
0.00269775
0.00263934
0.00257382
0.00245233
0.00216976
0.00177602
0.00131031
0.000894439
0.000319247
0.000352647
0.00165392
0.000620811
0.000435509
0.000477892
0.000496205
0.000536298
0.000573262
0.000588505
0.000607591
0.000623399
0.000632536
0.000644458
0.000655231
0.000665314
0.000677484
0.000690018
0.000703019
0.000715895
0.000728729
0.000740869
0.000751214
0.000723518
0.000728548
0.00100519
0.00134122
0.00118658
0.0759194
0.303815
0.365734
8.92972e-08
3.58325e-07
8.75804e-07
1.48075e-06
1.92956e-06
2.12558e-06
2.10801e-06
8.08528e-07
4.38083e-13
2.07804e-15
5.3672e-16
0.0013908
0.00598092
0.0084147
0.00856539
0.00854269
0.00848993
0.00844886
0.0084143
0.00838153
0.0083525
0.00832488
0.00829562
0.00826623
0.00823637
0.00820515
0.00817343
0.00814036
0.00810467
0.00806603
0.00802365
0.00797578
0.00792043
0.00785657
0.00778195
0.00769366
0.00759327
0.00748147
0.00735945
0.00722475
0.00707439
0.006913
0.00673406
0.00642216
0.00597297
0.00537635
0.00457073
0.00366517
0.00238842
0.00200263
0.00341474
0.00324075
0.00332062
0.00357643
0.0038128
0.00401035
0.00416738
0.00429006
0.00438533
0.00445666
0.0045095
0.00454803
0.00457445
0.00459278
0.00460571
0.00461023
0.0046044
0.00459244
0.00457221
0.00454045
0.00428453
0.00370033
0.0031901
0.00231222
0.00141951
0.0231166
0.30888
0.450079
3.97121e-08
1.81966e-07
5.01648e-07
9.42692e-07
1.34039e-06
1.57953e-06
1.64536e-06
9.63951e-07
3.11673e-12
2.56139e-15
3.32659e-15
0.00801237
0.0089157
0.00676161
0.00643909
0.00637435
0.0063014
0.00624579
0.00621031
0.00618643
0.00616991
0.00616084
0.00615582
0.00615164
0.00614774
0.00614324
0.00613717
0.00612839
0.006116
0.00609923
0.00607761
0.00604991
0.00601501
0.00597228
0.00592058
0.00585903
0.00578942
0.00571196
0.00562685
0.00553266
0.00542727
0.00531122
0.00521042
0.00514923
0.00508302
0.00496691
0.00470714
0.0042802
0.00334078
0.00256449
0.00866317
0.00807533
0.00808575
0.00814266
0.008091
0.00801227
0.00793835
0.0078642
0.00779523
0.00773409
0.00768069
0.00763559
0.00759725
0.00756709
0.00754545
0.00752472
0.00749909
0.00747311
0.00745108
0.00744686
0.00741597
0.00712382
0.00656353
0.00575962
0.0044534
0.0149418
0.44454
0.778638
1.68405e-08
8.76412e-08
2.71225e-07
5.64151e-07
8.73225e-07
1.10032e-06
1.20588e-06
8.92602e-07
1.38949e-11
4.60168e-13
8.67566e-16
0.00801441
0.00387762
0.00146751
0.00112689
0.00109609
0.00108512
0.00107117
0.00105857
0.00105087
0.00104786
0.00104785
0.00105041
0.00105519
0.00106188
0.00107001
0.00107932
0.00108931
0.00109967
0.00110999
0.00112007
0.00112962
0.00113839
0.00114665
0.00115447
0.0011614
0.00116712
0.00117154
0.00117442
0.00117535
0.00117403
0.00116715
0.00116455
0.00129008
0.00153372
0.00185284
0.00222877
0.00261548
0.00266553
0.00231391
0.00607637
0.00561774
0.00509872
0.00478195
0.00453422
0.00433266
0.00417834
0.00405343
0.00395251
0.00387459
0.00381593
0.00377392
0.00374659
0.00373333
0.00373446
0.00374592
0.0037653
0.00379526
0.00383791
0.00389971
0.0040696
0.00439089
0.00467678
0.00481841
0.00452253
0.00852085
0.460364
0.9634
6.81091e-09
4.00703e-08
1.3869e-07
3.18309e-07
5.3557e-07
7.21859e-07
8.34085e-07
7.34649e-07
4.73437e-11
4.0328e-17
5.33024e-16
0.00229039
0.000779014
0.000214367
0.000165187
0.000163705
0.000166216
0.000164964
0.000160158
0.000155914
0.000152886
0.000148556
0.000144781
0.000142786
0.000141478
0.000141515
0.000143276
0.000146103
0.00015016
0.000155257
0.000161246
0.000167869
0.000175055
0.000182725
0.000190167
0.000196545
0.000202257
0.000207752
0.000212938
0.000217715
0.000221972
0.000225005
0.00022871
0.000257819
0.000311631
0.000384303
4.61187e-05
0.000641006
0.0012588
0.00156275
0.000841549
0.000759615
0.000231431
0.000687863
0.000636502
0.000616197
0.000584583
0.000566209
0.000551475
0.00053681
0.000529901
0.000525838
0.00052475
0.000528306
0.000534684
0.000544025
0.00055561
0.000569664
0.000586245
0.000608286
2.061e-05
0.00041213
0.00102159
0.00173813
0.00226955
0.00414036
0.326042
0.810819
2.62779e-09
1.74093e-08
6.7194e-08
1.69783e-07
3.10326e-07
4.4779e-07
5.46969e-07
5.43266e-07
1.29926e-10
2.97302e-15
1.47916e-15
0.000397294
8.82369e-05
0.000267717
0.000287934
0.00029327
0.00029869
0.00029823
0.000290851
0.000282908
0.00027587
0.000265555
0.000255408
0.000248075
0.000241436
0.00023688
0.000235162
0.00023502
0.000236801
0.000240273
0.00024497
0.000250556
0.000256782
0.00026352
0.000269365
0.000272935
0.000275174
0.00027693
0.000278119
0.000278707
0.000278536
0.000277538
0.000276019
0.000266576
0.000239957
0.000196672
0.000152153
0.000225896
3.77152e-05
0.000658091
0.000112643
0.000103155
4.70449e-05
2.1398e-05
2.73727e-05
3.4113e-05
3.91795e-05
4.43229e-05
4.9115e-05
5.27601e-05
5.63e-05
5.93618e-05
6.19484e-05
6.4418e-05
6.65707e-05
6.84889e-05
7.0084e-05
7.14076e-05
7.25656e-05
7.33487e-05
7.58238e-05
0.000122726
0.000208824
0.000303919
7.34953e-05
0.00142328
0.150437
0.442448
9.67486e-10
7.19421e-09
3.08991e-08
8.58298e-08
1.70416e-07
2.63655e-07
3.415e-07
3.72149e-07
3.04385e-10
1.01834e-14
6.97361e-16
0.000264543
0.000647164
0.00177795
0.00190756
0.00190761
0.00189473
0.00188332
0.00187322
0.00186236
0.00185122
0.00184059
0.00182969
0.00181833
0.00180693
0.00179522
0.00178306
0.00177043
0.00175712
0.00174302
0.00172797
0.00171173
0.00169377
0.00167382
0.00165188
0.00162795
0.00160231
0.00157508
0.00154618
0.00151572
0.00148334
0.0014488
0.00141348
0.0013403
0.00118564
0.000955813
0.000681966
0.00041946
0.000242657
0.000421654
0.000487695
0.000352561
9.05484e-05
0.00015009
0.0001899
0.000233676
0.000273383
0.000310493
0.000345414
0.000374967
0.000400356
0.00042182
0.000438953
0.000452508
0.000462859
0.000469948
0.000473808
0.000475058
0.000474724
0.000471829
0.000459348
0.000355581
0.000268382
8.06604e-05
0.000295987
0.000490023
0.0744367
0.267186
3.40063e-10
2.83103e-09
1.35069e-08
4.12148e-08
8.89475e-08
1.47881e-07
2.03775e-07
2.40065e-07
6.29495e-10
1.10409e-13
4.05592e-15
0.00139948
0.00317333
0.00326136
0.0033321
0.00330152
0.00325909
0.00322163
0.00318965
0.00316063
0.00313351
0.00310854
0.00308499
0.00306238
0.00304074
0.0030198
0.00299918
0.00297871
0.00295807
0.00293697
0.0029151
0.00289184
0.00286615
0.00283716
0.00280431
0.0027673
0.00272658
0.00268256
0.0026351
0.00258445
0.00253024
0.00247228
0.00241509
0.00234687
0.00223685
0.00199852
0.00175252
0.00147888
0.00105849
0.000798565
0.00236115
0.00246095
0.00258063
0.00260632
0.00260137
0.00259423
0.00258785
0.00258277
0.00257919
0.00257501
0.00256938
0.00256178
0.00255129
0.00253869
0.00252482
0.00250854
0.00248865
0.00246665
0.00244402
0.00241887
0.00239228
0.00228849
0.0020775
0.00176955
0.0014397
0.00127786
0.10489
0.0161486
0.0226312
1.06176e-09
5.61935e-09
1.88406e-08
4.42343e-08
7.92336e-08
1.16551e-07
1.47563e-07
1.17556e-09
6.31875e-13
2.41604e-14
0.00354543
0.00270401
0.00174566
0.00168132
0.00165993
0.00163153
0.00160561
0.00158332
0.00156418
0.00154705
0.00153204
0.00151906
0.00150741
0.00149683
0.00148709
0.00147782
0.00146883
0.00145984
0.00145069
0.00144109
0.00143082
0.00141938
0.00140629
0.0013913
0.00137453
0.00135606
0.00133613
0.00131493
0.00129227
0.0012681
0.00124228
0.00121661
0.00121307
0.00124383
0.00128222
0.00131336
0.00128646
0.00112726
0.000910043
0.00325049
0.0029359
0.00283138
0.00269591
0.00257881
0.00249476
0.00243777
0.00239545
0.00236093
0.00233156
0.00230436
0.00227857
0.00225381
0.00223018
0.00220833
0.00218737
0.00216635
0.00214637
0.00212845
0.00211063
0.00211019
0.00213473
0.00212226
0.00205061
0.00186992
0.00168603
0.0906609
0.0597886
0.0973831
3.79621e-10
2.22769e-09
8.20853e-09
2.10017e-08
4.06472e-08
6.40539e-08
8.70455e-08
2.00416e-09
2.98198e-12
1.19617e-13
0.00201639
0.000578265
0.000326226
0.000253929
0.000255228
0.00025708
0.000253934
0.000245231
0.000236547
0.000228865
0.000218428
0.000208334
0.000200749
0.000193733
0.000188606
0.000186029
0.000184984
0.000185852
0.000188386
0.000192277
0.000197203
0.000203021
0.000209504
0.000215245
0.000218882
0.000221291
0.00022339
0.000225137
0.000226472
0.000227304
0.000227592
0.000227674
0.000231662
0.000248839
0.000123475
0.000301468
0.000507605
0.000661319
0.000676595
0.00104182
0.000925226
0.000686653
0.000667993
0.000651373
0.00062482
0.000599874
0.000580075
0.000561892
0.000545366
0.000530553
0.000517584
0.000506757
0.000498094
0.000491781
0.000487686
0.000485801
0.000486311
0.000489723
0.000493531
0.000504248
0.000584285
0.00075319
0.000918435
0.00105054
0.00118563
0.0306862
0.0767594
0.144959
1.2952e-10
8.41918e-10
3.41317e-09
9.53078e-09
1.99863e-08
3.38791e-08
4.94616e-08
3.09961e-09
1.21746e-11
3.2414e-15
0.000389468
7.94585e-05
3.46046e-05
4.28596e-05
4.64305e-05
4.9236e-05
5.0362e-05
4.9624e-05
4.83738e-05
4.71109e-05
4.50003e-05
4.27299e-05
4.09293e-05
3.91959e-05
3.78177e-05
3.70009e-05
3.65061e-05
3.64422e-05
3.67489e-05
3.73961e-05
3.82837e-05
3.94021e-05
4.07149e-05
4.19272e-05
4.26614e-05
4.30906e-05
4.34342e-05
4.36975e-05
4.38836e-05
4.39839e-05
4.39973e-05
4.37244e-05
4.27023e-05
3.69725e-05
5.14078e-05
7.79889e-05
0.000112833
0.000136891
0.000315274
0.000143933
0.000129438
0.000102559
9.55883e-05
9.40728e-05
9.12547e-05
8.57996e-05
8.24535e-05
7.93254e-05
7.59013e-05
7.35025e-05
7.14475e-05
6.98372e-05
6.89453e-05
6.84745e-05
6.85336e-05
6.90312e-05
6.99868e-05
7.14287e-05
7.29873e-05
7.55644e-05
8.855e-05
0.000115271
0.000152924
0.00011971
0.000333649
0.00501179
0.0497031
0.108534
4.22046e-11
3.03637e-10
1.35492e-09
4.13729e-09
9.42893e-09
1.72524e-08
2.71248e-08
4.21603e-09
4.22717e-11
4.03548e-14
3.81245e-05
0.000164028
0.000225104
0.000278691
0.000296819
0.000307161
0.000313055
0.00031523
0.000315057
0.000314071
0.000312064
0.000309127
0.000306166
0.000303196
0.000300157
0.000297305
0.000294581
0.000291962
0.000289414
0.000286971
0.000284459
0.000281797
0.00027902
0.000276098
0.000272784
0.000268846
0.000264479
0.000259774
0.000254781
0.000249554
0.000244148
0.000237494
0.000227174
0.000192774
0.00013895
8.88065e-05
1.62392e-05
1.56281e-05
0.000155176
0.000128187
9.07987e-05
0.000104723
0.00010211
0.00010611
0.00010922
0.000108062
0.000108096
0.000107858
0.00010657
0.000106144
0.000105657
0.000105176
0.000105188
0.000105222
0.000105417
0.000105598
0.000105759
0.000105899
0.000105913
0.000105645
0.000103209
9.25213e-05
7.68446e-05
7.95919e-05
0.000110323
0.000323017
0.0143807
0.0482884
1.31411e-11
1.046e-10
5.14177e-10
1.71899e-09
4.26934e-09
8.46146e-09
1.43637e-08
4.78374e-09
1.18472e-10
2.56878e-13
0.000274806
0.00101496
0.0012642
0.00132157
0.00132446
0.00131432
0.00130079
0.00128675
0.00127243
0.00125839
0.00124501
0.00123216
0.00122021
0.00120906
0.00119843
0.00118829
0.00117838
0.00116836
0.00115811
0.00114742
0.001136
0.00112343
0.00110948
0.00109419
0.00107749
0.00105937
0.00104022
0.00102009
0.000998976
0.000976989
0.000953928
0.000929686
0.000905004
0.000857727
0.00078383
0.000677029
0.000535029
0.000396054
0.000320577
0.000691258
0.000637841
0.000688588
0.00070149
0.000722328
0.000735039
0.000742963
0.000748104
0.000751945
0.00075455
0.000755915
0.000756303
0.000755637
0.000753906
0.000751115
0.000746907
0.000741083
0.000734009
0.00072616
0.000717353
0.000707463
0.000684738
0.000609278
0.000503745
0.000396654
0.000296939
0.000336053
0.00787048
0.0197005
0.0293733
3.44701e-11
1.867e-10
6.84509e-10
1.85585e-09
3.99703e-09
7.34598e-09
4.37376e-09
2.568e-10
1.20656e-12
0.0013295
0.00134901
0.00112171
0.00111957
0.0011016
0.00107718
0.00105393
0.00103465
0.00101811
0.00100317
0.00099022
0.000978977
0.000968919
0.000959817
0.000951564
0.000943728
0.000936077
0.00092834
0.000920353
0.00091187
0.000902698
0.00089252
0.000881063
0.000868278
0.000854472
0.000839882
0.000824729
0.000808886
0.000792295
0.000775048
0.000756961
0.000737915
0.000722674
0.000715833
0.000705434
0.000677019
0.000626251
0.00052542
0.000409837
0.00142022
0.00129019
0.00123387
0.00121865
0.0011942
0.00116686
0.00114505
0.00112689
0.00111153
0.00109812
0.00108559
0.00107383
0.00106252
0.00105136
0.00104015
0.00102834
0.00101557
0.00100228
0.000989044
0.000975772
0.000963604
0.000956028
0.000923822
0.000873066
0.000800387
0.000676816
0.000566861
0.00412855
0.0324211
0.006101
0.00479546
6.49675e-11
2.61523e-10
7.75611e-10
1.81942e-09
3.62974e-09
3.28496e-09
4.29101e-10
4.32087e-12
0.00114546
0.000460555
0.00027612
0.000239283
0.000229474
0.00021937
0.000209533
0.000200789
0.000193645
0.000187596
0.000182183
0.000177509
0.000173438
0.000169842
0.000166712
0.000163939
0.00016139
0.000159121
0.000157005
0.000155042
0.000153239
0.000151612
0.00015013
0.000148759
0.000147443
0.000146176
0.000144907
0.000143507
0.000141951
0.000140244
0.000138334
0.000135558
0.000133686
0.00015277
0.000197471
0.000251699
0.000302956
0.000339076
0.000326272
0.000771113
0.000726325
0.000637174
0.000578512
0.000538927
0.000505795
0.000481189
0.000462049
0.000446088
0.000432687
0.000420914
0.000410393
0.000401028
0.000392592
0.000384991
0.000378038
0.000371573
0.000365786
0.00036093
0.000356903
0.000353713
0.000361468
0.000398556
0.000444091
0.000482147
0.000494639
0.000477939
0.00128291
0.0186677
0.0154133
0.0137962
2.17219e-11
9.60715e-11
3.1204e-10
7.9908e-10
1.73433e-09
2.12203e-09
5.59983e-10
1.19852e-11
0.000235818
9.00729e-05
4.2529e-05
3.68335e-05
3.58796e-05
3.50887e-05
3.35746e-05
3.1419e-05
2.94784e-05
2.78117e-05
2.58473e-05
2.39875e-05
2.25069e-05
2.1124e-05
2.00097e-05
1.92563e-05
1.87067e-05
1.84389e-05
1.84157e-05
1.8614e-05
1.89909e-05
1.9558e-05
2.02947e-05
2.10075e-05
2.14709e-05
2.1817e-05
2.21775e-05
2.2523e-05
2.28451e-05
2.31357e-05
2.33838e-05
2.34702e-05
2.3697e-05
2.77065e-05
3.66237e-05
4.77179e-05
6.36405e-05
9.05972e-05
0.000161075
0.00010833
0.000103222
9.65728e-05
8.3787e-05
7.86343e-05
7.45235e-05
6.92665e-05
6.59635e-05
6.31019e-05
6.01275e-05
5.80196e-05
5.61339e-05
5.45004e-05
5.33391e-05
5.23816e-05
5.1681e-05
5.1152e-05
5.07837e-05
5.05819e-05
5.05112e-05
5.05104e-05
5.1945e-05
5.75134e-05
6.972e-05
5.36463e-05
0.000136322
0.000210401
0.000367644
0.00506858
0.0163589
0.0175961
6.99132e-12
3.40123e-11
1.21111e-10
3.39143e-10
8.02228e-10
1.22973e-09
5.78866e-10
2.59677e-11
3.28174e-05
4.09235e-05
5.99999e-05
6.12701e-05
6.27247e-05
6.46877e-05
6.51919e-05
6.3725e-05
6.17671e-05
5.97558e-05
5.6674e-05
5.34134e-05
5.07059e-05
4.80022e-05
4.5736e-05
4.41839e-05
4.30535e-05
4.24974e-05
4.25001e-05
4.2995e-05
4.38797e-05
4.51573e-05
4.67706e-05
4.82167e-05
4.89319e-05
4.92578e-05
4.95647e-05
4.98253e-05
5.00215e-05
5.01381e-05
5.01594e-05
5.00825e-05
4.99243e-05
4.86741e-05
4.4898e-05
3.81948e-05
2.9415e-05
4.01872e-05
2.23893e-05
1.21207e-05
1.35043e-05
1.92598e-05
2.18575e-05
2.45692e-05
2.67666e-05
2.73192e-05
2.78508e-05
2.80873e-05
2.78485e-05
2.77489e-05
2.75611e-05
2.73304e-05
2.72169e-05
2.70939e-05
2.70043e-05
2.69031e-05
2.67917e-05
2.66615e-05
2.65044e-05
2.62605e-05
2.57333e-05
2.2787e-05
1.8316e-05
2.25346e-05
2.89653e-05
3.99455e-05
4.8339e-05
0.000667038
0.00711022
0.00161577
0.00108973
1.16284e-11
4.54504e-11
1.39363e-10
3.5985e-10
6.58778e-10
4.88038e-10
4.4666e-11
9.4712e-05
0.000286454
0.000380779
0.000389031
0.000392054
0.000395168
0.00039754
0.000398112
0.000396941
0.000394729
0.000392022
0.000388999
0.000385877
0.000382795
0.000379729
0.000376672
0.0003736
0.000370443
0.00036716
0.000363693
0.000359975
0.000355883
0.000351322
0.00034634
0.000341044
0.000335442
0.000329561
0.000323396
0.000316888
0.000310066
0.000302878
0.00029536
0.000287652
0.000274055
0.000247079
0.000205466
0.000154752
0.000109179
8.69851e-05
8.45648e-05
9.31401e-05
0.000124388
0.000147695
0.000164753
0.000177739
0.000185818
0.000191139
0.00019473
0.000196776
0.000197844
0.000198228
0.000198039
0.000197463
0.000196531
0.000195188
0.000193396
0.000191212
0.000188751
0.000186112
0.000183138
0.000178793
0.000158161
0.000127598
0.000102978
6.15269e-05
2.76298e-05
3.50337e-05
0.000136687
0.00243112
0.00548218
0.00612922
3.84696e-12
1.65245e-11
5.55488e-11
1.56754e-10
3.32817e-10
3.49816e-10
6.23234e-11
0.000445918
0.000661444
0.000623011
0.000631006
0.000625356
0.000618054
0.000610652
0.000603022
0.000595025
0.000586938
0.000579272
0.000572147
0.000565529
0.000559455
0.000553801
0.000548431
0.000543267
0.000538191
0.000533104
0.000527907
0.000522493
0.000516662
0.00051021
0.000503108
0.000495506
0.000487474
0.000479003
0.000470085
0.000460662
0.000450774
0.000440345
0.000429474
0.000418925
0.000407825
0.00039002
0.000362299
0.000321607
0.000260955
0.000198284
0.00055712