/*--------------------------------*- C++ -*----------------------------------*\
| =========                 |                                                 |
| \\      /  F ield         | OpenFOAM: The Open Source CFD Toolbox           |
|  \\    /   O peration     | Version:  2312                                  |
|   \\  /    A nd           | Website:  www.openfoam.com                      |
|    \\/     M anipulation  |                                                 |
\*---------------------------------------------------------------------------*/
FoamFile
{
    version     2.0;
    format      ascii;
    arch        "LSB;label=32;scalar=64";
    class       volScalarField;
    location    "50";
    object      turbulenceProperties:I;
}
// * * * * * * * * * * * * * * * * * * * * * * * * * * * * * * * * * * * * * //

dimensions      [0 0 0 0 0 0 0];

internalField   nonuniform List<scalar> 
10720
(
0.00289336
0.0033204
0.00470437
0.00546459
0.00606342
0.00662139
0.0072955
0.00808894
0.00903534
0.0102223
0.0117789
0.0139157
0.016865
0.0214049
0.0282149
0.0387482
0.0539482
0.0804468
0.114247
0.143785
0.169224
0.197854
0.237368
0.266278
0.331259
0.369703
0.607549
0.827847
0.64279
0.368859
0.145594
0.0738493
0.0440412
0.00971771
7.12241e-08
3.67479e-09
3.64196e-09
0.170041
0.910752
0.00727663
0.0138213
0.0292999
0.0525823
0.0889636
0.124516
0.0874176
0.0536638
0.0391199
0.032261
0.0287974
0.0270954
0.0265111
0.0268885
0.0283558
0.0310573
0.0358565
0.0421094
0.0502313
0.0582202
0.0660872
0.0754362
0.0873799
0.103197
0.122553
0.139795
0.145393
0.125012
0.0901594
0.0552256
0.0283521
0.00984636
0.00402341
0.00253496
0.00101215
0.0037094
0.000535896
0.0695497
0.464139
0.00884544
0.00852515
0.00817636
0.00782903
0.00750705
0.00719407
0.00690277
0.00664043
0.00639804
0.00616515
0.00591752
0.00561611
0.00508415
0.00660023
0.00696349
0.00700124
0.0089728
0.0129873
0.0220357
0.0344107
0.0486073
0.0635715
0.0823031
0.0958744
0.11793
0.109597
0.236779
0.453511
0.404659
0.3064
0.207412
0.120535
0.0597342
0.00858144
0.00227469
4.30273e-09
3.43356e-09
0.0756982
0.689598
0.019991
0.0290162
0.034511
0.0349942
0.032151
0.0320177
0.0290473
0.0233154
0.0188476
0.0160517
0.0143358
0.0132283
0.0124503
0.0118886
0.0116611
0.0113328
0.0114724
0.0111386
0.00710332
0.0045549
0.0083331
0.00993991
0.0106581
0.00876147
0.0107483
0.015237
0.0198846
0.0215148
0.0199129
0.0169066
0.0131467
0.009424
0.00632125
0.0040418
0.00249085
0.00102972
0.00258105
0.0166719
0.172414
0.0218943
0.0190034
0.0173368
0.0159185
0.0147251
0.0137099
0.0128606
0.0121618
0.0115913
0.0111276
0.0107532
0.0104572
0.0102266
0.0100532
0.00995961
0.00997886
0.00938331
0.00716045
0.0112701
0.0048069
0.00875063
0.0110372
0.0228921
0.0354846
0.0505963
0.052271
0.060275
0.183406
0.193539
0.173938
0.142622
0.107587
0.066089
0.0275232
0.0111017
0.00776547
1.63863e-09
0.0493654
0.576255
0.0253677
0.021795
0.0116078
0.0110779
0.00834336
0.0078892
0.00777583
0.00720212
0.00645441
0.00585315
0.00543353
0.00514979
0.00495057
0.00481259
0.00479763
0.00473463
0.00486361
0.00480443
0.00143064
0.000888074
0.00373065
0.000737873
0.0016268
0.0020883
0.0027062
0.00273573
0.0027467
0.00370051
0.00430959
0.0046276
0.00501498
0.00542355
0.00579493
0.00608164
0.00620789
0.00647614
0.00545154
0.00888474
0.0832027
0.0192668
0.016878
0.015088
0.0136775
0.0124713
0.0114672
0.0106478
0.00998013
0.00944827
0.00903629
0.00872631
0.00850282
0.0083532
0.00826308
0.00821453
0.00819687
0.00822141
0.00834575
0.00829033
0.00792696
0.00534378
0.00551676
0.0105542
0.0165865
0.00910625
0.000195768
0.0281047
0.000173618
0.000271099
0.000491166
0.00145892
0.00850941
0.0280666
0.0265838
0.0173458
0.0106363
0.00142029
0.0383375
0.491841
0.0120819
0.00838433
0.00519747
0.00722351
0.00311229
0.00183516
0.00969144
0.00909289
0.00824832
0.00746989
0.00680862
0.00629857
0.00589277
0.00557526
0.0053296
0.00513978
0.00498289
0.00485091
0.00477532
0.00464622
0.00453013
0.00444767
0.0044082
0.00050699
0.000906098
0.00126358
0.00152444
0.00168884
0.00182866
0.0019231
0.00207552
0.00227812
0.00255005
0.00302591
0.00356798
0.00392241
0.0059868
0.00432793
0.0372588
0.00541545
0.00742265
0.00589999
0.00484497
0.0039659
0.00329478
0.00281013
0.00242237
0.00220575
0.00216915
0.00222233
0.00232517
0.00246187
0.00262371
0.00281271
0.00302414
0.00324789
0.00355869
0.00409089
0.0044554
0.00486273
0.00485615
0.00330162
0.000776311
0.0042409
9.20935e-05
7.58616e-10
8.28613e-05
0.000128876
0.000230879
0.000674431
0.00385983
0.000422682
7.05344e-05
0.0111732
0.0128821
0.00180876
0.0297366
0.398758
0.00435111
0.00596841
0.0102396
0.0184932
0.0223489
0.0231199
0.0230228
0.0221043
0.0205755
0.0190033
0.0175501
0.0163106
0.01522
0.0143007
0.0135343
0.0128942
0.0123423
0.0118588
0.0114283
0.0110343
0.0106691
0.0103305
0.0100152
0.00972443
0.00946378
0.0092368
0.00903714
0.00885512
0.00868249
0.00852436
0.00835051
0.00812595
0.0078551
0.00773693
0.00740168
0.00652377
0.00695715
0.00328236
0.0210069
0.00319174
0.00358537
0.00335923
0.00310802
0.002986
0.00290818
0.00282582
0.00276362
0.00271873
0.00268877
0.00267604
0.00267358
0.0026812
0.00270127
0.00273346
0.00277831
0.00283455
0.00291556
0.00303517
0.00310519
0.00321625
0.0010187
0.00220814
0.00213265
0.00243293
6.24116e-05
7.622e-10
7.80484e-10
7.99078e-10
8.19189e-10
8.41325e-10
8.65219e-10
0.000197799
3.28378e-05
9.53846e-06
2.45188e-05
3.51854e-06
0.00238424
0.0320124
0.000691002
0.0140583
0.0203863
0.0223755
0.0235251
0.0243601
0.0244943
0.0240195
0.0229617
0.0217153
0.0204878
0.0192648
0.0181535
0.0171981
0.0163813
0.0156829
0.0150745
0.0145429
0.0140661
0.0136224
0.0132201
0.0128495
0.0125003
0.0121728
0.0118734
0.0116065
0.0113676
0.0111501
0.0109294
0.0107546
0.0106289
0.0104236
0.0101535
0.009882
0.00960176
0.00907393
0.0088509
0.00660443
0.00680078
0.00783467
0.00765576
0.00760285
0.00750917
0.00750315
0.0074804
0.00740723
0.00730043
0.00717015
0.00702797
0.00688419
0.00674454
0.0066139
0.00649529
0.00639065
0.00630183
0.00622936
0.00616646
0.00604193
0.00585658
0.0057026
0.00534208
0.0050361
0.00475788
0.00554227
0.000140692
3.10499e-05
7.8234e-10
8.01208e-10
8.22588e-10
8.47343e-10
8.74255e-10
8.97465e-10
9.16028e-10
4.46587e-06
1.12398e-05
5.25629e-09
1.31723e-09
0.0127516
0.0154205
0.0190679
0.0180471
0.0150699
0.0145756
0.0151882
0.0154705
0.0154569
0.0151309
0.014617
0.0141301
0.0135401
0.0129597
0.0124799
0.0120488
0.0116709
0.0113256
0.0110388
0.0107587
0.0104469
0.0102317
0.0100653
0.00987139
0.00968514
0.00950681
0.00934218
0.00919171
0.00905288
0.00892418
0.00881362
0.00875028
0.00871636
0.00869686
0.00868878
0.0086986
0.00861994
0.0088319
0.0081018
0.00113735
0.015579
0.0144948
0.0137605
0.0131326
0.0126641
0.0121857
0.0117182
0.0112772
0.0108693
0.0104997
0.010169
0.00987593
0.00962038
0.00940101
0.00921668
0.00906663
0.0089505
0.00885754
0.00880727
0.00872822
0.00849693
0.00814899
0.00783994
0.0073597
0.0076219
0.0002659
5.97521e-05
7.84408e-10
8.02477e-10
8.23149e-10
8.47677e-10
8.76889e-10
9.04569e-10
9.19609e-10
9.44927e-10
9.8724e-10
1.00712e-09
1.07244e-09
1.59071e-09
0.0172319
0.0134863
0.00737733
0.0057783
0.00498961
0.00527221
0.00542829
0.00546611
0.00541555
0.00531427
0.0052312
0.00145037
0.0022943
0.00279058
0.0031307
0.00338609
0.00359553
0.00376016
0.00390995
0.00403662
0.00412447
0.00420178
0.0042627
0.00430382
0.00433787
0.00436814
0.00440099
0.0044397
0.00448544
0.00453754
0.0046479
0.00486936
0.00517151
0.00552784
0.00593854
0.00630908
0.00690205
0.00778402
0.00111435
0.0143893
0.0131707
0.0123168
0.0115408
0.0108367
0.0102048
0.00966309
0.00920381
0.00881865
0.00849722
0.00822772
0.00800496
0.00782471
0.00768418
0.00758156
0.00751448
0.00748114
0.00748476
0.00756555
0.00772202
0.0078642
0.00799481
0.00813342
0.0079661
0.00834572
0.000420493
9.61904e-05
7.87305e-10
8.04633e-10
8.2443e-10
8.47515e-10
8.75312e-10
9.0591e-10
9.26027e-10
9.47468e-10
9.77449e-10
9.93311e-10
1.08082e-09
1.62652e-09
0.0092626
0.00568786
0.00254835
0.00180875
0.00193079
0.00196553
0.001971
0.00193579
0.00187928
0.00181497
0.00173605
0.00175585
0.0018364
0.001899
0.00194966
0.00199506
0.00203816
0.00207705
0.00211795
0.002157
0.00218729
0.00221685
0.00224292
0.00226303
0.00228074
0.00229759
0.00231649
0.00233865
0.00236447
0.00239315
0.00244317
0.00252252
0.00269116
0.00279669
0.000291247
0.00232096
0.0034171
0.00582884
0.000849667
0.00564873
0.00636818
0.00530445
0.00448023
0.00380264
0.00325596
0.00285768
0.00260617
0.00248645
0.00244702
0.00245985
0.00252407
0.0026269
0.0027637
0.00293538
0.0031324
0.00334999
0.00357586
0.0038267
0.00434709
0.00502162
0.00570038
0.00639451
0.00678108
0.00784131
0.000593635
0.000138202
7.9043e-10
8.0716e-10
8.26356e-10
8.4843e-10
8.73955e-10
9.03964e-10
9.29786e-10
9.54598e-10
9.78742e-10
9.94053e-10
1.10598e-09
1.67803e-09
0.00374303
0.00223581
0.00412263
0.00476163
0.00499482
0.0049907
0.00496537
0.00489518
0.00477809
0.00463603
0.00446968
0.00432698
0.00419999
0.00406901
0.00393303
0.00379604
0.00365955
0.00352613
0.00339694
0.00327346
0.00315682
0.00304645
0.00294235
0.00284732
0.00276317
0.00268852
0.00262246
0.00256426
0.00251319
0.0024662
0.00240718
0.00225168
0.00237324
0.00197563
0.000726458
0.000641857
0.00288263
0.00387241
0.00157745
0.00192451
0.00223551
0.00208734
0.00192409
0.00183348
0.00176667
0.00169881
0.00166336
0.00164857
0.00164031
0.00164397
0.00165741
0.00168024
0.0017158
0.00176456
0.00182614
0.00190015
0.00198175
0.00211294
0.00225302
0.00248411
0.00217806
0.00354966
0.00437521
0.00627085
0.000748091
0.000177198
7.93725e-10
8.09838e-10
8.28419e-10
8.49845e-10
8.73916e-10
9.02274e-10
9.30514e-10
9.58144e-10
9.80073e-10
1.00128e-09
1.13917e-09
1.73304e-09
0.00367979
0.00625894
0.0101196
0.0115379
0.011807
0.0119454
0.0120184
0.012007
0.0119056
0.0117275
0.0114816
0.011211
0.0109228
0.0106191
0.0103097
0.0100013
0.00969881
0.0094055
0.00912319
0.00885266
0.00859434
0.00834835
0.00811503
0.00789584
0.00769356
0.00751025
0.00734558
0.0071975
0.00706441
0.00694581
0.00684333
0.0066969
0.00649088
0.00621353
0.00586373
0.00545278
0.00488198
0.00481818
0.00309514
0.00440721
0.00105442
0.00229904
0.00294761
0.00331352
0.0035293
0.00363345
0.00367657
0.0036852
0.00366738
0.00363241
0.00358701
0.00353456
0.00348054
0.00342899
0.00338148
0.00334098
0.00330261
0.00341053
0.00317134
0.0026426
0.00248881
0.00277723
0.0029771
0.00489707
0.000949921
0.000228852
7.97205e-10
8.12675e-10
8.3054e-10
8.51315e-10
8.74623e-10
9.01809e-10
9.29728e-10
9.56569e-10
9.78476e-10
1.01104e-09
1.1701e-09
1.75681e-09
0.00838147
0.0113084
0.011601
0.0114304
0.0116938
0.0118558
0.0119555
0.0119835
0.0119379
0.0118263
0.0116455
0.0114385
0.0112135
0.0109619
0.0106977
0.0104275
0.0101559
0.00988674
0.00962228
0.00936422
0.00911391
0.00887246
0.00864077
0.00842092
0.00821628
0.00802953
0.00786072
0.00770814
0.00757058
0.00744809
0.0073497
0.00726242
0.00715764
0.00703301
0.00686313
0.00667548
0.00628165
0.0057673
0.00525231
0.00918154
0.00883502
0.00876461
0.00868908
0.00854517
0.00836113
0.00816496
0.00796876
0.00777668
0.00759195
0.00741705
0.00725261
0.0070974
0.0069551
0.00682643
0.00670909
0.00660373
0.00651103
0.00642523
0.00631319
0.00608474
0.00587956
0.00546858
0.00473467
0.00521154
0.00153217
0.000375328
8.00894e-10
8.15704e-10
8.32804e-10
8.52839e-10
8.75544e-10
9.02024e-10
9.28791e-10
9.52886e-10
9.76171e-10
1.02273e-09
1.19351e-09
1.73874e-09
0.0111158
0.00972078
0.00689526
0.005703
0.00584582
0.00601238
0.0061136
0.00616773
0.00619486
0.00619787
0.00618015
0.00613429
0.00607568
0.00600735
0.00593065
0.00584604
0.00575378
0.00565505
0.00555096
0.0054428
0.00533203
0.00522088
0.00511159
0.0050079
0.00491312
0.0048281
0.00475321
0.00468809
0.00463241
0.00458609
0.00455786
0.00460922
0.00473025
0.00491309
0.00511269
0.00527727
0.00542915
0.00545128
0.00529367
0.0100786
0.00939637
0.00902366
0.00872309
0.00841108
0.00810547
0.00784032
0.0076035
0.00739064
0.00720257
0.00703669
0.00689055
0.00675768
0.00664508
0.00655368
0.00647637
0.00641512
0.00637053
0.00634767
0.00637382
0.00637883
0.00635229
0.00626642
0.00586549
0.00586898
0.00249472
2.34382e-06
5.66056e-07
8.18921e-10
8.35254e-10
8.54515e-10
8.76565e-10
9.02294e-10
9.28187e-10
9.502e-10
9.75479e-10
1.03537e-09
1.20838e-09
1.68651e-09
0.0078112
0.00334771
0.0027933
0.00209482
0.00216857
0.00226072
0.00231002
0.00232006
0.00232115
0.00231938
0.0023017
0.00227758
0.00225998
0.00224282
0.00222994
0.00222184
0.0022144
0.00220801
0.00220154
0.00219406
0.00218471
0.00217434
0.00216307
0.00215058
0.00213651
0.00212314
0.00211223
0.00210384
0.00209806
0.00209498
0.00209883
0.0021384
0.0022099
0.00233087
0.00168946
0.00259624
0.00344055
0.00415405
0.00457427
0.0055108
0.00539908
0.00495164
0.00465134
0.00440458
0.00418671
0.00400811
0.00386371
0.00374808
0.00366036
0.00359693
0.00355545
0.00353478
0.00353137
0.00354633
0.00357897
0.00363051
0.00370144
0.0037872
0.00392128
0.00424023
0.00462635
0.00502584
0.00518461
0.00550858
0.00335355
6.32343e-06
1.55319e-06
8.22316e-10
8.37895e-10
8.56368e-10
8.77758e-10
9.02456e-10
9.27669e-10
9.49671e-10
9.76949e-10
1.04425e-09
1.20829e-09
1.60037e-09
0.00336767
0.00117999
0.00143566
0.0016054
0.00165211
0.00169444
0.00171451
0.0017052
0.00168554
0.00166179
0.00162432
0.00158471
0.00155066
0.00151746
0.00148893
0.00146566
0.00144531
0.00142785
0.00141266
0.0013989
0.00138584
0.00137357
0.00136174
0.00134905
0.00133427
0.00131947
0.00130583
0.00129354
0.0012827
0.00127348
0.00126499
0.00124503
0.00118309
0.00108414
0.00123644
0.00146596
0.0017436
0.00205381
0.00333071
0.00195666
0.00193782
0.00184207
0.00170532
0.00163064
0.00156679
0.00149601
0.001448
0.00141063
0.00138016
0.00136427
0.00135733
0.00135945
0.00137079
0.00139025
0.00141798
0.0014543
0.00149926
0.001551
0.0016231
0.00179839
0.00106115
0.00231239
0.00314574
0.00399106
0.00347071
1.21631e-05
3.03755e-06
8.25886e-10
8.40727e-10
8.58387e-10
8.7915e-10
9.02708e-10
9.26908e-10
9.50624e-10
9.80155e-10
1.04418e-09
1.18238e-09
1.47451e-09
0.000923232
0.00230307
0.0037479
0.00417212
0.00424214
0.00428621
0.00431703
0.00432405
0.00430887
0.00427663
0.00423009
0.0041728
0.00410843
0.00403912
0.00396608
0.00389024
0.0038123
0.00373274
0.00365217
0.00357117
0.00349034
0.00341026
0.00333146
0.00325495
0.00318218
0.00311396
0.0030505
0.00299216
0.00293915
0.00289185
0.00284808
0.00278055
0.0026221
0.00238559
0.00206688
0.00172799
0.00104999
0.00112893
0.00248265
0.00167351
0.00137961
0.00141872
0.00141692
0.0014427
0.00145841
0.00144377
0.00143335
0.00141908
0.00139844
0.00138231
0.0013662
0.00135074
0.00133832
0.00132684
0.00131705
0.00130896
0.00130244
0.00129702
0.00129269
0.00125906
0.00125667
0.00147039
0.00169325
0.00158917
0.00263796
1.78599e-05
4.5334e-06
8.29619e-10
8.43742e-10
8.6057e-10
8.8068e-10
9.0326e-10
9.25994e-10
9.5159e-10
9.84462e-10
1.03664e-09
1.13391e-09
1.32889e-09
0.00255076
0.0053769
0.00648686
0.00665906
0.00674363
0.00679563
0.00682858
0.00683793
0.00682276
0.00678661
0.00673307
0.00666602
0.0065893
0.00650489
0.00641403
0.00631768
0.00621631
0.00611032
0.00600036
0.00588711
0.00577147
0.00565439
0.00553692
0.00542067
0.00530782
0.00520053
0.00510001
0.0050068
0.00492132
0.0048443
0.00477593
0.0047138
0.0046139
0.00447292
0.00427863
0.00399007
0.0036317
0.00299575
0.00278434
0.00391944
0.00375916
0.00374149
0.00381244
0.00386177
0.00387909
0.00387128
0.00384679
0.00381113
0.00376811
0.00372033
0.00366945
0.00361685
0.00356353
0.00351016
0.00345762
0.00340694
0.00335915
0.00331348
0.00327083
0.00315549
0.00291856
0.00270141
0.00229512
0.00179648
0.00245989
3.15959e-05
8.14904e-06
8.3351e-10
8.46925e-10
8.62932e-10
8.82288e-10
9.04121e-10
9.25348e-10
9.51602e-10
9.88647e-10
1.02873e-09
1.08338e-09
1.2008e-09
0.00610217
0.00654656
0.00579193
0.00573982
0.00578446
0.00581092
0.00582803
0.00583451
0.00582674
0.00580472
0.00577193
0.00573069
0.00568192
0.005627
0.0055667
0.00550106
0.00543011
0.00535409
0.00527317
0.00518775
0.00509844
0.0050061
0.00491156
0.00481634
0.00472294
0.0046337
0.0045497
0.0044714
0.00439934
0.00433446
0.00427687
0.00423598
0.00422007
0.00421351
0.00419769
0.00413096
0.00400088
0.00360744
0.00320609
0.00622209
0.00592112
0.00583642
0.00576084
0.0056435
0.00551167
0.00538346
0.00526058
0.00514435
0.0050361
0.00493464
0.00483945
0.00475043
0.00466716
0.00458928
0.00451694
0.0044506
0.00439069
0.00433812
0.0042994
0.0042639
0.00416133
0.00398384
0.00372672
0.00327664
0.00319185
6.77183e-05
1.77411e-05
8.37565e-10
8.50272e-10
8.65485e-10
8.8398e-10
9.05157e-10
9.2529e-10
9.50783e-10
9.91066e-10
1.02513e-09
1.04813e-09
1.11215e-09
0.00608145
0.00430394
0.00268618
0.00238754
0.00238347
0.00239572
0.00239832
0.00239473
0.0023891
0.00238206
0.00237299
0.00236285
0.00235208
0.00234087
0.00232908
0.00231649
0.00230268
0.00228745
0.00227045
0.0022516
0.00223096
0.00220876
0.00218567
0.00216254
0.00214021
0.00211921
0.00210002
0.00208286
0.00206795
0.00205609
0.0020449
0.00204248
0.00215421
0.00235997
0.0026134
0.00289636
0.00318459
0.00327727
0.00309514
0.00519573
0.00493192
0.00463583
0.004423
0.00423996
0.00407606
0.00393643
0.00381429
0.0037062
0.00361187
0.00352892
0.00345585
0.00339217
0.00333702
0.00329012
0.00325118
0.00322054
0.00319851
0.00318542
0.00318558
0.0032362
0.00334884
0.0034484
0.00349701
0.00338959
0.00347142
0.000125456
3.33754e-05
8.41781e-10
8.53775e-10
8.68223e-10
8.858e-10
9.06256e-10
9.25809e-10
9.49865e-10
9.90882e-10
1.02498e-09
1.03164e-09
1.06294e-09
0.00324428
0.00192399
0.00102244
0.000909554
0.000916113
0.000932336
0.000935861
0.000926428
0.0009157
0.000906052
0.000890573
0.000875321
0.000864396
0.000854748
0.000848501
0.000846726
0.000847326
0.000850621
0.000855838
0.000862368
0.000869426
0.000876838
0.000884424
0.000890704
0.000894374
0.000896901
0.000899641
0.000902675
0.00090612
0.000910311
0.000914233
0.000921592
0.00098046
0.00108287
0.00121128
0.000423881
0.00160305
0.00228771
0.0025822
0.00193113
0.00181385
0.000989033
0.00168221
0.00159558
0.00154668
0.00148398
0.00143886
0.00139896
0.00136
0.00133162
0.00130758
0.00128819
0.00127523
0.00126615
0.00126153
0.00126095
0.00126427
0.00127123
0.00128554
0.000235447
0.00104935
0.00164899
0.0021497
0.00245863
0.00298704
0.000195964
5.29217e-05
8.46151e-10
8.57427e-10
8.71127e-10
8.87789e-10
9.074e-10
9.26684e-10
9.49414e-10
9.88662e-10
1.02501e-09
1.02813e-09
1.0424e-09
0.00135043
0.000646278
0.00113902
0.00119619
0.00122077
0.00124374
0.00125186
0.00124202
0.00122745
0.00121178
0.00118641
0.00115949
0.00113753
0.00111611
0.0010987
0.00108713
0.00107849
0.0010735
0.00107148
0.00107121
0.00107191
0.00107309
0.00107455
0.0010737
0.00106856
0.00106158
0.00105474
0.00104816
0.00104205
0.00103667
0.0010323
0.00102929
0.00101354
0.00096586
0.000880591
0.000782175
0.000966247
0.000401698
0.001699
0.000706755
0.000669269
0.000446918
0.000297738
0.000332499
0.000366168
0.000386995
0.000405903
0.00042131
0.000430632
0.0004388
0.000444607
0.000448427
0.000451688
0.000453727
0.000455107
0.00045581
0.000455994
0.000455975
0.000455398
0.000460916
0.000584657
0.000761425
0.000918321
0.000452118
0.00192922
0.000251998
6.90682e-05
8.50666e-10
8.61226e-10
8.74182e-10
8.89962e-10
9.0864e-10
9.27699e-10
9.4954e-10
9.85644e-10
1.0231e-09
1.02991e-09
1.03821e-09
0.00110225
0.00174817
0.00292925
0.0030703
0.0031026
0.00311946
0.00313129
0.00313684
0.00313447
0.00312549
0.00311184
0.00309422
0.00307336
0.00305017
0.0030248
0.00299718
0.00296735
0.00293512
0.00290035
0.00286292
0.00282286
0.00278023
0.0027352
0.00268849
0.00264146
0.00259522
0.00255036
0.00250729
0.00246658
0.00242888
0.00239484
0.00236518
0.00230771
0.00217984
0.00197057
0.00168037
0.00133532
0.0010324
0.00137732
0.0014722
0.00123927
0.000621573
0.000791408
0.000879927
0.000963793
0.00102887
0.00108206
0.00112622
0.00115822
0.00118171
0.00119825
0.00120825
0.00121323
0.00121392
0.00121093
0.001205
0.00119684
0.00118763
0.00117685
0.00115642
0.0010148
0.000880431
0.000482625
0.000925752
0.0011835
0.000342414
9.69317e-05
8.55317e-10
8.65174e-10
8.77387e-10
8.92317e-10
9.10034e-10
9.28755e-10
9.50047e-10
9.82794e-10
1.01927e-09
1.03171e-09
1.04078e-09
0.00253614
0.00386838
0.00396213
0.00404941
0.00406972
0.00407622
0.00407837
0.00407539
0.00406583
0.00405011
0.0040299
0.00400632
0.00398005
0.00395179
0.00392174
0.00388971
0.00385558
0.00381908
0.00377988
0.00373771
0.00369243
0.00364392
0.00359211
0.00353749
0.00348153
0.00342567
0.00337072
0.00331723
0.00326596
0.00321778
0.00317378
0.00313683
0.00309844
0.00303762
0.00289016
0.00273123
0.00254061
0.00218282
0.00191779
0.0032427
0.00327874
0.00332599
0.00330894
0.0032705
0.00322719
0.00318343
0.00314094
0.00310005
0.0030605
0.00302196
0.00298428
0.00294725
0.00291083
0.00287503
0.00283993
0.00280578
0.00277293
0.00274174
0.00271263
0.00268778
0.00262286
0.00249614
0.0023038
0.00208094
0.00196156
0.00080118
4.3988e-05
1.2111e-05
8.69264e-10
8.8074e-10
8.94846e-10
9.11614e-10
9.29847e-10
9.50693e-10
9.80482e-10
1.01463e-09
1.03162e-09
1.04443e-09
0.00403705
0.00356919
0.00289582
0.00287111
0.00287794
0.00287445
0.00286848
0.00286032
0.00284964
0.00283609
0.00282078
0.00280459
0.00278752
0.00276976
0.00275136
0.00273199
0.00271147
0.00268952
0.00266581
0.00264003
0.00261209
0.00258188
0.00254926
0.00251451
0.00247879
0.00244297
0.00240764
0.00237338
0.00234046
0.00230954
0.00228143
0.00225794
0.00225927
0.00229706
0.00234702
0.00239613
0.00239976
0.00227908
0.00206995
0.00380733
0.00358528
0.00349107
0.00337534
0.00326837
0.00317877
0.00310594
0.00304353
0.00298734
0.00293644
0.00288895
0.00284433
0.00280246
0.0027629
0.00272563
0.00269067
0.00265822
0.0026285
0.0026017
0.00257799
0.0025694
0.00257935
0.0025694
0.00252598
0.0024155
0.00229895
0.00149649
0.000159712
4.46212e-05
8.73485e-10
8.8424e-10
8.97536e-10
9.13384e-10
9.31006e-10
9.51334e-10
9.78692e-10
1.01016e-09
1.02992e-09
1.0468e-09
0.00304423
0.00164991
0.00125061
0.00111373
0.00112562
0.00113757
0.00113708
0.00112208
0.00110484
0.00108796
0.00106279
0.00103694
0.00101619
0.000996037
0.000980079
0.000970225
0.000963913
0.000962107
0.00096402
0.000968681
0.00097514
0.000982992
0.000991642
0.000997873
0.000999052
0.000997702
0.000996118
0.00099443
0.000992732
0.000991166
0.000990101
0.000990463
0.0010012
0.00104178
0.000738304
0.00116323
0.00152633
0.00176573
0.00180393
0.00215661
0.00201498
0.00172271
0.00168491
0.00164844
0.00159777
0.0015489
0.00150721
0.00146825
0.0014324
0.00139969
0.00137022
0.00134444
0.00132218
0.00130356
0.00128865
0.00127776
0.0012709
0.00126847
0.00126781
0.00127795
0.00137353
0.00155841
0.00172131
0.00184349
0.0019635
0.00177162
0.000349083
9.89346e-05
8.77822e-10
8.87878e-10
9.0038e-10
9.15331e-10
9.32256e-10
9.51942e-10
9.77296e-10
1.00634e-09
1.02753e-09
1.04749e-09
0.00133795
0.000611441
0.000406939
0.000456785
0.000479024
0.00049659
0.000505094
0.000503537
0.000498561
0.000492756
0.000481796
0.000469284
0.000458778
0.000448204
0.000439305
0.000433406
0.000429195
0.000427335
0.000427437
0.000429255
0.000432147
0.000436023
0.000440632
0.000444388
0.000445498
0.0004451
0.000444426
0.000443604
0.000442745
0.00044194
0.000441376
0.000440139
0.000435894
0.000407181
0.000482932
0.000599516
0.000728671
0.00081262
0.00124451
0.000802186
0.000754778
0.000667309
0.000639309
0.000628846
0.000613503
0.000589161
0.00057214
0.000556061
0.000539202
0.000526215
0.000514679
0.000504989
0.000498099
0.000492907
0.000489891
0.00048881
0.000489624
0.000492299
0.000495739
0.000503245
0.00054416
0.000620622
0.000715117
0.000633584
0.00106041
0.00143626
0.000553766
0.000159157
8.82256e-10
8.91639e-10
9.03365e-10
9.1744e-10
9.33615e-10
9.52547e-10
9.76212e-10
1.00326e-09
1.02506e-09
1.04687e-09
0.000418809
0.000878551
0.00103728
0.00116338
0.00120925
0.00123822
0.00125723
0.00126727
0.00127092
0.00127139
0.00126849
0.00126261
0.00125581
0.00124826
0.00123998
0.00123155
0.00122293
0.00121408
0.0012049
0.00119543
0.00118531
0.00117446
0.00116299
0.00115092
0.00113802
0.0011241
0.00110969
0.00109516
0.00108081
0.00106697
0.00105415
0.00104014
0.00101951
0.000942789
0.000804919
0.00064832
0.000279951
0.000277789
0.000882559
0.000758019
0.000633459
0.000676197
0.00066311
0.00067081
0.000674799
0.00066544
0.000659977
0.000653893
0.000644944
0.000638884
0.000632864
0.000627096
0.000622994
0.000619145
0.000616101
0.000613483
0.000611183
0.000609093
0.000607153
0.00060525
0.000597803
0.000565976
0.000516113
0.000526009
0.000620766
0.000658779
0.000599407
0.000201833
8.86766e-10
8.95509e-10
9.06482e-10
9.19701e-10
9.35093e-10
9.53205e-10
9.75406e-10
1.0008e-09
1.02272e-09
1.04543e-09
0.0011257
0.0021867
0.00245834
0.00253242
0.00255283
0.00255966
0.00256134
0.0025595
0.00255407
0.0025459
0.0025358
0.00252409
0.00251153
0.00249835
0.00248454
0.00247021
0.00245527
0.00243945
0.00242258
0.00240437
0.00238455
0.00236276
0.00233881
0.0023128
0.00228508
0.00225621
0.00222678
0.00219723
0.00216795
0.00213947
0.00211228
0.00208649
0.00206321
0.00201637
0.00193807
0.00181409
0.00162745
0.00141507
0.0012826
0.00176381
0.00168346
0.00173982
0.00174537
0.00175915
0.00176123
0.00175716
0.00175008
0.00174183
0.00173277
0.00172285
0.00171226
0.00170096
0.00168893
0.00167625
0.00166294
0.00164913
0.00163497
0.00162064
0.00160645
0.00159305
0.00156675
0.00147831
0.00134533
0.00119563
0.00103688
0.000954459
0.000904728
0.000250507
7.72041e-05
8.9947e-10
9.09718e-10
9.22106e-10
9.36701e-10
9.53957e-10
9.74852e-10
9.98812e-10
1.02053e-09
1.0436e-09
0.00248054
0.00252432
0.00231788
0.00233241
0.00232941
0.00231848
0.00230694
0.00229697
0.0022871
0.00227638
0.00226562
0.0022549
0.00224397
0.00223287
0.00222172
0.00221019
0.00219817
0.00218544
0.0021718
0.00215693
0.00214059
0.00212246
0.00210222
0.00207979
0.00205582
0.00203103
0.00200587
0.00198051
0.00195526
0.00193057
0.00190685
0.00188413
0.00186884
0.00186719
0.00186342
0.00183804
0.00178302
0.00164926
0.00146653
0.002535
0.00240207
0.00233821
0.00231163
0.00227493
0.00223386
0.00219786
0.00216582
0.00213698
0.00211089
0.00208642
0.00206327
0.00204115
0.00201971
0.0019989
0.00197864
0.00195897
0.00193998
0.00192178
0.00190475
0.00189088
0.00188351
0.00185263
0.00180299
0.00172922
0.00159383
0.00141491
0.00132139
0.000637403
6.61852e-05
1.89659e-05
9.13057e-10
9.24647e-10
9.38441e-10
9.54824e-10
9.7452e-10
9.97147e-10
1.01846e-09
1.04171e-09
0.00230812
0.0014781
0.00115224
0.00108019
0.00106495
0.001048
0.00103036
0.00101373
0.000999491
0.000986683
0.000974364
0.000963036
0.000952556
0.000942756
0.000933753
0.000925357
0.000917276
0.000909741
0.000902401
0.000895257
0.000888326
0.000881689
0.000875257
0.000868906
0.000862567
0.000856389
0.000850305
0.000844068
0.000837796
0.000831639
0.000825728
0.000818154
0.000814391
0.000873962
0.000998786
0.00113508
0.00125545
0.0013404
0.00132319
0.00187399
0.00180903
0.00168782
0.0016013
0.0015378
0.00148113
0.00143593
0.00139865
0.00136622
0.00133809
0.00131287
0.00128989
0.00126901
0.00124986
0.00123237
0.00121656
0.0012024
0.00119001
0.00117954
0.00117104
0.00116504
0.00117818
0.00123826
0.00130885
0.0013663
0.00138717
0.00135906
0.00134791
0.000976196
0.000201926
5.86857e-05
9.16485e-10
9.27311e-10
9.40309e-10
9.55812e-10
9.74376e-10
9.95721e-10
1.01657e-09
1.0399e-09
0.00105047
0.000655618
0.000453507
0.000424968
0.000422203
0.000420198
0.000413489
0.000402051
0.000391043
0.000381036
0.00036819
0.000355255
0.000344446
0.000333851
0.000324945
0.000318685
0.00031394
0.000311456
0.000310969
0.000312278
0.000314988
0.000319149
0.000324517
0.000329485
0.000332348
0.000334251
0.000336251
0.000338179
0.000340053
0.00034188
0.000343707
0.00034472
0.000347213
0.0003769
0.000435532
0.000500325
0.00058227
0.000700746
0.000939976
0.000705016
0.000684834
0.000660363
0.000612974
0.00059131
0.000572711
0.000549171
0.000533036
0.000518603
0.000503742
0.000492578
0.000482435
0.000473442
0.000466561
0.00046068
0.000456153
0.000452697
0.00045021
0.000448616
0.000447805
0.000447673
0.000454294
0.00047858
0.000527761
0.000463881
0.000741291
0.000922949
0.00104331
0.00103229
0.000406953
0.000123254
9.19982e-10
9.30084e-10
9.42294e-10
9.56918e-10
9.74391e-10
9.94521e-10
1.01488e-09
1.0382e-09
0.000393317
0.000443581
0.000540629
0.000550005
0.000560071
0.000572323
0.000577948
0.000574366
0.000567868
0.000560415
0.000547159
0.00053215
0.000519123
0.000505477
0.000493592
0.000485187
0.000478872
0.00047561
0.000475377
0.000477794
0.000482239
0.000488667
0.000496676
0.000503528
0.000506383
0.000507179
0.000507885
0.000508434
0.000508851
0.000509138
0.000509386
0.00050965
0.0005101
0.000505637
0.000488052
0.000452941
0.000400413
0.000471861
0.000354225
0.000236827
0.000248877
0.000296529
0.000315057
0.000332837
0.000345849
0.000347733
0.000349416
0.000349252
0.000346262
0.000344292
0.000341897
0.000339329
0.000337551
0.000335792
0.000334392
0.000333138
0.000332008
0.000330871
0.000329695
0.000328199
0.000325206
0.000306455
0.000275244
0.000305969
0.000347779
0.000409724
0.00043598
0.000731792
0.000533532
7.07399e-05
2.06863e-05
9.32948e-10
9.44384e-10
9.58141e-10
9.74558e-10
9.93566e-10
1.01342e-09
1.03658e-09
0.000671113
0.00117886
0.00136775
0.00139144
0.00140545
0.00141957
0.00143211
0.00144056
0.00144465
0.00144566
0.00144464
0.001442
0.00143834
0.00143409
0.00142933
0.00142417
0.00141864
0.00141267
0.00140618
0.00139904
0.00139113
0.00138223
0.00137216
0.00136096
0.00134888
0.00133608
0.00132269
0.00130885
0.00129468
0.00128037
0.00126615
0.00125219
0.00123889
0.00121399
0.00115835
0.00106266
0.000928696
0.000786108
0.000705565
0.000628602
0.00065711
0.000758182
0.000824551
0.000868259
0.000898317
0.000914651
0.000923729
0.000928532
0.000929916
0.000929375
0.000927564
0.000924665
0.000921007
0.00091669
0.000911777
0.000906361
0.000900506
0.000894281
0.000887898
0.000881167
0.000871773
0.000821286
0.000739149
0.000665576
0.000515843
0.000346852
0.000389249
0.000555127
0.000625742
0.000251059
8.98828e-05
9.35882e-10
9.46566e-10
9.59476e-10
9.74883e-10
9.92865e-10
1.01218e-09
1.03499e-09
0.00146373
0.00180058
0.00175787
0.00177993
0.00178232
0.00178223
0.00178165
0.00177965
0.00177559
0.00176992
0.00176351
0.00175665
0.00174953
0.00174244
0.00173535
0.00172818
0.00172093
0.00171345
0.00170562