/*--------------------------------*- C++ -*----------------------------------*\
| =========                 |                                                 |
| \\      /  F ield         | OpenFOAM: The Open Source CFD Toolbox           |
|  \\    /   O peration     | Version:  2312                                  |
|   \\  /    A nd           | Website:  www.openfoam.com                      |
|    \\/     M anipulation  |                                                 |
\*---------------------------------------------------------------------------*/
FoamFile
{
    version     2.0;
    format      ascii;
    arch        "LSB;label=32;scalar=64";
    class       surfaceScalarField;
    location    "55.049217594718542";
    object      phi;
}
// * * * * * * * * * * * * * * * * * * * * * * * * * * * * * * * * * * * * * //

dimensions      [0 3 -1 0 0 0 0];

oriented        oriented;

internalField   nonuniform List<scalar> 
41713
(
0.00736779
0.0568787
0.00362978
0.0679844
0.00211829
0.0657579
0.00148669
0.064878
0.00110151
0.0646316
0.000847821
0.0645001
0.000673155
0.0644211
0.000546607
0.064373
0.00045157
0.0643415
0.000378392
0.0643196
0.00032095
0.0643039
0.000275189
0.0642922
0.000238344
0.0642833
0.000208472
0.0642763
0.000184179
0.0642707
0.000164439
0.0642662
0.000148487
0.0642624
0.000135733
0.0642592
0.000125717
0.0642565
0.00011805
0.0642541
0.000112368
0.0642521
0.000108304
0.0642505
0.000105568
0.0642492
0.000103758
0.054813
0.000102211
0.0456775
0.000100722
0.0380648
9.93022e-05
0.0317208
9.79857e-05
0.0264342
0.0220286
9.67558e-05
0.00999821
0.0468804
0.00843584
0.0695468
0.00572497
0.0684688
0.00413267
0.0664703
0.00313381
0.0656305
0.0024444
0.0651895
0.00194861
0.0649169
0.00158097
0.0647406
0.0013012
0.0646212
0.00108351
0.0645373
0.000910951
0.0644764
0.000772143
0.064431
0.000659238
0.0643962
0.00056669
0.0643689
0.000490504
0.0643469
0.000427749
0.0643289
0.000376243
0.0643139
0.00033433
0.0643011
0.000300731
0.0642901
0.00027443
0.0642804
0.000254595
0.064272
0.000240489
0.0642646
0.000231373
0.0642583
0.000226623
0.0548177
0.000224198
0.0456799
0.000222839
0.0380662
0.000221843
0.0317218
0.000220896
0.0264351
0.0220295
0.000220039
0.00860187
0.0382786
0.00972049
0.0684282
0.00748575
0.0707035
0.00571934
0.0682367
0.00453434
0.0668155
0.00365275
0.0660711
0.00297417
0.0655955
0.002447
0.0652678
0.00203258
0.0650357
0.00170234
0.0648675
0.00143584
0.0647429
0.00121846
0.0646484
0.00103963
0.064575
0.000891664
0.0645168
0.000768869
0.0644697
0.000667014
0.0644308
0.00058291
0.064398
0.000514128
0.0643699
0.000458789
0.0643454
0.000415418
0.0643238
0.000382827
0.0643045
0.000360016
0.0642874
0.000345974
0.0642723
0.000339628
0.0548241
0.000337405
0.0456822
0.000337012
0.0380666
0.000337157
0.0317217
0.000337266
0.026435
0.0220294
0.000337328
0.00678054
0.031498
0.00949009
0.0657187
0.00814162
0.072052
0.00646617
0.0699122
0.00528026
0.0680014
0.00438061
0.0669708
0.00365534
0.0663208
0.00306504
0.0658581
0.00258256
0.0655181
0.00218588
0.0652642
0.00185773
0.0650711
0.0015847
0.0649214
0.00135651
0.0648032
0.00116523
0.0647081
0.00100484
0.0646301
0.000870672
0.064565
0.000759168
0.0645095
0.000667565
0.0644615
0.00059371
0.0644192
0.000535907
0.0643816
0.000492794
0.0643477
0.000463222
0.064317
0.000445947
0.0642896
0.000439263
0.0548308
0.000438158
0.0456833
0.000439414
0.0380653
0.000441266
0.0317198
0.00044298
0.0264333
0.0220279
0.000444523
0.00507013
0.0264279
0.00858557
0.0622032
0.00820647
0.0724311
0.00676924
0.0713494
0.00562067
0.06915
0.00475236
0.0678391
0.00404248
0.0670306
0.00344702
0.0664535
0.00294503
0.0660201
0.00252057
0.0656887
0.0021607
0.065431
0.0018549
0.0652272
0.00159471
0.0650634
0.00137335
0.0649295
0.00118543
0.064818
0.00102667
0.0647237
0.000893726
0.0646424
0.000783936
0.0645713
0.000695215
0.064508
0.000625907
0.0644509
0.000574673
0.0643989
0.000540358
0.0643513
0.000521599
0.0643084
0.00051596
0.0548364
0.000517097
0.0456821
0.000520963
0.0380614
0.000525383
0.0317154
0.000529483
0.0264292
0.0220242
0.00053319
0.00362264
0.0228053
0.0073263
0.0584995
0.00780966
0.0719477
0.00675999
0.0723991
0.00570769
0.0702023
0.00489158
0.0686552
0.00422059
0.0677016
0.00364612
0.067028
0.00315024
0.066516
0.00272141
0.0661175
0.00235014
0.0658022
0.00202856
0.0655488
0.00175026
0.0653417
0.00150994
0.0651698
0.00130332
0.0650247
0.00112692
0.0649001
0.000977971
0.0647914
0.000854248
0.064695
0.000754004
0.0646082
0.000675847
0.064529
0.000618654
0.0644561
0.000581425
0.0643885
0.000562831
0.064327
0.000559619
0.0548396
0.000564182
0.0456776
0.000571706
0.0380539
0.000579644
0.0317075
0.000586981
0.0264219
0.0220175
0.000593608
0.00252627
0.020279
0.00603195
0.0549939
0.00712413
0.0708556
0.00650654
0.0730167
0.00560538
0.0711034
0.00486095
0.0693996
0.00424313
0.0683194
0.00370457
0.0675666
0.00322924
0.0669913
0.00280952
0.0665372
0.00243915
0.0661726
0.00211273
0.0658752
0.00182572
0.0656287
0.00157437
0.0654211
0.00135556
0.0652435
0.00116677
0.0650889
0.00100597
0.0649522
0.000871562
0.0648294
0.000762318
0.0647175
0.000677285
0.0646141
0.000615718
0.0645177
0.000576924
0.0644273
0.000559752
0.0643441
0.000560071
0.0548393
0.000569069
0.0456686
0.000581206
0.0380418
0.000593578
0.0316951
0.000605029
0.0264104
0.0220072
0.000615394
0.00176101
0.018518
0.00489847
0.0518564
0.00634424
0.0694098
0.00611086
0.0732501
0.00537904
0.0718352
0.00471125
0.0700674
0.00414943
0.0688813
0.00365307
0.0680629
0.00320596
0.0674385
0.002803
0.0669402
0.00244073
0.0665349
0.00211601
0.0661999
0.0018261
0.0659186
0.00156866
0.0656786
0.00134178
0.0654703
0.0011439
0.0652868
0.000973824
0.0651223
0.000830662
0.0649726
0.000713809
0.0648343
0.000622879
0.064705
0.000557639
0.0645829
0.000517836
0.0644671
0.000502636
0.0643593
0.000507083
0.0548348
0.000521199
0.0456545
0.000538727
0.0380242
0.00055638
0.0316775
0.000572816
0.026394
0.0219922
0.000587766
0.00124914
0.0172688
0.0039744
0.0491311
0.00558446
0.0677997
0.00565669
0.0731778
0.00508896
0.072403
0.00449216
0.0706642
0.00397864
0.0693948
0.00352133
0.0685202
0.00310292
0.0678569
0.00271891
0.0673242
0.0023676
0.0668862
0.00204754
0.06652
0.00175749
0.0662087
0.00149636
0.0659397
0.00126333
0.0657034
0.00105777
0.0654923
0.00087932
0.0653007
0.000727852
0.065124
0.000603445
0.0649587
0.000506368
0.0648021
0.000437014
0.0646522
0.0003957
0.0645084
0.000382058
0.064373
0.000390505
0.0548264
0.000409907
0.0456351
0.000433247
0.0380009
0.000456819
0.0316539
0.000479021
0.0263718
0.0219718
0.000499387
0.000913613
0.0163552
0.00324109
0.0468037
0.00488859
0.0661522
0.00518814
0.0728783
0.00477027
0.0728208
0.0042377
0.0711968
0.00376203
0.0698705
0.00333566
0.0689466
0.00294131
0.0682512
0.00257397
0.0676915
0.00223267
0.0672275
0.00191707
0.0668356
0.00162693
0.0664988
0.00136218
0.0662044
0.00112286
0.0659427
0.000909214
0.065706
0.000721653
0.0654883
0.000560788
0.0652849
0.000427433
0.0650921
0.000322588
0.0649069
0.000247363
0.0647275
0.000202757
0.064553
0.000189007
0.0643867
0.000200277
0.0548151
0.000224323
0.045611
0.000253283
0.0379719
0.000282903
0.0316243
0.00031137
0.0263433
0.0219454
0.000337825
0.000694697
0.0156605
0.00266547
0.0448329
0.00426976
0.0645479
0.00472687
0.0724212
0.00443965
0.0731081
0.00396546
0.071671
0.00351883
0.0703171
0.00311465
0.0693508
0.00273782
0.0686281
0.0023825
0.0680469
0.00204787
0.0675621
0.00173419
0.0671493
0.0014419
0.0667911
0.00117162
0.0664747
0.000924101
0.0661902
0.000700281
0.0659298
0.000501282
0.0656873
0.000328454
0.0654577
0.000183305
0.0652372
6.75275e-05
0.0650227
-1.70021e-05
0.064812
-6.84206e-05
0.0646045
-8.56454e-05
0.0644039
-7.40741e-05
0.0548036
-4.70408e-05
0.045584
-1.33434e-05
0.0379382
2.1964e-05
0.031589
5.62002e-05
0.0263091
0.021913
8.85829e-05
0.000548844
0.0151117
0.00221371
0.043168
0.00372811
0.0630335
0.00428529
0.071864
0.00410684
0.0732865
0.00368499
0.0720928
0.00326042
0.0707417
0.00287052
0.0697407
0.00250443
0.0689941
0.0021557
0.0683956
0.00182327
0.0678946
0.00150765
0.0674649
0.00120972
0.067089
0.000930578
0.0667539
0.000671505
0.0664493
0.000434022
0.0661673
0.000219834
0.0659015
3.08294e-05
0.0656467
-0.000130828
0.0653989
-0.000262646
0.0651545
-0.000361849
0.0649112
-0.000425647
0.0646683
-0.000452039
0.0644303
-0.00044496
0.0547965
-0.000418693
0.0455577
-0.000382991
0.0379025
-0.000343529
0.0315495
-0.00030345
0.026269
0.0218743
-0.00026478
0.000446876
0.0146648
0.00185576
0.0417591
0.0032572
0.0616321
0.00387022
0.071251
0.00377873
0.073378
0.00340278
0.0724688
0.00299459
0.0711498
0.0026121
0.0701232
0.00225032
0.0693559
0.0019026
0.0687433
0.00156746
0.0682297
0.0012454
0.0677869
0.000937533
0.0673969
0.000645241
0.0670462
0.000370219
0.0667243
0.000114309
0.0664232
-0.000120388
0.0661362
-0.000331404
0.0658577
-0.000515816
0.0655833
-0.000670318
0.065309
-0.000791326
0.0650322
-0.000875194
0.0647521
-0.000919059
0.0644742
-0.000923907
0.0548013
-0.000904365
0.0455382
-0.000870954
0.0378691
-0.000830265
0.0315088
-0.000786417
0.0262251
0.0218301
-0.000742195
0.00037117
0.0142936
0.00156791
0.0405624
0.00284817
0.0603518
0.00348448
0.0706147
0.0034601
0.0734024
0.00312356
0.0728053
0.00272731
0.0715461
0.00234658
0.0705039
0.00198329
0.0697192
0.00163126
0.0690953
0.00128847
0.0685725
0.000955244
0.0681202
0.000632698
0.0677194
0.000322359
0.0673565
2.59847e-05
0.0670207
-0.000254329
0.0667035
-0.000516065
0.0663979
-0.000756135
0.0660978
-0.000970972
0.0657981
-0.00115656
0.0654946
-0.00130857
0.0651842
-0.00142271
0.0648663
-0.00149564
0.0645471
-0.00152391
0.0548296
-0.00152175
0.045536
-0.00149972
0.0378471
-0.00146486
0.0314739
-0.00142231
0.0261826
0.0217841
-0.0013763
0.000311652
0.013982
0.00133438
0.0395397
0.00249507
0.0591911
0.00313077
0.069979
0.00315489
0.0733783
0.00285073
0.0731095
0.0024627
0.0719341
0.0020793
0.0708873
0.00170962
0.0700889
0.00134848
0.0694565
0.000993411
0.0689276
0.000644396
0.0684692
0.000302399
0.0680614
-3.12389e-05
0.0676901
-0.000354794
0.0673442
-0.000665951
0.0670147
-0.000961747
0.0666937
-0.00123867
0.0663747
-0.00149258
0.066052
-0.00171877
0.0657208
-0.00191225
0.0653777
-0.00206844
0.0650225
-0.00218461
0.0646633
-0.00225221
0.0548972
-0.00228472
0.0455685
-0.00229125
0.0378536
-0.00227715
0.0314598
-0.00224708
0.0261525
0.0217435
-0.00220652
0.000226319
0.0137557
0.000974881
0.0387911
0.00186499
0.058301
0.00238915
0.0694548
0.00243631
0.0733311
0.00220035
0.0733454
0.00187754
0.0722569
0.00155005
0.0712148
0.00123085
0.0704081
0.000916548
0.0697708
0.000604716
0.0692394
0.000294945
0.0687789
-1.23196e-05
0.0683687
-0.000316201
0.067994
-0.000615314
0.0676433
-0.000907682
0.067307
-0.00119076
0.0669768
-0.00146136
0.0666453
-0.00171558
0.0663063
-0.0019488
0.065954
-0.00215596
0.0655849
-0.00233258
0.0651991
-0.00247676
0.0648075
-0.00257718
0.0549976
-0.00264694
0.0456383
-0.00269351
0.0379002
-0.00271847
0.0314848
-0.00272181
0.0261559
0.0217288
-0.0027071
0.000167764
0.0135879
0.000723469
0.0382354
0.00140726
0.0576172
0.00183218
0.0690299
0.00188555
0.0732777
0.00170071
0.0735303
0.00143361
0.072524
0.00115687
0.0714915
0.000884681
0.0706803
0.00061483
0.0700406
0.000344976
0.0695092
7.43978e-05
0.0690495
-0.000196899
0.06864
-0.000468438
0.0682656
-0.00073924
0.0679142
-0.00100791
0.0675757
-0.00127249
0.0672414
-0.00153038
0.0669032
-0.00177822
0.0665541
-0.00201178
0.0661876
-0.00222609
0.0657992
-0.0024162
0.0653892
-0.00257932
0.0649706
-0.00270068
0.055119
-0.00279549
0.0457331
-0.00287573
0.0379804
-0.00294634
0.0315554
-0.00300513
0.0262147
0.0217625
-0.00303879
0.000128501
0.0134594
0.000549835
0.0378141
0.00108167
0.0570854
0.00142571
0.0686859
0.00147771
0.0732257
0.00133113
0.0736768
0.00111004
0.0727451
0.000877019
0.0717246
0.000645961
0.0709114
0.000415465
0.0702711
0.000183368
0.0697413
-5.1255e-05
0.0692842
-0.000288654
0.0688774
-0.000528668
0.0685056
-0.000770795
0.0681563
-0.00101418
0.0678191
-0.00125752
0.0674847
-0.00149891
0.0671446
-0.00173575
0.0667909
-0.00196454
0.0664164
-0.00218079
0.0660154
-0.00237932
0.0655877
-0.00255508
0.0651464
-0.00268608
0.05525
-0.00278526
0.0458323
-0.00286979
0.038065
-0.00295413
0.0316398
-0.00305625
0.0263168
0.0218927
-0.00318643
9.78107e-05
0.0133616
0.000425321
0.0374866
0.00084767
0.0566631
0.00112858
0.0684049
0.0011746
0.0731797
0.00105478
0.0737967
0.000870336
0.0729296
0.000674503
0.0719204
0.000479346
0.0711065
0.000283554
0.0704669
8.51187e-05
0.0699398
-0.000116899
0.0694862
-0.000322876
0.0690834
-0.000532917
0.0687156
-0.000746911
0.0683703
-0.000964483
0.0680367
-0.00118492
0.0677051
-0.00140705
0.0673668
-0.00162909
0.067013
-0.00184856
0.0666359
-0.00206216
0.066229
-0.00226586
0.0657914
-0.00245444
0.0653349
-0.0025982
0.0553937
-0.00269864
0.0459327
-0.00276313
0.0381295
-0.00280187
0.0316785
-0.00283352
0.0263484
-0.00299377
0.0220529
0.000141525
0.0219826
0.000183764
0.0219851
0.000217056
0.0219941
0.000247992
0.0219964
0.000273102
0.0220022
0.000293672
0.0220068
0.0003112
0.0220098
0.000322405
0.0220162
0.000331591
0.0220182
0.000335748
0.0220232
0.000336826
0.0220263
0.000335365
0.0220288
0.000329451
0.0220333
0.00032192
0.0220349
0.000311127
0.0220381
0.000298015
0.0220405
0.00028355
0.0220418
0.000266096
0.0220448
0.00024756
0.0220459
0.000227768
0.0220471
0.000206397
0.0220487
0.000184392
0.0220494
0.0001617
0.02205
0.000138483
0.0220506
0.000115137
0.0220507
9.18309e-05
0.0220507
6.8953e-05
0.0220502
4.64964e-05
0.0220498
2.47839e-05
0.0220491
4.45758e-06
0.0220477
-1.49861e-05
0.0220468
-3.27137e-05
0.0220451
-4.84216e-05
0.0220431
-6.28788e-05
0.0220418
-7.40393e-05
0.0220385
-8.32319e-05
0.0220365
-9.01484e-05
0.0220343
-9.28897e-05
0.0220301
-9.38539e-05
0.0220283
-9.01435e-05
0.0220236
-8.32769e-05
0.0220205
-7.32886e-05
0.0220174
-5.74972e-05
0.0220116
-3.95493e-05
0.0220094
-1.48793e-05
0.0220027
1.32331e-05
0.0219992
4.6156e-05
0.0219944
8.54399e-05
0.0219881
0.0219856
0.000127226
0.000264968
0.0219377
0.000307568
0.0219425
0.000341439
0.0219602
0.00037317
0.0219647
0.000399305
0.0219761
0.000421126
0.021985
0.000440114
0.0219908
0.000452993
0.0220033
0.000464035
0.0220071
0.000470234
0.022017
0.000473518
0.022023
0.00047441
0.0220279
0.000470998
0.0220367
0.000466085
0.0220398
0.000458027
0.0220462
0.000447748
0.0220507
0.000436191
0.0220534
0.000421731
0.0220593
0.000406236
0.0220614
0.000389525
0.0220639
0.000371277
0.022067
0.000352401
0.0220682
0.000332841
0.0220696
0.000312753
0.0220707
0.000292505
0.0220709
0.000272258
0.0220709
0.000252399
0.0220701
0.000232891
0.0220693
0.00021405
0.0220679
0.000196517
0.0220652
0.000179757
0.0220636
0.000164604
0.0220602
0.000151347
0.0220563
0.000139187
0.022054
0.000130183
0.0220475
0.000122971
0.0220438
0.000117848
0.0220394
0.000116721
0.0220312
0.000117149
0.0220279
0.000122046
0.0220187
0.000129863
0.0220127
0.000140554
0.0220067
0.000156806
0.0219953
0.000174933
0.0219913
0.000199519
0.0219781
0.000227243
0.0219715
0.000259461
0.0219622
0.000297703
0.0219498
0.0219452
0.000338081
0.000382857
0.0218921
0.000426247
0.0218991
0.000461153
0.0219253
0.000494146
0.0219317
0.000521781
0.0219485
0.000545324
0.0219614
0.00056624
0.0219699
0.000581259
0.0219883
0.000594618
0.0219938
0.000603317
0.0220083
0.00060926
0.0220171
0.000612954
0.0220242
0.000612492
0.0220371
0.00061064
0.0220417
0.000605758
0.0220511
0.00059875
0.0220578
0.000590534
0.0220616
0.000579499
0.0220703
0.000567473
0.0220734
0.000554267
0.0220771
0.000539559
0.0220817
0.000524226
0.0220836
0.000508206
0.0220856
0.000491651
0.0220872
0.000474897
0.0220877
0.000458098
0.0220877
0.000441641
0.0220865
0.000425455
0.0220855
0.000409849
0.0220835
0.000395464
0.0220796
0.000381729
0.0220773
0.00036948
0.0220725
0.000358994
0.0220668
0.000349441
0.0220635
0.000342897
0.0220541
0.000337961
0.0220487
0.00033492
0.0220424
0.000335685
0.0220305
0.000337777
0.0220258
0.000344122
0.0220124
0.000353145
0.0220036
0.000364781
0.021995
0.000381729
0.0219784
0.000400256
0.0219728
0.000424968
0.0219534
0.000452504
0.021944
0.000484213
0.0219305
0.000521617
0.0219124
0.021906
0.000560777
0.000491341
0.0218453
0.000536191
0.0218543
0.00057278
0.0218887
0.00060768
0.0218968
0.000637459
0.0219187
0.000663375
0.0219355
0.00068688
0.0219464
0.000704705
0.0219704
0.000721057
0.0219774
0.000732939
0.0219964
0.000742231
0.0220078
0.000749423
0.022017
0.00075261
0.022034
0.000754522
0.0220397
0.000753522
0.0220521
0.000750492
0.0220608
0.000746325
0.0220658
0.000739421
0.0220772
0.000731569
0.0220813
0.000722568
0.0220861
0.000712098
0.0220922
0.000701
0.0220947
0.000689206
0.0220974
0.00067686
0.0220996
0.000664269
0.0221003
0.000651579
0.0221004
0.000639172
0.022099
0.000626944
0.0220977
0.000615199
0.0220953
0.000604574
0.0220902
0.000594463
0.0220874
0.000585704
0.0220812
0.000578561
0.0220739
0.000572171
0.0220699
0.000568629
0.0220576
0.000566496
0.0220508
0.000566047
0.0220429
0.000569205
0.0220273
0.000573443
0.0220216
0.00058171
0.0220041
0.000592397
0.021993
0.000605428
0.021982
0.000623514
0.0219603
0.000642873
0.0219534
0.00066814
0.0219281
0.000695909
0.0219162
0.000727526
0.0218989
0.000764511
0.0218754
0.0218677
0.000802871
0.00058218
0.0217963
0.000629367
0.0218071
0.000668514
0.0218496
0.000706195
0.0218591
0.000738995
0.0218859
0.000768169
0.0219063
0.000795156
0.0219194
0.00081669
0.0219489
0.00083695
0.0219572
0.000852939
0.0219804
0.000866514
0.0219942
0.000878148
0.0220054
0.000885935
0.0220262
0.000892571
0.0220331
0.000896416
0.0220482
0.000898333
0.0220589
0.000899188
0.0220649
0.000897389
0.022079
0.000894685
0.022084
0.000890865
0.0220899
0.000885603
0.0220974
0.000879709
0.0221006
0.000873102
0.022104
0.000865921
0.0221067
0.000858441
0.0221078
0.000850795
0.022108
0.000843364
0.0221064
0.000836009
0.0221051
0.000829023
0.0221022
0.000823043
0.0220962
0.000817424
0.022093
0.000813007
0.0220857
0.00081004
0.0220769
0.00080763
0.0220723
0.000807888
0.0220573
0.000809336
0.0220494
0.000812241
0.02204
0.000818534
0.022021
0.000825644
0.0220145
0.000836542
0.0219932
0.000849587
0.0219799
0.000864691
0.0219669
0.000884582
0.0219404
0.000905429
0.0219325
0.000931901
0.0219016
0.00096055
0.0218876
0.000992722
0.0218667
0.00102994
0.0218382
0.0218295
0.00106815
0.000645825
0.0217441
0.000696423
0.0217565
0.000739199
0.0218068
0.00078075
0.0218176
0.000817672
0.021849
0.00085122
0.0218728
0.000882825
0.0218878
0.00090922
0.0219225
0.00093456
0.0219318
0.000955843
0.0219591
0.000974908
0.0219751
0.000992209
0.0219881
0.00100583
0.0220125
0.00101844
0.0220205
0.0010284
0.0220383
0.00103653
0.0220507
0.00104369
0.0220577
0.00104828
0.0220744
0.00105202
0.0220802
0.00105467
0.0220872
0.00105591
0.0220962
0.00105651
0.0221
0.00105638
0.0221042
0.00105564
0.0221075
0.00105454
0.0221089
0.00105319
0.0221094
0.00105198
0.0221076
0.00105072
0.0221063
0.00104971
0.0221033
0.00104956
0.0220964
0.0010496
0.022093
0.00105068
0.0220846
0.00105301
0.0220746
0.00105567
0.0220697
0.0010608
0.0220522
0.00106688
0.0220433
0.00107415
0.0220327
0.00108457
0.0220106
0.00109552
0.0220035
0.00110998
0.0219788
0.0011263
0.0219636
0.00114437
0.0219488
0.00116693
0.0219178
0.00119011
0.0219094
0.00121861
0.0218731
0.00124895
0.0218572
0.00128246
0.0218332
0.00132068
0.0218
0.0217906
0.0013595
0.000672068
0.0216874
0.000727341
0.0217012
0.000775036
0.0217591
0.000821773
0.0217708
0.000864159
0.0218066
0.000903452
0.0218335
0.000941078
0.0218502
0.000973763
0.0218898
0.00100565
0.0218999
0.00103372
0.0219311
0.00105979
0.021949
0.00108431
0.0219636
0.00110533
0.0219915
0.00112552
0.0220003
0.00114319
0.0220206
0.00115918
0.0220347
0.00117429
0.0220426
0.00118693
0.0220618
0.00119877
0.0220684
0.00120957
0.0220764
0.00121899
0.0220868
0.00122775
0.0220912
0.00123577
0.0220962
0.00124313
0.0221001
0.00125007
0.0221019
0.00125667
0.0221028
0.0012633
0.022101
0.00126974
0.0220999
0.00127628
0.0220967
0.00128352
0.0220891
0.00129075
0.0220858
0.00129879
0.0220765
0.00130788
0.0220655
0.00131704
0.0220605
0.00132842
0.0220408
0.00134046
0.0220313
0.00135341
0.0220198
0.00136921
0.0219948
0.0013852
0.0219875
0.00140441
0.0219596
0.00142512
0.0219429
0.00144723
0.0219267
0.0014735
0.0218915
0.00150001
0.0218829
0.00153151
0.0218416
0.00156446
0.0218243
0.00160021
0.0217974
0.00164029
0.0217599
0.0217504
0.00168053
0.000650281
0.0216249
0.000711677
0.0216398
0.000765775
0.021705
0.000819237
0.0217174
0.000868671
0.0217572
0.000915339
0.0217868
0.000960671
0.0218049
0.00100137
0.0218491
0.00104158
0.0218597
0.00107826
0.0218944
0.00111322
0.0219141
0.00114687
0.0219299
0.00117725
0.0219611
0.001207
0.0219706
0.00123442
0.0219932
0.00126032
0.0220089
0.00128547
0.0220175
0.00130826
0.022039
0.00133033
0.0220463
0.00135142
0.0220553
0.00137116
0.022067
0.00139025
0.0220721
0.00140855
0.0220778
0.00142617
0.0220825
0.00144327
0.0220848
0.00145993
0.0220861
0.00147649
0.0220844
0.00149271
0.0220837
0.00150882
0.0220806
0.00152544
0.0220725
0.00154181
0.0220694
0.00155874
0.0220596
0.00157644
0.0220478
0.0015939
0.022043
0.00161328
0.0220215
0.00163297
0.0220116
0.0016532
0.0219995
0.00167594
0.021972
0.00169846
0.021965
0.00172383
0.0219342
0.00175029
0.0219164
0.00177773
0.0218993
0.00180894
0.0218603
0.00183994
0.0218519
0.00187552
0.0218061
0.00191211
0.0217877
0.00195107
0.0217585
0.00199393
0.0217171
0.0217079
0.00203644
0.000569259
0.021555
0.000638368
0.0215707
0.000700529
0.0216428
0.000762476
0.0216554
0.000820794
0.0216988
0.000876756
0.0217309
0.000931793
0.0217498
0.00098258
0.0217983
0.00103327
0.021809
0.00108078
0.0218469
0.00112691
0.021868
0.00117204
0.0218848
0.00121421
0.021919
0.001256
0.0219288
0.0012957
0.0219535
0.00133408
0.0219705
0.0013719
0.0219797
0.0014075
0.0220034
0.0014425
0.0220113
0.0014766
0.0220212
0.00150939
0.0220342
0.00154155
0.0220399
0.0015729
0.0220465
0.00160352
0.0220519
0.00163352
0.0220548
0.00166295
0.0220567
0.00169213
0.0220552
0.00172077
0.022055
0.00174907
0.0220523
0.00177763
0.0220439
0.00180563
0.0220414
0.00183387
0.0220314
0.00186253
0.0220191
0.00189055
0.022015
0.00192011
0.0219919
0.00194954
0.0219821
0.00197905
0.02197
0.00201063
0.0219405
0.00204149
0.0219341
0.00207471
0.021901
0.00210851
0.0218826
0.00214276
0.021865
0.00218029
0.0218228
0.00221705
0.0218151
0.00225791
0.0217652
0.00229923
0.0217464
0.00234238
0.0217153
0.00238891
0.0216705
0.0216623
0.0024345
0.000416622
0.0214762
0.000495207
0.0214921
0.000567325
0.0215707
0.000639746
0.021583
0.000709012
0.0216296
0.000776455
0.0216634
0.000843519
0.0216828
0.000906829
0.021735
0.000970558
0.0217453
0.00103157
0.0217859
0.00109166
0.0218079
0.00115118
0.0218253
0.0012081
0.021862
0.00126502
0.0218718
0.00132017
0.0218983
0.00137429
0.0219164
0.0014281
0.0219259
0.00147988
0.0219516
0.00153125
0.0219599
0.00158183
0.0219707
0.0016312
0.0219849
0.00167996
0.0219912
0.00172791
0.0219985
0.00177507
0.0220047
0.00182151
0.0220084
0.00186722
0.022011
0.0019125
0.0220099
0.00195697
0.0220106
0.00200082
0.0220085
0.00204459
0.0220002
0.00208741
0.0219986
0.00213006
0.0219887
0.00217267
0.0219765
0.00221411
0.0219736
0.00225659
0.0219494
0.00229836
0.0219404
0.00233961
0.0219288
0.00238234
0.0218977
0.00242367
0.0218928
0.00246675
0.0218579
0.00250973
0.0218396
0.00255247
0.0218223
0.00259786
0.0217774
0.00264175
0.0217712
0.00268911
0.0217178
0.00273623
0.0216993
0.0027845
0.0216671
0.0028355
0.0216195
0.021613
0.00288482
0.000177742
0.0213871
0.000267715
0.0214022
0.000351953
0.0214865
0.000436866
0.0214981
0.00051953
0.0215469
0.000601131
0.0215818
0.000683043
0.0216009
0.000761821
0.0216562
0.000841692
0.0216654
0.00091946
0.0217081
0.000996909
0.0217304
0.00107438
0.0217478
0.00114977
0.0217867
0.00122567
0.0217959
0.00130025
0.0218238
0.00137421
0.0218424
0.00144823
0.0218518
0.00152053
0.0218793
0.00159267
0.0218878
0.00166423
0.0218991
0.0017347
0.0219144
0.00180466
0.0219212
0.00187382
0.0219294
0.00194213
0.0219364
0.00200961
0.0219409
0.00207618
0.0219444
0.00214207
0.0219441
0.00220683
0.0219458
0.00227059
0.0219447
0.00233384
0.0219369
0.0023956
0.0219368
0.00245663
0.0219277
0.00251701
0.0219162
0.00257551
0.0219151
0.00263435
0.0218906
0.0026917
0.021883
0.00274771
0.0218728
0.00280438
0.0218411
0.00285876
0.0218384
0.00291402
0.0218026
0.00296828
0.0217854
0.00302137
0.0217692
0.00307624
0.0217225
0.00312864
0.0217188
0.00318367
0.0216628
0.00323754
0.0216454
0.00329167
0.0216129
0.00334769
0.0215635
0.0215596
0.00340108
-0.000164196
0.0212865
-6.19792e-05
0.0212999
3.55258e-05
0.021389
0.000136182
0.0213974
0.000235283
0.0214478
0.000334087
0.021483
0.000434075
0.0215009
0.000531752
0.0215586
0.000631491
0.0215657
0.00072999
0.0216096
0.000829036
0.0216314
0.000928943
0.0216479
0.00102749
0.0216881
0.00112729
0.0216961
0.0012264
0.0217246
0.0013255
0.0217433
0.0014252
0.0217521
0.00152362
0.0217809
0.00162229
0.0217891
0.00172068
0.0218007
0.00181823
0.0218169
0.0019154
0.0218241
0.00201183
0.0218329
0.00210739
0.0218409
0.00220199
0.0218463
0.00229545
0.0218509
0.00238794
0.0218516
0.00247888
0.0218549
0.00256829
0.0218553
0.00265661
0.0218486
0.00274273
0.0218507
0.00282735
0.0218431
0.00291044
0.0218331
0.00299069
0.0218348
0.00307029
0.021811
0.0031473
0.021806
0.00322181
0.0217983
0.00329585
0.021767
0.00336632
0.021768
0.00343648
0.0217325
0.00350435
0.0217175
0.00356975
0.0217038
0.00363573
0.0216566
0.00369792
0.0216566
0.00376158
0.0215991
0.00382282
0.0215842
0.00388314
0.0215526
0.00394422
0.0215024
0.0215024
0.00400144
-0.000627768
0.0211721
-0.000509988
0.0211822
-0.00039582
0.0212748
-0.00027861
0.0212802
-0.000161559
0.0213308
-4.322e-05
0.0213647
7.79678e-05
0.0213797
0.000198276
0.0214383
0.000321945
0.021442
0.000445538
0.021486
0.000571181
0.0215057
0.00069887
0.0215202
0.00082635
0.0215606
0.000956248
0.0215662
0.00108647
0.0215944
0.00121756
0.0216122
0.00135005
0.0216196
0.00148193
0.021649
0.00161466
0.0216564
0.00174761
0.0216678
0.00188009
0.0216844
0.00201246
0.0216917
0.00214422
0.0217012
0.00227515
0.0217099
0.00240499
0.0217165
0.00253343
0.0217225
0.00266053
0.0217245
0.00278552
0.0217299
0.00290829
0.0217325
0.00302918
0.0217277
0.00314687
0.021733
0.00326195
0.021728
0.00337431
0.0217207
0.00348241
0.0217267
0.00358847
0.0217049
0.00369035
0.0217041
0.00378806
0.0217006
0.00388366
0.0216714
0.00397385
0.0216778
0.004062
0.0216443
0.00414602
0.0216335
0.00422572
0.0216241
0.00430428
0.021578
0.00437719
0.0215837
0.00444994
0.0215264
0.00451855
0.0215156
0.00458463
0.0214865
0.00464997
0.0214371
0.0214425
0.00470983
-0.00124908
0.0210449
-0.00111629
0.0210494
-0.00098504
0.0211435
-0.000847798
0.021143
-0.000708549
0.0211915
-0.000565929
0.0212221
-0.000418482
0.0212322
-0.000270048
0.0212898
-0.00011602
0.021288
3.98713e-05
0.0213301
0.000198801
0.0213468
0.000361399
0.0213576
0.000525321
0.0213967
0.000693484
0.0213981
0.000863255
0.0214246
0.0010352
0.0214403
0.00120979
0.0214451
0.00138476
0.021474
0.00156148
0.0214797
0.00173917
0.0214901
0.00191701
0.0215065
0.00209522
0.0215135
0.00227314
0.0215233
0.00245037
0.0215327
0.00262646
0.0215404
0.00280089
0.0215481
0.00297355
0.0215518
0.00314338
0.02156
0.00331008
0.0215658
0.0034738
0.021564
0.00363292
0.0215739
0.00378788
0.021573
0.00393835
0.0215702
0.00408253
0.0215825
0.00422262
0.0215648
0.0043562
0.0215706
0.00448314
0.0215736
0.00460554
0.021549
0.00471981
0.0215635
0.00482947
0.0215347
0.00493228
0.0215307
0.00502804
0.0215283
0.00512012
0.0214859
0.00520383
0.0215
0.00528503
0.0214452
0.00535964
0.0214409
0.00542947
0.0214167
0.00549654
0.02137
0.0213831
0.00555599
-0.00206863
0.020907
-0.00192149
0.0209022
-0.0017731
0.0209951
-0.00161543
0.0209853
-0.00145225
0.0210283
-0.00128183
0.0210516
-0.00110256
0.021053
-0.000918684
0.0211059
-0.000725882
0.0210952
-0.000528364
0.0211326
-0.000324383
0.0211428
-0.000114417
0.0211477
9.82475e-05
0.021184
0.000315452
0.0211809
0.000535789
0.0212043
0.000760607
0.0212155
0.000989438
0.0212162
0.00122009
0.0212434
0.00145385
0.0212459
0.00168977
0.0212541
0.00192692
0.0212694
0.00216531
0.0212751
0.0024041
0.0212845
0.00264267
0.0212941
0.00288025
0.0213028
0.00311604
0.0213123
0.00334963
0.0213182
0.00357953
0.0213301
0.00380508
0.0213403
0.00402615
0.0213429
0.00424059
0.0213594
0.00444859
0.021365
0.0046495
0.0213693
0.00484105
0.021391
0.00502543
0.0213804
0.00519978
0.0213962
0.00536378
0.0214096
0.00551957
0.0213932
0.00566315
0.0214199
0.00579824
0.0213996
0.00592239
0.0214065
0.00603537
0.0214154
0.00614084
0.0213804
0.00623387
0.021407
0.0063209
0.0213582
0.0063978
0.021364
0.0064668
0.0213477
0.00653027
0.0213065
0.0213301
0.00658326
-0.00259325
0.0207931
-0.0024685
0.0207775
-0.0023378
0.0208644
-0.00219183
0.0208393
-0.00203348
0.02087
-0.00186183
0.02088
-0.00167659
0.0208677
-0.0014827
0.0209121
-0.00127751
0.02089
-0.00106567
0.0209208
-0.000846679
0.0209238
-0.000621196
0.0209222
-0.000391754
0.0209546
-0.000156109
0.0209452
8.26428e-05
0.0209656
0.000323478
0.0209746
0.000569945
0.0209698
0.000819352
0.020994
0.00107279
0.0209925
0.00132954
0.0209974
0.00158882
0.0210101
0.00185053
0.0210134
0.00211382
0.0210212
0.00237798
0.02103
0.00264196
0.0210389
0.00290472
0.0210495
0.00316554
0.0210574
0.00342257
0.0210731
0.00367475
0.0210881
0.00392153
0.0210961
0.00416043
0.0211205
0.00439124
0.0211342
0.00461298
0.0211476
0.00482318
0.0211808
0.00502365
0.02118
0.00521149
0.0212084
0.00538626
0.0212348
0.00554984
0.0212297
0.00569845
0.0212713
0.0058355
0.0212625
0.00595867
0.0212833
0.00606773
0.0213063
0.00616597
0.0212822
0.00624885
0.0213241
0.00632224
0.0212848
0.00638254
0.0213037
0.0064321
0.0212981
0.00647376
0.0212649
0.0213
0.00650383
-0.00294779
0.0207021
-0.00285535
0.020685
-0.00275325
0.0207623
-0.00262517
0.0207113
-0.00247321
0.020718
-0.00229931
0.0207061
-0.00210674
0.0206752
-0.00190279
0.0207081
-0.00168723
0.0206744
-0.00146537
0.0206989
-0.0012374
0.0206959
-0.00100422
0.020689
-0.000768318
0.0207187
-0.000527863
0.0207048
-0.000284051
0.0207217
-3.57531e-05
0.0207263
0.000214216
0.0207198
0.000468201
0.02074
0.000727257
0.0207334
0.000990889
0.0207338
0.00125856
0.0207424
0.00153025
0.0207417
0.00180514
0.0207463
0.00208248
0.0207526
0.00236105