/*--------------------------------*- C++ -*----------------------------------*\
| =========                 |                                                 |
| \\      /  F ield         | OpenFOAM: The Open Source CFD Toolbox           |
|  \\    /   O peration     | Version:  2312                                  |
|   \\  /    A nd           | Website:  www.openfoam.com                      |
|    \\/     M anipulation  |                                                 |
\*---------------------------------------------------------------------------*/
FoamFile
{
    version     2.0;
    format      ascii;
    arch        "LSB;label=32;scalar=64";
    class       surfaceScalarField;
    location    "52.737475239999966";
    object      phi;
}
// * * * * * * * * * * * * * * * * * * * * * * * * * * * * * * * * * * * * * //

dimensions      [0 3 -1 0 0 0 0];

oriented        oriented;

internalField   nonuniform List<scalar> 
41713
(
0.00736092
0.0568855
0.00362804
0.0679793
0.00211669
0.0657578
0.00148358
0.0648795
0.00109749
0.0646325
0.000843123
0.0645008
0.000667756
0.0644218
0.000540459
0.0643737
0.000444623
0.0643423
0.00037059
0.0643205
0.000312233
0.0643048
0.000265498
0.0642932
0.00022762
0.0642843
0.00019666
0.0642774
0.000171225
0.0642719
0.000150294
0.0642674
0.000133104
0.0642636
0.000119073
0.0642605
0.000107745
0.0642578
9.87378e-05
0.0642554
9.1694e-05
0.0642535
8.62512e-05
0.0642519
8.21302e-05
0.0642506
7.91343e-05
0.0548142
7.65919e-05
0.0456785
7.42659e-05
0.0380656
7.2147e-05
0.0317215
7.02468e-05
0.0264348
0.0220291
6.85262e-05
0.00999267
0.0468928
0.00842429
0.0695477
0.00571236
0.0684697
0.00411848
0.0664734
0.00311725
0.0656338
0.00242516
0.0651929
0.00192645
0.0649205
0.0015557
0.0647445
0.0012726
0.0646254
0.00105135
0.0645417
0.000875023
0.0644811
0.000732235
0.064436
0.000615146
0.0644014
0.000518219
0.0643743
0.000437472
0.0643526
0.00036999
0.0643348
0.00031361
0.06432
0.000266698
0.0643074
0.000227999
0.0642965
0.00019653
0.0642869
0.00017149
0.0642785
0.000152181
0.0642712
0.000137895
0.0642648
0.000128789
0.0548233
0.000122796
0.0456845
0.00011852
0.0380699
0.000115144
0.0317249
0.00011225
0.0264377
0.0220315
0.000109809
0.00859278
0.0383001
0.00970136
0.0684391
0.00746249
0.0707086
0.00569285
0.0682431
0.00450325
0.0668234
0.00361636
0.0660798
0.00293207
0.0656048
0.00239879
0.0652778
0.00197783
0.0650463
0.00164065
0.0648789
0.0013668
0.064755
0.00114168
0.0646611
0.00095474
0.0645883
0.000798289
0.0645308
0.000666673
0.0644842
0.000555688
0.0644458
0.000462182
0.0644135
0.000383769
0.0643858
0.000318621
0.0643616
0.000265322
0.0643402
0.000222753
0.0643211
0.000189988
0.064304
0.000166097
0.0642887
0.000151503
0.0548379
0.000142565
0.0456934
0.000136715
0.0380758
0.000132422
0.0317292
0.000128914
0.0264412
0.0220344
0.000126025
0.0067709
0.0315292
0.009465
0.065745
0.00810808
0.0720655
0.00642714
0.069924
0.00523427
0.0680162
0.00432638
0.0669877
0.0035922
0.066339
0.00299239
0.0658776
0.00249977
0.0655389
0.00209232
0.0652863
0.00175279
0.0650945
0.00146779
0.0649461
0.00122704
0.0648291
0.00102266
0.0647352
0.000848642
0.0646583
0.000700378
0.0645941
0.000574355
0.0645395
0.000467877
0.0644923
0.000378872
0.0644506
0.000305735
0.0644133
0.000247211
0.0643796
0.000202273
0.0643489
0.000169811
0.0643212
0.000150425
0.0548573
0.000138988
0.0457049
0.000131849
0.0380829
0.000126879
0.0317342
0.000123042
0.026445
0.0220374
0.000120057
0.00506061
0.0264686
0.00855705
0.0622486
0.00816437
0.0724582
0.00671852
0.0713699
0.00556072
0.069174
0.00468136
0.067867
0.00395929
0.067061
0.00335079
0.0664861
0.00283491
0.0660548
0.00239573
0.0657255
0.00202031
0.0654699
0.00169815
0.0652682
0.00142081
0.0651064
0.00118154
0.0649744
0.000974985
0.0648648
0.000796938
0.0647721
0.000644102
0.0646924
0.000513918
0.0646225
0.000404407
0.0645601
0.000314036
0.0645037
0.000241611
0.064452
0.000186134
0.0644044
0.000146419
0.0643609
0.000123275
0.0548804
0.000110151
0.045718
0.000102414
0.0380906
9.74057e-05
0.0317392
9.3864e-05
0.0264485
0.0220399
9.13744e-05
0.00361366
0.0228549
0.00729707
0.0585652
0.0077624
0.0719928
0.00670024
0.072432
0.00563623
0.070238
0.00480649
0.0686968
0.00412025
0.0677473
0.0035294
0.0670769
0.00301608
0.0665681
0.00256876
0.0661728
0.00217795
0.0658607
0.00183582
0.0656104
0.00153594
0.0654063
0.00127306
0.0652373
0.00104295
0.0650949
0.000842185
0.0649729
0.000668075
0.0648665
0.000518511
0.064772
0.000391871
0.0646868
0.000286923
0.0646087
0.000202727
0.0645362
0.000138482
0.0644686
9.29796e-05
0.0644064
6.74007e-05
0.054906
5.36333e-05
0.0457318
4.62059e-05
0.0380981
4.19339e-05
0.0317435
3.93e-05
0.0264512
0.0220413
3.78746e-05
0.00251832
0.0203366
0.00600476
0.0550787
0.0070761
0.0709215
0.00644204
0.0730661
0.00552641
0.0711537
0.00476604
0.0694571
0.00413037
0.068383
0.00357252
0.0676348
0.00307666
0.067064
0.00263517
0.0666143
0.00224178
0.0662541
0.00189109
0.0659611
0.00157859
0.0657188
0.00130053
0.0655154
0.00105385
0.0653416
0.000836077
0.0651907
0.000645279
0.0650573
0.00047998
0.0649373
0.000339093
0.0648277
0.000221856
0.0647259
0.000127757
0.0646303
5.64108e-05
0.06454
6.99821e-06
0.0644558
-2.03853e-05
0.0549334
-3.40342e-05
0.0457454
-4.04251e-05
0.0381045
-4.32237e-05
0.0317463
-4.42124e-05
0.0264522
0.0220412
-4.41083e-05
0.00175451
0.0185821
0.00487573
0.0519575
0.00630009
0.0694971
0.006047
0.0733192
0.00529787
0.0719028
0.00461211
0.0701429
0.00403043
0.0689646
0.00351257
0.0681526
0.00304256
0.067534
0.0026153
0.0670416
0.00222731
0.0666421
0.00187543
0.0663129
0.0015569
0.0660373
0.00126941
0.0658028
0.00101105
0.0656
0.000780328
0.0654214
0.000576128
0.0652615
0.000397689
0.0651158
0.000244561
0.0649808
0.000116566
0.0648539
1.36835e-05
0.0647332
-6.41642e-05
0.0646178
-0.000117506
0.0645092
-0.000145198
0.0549611
-0.00015757
0.0457578
-0.000161824
0.0381087
-0.000162033
0.0317465
-0.0001602
0.0264503
0.0220382
-0.000157159
0.00124442
0.0173376
0.00395802
0.0492439
0.00554851
0.0679066
0.00559931
0.0732684
0.0050118
0.0724903
0.00439536
0.0707593
0.00386069
0.0694993
0.00338056
0.0686328
0.00293781
0.0679768
0.00252797
0.0674514
0.00214924
0.0670208
0.00180016
0.066662
0.00147942
0.0663581
0.00118591
0.0660964
0.000918814
0.0658671
0.000677539
0.0656627
0.000461792
0.0654772
0.000271554
0.065306
0.000107057
0.0651453
-3.12738e-05
0.0649922
-0.000142858
0.0648448
-0.000227014
0.064702
-0.000283689
0.0645658
-0.000311874
0.0549892
-0.000322725
0.0457686
-0.000324305
0.0381103
-0.000321246
0.0317434
-0.000315899
0.026445
0.0220316
-0.000309338
0.00091101
0.0164266
0.00323235
0.0469226
0.0048644
0.0662746
0.00514282
0.0729899
0.00470366
0.0729295
0.00415035
0.0713126
0.00365306
0.0699966
0.00320357
0.0690823
0.00278457
0.0683958
0.002391
0.067845
0.00202181
0.06739
0.00167653
0.0670073
0.00135485
0.0666798
0.00105662
0.0663946
0.000781842
0.0661418
0.000530758
0.0659138
0.000303822
0.0657042
0.000101711
0.0655081
-7.47072e-05
0.0653217
-0.000224315
0.0651418
-0.000345707
0.0649662
-0.000437443
0.0647937
-0.000498874
0.0646273
-0.00052833
0.0550187
-0.000538077
0.0457784
-0.000537012
0.0381092
-0.000530353
0.0317368
-0.000520887
0.0264355
0.0220208
-0.000510046
0.000694506
0.0157321
0.0026651
0.044952
0.00425983
0.0646799
0.0046984
0.0725514
0.00438989
0.073238
0.00389475
0.0718078
0.00342695
0.0704644
0.00300047
0.0695087
0.0025999
0.0687963
0.00221926
0.0682256
0.00185757
0.0677517
0.0015149
0.06735
0.00119155
0.0670031
0.000887998
0.0666981
0.000604921
0.0664249
0.000343191
0.0661755
0.00010388
0.0659435
-0.000111763
0.0657238
-0.000302197
0.0655121
-0.000465492
0.0653051
-0.000599425
0.0651001
-0.000701747
0.064896
-0.000770973
0.0646965
-0.000804222
0.0550519
-0.000814624
0.0457888
-0.000811982
0.0381066
-0.00080221
0.031727
-0.000788661
0.026422
0.0220054
-0.00077327
0.000551323
0.0151808
0.00222192
0.0432814
0.00373386
0.0631679
0.00427728
0.072008
0.00407946
0.0734358
0.0036377
0.0722496
0.00319345
0.0709087
0.00278326
0.0699189
0.00239566
0.0691839
0.00202387
0.0685974
0.00166657
0.068109
0.00132404
0.0676925
0.000996918
0.0673302
0.000686092
0.067009
0.00039268
0.0667183
0.000118008
0.0664502
-0.000136425
0.0661979
-0.000368804
0.0659561
-0.000576869
0.0657202
-0.00075794
0.0654862
-0.000909024
0.0652512
-0.00102703
0.065014
-0.00110954
0.064779
-0.00115139
0.0550938
-0.00116624
0.0458036
-0.00116475
0.0381051
-0.00115362
0.0317159
-0.00113697
0.0264053
0.0219859
-0.00111745
0.000452206
0.0147286
0.00187238
0.0418612
0.00327907
0.0617612
0.00388495
0.0714021
0.00377812
0.0735426
0.00338484
0.0726428
0.0029597
0.0713338
0.00256016
0.0703185
0.0021804
0.0695637
0.00181325
0.0689646
0.00145684
0.0684654
0.00111134
0.068038
0.000777523
0.0676641
0.000456487
0.06733
0.000149595
0.0670252
-0.000141611
0.0667414
-0.000415251
0.0664715
-0.000668938
0.0662098
-0.000899798
0.0659511
-0.00110452
0.0656909
-0.00127943
0.0654261
-0.00142067
0.0651553
-0.00152502
0.0648834
-0.00158352
0.0551523
-0.00160973
0.0458299
-0.00161486
0.0381102
-0.00160636
0.0317074
-0.00158928
0.0263882
0.0219639
-0.00156729
0.000379417
0.0143492
0.00159251
0.0406481
0.00288572
0.060468
0.00352292
0.0707649
0.00348926
0.0735763
0.00313976
0.0729923
0.00273063
0.0717429
0.00233735
0.0707118
0.00196093
0.0699401
0.00159442
0.0693311
0.00123531
0.0688245
0.000883458
0.0683899
0.000539546
0.068008
0.000204695
0.0676648
-0.000119781
0.0673497
-0.000432185
0.0670538
-0.00073027
0.0667696
-0.0010112
0.0664908
-0.00127165
0.0662115
-0.00150775
0.065927
-0.00171526
0.0656336
-0.00188985
0.0653299
-0.00202795
0.0650215
-0.00211521
0.0552395
-0.00216419
0.0458788
-0.0021858
0.0381318
-0.00218776
0.0317093
-0.00217607
0.0263765
0.0219436
-0.00215581
0.000322929
0.0140263
0.00136649
0.0396046
0.00254738
0.0592872
0.00319275
0.0701195
0.00321541
0.0735536
0.00290449
0.0733033
0.00250918
0.0721382
0.00211902
0.0711019
0.00174231
0.0703168
0.00137297
0.0697004
0.00100785
0.0691897
0.000646331
0.0687514
0.000288849
0.0683655
-6.37627e-05
0.0680175
-0.000410291
0.0676962
-0.000748975
0.0673925
-0.00107733
0.067098
-0.00139227
0.0668057
-0.00169005
0.0665093
-0.00196634
0.0662033
-0.00221645
0.0658837
-0.002436
0.0655494
-0.00262229
0.0652078
-0.00275498
0.0553722
-0.00284516
0.045969
-0.00290183
0.0381885
-0.00293066
0.0317381
-0.00293695
0.0263828
0.0219336
-0.00292694
0.000238207
0.0137881
0.00100732
0.0388354
0.00191946
0.058375
0.00245875
0.0695802
0.00251175
0.0735006
0.00227615
0.0735389
0.00195261
0.0724618
0.00162482
0.0714297
0.0013053
0.0706364
0.00098981
0.0700159
0.00067522
0.0695043
0.000360531
0.0690661
4.57031e-05
0.0686803
-0.00026895
0.0683321
-0.000582636
0.0680099
-0.000893921
0.0677037
-0.00120081
0.0674049
-0.00150063
0.0671055
-0.00178997
0.0667986
-0.00206471
0.0664781
-0.00232023
0.0661392
-0.00255238
0.0657816
-0.00275959
0.065415
-0.00292
0.0555326
-0.00304427
0.0460933
-0.00313939
0.0382836
-0.00320676
0.0318055
-0.00324654
0.0264226
0.0219498
-0.00326274
0.0001792
0.0136089
0.000753808
0.0382608
0.00145903
0.0576698
0.00190141
0.0691378
0.00196508
0.073437
0.00178549
0.0737184
0.00152218
0.0727251
0.00124951
0.0717024
0.000981473
0.0709044
0.000715143
0.0702822
0.000447508
0.0697719
0.000177301
0.0693363
-9.59441e-05
0.0689535
-0.000372306
0.0686085
-0.000651398
0.068289
-0.000932363
0.0679847
-0.00121382
0.0676863
-0.00149372
0.0673854
-0.00176927
0.0670742
-0.00203675
0.0667456
-0.00229168
0.0663942
-0.00252951
0.0660194
-0.00274781
0.0656333
-0.00292265
0.0557075
-0.00306709
0.0462377
-0.0031926
0.0384091
-0.00330393
0.0319168
-0.00339885
0.0265175
0.0220146
-0.00346367
0.000138974
0.0134699
0.000577111
0.0378227
0.00112865
0.0571183
0.00149051
0.068776
0.00155507
0.0733724
0.00141666
0.0738569
0.00120217
0.0729396
0.000975843
0.0719287
0.000751606
0.0711286
0.000527467
0.0705064
0.000300653
0.0699987
6.97737e-05
0.0695672
-0.000165906
0.0691892
-0.000406757
0.0688493
-0.000652802
0.068535
-0.000903736
0.0682356
-0.00115881
0.0679414
-0.0014167
0.0676433
-0.00167536
0.0673328
-0.00193183
0.067002
-0.00218211
0.0666444
-0.00242139
0.0662587
-0.0026449
0.0658568
-0.0028226
0.0558852
-0.00296553
0.0463807
-0.0030907
0.0385343
-0.00321258
0.0320387
-0.0033494
0.0266544
0.0221777
-0.00351249
0.00010709
0.0133628
0.000449237
0.0374805
0.000889151
0.0566783
0.00118712
0.068478
0.00124647
0.0733131
0.0011363
0.073967
0.000959932
0.0731159
0.000772142
0.0721165
0.000585169
0.0713156
0.000397224
0.0706943
0.000205757
0.0701902
9.388e-06
0.0697635
-0.000192684
0.0693913
-0.000401041
0.0690577
-0.00061607
0.0687501
-0.000837919
0.0684575
-0.00106642
0.0681699
-0.00130096
0.0678778
-0.00154031
0.0675722
-0.00178253
0.0672442
-0.00202481
0.0668867
-0.00226348
0.0664973
-0.00249352
0.0660868
-0.00267808
0.0560697
-0.00281661
0.0465192
-0.00291578
0.0386335
-0.00298549
0.0321084
-0.00304319
0.0267121
-0.00322706
0.0223616
0.000113016
0.0219829
0.000154989
0.0219854
0.000188019
0.0219943
0.000218708
0.0219967
0.000243579
0.0220025
0.00026392
0.022007
0.000281233
0.02201
0.000292227
0.0220164
0.000301216
0.0220184
0.000305184
0.0220234
0.000306083
0.0220265
0.000304456
0.022029
0.000298382
0.0220334
0.000290705
0.022035
0.000279774
0.0220383
0.000266535
0.0220406
0.000251957
0.0220419
0.000234395
0.0220449
0.000215765
0.022046
0.00019589
0.0220472
0.000174443
0.0220488
0.000152376
0.0220494
0.000129632
0.0220501
0.000106371
0.0220506
8.29931e-05
0.0220507
5.96653e-05
0.0220507
3.67721e-05
0.0220502
1.43118e-05
0.0220498
-7.39474e-06
0.0220491
-2.77076e-05
0.0220477
-4.71223e-05
0.0220468
-6.48087e-05
0.022045
-8.04626e-05
0.022043
-9.48488e-05
0.0220417
-0.000105929
0.0220384
-0.000115027
0.0220365
-0.000121836
0.0220342
-0.000124461
0.02203
-0.000125295
0.0220282
-0.000121445
0.0220235
-0.000114427
0.0220203
-0.000104273
0.0220172
-8.83066e-05
0.0220114
-7.01656e-05
0.0220092
-4.52925e-05
0.0220025
-1.69616e-05
0.021999
1.61917e-05
0.0219942
5.57151e-05
0.0219878
0.0219853
9.77531e-05
0.000153775
0.0219389
0.000195452
0.0219437
0.000228417
0.0219614
0.000259284
0.0219658
0.000284584
0.0219772
0.000305603
0.021986
0.000323832
0.0219918
0.000335974
0.0220042
0.000346327
0.022008
0.000351866
0.0220178
0.000354529
0.0220238
0.000354843
0.0220287
0.00035088
0.0220374
0.000345464
0.0220404
0.000336937
0.0220468
0.000326227
0.0220513
0.000314289
0.0220539
0.000299472
0.0220597
0.000283669
0.0220618
0.000266694
0.0220642
0.00024821
0.0220673
0.000229149
0.0220685
0.000209444
0.0220698
0.000189244
0.0220708
0.000168932
0.022071
0.000148662
0.022071
0.000128813
0.0220701
0.000109364
0.0220693
9.0624e-05
0.0220678
7.32265e-05
0.0220651
5.6652e-05
0.0220633
4.17225e-05
0.02206
2.87274e-05
0.022056
1.68807e-05
0.0220536
8.21986e-06
0.0220471
1.39855e-06
0.0220433
-3.28687e-06
0.0220388
-3.94508e-06
0.0220306
-2.99352e-06
0.0220272
2.45893e-06
0.0220181
1.0879e-05
0.0220119
2.22167e-05
0.0220059
3.91461e-05
0.0219945
5.79996e-05
0.0219904
8.33393e-05
0.0219771
0.000111861
0.0219705
0.000144914
0.0219611
0.000184022
0.0219487
0.021944
0.000225307
0.000169739
0.0218952
0.000211389
0.0219021
0.000244583
0.0219282
0.000275944
0.0219344
0.000301999
0.0219511
0.000324026
0.021964
0.000343505
0.0219723
0.000357129
0.0219906
0.000369183
0.021996
0.000376632
0.0220104
0.0003814
0.022019
0.000384002
0.0220261
0.000382499
0.0220389
0.000379699
0.0220432
0.000373933
0.0220526
0.000366116
0.0220591
0.000357186
0.0220628
0.000345484
0.0220714
0.000332886
0.0220744
0.000319191
0.0220779
0.000304053
0.0220824
0.000288386
0.0220842
0.000272111
0.0220861
0.000255365
0.0220876
0.000238514
0.0220879
0.000221701
0.0220878
0.000205292
0.0220865
0.000189248
0.0220853
0.000173867
0.0220832
0.000159773
0.0220792
0.000146424
0.0220767
0.000134637
0.0220718
0.000124686
0.022066
0.000115767
0.0220625
0.000109914
0.0220529
0.00010576
0.0220474
0.000103587
0.022041
0.000105282
0.0220289
0.000108401
0.0220241
0.000115834
0.0220106
0.000126026
0.0220017
0.000138915
0.021993
0.000157173
0.0219762
0.000177103
0.0219704
0.000203269
0.021951
0.000232339
0.0219414
0.000265652
0.0219278
0.000304716
0.0219097
0.0219031
0.000345615
0.000164041
0.0218512
0.000206169
0.0218599
0.00024008
0.0218943
0.000272423
0.0219021
0.000299728
0.0219238
0.000323267
0.0219404
0.000344516
0.0219511
0.000360155
0.021975
0.00037446
0.0219817
0.00038438
0.0220005
0.000391829
0.0220116
0.000397308
0.0220206
0.000398863
0.0220373
0.00039929
0.0220428
0.000396905
0.022055
0.000392609
0.0220634
0.000387325
0.0220681
0.000379382
0.0220794
0.000370638
0.0220831
0.00036088
0.0220877
0.000349747
0.0220936
0.000338137
0.0220958
0.000325956
0.0220983
0.00031333
0.0221002
0.000300605
0.0221006
0.000287911
0.0221005
0.000275604
0.0220988
0.000263625
0.0220973
0.00025226
0.0220945
0.00024212
0.0220893
0.000232645
0.0220862
0.00022464
0.0220798
0.000218367
0.0220722
0.000213002
0.0220679
0.000210577
0.0220554
0.000209701
0.0220483
0.000210644
0.0220401
0.000215289
0.0220243
0.000221166
0.0220182
0.000231166
0.0220006
0.000243713
0.0219892
0.000258733
0.021978
0.000278895
0.021956
0.000300473
0.0219489
0.000328038
0.0219234
0.000358229
0.0219112
0.000392372
0.0218937
0.00043197
0.0218701
0.021862
0.000473064
0.000136367
0.0218062
0.000179696
0.0218166
0.000215022
0.0218589
0.000249061
0.0218681
0.000278338
0.0218945
0.000304129
0.0219146
0.000327902
0.0219273
0.000346324
0.0219565
0.000363665
0.0219643
0.000376858
0.0219873
0.000387806
0.0220006
0.000396996
0.0220114
0.000402458
0.0220319
0.000406976
0.0220383
0.000408847
0.0220531
0.000408961
0.0220633
0.000408225
0.0220688
0.000404949
0.0220827
0.000400979
0.0220871
0.000396083
0.0220926
0.000389887
0.0220998
0.00038327
0.0221024
0.000376123
0.0221054
0.000368558
0.0221078
0.000360902
0.0221083
0.00035327
0.0221081
0.000346004
0.0221061
0.000339025
0.0221043
0.000332606
0.022101
0.000327344
0.0220946
0.000322659
0.0220909
0.000319346
0.0220831
0.000317651
0.0220739
0.00031673
0.0220688
0.000318611
0.0220535
0.000321882
0.022045
0.000326798
0.0220352
0.000335239
0.0220159
0.000344708
0.0220088
0.0003581
0.0219872
0.000373816
0.0219735
0.000391771
0.02196
0.000414635
0.0219332
0.000438654
0.0219248
0.000468407
0.0218937
0.000500508
0.0218791
0.000536275
0.0218579
0.000577201
0.0218291
0.02182
0.000619287
8.50127e-05
0.0217591
0.000130368
0.0217712
0.000168084
0.0218212
0.000204797
0.0218313
0.000237001
0.0218623
0.000266012
0.0218856
0.000293306
0.0219
0.000315529
0.0219343
0.000336951
0.0219429
0.000354483
0.0219698
0.00037002
0.0219851
0.000384034
0.0219974
0.000394535
0.0220214
0.000404297
0.0220285
0.000411598
0.0220458
0.000417311
0.0220576
0.000422327
0.0220638
0.000424938
0.02208
0.000426972
0.0220851
0.000428181
0.0220913
0.000428171
0.0220998
0.000427804
0.0221027
0.000426953
0.0221063
0.000425711
0.022109
0.000424387
0.0221096
0.000423078
0.0221094
0.000422109
0.022107
0.000421382
0.022105
0.00042115
0.0221012
0.000421999
0.0220937
0.000423325
0.0220895
0.00042591
0.0220805
0.000429986
0.0220698
0.000434683
0.0220641
0.000442029
0.0220461
0.000450584
0.0220365
0.000460592
0.0220252
0.000473929
0.0220025
0.000488069
0.0219946
0.000505911
0.0219694
0.000525836
0.0219535
0.000547744
0.0219381
0.000574314
0.0219066
0.000601755
0.0218974
0.000634667
0.0218607
0.000669629
0.0218442
0.000707957
0.0218196
0.000751137
0.021786
0.021776
0.000795121
5.24936e-06
0.0217097
5.44201e-05
0.0217221
9.61641e-05
0.0217795
0.000136756
0.0217908
0.000173251
0.0218258
0.000206856
0.021852
0.000239017
0.0218679
0.000266376
0.021907
0.000293242
0.021916
0.000316501
0.0219465
0.000338043
0.0219635
0.000358325
0.0219771
0.000375334
0.0220044
0.000391838
0.022012
0.00040609
0.0220315
0.000418947
0.0220447
0.000431282
0.0220515
0.000441364
0.02207
0.000451006
0.0220754
0.000459936
0.0220824
0.000467743
0.022092
0.000475264
0.0220952
0.000482353
0.0220992
0.000489083
0.0221023
0.000495739
0.0221029
0.000502396
0.0221027
0.000509364
0.0221001
0.000516516
0.0220978
0.000524086
0.0220936
0.000532646
0.0220852
0.000541562
0.0220806
0.000551601
0.0220705
0.00056298
0.0220585
0.000574797
0.0220523
0.000589082
0.0220319
0.000604363
0.0220212
0.000620868
0.0220086
0.000640475
0.0219829
0.000660619
0.0219745
0.000684211
0.0219458
0.000709605
0.0219281
0.000736688
0.021911
0.000768151
0.0218751
0.000800161
0.0218654
0.000837347
0.0218236
0.00087625
0.0218053
0.000918185
0.0217777
0.000964633
0.0217395
0.0217291
0.00101149
-0.000103235
0.0216558
-5.06268e-05
0.0216695
-5.1727e-06
0.021734
4.0989e-05
0.0217446
8.34259e-05
0.0217834
0.000123302
0.0218121
0.00016183
0.0218293
0.000195984
0.0218728
0.00022999
0.021882
0.000260691
0.0219158
0.000289988
0.0219343
0.000318336
0.0219488
0.000343694
0.021979
0.000368821
0.0219869
0.000391945
0.0220084
0.000413903
0.0220228
0.000435548
0.0220298
0.000455123
0.0220504
0.000474422
0.0220561
0.000493145
0.0220637
0.000510858
0.0220742
0.000528373
0.0220777
0.000545516
0.022082
0.00056234
0.0220854
0.000579096
0.0220862
0.000595835
0.022086
0.000612847
0.0220831
0.000629968
0.0220807
0.000647411
0.0220762
0.000665728
0.0220668
0.000684246
0.0220621
0.00070372
0.022051
0.000724341
0.0220378
0.000745172
0.0220314
0.000768246
0.0220088
0.000792049
0.0219974
0.000816792
0.0219839
0.000844356
0.0219554
0.000872129
0.0219467
0.000903039
0.0219149
0.000935408
0.0218958
0.000969107
0.0218773
0.00100685
0.0218374
0.00104474
0.0218275
0.00108746
0.0217808
0.00113151
0.0217612
0.00117818
0.021731
0.00122898
0.0216887
0.0216784
0.00127972
-0.000249934
0.0215964
-0.000190786
0.0216103
-0.000138343
0.0216816
-8.62785e-05
0.0216925
-3.76228e-05
0.0217348
9.19772e-06
0.0217653
5.62357e-05
0.0217823
9.92957e-05
0.0218297
0.000142484
0.0218388
0.000182727
0.0218756
0.000221961
0.021895
0.000260601
0.0219101
0.000296576
0.021943
0.00033266
0.0219508
0.000367047
0.021974
0.000400556
0.0219893
0.000434015
0.0219964
0.000465632
0.0220188
0.000497181
0.0220246
0.000528328
0.0220325
0.000558611
0.022044
0.000588807
0.0220475
0.000618712
0.0220521
0.000648346
0.0220558
0.000677922
0.0220566
0.000707458
0.0220565
0.000737216
0.0220533
0.000766987
0.022051
0.000796951
0.0220462
0.000827638
0.0220361
0.000858324
0.0220314
0.000889744
0.0220196
0.00092206
0.0220055
0.000954283
0.0219992
0.000988456
0.0219746
0.00102301
0.0219628
0.00105813
0.0219488
0.00109571
0.0219178
0.00113306
0.0219094
0.00117316
0.0218748
0.00121426
0.0218547
0.00125624
0.0218353
0.00130183
0.0217918
0.00134707
0.0217822
0.00139671
0.0217312
0.00144716
0.0217108
0.00149976
0.0216784
0.00155599
0.0216325
0.0216227
0.00161162
-0.000443685
0.02153
-0.000377143
0.0215438
-0.000316781
0.0216212
-0.000255585
0.0216313
-0.00019717
0.0216763
-0.000140332
0.0217085
-8.38806e-05
0.0217258
-3.08632e-05
0.0217767
2.34557e-05
0.0217845
7.56895e-05
0.0218233
0.00012747
0.0218432
0.000178903
0.0218587
0.000228216
0.0218937
0.000278115
0.0219009
0.000326723
0.0219254
0.000374834
0.0219412
0.000423248
0.021948
0.000470129
0.0219719
0.000517222
0.0219775
0.000564152
0.0219856
0.000610415
0.0219977
0.000656748
0.0220012
0.000702898
0.022006
0.000748848
0.0220099
0.000794756
0.0220107
0.000840594
0.0220106
0.000886589
0.0220073
0.000932466
0.0220051
0.000978364
0.0220003
0.00102478
0.0219897
0.00107092
0.0219853
0.00111749
0.021973
0.00116462
0.0219584
0.00121124
0.0219526
0.00125941
0.0219264
0.00130748
0.0219148
0.00135561
0.0219007
0.00140571
0.0218677
0.00145501
0.0218601
0.0015065
0.0218233
0.00155841
0.0218028
0.00161057
0.0217832
0.00166577
0.0217366
0.00171996
0.0217281
0.00177796
0.0216732
0.00183613
0.0216526
0.00189581
0.0216187
0.00195851
0.0215698
0.0215614
0.00201989
-0.000698568
0.0214553
-0.000622866
0.0214681
-0.000552705
0.0215511
-0.000481073
0.0215597
-0.00041152
0.0216068
-0.000342661
0.0216396
-0.000272988
0.0216562
-0.00020612
0.0217099
-0.000137872
0.0217163
-7.14705e-05
0.0217569
-4.85323e-06
0.0217766
6.29603e-05
0.0217909
0.00012913
0.0218276
0.000196421
0.0218336
0.000262968
0.0218589
0.000329549
0.0218746
0.000396919
0.0218806
0.000463181
0.0219056
0.000530049
0.0219106
0.000597089
0.0219186
0.000663744
0.021931
0.000730688
0.0219342
0.000797612
0.021939
0.00086444
0.021943
0.000931257
0.0219439
0.000997969
0.0219439
0.00106475
0.0219405
0.00113124
0.0219386
0.00119752
0.021934
0.00126403
0.0219232
0.00132988
0.0219194
0.00139574
0.0219071
0.00146167
0.0218925
0.00152652
0.0218878
0.00159235
0.0218606
0.00165742
0.0218497
0.00172184
0.0218362
0.00178752
0.021802
0.00185159
0.021796
0.0019171
0.0217578
0.00198219
0.0217377
0.00204668
0.0217187
0.00211342
0.0216699
0.00217824
0.0216632
0.00224609
0.0216054
0.00231322
0.0215855
0.00238103
0.0215509
0.00245104
0.0214998
0.0214936
0.0025188
-0.00103331
0.0213712
-0.000947061
0.0213818
-0.000865415
0.0214694
-0.000781204
0.0214755
-0.000698099
0.0215237
-0.000614745
0.0215563
-0.000529624
0.021571
-0.000446304
0.0216265
-0.000360289
0.0216302
-0.000275
0.0216716
-0.000188587
0.0216902
-0.000100998
0.0217033
-1.41592e-05
0.0217407
7.47265e-05
0.0217447
0.000163677
0.0217699
0.000253559
0.0217847
0.000344959
0.0217892
0.000435891
0.0218147
0.000528002
0.0218185
0.000620773
0.0218258
0.000713572
0.0218382
0.000806993
0.0218408
0.000900639
0.0218454
0.000994357
0.0218493
0.00108813
0.0218501
0.00118176
0.0218503
0.00127536
0.0218469
0.00136844
0.0218455
0.00146097
0.0218415
0.00155334
0.0218308
0.0016445
0.0218283
0.00173508
0.0218166
0.00182504
0.0218025
0.00191308
0.0217997
0.00200129
0.0217724
0.00208778
0.0217632
0.00217258
0.0217514
0.00225764
0.0217169
0.00233993
0.0217137
0.00242256
0.0216752
0.00250359
0.0216566
0.0025828
0.0216395
0.00266313
0.0215896
0.00274027
0.0215861
0.00281933
0.0215263
0.00289648
0.0215083
0.00297314
0.0214742
0.00305091
0.021422
0.0214193
0.00312521
-0.00147314
0.021277
-0.00137531
0.021284
-0.00128079
0.0213749
-0.00118221
0.0213769
-0.00108337
0.0214248
-0.000982876
0.0214558
-0.000879153
0.0214673
-0.000775933
0.0215233
-0.000668647
0.021523
-0.000560795
0.0215638
-0.000450432
0.0215798
-0.000337234
0.0215901
-0.000223601
0.0216271
-0.000106757
0.0216279
1.10961e-05
0.0216521
0.000130439
0.0216653
0.000252507
0.0216671
0.000374986
0.0216922
0.00049949
0.021694
0.000625389
0.0216999
0.000751935
0.0217117
0.00087961
0.0217131
0.0010079
0.0217171
0.00113653
0.0217207
0.00126535
0.0217213
0.00139402
0.0217216
0.00152254
0.0217184
0.00165022
0.0217178
0.00177691
0.0217148
0.00190288
0.0217049
0.00202688
0.0217043
0.00214942
0.021694
0.00227033
0.0216816
0.00238813
0.0216819
0.00250489
0.0216556
0.0026185
0.0216496
0.00272893
0.021641
0.00283811
0.0216077
0.00294282
0.021609
0.00304625
0.0215717
0.00314635
0.0215565
0.00324287
0.0215429
0.00333885
0.0214936
0.00342985
0.0214951
0.00352119
0.021435
0.00360893
0.0214206
0.00369458
0.0213886
0.00377986
0.0213367
0.0213391
0.00386006
-0.00205263
0.0211739
-0.00194356
0.0211749
-0.00183588
0.0212672
-0.0017219
0.0212629
-0.00160552
0.0213085
-0.00148525
0.0213355
-0.00135945
0.0213415
-0.00123203
0.0213959
-0.00109829
0.0213892
-0.000961974
0.0214275
-0.000821217
0.0214391
-0.000675837
0.0214447
-0.000528392
0.0214796
-0.000376107
0.0214756
-0.000221223
0.0214972
-6.30857e-05
0.0215072
9.82056e-05
0.0215058
0.000261114
0.0215293
0.000427418
0.0215277
0.000596167
0.0215312
0.000766506
0.0215414
0.000938778
0.0215409
0.00111231
0.0215436
0.00128667
0.0215463
0.00146151
0.0215465
0.00163628
0.0215468
0.0018108
0.0215439
0.00198412
0.0215445
0.00215586
0.0215431
0.0023261
0.0215346
0.00249328
0.0215371
0.00265773
0.0215296
0.00281907
0.0215203
0.00297553
0.0215255
0.00312913
0.0215021
0.00327746
0.0215013
0.00342035
0.0214981
0.00355974
0.0214684
0.00369208
0.0214767
0.00382071
0.0214431
0.00394339
0.0214339
0.00405985
0.0214265
0.00417331
0.0213801
0.00427911
0.0213893
0.00438293
0.0213311
0.00448071
0.0213228
0.00457418
0.0212951
0.00466522
0.0212457
0.0212553
0.00474902
-0.00281825
0.0210652
-0.00270012
0.0210568
-0.0025807
0.0211478
-0.00245167
0.0211339
-0.00231679
0.0211736
-0.00217422
0.0211929
-0.00202218
0.0211895
-0.0018649
0.0212386
-0.00169775
0.0212221
-0.00152498
0.0212547
-0.00134496
0.0212591
-0.00115781
0.0212576
-0.000966436
0.0212883
-0.000768193
0.0212774
-0.00056561
0.0212946
-0.000358106
0.0212997
-0.000144958
0.0212927
7.0849e-05
0.0213135
0.000290941
0.0213076
0.000515366
0.0213067
0.000742844
0.0213139
0.000973583
0.0213101
0.00120673
0.0213104
0.00144167
0.0213114
0.00167772
0.0213104
0.00191405
0.0213105
0.0021502
0.0213077
0.00238477
0.02131
0.002617
0.0213108
0.00284668
0.021305
0.0030717
0.0213121
0.00329212
0.0213092
0.0035072
0.0213052
0.00371468
0.021318
0.00391652
0.0213002
0.00410987
0.0213079
0.0042943
0.0213137
0.00447176
0.0212909
0.00463827
0.0213101
0.00479732
0.021284
0.00494645
0.0212847
0.00508531
0.0212876
0.00521739
0.021248
0.00533779
0.0212689
0.0054527
0.0212162
0.00555803
0.0212175
0.00565586
0.0211973
0.00574845
0.0211531
0.0211729
0.00583086
-0.00317884
0.0209813
-0.00308409
0.020962
-0.00298351
0.0210472
-0.00286739
0.0210178
-0.00273859
0.0210448
-0.00259602
0.0210504
-0.00243924
0.0210327
-0.00227323
0.0210726
-0.00209508
0.0210439
-0.00190945
0.0210691
-0.00171561
0.0210652
-0.00151412
0.0210561
-0.00130776
0.0210819
-0.00109431
0.0210639
-0.00087596
0.0210763
-0.000652167
0.0210759
-0.00042237
0.0210629
-0.000188217
0.0210793
5.14347e-05
0.021068
0.000295414
0.0210628
0.00054414
0.0210652
0.00079753
0.0210567
0.00105472
0.0210532
0.001315
0.0210511
0.00157744
0.021048
0.00184097
0.021047
0.0021048
0.0210439
0.00236715
0.0210476
0.0026269
0.0210511
0.00288337
0.0210485
0.00313411
0.0210613
0.00337875
0.0210645
0.0036162
0.0210677
0.00384397
0.0210902
0.0040636
0.0210806
0.00427217
0.0210993
0.00446912
0.0211167
0.00465609
0.0211039
0.00482931
0.0211369
0.0049919
0.0211214
0.00514154
0.0211351
0.00527785
0.0211513
0.00540394
0.021122
0.00551531
0.0211575
0.00561756
0.021114
0.00570712
0.0211279
0.00578622
0.0211182
0.00585754
0.0210818
0.021113
0.0059174
-0.00340207
0.0209197
-0.00333997
0.0208999
-0.00326852
0.0209758
-0.00317062
0.0209199
-0.00304826
0.0209224
-0.00290329
0.0209054
-0.00273898
0.0208684
-0.00256277
0.0208964
-0.0023743
0.0208554
-0.00217895
0.0208737
-0.00197676
0.020863