/*--------------------------------*- C++ -*----------------------------------*\
| =========                 |                                                 |
| \\      /  F ield         | OpenFOAM: The Open Source CFD Toolbox           |
|  \\    /   O peration     | Version:  2312                                  |
|   \\  /    A nd           | Website:  www.openfoam.com                      |
|    \\/     M anipulation  |                                                 |
\*---------------------------------------------------------------------------*/
FoamFile
{
    version     2.0;
    format      ascii;
    arch        "LSB;label=32;scalar=64";
    class       volScalarField;
    location    "99.19107464036091";
    object      p;
}
// * * * * * * * * * * * * * * * * * * * * * * * * * * * * * * * * * * * * * //

dimensions      [0 2 -2 0 0 0 0];

internalField   nonuniform List<scalar> 
21039
(
0.595966
0.462034
0.419958
0.391714
0.37041
0.354355
0.341947
0.332083
0.324082
0.317494
0.312003
0.30738
0.303454
0.300095
0.2972
0.294688
0.292491
0.290556
0.288834
0.287286
0.285877
0.284577
0.283358
0.282257
0.281305
0.280458
0.279678
0.278933
0.278211
0.448765
0.410936
0.397151
0.37878
0.362037
0.348775
0.338052
0.329237
0.321936
0.315838
0.310703
0.306345
0.302622
0.299421
0.296654
0.294246
0.292137
0.290274
0.288615
0.287121
0.285758
0.284496
0.283309
0.28223
0.281286
0.280441
0.279661
0.278917
0.278195
0.359319
0.356962
0.359146
0.352407
0.343986
0.336212
0.328983
0.322482
0.316783
0.311827
0.307527
0.303798
0.300559
0.29774
0.29528
0.293124
0.291226
0.289544
0.288041
0.286684
0.285441
0.284285
0.283191
0.282185
0.281294
0.280488
0.279738
0.279018
0.278316
0.321188
0.323314
0.327805
0.32674
0.324142
0.320941
0.31716
0.313266
0.309529
0.306049
0.302875
0.300018
0.297467
0.295201
0.293194
0.291415
0.289837
0.288432
0.287171
0.286029
0.28498
0.284
0.283066
0.282197
0.281412
0.28069
0.280007
0.279338
0.278676
0.296099
0.300072
0.305982
0.307713
0.307937
0.307228
0.305714
0.303808
0.301733
0.299615
0.29755
0.2956
0.293795
0.292149
0.290663
0.28933
0.288139
0.287073
0.286117
0.28525
0.284454
0.283708
0.282994
0.282315
0.281682
0.28108
0.28049
0.279896
0.279288
0.276376
0.281634
0.288999
0.292884
0.294912
0.295739
0.29569
0.295146
0.29429
0.293247
0.292121
0.290983
0.28988
0.288843
0.287889
0.287025
0.286252
0.285564
0.284953
0.284406
0.28391
0.283446
0.282999
0.282557
0.282114
0.281663
0.281194
0.280694
0.280159
0.263513
0.268536
0.275635
0.280589
0.283827
0.285788
0.286829
0.287295
0.287365
0.28717
0.286814
0.286373
0.285898
0.285427
0.284986
0.284589
0.284246
0.283957
0.28372
0.283526
0.283367
0.283228
0.283094
0.282936
0.282721
0.282453
0.28213
0.281744
0.281303
0.256109
0.260208
0.265943
0.270888
0.274602
0.277201
0.278965
0.280162
0.280941
0.281422
0.281703
0.281856
0.281935
0.281981
0.282023
0.282081
0.282167
0.282287
0.282442
0.28263
0.282842
0.283067
0.283294
0.283458
0.283513
0.283462
0.283311
0.283057
0.28271
0.251463
0.254663
0.259017
0.263491
0.267185
0.269994
0.272127
0.273778
0.275053
0.276046
0.276836
0.277486
0.278047
0.278557
0.279047
0.279538
0.280045
0.280577
0.281137
0.281726
0.282338
0.282964
0.283592
0.284131
0.2845
0.284707
0.284764
0.284673
0.284446
0.24792
0.250371
0.253677
0.257608
0.261098
0.263908
0.266194
0.268097
0.269693
0.271051
0.272233
0.273287
0.274257
0.275177
0.276076
0.276975
0.277889
0.278829
0.2798
0.280805
0.281841
0.282901
0.283975
0.284937
0.285669
0.286176
0.286477
0.28658
0.286498
0.24478
0.24663
0.249184
0.252595
0.255831
0.258572
0.260914
0.262956
0.26476
0.266379
0.267858
0.269237
0.270551
0.27183
0.273098
0.274377
0.27568
0.27702
0.278404
0.279836
0.281314
0.282837
0.284397
0.285831
0.286974
0.287827
0.288414
0.288745
0.288834
0.241733
0.243136
0.24516
0.248096
0.251068
0.253711
0.256056
0.258176
0.260119
0.261927
0.263637
0.265279
0.266883
0.268474
0.270076
0.271706
0.273379
0.275108
0.276901
0.278763
0.280697
0.282702
0.28478
0.28673
0.288331
0.289579
0.290496
0.291092
0.291385
0.238628
0.239717
0.241372
0.243901
0.246618
0.249144
0.25146
0.253614
0.255647
0.257593
0.259481
0.261337
0.263186
0.265051
0.266951
0.268905
0.270928
0.273032
0.275225
0.277514
0.279904
0.2824
0.285011
0.287503
0.289598
0.291282
0.292573
0.293474
0.294003
0.235403
0.236274
0.237664
0.239853
0.242335
0.244739
0.247004
0.249162
0.251247
0.25329
0.255314
0.257341
0.259394
0.261495
0.263661
0.265912
0.268263
0.270726
0.273308
0.276014
0.27885
0.281822
0.284949
0.287969
0.290559
0.292694
0.294384
0.295622
0.296419
0.232048
0.232767
0.233948
0.235838
0.238094
0.24037
0.242572
0.244713
0.246823
0.248928
0.251049
0.253208
0.255427
0.257725
0.260125
0.262646
0.265304
0.268109
0.271067
0.274177
0.27744
0.280855
0.284442
0.287909
0.29091
0.293435
0.295499
0.297078
0.298167
0.228861
0.229468
0.230485
0.23215
0.234224
0.236381
0.238517
0.240629
0.242744
0.244883
0.247067
0.249318
0.25166
0.254114
0.256707
0.25946
0.262391
0.265508
0.268814
0.272301
0.275952
0.279739
0.283647
0.287321
0.290418
0.293
0.295149
0.296879
0.298177
0.226174
0.226708
0.227624
0.229148
0.231086
0.23314
0.235216
0.237307
0.239425
0.241587
0.243817
0.246137
0.248573
0.251154
0.253908
0.256861
0.260032
0.263433
0.267064
0.27091
0.274929
0.279049
0.283179
0.286812
0.289552
0.291533
0.292999
0.294192
0.295337
0.223959
0.224448
0.225293
0.226714
0.228549
0.230533
0.232585
0.234677
0.236809
0.238998
0.24127
0.243652
0.246175
0.248872
0.251776
0.254917
0.25832
0.262001
0.265963
0.270186
0.274614
0.279131
0.283546
0.287113
0.289194
0.289785
0.289129
0.287722
0.286678
0.222185
0.222724
0.22359
0.224913
0.226578
0.228448
0.230478
0.232596
0.234764
0.236993
0.239315
0.241767
0.244382
0.2472
0.250258
0.253591
0.257232
0.261206
0.265521
0.270164
0.27508
0.280139
0.285089
0.288946
0.290653
0.289669
0.285619
0.277884
0.266108
0.277503
0.276792
0.276086
0.275387
0.274693
0.274001
0.273312
0.272625
0.271938
0.271251
0.270563
0.269873
0.269181
0.268485
0.267784
0.267079
0.266369
0.265653
0.26493
0.264201
0.263465
0.262722
0.261972
0.261214
0.26045
0.259679
0.2589
0.258116
0.257326
0.256529
0.255728
0.254921
0.254111
0.253297
0.25248
0.251661
0.250842
0.250022
0.249202
0.248384
0.247569
0.246757
0.24595
0.245147
0.244351
0.243563
0.242782
0.242009
0.241246
0.277491
0.276788
0.276094
0.275405
0.274721
0.27404
0.273361
0.272683
0.272006
0.271329
0.27065
0.269969
0.269285
0.268596
0.267903
0.267204
0.2665
0.265788
0.26507
0.264344
0.26361
0.262868
0.262119
0.261361
0.260596
0.259822
0.259041
0.258253
0.257458
0.256656
0.255849
0.255036
0.254218
0.253396
0.252571
0.251744
0.250915
0.250085
0.249255
0.248426
0.2476
0.246776
0.245957
0.245143
0.244335
0.243534
0.242742
0.241958
0.241183
0.277635
0.276958
0.276288
0.275623
0.274962
0.274303
0.273646
0.272989
0.272332
0.271672
0.271009
0.270343
0.269672
0.268995
0.268311
0.26762
0.266922
0.266214
0.265498
0.264772
0.264036
0.263291
0.262536
0.261771
0.260996
0.260211
0.259418
0.258615
0.257804
0.256986
0.25616
0.255327
0.254488
0.253644
0.252796
0.251944
0.25109
0.250234
0.249378
0.248522
0.247667
0.246815
0.245967
0.245123
0.244284
0.243453
0.242629
0.241813
0.241008
0.278032
0.277394
0.276761
0.27613
0.275502
0.274874
0.274246
0.273615
0.272982
0.272344
0.271701
0.271052
0.270395
0.269729
0.269055
0.26837
0.267674
0.266967
0.266248
0.265517
0.264774
0.264018
0.26325
0.262469
0.261676
0.260871
0.260054
0.259226
0.258388
0.25754
0.256682
0.255816
0.254943
0.254062
0.253176
0.252285
0.251389
0.250491
0.249592
0.248691
0.247791
0.246893
0.245997
0.245104
0.244217
0.243335
0.24246
0.241593
0.240735
0.278693
0.278106
0.277519
0.276933
0.276346
0.275757
0.275164
0.274566
0.273961
0.273349
0.272728
0.272098
0.271455
0.270801
0.270134
0.269453
0.268758
0.268047
0.267322
0.26658
0.265823
0.265049
0.26426
0.263455
0.262635
0.261799
0.260949
0.260085
0.259208
0.258318
0.257417
0.256505
0.255583
0.254652
0.253713
0.252768
0.251817
0.250862
0.249903
0.248942
0.24798
0.247018
0.246058
0.2451
0.244146
0.243197
0.242253
0.241317
0.240389
0.27962
0.279094
0.278567
0.278036
0.2775
0.276958
0.276408
0.275849
0.275279
0.274697
0.274101
0.273491
0.272865
0.272222
0.271562
0.270883
0.270185
0.269468
0.26873
0.267973
0.267195
0.266396
0.265578
0.26474
0.263883
0.263007
0.262113
0.261202
0.260274
0.25933
0.258372
0.2574
0.256416
0.25542
0.254415
0.2534
0.252378
0.251349
0.250315
0.249278
0.248237
0.247196
0.246155
0.245115
0.244077
0.243043
0.242014
0.24099
0.239976
0.280871
0.280371
0.279921
0.279459
0.278986
0.278501
0.278002
0.277489
0.276959
0.276412
0.275845
0.275258
0.274649
0.274018
0.273363
0.272684
0.271981
0.271252
0.270498
0.269718
0.268913
0.268082
0.267227
0.266346
0.265442
0.264515
0.263566
0.262595
0.261603
0.260593
0.259564
0.258518
0.257457
0.256381
0.255292
0.254193
0.253082
0.251964
0.250838
0.249707
0.248571
0.247432
0.246293
0.245153
0.244014
0.242878
0.241744
0.240617
0.239499
0.282369
0.282035
0.281659
0.281251
0.280844
0.280421
0.279979
0.279516
0.279031
0.278522
0.277986
0.277424
0.276834
0.276214
0.275563
0.274882
0.27417
0.273425
0.272649
0.271841
0.271002
0.270131
0.269229
0.268297
0.267336
0.266347
0.26533
0.264287
0.263219
0.262127
0.261013
0.259878
0.258724
0.257551
0.256363
0.255161
0.253945
0.252719
0.251483
0.25024
0.24899
0.247735
0.246478
0.245219
0.24396
0.242703
0.241448
0.240198
0.238958
0.284206
0.283969
0.283711
0.283435
0.283117
0.282728
0.282352
0.281946
0.281511
0.281046
0.280546
0.280012
0.279441
0.278832
0.278186
0.277501
0.276777
0.276013
0.275211
0.274369
0.273489
0.27257
0.271614
0.270622
0.269593
0.26853
0.267434
0.266306
0.265147
0.26396
0.262745
0.261505
0.260241
0.258955
0.257649
0.256325
0.254985
0.253631
0.252265
0.250888
0.249504
0.248112
0.246716
0.245318
0.243918
0.242518
0.24112
0.239728
0.238347
0.286385
0.286262
0.286101
0.285915
0.285705
0.285465
0.28519
0.28477
0.284405
0.283992
0.283533
0.283031
0.282483
0.281889
0.281248
0.28056
0.279823
0.279039
0.278208
0.27733
0.276404
0.275433
0.274416
0.273355
0.272251
0.271104
0.269918
0.268693
0.267429
0.266131
0.2648
0.263436
0.262044
0.260624
0.25918
0.257713
0.256225
0.254721
0.2532
0.251666
0.250122
0.248568
0.247009
0.245446
0.24388
0.242314
0.240749
0.23919
0.237646
0.288872
0.288883
0.288842
0.288761
0.288639
0.288477
0.288277
0.288033
0.287736
0.287371
0.286955
0.28649
0.285969
0.285394
0.284763
0.284076
0.283331
0.28253
0.281673
0.280759
0.279789
0.278764
0.277684
0.276551
0.275365
0.274128
0.272841
0.271507
0.270126
0.268703
0.267237
0.265731
0.264189
0.262612
0.261004
0.259368
0.257705
0.25602
0.254315
0.252594
0.250859
0.249111
0.247357
0.245597
0.243834
0.242071
0.240307
0.238554
0.236818
0.291597
0.291764
0.291865
0.291915
0.291913
0.291858
0.291749
0.291583
0.291366
0.29109
0.29075
0.290342
0.289869
0.289334
0.288732
0.288064
0.287328
0.286525
0.285656
0.284717
0.283713
0.282642
0.281503
0.2803
0.279033
0.277701
0.276309
0.274857
0.273345
0.271778
0.270159
0.268487
0.26677
0.265006
0.263202
0.261362
0.259487
0.257583
0.255653
0.253701
0.251732
0.249748
0.247755
0.245754
0.243751
0.241749
0.239747
0.237759
0.235795
0.294419
0.294758
0.295021
0.295225
0.295368
0.295448
0.295465
0.295415
0.295302
0.295121
0.294872
0.294553
0.29416
0.293698
0.293166
0.292555
0.291863
0.291091
0.29024
0.289305
0.28829
0.287194
0.286014
0.284754
0.283413
0.28199
0.28049
0.278913
0.277257
0.27553
0.273733
0.271866
0.269938
0.267948
0.265904
0.263811
0.261669
0.25949
0.257275
0.255032
0.252768
0.250483
0.248188
0.245885
0.243581
0.24128
0.238983
0.236705
0.234462
0.297065
0.297597
0.298047
0.298437
0.298762
0.299023
0.299216
0.299342
0.299398
0.299381
0.299291
0.299123
0.298874
0.298539
0.298117
0.297629
0.297044
0.296365
0.295589
0.294708
0.293728
0.292647
0.291459
0.290169
0.288775
0.287273
0.285669
0.283962
0.282148
0.280238
0.278229
0.276126
0.273936
0.27166
0.269307
0.266886
0.264396
0.261855
0.259264
0.256634
0.253976
0.251292
0.248598
0.245898
0.243201
0.240513
0.237838
0.235195
0.232603
0.29907
0.299808
0.300477
0.301105
0.301685
0.302219
0.302697
0.303114
0.303463
0.303732
0.303921
0.304016
0.30402
0.303926
0.303721
0.303404
0.302981
0.302587
0.301955
0.301196
0.300319
0.299317
0.298177
0.296906
0.295496
0.293941
0.292246
0.290408
0.288421
0.286297
0.284034
0.281634
0.279109
0.276458
0.273697
0.270835
0.267875
0.264838
0.26173
0.258567
0.255363
0.252128
0.248883
0.245635
0.242403
0.239196
0.23602
0.232901
0.229863
0.299301
0.300198
0.301126
0.302124
0.303157
0.3042
0.305209
0.306154
0.307013
0.307761
0.308398
0.308908
0.309297
0.309567
0.30971
0.309731
0.309604
0.30934
0.309012
0.308495
0.307829
0.307007
0.306007
0.304833
0.303473
0.301913
0.30016
0.298205
0.296039
0.293675
0.291109
0.288345
0.285399
0.282269
0.278979
0.27554
0.271959
0.268266
0.264468
0.26059
0.256652
0.25267
0.248676
0.244685
0.24073
0.236831
0.233006
0.229293
0.225727
0.296608
0.297557
0.298919
0.300682
0.30264
0.304636
0.306539
0.308282
0.309836
0.311182
0.312341
0.31331
0.314118
0.314776
0.315287
0.315671
0.315906
0.315985
0.31591
0.315732
0.31537
0.314814
0.314042
0.313055
0.311829
0.310339
0.308588
0.306559
0.304238
0.301639
0.298756
0.295595
0.292179
0.288507
0.284613
0.280515
0.276222
0.271777
0.267187
0.262486
0.257698
0.252839
0.247951
0.243053
0.238195
0.233415
0.228763
0.224315
0.22014
0.286452
0.287811
0.291365
0.295795
0.300126
0.303992
0.307276
0.310016
0.312296
0.314186
0.315779
0.317117
0.318261
0.319247
0.320086
0.320812
0.321412
0.321892
0.322227
0.322369
0.322437
0.322244
0.321813
0.321128
0.320142
0.318813
0.317136
0.315082
0.312627
0.309788
0.306559
0.30295
0.298994
0.294698
0.29011
0.285258
0.280162
0.274878
0.26942
0.263828
0.258125
0.252323
0.246459
0.240531
0.234581
0.228646
0.222809
0.217268
0.212301
0.257107
0.268243
0.280999
0.291486
0.299351
0.305122
0.309374
0.312602
0.315141
0.317198
0.318929
0.320404
0.321709
0.322886
0.323959
0.324968
0.325896
0.326766
0.327555
0.328169
0.32862
0.328945
0.328949
0.328662
0.328026
0.326971
0.325468
0.323468
0.320933
0.317887
0.314326
0.310265
0.305756
0.300816
0.295512
0.289891
0.283987
0.277875
0.27158
0.265154
0.258625
0.251998
0.245292
0.23846
0.231471
0.224243
0.2167
0.208918
0.201503
0.240501
0.239739
0.238932
0.238071
0.237144
0.236145
0.235104
0.234151
0.233382
0.232827
0.232519
0.232489
0.232789
0.233459
0.234552
0.236133
0.23828
0.241093
0.244698
0.249263
0.255014
0.262262
0.271455
0.283271
0.29881
0.319677
0.347565
0.389306
0.52297
0.240424
0.239646
0.23882
0.237935
0.236977
0.23594
0.234854
0.233852
0.233032
0.232424
0.232058
0.231971
0.2322
0.232785
0.233778
0.235237
0.237231
0.239847
0.243194
0.24741
0.252676
0.25923
0.267378
0.277512
0.290257
0.306554
0.324558
0.338
0.375582
0.240217
0.239403
0.238532
0.237593
0.236567
0.235448
0.234262
0.233146
0.232207
0.231473
0.230969
0.230731
0.230786
0.231169
0.231921
0.233085
0.234711
0.236857
0.239589
0.242983
0.24712
0.252082
0.257925
0.26457
0.271828
0.279794
0.286142
0.283577
0.285691
0.23989
0.239015
0.238073
0.237047
0.235917
0.23467
0.233328
0.232039
0.230916
0.229987
0.229276
0.228804
0.228596
0.228676
0.22907
0.229803
0.230898
0.232378
0.234259
0.236548
0.239227
0.242243
0.245491
0.248697
0.251385
0.253521
0.254169
0.249278
0.246932
0.239469
0.238511
0.237471
0.236329
0.235059
0.233643
0.232098
0.230582
0.229225
0.22805
0.227075
0.226316
0.22579
0.22551
0.225487
0.225728
0.226234
0.226999
0.228004
0.229211
0.230555
0.231932
0.233209
0.234161
0.234365
0.233681
0.231521
0.225222
0.221068
0.238964
0.237902
0.23674
0.235453
0.234009
0.232385
0.230591
0.228805
0.227172
0.22571
0.224435
0.223358
0.222486
0.221824
0.221371
0.22112
0.221059
0.221163
0.221395
0.221702
0.222005
0.222194
0.222137
0.221645
0.220331
0.217852
0.21354
0.205809
0.200411
0.238375
0.237187
0.235878
0.234417
0.232767
0.230895
0.228811
0.226711
0.224765
0.222987
0.221388
0.219974
0.218747
0.217702
0.216833
0.216122
0.215548
0.215077
0.214664
0.214249
0.21375
0.213056
0.212026
0.210477
0.208055
0.204383
0.199018
0.191585
0.186464
0.237702
0.236366
0.234882
0.233216
0.231322
0.229164
0.226745
0.224294
0.222003
0.219885
0.217946
0.216189
0.214609
0.213197
0.211939
0.210813
0.20979
0.208832
0.20789
0.206901
0.205784
0.204435
0.202723
0.200494
0.19747
0.193352
0.188025
0.182001
0.177843
0.236937
0.235425
0.233737
0.231831
0.229656
0.227169
0.224374
0.221535
0.218872
0.216396
0.214111
0.212013
0.210094
0.20834
0.206731
0.205242
0.203839
0.202484
0.201126
0.199705
0.19815
0.196372
0.194269
0.191727
0.188542
0.184489
0.179676
0.175089
0.171865
0.236056
0.23434
0.232414
0.23023
0.22773
0.224869
0.221654
0.218391
0.215335
0.212492
0.209861
0.207435
0.2052
0.203138
0.201225
0.199432
0.197725
0.196064
0.194401
0.192684
0.190853
0.188838
0.18656
0.183935
0.180813
0.177024
0.172814
0.169333
0.166884
0.235016
0.233061
0.230857
0.22835
0.225478
0.222193
0.218512
0.214794
0.211327
0.208115
0.205149
0.202417
0.1999
0.197573
0.195408
0.193376
0.191439
0.189559
0.187693
0.185793
0.18381
0.181687
0.179362
0.176767
0.173792
0.170331
0.166712
0.164043
0.162215
0.233741
0.231502
0.228973
0.22609
0.222789
0.219027
0.214835
0.210636
0.206752
0.203179
0.199901
0.196896
0.194139
0.191598
0.189242
0.187036
0.184943
0.182925
0.18094
0.178946
0.176901
0.174758
0.172466
0.169967
0.167184
0.164076
0.16101
0.15893
0.157564
0.232103
0.229526
0.226611
0.223289
0.219498
0.215203
0.210462
0.205767
0.201475
0.197567
0.194016
0.190787
0.187846
0.185154
0.182672
0.180362
0.178186
0.176103
0.174075
0.172064
0.170029
0.167933
0.165734
0.163381
0.160821
0.158067
0.155493
0.153836
0.152793
0.229867
0.226884
0.223511
0.21968
0.215336
0.210464
0.205154
0.199978
0.195315
0.191125
0.187364
0.183981
0.18093
0.178162
0.175632
0.173295
0.17111
0.169038
0.167039
0.165077
0.163118
0.161127
0.159067
0.156897
0.15458
0.152169
0.150021
0.148673
0.147854
0.226659
0.223182
0.219273
0.214865
0.209923
0.204462
0.198611
0.193013
0.18806
0.183681
0.179806
0.176367
0.173301
0.170549
0.168059
0.165781
0.163669
0.161682
0.159783
0.157936
0.156109
0.154271
0.152389
0.150429
0.148372
0.146298
0.144529
0.143423
0.142753
0.221986
0.217974
0.213521
0.208568
0.203109
0.197185
0.190956
0.185114
0.18004
0.17563
0.171787
0.168425
0.165465
0.16284
0.160488
0.158356
0.156397
0.154567
0.152829
0.151148
0.149495
0.14784
0.146157
0.144417
0.142617
0.140841
0.139375
0.138461
0.137892
0.215809
0.211273
0.206393
0.201101
0.195378
0.189262
0.182921
0.17707
0.17207
0.167792
0.164119
0.160948
0.158191
0.155771
0.153624
0.151694
0.149933
0.148296
0.146746
0.145251
0.14378
0.142308
0.140814
0.139282
0.13772
0.1362
0.134964
0.134191
0.133696
0.207449
0.202676
0.197861
0.1927
0.187095
0.18109
0.174885
0.169216
0.164441
0.160413
0.157003
0.154098
0.1516
0.14943
0.147523
0.14582
0.144274
0.142843
0.141488
0.140181
0.138888
0.137585
0.136253
0.134893
0.133532
0.132235
0.131197
0.130548
0.130113
0.195597
0.191975
0.188287
0.183821
0.178677
0.173013
0.167116
0.161766
0.157314
0.153611
0.15052
0.147918
0.145707
0.143805
0.142146
0.140674
0.139342
0.138111
0.136945
0.135813
0.134683
0.133524
0.132326
0.131127
0.130005
0.128994
0.128156
0.127555
0.127099
0.220385
0.220706
0.221389
0.222733
0.224587
0.226658
0.228807
0.230977
0.233174
0.235441
0.237822
0.240354
0.243076
0.246027
0.249248
0.252781
0.256666
0.260932
0.265598
0.270657
0.276062
0.281681
0.287229
0.291564
0.293265
0.291076
0.283394
0.267793
0.235635
0.218604
0.219046
0.219844
0.221177
0.222945
0.224938
0.227045
0.229213
0.231446
0.233777
0.236243
0.238881
0.24173
0.244833
0.248234
0.251983
0.256125
0.260701
0.265743
0.271265
0.277267
0.283681
0.290313
0.296124
0.299778
0.300513
0.297699
0.293247
0.297518
0.216797
0.21732
0.218203
0.21953
0.221228
0.223142
0.225189
0.227332
0.229577
0.231949
0.234477
0.237197
0.240147
0.243375
0.246932
0.250874
0.255261
0.260151
0.265607
0.271692
0.278501
0.286149
0.294771
0.30384
0.312485
0.320901
0.329421
0.336674
0.35379
0.214939
0.21544
0.216295
0.217606
0.219308
0.221226
0.223264
0.225396
0.227644
0.230035
0.2326
0.235374
0.238399
0.241724
0.245407
0.249514
0.254119
0.259306
0.265173
0.271851
0.279551
0.288624
0.299633
0.312608
0.326882
0.342659
0.361036
0.377784
0.400094
0.213032
0.213498
0.214301
0.21558
0.217281
0.219211
0.221251
0.22338
0.225626
0.228025
0.23061
0.233418
0.236492
0.239886
0.243664
0.2479
0.252684
0.258119
0.264344
0.271549
0.280053
0.290419
0.303563
0.319835
0.338606
0.359551
0.384856
0.408801
0.435323
0.211078
0.211526
0.212296
0.213537
0.215206
0.217114
0.219138
0.221252
0.223486
0.225879
0.228464
0.231282
0.234378
0.237808
0.241639
0.245954
0.250853
0.256458
0.262936
0.270526
0.279608
0.290888
0.305505
0.323837
0.34508
0.36857
0.396536
0.426767
0.457282
0.209075
0.209512
0.210257
0.211457
0.213075
0.214938
0.216923
0.219004
0.221208
0.223574
0.226136
0.228936
0.232018
0.23544
0.239273
0.243603
0.248536
0.254204
0.260792
0.26857
0.277904
0.289573
0.304799
0.323375
0.346244
0.371339
0.398356
0.426712
0.45535
0.207016
0.207441
0.20816
0.209313
0.210871
0.212675
0.214606
0.216636
0.21879
0.221105
0.223617
0.226364
0.229392
0.232758
0.236533
0.240803
0.245675
0.25128
0.257803
0.265544
0.274745
0.286188
0.301177
0.320206
0.342084
0.365573
0.389623
0.413876
0.438151
0.204901
0.205312
0.206003
0.207103
0.208591
0.210324
0.212186
0.214147
0.21623
0.218469
0.2209
0.223559
0.22649
0.229747
0.233399
0.237528
0.242235
0.247637
0.2539
0.261388
0.269953
0.281089
0.295343
0.312979
0.332314
0.352577
0.372961
0.393179
0.412596
0.202728
0.203127
0.203787
0.204829
0.206238
0.207885
0.209662
0.211535
0.213525
0.215663
0.217982
0.220516
0.223305
0.2264
0.229861
0.233764
0.238202
0.243258
0.249058
0.255889
0.264118
0.274206
0.286838
0.301937
0.318062
0.334542
0.350803
0.366835
0.381692
0.200497
0.200881
0.201508
0.202487
0.203809
0.20536
0.207036
0.208804
0.21068
0.212692
0.214869
0.217242
0.219846
0.222724
0.22593
0.229526
0.233602
0.238159
0.243435
0.249544
0.256842
0.265485
0.275994
0.288139
0.300749
0.313197
0.325061
0.336634
0.347085
0.198208
0.198578
0.199171
0.200083
0.20131
0.202753
0.204314
0.205959
0.2077
0.209562
0.21157
0.213748
0.216125
0.218738
0.221628
0.22484
0.22844
0.232495
0.237082
0.242294
0.248317
0.255289
0.263466
0.272511
0.281503
0.289946
0.29758
0.304871
0.31125
0.195866
0.196227
0.196787
0.19763
0.198753
0.200072
0.2015
0.203004
0.20459
0.20628
0.208091
0.210042
0.212156
0.214457
0.216979
0.219754
0.222825
0.22624
0.230016
0.234191
0.238831
0.244016
0.249775
0.255724
0.261231
0.265994
0.269924
0.273537
0.27649
0.193472
0.193818
0.19434
0.195109
0.196125
0.197317
0.198604
0.199953
0.201368
0.202865
0.204456
0.206153
0.207971
0.209925
0.212037
0.214325
0.216807
0.219493
0.222375
0.225435
0.228658
0.232021
0.235393
0.238419
0.240792
0.242405
0.243316
0.244031
0.244393
0.191032
0.191365
0.191849
0.192542
0.193446
0.194501
0.195637
0.196819
0.198049
0.199336
0.200689
0.202112
0.20361
0.205191
0.206859
0.20862
0.210468
0.212382
0.214327
0.216239
0.218039
0.219619
0.220744
0.221146
0.220838
0.219886
0.218455
0.217035
0.215636
0.188551
0.188873
0.18932
0.189936
0.190723
0.191636
0.19261
0.193616
0.194649
0.195714
0.196816
0.197949
0.19911
0.200294
0.201495
0.2027
0.203884
0.205005
0.205996
0.206756
0.207158
0.207043
0.206113
0.204227
0.20169
0.198714
0.195535
0.192628
0.190168
0.186035
0.186344
0.186751
0.187288
0.18796
0.188728
0.189539
0.190363
0.19119
0.19203
0.192871
0.193703
0.194515
0.195291
0.19601
0.196646
0.197157
0.197478
0.197518
0.197149
0.196214
0.19452
0.191746
0.18789
0.183527
0.178986
0.174529
0.170623
0.167597
0.183492
0.18379
0.184157
0.184616
0.185172
0.185796
0.18644
0.187075
0.187699
0.188308
0.188885
0.189414
0.189873
0.190237
0.190474
0.190542
0.190383
0.189916
0.189029
0.187577
0.185381
0.182236
0.177817
0.172272
0.166411
0.160649
0.155231
0.150618
0.147298
0.180932
0.181222
0.181551
0.181935
0.182374
0.182852
0.183325
0.183773
0.184194
0.184573
0.184887
0.185114
0.185224
0.185182
0.184944
0.184456
0.183646
0.182416
0.180639
0.178158
0.174785
0.170306
0.164408
0.157391
0.150263
0.143502
0.137302
0.132123
0.128616
0.178362
0.178641
0.178929
0.179239
0.179568
0.179902
0.18021
0.180482
0.180703
0.180856
0.180915
0.180849
0.18062
0.180185
0.179491
0.178471
0.177039
0.175086
0.17247
0.169025
0.164554
0.158844
0.1516
0.143262
0.135022
0.127396
0.120504
0.114815
0.11114
0.17579
0.176061
0.176309
0.176549
0.176771
0.176962
0.177121
0.177219
0.177248
0.177186
0.177002
0.176659
0.176111
0.175307
0.174185
0.172669
0.17066
0.168038
0.16465
0.160317
0.154837
0.147991
0.139502
0.129945
0.120679
0.112255
0.104702
0.0985129
0.094665
0.173227
0.173492
0.1737
0.173877
0.173987
0.174063
0.174068
0.174
0.17385
0.173589
0.173179
0.172578
0.171736
0.170594
0.169083
0.167117
0.164588
0.161364
0.157282
0.15215
0.145753
0.137863
0.128209
0.11748
0.107211
0.0979979
0.0897748
0.0830829
0.0790879
0.170681
0.170946
0.171114
0.171233
0.171258
0.171202
0.171061
0.170843
0.170528
0.170084
0.16947
0.168637
0.167531
0.166089
0.164233
0.161871
0.158888
0.155142
0.150457
0.14463
0.137425
0.12859
0.117838
0.105945
0.094622
0.0845571
0.0756011
0.0683943
0.0643455
0.168157
0.168411
0.168564
0.168623
0.168554
0.168379
0.168113
0.167762
0.167303
0.166699
0.165905
0.164869
0.163535
0.161834
0.159685
0.156991
0.15363
0.149452
0.144273
0.137872
0.129991
0.120339
0.108585
0.0955355
0.0830659
0.072005
0.0621653
0.054372
0.050394
0.165669
0.165917
0.166057
0.16606
0.165901
0.165617
0.165238
0.164771
0.164189
0.16345
0.162505
0.1613
0.159776
0.157864
0.155481
0.152525
0.148872
0.144368
0.138819
0.131993
0.123608
0.113323
0.100735
0.0866033
0.072899
0.0606189
0.0495956
0.0409974
0.0372747
0.163222
0.163461
0.163572
0.163519
0.16328
0.162907
0.162439
0.161883
0.161208
0.160363
0.159298
0.157959
0.156289
0.154217
0.151662
0.148521
0.14467
0.139952
0.134174
0.127095
0.118417
0.107754
0.0946255
0.0796704
0.0648186
0.0511496
0.038481
0.0284539
0.0250248
0.160839
0.161122
0.161265
0.16118
0.160841
0.160331
0.159743
0.159098
0.158349
0.157427
0.156277
0.154844
0.153074
0.150898
0.148237
0.144992
0.14104
0.13623
0.130371
0.123228
0.114503
0.103775
0.0904781
0.0750984
0.0594137
0.0444522
0.0298616
0.0171589
0.0128555
0.164958
0.149012
0.126854
0.0986803
0.0677044
0.0375818
0.0112132
-0.0132903
-0.0355328
-0.0602468
-0.0855348
-0.115968
-0.147565
-0.177335
-0.201437
-0.217395
-0.225253
-0.227117
-0.226508
0.172603
0.160743
0.139418
0.110266
0.0758008
0.0390953
0.00399468
-0.0320232
-0.0654545
-0.103103
-0.141555
-0.181017
-0.219151
-0.252752
-0.278635
-0.295624
-0.304894
-0.308911
-0.310325
0.168299
0.157586
0.137501
0.108286
0.0716136
0.0299938
-0.011833
-0.0582463
-0.104618
-0.151922
-0.199633
-0.246618
-0.290175
-0.327101
-0.354959
-0.373418
-0.384155
-0.389685
-0.39241
0.15864
0.148183
0.129781
0.101252
0.0622539
0.0159926
-0.0342582
-0.0875268
-0.14258
-0.198745
-0.255013
-0.309446
-0.358528
-0.398798
-0.428352
-0.447689
-0.459201
-0.465667
-0.469317
0.146297
0.136607
0.119487
0.0911386
0.0504413
0.000841829
-0.0548705
-0.11464
-0.177429
-0.242081
-0.306293
-0.36692
-0.419848
-0.461832
-0.491903
-0.511518
-0.523637
-0.530999
-0.535445
0.129704
0.120374
0.104423
0.0768427
0.0357269
-0.0158992
-0.0753306
-0.140865
-0.210574
-0.282282
-0.352621
-0.41747
-0.47257
-0.515356
-0.545873
-0.566264
-0.579724
-0.588738
-0.594731
0.109156
0.0989177
0.0832616
0.0564411
0.0155887
-0.0370838
-0.0990586
-0.168552
-0.242918
-0.318919
-0.39224
-0.458072
-0.512371
-0.5535
-0.582483
-0.601975
-0.615268
-0.624472
-0.630678
0.0857201
0.073578
0.0569938
0.0300488
-0.010679
-0.0637165
-0.126826
-0.197999
-0.274168
-0.35132
-0.424409
-0.488378
-0.539831
-0.578195
-0.605265
-0.623873
-0.637087
-0.646514
-0.653016
0.0602982
0.0458612
0.0274485
-0.000642118
-0.0417326
-0.0947226
-0.157661
-0.22848
-0.30383
-0.37913
-0.448913
-0.508369
-0.55506
-0.589405
-0.613686
-0.630683
-0.643159
-0.652281
-0.658622
0.0337253
0.0170524
-0.00355528
-0.0333998
-0.0752546
-0.127998
-0.189886
-0.258903
-0.331529
-0.402837
-0.467345
-0.520911
-0.562176
-0.592367
-0.613997
-0.629642
-0.641692
-0.650983
-0.657768
0.00694214
-0.0116819
-0.03446
-0.0662195
-0.109058
-0.161535
-0.221906
-0.288084
-0.356308
-0.42147
-0.478493
-0.524301
-0.558658
-0.583393
-0.601032
-0.613859
-0.623841
-0.631612
-0.637251
-0.0189441
-0.0390857
-0.0637074
-0.097109
-0.140786
-0.192821
-0.251261
-0.313793
-0.376451
-0.434297
-0.483138
-0.52116
-0.549064
-0.568946
-0.583112
-0.593446
-0.601457
-0.607687
-0.612128
-0.04289
-0.0640473
-0.0900091
-0.124482
-0.168507
-0.219688
-0.27579
-0.334252
-0.391045
-0.441711
-0.483129
-0.514598
-0.537414
-0.553679
-0.565385
-0.574061
-0.58088
-0.586377
-0.590397
-0.0641301
-0.0858464
-0.112644
-0.147581
-0.191384
-0.241214
-0.294505
-0.348406
-0.39895
-0.4424
-0.476794
-0.502366
-0.520735
-0.533839
-0.543328
-0.550408
-0.555966
-0.560502
-0.563789
-0.0821624
-0.10406
-0.131242
-0.166101
-0.209136
-0.257108
-0.307138
-0.35617
-0.400532
-0.437407
-0.465914
-0.48693
-0.502134
-0.513185
-0.521373
-0.527613
-0.532565
-0.536671
-0.53966
-0.0968312
-0.118639
-0.145853
-0.180237
-0.222118
-0.267912
-0.314515
-0.358813
-0.397617
-0.429036
-0.453023
-0.470803
-0.483957
-0.493848
-0.50147
-0.507513
-0.512491
-0.516761
-0.519975
-0.10831
-0.129876
-0.156914
-0.190632
-0.231184
-0.274628
-0.317651
-0.357214
-0.390786
-0.417405
-0.437666
-0.452925
-0.464554
-0.473613
-0.480833
-0.486716
-0.491664
-0.495924
-0.499136
-0.116888
-0.138148
-0.164904
-0.197927
-0.237173
-0.278323
-0.317907
-0.353113
-0.382164
-0.40491
-0.422363
-0.43586
-0.446524
-0.455139
-0.462216
-0.468098
-0.473097
-0.477372
-0.480586
-0.122961
-0.143903
-0.170368
-0.202817
-0.241008
-0.280243
-0.316925
-0.348527
-0.373971
-0.393737
-0.409088
-0.421282
-0.431229
-0.439501
-0.44644
-0.45228
-0.457269
-0.461511
-0.464699
-0.126987
-0.147632
-0.173881
-0.205984
-0.243432
-0.281086
-0.315224
-0.343683
-0.366078
-0.383392
-0.397017
-0.408089
-0.417323
-0.425121
-0.431706
-0.437237
-0.441922
-0.445837
-0.448737
-0.129324
-0.149706
-0.175873
-0.207914
-0.245006
-0.281536
-0.313678
-0.339655
-0.359669
-0.375061
-0.387281
-0.397356
-0.405863
-0.41309
-0.419187
-0.424263
-0.428492
-0.431953
-0.434478
-0.130322
-0.150493
-0.176757
-0.209005
-0.246051
-0.28185
-0.312496