/*--------------------------------*- C++ -*----------------------------------*\
| =========                 |                                                 |
| \\      /  F ield         | OpenFOAM: The Open Source CFD Toolbox           |
|  \\    /   O peration     | Version:  2312                                  |
|   \\  /    A nd           | Website:  www.openfoam.com                      |
|    \\/     M anipulation  |                                                 |
\*---------------------------------------------------------------------------*/
FoamFile
{
    version     2.0;
    format      ascii;
    arch        "LSB;label=32;scalar=64";
    class       volVectorField;
    location    "34.263147985363616";
    object      U;
}
// * * * * * * * * * * * * * * * * * * * * * * * * * * * * * * * * * * * * * //

dimensions      [0 1 -1 0 0 0 0];

internalField   nonuniform List<vector> 
21039
(
(0.913792 0.0474802 0)
(1.02605 0.0665121 0)
(1.00449 0.0294742 0)
(1.00177 0.0189081 0)
(1.00121 0.0139007 0)
(1.0008 0.0105216 0)
(1.00055 0.0081978 0)
(1.0004 0.00655786 0)
(1.0003 0.00535067 0)
(1.00023 0.00443236 0)
(1.00018 0.00371747 0)
(1.00015 0.003151 0)
(1.00012 0.00269595 0)
(1.00009 0.00232674 0)
(1.00008 0.00202525 0)
(1.00006 0.00177835 0)
(1.00005 0.00157635 0)
(1.00004 0.00141191 0)
(1.00003 0.00127937 0)
(1.00002 0.00117412 0)
(1.00002 0.00109227 0)
(1.00001 0.00103177 0)
(1.00001 0.000994282 0)
(1 0.000960692 0)
(1.00001 0.000935468 0)
(1.00001 0.000915528 0)
(1.00001 0.000896624 0)
(1.00001 0.000868704 0)
(1.00001 0.000810087 0)
(0.794627 0.0730954 0)
(1.07448 0.121692 0)
(1.03987 0.070807 0)
(1.01811 0.0497114 0)
(1.01128 0.0382917 0)
(1.00763 0.0295097 0)
(1.00538 0.0232142 0)
(1.00395 0.0186396 0)
(1.00299 0.0151854 0)
(1.00232 0.0125104 0)
(1.00184 0.0103981 0)
(1.00148 0.00870184 0)
(1.0012 0.00732081 0)
(1.00098 0.00618463 0)
(1.00081 0.00524303 0)
(1.00067 0.00445945 0)
(1.00055 0.0038069 0)
(1.00045 0.00326516 0)
(1.00036 0.00281881 0)
(1.00028 0.00245582 0)
(1.00022 0.00216622 0)
(1.00016 0.00194355 0)
(1.00011 0.00179184 0)
(1.00008 0.00167964 0)
(1.00007 0.00161176 0)
(1.00007 0.00157052 0)
(1.00008 0.00154194 0)
(1.00009 0.00150669 0)
(1.0001 0.00143509 0)
(0.667395 0.0572855 0)
(1.08301 0.124789 0)
(1.08433 0.0902515 0)
(1.04628 0.067658 0)
(1.02905 0.0541345 0)
(1.02024 0.0431709 0)
(1.01468 0.0348639 0)
(1.01098 0.0284805 0)
(1.00843 0.0234485 0)
(1.00661 0.0194365 0)
(1.00528 0.0161987 0)
(1.00428 0.0135528 0)
(1.0035 0.0113675 0)
(1.0029 0.00954753 0)
(1.00241 0.00802285 0)
(1.002 0.00674151 0)
(1.00166 0.00566461 0)
(1.00137 0.00476279 0)
(1.00112 0.00401366 0)
(1.0009 0.00339998 0)
(1.0007 0.00290766 0)
(1.00053 0.00252636 0)
(1.00038 0.00226188 0)
(1.00028 0.00207803 0)
(1.00022 0.00197407 0)
(1.00019 0.00191565 0)
(1.00019 0.00187913 0)
(1.0002 0.0018395 0)
(1.00021 0.00176368 0)
(0.541106 0.0352626 0)
(1.05077 0.110802 0)
(1.11588 0.0969638 0)
(1.07609 0.0762374 0)
(1.04922 0.0620671 0)
(1.03526 0.0509507 0)
(1.02641 0.0422689 0)
(1.02024 0.035232 0)
(1.01582 0.0294379 0)
(1.01259 0.0246612 0)
(1.01017 0.0206975 0)
(1.00832 0.017383 0)
(1.00688 0.0145932 0)
(1.00573 0.012233 0)
(1.00479 0.0102293 0)
(1.00402 0.00852596 0)
(1.00336 0.00708025 0)
(1.0028 0.00585919 0)
(1.0023 0.00483747 0)
(1.00186 0.0039956 0)
(1.00146 0.00331792 0)
(1.00111 0.0027918 0)
(1.00079 0.00242451 0)
(1.00056 0.00217796 0)
(1.00041 0.00204329 0)
(1.00033 0.00197082 0)
(1.00031 0.00192863 0)
(1.00031 0.00188681 0)
(1.00032 0.00180718 0)
(0.44431 0.018664 0)
(0.997788 0.0918413 0)
(1.12898 0.0955859 0)
(1.1014 0.0793992 0)
(1.06821 0.0653405 0)
(1.04975 0.0546473 0)
(1.03826 0.0462432 0)
(1.03005 0.0391867 0)
(1.02397 0.03319 0)
(1.01939 0.0281035 0)
(1.01588 0.0237687 0)
(1.01315 0.0200576 0)
(1.01098 0.0168704 0)
(1.00922 0.0141266 0)
(1.00778 0.0117622 0)
(1.00656 0.00972642 0)
(1.00553 0.00797951 0)
(1.00462 0.00649037 0)
(1.00382 0.00523482 0)
(1.0031 0.00419426 0)
(1.00245 0.00335397 0)
(1.00185 0.00270109 0)
(1.00131 0.00224479 0)
(1.00091 0.00194694 0)
(1.00064 0.00178986 0)
(1.00049 0.00171028 0)
(1.00042 0.00166914 0)
(1.00041 0.00163193 0)
(1.0004 0.00155277 0)
(0.378798 0.00809905 0)
(0.939811 0.0718093 0)
(1.12697 0.0882111 0)
(1.12079 0.0785171 0)
(1.08548 0.0657438 0)
(1.06306 0.0557311 0)
(1.04931 0.0478314 0)
(1.03951 0.041045 0)
(1.0321 0.0351397 0)
(1.02639 0.0300112 0)
(1.02192 0.0255395 0)
(1.01837 0.0216303 0)
(1.0155 0.0182091 0)
(1.01315 0.0152137 0)
(1.01118 0.0125935 0)
(1.0095 0.0103078 0)
(1.00805 0.00832414 0)
(1.00677 0.00661684 0)
(1.00563 0.00516604 0)
(1.00458 0.00395659 0)
(1.00363 0.00297695 0)
(1.00274 0.00221604 0)
(1.00193 0.00168599 0)
(1.0013 0.00135001 0)
(1.00088 0.00118114 0)
(1.00064 0.00110345 0)
(1.00052 0.00107178 0)
(1.00048 0.00104847 0)
(1.00044 0.000978524 0)
(0.33362 0.00232924 0)
(0.883603 0.0537997 0)
(1.11408 0.0777424 0)
(1.13386 0.0746549 0)
(1.1009 0.0640677 0)
(1.07536 0.0549519 0)
(1.05954 0.0476838 0)
(1.04843 0.0413377 0)
(1.03996 0.0356928 0)
(1.03333 0.030678 0)
(1.02805 0.0262126 0)
(1.02378 0.0222346 0)
(1.02028 0.018692 0)
(1.01735 0.0155409 0)
(1.01488 0.0127448 0)
(1.01274 0.0102744 0)
(1.01086 0.00810623 0)
(1.00919 0.00622211 0)
(1.00767 0.00460836 0)
(1.00627 0.00325514 0)
(1.00496 0.00215594 0)
(1.00374 0.00130355 0)
(1.00261 0.000713473 0)
(1.00173 0.000350436 0)
(1.00113 0.000179482 0)
(1.00076 0.000110623 0)
(1.00058 9.07481e-05 0)
(1.0005 9.19971e-05 0)
(1.00042 6.93493e-05 0)
(0.301365 -0.000199212 0)
(0.831977 0.0395284 0)
(1.09398 0.0668184 0)
(1.14062 0.069174 0)
(1.11394 0.0610887 0)
(1.08663 0.0529447 0)
(1.069 0.0463105 0)
(1.05679 0.0404648 0)
(1.04747 0.0351645 0)
(1.04009 0.0303514 0)
(1.03413 0.0259791 0)
(1.02924 0.022013 0)
(1.02518 0.0184223 0)
(1.02174 0.0151796 0)
(1.01879 0.0122625 0)
(1.0162 0.00965299 0)
(1.01391 0.00733727 0)
(1.01183 0.00530539 0)
(1.00991 0.00355093 0)
(1.00813 0.00207058 0)
(1.00644 0.000864048 0)
(1.00485 -7.12431e-05 0)
(1.00335 -0.000714473 0)
(1.00217 -0.00109598 0)
(1.00136 -0.00126012 0)
(1.00085 -0.001307 0)
(1.00057 -0.00129584 0)
(1.00043 -0.00127501 0)
(1.0003 -0.0013139 0)
(0.278442 -0.000994921 0)
(0.78643 0.0290317 0)
(1.06993 0.0568024 0)
(1.14191 0.0631213 0)
(1.12433 0.0574866 0)
(1.09677 0.0502972 0)
(1.07768 0.0441996 0)
(1.06456 0.0388049 0)
(1.05458 0.0338481 0)
(1.0466 0.029262 0)
(1.0401 0.02502 0)
(1.0347 0.0211069 0)
(1.03015 0.0175082 0)
(1.02626 0.0142109 0)
(1.02286 0.0112049 0)
(1.01986 0.00848277 0)
(1.01714 0.00604014 0)
(1.01466 0.00387544 0)
(1.01234 0.00199007 0)
(1.01015 0.000387658 0)
(1.00806 -0.00092602 0)
(1.00605 -0.00194586 0)
(1.00415 -0.00264267 0)
(1.00262 -0.00304223 0)
(1.00155 -0.00319812 0)
(1.00087 -0.00322008 0)
(1.00047 -0.00317227 0)
(1.00024 -0.00311301 0)
(1.00004 -0.00313391 0)
(0.262058 -0.00104068 0)
(0.74734 0.021602 0)
(1.04447 0.0481121 0)
(1.13904 0.0570635 0)
(1.13222 0.053654 0)
(1.10584 0.047385 0)
(1.08568 0.0417156 0)
(1.07177 0.0366749 0)
(1.06128 0.032007 0)
(1.05286 0.0276249 0)
(1.04592 0.023509 0)
(1.0401 0.0196551 0)
(1.03515 0.0160596 0)
(1.03085 0.01272 0)
(1.02707 0.00963601 0)
(1.02367 0.00680929 0)
(1.02056 0.00424382 0)
(1.01768 0.00194618 0)
(1.01495 -7.53541e-05 0)
(1.01235 -0.00181043 0)
(1.00982 -0.00324434 0)
(1.00736 -0.00436301 0)
(1.00501 -0.00512797 0)
(1.00308 -0.00555858 0)
(1.00171 -0.0057138 0)
(1.00081 -0.00571323 0)
(1.00026 -0.00562805 0)
(0.999902 -0.00552472 0)
(0.999585 -0.00551424 0)
(0.249893 -0.000822608 0)
(0.714202 0.0164507 0)
(1.0192 0.0407695 0)
(1.13324 0.0512851 0)
(1.13795 0.0497805 0)
(1.11397 0.0443892 0)
(1.09316 0.0390693 0)
(1.07857 0.0342879 0)
(1.06765 0.0298383 0)
(1.05888 0.0256147 0)
(1.05161 0.0215963 0)
(1.04546 0.017784 0)
(1.04017 0.0141805 0)
(1.03554 0.0107906 0)
(1.0314 0.00762101 0)
(1.02765 0.00468045 0)
(1.02417 0.00198012 0)
(1.0209 -0.000467606 0)
(1.01777 -0.00264773 0)
(1.01473 -0.00454103 0)
(1.01175 -0.00612386 0)
(1.00881 -0.00737319 0)
(1.00595 -0.00823975 0)
(1.00358 -0.00873182 0)
(1.00186 -0.00890886 0)
(1.00069 -0.0089005 0)
(0.999929 -0.00878585 0)
(0.999399 -0.00864111 0)
(0.998924 -0.00859774 0)
(0.240424 -0.00056367 0)
(0.686174 0.012892 0)
(0.995015 0.0346506 0)
(1.12548 0.0459311 0)
(1.14184 0.0459737 0)
(1.12125 0.0413994 0)
(1.10025 0.0363771 0)
(1.08508 0.0317765 0)
(1.07379 0.0274763 0)
(1.06475 0.0233599 0)
(1.05722 0.0194003 0)
(1.05081 0.0155991 0)
(1.04525 0.0119627 0)
(1.04033 0.00849985 0)
(1.03589 0.00522224 0)
(1.03181 0.00214385 0)
(1.028 -0.00072004 0)
(1.02436 -0.00335157 0)
(1.02084 -0.00572775 0)
(1.01737 -0.00782144 0)
(1.01391 -0.00960093 0)
(1.01046 -0.0110339 0)
(1.00706 -0.0120593 0)
(1.00418 -0.0126683 0)
(1.00205 -0.012913 0)
(1.00055 -0.0129311 0)
(0.999515 -0.0128101 0)
(0.998745 -0.0126378 0)
(0.99805 -0.0125676 0)
(0.232775 -0.000354023 0)
(0.662419 0.0103882 0)
(0.972388 0.0295744 0)
(1.1165 0.041058 0)
(1.1442 0.0423029 0)
(1.12776 0.038471 0)
(1.10704 0.0337109 0)
(1.0914 0.0292295 0)
(1.07978 0.0250168 0)
(1.07053 0.0209568 0)
(1.0628 0.0170142 0)
(1.05619 0.0131882 0)
(1.05041 0.00948577 0)
(1.04526 0.005918 0)
(1.04057 0.00249918 0)
(1.03622 -0.000754617 0)
(1.0321 -0.00382461 0)
(1.02813 -0.00668686 0)
(1.02422 -0.00931192 0)
(1.02032 -0.0116659 0)
(1.01639 -0.01371 0)
(1.01239 -0.0154035 0)
(1.00842 -0.016674 0)
(1.00499 -0.0174896 0)
(1.00239 -0.0178817 0)
(1.00049 -0.0179919 0)
(0.999097 -0.017914 0)
(0.998001 -0.0177491 0)
(0.997005 -0.0176722 0)
(0.226434 -0.000211912 0)
(0.642208 0.00856434 0)
(0.951521 0.0253548 0)
(1.10686 0.0366647 0)
(1.14532 0.0388086 0)
(1.13359 0.0356397 0)
(1.11358 0.0311189 0)
(1.09762 0.0267116 0)
(1.08572 0.0225342 0)
(1.07629 0.0184841 0)
(1.06843 0.0145177 0)
(1.06167 0.010629 0)
(1.05574 0.0068237 0)
(1.05041 0.00311276 0)
(1.04552 -0.000489764 0)
(1.04095 -0.00396694 0)
(1.03657 -0.0072965 0)
(1.03229 -0.0104499 0)
(1.02803 -0.0133927 0)
(1.02372 -0.0160852 0)
(1.0193 -0.0184828 0)
(1.01477 -0.0205385 0)
(1.0102 -0.0221716 0)
(1.0062 -0.0233237 0)
(1.00307 -0.0239903 0)
(1.00069 -0.0243057 0)
(0.998841 -0.0243645 0)
(0.997303 -0.0242795 0)
(0.995891 -0.0242444 0)
(0.221074 -0.000127277 0)
(0.624924 0.00718964 0)
(0.932457 0.0218561 0)
(1.09694 0.0327506 0)
(1.14542 0.0355267 0)
(1.13875 0.0329297 0)
(1.11987 0.0286284 0)
(1.10375 0.0242646 0)
(1.09161 0.0200825 0)
(1.08205 0.0160031 0)
(1.07409 0.011976 0)
(1.06724 0.00798872 0)
(1.06121 0.00404367 0)
(1.05576 0.000149138 0)
(1.05073 -0.00368294 0)
(1.04598 -0.0074353 0)
(1.04139 -0.0110835 0)
(1.03685 -0.0145962 0)
(1.03227 -0.017935 0)
(1.02758 -0.0210549 0)
(1.02271 -0.0239063 0)
(1.01765 -0.026439 0)
(1.01251 -0.0285712 0)
(1.00797 -0.0302287 0)
(1.00435 -0.0313618 0)
(1.00147 -0.0320833 0)
(0.999095 -0.0324676 0)
(0.996995 -0.0326192 0)
(0.995028 -0.0327276 0)
(0.216852 -7.04004e-05 0)
(0.611147 0.00620487 0)
(0.916445 0.0191491 0)
(1.08785 0.0295305 0)
(1.14489 0.0327114 0)
(1.14307 0.0305748 0)
(1.12555 0.0264663 0)
(1.10943 0.0221299 0)
(1.09713 0.0179219 0)
(1.08748 0.0137913 0)
(1.07948 0.00968242 0)
(1.07261 0.00557545 0)
(1.06654 0.0014673 0)
(1.06105 -0.00263843 0)
(1.05596 -0.00673332 0)
(1.05112 -0.0108018 0)
(1.0464 -0.0148202 0)
(1.04169 -0.0187568 0)
(1.03687 -0.0225707 0)
(1.03187 -0.0262114 0)
(1.02661 -0.0296214 0)
(1.02109 -0.0327433 0)
(1.01545 -0.0354897 0)
(1.01047 -0.0377768 0)
(1.00649 -0.0395339 0)
(1.00323 -0.0408742 0)
(1.00036 -0.0418403 0)
(0.997617 -0.0424785 0)
(0.99489 -0.0429101 0)
(0.213729 -3.645e-05 0)
(0.600994 0.0055354 0)
(0.904162 0.0172062 0)
(1.08041 0.0271113 0)
(1.14409 0.0305396 0)
(1.14638 0.0287493 0)
(1.1302 0.0247952 0)
(1.1142 0.0204776 0)
(1.10181 0.0162417 0)
(1.09212 0.0120609 0)
(1.08413 0.00787388 0)
(1.07728 0.00365296 0)
(1.07123 -0.000611065 0)
(1.06577 -0.00492047 0)
(1.06069 -0.00927151 0)
(1.05584 -0.0136528 0)
(1.05108 -0.0180452 0)
(1.04629 -0.0224203 0)
(1.04134 -0.0267384 0)
(1.03614 -0.0309462 0)
(1.03061 -0.0349782 0)
(1.02474 -0.0387635 0)
(1.01871 -0.0421877 0)
(1.01344 -0.045127 0)
(1.00928 -0.0475084 0)
(1.00593 -0.0495273 0)
(1.00292 -0.0513078 0)
(0.999878 -0.0528825 0)
(0.996676 -0.0540894 0)
(0.211302 1.12907e-05 0)
(0.593187 0.00508025 0)
(0.894438 0.0157952 0)
(1.07418 0.0252797 0)
(1.14313 0.0288622 0)
(1.14893 0.0273421 0)
(1.13402 0.0235235 0)
(1.11819 0.0192326 0)
(1.10575 0.0149819 0)
(1.09604 0.0107643 0)
(1.08808 0.0065143 0)
(1.08129 0.00219709 0)
(1.0753 -0.00220234 0)
(1.0699 -0.00669201 0)
(1.06488 -0.0112742 0)
(1.06008 -0.015944 0)
(1.05535 -0.0206896 0)
(1.05055 -0.0254896 0)
(1.04556 -0.0303103 0)
(1.04026 -0.0351013 0)
(1.03456 -0.0397939 0)
(1.02845 -0.0443067 0)
(1.0221 -0.0484824 0)
(1.01655 -0.0520758 0)
(1.01226 -0.0549281 0)
(1.00899 -0.0573044 0)
(1.00635 -0.0595751 0)
(1.00404 -0.0621229 0)
(1.00145 -0.0643878 0)
(0.20974 3.69984e-06 0)
(0.587791 0.00472527 0)
(0.887489 0.0147896 0)
(1.06963 0.0239872 0)
(1.14244 0.0276691 0)
(1.15092 0.0263109 0)
(1.13704 0.0225647 0)
(1.12141 0.0182902 0)
(1.10897 0.0140374 0)
(1.09929 0.00979963 0)
(1.09139 0.00550293 0)
(1.08466 0.00110723 0)
(1.07877 -0.00340655 0)
(1.07346 -0.00805165 0)
(1.06854 -0.0128371 0)
(1.06384 -0.0177664 0)
(1.0592 -0.0228371 0)
(1.05448 -0.0280379 0)
(1.04955 -0.0333455 0)
(1.04427 -0.0387198 0)
(1.03856 -0.0441006 0)
(1.03239 -0.0494175 0)
(1.02596 -0.0545032 0)
(1.02032 -0.0589589 0)
(1.01597 -0.0624023 0)
(1.01275 -0.0648783 0)
(1.01036 -0.0664164 0)
(1.0088 -0.0677353 0)
(1.009 -0.072692 0)
(1.00002 0.000818976 0)
(1.00001 0.000820456 0)
(1.00001 0.000816904 0)
(1.00001 0.000814254 1.01565e-21)
(1.00001 0.000813608 5.06422e-21)
(1.00001 0.000814786 -9.11166e-21)
(1.00001 0.000817622 5.05986e-21)
(1.00001 0.000822004 -4.03024e-21)
(1 0.000827775 5.15524e-22)
(1 0.000834954 4.02777e-21)
(1 0.000843371 0)
(1 0.000853011 -4.50153e-21)
(0.999999 0.000863762 5.1192e-22)
(0.999998 0.000875492 3.99602e-21)
(0.999997 0.000888185 0)
(0.999995 0.000901676 0)
(0.999994 0.000915921 -3.9564e-21)
(0.999993 0.000930791 3.9589e-21)
(0.999992 0.000946124 0)
(0.999991 0.000961918 -1.96271e-21)
(0.99999 0.000977994 2.08611e-21)
(0.999989 0.000994237 1.82918e-21)
(0.999988 0.00101059 -2.92468e-21)
(0.999987 0.00102689 9.42559e-22)
(0.999987 0.00104303 3.0201e-23)
(0.999986 0.00105895 -6.03627e-23)
(0.999986 0.00107447 8.39543e-22)
(0.999985 0.00108952 -9.59658e-22)
(0.999985 0.00110407 0)
(0.999985 0.00111784 0)
(0.999985 0.00113078 -2.36732e-22)
(0.999985 0.00114295 -2.35726e-22)
(0.999985 0.00115421 -3.98215e-21)
(0.999985 0.00116453 3.27741e-21)
(0.999986 0.00117379 -4.17913e-21)
(0.999986 0.00118196 4.17376e-21)
(0.999987 0.00118901 -3.21856e-21)
(0.999987 0.00119481 3.21726e-21)
(0.999988 0.00119938 4.56438e-22)
(0.999989 0.00120261 4.54212e-22)
(0.99999 0.0012045 -4.51954e-22)
(0.999991 0.00120502 0)
(0.999992 0.00120406 0)
(0.999994 0.00120168 0)
(0.999995 0.00119778 0)
(0.999997 0.00119256 0)
(0.999999 0.00118584 1.75008e-21)
(1 0.00117679 -1.74711e-21)
(1 0.00116138 0)
(1.00009 0.00144159 0)
(1.00008 0.00144167 2.04985e-21)
(1.00006 0.00143865 -2.04244e-21)
(1.00005 0.00143953 -1.01917e-21)
(1.00003 0.00144551 -1.01936e-21)
(1.00002 0.00145597 -3.04747e-21)
(1.00001 0.00147063 5.08747e-21)
(0.999992 0.00148946 0)
(0.99998 0.00151192 -5.06119e-22)
(0.999967 0.00153818 -1.01113e-21)
(0.999956 0.00156773 0)
(0.999945 0.00160048 5.03135e-22)
(0.999934 0.00163625 -4.51318e-21)
(0.999925 0.00167458 4.01468e-21)
(0.999915 0.00171548 0)
(0.999907 0.00175852 9.98346e-22)
(0.999899 0.00180349 0)
(0.999892 0.00185025 0)
(0.999886 0.00189828 0)
(0.99988 0.00194752 -1.97129e-21)
(0.999875 0.00199767 1.849e-21)
(0.999871 0.00204836 -1.22929e-22)
(0.999867 0.00209943 0)
(0.999865 0.00215056 -4.56386e-22)
(0.999863 0.00220145 4.79316e-22)
(0.999862 0.00225191 9.08688e-23)
(0.999862 0.00230162 1.20649e-22)
(0.999863 0.00235032 0)
(0.999865 0.00239782 -1.91321e-21)
(0.999867 0.00244382 1.91278e-21)
(0.99987 0.00248808 -3.55872e-21)
(0.999874 0.00253041 7.81255e-21)
(0.999879 0.00257055 -3.54346e-21)
(0.999884 0.00260831 4.69388e-22)
(0.99989 0.0026434 4.67363e-22)
(0.999897 0.00267569 4.6574e-22)
(0.999905 0.00270497 -4.63125e-22)
(0.999913 0.00273098 4.14231e-21)
(0.999922 0.00275366 -3.21855e-21)
(0.999932 0.00277268 -1.36997e-21)
(0.999943 0.00278798 4.99099e-21)
(0.999954 0.00279937 -3.62353e-21)
(0.999966 0.0028066 -1.79918e-21)
(0.999978 0.00280971 3.57276e-21)
(0.999991 0.00280828 -7.12292e-21)
(1 0.00280253 3.54919e-21)
(1.00002 0.00279224 1.75851e-21)
(1.00003 0.0027766 -3.97534e-24)
(1.00005 0.00275058 0)
(1.00019 0.0017604 3.08494e-21)
(1.00015 0.00175916 -1.03003e-21)
(1.00011 0.00176036 -4.10285e-21)
(1.00006 0.00176831 2.04505e-21)
(1.00002 0.00178427 -2.0446e-21)
(0.999983 0.00180739 0)
(0.999945 0.00183737 -2.03416e-21)
(0.999909 0.0018743 -6.09058e-21)
(0.999874 0.00191711 6.09169e-21)
(0.999841 0.00196622 1.01108e-21)
(0.99981 0.0020207 0)
(0.999781 0.0020804 -6.04359e-21)
(0.999754 0.00214519 1.18013e-23)
(0.999728 0.00221408 4.01925e-21)
(0.999705 0.00228727 0)
(0.999684 0.00236398 -9.97698e-22)
(0.999664 0.00244382 -9.97589e-22)
(0.999647 0.00252677 0)
(0.999632 0.00261175 -9.92243e-22)
(0.99962 0.00269875 -1.97282e-21)
(0.999609 0.00278739 1.97342e-21)
(0.999601 0.0028769 -2.46445e-22)
(0.999595 0.00296712 -2.45114e-22)
(0.999591 0.00305759 0)
(0.999589 0.0031477 3.79341e-23)
(0.99959 0.0032372 -2.1219e-22)
(0.999593 0.00332566 0)
(0.999598 0.00341251 0)
(0.999605 0.00349748 -1.91361e-21)
(0.999614 0.00358016 1.91324e-21)
(0.999626 0.00366009 -3.79674e-21)
(0.999639 0.00373693 3.79547e-21)
(0.999655 0.00381029 0)
(0.999673 0.00387981 0)
(0.999692 0.00394509 0)
(0.999714 0.00400585 -9.30248e-22)
(0.999737 0.00406169 -1.85353e-21)
(0.999763 0.00411225 0)
(0.99979 0.00415736 -9.17282e-22)
(0.999819 0.00419646 -9.05504e-22)
(0.99985 0.00422949 2.73296e-21)
(0.999883 0.00425603 0)
(0.999917 0.00427569 3.59095e-21)
(0.999954 0.00428851 -5.37492e-21)
(0.999991 0.00429372 0)
(1.00003 0.00429158 0)
(1.00007 0.00428151 0)
(1.00011 0.00426267 -1.75295e-21)
(1.00016 0.00423093 -1.74158e-21)
(1.00027 0.00179434 -2.06118e-21)
(1.0002 0.00179613 4.12526e-21)
(1.00012 0.00180681 4.1173e-21)
(1.00003 0.00182687 6.15411e-21)
(0.999954 0.00185795 -2.05614e-21)
(0.999877 0.00189905 -4.08402e-21)
(0.999803 0.00194987 8.16551e-21)
(0.999733 0.00201073 -4.22718e-24)
(0.999666 0.0020798 -2.0309e-21)
(0.999603 0.00215796 2.03321e-21)
(0.999543 0.0022437 0)
(0.999487 0.00233685 2.01811e-21)
(0.999435 0.00243738 -2.00604e-21)
(0.999387 0.00254361 8.04714e-21)
(0.999343 0.00265607 -8.02726e-21)
(0.999304 0.0027735 6.01587e-21)
(0.999268 0.00289535 -1.00419e-21)
(0.999237 0.00302181 9.97758e-22)
(0.999209 0.00315104 9.91474e-22)
(0.999187 0.00328318 -9.9216e-22)
(0.999168 0.00341779 0)
(0.999154 0.00355357 -1.47341e-21)
(0.999144 0.00369044 1.2308e-21)
(0.999139 0.00382778 9.79287e-22)
(0.999138 0.00396458 4.56403e-23)
(0.999142 0.00410059 9.07967e-23)
(0.999149 0.00423526 1.44984e-21)
(0.999161 0.00436765 -9.65292e-22)
(0.999178 0.00449746 1.91582e-21)
(0.999198 0.00462415 -1.91551e-21)
(0.999223 0.00474694 0)
(0.999252 0.00486547 4.73343e-21)
(0.999285 0.00497916 -3.78289e-21)
(0.999321 0.00508744 3.75073e-21)
(0.999362 0.00518983 -3.74934e-21)
(0.999406 0.00528589 0)
(0.999455 0.00537504 3.69633e-21)
(0.999507 0.00545681 -1.851e-21)
(0.999562 0.00553093 0)
(0.999622 0.00559663 3.64643e-21)
(0.999685 0.00565382 -3.64178e-21)
(0.999751 0.00570188 1.80788e-21)
(0.999821 0.00574029 1.79877e-21)
(0.999894 0.00576908 5.36606e-21)
(0.99997 0.00578717 6.32468e-24)
(1.00005 0.0057949 3.54749e-21)
(1.00013 0.0057913 1.7569e-21)
(1.00022 0.00577541 1.74499e-21)
(1.00031 0.0057444 1.74293e-21)
(1.00032 0.00153408 0)
(1.00021 0.00154557 -4.13111e-21)
(1.00008 0.00157287 -4.12119e-21)
(0.999943 0.00161225 0)
(0.999812 0.00166602 -4.10914e-21)
(0.999685 0.00173289 1.04665e-23)
(0.999564 0.00181257 8.21605e-21)
(0.999447 0.00190567 -2.05743e-21)
(0.999337 0.00200944 -1.08129e-23)
(0.999233 0.00212543 -6.11412e-21)
(0.999135 0.00225137 0)
(0.999043 0.00238713 -6.08756e-21)
(0.998958 0.00253282 2.03408e-21)
(0.998879 0.0026859 0)
(0.998808 0.00284738 -2.02022e-21)
(0.998743 0.00301541 9.88584e-24)
(0.998685 0.00318927 -2.00233e-21)
(0.998634 0.00336943 6.99651e-21)
(0.998591 0.00355311 -1.29111e-23)
(0.998554 0.00374071 -1.00537e-21)
(0.998525 0.00393171 -9.90976e-22)
(0.998503 0.00412417 1.97085e-21)
(0.998488 0.00431816 -1.97114e-21)
(0.998481 0.00451285 -2.43599e-22)
(0.998481 0.00470681 5.04581e-22)
(0.998488 0.00489979 -2.72303e-22)
(0.998502 0.0050911 9.69482e-22)
(0.998524 0.00527939 -9.67601e-22)
(0.998552 0.00546433 9.638e-22)
(0.998588 0.00564525 1.91184e-21)
(0.99863 0.00582103 -5.71816e-21)
(0.998679 0.00599127 -9.32585e-22)
(0.998735 0.0061552 5.68265e-21)
(0.998798 0.00631201 1.88439e-21)
(0.998867 0.00646118 -3.73825e-21)
(0.998942 0.00660205 3.73599e-21)
(0.999024 0.00673389 8.54011e-24)
(0.999112 0.00685613 5.53886e-21)
(0.999207 0.00696836 -3.69102e-21)
(0.999307 0.00706962 -9.14473e-21)
(0.999413 0.00715983 3.63616e-21)
(0.999525 0.00723814 1.80855e-21)
(0.999642 0.0073039 7.18594e-21)
(0.999765 0.00735722 -3.58538e-21)
(0.999894 0.00739663 -9.00247e-24)
(1.00003 0.00742267 -9.80905e-24)
(1.00017 0.00743392 0)
(1.00032 0.00742947 -3.50188e-21)
(1.00048 0.00740836 -3.47556e-21)
(1.00033 0.000960228 0)
(1.00016 0.000989417 -6.24903e-21)
(0.999965 0.00104212 6.23918e-21)
(0.999767 0.00110997 0)
(0.999571 0.00119598 0)
(0.999381 0.00129858 -4.12511e-21)
(0.999197 0.0014175 -2.91031e-24)
(0.999022 0.0015537 -4.12427e-21)
(0.998856 0.00170333 -8.39929e-24)
(0.998698 0.00186872 0)
(0.99855 0.0020467 0)
(0.998412 0.00223722 2.03491e-21)
(0.998284 0.00244055 0)
(0.998166 0.00265314 0)
(0.998058 0.00287662 -2.02482e-21)
(0.99796 0.00310839 4.0585e-21)
(0.997873 0.00334754 2.02164e-21)
(0.997797 0.00359497 0)
(0.997731 0.00384669 1.98898e-21)
(0.997677 0.00410349 -5.00088e-21)
(0.997633 0.00436474 -1.99033e-21)
(0.997601 0.00462774 -1.97946e-21)
(0.997579 0.00489278 1.97965e-21)
(0.997569 0.00515878 1.3797e-24)
(0.99757 0.00542381 1.53701e-23)
(0.997581 0.00568764 2.43833e-22)
(0.997604 0.00594943 -4.87468e-22)
(0.997637 0.00620734 0)
(0.997681 0.00646105 -9.62825e-22)
(0.997736 0.00670972 0)
(0.997801 0.00695184 0)
(0.997877 0.00718699 -1.9078e-21)
(0.997963 0.00741418 -7.57161e-21)
(0.998059 0.00763234 2.31384e-23)
(0.998165 0.0078409 1.88194e-21)
(0.99828 0.00803899 0)
(0.998405 0.00822568 -1.85522e-21)
(0.99854 0.00840031 -3.69979e-21)
(0.998684 0.00856236 3.67253e-21)
(0.998836 0.00871062 7.31315e-21)
(0.998998 0.00884505 -7.27238e-21)
(0.999168 0.00896458 1.69698e-24)
(0.999347 0.00906843 -3.59639e-21)
(0.999534 0.0091568 -1.16026e-24)
(0.999729 0.00922783 0)
(0.999933 0.00928228 -3.53635e-21)
(1.00015 0.00931822 -1.75274e-21)
(1.00037 0.00933496 1.75142e-21)
(1.00061 0.0093345 3.47768e-21)
(1.00024 6.34485e-05 0)
(1 9.93049e-05 4.1783e-21)
(0.999742 0.000183341 -1.2553e-20)
(0.999467 0.000290824 0)
(0.999191 0.000422184 0)
(0.99892 0.000573826 -8.32967e-21)
(0.99866 0.000745532 8.29793e-21)
(0.99841 0.000938766 -4.1595e-21)
(0.998173 0.00114852 -8.51524e-24)
(0.997949 0.00137817 4.13201e-21)
(0.997738 0.00162344 0)
(0.997541 0.00188437 0)
(0.997358 0.00216144 4.11587e-21)
(0.997189 0.00244988 0)
(0.997035 0.00275208 0)
(0.996896 0.00306458 -4.06832e-21)
(0.996772 0.00338624 1.56027e-23)
(0.996663 0.00371842 0)
(0.996569 0.0040558 2.00825e-21)
(0.996491 0.00439959 5.02269e-21)
(0.996429 0.00474902 -2.01236e-21)
(0.996383 0.00510055 0)
(0.996353 0.00545468 -9.91605e-22)
(0.996338 0.00581008 1.23879e-21)
(0.996339 0.00616422 -5.4012e-22)
(0.996357 0.00651689 -2.46281e-22)
(0.996389 0.00686708 4.85008e-22)
(0.996438 0.0072124 -9.75264e-22)
(0.996502 0.0075525 0)
(0.996581 0.00788636 -3.8586e-21)
(0.996675 0.00821203 5.75326e-21)
(0.996784 0.00852904 1.88798e-21)
(0.996908 0.00883617 -8.20118e-24)
(0.997046 0.00913202 1.8846e-21)
(0.997199 0.00941595 -1.89323e-21)
(0.997365 0.00968692 -3.732e-21)
(0.997545 0.00994372 7.44118e-21)
(0.997738 0.0101856 -3.70509e-21)
(0.997944 0.0104119 7.37156e-21)
(0.998163 0.0106211 5.64319e-24)
(0.998395 0.0108134 7.27571e-21)
(0.998638 0.0109872 -3.61474e-21)
(0.998893 0.0111419 0)
(0.99916 0.0112776 -1.16711e-24)
(0.999438 0.011392 7.10268e-21)
(0.999729 0.0114863 0)
(1.00003 0.0115579 0)
(1.00035 0.0116064 6.09743e-21)
(1.00069 0.0116385 8.68847e-22)
(1.00005 -0.00130156 1.0559e-21)
(0.999717 -0.0011501 7.42314e-21)
(0.999352 -0.00099456 8.39828e-21)
(0.998977 -0.000867267 -8.45687e-21)
(0.998603 -0.000688966 0)
(0.998247 -0.000474523 -1.14155e-23)
(0.997894 -0.000234497 -4.22388e-21)
(0.997553 3.26365e-05 -4.21066e-21)
(0.997229 0.000320174 1.25393e-20)
(0.996922 0.000632407 -4.16774e-21)
(0.996632 0.000963748 0)
(0.996361 0.00131449 8.30603e-21)
(0.99611 0.00168536 -8.25536e-21)
(0.995877 0.00207014 2.66927e-23)
(0.995665 0.00247211 8.22419e-21)
(0.995473 0.00288676 -2.06501e-21)
(0.995302 0.00331269 -2.00873e-21)
(0.995152 0.00375179 4.0813e-21)
(0.995023 0.00419721 0)
(0.994916 0.00465061 -2.01559e-21)
(0.994831 0.00511106 2.01698e-21)
(0.994767 0.00557408 2.00476e-21)
(0.994725 0.00604036 -2.00471e-21)
(0.994705 0.00650824 2.50169e-22)
(0.994707 0.00697458 3.08881e-23)
(0.994731 0.0074391 7.38766e-22)
(0.994776 0.00790058 -2.75167e-24)
(0.994844 0.00835606 0)
(0.994932 0.00880505 0)
(0.995042 0.00924632 -9.1158e-25)
(0.995173 0.00967744 -1.91343e-21)
(0.995325 0.0100978 3.8452e-21)
(0.995496 0.010506 -3.81608e-21)
(0.995688 0.0109001 3.78341e-21)
(0.995899 0.0112794 -7.56536e-21)
(0.996129 0.0116428 1.81413e-23)
(0.996378 0.0119886 3.7389e-21)
(0.996645 0.0123159 3.69756e-21)
(0.99693 0.012624 -7.38962e-21)
(0.997232 0.0129111 -7.33294e-21)
(0.99755 0.0131774 -3.65058e-21)
(0.997884 0.0134211 -3.62654e-21)
(0.998234 0.0136413 0)
(0.9986 0.0138385 -3.57042e-21)
(0.998981 0.0140097 -6.46965e-24)
(0.999378 0.0141565 7.04364e-21)
(0.999793 0.0142756 -8.74068e-21)
(1.00023 0.0143673 1.72608e-21)
(1.00069 0.0144445 0)
(0.999698 -0.003112 0)
(0.999262 -0.00293341 -8.48588e-21)
(0.998772 -0.00270903 0)
(0.998272 -0.00246444 8.46499e-21)
(0.997774 -0.00214375 4.24094e-21)
(0.997289 -0.00183971 -8.47694e-21)
(0.996818 -0.00155996 1.26644e-20)
(0.996367 -0.00120834 4.20282e-21)
(0.995946 -0.000823164 -4.19681e-21)
(0.995538 -0.000407089 0)
(0.995151 3.28784e-05 4.19237e-21)
(0.994789 0.000497205 -8.36141e-21)
(0.994452 0.000986494 4.2003e-21)
(0.994141 0.00149289 -4.14562e-21)
(0.993856 0.00202067 3.05251e-23)
(0.993598 0.00256415 4.14736e-21)
(0.993368 0.00312156 -8.26121e-21)
(0.993166 0.00369529 0)
(0.992993 0.00427688 4.09219e-21)
(0.992848 0.00486845 -4.09218e-21)
(0.992733 0.00546876 -1.01227e-21)
(0.992646 0.00607236 0)
(0.99259 0.00668007 1.01409e-21)
(0.992563 0.00728982 2.51052e-22)
(0.992566 0.0078978 -5.32343e-22)
(0.992598 0.00850355 7.46217e-22)
(0.99266 0.00910554 4.91431e-22)
(0.992751 0.00970022 -9.87407e-22)
(0.992871 0.0102868 0)
(0.99302 0.0108638 -1.94414e-21)
(0.993197 0.0114282 3.88914e-21)
(0.993402 0.0119792 0)
(0.993635 0.012515 1.91088e-21)
(0.993895 0.0130332 0)
(0.99418 0.013533 3.77804e-21)
(0.994491 0.014013 -7.52722e-21)
(0.994827 0.014471 3.72733e-21)
(0.995187 0.014906 -2.26149e-23)
(0.99557 0.0153172 3.66254e-21)
(0.995976 0.0157023 -3.6786e-21)
(0.996403 0.0160618 3.63937e-21)
(0.996851 0.0163932 7.23696e-21)
(0.997319 0.0166958 0)
(0.997807 0.0169701 0)
(0.998315 0.0172126 -7.09148e-21)
(0.998843 0.0174255 -1.40697e-20)
(0.999393 0.0176044 1.39693e-20)
(0.999971 0.0177506 -7.81302e-21)
(1.00059 0.0178859 7.73816e-21)
(0.999127 -0.00546455 0)
(0.998564 -0.00521881 8.64542e-21)
(0.997943 -0.00491058 8.6309e-21)
(0.9973 -0.00457438 1.29253e-20)
(0.996653 -0.00418979 -1.29169e-20)
(0.996007 -0.00377738 -4.28119e-21)
(0.99539 -0.00333469 1.29004e-20)
(0.994797 -0.00281122 -4.26883e-21)
(0.994234 -0.00230042 4.27258e-21)
(0.993698 -0.00179686 0)
(0.993193 -0.0012292 8.55263e-21)
(0.992722 -0.000623526 0)
(0.992279 1.37724e-05 -4.20196e-21)
(0.991868 0.000672307 -4.2442e-21)
(0.991492 0.00135791 5.217e-23)
(0.991151 0.00206326 0)
(0.990847 0.002786 4.18721e-21)
(0.990579 0.00352901 8.35425e-21)
(0.990348 0.00428217 0)
(0.990156 0.00504796 2.06026e-21)
(0.990002 0.00582474 -2.05961e-21)
(0.989887 0.00660601 -2.04225e-21)
(0.989811 0.00739259 2.05348e-21)
(0.989775 0.00818187 -4.24396e-24)
(0.989779 0.00896934 -5.05689e-22)
(0.989822 0.0097541 -2.2238e-22)
(0.989904 0.0105342 -5.00444e-22)
(0.990026 0.0113055 9.98024e-22)
(0.990187 0.0120667 0)
(0.990386 0.0128158 1.9573e-21)
(0.990623 0.0135492 -3.89983e-21)
(0.990897 0.0142656 0)
(0.991208 0.014963 0)
(0.991554 0.0156381 3.81541e-21)
(0.991935 0.0162898 -7.60681e-21)
(0.992349 0.0169166 3.7922e-21)
(0.992797 0.0175156 3.76277e-21)
(0.993275 0.0180856 0)
(0.993784 0.0186255 1.10928e-20)
(0.994321 0.0191326 -7.34431e-21)
(0.994885 0.0196076 -3.63954e-21)
(0.995477 0.0200475 8.34247e-24)
(0.996093 0.0204513 -7.18506e-21)
(0.996734 0.02082 -7.12217e-21)
(0.997399 0.0211494 -7.07031e-21)
(0.998089 0.0214422 1.44888e-23)
(0.998807 0.021693 -2.01878e-23)
(0.999558 0.0219043 0)
(1.00036 0.0221096 -1.37135e-20)
(0.998309 -0.00850712 0)
(0.997581 -0.00816781 2.26734e-21)
(0.996787 -0.00775332 -1.08013e-20)
(0.995965 -0.00730376 -8.63501e-21)
(0.995139 -0.00680538 8.62516e-21)
(0.994322 -0.00626366 4.39381e-21)
(0.993529 -0.00567828 -4.27836e-21)
(0.992761 -0.0050371 0)
(0.992018 -0.00436798 0)
(0.991319 -0.00365878 8.68843e-21)
(0.990659 -0.00289246 -8.55859e-21)
(0.99004 -0.00211312 4.2933e-21)
(0.989461 -0.00131549 -4.28986e-21)
(0.988924 -0.000470255 4.28406e-21)
(0.988431 0.000412656 4.28741e-21)
(0.987983 0.00132056 -4.25226e-21)
(0.987583 0.00225073 -4.20427e-21)
(0.987229 0.00320649 -4.18678e-21)
(0.986924 0.004176 4.18989e-21)
(0.98667 0.00516194 -4.18893e-21)
(0.986466 0.00616201 0)
(0.986313 0.00716872 2.0861e-21)
(0.986213 0.00818259 -2.05225e-21)
(0.986165 0.00920027 1.5372e-21)
(0.986168 0.0102165 0)
(0.986226 0.0112295 1.01454e-21)
(0.986335 0.0122369 0)
(0.986496 0.0132337 -9.9688e-22)
(0.98671 0.0142177 1.79054e-23)
(0.986974 0.0151863 1.22471e-23)
(0.987289 0.0161351 3.94859e-21)