/*--------------------------------*- C++ -*----------------------------------*\
| =========                 |                                                 |
| \\      /  F ield         | OpenFOAM: The Open Source CFD Toolbox           |
|  \\    /   O peration     | Version:  2312                                  |
|   \\  /    A nd           | Website:  www.openfoam.com                      |
|    \\/     M anipulation  |                                                 |
\*---------------------------------------------------------------------------*/
FoamFile
{
    version     2.0;
    format      ascii;
    arch        "LSB;label=32;scalar=64";
    class       volVectorField;
    location    "56.277567174488979";
    object      U;
}
// * * * * * * * * * * * * * * * * * * * * * * * * * * * * * * * * * * * * * //

dimensions      [0 1 -1 0 0 0 0];

internalField   nonuniform List<vector> 
21039
(
(0.913769 0.0474491 0)
(1.02607 0.0664991 0)
(1.00449 0.0294868 0)
(1.00177 0.0188936 0)
(1.00121 0.0138816 0)
(1.0008 0.0104971 0)
(1.00055 0.00816612 0)
(1.0004 0.00651855 0)
(1.00031 0.00530339 0)
(1.00024 0.00437674 0)
(1.00019 0.00365311 0)
(1.00015 0.00307751 0)
(1.00012 0.00261294 0)
(1.0001 0.00223382 0)
(1.00008 0.00192204 0)
(1.00007 0.0016645 0)
(1.00005 0.00145152 0)
(1.00004 0.00127582 0)
(1.00003 0.00113179 0)
(1.00003 0.00101491 0)
(1.00002 0.000921383 0)
(1.00002 0.000849201 0)
(1.00001 0.000800005 0)
(1.00001 0.000756104 0)
(1.00001 0.000722503 0)
(1.00001 0.000695796 0)
(1.00001 0.000671575 0)
(1.00001 0.000639922 0)
(1.00002 0.000579174 0)
(0.794561 0.0730683 0)
(1.07452 0.121699 0)
(1.03989 0.0708443 0)
(1.01812 0.0496976 0)
(1.0113 0.03827 0)
(1.00765 0.0294762 0)
(1.0054 0.0231653 0)
(1.00397 0.0185749 0)
(1.00302 0.0151044 0)
(1.00235 0.0124125 0)
(1.00186 0.0102824 0)
(1.0015 0.00856762 0)
(1.00123 0.00716726 0)
(1.00101 0.00601094 0)
(1.00084 0.00504838 0)
(1.0007 0.00424305 0)
(1.00058 0.00356802 0)
(1.00048 0.00300313 0)
(1.00039 0.0025331 0)
(1.00031 0.00214603 0)
(1.00025 0.00183215 0)
(1.00019 0.00158517 0)
(1.00014 0.00140898 0)
(1.00011 0.00127507 0)
(1.0001 0.00118945 0)
(1.0001 0.00113385 0)
(1.00011 0.00109377 0)
(1.00011 0.00104996 0)
(1.00012 0.00097273 0)
(0.667311 0.0572847 0)
(1.08304 0.124834 0)
(1.08438 0.0903247 0)
(1.04631 0.0676795 0)
(1.02909 0.0541483 0)
(1.02028 0.0431724 0)
(1.01472 0.0348493 0)
(1.01103 0.0284505 0)
(1.00848 0.0234027 0)
(1.00666 0.0193741 0)
(1.00533 0.0161192 0)
(1.00433 0.0134555 0)
(1.00356 0.0112516 0)
(1.00296 0.00941217 0)
(1.00247 0.00786707 0)
(1.00207 0.00656439 0)
(1.00173 0.00546525 0)
(1.00144 0.00454034 0)
(1.00119 0.00376738 0)
(1.00097 0.00312928 0)
(1.00078 0.00261213 0)
(1.0006 0.00220584 0)
(1.00045 0.00191595 0)
(1.00034 0.00170949 0)
(1.00028 0.0015869 0)
(1.00025 0.0015134 0)
(1.00025 0.00146474 0)
(1.00026 0.00141587 0)
(1.00026 0.00133409 0)
(0.54098 0.0352739 0)
(1.05075 0.110879 0)
(1.11594 0.0970919 0)
(1.07615 0.0763289 0)
(1.04928 0.0621513 0)
(1.03532 0.0510279 0)
(1.02647 0.042338 0)
(1.02031 0.0352946 0)
(1.01589 0.0294941 0)
(1.01266 0.0247109 0)
(1.01024 0.0207406 0)
(1.0084 0.0174192 0)
(1.00696 0.0146221 0)
(1.00581 0.012254 0)
(1.00488 0.0102416 0)
(1.00411 0.00852895 0)
(1.00346 0.00707299 0)
(1.0029 0.00584082 0)
(1.0024 0.00480713 0)
(1.00196 0.00395252 0)
(1.00157 0.00326143 0)
(1.00121 0.00272148 0)
(1.00089 0.00233953 0)
(1.00066 0.00207991 0)
(1.00051 0.00193422 0)
(1.00043 0.00185284 0)
(1.00039 0.00180334 0)
(1.0004 0.00175599 0)
(1.0004 0.00167357 0)
(0.444104 0.0186773 0)
(0.997654 0.0919469 0)
(1.12902 0.0957828 0)
(1.10148 0.079588 0)
(1.06828 0.0655249 0)
(1.04982 0.0548343 0)
(1.03832 0.0464374 0)
(1.03011 0.0393912 0)
(1.02403 0.0334055 0)
(1.01946 0.028331 0)
(1.01596 0.0240091 0)
(1.01322 0.0203114 0)
(1.01106 0.0171379 0)
(1.00931 0.0144078 0)
(1.00787 0.0120569 0)
(1.00666 0.0100341 0)
(1.00562 0.00829967 0)
(1.00473 0.0068222 0)
(1.00393 0.00557745 0)
(1.00321 0.00454673 0)
(1.00256 0.00371528 0)
(1.00197 0.00307045 0)
(1.00142 0.00262091 0)
(1.00101 0.00232913 0)
(1.00075 0.00217652 0)
(1.00059 0.00210055 0)
(1.00052 0.00206199 0)
(1.0005 0.00202661 0)
(1.00049 0.0019505 0)
(0.378502 0.0081119 0)
(0.939499 0.0719369 0)
(1.12693 0.088478 0)
(1.12087 0.078817 0)
(1.08555 0.0660504 0)
(1.06311 0.0560536 0)
(1.04935 0.0481813 0)
(1.03955 0.0414278 0)
(1.03213 0.0355579 0)
(1.02643 0.0304672 0)
(1.02196 0.0260353 0)
(1.01841 0.0221677 0)
(1.01555 0.0187893 0)
(1.01319 0.0158376 0)
(1.01123 0.0132616 0)
(1.00956 0.0110202 0)
(1.00811 0.00908052 0)
(1.00684 0.00741675 0)
(1.0057 0.00600863 0)
(1.00466 0.00484073 0)
(1.00371 0.00390122 0)
(1.00282 0.00317919 0)
(1.00201 0.00268622 0)
(1.00138 0.00238355 0)
(1.00096 0.00224148 0)
(1.00071 0.0021859 0)
(1.00059 0.00217161 0)
(1.00055 0.00216003 0)
(1.00051 0.00209888 0)
(0.33323 0.0023417 0)
(0.883063 0.0539403 0)
(1.11389 0.0780677 0)
(1.13389 0.0750642 0)
(1.10094 0.0645066 0)
(1.07536 0.0554239 0)
(1.05952 0.0482066 0)
(1.0484 0.0419208 0)
(1.03992 0.0363408 0)
(1.03328 0.0313948 0)
(1.028 0.0270021 0)
(1.02373 0.0230995 0)
(1.02023 0.0196349 0)
(1.01731 0.0165637 0)
(1.01484 0.0138489 0)
(1.0127 0.0114606 0)
(1.01083 0.00937482 0)
(1.00917 0.00757286 0)
(1.00765 0.00604049 0)
(1.00626 0.00476733 0)
(1.00496 0.00374616 0)
(1.00374 0.00296959 0)
(1.00262 0.00245333 0)
(1.00174 0.00215789 0)
(1.00114 0.00204188 0)
(1.00077 0.00202048 0)
(1.00058 0.00204326 0)
(1.0005 0.00206729 0)
(1.00042 0.00203057 0)
(0.300878 -0.000186665 0)
(0.831171 0.0396727 0)
(1.09356 0.0671823 0)
(1.14054 0.0696763 0)
(1.11392 0.0616554 0)
(1.08655 0.0535674 0)
(1.06887 0.0470093 0)
(1.05665 0.0412539 0)
(1.04732 0.0360512 0)
(1.03992 0.0313416 0)
(1.03395 0.0270779 0)
(1.02906 0.0232249 0)
(1.02499 0.019751 0)
(1.02156 0.0166282 0)
(1.0186 0.0138334 0)
(1.01602 0.0113478 0)
(1.01373 0.0091569 0)
(1.01166 0.00724996 0)
(1.00975 0.00561975 0)
(1.00798 0.00426215 0)
(1.0063 0.00317581 0)
(1.00471 0.00235829 0)
(1.00323 0.00183064 0)
(1.00205 0.00155359 0)
(1.00124 0.00147423 0)
(1.00073 0.00149759 0)
(1.00045 0.00156849 0)
(1.0003 0.00163961 0)
(1.00018 0.00163794 0)
(0.277853 -0.000981512 0)
(0.785343 0.0291719 0)
(1.06923 0.0571805 0)
(1.14165 0.0636886 0)
(1.1242 0.058162 0)
(1.09658 0.0510575 0)
(1.07741 0.0450631 0)
(1.06425 0.0397896 0)
(1.05425 0.0349643 0)
(1.04625 0.0305174 0)
(1.03973 0.0264212 0)
(1.03432 0.0226598 0)
(1.02976 0.0192179 0)
(1.02586 0.0160817 0)
(1.02247 0.0132402 0)
(1.01946 0.0106851 0)
(1.01676 0.00841109 0)
(1.01428 0.0064155 0)
(1.01197 0.00469863 0)
(1.00979 0.00326331 0)
(1.00772 0.00211503 0)
(1.00572 0.00125751 0)
(1.00383 0.000718471 0)
(1.00231 0.000460846 0)
(1.00125 0.000420896 0)
(1.00056 0.0004936 0)
(1.00017 0.000619143 0)
(0.999934 0.000746446 0)
(0.999732 0.000791603 0)
(0.261371 -0.00102596 0)
(0.745976 0.0217316 0)
(1.04343 0.0484796 0)
(1.13853 0.05766 0)
(1.13193 0.0544059 0)
(1.10549 0.0482568 0)
(1.08523 0.0427189 0)
(1.07126 0.0378297 0)
(1.06073 0.0333262 0)
(1.05228 0.029118 0)
(1.04531 0.0251839 0)
(1.03947 0.0215191 0)
(1.0345 0.018119 0)
(1.0302 0.0149803 0)
(1.0264 0.0121017 0)
(1.023 0.00948386 0)
(1.0199 0.00712947 0)
(1.01702 0.00504379 0)
(1.01431 0.00323455 0)
(1.01172 0.00171205 0)
(1.00921 0.000489438 0)
(1.00677 -0.00042355 0)
(1.00443 -0.000990326 0)
(1.00253 -0.00124219 0)
(1.00117 -0.00125139 0)
(1.00027 -0.00113592 0)
(0.999724 -0.000960712 0)
(0.999372 -0.000773586 0)
(0.999062 -0.000653742 0)
(0.249113 -0.000806928 0)
(0.712585 0.0165641 0)
(1.01782 0.0411033 0)
(1.13243 0.0518722 0)
(1.13743 0.0505678 0)
(1.11341 0.0453348 0)
(1.09248 0.0401758 0)
(1.07781 0.0355741 0)
(1.06683 0.031319 0)
(1.05802 0.0273008 0)
(1.05071 0.023497 0)
(1.04453 0.0199076 0)
(1.03921 0.0165346 0)
(1.03456 0.0133818 0)
(1.03041 0.0104548 0)
(1.02665 0.00776121 0)
(1.02317 0.00531076 0)
(1.01991 0.00311564 0)
(1.01679 0.00119077 0)
(1.01377 -0.000447025 0)
(1.01081 -0.00177736 0)
(1.00789 -0.00278075 0)
(1.00507 -0.00341046 0)
(1.00273 -0.00368936 0)
(1.00103 -0.00369175 0)
(0.999872 -0.00354451 0)
(0.999125 -0.00332127 0)
(0.998612 -0.00308813 0)
(0.998155 -0.00295362 0)
(0.239559 -0.000548045 0)
(0.684341 0.0129843 0)
(0.993298 0.0349315 0)
(1.12433 0.0464714 0)
(1.14103 0.0467504 0)
(1.12044 0.0423729 0)
(1.09931 0.0375405 0)
(1.08403 0.0331448 0)
(1.07266 0.0290647 0)
(1.06356 0.0251803 0)
(1.05598 0.0214628 0)
(1.04953 0.017913 0)
(1.04393 0.0145365 0)
(1.03898 0.0113414 0)
(1.03452 0.00833811 0)
(1.03043 0.00553937 0)
(1.02661 0.00296047 0)
(1.02297 0.000619554 0)
(1.01946 -0.00146388 0)
(1.01601 -0.00326583 0)
(1.01258 -0.00475672 0)
(1.00916 -0.00590753 0)
(1.00581 -0.00666045 0)
(1.00298 -0.00702392 0)
(1.00088 -0.00706744 0)
(0.999404 -0.00692354 0)
(0.998393 -0.00667354 0)
(0.997652 -0.00639812 0)
(0.996991 -0.00623693 0)
(0.23184 -0.000339699 0)
(0.660419 0.0104556 0)
(0.970364 0.0297886 0)
(1.11498 0.0415191 0)
(1.14304 0.0430231 0)
(1.12665 0.0394215 0)
(1.10579 0.0348783 0)
(1.09003 0.0306226 0)
(1.07832 0.0266498 0)
(1.06898 0.0228419 0)
(1.06119 0.0191622 0)
(1.05452 0.0156091 0)
(1.04869 0.0121892 0)
(1.0435 0.00891282 0)
(1.03878 0.00579325 0)
(1.03441 0.00284681 0)
(1.03027 9.22186e-05 0)
(1.02629 -0.00244916 0)
(1.02239 -0.00475144 0)
(1.01852 -0.00678317 0)
(1.01462 -0.00850794 0)
(1.01068 -0.0098883 0)
(1.00676 -0.0108554 0)
(1.00339 -0.0113964 0)
(1.00083 -0.0115638 0)
(0.998967 -0.0114922 0)
(0.997613 -0.011269 0)
(0.996557 -0.0109874 0)
(0.995608 -0.0108131 0)
(0.225447 -0.000199838 0)
(0.640093 0.00860435 0)
(0.949242 0.025494 0)
(1.10498 0.0370212 0)
(1.14379 0.03943 0)
(1.13213 0.0365159 0)
(1.112 0.0322339 0)
(1.0959 0.0280677 0)
(1.08389 0.024143 0)
(1.07436 0.0203575 0)
(1.06642 0.0166668 0)
(1.05959 0.0130647 0)
(1.05359 0.0095566 0)
(1.04821 0.00615318 0)
(1.04328 0.00286877 0)
(1.03866 -0.00027962 0)
(1.03426 -0.00327163 0)
(1.02997 -0.00608171 0)
(1.02572 -0.00867818 0)
(1.02143 -0.0110239 0)
(1.01706 -0.013077 0)
(1.01259 -0.0147938 0)
(1.00809 -0.0160975 0)
(1.00415 -0.0169504 0)
(1.00109 -0.0173716 0)
(0.998755 -0.017489 0)
(0.996958 -0.0173897 0)
(0.995475 -0.0171778 0)
(0.994124 -0.01704 0)
(0.220055 -0.000118665 0)
(0.622751 0.00720027 0)
(0.929989 0.0219166 0)
(1.09472 0.0329848 0)
(1.14351 0.0360138 0)
(1.13692 0.0336826 0)
(1.11793 0.0296338 0)
(1.10166 0.0255194 0)
(1.0894 0.0215946 0)
(1.07972 0.0177835 0)
(1.07166 0.0140361 0)
(1.06473 0.0103405 0)
(1.05861 0.00669903 0)
(1.0531 0.00312077 0)
(1.04801 -0.000381679 0)
(1.04321 -0.00379217 0)
(1.03858 -0.00708871 0)
(1.03402 -0.0102424 0)
(1.02945 -0.0132174 0)
(1.02478 -0.0159716 0)
(1.01996 -0.0184586 0)
(1.01497 -0.0206315 0)
(1.00991 -0.0224127 0)
(1.00545 -0.0237493 0)
(1.0019 -0.0246184 0)
(0.999091 -0.0251266 0)
(0.996783 -0.0253405 0)
(0.994756 -0.025356 0)
(0.992866 -0.025358 0)
(0.215824 -6.55402e-05 0)
(0.60897 0.00618785 0)
(0.913867 0.0191371 0)
(1.08538 0.029643 0)
(1.14264 0.0330507 0)
(1.14089 0.0311764 0)
(1.12327 0.0273237 0)
(1.10701 0.0232367 0)
(1.09457 0.0192825 0)
(1.08479 0.0154157 0)
(1.07668 0.0115826 0)
(1.0697 0.00776435 0)
(1.06354 0.003959 0)
(1.05795 0.00017137 0)
(1.05279 -0.00358987 0)
(1.04788 -0.00731056 0)
(1.04311 -0.0109692 0)
(1.03837 -0.0145361 0)
(1.03355 -0.0179732 0)
(1.02857 -0.0212335 0)
(1.02337 -0.024263 0)
(1.01793 -0.027008 0)
(1.01238 -0.0293854 0)
(1.00749 -0.031333 0)
(1.00359 -0.0328086 0)
(1.00041 -0.0339201 0)
(0.997627 -0.0347028 0)
(0.994975 -0.035196 0)
(0.992347 -0.035517 0)
(0.212709 -3.42609e-05 0)
(0.598846 0.00549621 0)
(0.901541 0.0171356 0)
(1.07776 0.0271186 0)
(1.14157 0.0307411 0)
(1.14391 0.0291993 0)
(1.12764 0.0254957 0)
(1.1115 0.021421 0)
(1.09896 0.0174299 0)
(1.08913 0.0135029 0)
(1.08101 0.00958227 0)
(1.07404 0.00564224 0)
(1.06788 0.00167519 0)
(1.06231 -0.00231921 0)
(1.05713 -0.00633727 0)
(1.0522 -0.0103692 0)
(1.04738 -0.014397 0)
(1.04254 -0.0183945 0)
(1.03759 -0.0223253 0)
(1.03241 -0.0261402 0)
(1.02693 -0.0297776 0)
(1.02115 -0.0331711 0)
(1.01522 -0.0362111 0)
(1.01004 -0.0387953 0)
(1.00597 -0.040879 0)
(1.00271 -0.0426526 0)
(0.999804 -0.044233 0)
(0.996872 -0.0456458 0)
(0.99378 -0.0467378 0)
(0.210299 1.14865e-05 0)
(0.591088 0.00502388 0)
(0.891818 0.0156786 0)
(1.07142 0.0251997 0)
(1.14042 0.028942 0)
(1.14624 0.0276505 0)
(1.13124 0.0240712 0)
(1.11527 0.0200128 0)
(1.10268 0.0159946 0)
(1.09282 0.012018 0)
(1.08472 0.0080222 0)
(1.07779 0.00397547 0)
(1.07167 -0.000135179 0)
(1.06614 -0.00431584 0)
(1.06101 -0.00856841 0)
(1.05611 -0.012889 0)
(1.0513 -0.0172665 0)
(1.04645 -0.0216822 0)
(1.04144 -0.0261057 0)
(1.03616 -0.0304916 0)
(1.03051 -0.034776 0)
(1.02449 -0.0388829 0)
(1.01825 -0.0426611 0)
(1.01279 -0.0458882 0)
(1.00859 -0.0484314 0)
(1.00541 -0.0505474 0)
(1.00288 -0.0525972 0)
(1.00069 -0.0549691 0)
(0.998251 -0.0571036 0)
(0.208756 2.66045e-06 0)
(0.585744 0.00465561 0)
(0.884892 0.014637 0)
(1.06681 0.0238358 0)
(1.13959 0.0276444 0)
(1.14805 0.0264926 0)
(1.13408 0.0229716 0)
(1.11831 0.0189171 0)
(1.10572 0.0148832 0)
(1.09588 0.0108725 0)
(1.08782 0.00681696 0)
(1.08095 0.00268042 0)
(1.0749 -0.00155354 0)
(1.06945 -0.00589612 0)
(1.0644 -0.0103556 0)
(1.05958 -0.0149356 0)
(1.05484 -0.0196343 0)
(1.05006 -0.0244432 0)
(1.0451 -0.0293427 0)
(1.03984 -0.0342981 0)
(1.03418 -0.0392549 0)
(1.02809 -0.0441492 0)
(1.02177 -0.0488207 0)
(1.01623 -0.0528949 0)
(1.01197 -0.0560127 0)
(1.00882 -0.0582063 0)
(1.00655 -0.0594975 0)
(1.00516 -0.0605785 0)
(1.00549 -0.065403 0)
(1.00002 0.000584703 0)
(1.00002 0.000583117 0)
(1.00002 0.000576865 0)
(1.00001 0.000571669 1.00726e-21)
(1.00001 0.000568559 5.02592e-21)
(1.00001 0.00056736 -9.04542e-21)
(1.00001 0.000567915 5.02454e-21)
(1.00001 0.000570101 -4.00594e-21)
(1.00001 0.00057378 5.10478e-22)
(1 0.000578957 4.00555e-21)
(1 0.000585473 0)
(1 0.000593314 -4.48363e-21)
(1 0.000602362 5.07871e-22)
(0.999999 0.000612499 3.98242e-21)
(0.999998 0.000623701 0)
(0.999996 0.000635807 0)
(0.999995 0.000648781 -3.95173e-21)
(0.999994 0.000662486 3.95423e-21)
(0.999993 0.000676767 0)
(0.999992 0.000691625 -1.9638e-21)
(0.999991 0.000706877 2.08731e-21)
(0.99999 0.000722412 1.83239e-21)
(0.999989 0.000738178 -2.93035e-21)
(0.999988 0.000753999 9.44756e-22)
(0.999987 0.00076978 3.03084e-23)
(0.999986 0.000785456 -6.05865e-23)
(0.999986 0.000800852 8.436e-22)
(0.999985 0.00081594 -9.64254e-22)
(0.999985 0.000830527 0)
(0.999985 0.000844449 0)
(0.999985 0.000857799 -2.38338e-22)
(0.999985 0.000870466 -2.37475e-22)
(0.999985 0.000882339 -4.0154e-21)
(0.999985 0.000893402 3.30468e-21)
(0.999985 0.000903535 -4.21933e-21)
(0.999985 0.000912693 4.21421e-21)
(0.999986 0.000920845 -3.25393e-21)
(0.999986 0.000927867 3.25232e-21)
(0.999987 0.00093376 4.6189e-22)
(0.999988 0.000938424 4.59934e-22)
(0.999989 0.000941844 -4.57944e-22)
(0.99999 0.000943998 0)
(0.999991 0.000944794 0)
(0.999992 0.000944278 0)
(0.999993 0.000942352 0)
(0.999995 0.000939153 0)
(0.999996 0.000934677 1.7808e-21)
(0.999998 0.00092802 -1.77794e-21)
(0.999999 0.000915146 0)
(1.00011 0.000972354 0)
(1.0001 0.000965858 2.03094e-21)
(1.00008 0.000956784 -2.02522e-21)
(1.00007 0.000951839 -1.01114e-21)
(1.00005 0.000952142 -1.01153e-21)
(1.00004 0.000957098 -3.0264e-21)
(1.00002 0.000966453 5.05198e-21)
(1.00001 0.000980162 0)
(0.999996 0.000997725 -5.03235e-22)
(0.999983 0.00101928 -1.00578e-21)
(0.99997 0.00104434 0)
(0.999959 0.00107283 5.01059e-22)
(0.999947 0.00110456 -4.49798e-21)
(0.999937 0.00113909 4.00127e-21)
(0.999927 0.00117642 0)
(0.999917 0.00121613 9.96346e-22)
(0.999909 0.00125803 0)
(0.999901 0.00130196 0)
(0.999893 0.00134742 0)
(0.999887 0.00139436 -1.97256e-21)
(0.999881 0.00144247 1.85016e-21)
(0.999876 0.00149138 -1.23111e-22)
(0.999872 0.00154095 0)
(0.999868 0.00159086 -4.57789e-22)
(0.999866 0.0016408 4.80778e-22)
(0.999864 0.00169058 9.12299e-23)
(0.999863 0.00173991 1.21204e-22)
(0.999863 0.00178851 0)
(0.999863 0.00183618 -1.92501e-21)
(0.999865 0.00188262 1.92458e-21)
(0.999867 0.00192761 -3.58527e-21)
(0.99987 0.00197092 7.87315e-21)
(0.999874 0.0020123 -3.57201e-21)
(0.999878 0.00205156 4.73625e-22)
(0.999883 0.00208842 4.71864e-22)
(0.999889 0.0021227 4.70555e-22)
(0.999896 0.00215423 -4.68129e-22)
(0.999903 0.00218278 4.19095e-21)
(0.999912 0.00220827 -3.25626e-21)
(0.999921 0.00223037 -1.38755e-21)
(0.99993 0.00224904 5.05965e-21)
(0.99994 0.00226398 -3.6739e-21)
(0.999951 0.00227494 -1.82616e-21)
(0.999963 0.00228201 3.62953e-21)
(0.999975 0.00228476 -7.23841e-21)
(0.999988 0.00228337 3.60789e-21)
(1 0.00227764 1.78989e-21)
(1.00001 0.00226677 -3.27927e-24)
(1.00003 0.00224592 0)
(1.00024 0.00132331 3.05457e-21)
(1.0002 0.00131395 -1.01989e-21)
(1.00015 0.00130764 -4.06559e-21)
(1.00011 0.00130834 2.02804e-21)
(1.00007 0.0013172 -2.02809e-21)
(1.00003 0.00133342 0)
(0.999987 0.0013567 -2.02022e-21)
(0.999949 0.00138715 -6.05221e-21)
(0.999913 0.00142371 6.05438e-21)
(0.999878 0.00146679 1.00571e-21)
(0.999845 0.0015155 0)
(0.999814 0.00156967 -6.01841e-21)
(0.999785 0.00162919 9.5452e-24)
(0.999758 0.00169309 4.00523e-21)
(0.999733 0.00176157 0)
(0.999709 0.00183385 -9.95676e-22)
(0.999688 0.00190956 -9.96017e-22)
(0.999669 0.00198868 0)
(0.999652 0.00207015 -9.91855e-22)
(0.999637 0.00215395 -1.97393e-21)
(0.999624 0.00223972 1.97453e-21)
(0.999614 0.00232668 -2.46782e-22)
(0.999606 0.00241468 -2.45616e-22)
(0.9996 0.00250328 0)
(0.999596 0.00259186 3.80696e-23)
(0.999594 0.00268015 -2.13017e-22)
(0.999595 0.00276776 0)
(0.999598 0.00285411 0)
(0.999603 0.0029389 -1.92542e-21)
(0.99961 0.00302177 1.92505e-21)
(0.999619 0.00310219 -3.82508e-21)
(0.999631 0.00317986 3.8238e-21)
(0.999644 0.00325438 0)
(0.999659 0.00332536 0)
(0.999677 0.00339243 0)
(0.999696 0.0034553 -9.39892e-22)
(0.999718 0.00351352 -1.87421e-21)
(0.999741 0.00356678 0)
(0.999766 0.00361485 -9.28599e-22)
(0.999793 0.00365721 -9.18412e-22)
(0.999822 0.00369376 2.76934e-21)
(0.999853 0.00372406 0)
(0.999886 0.00374776 3.64583e-21)
(0.99992 0.00376485 -5.4585e-21)
(0.999956 0.00377457 0)
(0.999993 0.00377717 0)
(1.00003 0.00377204 0)
(1.00007 0.0037584 -1.78495e-21)
(1.00012 0.00373242 -1.77503e-21)
(1.00035 0.00165535 -2.04034e-21)
(1.00027 0.00164938 4.08393e-21)
(1.00019 0.00165315 4.07785e-21)
(1.0001 0.00166653 6.10016e-21)
(1.00002 0.001691 -2.03766e-21)
(0.999944 0.00172563 -4.05298e-21)
(0.999867 0.00177009 8.10557e-21)
(0.999795 0.00182474 -3.22856e-24)
(0.999725 0.00188777 -2.01836e-21)
(0.99966 0.00196003 2.02119e-21)
(0.999597 0.00204008 0)
(0.999539 0.0021277 2.00892e-21)
(0.999485 0.0022229 -1.99922e-21)
(0.999434 0.00232404 8.01873e-21)
(0.999387 0.0024316 -8.00353e-21)
(0.999345 0.00254441 6.00021e-21)
(0.999306 0.00266183 -1.00213e-21)
(0.999272 0.00278414 9.96481e-22)
(0.999242 0.00290951 9.9095e-22)
(0.999216 0.00303802 -9.92111e-22)
(0.999194 0.00316931 0)
(0.999177 0.00330206 -1.47585e-21)
(0.999164 0.00343616 1.2322e-21)
(0.999156 0.00357105 9.8144e-22)
(0.999152 0.00370572 4.57935e-23)
(0.999152 0.00383987 9.11519e-23)
(0.999156 0.00397301 1.45659e-21)
(0.999165 0.00410418 -9.69891e-22)
(0.999178 0.00423304 1.92746e-21)
(0.999196 0.00435911 -1.92714e-21)
(0.999217 0.00448157 0)
(0.999243 0.00460004 4.77135e-21)
(0.999272 0.00471398 -3.81341e-21)
(0.999306 0.00482275 3.78602e-21)
(0.999343 0.00492592 -3.78463e-21)
(0.999385 0.00502304 0)
(0.99943 0.00511345 3.73827e-21)
(0.999479 0.00519677 -1.87133e-21)
(0.999532 0.00527265 0)
(0.999588 0.00534033 3.69609e-21)
(0.999648 0.00539974 -3.6909e-21)
(0.999712 0.00545019 1.83443e-21)
(0.999779 0.00549121 1.82586e-21)
(0.999849 0.00552279 5.45171e-21)
(0.999923 0.00554385 5.95829e-24)
(1 0.00555473 3.60744e-21)
(1.00008 0.00555439 1.78897e-21)
(1.00017 0.00554204 1.77888e-21)
(1.00026 0.00551536 1.77619e-21)
(1.00041 0.00193059 0)
(1.00029 0.0019368 -4.08876e-21)
(1.00016 0.00196029 -4.08092e-21)
(1.00002 0.00199591 0)
(0.999888 0.00204562 -4.07333e-21)
(0.999759 0.00210838 8.24832e-24)
(0.999635 0.00218385 8.14889e-21)
(0.999517 0.00227272 -2.04057e-21)
(0.999405 0.00237229 -8.51321e-24)
(0.999298 0.002484 -6.07477e-21)
(0.999198 0.00260575 0)
(0.999104 0.00273727 -6.05684e-21)
(0.999017 0.00287879 2.02329e-21)
(0.998936 0.00302779 0)
(0.998861 0.0031852 -2.013e-21)
(0.998794 0.00334931 9.37191e-24)
(0.998733 0.00351926 -1.99891e-21)
(0.998679 0.00369566 6.98518e-21)
(0.998633 0.00387577 -1.04206e-23)
(0.998593 0.00405982 -1.00306e-21)
(0.998561 0.00424747 -9.90695e-22)
(0.998536 0.00443674 1.97328e-21)
(0.998518 0.00462763 -1.97357e-21)
(0.998507 0.00481944 -2.44307e-22)
(0.998504 0.00501069 5.05876e-22)
(0.998507 0.00520105 -2.73418e-22)
(0.998518 0.00538998 9.73711e-22)
(0.998536 0.00557606 -9.71987e-22)
(0.998562 0.00575889 9.69171e-22)
(0.998594 0.00593793 1.9244e-21)
(0.998633 0.00611198 -5.75834e-21)
(0.998679 0.00628059 -9.42242e-22)
(0.998732 0.00644311 5.72862e-21)
(0.998791 0.00659857 1.90152e-21)
(0.998857 0.00674655 -3.77576e-21)
(0.998929 0.00688641 3.77349e-21)
(0.999008 0.00701724 7.39739e-24)
(0.999093 0.00713866 5.60441e-21)
(0.999185 0.00725012 -3.73521e-21)
(0.999282 0.0073507 -9.26464e-21)
(0.999385 0.00744034 3.6875e-21)
(0.999494 0.00751807 1.83611e-21)
(0.999609 0.00758338 7.29821e-21)
(0.999729 0.00763624 -3.64001e-21)
(0.999856 0.00767527 -7.16879e-24)
(0.999987 0.00770096 -7.72389e-24)
(1.00013 0.00771181 0)
(1.00027 0.00770718 -3.56704e-21)
(1.00043 0.00768701 -3.54466e-21)
(1.00039 0.00208451 0)
(1.00022 0.00211376 -6.17757e-21)
(1.00002 0.00216867 6.16997e-21)
(0.999824 0.00223821 0)
(0.999628 0.00232505 0)
(0.999437 0.00242805 -4.08813e-21)
(0.999254 0.00254684 -2.65888e-24)
(0.999078 0.00268256 -4.08982e-21)
(0.998912 0.00283145 -8.44857e-24)
(0.998754 0.00299569 0)
(0.998605 0.00317238 0)
(0.998467 0.00336124 2.02336e-21)
(0.998337 0.00356274 0)
(0.998218 0.00377336 0)
(0.998109 0.00399459 -2.01759e-21)
(0.99801 0.00422407 4.04275e-21)
(0.997922 0.00446064 2.01569e-21)
(0.997845 0.0047054 0)
(0.997778 0.00495448 1.98751e-21)
(0.997721 0.00520833 -4.99515e-21)
(0.997676 0.00546664 -1.9899e-21)
(0.997642 0.00572665 -1.98102e-21)
(0.997618 0.00598849 1.98122e-21)
(0.997606 0.00625133 1.36067e-24)
(0.997605 0.00651314 1.54078e-23)
(0.997614 0.00677356 2.44772e-22)
(0.997635 0.00703199 -4.89186e-22)
(0.997666 0.0072865 0)
(0.997708 0.0075366 -9.67877e-22)
(0.997761 0.00778172 0)
(0.997824 0.00802019 0)
(0.997898 0.00825153 -1.92211e-21)
(0.997982 0.00847495 -7.63463e-21)
(0.998076 0.00868912 2.1033e-23)
(0.99818 0.00889364 1.89835e-21)
(0.998294 0.00908766 0)
(0.998417 0.00927002 -1.87547e-21)
(0.99855 0.00944031 -3.74416e-21)
(0.998692 0.00959781 3.7179e-21)
(0.998843 0.00974141 7.41036e-21)
(0.999004 0.00987108 -7.37444e-21)
(0.999172 0.00998557 3.53123e-24)
(0.99935 0.0100844 -3.65124e-21)
(0.999535 0.0101674 8.60989e-25)
(0.999729 0.010233 0)
(0.999932 0.0102818 -3.59795e-21)
(1.00014 0.0103118 -1.78569e-21)
(1.00037 0.0103228 1.78436e-21)
(1.00061 0.010318 3.54576e-21)
(1.00025 0.00203062 0)
(1.00001 0.00209611 4.12819e-21)
(0.999744 0.00219601 -1.24034e-20)
(0.999469 0.00231317 0)
(0.999196 0.00245133 0)
(0.998929 0.00260914 -8.24469e-21)
(0.998672 0.00278622 8.21813e-21)
(0.998425 0.00298423 -4.12059e-21)
(0.998191 0.00319815 -8.62917e-24)
(0.99797 0.0034311 4.09826e-21)
(0.997762 0.00367921 0)
(0.997568 0.00394221 0)
(0.997387 0.00422086 4.08997e-21)
(0.997221 0.00451043 0)
(0.997069 0.0048131 0)
(0.996932 0.00512576 -4.05142e-21)
(0.99681 0.00544692 1.48663e-23)
(0.996703 0.00577821 0)
(0.996611 0.00611446 2.00418e-21)
(0.996535 0.00645641 5.01583e-21)
(0.996474 0.00680373 -2.00989e-21)
(0.996429 0.00715282 0)
(0.9964 0.00750392 -9.92559e-22)
(0.996387 0.00785604 1.24024e-21)
(0.996389 0.00820653 -5.41041e-22)
(0.996407 0.00855499 -2.46956e-22)
(0.996441 0.00890074 4.87052e-22)
(0.996491 0.00924126 -9.79019e-22)
(0.996556 0.00957599 0)
(0.996636 0.00990425 -3.88144e-21)
(0.996731 0.0102239 5.79108e-21)
(0.996842 0.0105344 1.9043e-21)
(0.996967 0.0108347 -6.77201e-24)
(0.997106 0.0111232 1.90272e-21)
(0.99726 0.0113994 -1.91003e-21)
(0.997428 0.0116624 -3.77173e-21)
(0.997609 0.0119105 7.52328e-21)
(0.997804 0.0121434 -3.74958e-21)
(0.998012 0.0123602 7.46392e-21)
(0.998232 0.0125596 7.67815e-24)
(0.998465 0.0127416 7.37885e-21)
(0.99871 0.0129046 -3.66769e-21)
(0.998967 0.0130481 0)
(0.999235 0.013172 1.34856e-24)
(0.999515 0.0132744 7.22826e-21)
(0.999807 0.0133561 0)
(1.00011 0.0134146 0)
(1.00043 0.01345 6.21997e-21)
(1.00077 0.0134706 8.86212e-22)
(0.999938 0.00166363 1.04204e-21)
(0.999622 0.00178045 7.32076e-21)
(0.999268 0.00193999 8.29337e-21)
(0.998901 0.00211999 -8.34774e-21)
(0.998535 0.00232568 0)
(0.998175 0.00255521 -1.1103e-23)
(0.997828 0.00280814 -4.17666e-21)
(0.997496 0.00308671 -4.16654e-21)
(0.997179 0.00338445 1.2419e-20)
(0.99688 0.00370559 -4.12953e-21)
(0.996599 0.00404507 0)
(0.996336 0.0044027 8.24292e-21)
(0.996092 0.00477951 -8.19763e-21)
(0.995868 0.0051694 2.39899e-23)
(0.995663 0.00557536 8.17788e-21)
(0.995479 0.00599336 -2.05298e-21)
(0.995315 0.00642154 -2.00286e-21)
(0.995172 0.00686211 4.06528e-21)
(0.99505 0.00730845 0)
(0.99495 0.00776161 -2.0115e-21)
(0.994871 0.00822119 2.01406e-21)
(0.994814 0.00868263 2.00408e-21)
(0.994779 0.0091463 -2.00403e-21)
(0.994765 0.00961097 2.50346e-22)
(0.994774 0.0100733 3.09365e-23)
(0.994804 0.0105329 7.40653e-22)
(0.994856 0.0109888 -2.57255e-24)
(0.99493 0.0114379 0)
(0.995025 0.0118795 0)
(0.995141 0.0123128 -1.80736e-24)
(0.995279 0.0127351 -1.92759e-21)
(0.995437 0.0131457 3.87057e-21)
(0.995615 0.0135435 -3.84591e-21)
(0.995813 0.0139262 3.81752e-21)
(0.996031 0.0142935 -7.63594e-21)
(0.996267 0.014644 1.77266e-23)
(0.996523 0.0149759 3.77872e-21)
(0.996796 0.0152887 3.74301e-21)
(0.997087 0.0155814 -7.48073e-21)
(0.997396 0.0158523 -7.4296e-21)
(0.99772 0.0161016 -3.70178e-21)
(0.998061 0.0163274 -3.68015e-21)
(0.998418 0.016529 0)
(0.99879 0.0167066 -3.6292e-21)
(0.999177 0.0168576 -4.25107e-26)
(0.99958 0.0169835 7.17782e-21)
(1 0.0170807 -8.9144e-21)
(1.00044 0.0171503 1.7677e-21)
(1.00091 0.0172074 0)
(0.999411 0.000858126 0)
(0.999002 0.00104308 -8.37712e-21)
(0.998543 0.00127651 0)
(0.998065 0.00153544 8.3583e-21)
(0.997585 0.00182648 4.18743e-21)
(0.997113 0.00214677 -8.37098e-21)
(0.996657 0.0024958 1.25161e-20)
(0.996218 0.00287629 4.15709e-21)
(0.995801 0.00328007 -4.15375e-21)
(0.995406 0.0037126 0)
(0.995034 0.00416746 4.15471e-21)
(0.994687 0.00464448 -8.28897e-21)
(0.994364 0.00514498 4.16531e-21)
(0.994068 0.0056613 -4.11659e-21)
(0.993798 0.00619733 2.75246e-23)
(0.993555 0.006748 4.12155e-21)
(0.99334 0.00731102 -8.21852e-21)
(0.993152 0.00788916 0)
(0.992993 0.00847422 4.07874e-21)
(0.992863 0.00906761 -4.07873e-21)
(0.992762 0.0096687 -1.01023e-21)
(0.99269 0.0102719 0)
(0.992648 0.0108778 1.01338e-21)
(0.992635 0.0114846 2.51287e-22)
(0.992652 0.0120884 -5.32676e-22)
(0.992698 0.0126885 7.47768e-22)
(0.992774 0.0132837 4.93333e-22)
(0.992879 0.0138704 -9.90415e-22)
(0.993014 0.0144475 0)
(0.993177 0.0150139 -1.95493e-21)
(0.993368 0.0155663 3.91182e-21)
(0.993587 0.0161039 0)
(0.993834 0.0166253 1.92526e-21)
(0.994108 0.0171275 0)
(0.994407 0.0176101 3.81281e-21)
(0.994732 0.0180717 -7.60491e-21)
(0.995082 0.0185098 3.7706e-21)
(0.995456 0.0189239 -1.96302e-23)
(0.995853 0.0193128 3.71196e-21)
(0.996272 0.0196743 -3.72783e-21)
(0.996712 0.020009 3.6915e-21)
(0.997174 0.0203143 7.35354e-21)
(0.997655 0.0205898 0)
(0.998156 0.0208355 0)
(0.998676 0.0210485 -7.2175e-21)
(0.999216 0.0212307 -1.43402e-20)
(0.999778 0.0213776 1.42503e-20)
(1.00037 0.0214914 -7.97289e-21)
(1.00099 0.0215963 7.9119e-21)
(0.998622 -0.000516393 0)
(0.998086 -0.000259201 8.52837e-21)
(0.997499 5.02534e-05 8.51504e-21)
(0.996899 0.000405769 1.27544e-20)
(0.996283 0.000801998 -1.27449e-20)
(0.995673 0.00123517 -4.22803e-21)
(0.995082 0.00170399 1.27316e-20)
(0.994512 0.00221128 -4.21753e-21)
(0.993969 0.00274717 4.22006e-21)
(0.993455 0.00331853 0)
(0.99297 0.00391734 8.45813e-21)
(0.992517 0.00454352 0)
(0.992096 0.00519852 -4.16527e-21)
(0.99171 0.00587308 -4.20696e-21)
(0.991357 0.00657201 4.88356e-23)
(0.99104 0.00728906 0)
(0.99076 0.00802146 4.15983e-21)
(0.990516 0.00877243 8.3071e-21)
(0.990309 0.0095322 0)
(0.990141 0.0103024 2.05347e-21)
(0.990012 0.0110821 -2.05282e-21)
(0.989921 0.0118647 -2.03889e-21)
(0.98987 0.0126504 2.04986e-21)
(0.989858 0.0134373 -3.97629e-24)
(0.989886 0.0142207 -5.05727e-22)
(0.989953 0.0149992 -2.22466e-22)
(0.99006 0.0157714 -5.01337e-22)
(0.990206 0.0165331 1.00117e-21)
(0.990391 0.0172824 0)
(0.990614 0.0180181 1.96778e-21)
(0.990875 0.0187362 -3.92135e-21)
(0.991174 0.0194353 0)
(0.991509 0.0201136 0)
(0.991879 0.0207677 3.84993e-21)
(0.992284 0.0213966 -7.67923e-21)
(0.992722 0.0219989 3.82723e-21)
(0.993193 0.0225713 3.80394e-21)
(0.993694 0.0231132 0)
(0.994226 0.0236231 1.12459e-20)
(0.994786 0.0240985 -7.44915e-21)
(0.995373 0.0245401 -3.7009e-21)
(0.995987 0.0249446 1.65523e-23)
(0.996625 0.0253118 -7.31311e-21)
(0.997288 0.0256419 -7.25629e-21)
(0.997974 0.0259313 -7.21058e-21)
(0.998684 0.0261826 4.71891e-24)
(0.99942 0.0263902 -1.00772e-23)
(1.00019 0.0265578 0)
(1.001 0.026721 -1.40293e-20)
(0.997563 -0.00277203 0)
(0.996865 -0.00236193 2.22427e-21)
(0.996109 -0.00185103 -1.06713e-20)
(0.995326 -0.00138574 -8.5337e-21)
(0.994538 -0.000924561 8.52424e-21)
(0.993764 -0.00036042 4.33323e-21)
(0.993016 0.000255801 -4.2323e-21)
(0.992285 0.000917408 0)
(0.991585 0.00161577 0)
(0.99092 0.00235855 8.58024e-21)
(0.990292 0.0031355 -8.46322e-21)
(0.989705 0.0039466 4.24734e-21)
(0.989159 0.00479333 -4.24391e-21)
(0.988656 0.00566489 4.24111e-21)
(0.988198 0.00656703 4.24834e-21)
(0.987785 0.00749219 -4.21681e-21)
(0.98742 0.00843707 -4.17578e-21)
(0.987102 0.00940516 -4.16181e-21)
(0.986833 0.0103851 4.16908e-21)
(0.986615 0.0113788 -4.1681e-21)
(0.986448 0.0123845 0)
(0.986331 0.0133946 2.07991e-21)
(0.986268 0.0144091 -2.04902e-21)
(0.986256 0.0154253 1.53532e-21)
(0.986297 0.0164376 0)
(0.986391 0.017444 1.01546e-21)
(0.986538 0.0184425 0)
(0.986736 0.019428 -9.99639e-22)
(0.986987 0.0203978 1.72042e-23)
(0.987288 0.02135 1.0371e-23)
(0.98764 0.02228 3.97066e-21)
(0.988041 0.0231854 0)
(0.98849 0.0240642 0)